Protein in INSANE! Membrane UpperLeaflet>POPC=1.0 LowerLeaflet>POPC=1.0
243857
    1AU     AUC    1  38.273   2.628   7.506
    1AU     AUC    2  38.544   2.640   7.332
    1AU     AUC    3  38.522   2.617   7.677
    1AU     AUC    4  37.998   2.628   7.344
    1AU     AUC    5  38.014   2.667   7.688
    1AU     AUC    6  38.110   2.908   7.506
    1AU     AUC    7  38.463   2.894   7.497
    1AU     AUC    8  38.088   2.371   7.514
    1AU     AUC    9  38.441   2.343   7.507
    1AU     AUC   10  38.276   2.455   7.779
    1AU     AUC   11  38.270   2.798   7.773
    1AU     AUC   12  38.266   2.462   7.237
    1AU     AUC   13  38.300   2.779   7.233
    1AU     AUC   14  38.866   2.635   7.176
    1AU     AUC   15  38.878   2.616   7.518
    1AU     AUC   16  38.815   2.599   7.879
    1AU     AUC   17  37.682   2.623   7.179
    1AU     AUC   18  37.665   2.666   7.537
    1AU     AUC   19  37.716   2.703   7.866
    1AU     AUC   20  37.957   3.236   7.482
    1AU     AUC   21  38.311   3.239   7.474
    1AU     AUC   22  38.675   3.179   7.486
    1AU     AUC   23  37.886   2.088   7.522
    1AU     AUC   24  38.242   2.032   7.489
    1AU     AUC   25  38.617   2.043   7.490
    1AU     AUC   26  38.253   2.277   8.071
    1AU     AUC   27  38.284   2.647   8.126
    1AU     AUC   28  38.301   2.977   8.070
    1AU     AUC   29  38.289   2.284   6.957
    1AU     AUC   30  38.260   2.613   6.895
    1AU     AUC   31  38.281   2.942   6.913
    1AU     AUC   32  38.533   2.418   8.016
    1AU     AUC   33  38.584   2.768   8.016
    1AU     AUC   34  38.596   2.465   7.015
    1AU     AUC   35  38.581   2.808   7.010
    1AU     AUC   36  37.967   2.512   8.023
    1AU     AUC   37  37.998   2.884   7.988
    1AU     AUC   38  37.959   2.438   7.055
    1AU     AUC   39  37.940   2.772   7.012
    1AU     AUC   40  38.804   2.913   7.297
    1AU     AUC   41  38.769   2.905   7.668
    1AU     AUC   42  37.790   2.941   7.338
    1AU     AUC   43  37.815   2.994   7.683
    1AU     AUC   44  38.770   2.330   7.356
    1AU     AUC   45  38.722   2.289   7.699
    1AU     AUC   46  37.754   2.325   7.371
    1AU     AUC   47  37.801   2.387   7.719
    1AU     AUC   48  38.139   3.174   7.776
    1AU     AUC   49  38.485   3.092   7.764
    1AU     AUC   50  38.077   2.163   7.801
    1AU     AUC   51  38.400   2.106   7.777
    1AU     AUC   52  38.111   3.072   7.207
    1AU     AUC   53  38.483   3.096   7.169
    1AU     AUC   54  38.079   2.160   7.213
    1AU     AUC   55  38.483   2.181   7.216
    1AU    AUSL   56  38.801   2.478   8.284
    1AU    AUSL   57  38.549   2.099   8.175
    1AU     AUL   58  38.721   2.064   8.521
    1AU       S   59  38.908   1.877   8.148
    1AU     LIG   60  38.777   1.567   8.453
    1AU     LIG   61  39.007   1.310   8.752
    1AU     LIG   62  39.262   1.021   9.018
    1AU     LIG   63  39.296   0.722   9.390
    1AU       S   64  38.957   2.399   8.340
    1AU     LIG   65  38.930   2.401   8.832
    1AU     LIG   66  39.172   2.323   9.249
    1AU     LIG   67  39.441   2.208   9.630
    1AU     LIG   68  39.823   2.253   9.907
    1AU    AUSL   69  38.376   2.432   8.412
    1AU    AUSL   70  38.128   2.817   8.427
    1AU     AUL   71  38.319   2.754   8.766
    1AU       S   72  38.402   2.378   8.530
    1AU     LIG   73  38.418   2.293   8.948
    1AU     LIG   74  38.679   2.188   9.298
    1AU     LIG   75  38.926   2.134   9.691
    1AU     LIG   76  38.987   2.081  10.155
    1AU       S   77  37.923   2.566   8.631
    1AU     LIG   78  37.943   2.542   9.114
    1AU     LIG   79  37.690   2.524   9.528
    1AU     LIG   80  37.504   2.726   9.921
    1AU     LIG   81  37.340   3.075  10.214
    1AU    AUSL   82  38.552   2.848   8.372
    1AU    AUSL   83  38.934   2.865   8.119
    1AU     AUL   84  38.817   2.785   8.526
    1AU       S   85  38.459   3.156   8.497
    1AU     LIG   86  38.710   3.115   8.885
    1AU     LIG   87  38.936   3.239   9.290
    1AU     LIG   88  38.917   3.274   9.781
    1AU     LIG   89  39.025   3.413  10.230
    1AU       S   90  39.044   3.121   8.300
    1AU     LIG   91  39.451   3.064   8.427
    1AU     LIG   92  39.726   3.310   8.718
    1AU     LIG   93  39.966   3.612   8.990
    1AU     LIG   94  40.161   3.956   9.241
    1AU    AUSL   95  38.717   2.674   6.865
    1AU    AUSL   96  38.669   3.113   6.807
    1AU     AUL   97  38.818   2.994   6.562
    1AU       S   98  38.655   2.709   6.258
    1AU     LIG   99  39.099   2.710   6.141
    1AU     LIG  100  39.264   2.478   5.779
    1AU     LIG  101  39.335   2.310   5.358
    1AU     LIG  102  39.454   2.346   4.919
    1AU       S  103  39.019   3.324   6.821
    1AU     LIG  104  39.163   3.533   6.421
    1AU     LIG  105  39.367   3.753   6.040
    1AU     LIG  106  39.637   4.011   5.746
    1AU     LIG  107  39.884   4.182   5.381
    1AU    AUSL  108  38.538   2.390   6.576
    1AU    AUSL  109  39.027   2.383   6.931
    1AU     AUL  110  38.913   2.532   6.634
    1AU       S  111  39.149   2.127   6.713
    1AU     LIG  112  39.291   1.843   6.368
    1AU     LIG  113  39.488   1.445   6.265
    1AU     LIG  114  39.791   1.115   6.183
    1AU     LIG  115  40.159   1.111   5.911
    1AU       S  116  38.666   2.489   6.230
    1AU     LIG  117  38.934   2.191   6.065
    1AU     LIG  118  38.969   2.054   5.618
    1AU     LIG  119  38.921   2.075   5.150
    1AU     LIG  120  39.149   1.964   4.762
    1AU    AUSL  121  38.369   2.826   6.657
    1AU    AUSL  122  38.152   2.438   6.767
    1AU     AUL  123  38.263   2.470   6.442
    1AU       S  124  37.824   2.466   6.300
    1AU     LIG  125  37.978   2.326   5.909
    1AU     LIG  126  37.757   2.085   5.563
    1AU     LIG  127  37.545   2.083   5.138
    1AU     LIG  128  37.276   1.905   4.784
    1AU       S  129  38.436   2.873   6.298
    1AU     LIG  130  38.466   2.715   5.806
    1AU     LIG  131  38.810   2.541   5.498
    1AU     LIG  132  39.004   2.589   5.068
    1AU     LIG  133  38.974   2.880   4.698
    1AU    AUSL  134  37.723   2.778   8.250
    1AU    AUSL  135  38.058   3.111   8.121
    1AU     AUL  136  37.915   3.059   8.461
    1AU       S  137  37.719   2.680   8.678
    1AU     LIG  138  37.501   2.347   8.890
    1AU     LIG  139  37.290   2.285   9.301
    1AU     LIG  140  37.189   2.347   9.747
    1AU     LIG  141  37.042   2.147  10.136
    1AU       S  142  37.659   3.359   8.194
    1AU     LIG  143  37.756   3.580   8.553
    1AU     LIG  144  37.541   3.672   8.940
    1AU     LIG  145  37.255   3.938   9.185
    1AU     LIG  146  36.971   4.097   9.521
    1AU    AUSL  147  38.031   2.479   8.158
    1AU    AUSL  148  37.605   2.351   8.141
    1AU     AUL  149  37.524   2.578   8.272
    1AU       S  150  37.502   2.123   8.394
    1AU     LIG  151  37.072   1.974   8.219
    1AU     LIG  152  36.874   1.563   8.350
    1AU     LIG  153  36.632   1.258   8.632
    1AU     LIG  154  36.448   1.066   9.024
    1AU       S  155  37.895   2.422   8.550
    1AU     LIG  156  37.953   2.101   8.868
    1AU     LIG  157  37.759   2.066   9.278
    1AU     LIG  158  37.585   2.031   9.708
    1AU     LIG  159  37.510   1.923  10.159
    1AU    AUSL  160  37.716   2.499   6.789
    1AU    AUSL  161  37.919   2.118   6.938
    1AU     AUL  162  37.957   2.159   6.627
    1AU       S  163  37.635   2.382   6.371
    1AU     LIG  164  37.466   2.361   5.935
    1AU     LIG  165  37.276   2.310   5.522
    1AU     LIG  166  37.017   2.119   5.190
    1AU     LIG  167  36.821   2.226   4.786
    1AU       S  168  37.558   2.015   6.805
    1AU     LIG  169  37.648   1.660   6.573
    1AU     LIG  170  37.361   1.328   6.403
    1AU     LIG  171  37.065   1.149   6.067
    1AU     LIG  172  36.819   1.231   5.659
    1AU    AUSL  173  37.945   2.819   6.590
    1AU    AUSL  174  37.589   2.908   6.924
    1AU     AUL  175  37.549   2.731   6.652
    1AU       S  176  37.423   3.166   6.702
    1AU     LIG  177  37.105   3.302   6.494
    1AU     LIG  178  37.018   3.564   6.158
    1AU     LIG  179  36.864   3.772   5.782
    1AU     LIG  180  36.455   3.772   5.524
    1AU       S  181  37.888   2.741   6.327
    1AU     LIG  182  37.748   2.801   5.913
    1AU     LIG  183  37.720   2.590   5.510
    1AU     LIG  184  37.671   2.597   5.052
    1AU     LIG  185  37.678   2.876   4.666
    1AU    AUSL  186  39.082   3.145   7.466
    1AU    AUSL  187  39.024   2.911   7.053
    1AU     AUL  188  39.372   3.203   7.156
    1AU       S  189  39.119   2.951   6.897
    1AU     LIG  190  39.446   3.138   6.633
    1AU     LIG  191  39.608   3.328   6.242
    1AU     LIG  192  39.873   3.628   6.006
    1AU     LIG  193  40.134   3.849   5.685
    1AU       S  194  39.439   3.256   7.603
    1AU     LIG  195  39.845   3.336   7.341
    1AU     LIG  196  40.292   3.463   7.452
    1AU     LIG  197  40.715   3.689   7.496
    1AU     LIG  198  41.014   4.007   7.745
    1AU    AUSL  199  39.251   2.733   7.382
    1AU    AUSL  200  39.184   2.438   7.738
    1AU     AUL  201  39.440   2.620   7.809
    1AU       S  202  39.437   2.823   7.399
    1AU     LIG  203  39.837   2.804   7.237
    1AU     LIG  204  40.257   2.994   7.234
    1AU     LIG  205  40.684   3.193   7.242
    1AU     LIG  206  41.149   3.169   7.216
    1AU       S  207  39.478   2.187   7.605
    1AU     LIG  208  39.910   2.068   7.706
    1AU     LIG  209  40.272   1.774   7.733
    1AU     LIG  210  40.751   1.705   7.671
    1AU     LIG  211  41.225   1.616   7.705
    1AU    AUSL  212  38.942   2.791   7.698
    1AU    AUSL  213  38.901   3.240   7.850
    1AU     AUL  214  39.166   3.000   7.867
    1AU       S  215  39.110   3.386   8.135
    1AU     LIG  216  39.409   3.582   8.409
    1AU     LIG  217  39.658   3.870   8.674
    1AU     LIG  218  39.943   4.213   8.841
    1AU     LIG  219  40.146   4.657   8.804
    1AU       S  220  39.539   3.028   7.600
    1AU     LIG  221  40.001   2.999   7.696
    1AU     LIG  222  40.482   3.048   7.706
    1AU     LIG  223  40.930   3.224   7.695
    1AU     LIG  224  41.204   3.567   7.550
    1AU    AUSL  225  37.610   3.226   7.508
    1AU    AUSL  226  37.703   2.998   7.886
    1AU     AUL  227  37.401   3.321   7.768
    1AU       S  228  37.534   3.192   8.188
    1AU     LIG  229  37.270   3.414   8.519
    1AU     LIG  230  37.027   3.580   8.882
    1AU     LIG  231  36.741   3.786   9.178
    1AU     LIG  232  36.492   3.871   9.572
    1AU       S  233  37.599   3.596   7.440
    1AU     LIG  234  37.100   3.519   7.418
    1AU     LIG  235  36.630   3.704   7.467
    1AU     LIG  236  36.271   4.065   7.495
    1AU     LIG  237  35.949   4.337   7.742
    1AU    AUSL  238  37.575   2.818   7.337
    1AU    AUSL  239  37.729   3.298   7.098
    1AU     AUL  240  37.413   3.160   7.179
    1AU       S  241  37.198   2.664   6.986
    1AU     LIG  242  36.796   2.928   7.094
    1AU     LIG  243  36.368   3.166   7.164
    1AU     LIG  244  35.980   3.327   6.943
    1AU     LIG  245  35.548   3.178   6.800
    1AU       S  246  37.577   3.559   6.917
    1AU     LIG  247  37.406   3.731   6.495
    1AU     LIG  248  37.149   4.062   6.236
    1AU     LIG  249  36.904   4.490   6.233
    1AU     LIG  250  36.733   4.877   6.005
    1AU    AUSL  251  37.335   2.870   7.715
    1AU    AUSL  252  37.298   2.498   7.408
    1AU     AUL  253  37.183   2.834   7.429
    1AU       S  254  37.098   2.427   7.669
    1AU     LIG  255  36.805   2.434   7.287
    1AU     LIG  256  36.434   2.188   7.112
    1AU     LIG  257  36.007   2.002   7.092
    1AU     LIG  258  35.552   1.854   7.161
    1AU       S  259  37.232   2.882   7.948
    1AU     LIG  260  36.852   3.055   7.757
    1AU     LIG  261  36.434   3.266   7.707
    1AU     LIG  262  36.035   3.269   7.960
    1AU     LIG  263  35.570   3.273   8.070
    1AU    AUSL  264  39.005   2.061   7.569
    1AU    AUSL  265  38.796   2.324   7.885
    1AU     AUL  266  39.144   2.229   7.943
    1AU       S  267  39.307   1.964   7.578
    1AU     LIG  268  39.630   1.648   7.604
    1AU     LIG  269  39.919   1.331   7.432
    1AU     LIG  270  40.154   0.924   7.492
    1AU     LIG  271  40.564   0.884   7.689
    1AU       S  272  39.017   1.800   8.014
    1AU     LIG  273  39.283   1.589   8.359
    1AU     LIG  274  39.522   1.344   8.691
    1AU     LIG  275  39.788   1.096   8.983
    1AU     LIG  276  40.207   1.059   9.206
    1AU    AUSL  277  38.946   2.437   7.347
    1AU    AUSL  278  38.912   2.004   7.146
    1AU     AUL  279  39.178   2.197   7.194
    1AU       S  280  39.531   2.323   7.434
    1AU     LIG  281  39.766   1.967   7.222
    1AU     LIG  282  40.195   1.726   7.225
    1AU     LIG  283  40.665   1.605   7.134
    1AU     LIG  284  40.995   1.469   6.815
    1AU       S  285  39.111   1.878   6.845
    1AU     LIG  286  39.253   1.441   6.730
    1AU     LIG  287  39.414   1.014   6.548
    1AU     LIG  288  39.678   0.631   6.403
    1AU     LIG  289  40.048   0.307   6.488
    1AU    AUSL  290  37.493   2.125   7.572
    1AU    AUSL  291  37.636   2.353   7.184
    1AU     AUL  292  37.279   2.210   7.278
    1AU       S  293  37.427   2.133   6.852
    1AU     LIG  294  37.140   1.756   6.675
    1AU     LIG  295  36.854   1.468   6.426
    1AU     LIG  296  36.560   1.274   6.116
    1AU     LIG  297  36.306   1.309   5.716
    1AU       S  298  37.071   2.170   7.706
    1AU     LIG  299  36.749   1.948   7.452
    1AU     LIG  300  36.366   1.695   7.297
    1AU     LIG  301  35.923   1.521   7.369
    1AU     LIG  302  35.764   1.062   7.474
    1AU    AUSL  303  37.584   2.522   7.749
    1AU    AUSL  304  37.836   2.135   7.838
    1AU     AUL  305  37.488   2.113   7.903
    1AU       S  306  37.544   1.897   8.301
    1AU     LIG  307  37.357   1.524   8.125
    1AU     LIG  308  37.090   1.134   8.133
    1AU     LIG  309  36.828   0.844   8.384
    1AU     LIG  310  36.486   0.687   8.666
    1AU       S  311  37.141   2.422   7.856
    1AU     LIG  312  36.612   2.365   7.766
    1AU     LIG  313  36.266   2.086   7.605
    1AU     LIG  314  35.805   2.095   7.545
    1AU     LIG  315  35.437   1.914   7.677
    1AU    AUSL  316  38.324   3.433   7.997
    1AU    AUSL  317  37.908   3.373   7.797
    1AU     AUL  318  38.111   3.446   8.206
    1AU       S  319  37.777   3.571   7.906
    1AU     LIG  320  37.451   3.803   8.180
    1AU     LIG  321  37.266   3.936   8.592
    1AU     LIG  322  36.928   4.141   8.844
    1AU     LIG  323  36.662   4.523   8.923
    1AU       S  324  38.411   3.781   7.986
    1AU     LIG  325  38.478   4.085   8.303
    1AU     LIG  326  38.331   4.497   8.464
    1AU     LIG  327  38.434   4.818   8.806
    1AU     LIG  328  38.358   5.251   8.999
    1AU    AUSL  329  38.192   3.620   7.594
    1AU    AUSL  330  38.483   3.547   7.242
    1AU     AUL  331  38.433   3.909   7.401
    1AU       S  332  38.210   3.837   7.800
    1AU     LIG  333  38.214   4.295   7.921
    1AU     LIG  334  38.312   4.738   7.899
    1AU     LIG  335  38.126   5.121   8.050
    1AU     LIG  336  37.952   5.549   8.199
    1AU       S  337  38.199   3.738   7.056
    1AU     LIG  338  38.625   3.983   6.967
    1AU     LIG  339  38.667   4.446   6.939
    1AU     LIG  340  38.657   4.876   6.728
    1AU     LIG  341  38.623   5.354   6.685
    1AU    AUSL  342  38.549   3.348   7.628
    1AU    AUSL  343  38.537   3.062   8.013
    1AU     AUL  344  38.642   3.386   8.074
    1AU       S  345  38.921   3.252   8.405
    1AU     LIG  346  39.174   3.317   8.784
    1AU     LIG  347  39.431   3.583   9.047
    1AU     LIG  348  39.639   3.966   9.198
    1AU     LIG  349  39.819   4.174   9.574
    1AU       S  350  38.656   3.673   7.721
    1AU     LIG  351  38.705   4.147   7.819
    1AU     LIG  352  38.713   4.521   8.122
    1AU     LIG  353  38.543   4.948   8.309
    1AU     LIG  354  38.459   5.426   8.286
    1AU    AUSL  355  38.223   1.933   7.935
    1AU    AUSL  356  38.641   1.929   7.769
    1AU     AUL  357  38.446   1.789   8.145
    1AU       S  358  38.187   1.437   7.995
    1AU     LIG  359  38.150   1.123   8.304
    1AU     LIG  360  38.012   0.685   8.337
    1AU     LIG  361  38.090   0.249   8.482
    1AU     LIG  362  38.162  44.983   8.877
    1AU       S  363  38.807   1.722   7.845
    1AU     LIG  364  38.952   1.305   8.053
    1AU     LIG  365  39.239   1.064   8.362
    1AU     LIG  366  39.525   0.785   8.635
    1AU     LIG  367  39.669   0.330   8.757
    1AU    AUSL  368  37.898   1.752   7.663
    1AU    AUSL  369  37.990   2.073   8.266
    1AU     AUL  370  37.890   1.802   8.019
    1AU       S  371  37.994   1.376   7.843
    1AU     LIG  372  37.774   0.990   7.967
    1AU     LIG  373  37.762   0.519   7.909
    1AU     LIG  374  37.887   0.094   8.032
    1AU     LIG  375  37.773  44.718   8.239
    1AU       S  376  37.742   1.961   8.452
    1AU     LIG  377  37.353   1.646   8.653
    1AU     LIG  378  37.149   1.224   8.639
    1AU     LIG  379  36.923   0.904   8.891
    1AU     LIG  380  36.760   0.723   9.284
    1AU    AUSL  381  38.340   1.668   7.605
    1AU    AUSL  382  38.102   1.937   7.321
    1AU     AUL  383  38.007   1.583   7.426
    1AU       S  384  38.338   1.494   7.132
    1AU     LIG  385  37.918   1.241   7.066
    1AU     LIG  386  37.672   0.829   6.934
    1AU     LIG  387  37.713   0.337   6.856
    1AU     LIG  388  37.748  44.881   6.680
    1AU       S  389  38.343   1.452   7.763
    1AU     LIG  390  38.281   0.941   7.835
    1AU     LIG  391  38.291   0.453   7.973
    1AU     LIG  392  38.523   0.096   8.207
    1AU     LIG  393  38.691  44.601   8.306
    1AU    AUSL  394  38.297   3.312   6.901
    1AU    AUSL  395  38.723   3.193   7.229
    1AU     AUL  396  38.575   3.466   6.893
    1AU       S  397  38.194   3.748   6.829
    1AU     LIG  398  38.403   3.994   6.519
    1AU     LIG  399  38.556   4.415   6.440
    1AU     LIG  400  38.396   4.811   6.281
    1AU     LIG  401  38.244   4.999   5.878
    1AU       S  402  38.972   3.401   7.090
    1AU     LIG  403  39.403   3.624   6.872
    1AU     LIG  404  39.652   3.794   6.475
    1AU     LIG  405  39.920   4.120   6.196
    1AU     LIG  406  40.212   4.544   6.155
    1AU    AUSL  407  38.102   3.315   7.305
    1AU    AUSL  408  38.021   2.995   6.967
    1AU     AUL  409  37.988   3.338   6.865
    1AU       S  410  38.011   3.709   7.165
    1AU     LIG  411  38.158   4.221   7.029
    1AU     LIG  412  38.201   4.626   6.760
    1AU     LIG  413  38.172   5.100   6.667
    1AU     LIG  414  38.163   5.573   6.817
    1AU       S  415  37.653   3.232   6.588
    1AU     LIG  416  37.519   3.354   6.162
    1AU     LIG  417  37.417   3.743   5.900
    1AU     LIG  418  37.273   4.037   5.558
    1AU     LIG  419  37.333   4.286   5.148
    1AU    AUSL  420  38.300   1.912   6.915
    1AU    AUSL  421  37.682   1.906   7.249
    1AU     AUL  422  37.951   1.768   6.985
    1AU       S  423  37.489   1.857   7.045
    1AU     LIG  424  37.411   1.404   6.947
    1AU     LIG  425  37.057   1.140   6.771
    1AU     LIG  426  36.791   0.906   6.444
    1AU     LIG  427  36.513   0.523   6.308
    1AU       S  428  38.346   1.509   6.905
    1AU     LIG  429  38.210   1.123   6.667
    1AU     LIG  430  38.073   0.665   6.645
    1AU     LIG  431  38.116   0.205   6.512
    1AU     LIG  432  38.244  44.904   6.146
    1AU    AUSL  433  38.534   1.903   7.305
    1AU    AUSL  434  38.579   2.236   6.971
    1AU     AUL  435  38.651   1.861   6.935
    1AU       S  436  38.558   1.503   7.221
    1AU     LIG  437  38.439   0.999   7.114
    1AU     LIG  438  38.458   0.504   6.944
    1AU     LIG  439  38.569   0.073   6.704
    1AU     LIG  440  38.804  44.625   6.701
    1AU       S  441  38.888   2.058   6.602
    1AU     LIG  442  38.821   1.627   6.500
    1AU     LIG  443  39.009   1.254   6.305
    1AU     LIG  444  39.303   1.006   6.037
    1AU     LIG  445  39.500   0.913   5.623
    2AU     AUC  446   6.300  41.788   7.513
    2AU     AUC  447   6.592  41.784   7.344
    2AU     AUC  448   6.564  41.790   7.682
    2AU     AUC  449   6.023  41.777   7.351
    2AU     AUC  450   6.039  41.830   7.702
    2AU     AUC  451   6.127  42.057   7.513
    2AU     AUC  452   6.493  42.049   7.500
    2AU     AUC  453   6.107  41.522   7.518
    2AU     AUC  454   6.462  41.519   7.527
    2AU     AUC  455   6.303  41.631   7.790
    2AU     AUC  456   6.289  41.961   7.772
    2AU     AUC  457   6.293  41.617   7.249
    2AU     AUC  458   6.331  41.932   7.242
    2AU     AUC  459   6.924  41.772   7.185
    2AU     AUC  460   6.920  41.767   7.523
    2AU     AUC  461   6.857  41.783   7.869
    2AU     AUC  462   5.706  41.788   7.183
    2AU     AUC  463   5.686  41.834   7.544
    2AU     AUC  464   5.736  41.868   7.894
    2AU     AUC  465   5.968  42.386   7.481
    2AU     AUC  466   6.315  42.390   7.458
    2AU     AUC  467   6.679  42.349   7.478
    2AU     AUC  468   5.896  41.237   7.525
    2AU     AUC  469   6.232  41.179   7.496
    2AU     AUC  470   6.622  41.193   7.516
    2AU     AUC  471   6.285  41.463   8.087
    2AU     AUC  472   6.327  41.830   8.131
    2AU     AUC  473   6.323  42.158   8.064
    2AU     AUC  474   6.320  41.439   6.970
    2AU     AUC  475   6.313  41.753   6.907
    2AU     AUC  476   6.329  42.076   6.929
    2AU     AUC  477   6.582  41.610   8.012
    2AU     AUC  478   6.615  41.977   8.004
    2AU     AUC  479   6.638  41.594   7.034
    2AU     AUC  480   6.648  41.941   7.036
    2AU     AUC  481   5.994  41.670   8.033
    2AU     AUC  482   6.021  42.030   8.001
    2AU     AUC  483   5.993  41.600   7.061
    2AU     AUC  484   5.982  41.914   7.011
    2AU     AUC  485   6.841  42.060   7.329
    2AU     AUC  486   6.805  42.084   7.675
    2AU     AUC  487   5.811  42.094   7.348
    2AU     AUC  488   5.826  42.157   7.698
    2AU     AUC  489   6.798  41.467   7.365
    2AU     AUC  490   6.755  41.454   7.696
    2AU     AUC  491   5.759  41.496   7.380
    2AU     AUC  492   5.825  41.550   7.725
    2AU     AUC  493   6.130  42.333   7.772
    2AU     AUC  494   6.492  42.271   7.748
    2AU     AUC  495   6.083  41.339   7.806
    2AU     AUC  496   6.426  41.288   7.796
    2AU     AUC  497   6.137  42.211   7.202
    2AU     AUC  498   6.523  42.231   7.166
    2AU     AUC  499   6.084  41.302   7.237
    2AU     AUC  500   6.472  41.327   7.237
    2AU    AUSL  501   6.875  41.750   8.214
    2AU    AUSL  502   6.586  41.285   8.196
    2AU     AUL  503   6.912  41.337   8.347
    2AU       S  504   6.895  40.909   8.173
    2AU     LIG  505   6.748  40.626   8.433
    2AU     LIG  506   7.013  40.441   8.742
    2AU     LIG  507   7.266  40.139   8.954
    2AU     LIG  508   7.526  39.931   9.263
    2AU       S  509   7.140  41.726   8.285
    2AU     LIG  510   7.104  41.681   8.755
    2AU     LIG  511   7.118  41.677   9.225
    2AU     LIG  512   7.447  41.616   9.557
    2AU     LIG  513   7.739  41.802   9.880
    2AU    AUSL  514   6.479  41.654   8.401
    2AU    AUSL  515   6.178  41.991   8.430
    2AU     AUL  516   6.385  41.941   8.756
    2AU       S  517   6.636  41.603   8.583
    2AU     LIG  518   6.484  41.457   8.965
    2AU     LIG  519   6.670  41.420   9.406
    2AU     LIG  520   6.826  41.319   9.857
    2AU     LIG  521   6.903  41.065  10.264
    2AU       S  522   6.002  41.718   8.672
    2AU     LIG  523   6.050  41.660   9.142
    2AU     LIG  524   5.754  41.683   9.493
    2AU     LIG  525   5.532  41.727   9.901
    2AU     LIG  526   5.499  41.991  10.294
    2AU    AUSL  527   6.593  42.090   8.367
    2AU    AUSL  528   6.963  42.163   8.098
    2AU     AUL  529   6.871  42.030   8.486
    2AU       S  530   6.470  42.361   8.488
    2AU     LIG  531   6.713  42.298   8.884
    2AU     LIG  532   6.987  42.260   9.276
    2AU     LIG  533   7.028  42.377   9.745
    2AU     LIG  534   7.122  42.398  10.212
    2AU       S  535   7.062  42.395   8.269
    2AU     LIG  536   7.443  42.206   8.365
    2AU     LIG  537   7.797  42.389   8.626
    2AU     LIG  538   8.033  42.652   8.958
    2AU     LIG  539   8.221  42.948   9.275
    2AU    AUSL  540   6.832  41.802   6.892
    2AU    AUSL  541   6.738  42.235   6.794
    2AU     AUL  542   7.046  42.028   6.625
    2AU       S  543   6.682  41.963   6.370
    2AU     LIG  544   7.089  41.961   6.053
    2AU     LIG  545   7.296  41.646   5.761
    2AU     LIG  546   7.382  41.529   5.312
    2AU     LIG  547   7.493  41.701   4.887
    2AU       S  548   7.046  42.485   6.778
    2AU     LIG  549   7.271  42.677   6.446
    2AU     LIG  550   7.508  42.918   6.124
    2AU     LIG  551   7.665  43.054   5.710
    2AU     LIG  552   7.691  43.397   5.394
    2AU    AUSL  553   6.609  41.548   6.600
    2AU    AUSL  554   7.034  41.421   6.936
    2AU     AUL  555   6.972  41.566   6.653
    2AU       S  556   7.143  41.128   6.711
    2AU     LIG  557   7.420  40.842   6.458
    2AU     LIG  558   7.565  40.448   6.247
    2AU     LIG  559   7.794  40.230   5.911
    2AU     LIG  560   8.014  40.343   5.501
    2AU       S  561   6.730  41.768   6.311
    2AU     LIG  562   6.817  41.521   5.937
    2AU     LIG  563   6.929  41.351   5.501
    2AU     LIG  564   6.949  41.236   5.035
    2AU     LIG  565   7.095  41.035   4.616
    2AU    AUSL  566   6.430  41.927   6.771
    2AU    AUSL  567   6.191  41.547   6.728
    2AU     AUL  568   6.335  41.589   6.453
    2AU       S  569   5.875  41.596   6.319
    2AU     LIG  570   5.775  41.239   6.068
    2AU     LIG  571   5.749  41.166   5.606
    2AU     LIG  572   5.573  41.180   5.167
    2AU     LIG  573   5.559  41.187   4.689
    2AU       S  574   6.506  42.039   6.427
    2AU     LIG  575   6.578  41.998   5.893
    2AU     LIG  576   6.883  41.866   5.541
    2AU     LIG  577   7.008  41.801   5.080
    2AU     LIG  578   7.086  41.962   4.626
    2AU    AUSL  579   5.774  41.927   8.274
    2AU    AUSL  580   6.082  42.270   8.116
    2AU     AUL  581   5.940  42.221   8.461
    2AU       S  582   5.825  41.855   8.739
    2AU     LIG  583   5.574  41.549   8.978
    2AU     LIG  584   5.335  41.408   9.365
    2AU     LIG  585   5.122  41.424   9.784
    2AU     LIG  586   4.676  41.511   9.950
    2AU       S  587   5.660  42.534   8.225
    2AU     LIG  588   5.782  42.685   8.631
    2AU     LIG  589   5.638  42.855   9.036
    2AU     LIG  590   5.316  43.074   9.287
    2AU     LIG  591   5.036  43.223   9.637
    2AU    AUSL  592   6.093  41.624   8.197
    2AU    AUSL  593   5.630  41.536   8.136
    2AU     AUL  594   5.651  41.635   8.375
    2AU       S  595   5.466  41.189   8.290
    2AU     LIG  596   5.072  40.933   8.248
    2AU     LIG  597   4.844  40.573   8.435
    2AU     LIG  598   4.696  40.319   8.805
    2AU     LIG  599   4.430  40.340   9.203
    2AU       S  600   6.062  41.548   8.588
    2AU     LIG  601   5.961  41.227   8.865
    2AU     LIG  602   5.818  41.199   9.311
    2AU     LIG  603   5.638  41.236   9.748
    2AU     LIG  604   5.438  41.158  10.163
    2AU    AUSL  605   5.786  41.694   6.800
    2AU    AUSL  606   5.973  41.305   7.007
    2AU     AUL  607   5.971  41.304   6.659
    2AU       S  608   5.653  41.591   6.472
    2AU     LIG  609   5.365  41.541   6.135
    2AU     LIG  610   5.319  41.440   5.681
    2AU     LIG  611   5.180  41.521   5.235
    2AU     LIG  612   4.873  41.613   4.874
    2AU       S  613   5.568  41.180   6.838
    2AU     LIG  614   5.642  40.940   6.500
    2AU     LIG  615   5.381  40.599   6.347
    2AU     LIG  616   5.088  40.299   6.136
    2AU     LIG  617   4.802  40.002   5.907
    2AU    AUSL  618   6.057  41.970   6.566
    2AU    AUSL  619   5.583  42.066   6.922
    2AU     AUL  620   5.708  42.028   6.607
    2AU       S  621   5.314  42.253   6.746
    2AU     LIG  622   5.109  42.512   6.410
    2AU     LIG  623   5.082  42.681   5.969
    2AU     LIG  624   4.835  42.817   5.589
    2AU     LIG  625   4.397  42.784   5.398
    2AU       S  626   5.955  41.819   6.269
    2AU     LIG  627   5.761  41.705   5.837
    2AU     LIG  628   5.688  41.642   5.382
    2AU     LIG  629   5.581  41.653   4.932
    2AU     LIG  630   5.472  41.837   4.523
    2AU    AUSL  631   7.058  42.284   7.501
    2AU    AUSL  632   7.075  42.103   7.088
    2AU     AUL  633   7.341  42.406   7.341
    2AU       S  634   7.167  42.349   6.934
    2AU     LIG  635   7.544  42.311   6.693
    2AU     LIG  636   7.734  42.470   6.285
    2AU     LIG  637   7.995  42.765   6.013
    2AU     LIG  638   8.367  43.069   5.961
    2AU       S  639   7.537  42.155   7.695
    2AU     LIG  640   7.841  42.370   7.389
    2AU     LIG  641   8.312  42.374   7.461
    2AU     LIG  642   8.561  42.733   7.624
    2AU     LIG  643   8.880  43.049   7.514
    2AU    AUSL  644   7.285  41.889   7.403
    2AU    AUSL  645   7.231  41.561   7.720
    2AU     AUL  646   7.610  41.657   7.710
    2AU       S  647   7.409  41.971   7.465
    2AU     LIG  648   7.732  41.919   7.149
    2AU     LIG  649   8.196  41.993   7.119
    2AU     LIG  650   8.655  42.140   7.099
    2AU     LIG  651   9.127  42.265   6.978
    2AU       S  652   7.470  41.269   7.519
    2AU     LIG  653   7.867  41.128   7.651
    2AU     LIG  654   8.261  40.968   7.801
    2AU     LIG  655   8.721  40.992   7.773
    2AU     LIG  656   9.118  40.879   7.995
    2AU    AUSL  657   7.002  41.926   7.747
    2AU    AUSL  658   6.871  42.508   7.823
    2AU     AUL  659   7.143  42.361   7.811
    2AU       S  660   7.071  42.687   8.150
    2AU     LIG  661   7.429  42.726   8.442
    2AU     LIG  662   7.771  42.958   8.645
    2AU     LIG  663   8.072  43.243   8.876
    2AU     LIG  664   8.336  43.603   9.048
    2AU       S  665   7.355  41.976   7.903
    2AU     LIG  666   7.833  42.007   8.077
    2AU     LIG  667   8.298  42.135   7.959
    2AU     LIG  668   8.714  42.272   7.790
    2AU     LIG  669   9.118  42.496   7.841
    2AU    AUSL  670   5.632  42.382   7.520
    2AU    AUSL  671   5.697  42.164   7.922
    2AU     AUL  672   5.407  42.498   7.778
    2AU       S  673   5.552  42.319   8.178
    2AU     LIG  674   5.342  42.419   8.605
    2AU     LIG  675   5.146  42.696   8.954
    2AU     LIG  676   4.858  42.835   9.325
    2AU     LIG  677   4.575  42.979   9.703
    2AU       S  678   5.632  42.753   7.441
    2AU     LIG  679   5.141  42.678   7.388
    2AU     LIG  680   4.656  42.743   7.456
    2AU     LIG  681   4.216  42.966   7.581
    2AU     LIG  682   3.886  43.355   7.619
    2AU    AUSL  683   5.611  41.980   7.335
    2AU    AUSL  684   5.750  42.438   7.107
    2AU     AUL  685   5.442  42.329   7.196
    2AU       S  686   5.233  41.778   6.961
    2AU     LIG  687   4.888  42.130   7.048
    2AU     LIG  688   4.424  42.293   7.141
    2AU     LIG  689   3.918  42.275   7.104
    2AU     LIG  690   3.479  42.307   6.885
    2AU       S  691   5.594  42.683   6.917
    2AU     LIG  692   5.290  42.916   6.678
    2AU     LIG  693   5.191  43.091   6.262
    2AU     LIG  694   5.070  43.435   5.971
    2AU     LIG  695   4.819  43.841   5.996
    2AU    AUSL  696   5.350  42.049   7.699
    2AU    AUSL  697   5.312  41.680   7.410
    2AU     AUL  698   5.206  41.991   7.399
    2AU       S  699   5.051  41.606   7.630
    2AU     LIG  700   4.762  41.665   7.289
    2AU     LIG  701   4.301  41.488   7.218
    2AU     LIG  702   3.858  41.239   7.221
    2AU     LIG  703   3.447  40.974   7.290
    2AU       S  704   5.229  42.039   7.912
    2AU     LIG  705   4.876  42.325   7.742
    2AU     LIG  706   4.400  42.489   7.822
    2AU     LIG  707   3.914  42.526   7.917
    2AU     LIG  708   3.419  42.550   7.916
    2AU    AUSL  709   7.007  41.201   7.568
    2AU    AUSL  710   6.838  41.480   7.888
    2AU     AUL  711   7.176  41.380   7.933
    2AU       S  712   7.315  41.088   7.587
    2AU     LIG  713   7.550  40.762   7.404
    2AU     LIG  714   7.998  40.667   7.438
    2AU     LIG  715   8.465  40.643   7.451
    2AU     LIG  716   8.792  40.315   7.522
    2AU       S  717   7.048  40.958   8.032
    2AU     LIG  718   7.294  40.717   8.387
    2AU     LIG  719   7.550  40.460   8.664
    2AU     LIG  720   7.799  40.272   8.991
    2AU     LIG  721   8.111  40.399   9.321
    2AU    AUSL  722   7.001  41.575   7.332
    2AU    AUSL  723   6.869  41.075   7.172
    2AU     AUL  724   7.127  41.207   7.184
    2AU       S  725   7.470  41.460   7.307
    2AU     LIG  726   7.753  41.136   7.124
    2AU     LIG  727   8.204  41.077   7.217
    2AU     LIG  728   8.662  41.059   7.215
    2AU     LIG  729   8.904  40.663   7.143
    2AU       S  730   7.060  40.905   6.831
    2AU     LIG  731   7.343  40.573   6.891
    2AU     LIG  732   7.423  40.173   6.659
    2AU     LIG  733   7.550  39.887   6.295
    2AU     LIG  734   7.703  39.439   6.144
    2AU    AUSL  735   5.475  41.309   7.594
    2AU    AUSL  736   5.633  41.529   7.168
    2AU     AUL  737   5.279  41.389   7.278
    2AU       S  738   5.489  41.327   6.874
    2AU     LIG  739   5.151  40.971   6.680
    2AU     LIG  740   4.863  40.649   6.450
    2AU     LIG  741   4.568  40.421   6.141
    2AU     LIG  742   4.177  40.262   5.917
    2AU       S  743   5.047  41.322   7.686
    2AU     LIG  744   4.728  41.162   7.393
    2AU     LIG  745   4.286  40.991   7.386
    2AU     LIG  746   3.888  40.738   7.420
    2AU     LIG  747   3.495  40.585   7.633
    2AU    AUSL  748   5.607  41.713   7.746
    2AU    AUSL  749   5.833  41.311   7.829
    2AU     AUL  750   5.425  41.466   7.916
    2AU       S  751   5.522  41.039   8.053
    2AU     LIG  752   5.416  40.588   8.014
    2AU     LIG  753   5.134  40.230   8.166
    2AU     LIG  754   4.863  39.948   8.457
    2AU     LIG  755   4.609  39.587   8.669
    2AU       S  756   5.021  41.629   7.780
    2AU     LIG  757   4.551  41.504   7.733
    2AU     LIG  758   4.100  41.382   7.676
    2AU     LIG  759   3.732  41.128   7.724
    2AU     LIG  760   3.313  41.042   7.815
    2AU    AUSL  761   6.317  42.615   7.976
    2AU    AUSL  762   5.900  42.542   7.822
    2AU     AUL  763   6.119  42.608   8.215
    2AU       S  764   5.781  42.741   7.924
    2AU     LIG  765   5.662  43.033   8.265
    2AU     LIG  766   5.372  43.051   8.640
    2AU     LIG  767   5.086  43.328   8.899
    2AU     LIG  768   4.916  43.768   8.975
    2AU       S  769   6.356  42.947   7.944
    2AU     LIG  770   6.519  43.022   8.325
    2AU     LIG  771   6.584  43.463   8.473
    2AU     LIG  772   6.500  43.862   8.718
    2AU     LIG  773   6.400  44.102   9.124
    2AU    AUSL  774   6.152  42.767   7.556
    2AU    AUSL  775   6.487  42.704   7.205
    2AU     AUL  776   6.382  43.045   7.352
    2AU       S  777   6.175  43.019   7.772
    2AU     LIG  778   6.229  43.410   8.074
    2AU     LIG  779   6.290  43.848   8.239
    2AU     LIG  780   6.075  44.272   8.327
    2AU     LIG  781   5.723  44.611   8.264
    2AU       S  782   6.215  42.843   6.979
    2AU     LIG  783   6.628  43.095   6.925
    2AU     LIG  784   6.737  43.539   6.856
    2AU     LIG  785   6.755  44.017   6.816
    2AU     LIG  786   6.754  44.501   6.937
    2AU    AUSL  787   6.513  42.507   7.594
    2AU    AUSL  788   6.544  42.253   7.985
    2AU     AUL  789   6.624  42.581   8.050
    2AU       S  790   6.907  42.522   8.402
    2AU     LIG  791   7.192  42.405   8.765
    2AU     LIG  792   7.509  42.643   8.981
    2AU     LIG  793   7.707  43.018   9.166
    2AU     LIG  794   7.905  43.313   9.471
    2AU       S  795   6.604  42.909   7.725
    2AU     LIG  796   6.729  43.333   7.967
    2AU     LIG  797   6.811  43.811   8.139
    2AU     LIG  798   7.016  44.291   8.190
    2AU     LIG  799   7.226  44.729   8.355
    2AU    AUSL  800   6.246  41.165   7.946
    2AU    AUSL  801   6.663  41.089   7.802
    2AU     AUL  802   6.444  40.995   8.178
    2AU       S  803   6.258  40.594   8.048
    2AU     LIG  804   6.154  40.267   8.329
    2AU     LIG  805   5.995  39.840   8.330
    2AU     LIG  806   6.066  39.386   8.403
    2AU     LIG  807   6.082  39.108   8.768
    2AU       S  808   6.812  40.871   7.876
    2AU     LIG  809   7.024  40.439   8.040
    2AU     LIG  810   7.255  40.157   8.377
    2AU     LIG  811   7.590  39.908   8.638
    2AU     LIG  812   7.807  39.564   8.890
    2AU    AUSL  813   5.918  40.921   7.697
    2AU    AUSL  814   5.956  41.228   8.257
    2AU     AUL  815   5.968  40.964   8.039
    2AU       S  816   6.028  40.525   7.902
    2AU     LIG  817   5.765  40.164   7.981
    2AU     LIG  818   5.676  39.703   7.939
    2AU     LIG  819   5.748  39.260   8.027
    2AU     LIG  820   5.582  38.828   8.198
    2AU       S  821   5.701  41.124   8.399
    2AU     LIG  822   5.469  40.712   8.506
    2AU     LIG  823   5.229  40.319   8.666
    2AU     LIG  824   5.054  39.961   8.930
    2AU     LIG  825   4.661  39.873   9.151
    2AU    AUSL  826   6.349  40.838   7.656
    2AU    AUSL  827   6.095  40.948   7.291
    2AU     AUL  828   5.977  40.697   7.475
    2AU       S  829   6.327  40.661   7.182
    2AU     LIG  830   5.927  40.372   7.106
    2AU     LIG  831   5.805  39.895   7.133
    2AU     LIG  832   5.785  39.435   6.960
    2AU     LIG  833   5.405  39.153   6.813
    2AU       S  834   6.352  40.624   7.791
    2AU     LIG  835   6.283  40.100   7.840
    2AU     LIG  836   6.201  39.600   7.926
    2AU     LIG  837   6.387  39.150   8.042
    2AU     LIG  838   6.776  38.845   8.034
    2AU    AUSL  839   6.341  42.398   6.886
    2AU    AUSL  840   6.736  42.357   7.217
    2AU     AUL  841   6.605  42.583   6.867
    2AU       S  842   6.215  42.831   6.754
    2AU     LIG  843   6.336  43.261   6.549
    2AU     LIG  844   6.550  43.654   6.378
    2AU     LIG  845   6.600  43.919   5.979
    2AU     LIG  846   6.516  44.212   5.604
    2AU       S  847   6.987  42.597   7.114
    2AU     LIG  848   7.434  42.766   6.953
    2AU     LIG  849   7.728  42.887   6.595
    2AU     LIG  850   7.968  43.189   6.304
    2AU     LIG  851   8.325  43.514   6.233
    2AU    AUSL  852   6.137  42.441   7.278
    2AU    AUSL  853   6.023  42.117   6.966
    2AU     AUL  854   5.995  42.426   6.828
    2AU       S  855   6.029  42.825   7.097
    2AU     LIG  856   6.136  43.328   7.014
    2AU     LIG  857   6.271  43.755   6.812
    2AU     LIG  858   6.301  44.241   6.744
    2AU     LIG  859   6.293  44.721   6.728
    2AU       S  860   5.564  42.472   6.672
    2AU     LIG  861   5.563  42.716   6.276
    2AU     LIG  862   5.505  42.951   5.870
    2AU     LIG  863   5.251  43.152   5.537
    2AU     LIG  864   5.249  43.389   5.122
    2AU    AUSL  865   6.312  41.054   6.915
    2AU    AUSL  866   5.698  41.102   7.288
    2AU     AUL  867   5.948  40.922   6.984
    2AU       S  868   5.507  41.038   7.075
    2AU     LIG  869   5.482  40.618   6.882
    2AU     LIG  870   5.157  40.301   6.705
    2AU     LIG  871   4.774  40.101   6.491
    2AU     LIG  872   4.418  39.920   6.231
    2AU       S  873   6.342  40.638   6.950
    2AU     LIG  874   6.274  40.196   6.781
    2AU     LIG  875   5.980  39.833   6.655
    2AU     LIG  876   5.797  39.452   6.431
    2AU     LIG  877   5.727  39.168   6.045
    2AU    AUSL  878   6.490  41.105   7.349
    2AU    AUSL  879   6.588  41.375   6.988
    2AU     AUL  880   6.627  41.005   6.962
    2AU       S  881   6.549  40.670   7.272
    2AU     LIG  882   6.377  40.186   7.299
    2AU     LIG  883   6.305  39.751   7.081
    2AU     LIG  884   6.490  39.298   7.026
    2AU     LIG  885   6.729  38.938   6.818
    2AU       S  886   6.858  41.111   6.588
    2AU     LIG  887   6.941  40.648   6.425
    2AU     LIG  888   7.101  40.234   6.246
    2AU     LIG  889   7.308  40.044   5.867
    2AU     LIG  890   7.546  40.109   5.457
    3AU     AUC  891  26.295  23.473   7.509
    3AU     AUC  892  26.565  23.483   7.333
    3AU     AUC  893  26.543  23.460   7.680
    3AU     AUC  894  26.021  23.476   7.347
    3AU     AUC  895  26.038  23.512   7.691
    3AU     AUC  896  26.135  23.755   7.509
    3AU     AUC  897  26.486  23.739   7.500
    3AU     AUC  898  26.109  23.216   7.516
    3AU     AUC  899  26.460  23.188   7.510
    3AU     AUC  900  26.296  23.298   7.781
    3AU     AUC  901  26.294  23.642   7.776
    3AU     AUC  902  26.286  23.307   7.241
    3AU     AUC  903  26.322  23.624   7.236
    3AU     AUC  904  26.885  23.475   7.176
    3AU     AUC  905  26.899  23.455   7.520
    3AU     AUC  906  26.835  23.439   7.881
    3AU     AUC  907  25.704  23.472   7.184
    3AU     AUC  908  25.691  23.515   7.542
    3AU     AUC  909  25.741  23.549   7.869
    3AU     AUC  910  25.985  24.085   7.487
    3AU     AUC  911  26.338  24.084   7.477
    3AU     AUC  912  26.701  24.020   7.488
    3AU     AUC  913  25.905  22.931   7.522
    3AU     AUC  914  26.260  22.876   7.492
    3AU     AUC  915  26.635  22.886   7.492
    3AU     AUC  916  26.270  23.119   8.073
    3AU     AUC  917  26.305  23.490   8.128
    3AU     AUC  918  26.326  23.821   8.072
    3AU     AUC  919  26.308  23.129   6.960
    3AU     AUC  920  26.278  23.457   6.896
    3AU     AUC  921  26.302  23.788   6.914
    3AU     AUC  922  26.552  23.260   8.019
    3AU     AUC  923  26.606  23.609   8.018
    3AU     AUC  924  26.615  23.308   7.016
    3AU     AUC  925  26.600  23.650   7.009
    3AU     AUC  926  25.987  23.355   8.024
    3AU     AUC  927  26.024  23.728   7.991
    3AU     AUC  928  25.979  23.284   7.057
    3AU     AUC  929  25.960  23.620   7.017
    3AU     AUC  930  26.826  23.752   7.297
    3AU     AUC  931  26.793  23.746   7.669
    3AU     AUC  932  25.816  23.790   7.343
    3AU     AUC  933  25.844  23.845   7.690
    3AU     AUC  934  26.790  23.172   7.359
    3AU     AUC  935  26.741  23.129   7.702
    3AU     AUC  936  25.776  23.172   7.371
    3AU     AUC  937  25.822  23.231   7.720
    3AU     AUC  938  26.168  24.022   7.779
    3AU     AUC  939  26.512  23.936   7.766
    3AU     AUC  940  26.096  23.005   7.803
    3AU     AUC  941  26.417  22.948   7.780
    3AU     AUC  942  26.135  23.920   7.209
    3AU     AUC  943  26.506  23.939   7.170
    3AU     AUC  944  26.099  23.004   7.215
    3AU     AUC  945  26.501  23.025   7.220
    3AU    AUSL  946  26.819  23.317   8.287
    3AU    AUSL  947  26.561  22.943   8.176
    3AU     AUL  948  26.734  22.900   8.520
    3AU       S  949  26.926  22.715   8.148
    3AU     LIG  950  26.792  22.401   8.445
    3AU     LIG  951  27.003  22.160   8.758
    3AU     LIG  952  27.256  21.876   9.020
    3AU     LIG  953  27.522  21.700   9.362
    3AU       S  954  26.973  23.237   8.346
    3AU     LIG  955  26.930  23.255   8.838
    3AU     LIG  956  27.153  23.271   9.273
    3AU     LIG  957  27.425  23.152   9.651
    3AU     LIG  958  27.729  23.009   9.991
    3AU    AUSL  959  26.394  23.274   8.418
    3AU    AUSL  960  26.147  23.660   8.428
    3AU     AUL  961  26.335  23.599   8.766
    3AU       S  962  26.422  23.220   8.537
    3AU     LIG  963  26.436  23.147   8.961
    3AU     LIG  964  26.659  23.144   9.344
    3AU     LIG  965  26.921  23.065   9.717
    3AU     LIG  966  27.194  22.941  10.081
    3AU       S  967  25.940  23.408   8.630
    3AU     LIG  968  25.973  23.388   9.105
    3AU     LIG  969  25.779  23.379   9.541
    3AU     LIG  970  25.585  23.488   9.962
    3AU     LIG  971  25.367  23.779  10.281
    3AU    AUSL  972  26.571  23.689   8.372
    3AU    AUSL  973  26.956  23.701   8.119
    3AU     AUL  974  26.837  23.627   8.525
    3AU       S  975  26.485  23.997   8.501
    3AU     LIG  976  26.720  23.916   8.914
    3AU     LIG  977  26.868  23.905   9.382
    3AU     LIG  978  26.824  24.051   9.851
    3AU     LIG  979  26.906  24.153  10.310
    3AU       S  980  27.072  23.958   8.299
    3AU     LIG  981  27.494  23.931   8.387
    3AU     LIG  982  27.764  24.163   8.685
    3AU     LIG  983  27.971  24.448   9.005
    3AU     LIG  984  28.117  24.791   9.290
    3AU    AUSL  985  26.734  23.515   6.859
    3AU    AUSL  986  26.687  23.954   6.810
    3AU     AUL  987  26.831  23.835   6.558
    3AU       S  988  26.701  23.523   6.258
    3AU     LIG  989  27.113  23.507   6.113
    3AU     LIG  990  27.304  23.297   5.758
    3AU     LIG  991  27.390  23.181   5.323
    3AU     LIG  992  27.530  23.177   4.888
    3AU       S  993  27.042  24.157   6.818
    3AU     LIG  994  27.194  24.353   6.413
    3AU     LIG  995  27.386  24.568   6.025
    3AU     LIG  996  27.597  24.818   5.673
    3AU     LIG  997  27.608  25.123   5.309
    3AU    AUSL  998  26.550  23.226   6.577
    3AU    AUSL  999  27.044  23.225   6.933
    3AU     AUL 1000  26.935  23.375   6.642
    3AU       S 1001  27.167  22.963   6.706
    3AU     LIG 1002  27.274  22.642   6.350
    3AU     LIG 1003  27.539  22.264   6.256
    3AU     LIG 1004  27.830  21.973   6.016
    3AU     LIG 1005  28.276  21.884   5.856
    3AU       S 1006  26.688  23.270   6.248
    3AU     LIG 1007  26.962  23.002   6.026
    3AU     LIG 1008  27.030  22.887   5.569
    3AU     LIG 1009  27.008  22.920   5.088
    3AU     LIG 1010  27.123  23.005   4.631
    3AU    AUSL 1011  26.387  23.672   6.648
    3AU    AUSL 1012  26.169  23.289   6.771
    3AU     AUL 1013  26.271  23.339   6.434
    3AU       S 1014  25.824  23.309   6.314
    3AU     LIG 1015  25.940  23.078   5.974
    3AU     LIG 1016  25.713  23.015   5.580
    3AU     LIG 1017  25.500  23.032   5.159
    3AU     LIG 1018  25.294  23.040   4.735
    3AU       S 1019  26.509  23.682   6.242
    3AU     LIG 1020  26.635  23.487   5.778
    3AU     LIG 1021  26.907  23.367   5.413
    3AU     LIG 1022  27.065  23.418   4.970
    3AU     LIG 1023  27.111  23.560   4.526
    3AU    AUSL 1024  25.744  23.621   8.248
    3AU    AUSL 1025  26.089  23.958   8.125
    3AU     AUL 1026  25.937  23.902   8.462
    3AU       S 1027  25.735  23.523   8.677
    3AU     LIG 1028  25.532  23.170   8.880
    3AU     LIG 1029  25.412  23.091   9.314
    3AU     LIG 1030  25.229  23.190   9.734
    3AU     LIG 1031  24.826  23.239   9.975
    3AU       S 1032  25.680  24.213   8.205
    3AU     LIG 1033  25.496  24.353   8.593
    3AU     LIG 1034  25.307  24.566   8.951
    3AU     LIG 1035  25.060  24.847   9.218
    3AU     LIG 1036  24.980  25.138   9.585
    3AU    AUSL 1037  26.052  23.322   8.160
    3AU    AUSL 1038  25.626  23.195   8.138
    3AU     AUL 1039  25.544  23.421   8.270
    3AU       S 1040  25.519  22.966   8.390
    3AU     LIG 1041  25.081  22.844   8.222
    3AU     LIG 1042  24.833  22.481   8.401
    3AU     LIG 1043  24.630  22.251   8.765
    3AU     LIG 1044  24.399  21.892   8.959
    3AU       S 1045  25.914  23.266   8.549
    3AU     LIG 1046  25.987  22.939   8.868
    3AU     LIG 1047  25.898  22.912   9.319
    3AU     LIG 1048  25.665  22.909   9.734
    3AU     LIG 1049  25.390  22.767  10.087
    3AU    AUSL 1050  25.734  23.344   6.793
    3AU    AUSL 1051  25.939  22.964   6.938
    3AU     AUL 1052  25.987  23.006   6.625
    3AU       S 1053  25.633  23.212   6.396
    3AU     LIG 1054  25.414  23.114   6.004
    3AU     LIG 1055  25.206  23.167   5.581
    3AU     LIG 1056  25.019  23.224   5.149
    3AU     LIG 1057  24.826  23.278   4.719
    3AU       S 1058  25.584  22.866   6.803
    3AU     LIG 1059  25.631  22.541   6.540
    3AU     LIG 1060  25.307  22.245   6.377
    3AU     LIG 1061  24.958  22.003   6.165
    3AU     LIG 1062  24.632  21.846   5.858
    3AU    AUSL 1063  25.958  23.668   6.596
    3AU    AUSL 1064  25.615  23.753   6.934
    3AU     AUL 1065  25.556  23.570   6.672
    3AU       S 1066  25.468  24.014   6.708
    3AU     LIG 1067  25.092  24.059   6.595
    3AU     LIG 1068  24.964  24.296   6.240
    3AU     LIG 1069  24.803  24.559   5.906
    3AU     LIG 1070  24.615  24.853   5.615
    3AU       S 1071  25.863  23.572   6.313
    3AU     LIG 1072  25.696  23.523   5.862
    3AU     LIG 1073  25.574  23.485   5.403
    3AU     LIG 1074  25.415  23.561   4.957
    3AU     LIG 1075  25.419  23.932   4.623
    3AU    AUSL 1076  27.108  23.981   7.466
    3AU    AUSL 1077  27.043  23.745   7.053
    3AU     AUL 1078  27.397  24.032   7.153
    3AU       S 1079  27.137  23.792   6.889
    3AU     LIG 1080  27.486  23.982   6.642
    3AU     LIG 1081  27.683  24.213   6.277
    3AU     LIG 1082  27.901  24.528   5.987
    3AU     LIG 1083  28.098  24.628   5.553
    3AU       S 1084  27.457  24.089   7.600
    3AU     LIG 1085  27.873  24.175   7.352
    3AU     LIG 1086  28.333  24.291   7.447
    3AU     LIG 1087  28.787  24.462   7.450
    3AU     LIG 1088  29.079  24.855   7.390
    3AU    AUSL 1089  27.272  23.568   7.382
    3AU    AUSL 1090  27.203  23.275   7.740
    3AU     AUL 1091  27.466  23.450   7.805
    3AU       S 1092  27.453  23.650   7.395
    3AU     LIG 1093  27.852  23.650   7.229
    3AU     LIG 1094  28.274  23.824   7.241
    3AU     LIG 1095  28.711  23.977   7.243
    3AU     LIG 1096  29.145  23.870   7.117
    3AU       S 1097  27.500  23.004   7.619
    3AU     LIG 1098  27.915  22.754   7.657
    3AU     LIG 1099  28.348  22.521   7.665
    3AU     LIG 1100  28.819  22.408   7.672
    3AU     LIG 1101  29.233  22.635   7.693
    3AU    AUSL 1102  26.965  23.630   7.698
    3AU    AUSL 1103  26.931  24.078   7.851
    3AU     AUL 1104  27.192  23.830   7.869
    3AU       S 1105  27.141  24.222   8.130
    3AU     LIG 1106  27.365  24.433   8.464
    3AU     LIG 1107  27.692  24.695   8.654
    3AU     LIG 1108  27.944  25.029   8.861
    3AU     LIG 1109  27.997  25.491   8.951
    3AU       S 1110  27.563  23.862   7.599
    3AU     LIG 1111  28.024  23.828   7.700
    3AU     LIG 1112  28.509  23.884   7.712
    3AU     LIG 1113  28.984  24.016   7.691
    3AU     LIG 1114  29.406  24.019   7.937
    3AU    AUSL 1115  25.643  24.080   7.513
    3AU    AUSL 1116  25.736  23.848   7.887
    3AU     AUL 1117  25.431  24.172   7.760
    3AU       S 1118  25.582  24.039   8.167
    3AU     LIG 1119  25.147  24.140   8.267
    3AU     LIG 1120  24.957  24.356   8.619
    3AU     LIG 1121  24.798  24.408   9.055
    3AU     LIG 1122  24.423  24.299   9.322
    3AU       S 1123  25.635  24.451   7.442
    3AU     LIG 1124  25.137  24.369   7.417
    3AU     LIG 1125  24.696  24.549   7.549
    3AU     LIG 1126  24.325  24.885   7.610
    3AU     LIG 1127  23.891  25.087   7.734
    3AU    AUSL 1128  25.599  23.672   7.349
    3AU    AUSL 1129  25.755  24.147   7.100
    3AU     AUL 1130  25.441  24.014   7.184
    3AU       S 1131  25.191  23.579   7.009
    3AU     LIG 1132  24.922  23.973   7.115
    3AU     LIG 1133  24.468  24.131   6.998
    3AU     LIG 1134  23.984  24.208   6.906
    3AU     LIG 1135  23.523  24.317   7.019
    3AU       S 1136  25.604  24.410   6.929
    3AU     LIG 1137  25.348  24.516   6.542
    3AU     LIG 1138  25.157  24.800   6.196
    3AU     LIG 1139  24.928  25.155   5.945
    3AU     LIG 1140  24.780  25.627   5.863
    3AU    AUSL 1141  25.362  23.718   7.734
    3AU    AUSL 1142  25.319  23.352   7.404
    3AU     AUL 1143  25.229  23.699   7.457
    3AU       S 1144  25.118  23.278   7.669
    3AU     LIG 1145  24.817  23.184   7.304
    3AU     LIG 1146  24.379  23.060   7.228
    3AU     LIG 1147  23.909  23.025   7.247
    3AU     LIG 1148  23.671  22.698   6.994
    3AU       S 1149  25.258  23.733   7.961
    3AU     LIG 1150  24.954  24.037   7.797
    3AU     LIG 1151  24.613  24.272   7.997
    3AU     LIG 1152  24.193  24.122   8.169
    3AU     LIG 1153  23.718  24.151   8.029
    3AU    AUSL 1154  27.020  22.901   7.570
    3AU    AUSL 1155  26.815  23.165   7.888
    3AU     AUL 1156  27.161  23.070   7.948
    3AU       S 1157  27.300  22.801   7.578
    3AU     LIG 1158  27.530  22.438   7.509
    3AU     LIG 1159  27.951  22.247   7.478
    3AU     LIG 1160  28.362  22.010   7.503
    3AU     LIG 1161  28.593  21.565   7.460
    3AU       S 1162  27.035  22.638   8.008
    3AU     LIG 1163  27.296  22.423   8.340
    3AU     LIG 1164  27.516  22.193   8.681
    3AU     LIG 1165  27.773  21.966   8.991
    3AU     LIG 1166  28.078  21.985   9.347
    3AU    AUSL 1167  26.964  23.277   7.349
    3AU    AUSL 1168  26.931  22.844   7.145
    3AU     AUL 1169  27.195  23.038   7.190
    3AU       S 1170  27.544  23.146   7.442
    3AU     LIG 1171  27.714  22.805   7.186
    3AU     LIG 1172  28.154  22.620   7.188
    3AU     LIG 1173  28.606  22.462   7.208
    3AU     LIG 1174  29.097  22.465   7.212
    3AU       S 1175  27.131  22.720   6.839
    3AU     LIG 1176  27.242  22.279   6.728
    3AU     LIG 1177  27.388  21.863   6.543
    3AU     LIG 1178  27.667  21.561   6.297
    3AU     LIG 1179  27.951  21.171   6.212
    3AU    AUSL 1180  25.511  22.973   7.572
    3AU    AUSL 1181  25.661  23.201   7.189
    3AU     AUL 1182  25.302  23.062   7.281
    3AU       S 1183  25.446  22.979   6.854
    3AU     LIG 1184  25.131  22.660   6.660
    3AU     LIG 1185  24.791  22.409   6.432
    3AU     LIG 1186  24.444  22.210   6.165
    3AU     LIG 1187  24.112  21.999   5.882
    3AU       S 1188  25.087  23.021   7.708
    3AU     LIG 1189  24.666  22.787   7.588
    3AU     LIG 1190  24.236  22.543   7.532
    3AU     LIG 1191  23.958  22.322   7.849
    3AU     LIG 1192  23.609  22.016   7.905
    3AU    AUSL 1193  25.608  23.368   7.747
    3AU    AUSL 1194  25.856  22.979   7.835
    3AU     AUL 1195  25.508  22.956   7.899
    3AU       S 1196  25.555  22.745   8.303
    3AU     LIG 1197  25.328  22.379   8.178
    3AU     LIG 1198  25.002  22.041   8.185
    3AU     LIG 1199  24.681  21.836   8.463
    3AU     LIG 1200  24.410  21.478   8.638
    3AU       S 1201  25.170  23.274   7.858
    3AU     LIG 1202  24.638  23.249   7.831
    3AU     LIG 1203  24.211  23.012   7.715
    3AU     LIG 1204  23.781  22.785   7.687
    3AU     LIG 1205  23.435  22.513   7.872
    3AU    AUSL 1206  26.354  24.280   8.001
    3AU    AUSL 1207  25.934  24.229   7.808
    3AU     AUL 1208  26.134  24.294   8.211
    3AU       S 1209  25.797  24.433   7.916
    3AU     LIG 1210  25.377  24.597   8.142
    3AU     LIG 1211  25.174  24.842   8.520
    3AU     LIG 1212  24.998  25.289   8.685
    3AU     LIG 1213  24.761  25.736   8.705
    3AU       S 1214  26.438  24.622   7.990
    3AU     LIG 1215  26.574  24.772   8.359
    3AU     LIG 1216  26.632  25.218   8.462
    3AU     LIG 1217  26.610  25.672   8.603
    3AU     LIG 1218  26.545  26.050   8.894
    3AU    AUSL 1219  26.224  24.464   7.598
    3AU    AUSL 1220  26.513  24.388   7.243
    3AU     AUL 1221  26.472  24.734   7.399
    3AU       S 1222  26.245  24.692   7.806
    3AU     LIG 1223  26.284  25.105   8.062
    3AU     LIG 1224  26.394  25.563   8.145
    3AU     LIG 1225  26.360  26.025   8.285
    3AU     LIG 1226  26.007  26.321   8.374
    3AU       S 1227  26.225  24.592   7.048
    3AU     LIG 1228  26.656  24.823   6.955
    3AU     LIG 1229  26.755  25.275   6.843
    3AU     LIG 1230  26.736  25.761   6.775
    3AU     LIG 1231  26.882  26.233   6.849
    3AU    AUSL 1232  26.581  24.195   7.632
    3AU    AUSL 1233  26.564  23.906   8.015
    3AU     AUL 1234  26.673  24.228   8.074
    3AU       S 1235  26.948  24.089   8.406
    3AU     LIG 1236  27.199  24.077   8.791
    3AU     LIG 1237  27.440  24.396   9.010
    3AU     LIG 1238  27.605  24.791   9.170
    3AU     LIG 1239  27.757  25.159   9.410
    3AU       S 1240  26.686  24.555   7.759
    3AU     LIG 1241  26.779  25.019   7.950
    3AU     LIG 1242  26.907  25.489   8.106
    3AU     LIG 1243  27.083  25.961   8.150
    3AU     LIG 1244  27.140  26.417   8.349
    3AU    AUSL 1245  26.238  22.769   7.938
    3AU    AUSL 1246  26.657  22.771   7.772
    3AU     AUL 1247  26.463  22.631   8.149
    3AU       S 1248  26.200  22.285   7.993
    3AU     LIG 1249  26.180  22.023   8.336
    3AU     LIG 1250  26.111  21.574   8.397
    3AU     LIG 1251  26.095  21.103   8.448
    3AU     LIG 1252  25.933  20.668   8.592
    3AU       S 1253  26.820  22.564   7.844
    3AU     LIG 1254  26.937  22.144   8.033
    3AU     LIG 1255  27.210  21.913   8.354
    3AU     LIG 1256  27.517  21.673   8.624
    3AU     LIG 1257  27.657  21.267   8.814
    3AU    AUSL 1258  25.915  22.594   7.662
    3AU    AUSL 1259  26.004  22.916   8.265
    3AU     AUL 1260  25.898  22.645   8.017
    3AU       S 1261  26.016  22.218   7.841
    3AU     LIG 1262  25.865  21.794   7.984
    3AU     LIG 1263  25.845  21.312   8.027
    3AU     LIG 1264  25.777  20.846   8.127
    3AU     LIG 1265  25.580  20.429   8.232
    3AU       S 1266  25.766  22.809   8.452
    3AU     LIG 1267  25.408  22.522   8.698
    3AU     LIG 1268  25.131  22.145   8.671
    3AU     LIG 1269  24.911  21.825   8.925
    3AU     LIG 1270  24.721  21.703   9.334
    3AU    AUSL 1271  26.357  22.511   7.604
    3AU    AUSL 1272  26.120  22.781   7.322
    3AU     AUL 1273  26.024  22.424   7.422
    3AU       S 1274  26.371  22.342   7.144
    3AU     LIG 1275  26.005  22.025   7.082
    3AU     LIG 1276  25.812  21.575   7.060
    3AU     LIG 1277  25.725  21.116   6.941
    3AU     LIG 1278  25.606  20.650   6.977
    3AU       S 1279  26.365  22.297   7.762
    3AU     LIG 1280  26.376  21.804   7.906
    3AU     LIG 1281  26.368  21.306   8.037
    3AU     LIG 1282  26.441  20.811   8.163
    3AU     LIG 1283  26.711  20.374   8.185
    3AU    AUSL 1284  26.319  24.162   6.899
    3AU    AUSL 1285  26.748  24.031   7.231
    3AU     AUL 1286  26.602  24.310   6.897
    3AU       S 1287  26.227  24.601   6.817
    3AU     LIG 1288  26.358  25.016   6.590
    3AU     LIG 1289  26.535  25.417   6.385
    3AU     LIG 1290  26.577  25.703   5.990
    3AU     LIG 1291  26.583  26.101   5.708
    3AU       S 1292  27.000  24.235   7.088
    3AU     LIG 1293  27.418  24.467   6.869
    3AU     LIG 1294  27.634  24.685   6.476
    3AU     LIG 1295  27.902  25.023   6.232
    3AU     LIG 1296  28.140  25.474   6.218
    3AU    AUSL 1297  26.128  24.163   7.306
    3AU    AUSL 1298  26.047  23.844   6.971
    3AU     AUL 1299  26.015  24.191   6.869
    3AU       S 1300  26.044  24.557   7.169
    3AU     LIG 1301  26.196  25.072   7.082
    3AU     LIG 1302  26.286  25.489   6.848
    3AU     LIG 1303  26.233  25.964   6.786
    3AU     LIG 1304  25.879  26.288   6.823
    3AU       S 1305  25.675  24.080   6.599
    3AU     LIG 1306  25.473  24.153   6.196
    3AU     LIG 1307  25.315  24.440   5.862
    3AU     LIG 1308  25.149  24.813   5.621
    3AU     LIG 1309  24.945  25.115   5.315
    3AU    AUSL 1310  26.320  22.756   6.919
    3AU    AUSL 1311  25.701  22.754   7.249
    3AU     AUL 1312  25.970  22.613   6.984
    3AU       S 1313  25.507  22.712   7.038
    3AU     LIG 1314  25.384  22.290   6.918
    3AU     LIG 1315  25.006  22.062   6.751
    3AU     LIG 1316  24.616  21.901   6.541
    3AU     LIG 1317  24.245  21.731   6.303
    3AU       S 1318  26.375  22.367   6.948
    3AU     LIG 1319  26.327  22.036   6.673
    3AU     LIG 1320  26.043  21.692   6.612
    3AU     LIG 1321  26.031  21.238   6.546
    3AU     LIG 1322  25.981  20.876   6.249
    3AU    AUSL 1323  26.553  22.753   7.310
    3AU    AUSL 1324  26.598  23.082   6.975
    3AU     AUL 1325  26.671  22.718   6.929
    3AU       S 1326  26.612  22.369   7.236
    3AU     LIG 1327  26.498  21.865   7.138
    3AU     LIG 1328  26.303  21.434   6.978
    3AU     LIG 1329  26.222  20.947   6.948
    3AU     LIG 1330  26.381  20.480   7.016
    3AU       S 1331  26.910  22.904   6.593
    3AU     LIG 1332  26.804  22.468   6.511
    3AU     LIG 1333  27.029  22.143   6.272
    3AU     LIG 1334  27.311  21.855   6.028
    3AU     LIG 1335  27.578  21.560   5.780
    4AU     AUC 1336  14.444  44.606   7.505
    4AU     AUC 1337  14.719  44.616   7.333
    4AU     AUC 1338  14.692  44.595   7.677
    4AU     AUC 1339  14.172  44.603   7.342
    4AU     AUC 1340  14.184  44.643   7.687
    4AU     AUC 1341  14.280  44.882   7.504
    4AU     AUC 1342  14.634  44.871   7.497
    4AU     AUC 1343  14.259  44.349   7.513
    4AU     AUC 1344  14.610  44.324   7.508
    4AU     AUC 1345  14.445  44.432   7.778
    4AU     AUC 1346  14.438  44.775   7.771
    4AU     AUC 1347  14.438  44.440   7.236
    4AU     AUC 1348  14.474  44.757   7.230
    4AU     AUC 1349  15.042  44.610   7.178
    4AU     AUC 1350  15.050  44.591   7.521
    4AU     AUC 1351  14.984  44.576   7.880
    4AU     AUC 1352  13.855  44.600   7.178
    4AU     AUC 1353  13.837  44.640   7.537
    4AU     AUC 1354  13.886  44.680   7.863
    4AU     AUC 1355  14.127   0.212   7.476
    4AU     AUC 1356  14.480   0.213   7.469
    4AU     AUC 1357  14.844   0.154   7.487
    4AU     AUC 1358  14.057  44.064   7.519
    4AU     AUC 1359  14.409  44.010   7.492
    4AU     AUC 1360  14.785  44.020   7.490
    4AU     AUC 1361  14.421  44.255   8.072
    4AU     AUC 1362  14.451  44.626   8.127
    4AU     AUC 1363  14.466  44.956   8.068
    4AU     AUC 1364  14.464  44.264   6.956
    4AU     AUC 1365  14.439  44.592   6.891
    4AU     AUC 1366  14.458  44.915   6.911
    4AU     AUC 1367  14.699  44.398   8.016
    4AU     AUC 1368  14.750  44.747   8.015
    4AU     AUC 1369  14.772  44.441   7.016
    4AU     AUC 1370  14.759  44.783   7.011
    4AU     AUC 1371  14.137  44.491   8.023
    4AU     AUC 1372  14.165  44.863   7.985
    4AU     AUC 1373  14.134  44.418   7.053
    4AU     AUC 1374  14.114  44.750   7.009
    4AU     AUC 1375  14.978  44.888   7.302
    4AU     AUC 1376  14.939  44.883   7.672
    4AU     AUC 1377  13.960  44.915   7.339
    4AU     AUC 1378  13.985  44.971   7.680
    4AU     AUC 1379  14.943  44.307   7.357
    4AU     AUC 1380  14.889  44.265   7.697
    4AU     AUC 1381  13.924  44.301   7.369
    4AU     AUC 1382  13.972  44.362   7.719
    4AU     AUC 1383  14.305   0.152   7.770
    4AU     AUC 1384  14.652   0.071   7.762
    4AU     AUC 1385  14.248  44.136   7.803
    4AU     AUC 1386  14.565  44.081   7.778
    4AU     AUC 1387  14.282   0.046   7.202
    4AU     AUC 1388  14.657   0.068   7.167
    4AU     AUC 1389  14.249  44.138   7.211
    4AU     AUC 1390  14.653  44.159   7.218
    4AU    AUSL 1391  14.964  44.460   8.280
    4AU    AUSL 1392  14.704  44.084   8.172
    4AU     AUL 1393  14.893  44.043   8.500
    4AU       S 1394  15.078  43.829   8.140
    4AU     LIG 1395  14.940  43.527   8.442
    4AU     LIG 1396  15.149  43.224   8.687
    4AU     LIG 1397  15.374  43.062   9.068
    4AU     LIG 1398  15.665  42.878   9.383
    4AU       S 1399  15.131  44.388   8.337
    4AU     LIG 1400  15.110  44.369   8.821
    4AU     LIG 1401  15.339  44.276   9.241
    4AU     LIG 1402  15.573  44.132   9.638
    4AU     LIG 1403  15.961  44.092   9.922
    4AU    AUSL 1404  14.541  44.413   8.419
    4AU    AUSL 1405  14.290  44.798   8.427
    4AU     AUL 1406  14.483  44.738   8.766
    4AU       S 1407  14.576  44.357   8.541
    4AU     LIG 1408  14.615  44.277   8.979
    4AU     LIG 1409  14.863  44.118   9.358
    4AU     LIG 1410  15.081  43.965   9.769
    4AU     LIG 1411  15.208  43.746  10.187
    4AU       S 1412  14.089  44.548   8.626
    4AU     LIG 1413  14.144  44.549   9.094
    4AU     LIG 1414  13.882  44.544   9.466
    4AU     LIG 1415  13.667  44.634   9.863
    4AU     LIG 1416  13.526  44.979  10.162
    4AU    AUSL 1417  14.714  44.829   8.370
    4AU    AUSL 1418  15.098  44.849   8.122
    4AU     AUL 1419  14.972  44.762   8.531
    4AU       S 1420  14.618   0.139   8.496
    4AU     LIG 1421  14.882   0.119   8.879
    4AU     LIG 1422  15.031   0.279   9.307
    4AU     LIG 1423  14.978   0.375   9.786
    4AU     LIG 1424  15.026   0.543  10.237
    4AU       S 1425  15.198   0.099   8.305
    4AU     LIG 1426  15.615   0.058   8.420
    4AU     LIG 1427  15.890   0.311   8.714
    4AU     LIG 1428  16.124   0.613   9.005
    4AU     LIG 1429  16.309   0.953   9.276
    4AU    AUSL 1430  14.899  44.648   6.866
    4AU    AUSL 1431  14.852   0.088   6.810
    4AU     AUL 1432  15.000  44.968   6.567
    4AU       S 1433  14.855  44.675   6.260
    4AU     LIG 1434  15.297  44.664   6.160
    4AU     LIG 1435  15.475  44.441   5.797
    4AU     LIG 1436  15.527  44.317   5.357
    4AU     LIG 1437  15.757  44.116   5.009
    4AU       S 1438  15.199   0.298   6.827
    4AU     LIG 1439  15.311   0.540   6.441
    4AU     LIG 1440  15.507   0.786   6.065
    4AU     LIG 1441  15.739   1.023   5.728
    4AU     LIG 1442  15.745   1.138   5.267
    4AU    AUSL 1443  14.719  44.365   6.576
    4AU    AUSL 1444  15.202  44.351   6.933
    4AU     AUL 1445  15.099  44.505   6.642
    4AU       S 1446  15.329  44.089   6.711
    4AU     LIG 1447  15.440  43.719   6.392
    4AU     LIG 1448  15.658  43.312   6.287
    4AU     LIG 1449  15.943  43.121   5.965
    4AU     LIG 1450  16.211  42.968   5.601
    4AU       S 1451  14.857  44.442   6.238
    4AU     LIG 1452  15.147  44.147   6.079
    4AU     LIG 1453  15.233  43.996   5.641
    4AU     LIG 1454  15.147  44.009   5.172
    4AU     LIG 1455  15.130  44.118   4.702
    4AU    AUSL 1456  14.553  44.803   6.656
    4AU    AUSL 1457  14.331  44.419   6.761
    4AU     AUL 1458  14.444  44.452   6.436
    4AU       S 1459  13.999  44.443   6.299
    4AU     LIG 1460  14.136  44.268   5.913
    4AU     LIG 1461  13.925  44.013   5.576
    4AU     LIG 1462  13.746  44.004   5.143
    4AU     LIG 1463  13.581  43.808   4.745
    4AU       S 1464  14.638  44.840   6.283
    4AU     LIG 1465  14.678  44.649   5.804
    4AU     LIG 1466  15.020  44.463   5.506
    4AU     LIG 1467  15.157  44.517   5.051
    4AU     LIG 1468  15.176  44.742   4.635
    4AU    AUSL 1469  13.888  44.754   8.245
    4AU    AUSL 1470  14.225   0.090   8.118
    4AU     AUL 1471  14.074   0.038   8.456
    4AU       S 1472  13.878  44.656   8.672
    4AU     LIG 1473  13.683  44.347   8.933
    4AU     LIG 1474  13.443  44.303   9.337
    4AU     LIG 1475  13.246  44.344   9.766
    4AU     LIG 1476  12.844  44.271  10.006
    4AU       S 1477  13.821   0.342   8.190
    4AU     LIG 1478  13.936   0.552   8.565
    4AU     LIG 1479  13.731   0.665   8.962
    4AU     LIG 1480  13.433   0.938   9.205
    4AU     LIG 1481  13.167   1.081   9.571
    4AU    AUSL 1482  14.202  44.460   8.157
    4AU    AUSL 1483  13.780  44.323   8.140
    4AU     AUL 1484  13.689  44.553   8.264
    4AU       S 1485  13.684  44.100   8.397
    4AU     LIG 1486  13.245  43.974   8.237
    4AU     LIG 1487  12.967  43.622   8.416
    4AU     LIG 1488  12.744  43.398   8.782
    4AU     LIG 1489  12.551  43.114   9.107
    4AU       S 1490  14.061  44.404   8.550
    4AU     LIG 1491  14.134  44.095   8.883
    4AU     LIG 1492  13.924  44.058   9.298
    4AU     LIG 1493  13.718  44.109   9.725
    4AU     LIG 1494  13.506  43.921  10.097
    4AU    AUSL 1495  13.899  44.492   6.792
    4AU    AUSL 1496  14.093  44.103   6.934
    4AU     AUL 1497  14.136  44.143   6.624
    4AU       S 1498  13.797  44.366   6.387
    4AU     LIG 1499  13.627  44.325   5.938
    4AU     LIG 1500  13.452  44.238   5.506
    4AU     LIG 1501  13.246  44.175   5.091
    4AU     LIG 1502  12.847  44.302   4.865
    4AU       S 1503  13.730  44.014   6.796
    4AU     LIG 1504  13.790  43.676   6.548
    4AU     LIG 1505  13.478  43.386   6.379
    4AU     LIG 1506  13.160  43.140   6.152
    4AU     LIG 1507  12.994  43.053   5.721
    4AU    AUSL 1508  14.131  44.803   6.577
    4AU    AUSL 1509  13.747  44.891   6.926
    4AU     AUL 1510  13.752  44.744   6.642
    4AU       S 1511  13.512   0.129   6.721
    4AU     LIG 1512  13.188   0.312   6.546
    4AU     LIG 1513  13.126   0.502   6.151
    4AU     LIG 1514  12.997   0.811   5.835
    4AU     LIG 1515  12.625   0.954   5.591
    4AU       S 1516  14.067  44.707   6.298
    4AU     LIG 1517  13.929  44.749   5.883
    4AU     LIG 1518  13.880  44.520   5.495
    4AU     LIG 1519  13.667  44.522   5.081
    4AU     LIG 1520  13.644  44.808   4.696
    4AU    AUSL 1521  15.256   0.118   7.474
    4AU    AUSL 1522  15.201  44.887   7.059
    4AU     AUL 1523  15.531   0.183   7.182
    4AU       S 1524  15.303  44.929   6.901
    4AU     LIG 1525  15.499   0.045   6.497
    4AU     LIG 1526  15.746   0.346   6.230
    4AU     LIG 1527  16.015   0.683   6.053
    4AU     LIG 1528  16.251   1.032   5.863
    4AU       S 1529  15.647   0.225   7.624
    4AU     LIG 1530  16.092   0.264   7.430
    4AU     LIG 1531  16.543   0.352   7.484
    4AU     LIG 1532  16.951   0.569   7.477
    4AU     LIG 1533  17.100   1.016   7.432
    4AU    AUSL 1534  15.425  44.709   7.390
    4AU    AUSL 1535  15.351  44.407   7.741
    4AU     AUL 1536  15.587  44.601   7.813
    4AU       S 1537  15.687  44.820   7.416
    4AU     LIG 1538  16.136  44.759   7.329
    4AU     LIG 1539  16.575  44.927   7.199
    4AU     LIG 1540  16.947   0.214   7.110
    4AU     LIG 1541  17.401   0.287   6.935
    4AU       S 1542  15.646  44.170   7.611
    4AU     LIG 1543  16.111  44.072   7.629
    4AU     LIG 1544  16.459  43.759   7.715
    4AU     LIG 1545  16.906  43.598   7.788
    4AU     LIG 1546  17.394  43.532   7.861
    4AU    AUSL 1547  15.114  44.766   7.704
    4AU    AUSL 1548  15.065   0.221   7.851
    4AU     AUL 1549  15.331  44.994   7.873
    4AU       S 1550  15.268   0.371   8.151
    4AU     LIG 1551  15.601   0.574   8.370
    4AU     LIG 1552  15.841   0.849   8.653
    4AU     LIG 1553  16.066   1.201   8.870
    4AU     LIG 1554  16.133   1.685   8.830
    4AU       S 1555  15.707   0.005   7.613
    4AU     LIG 1556  16.059  44.908   7.822
    4AU     LIG 1557  16.492  44.871   7.702
    4AU     LIG 1558  16.915   0.024   7.616
    4AU     LIG 1559  17.170   0.312   7.883
    4AU    AUSL 1560  13.787   0.197   7.500
    4AU    AUSL 1561  13.870  44.977   7.883
    4AU     AUL 1562  13.573   0.299   7.754
    4AU       S 1563  13.696   0.168   8.179
    4AU     LIG 1564  13.450   0.401   8.534
    4AU     LIG 1565  13.221   0.559   8.913
    4AU     LIG 1566  12.980   0.682   9.297
    4AU     LIG 1567  12.662   0.722   9.649
    4AU       S 1568  13.773   0.577   7.431
    4AU     LIG 1569  13.271   0.474   7.380
    4AU     LIG 1570  12.782   0.579   7.450
    4AU     LIG 1571  12.380   0.875   7.525
    4AU     LIG 1572  12.009   1.212   7.583
    4AU    AUSL 1573  13.750  44.785   7.335
    4AU    AUSL 1574  13.901   0.278   7.090
    4AU     AUL 1575  13.586   0.139   7.188
    4AU       S 1576  13.391  44.604   6.972
    4AU     LIG 1577  13.111   0.006   7.030
    4AU     LIG 1578  12.715   0.272   7.024
    4AU     LIG 1579  12.240   0.353   6.998
    4AU     LIG 1580  11.757   0.388   6.992
    4AU       S 1581  13.744   0.515   6.907
    4AU     LIG 1582  13.542   0.691   6.510
    4AU     LIG 1583  13.272   0.985   6.245
    4AU     LIG 1584  12.845   1.210   6.170
    4AU     LIG 1585  12.531   1.574   6.291
    4AU    AUSL 1586  13.507  44.846   7.707
    4AU    AUSL 1587  13.469  44.469   7.410
    4AU     AUL 1588  13.359  44.797   7.412
    4AU       S 1589  13.278  44.403   7.684
    4AU     LIG 1590  12.935  44.525   7.392
    4AU     LIG 1591  12.525  44.336   7.238
    4AU     LIG 1592  12.097  44.113   7.211
    4AU     LIG 1593  11.665  44.278   7.265
    4AU       S 1594  13.395  44.869   7.926
    4AU     LIG 1595  12.978  44.902   7.766
    4AU     LIG 1596  12.581   0.107   7.948
    4AU     LIG 1597  12.214   0.357   8.075
    4AU     LIG 1598  11.756   0.446   8.055
    4AU    AUSL 1599  15.169  44.033   7.568
    4AU    AUSL 1600  14.963  44.298   7.885
    4AU     AUL 1601  15.304  44.193   7.944
    4AU       S 1602  15.498  43.938   7.583
    4AU     LIG 1603  15.869  43.628   7.554
    4AU     LIG 1604  16.254  43.337   7.503
    4AU     LIG 1605  16.714  43.257   7.421
    4AU     LIG 1606  17.074  43.013   7.185
    4AU       S 1607  15.189  43.754   7.987
    4AU     LIG 1608  15.443  43.535   8.308
    4AU     LIG 1609  15.643  43.328   8.659
    4AU     LIG 1610  15.883  43.139   8.981
    4AU     LIG 1611  16.250  42.970   9.202
    4AU    AUSL 1612  15.121  44.412   7.348
    4AU    AUSL 1613  15.080  43.973   7.143
    4AU     AUL 1614  15.347  44.156   7.197
    4AU       S 1615  15.695  44.309   7.432
    4AU     LIG 1616  15.862  43.979   7.175
    4AU     LIG 1617  16.284  43.767   7.221
    4AU     LIG 1618  16.761  43.754   7.292
    4AU     LIG 1619  17.203  43.921   7.213
    4AU       S 1620  15.274  43.838   6.848
    4AU     LIG 1621  15.255  43.364   6.794
    4AU     LIG 1622  15.439  42.959   6.617
    4AU     LIG 1623  15.733  42.766   6.287
    4AU     LIG 1624  16.119  42.628   6.020
    4AU    AUSL 1625  13.673  44.098   7.572
    4AU    AUSL 1626  13.803  44.330   7.178
    4AU     AUL 1627  13.446  44.173   7.293
    4AU       S 1628  13.599  44.138   6.861
    4AU     LIG 1629  13.291  43.834   6.623
    4AU     LIG 1630  12.973  43.551   6.413
    4AU     LIG 1631  12.708  43.384   6.059
    4AU     LIG 1632  12.440  43.507   5.696
    4AU       S 1633  13.252  44.163   7.732
    4AU     LIG 1634  12.861  44.038   7.524
    4AU     LIG 1635  12.451  43.824   7.434
    4AU     LIG 1636  12.020  43.670   7.565
    4AU     LIG 1637  11.838  43.243   7.728
    4AU    AUSL 1638  13.756  44.497   7.750
    4AU    AUSL 1639  14.014  44.111   7.838
    4AU     AUL 1640  13.673  44.072   7.903
    4AU       S 1641  13.725  43.888   8.321
    4AU     LIG 1642  13.544  43.557   8.128
    4AU     LIG 1643  13.221  43.232   8.184
    4AU     LIG 1644  12.873  43.048   8.430
    4AU     LIG 1645  12.584  42.788   8.697
    4AU       S 1646  13.346  44.402   7.875
    4AU     LIG 1647  12.831  44.403   7.899
    4AU     LIG 1648  12.409  44.230   7.734
    4AU     LIG 1649  11.939  44.187   7.719
    4AU     LIG 1650  11.491  44.074   7.735
    4AU    AUSL 1651  14.487   0.414   7.990
    4AU    AUSL 1652  14.073   0.354   7.795
    4AU     AUL 1653  14.275   0.425   8.203
    4AU       S 1654  13.941   0.557   7.906
    4AU     LIG 1655  13.627   0.791   8.208
    4AU     LIG 1656  13.450   0.939   8.629
    4AU     LIG 1657  13.293   1.327   8.871
    4AU     LIG 1658  13.196   1.807   8.819
    4AU       S 1659  14.572   0.751   7.966
    4AU     LIG 1660  14.725   0.879   8.333
    4AU     LIG 1661  14.680   1.296   8.517
    4AU     LIG 1662  14.677   1.728   8.675
    4AU     LIG 1663  14.635   1.961   9.084
    4AU    AUSL 1664  14.356   0.593   7.581
    4AU    AUSL 1665  14.652   0.516   7.231
    4AU     AUL 1666  14.602   0.873   7.386
    4AU       S 1667  14.379   0.822   7.791
    4AU     LIG 1668  14.461   1.238   8.038
    4AU     LIG 1669  14.384   1.656   8.238
    4AU     LIG 1670  14.061   2.022   8.270
    4AU     LIG 1671  13.951   2.462   8.404
    4AU       S 1672  14.371   0.700   7.038
    4AU     LIG 1673  14.812   0.921   6.952
    4AU     LIG 1674  14.909   1.363   6.867
    4AU     LIG 1675  15.064   1.802   6.758
    4AU     LIG 1676  15.410   2.160   6.761
    4AU    AUSL 1677  14.716   0.328   7.624
    4AU    AUSL 1678  14.701   0.044   8.012
    4AU     AUL 1679  14.805   0.366   8.072
    4AU       S 1680  15.079   0.234   8.408
    4AU     LIG 1681  15.342   0.343   8.758
    4AU     LIG 1682  15.595   0.600   9.032
    4AU     LIG 1683  15.795   0.951   9.251
    4AU     LIG 1684  15.892   1.122   9.680
    4AU       S 1685  14.821   0.651   7.717
    4AU     LIG 1686  14.937   1.088   7.896
    4AU     LIG 1687  14.923   1.520   8.119
    4AU     LIG 1688  15.184   1.919   8.234
    4AU     LIG 1689  15.243   2.322   8.483
    4AU    AUSL 1690  14.388  43.888   7.940
    4AU    AUSL 1691  14.805  43.904   7.771
    4AU     AUL 1692  14.615  43.766   8.150
    4AU       S 1693  14.360  43.415   7.989
    4AU     LIG 1694  14.553  43.171   8.312
    4AU     LIG 1695  14.496  42.697   8.356
    4AU     LIG 1696  14.432  42.246   8.450
    4AU     LIG 1697  14.233  41.907   8.698
    4AU       S 1698  14.964  43.691   7.837
    4AU     LIG 1699  15.061  43.262   8.031
    4AU     LIG 1700  15.422  43.029   8.273
    4AU     LIG 1701  15.580  42.813   8.665
    4AU     LIG 1702  15.886  42.626   8.978
    4AU    AUSL 1703  14.064  43.728   7.657
    4AU    AUSL 1704  14.169  44.054   8.267
    4AU     AUL 1705  14.055  43.774   8.020
    4AU       S 1706  14.173  43.353   7.830
    4AU     LIG 1707  14.167  42.913   8.016
    4AU     LIG 1708  14.176  42.427   8.029
    4AU     LIG 1709  14.090  41.985   8.162
    4AU     LIG 1710  13.883  41.614   8.379
    4AU       S 1711  13.941  43.938   8.460
    4AU     LIG 1712  13.583  43.635   8.698
    4AU     LIG 1713  13.259  43.299   8.699
    4AU     LIG 1714  13.024  42.980   8.931
    4AU     LIG 1715  12.929  42.848   9.366
    4AU    AUSL 1716  14.506  43.645   7.596
    4AU    AUSL 1717  14.269  43.917   7.319
    4AU     AUL 1718  14.181  43.557   7.407
    4AU       S 1719  14.548  43.477   7.148
    4AU     LIG 1720  14.352  43.070   7.219
    4AU     LIG 1721  14.222  42.654   7.011
    4AU     LIG 1722  14.143  42.196   6.880
    4AU     LIG 1723  13.955  41.738   6.942
    4AU       S 1724  14.520  43.442   7.748
    4AU     LIG 1725  14.637  42.998   7.851
    4AU     LIG 1726  14.654  42.525   7.891
    4AU     LIG 1727  14.619  42.072   7.999
    4AU     LIG 1728  14.893  41.777   8.234
    4AU    AUSL 1729  14.469   0.271   6.892
    4AU    AUSL 1730  14.899   0.167   7.233
    4AU     AUL 1731  14.748   0.430   6.882
    4AU       S 1732  14.369   0.713   6.810
    4AU     LIG 1733  14.522   1.107   6.582
    4AU     LIG 1734  14.739   1.478   6.386
    4AU     LIG 1735  14.762   1.736   5.987
    4AU     LIG 1736  14.804   2.074   5.655
    4AU       S 1737  15.134   0.380   7.104
    4AU     LIG 1738  15.534   0.641   6.911
    4AU     LIG 1739  15.767   0.799   6.514
    4AU     LIG 1740  15.894   1.167   6.226
    4AU     LIG 1741  16.043   1.637   6.225
    4AU    AUSL 1742  14.274   0.283   7.295
    4AU    AUSL 1743  14.183  44.963   6.965
    4AU     AUL 1744  14.160   0.301   6.848
    4AU       S 1745  14.184   0.675   7.147
    4AU     LIG 1746  14.349   1.182   7.064
    4AU     LIG 1747  14.436   1.584   6.817
    4AU     LIG 1748  14.276   2.038   6.770
    4AU     LIG 1749  14.133   2.476   6.631
    4AU       S 1750  13.787   0.229   6.604
    4AU     LIG 1751  13.621   0.312   6.177
    4AU     LIG 1752  13.520   0.678   5.872
    4AU     LIG 1753  13.372   0.915   5.476
    4AU     LIG 1754  13.268   1.314   5.228
    4AU    AUSL 1755  14.471  43.890   6.917
    4AU    AUSL 1756  13.851  43.884   7.237
    4AU     AUL 1757  14.123  43.750   6.973
    4AU       S 1758  13.657  43.851   7.019
    4AU     LIG 1759  13.474  43.441   6.900
    4AU     LIG 1760  13.136  43.159   6.698
    4AU     LIG 1761  12.730  43.045   6.456
    4AU     LIG 1762  12.275  42.854   6.350
    4AU       S 1763  14.529  43.494   6.956
    4AU     LIG 1764  14.527  43.078   6.726
    4AU     LIG 1765  14.545  42.624   6.598
    4AU     LIG 1766  14.421  42.229   6.385
    4AU     LIG 1767  14.473  42.074   5.932
    4AU    AUSL 1768  14.701  43.896   7.309
    4AU    AUSL 1769  14.750  44.216   6.972
    4AU     AUL 1770  14.812  43.858   6.914
    4AU       S 1771  14.799  43.534   7.247
    4AU     LIG 1772  14.874  43.078   7.095
    4AU     LIG 1773  14.725  42.621   7.085
    4AU     LIG 1774  14.659  42.195   6.853
    4AU     LIG 1775  14.835  41.733   6.893
    4AU       S 1776  15.076  44.033   6.591
    4AU     LIG 1777  14.942  43.609   6.476
    4AU     LIG 1778  15.146  43.218   6.281
    4AU     LIG 1779  15.419  42.991   5.948
    4AU     LIG 1780  15.727  42.741   5.679
    5AU     AUC 1781   8.177  17.032   7.502
    5AU     AUC 1782   8.451  17.044   7.332
    5AU     AUC 1783   8.424  17.020   7.675
    5AU     AUC 1784   7.905  17.030   7.340
    5AU     AUC 1785   7.915  17.069   7.684
    5AU     AUC 1786   8.012  17.309   7.503
    5AU     AUC 1787   8.367  17.298   7.497
    5AU     AUC 1788   7.992  16.776   7.509
    5AU     AUC 1789   8.343  16.748   7.504
    5AU     AUC 1790   8.178  16.857   7.774
    5AU     AUC 1791   8.170  17.200   7.769
    5AU     AUC 1792   8.173  16.868   7.232
    5AU     AUC 1793   8.206  17.186   7.229
    5AU     AUC 1794   8.775  17.038   7.178
    5AU     AUC 1795   8.781  17.016   7.520
    5AU     AUC 1796   8.716  16.998   7.879
    5AU     AUC 1797   7.589  17.027   7.176
    5AU     AUC 1798   7.569  17.065   7.534
    5AU     AUC 1799   7.616  17.104   7.861
    5AU     AUC 1800   7.859  17.638   7.477
    5AU     AUC 1801   8.213  17.640   7.471
    5AU     AUC 1802   8.579  17.580   7.489
    5AU     AUC 1803   7.790  16.491   7.513
    5AU     AUC 1804   8.144  16.437   7.485
    5AU     AUC 1805   8.518  16.443   7.485
    5AU     AUC 1806   8.154  16.677   8.066
    5AU     AUC 1807   8.182  17.049   8.123
    5AU     AUC 1808   8.198  17.379   8.067
    5AU     AUC 1809   8.198  16.695   6.950
    5AU     AUC 1810   8.172  17.022   6.890
    5AU     AUC 1811   8.191  17.347   6.915
    5AU     AUC 1812   8.431  16.819   8.013
    5AU     AUC 1813   8.482  17.170   8.014
    5AU     AUC 1814   8.505  16.872   7.013
    5AU     AUC 1815   8.494  17.215   7.014
    5AU     AUC 1816   7.869  16.915   8.020
    5AU     AUC 1817   7.895  17.287   7.983
    5AU     AUC 1818   7.867  16.846   7.049
    5AU     AUC 1819   7.847  17.179   7.008
    5AU     AUC 1820   8.712  17.316   7.303
    5AU     AUC 1821   8.673  17.308   7.672
    5AU     AUC 1822   7.693  17.343   7.337
    5AU     AUC 1823   7.716  17.395   7.679
    5AU     AUC 1824   8.674  16.732   7.352
    5AU     AUC 1825   8.621  16.687   7.695
    5AU     AUC 1826   7.658  16.728   7.365
    5AU     AUC 1827   7.704  16.787   7.715
    5AU     AUC 1828   8.037  17.576   7.771
    5AU     AUC 1829   8.384  17.495   7.763
    5AU     AUC 1830   7.982  16.562   7.797
    5AU     AUC 1831   8.298  16.503   7.773
    5AU     AUC 1832   8.015  17.475   7.202
    5AU     AUC 1833   8.391  17.497   7.170
    5AU     AUC 1834   7.982  16.566   7.204
    5AU     AUC 1835   8.386  16.588   7.210
    5AU    AUSL 1836   8.696  16.881   8.278
    5AU    AUSL 1837   8.439  16.501   8.172
    5AU     AUL 1838   8.621  16.478   8.525
    5AU       S 1839   8.796  16.283   8.156
    5AU     LIG 1840   8.657  15.980   8.471
    5AU     LIG 1841   8.897  15.684   8.710
    5AU     LIG 1842   9.184  15.402   8.949
    5AU     LIG 1843   9.322  15.365   9.397
    5AU       S 1844   8.863  16.802   8.326
    5AU     LIG 1845   8.865  16.806   8.812
    5AU     LIG 1846   9.017  16.792   9.261
    5AU     LIG 1847   9.205  16.778   9.691
    5AU     LIG 1848   9.570  16.795   9.984
    5AU    AUSL 1849   8.272  16.834   8.412
    5AU    AUSL 1850   8.020  17.219   8.425
    5AU     AUL 1851   8.216  17.157   8.764
    5AU       S 1852   8.295  16.782   8.526
    5AU     LIG 1853   8.314  16.695   8.956
    5AU     LIG 1854   8.530  16.660   9.370
    5AU     LIG 1855   8.719  16.627   9.805
    5AU     LIG 1856   8.763  16.406  10.226
    5AU       S 1857   7.820  16.973   8.624
    5AU     LIG 1858   7.878  16.995   9.097
    5AU     LIG 1859   7.617  17.030   9.473
    5AU     LIG 1860   7.405  17.047   9.878
    5AU     LIG 1861   7.398  17.334  10.245
    5AU    AUSL 1862   8.444  17.250   8.369
    5AU    AUSL 1863   8.830  17.272   8.123
    5AU     AUL 1864   8.703  17.176   8.526
    5AU       S 1865   8.346  17.559   8.496
    5AU     LIG 1866   8.596  17.509   8.883
    5AU     LIG 1867   8.765  17.636   9.308
    5AU     LIG 1868   8.739  17.741   9.781
    5AU     LIG 1869   8.863  17.656  10.234
    5AU       S 1870   8.926  17.518   8.306
    5AU     LIG 1871   9.358  17.502   8.386
    5AU     LIG 1872   9.642  17.725   8.682
    5AU     LIG 1873   9.855  17.987   9.010
    5AU     LIG 1874  10.040  18.328   9.273
    5AU    AUSL 1875   8.633  17.082   6.870
    5AU    AUSL 1876   8.588  17.522   6.815
    5AU     AUL 1877   8.740  17.402   6.576
    5AU       S 1878   8.560  17.143   6.262
    5AU     LIG 1879   9.014  17.129   6.127
    5AU     LIG 1880   9.118  16.915   5.730
    5AU     LIG 1881   9.261  16.720   5.335
    5AU     LIG 1882   9.636  16.714   5.049
    5AU       S 1883   8.939  17.732   6.835
    5AU     LIG 1884   9.058  17.938   6.431
    5AU     LIG 1885   9.262  18.123   6.035
    5AU     LIG 1886   9.524  18.394   5.748
    5AU     LIG 1887   9.604  18.584   5.317
    5AU    AUSL 1888   8.453  16.810   6.571
    5AU    AUSL 1889   8.937  16.784   6.931
    5AU     AUL 1890   8.830  16.941   6.637
    5AU       S 1891   9.060  16.527   6.704
    5AU     LIG 1892   9.188  16.191   6.362
    5AU     LIG 1893   9.459  15.817   6.215
    5AU     LIG 1894   9.719  15.532   5.917
    5AU     LIG 1895  10.143  15.423   5.723
    5AU       S 1896   8.579  16.940   6.238
    5AU     LIG 1897   8.786  16.631   6.023
    5AU     LIG 1898   8.839  16.503   5.581
    5AU     LIG 1899   8.785  16.579   5.134
    5AU     LIG 1900   8.826  16.479   4.689
    5AU    AUSL 1901   8.283  17.238   6.670
    5AU    AUSL 1902   8.063  16.847   6.758
    5AU     AUL 1903   8.174  16.880   6.435
    5AU       S 1904   7.730  16.874   6.299
    5AU     LIG 1905   7.862  16.724   5.911
    5AU     LIG 1906   7.657  16.514   5.562
    5AU     LIG 1907   7.445  16.542   5.150
    5AU     LIG 1908   7.139  16.400   4.812
    5AU       S 1909   8.332  17.305   6.348
    5AU     LIG 1910   8.230  17.095   5.899
    5AU     LIG 1911   8.583  16.967   5.572
    5AU     LIG 1912   8.773  17.093   5.144
    5AU     LIG 1913   8.719  17.125   4.666
    5AU    AUSL 1914   7.618  17.174   8.243
    5AU    AUSL 1915   7.956  17.511   8.116
    5AU     AUL 1916   7.800  17.458   8.454
    5AU       S 1917   7.607  17.073   8.669
    5AU     LIG 1918   7.394  16.840   8.993
    5AU     LIG 1919   7.167  16.792   9.408
    5AU     LIG 1920   6.965  16.767   9.839
    5AU     LIG 1921   6.594  16.813  10.143
    5AU       S 1922   7.550  17.764   8.187
    5AU     LIG 1923   7.656  17.973   8.552
    5AU     LIG 1924   7.451  18.046   8.945
    5AU     LIG 1925   7.171  18.309   9.196
    5AU     LIG 1926   6.859  18.588   9.405
    5AU    AUSL 1927   7.932  16.883   8.153
    5AU    AUSL 1928   7.512  16.743   8.138
    5AU     AUL 1929   7.419  16.970   8.260
    5AU       S 1930   7.431  16.517   8.397
    5AU     LIG 1931   6.993  16.471   8.216
    5AU     LIG 1932   6.684  16.134   8.213
    5AU     LIG 1933   6.534  15.843   8.548
    5AU     LIG 1934   6.359  15.818   8.974
    5AU       S 1935   7.791  16.825   8.548
    5AU     LIG 1936   7.809  16.537   8.903
    5AU     LIG 1937   7.648  16.537   9.335
    5AU     LIG 1938   7.449  16.546   9.760
    5AU     LIG 1939   7.263  16.379  10.159
    5AU    AUSL 1940   7.631  16.922   6.790
    5AU    AUSL 1941   7.824  16.530   6.927
    5AU     AUL 1942   7.867  16.571   6.621
    5AU       S 1943   7.527  16.796   6.394
    5AU     LIG 1944   7.349  16.760   5.976
    5AU     LIG 1945   7.241  16.827   5.550
    5AU     LIG 1946   6.959  16.718   5.214
    5AU     LIG 1947   6.699  16.741   4.841
    5AU       S 1948   7.463  16.431   6.787
    5AU     LIG 1949   7.508  16.045   6.567
    5AU     LIG 1950   7.176  15.757   6.385
    5AU     LIG 1951   6.807  15.507   6.185
    5AU     LIG 1952   6.416  15.278   5.988
    5AU    AUSL 1953   7.865  17.233   6.576
    5AU    AUSL 1954   7.480  17.323   6.925
    5AU     AUL 1955   7.489  17.179   6.640
    5AU       S 1956   7.252  17.565   6.722
    5AU     LIG 1957   6.934  17.737   6.534
    5AU     LIG 1958   6.878  17.942   6.149
    5AU     LIG 1959   6.750  18.112   5.742
    5AU     LIG 1960   6.445  18.227   5.397
    5AU       S 1961   7.798  17.134   6.290
    5AU     LIG 1962   7.636  17.187   5.880
    5AU     LIG 1963   7.713  17.016   5.462
    5AU     LIG 1964   7.638  17.006   5.000
    5AU     LIG 1965   7.644  17.199   4.564
    5AU    AUSL 1966   8.994  17.544   7.477
    5AU    AUSL 1967   8.937  17.319   7.061
    5AU     AUL 1968   9.273  17.615   7.187
    5AU       S 1969   9.039  17.360   6.913
    5AU     LIG 1970   9.238  17.449   6.516
    5AU     LIG 1971   9.518  17.739   6.288
    5AU     LIG 1972   9.777  18.036   6.041
    5AU     LIG 1973  10.032  18.281   5.726
    5AU       S 1974   9.405  17.617   7.624
    5AU     LIG 1975   9.807  17.615   7.346
    5AU     LIG 1976  10.237  17.771   7.375
    5AU     LIG 1977  10.479  18.149   7.414
    5AU     LIG 1978  10.879  18.311   7.240
    5AU    AUSL 1979   9.155  17.131   7.390
    5AU    AUSL 1980   9.081  16.830   7.739
    5AU     AUL 1981   9.312  17.022   7.824
    5AU       S 1982   9.379  17.226   7.410
    5AU     LIG 1983   9.771  17.095   7.246
    5AU     LIG 1984  10.205  17.255   7.293
    5AU     LIG 1985  10.631  17.425   7.311
    5AU     LIG 1986  11.039  17.387   7.081
    5AU       S 1987   9.372  16.612   7.589
    5AU     LIG 1988   9.757  16.527   7.792
    5AU     LIG 1989  10.034  16.181   7.867
    5AU     LIG 1990  10.453  16.079   7.740
    5AU     LIG 1991  10.849  16.294   7.826
    5AU    AUSL 1992   8.847  17.190   7.705
    5AU    AUSL 1993   8.797  17.646   7.852
    5AU     AUL 1994   9.065  17.425   7.872
    5AU       S 1995   9.000  17.797   8.160
    5AU     LIG 1996   9.291  18.025   8.447
    5AU     LIG 1997   9.641  18.292   8.650
    5AU     LIG 1998   9.857  18.698   8.842
    5AU     LIG 1999   9.928  19.197   8.816
    5AU       S 2000   9.448  17.411   7.615
    5AU     LIG 2001   9.857  17.262   7.722
    5AU     LIG 2002  10.282  17.446   7.770
    5AU     LIG 2003  10.749  17.511   7.815
    5AU     LIG 2004  11.160  17.759   7.877
    5AU    AUSL 2005   7.521  17.621   7.499
    5AU    AUSL 2006   7.599  17.402   7.883
    5AU     AUL 2007   7.302  17.726   7.745
    5AU       S 2008   7.430  17.588   8.166
    5AU     LIG 2009   7.173  17.802   8.520
    5AU     LIG 2010   6.934  17.958   8.893
    5AU     LIG 2011   6.667  18.136   9.231
    5AU     LIG 2012   6.341  18.074   9.582
    5AU       S 2013   7.511  18.008   7.432
    5AU     LIG 2014   7.011  17.966   7.336
    5AU     LIG 2015   6.530  18.185   7.327
    5AU     LIG 2016   6.103  18.497   7.317
    5AU     LIG 2017   5.651  18.749   7.328
    5AU    AUSL 2018   7.482  17.211   7.332
    5AU    AUSL 2019   7.634  17.709   7.091
    5AU     AUL 2020   7.317  17.568   7.191
    5AU       S 2021   7.129  17.028   6.965
    5AU     LIG 2022   6.856  17.443   7.016
    5AU     LIG 2023   6.462  17.716   7.093
    5AU     LIG 2024   5.993  17.863   7.074
    5AU     LIG 2025   5.526  17.975   6.987
    5AU       S 2026   7.477  17.950   6.908
    5AU     LIG 2027   7.286  18.117   6.486
    5AU     LIG 2028   7.054  18.426   6.186
    5AU     LIG 2029   6.813  18.835   6.098
    5AU     LIG 2030   6.603  19.277   6.135
    5AU    AUSL 2031   7.238  17.271   7.701
    5AU    AUSL 2032   7.202  16.894   7.406
    5AU     AUL 2033   7.088  17.217   7.405
    5AU       S 2034   7.015  16.823   7.685
    5AU     LIG 2035   6.653  16.841   7.427
    5AU     LIG 2036   6.254  16.610   7.307
    5AU     LIG 2037   5.813  16.419   7.303
    5AU     LIG 2038   5.514  16.103   7.121
    5AU       S 2039   7.118  17.299   7.918
    5AU     LIG 2040   6.691  17.256   7.750
    5AU     LIG 2041   6.246  17.461   7.797
    5AU     LIG 2042   5.802  17.653   7.921
    5AU     LIG 2043   5.385  17.741   8.161
    5AU    AUSL 2044   8.901  16.455   7.563
    5AU    AUSL 2045   8.692  16.720   7.882
    5AU     AUL 2046   9.040  16.611   7.930
    5AU       S 2047   9.242  16.364   7.572
    5AU     LIG 2048   9.652  16.123   7.494
    5AU     LIG 2049  10.044  15.839   7.465
    5AU     LIG 2050  10.433  15.616   7.346
    5AU     LIG 2051  10.774  15.399   7.549
    5AU       S 2052   8.891  16.200   8.048
    5AU     LIG 2053   9.168  16.035   8.402
    5AU     LIG 2054   9.417  15.797   8.710
    5AU     LIG 2055   9.657  15.616   9.066
    5AU     LIG 2056  10.004  15.708   9.377
    5AU    AUSL 2057   8.851  16.836   7.346
    5AU    AUSL 2058   8.814  16.403   7.137
    5AU     AUL 2059   9.079  16.585   7.192
    5AU       S 2060   9.428  16.732   7.432
    5AU     LIG 2061   9.782  16.561   7.252
    5AU     LIG 2062  10.139  16.332   7.388
    5AU     LIG 2063  10.529  16.136   7.234
    5AU     LIG 2064  10.922  16.371   7.122
    5AU       S 2065   9.009  16.283   6.829
    5AU     LIG 2066   9.098  15.838   6.738
    5AU     LIG 2067   9.290  15.452   6.541
    5AU     LIG 2068   9.609  15.199   6.293
    5AU     LIG 2069   9.770  14.878   5.993
    5AU    AUSL 2070   7.407  16.524   7.567
    5AU    AUSL 2071   7.537  16.756   7.174
    5AU     AUL 2072   7.181  16.601   7.283
    5AU       S 2073   7.335  16.561   6.851
    5AU     LIG 2074   7.028  16.253   6.608
    5AU     LIG 2075   6.693  15.948   6.451
    5AU     LIG 2076   6.325  15.714   6.249
    5AU     LIG 2077   5.993  15.616   5.913
    5AU       S 2078   6.990  16.579   7.720
    5AU     LIG 2079   6.586  16.368   7.656
    5AU     LIG 2080   6.157  16.168   7.589
    5AU     LIG 2081   5.730  15.969   7.592
    5AU     LIG 2082   5.540  15.590   7.815
    5AU    AUSL 2083   7.487  16.921   7.749
    5AU    AUSL 2084   7.748  16.537   7.833
    5AU     AUL 2085   7.407  16.495   7.901
    5AU       S 2086   7.454  16.303   8.320
    5AU     LIG 2087   7.175  15.962   8.166
    5AU     LIG 2088   6.825  15.613   8.196
    5AU     LIG 2089   6.504  15.313   8.425
    5AU     LIG 2090   6.493  14.992   8.774
    5AU       S 2091   7.087  16.829   7.868
    5AU     LIG 2092   6.600  16.784   7.965
    5AU     LIG 2093   6.166  16.644   7.814
    5AU     LIG 2094   5.734  16.423   7.822
    5AU     LIG 2095   5.368  16.116   7.949
    5AU    AUSL 2096   8.218  17.837   7.995
    5AU    AUSL 2097   7.805  17.777   7.796
    5AU     AUL 2098   8.004  17.845   8.205
    5AU       S 2099   7.672  17.978   7.905
    5AU     LIG 2100   7.347  18.209   8.192
    5AU     LIG 2101   7.168  18.325   8.614
    5AU     LIG 2102   6.888  18.597   8.877
    5AU     LIG 2103   6.759  19.047   8.950
    5AU       S 2104   8.303  18.177   7.977
    5AU     LIG 2105   8.477  18.364   8.325
    5AU     LIG 2106   8.416  18.783   8.507
    5AU     LIG 2107   8.336  19.194   8.699
    5AU     LIG 2108   8.203  19.344   9.134
    5AU    AUSL 2109   8.088  18.020   7.586
    5AU    AUSL 2110   8.386  17.945   7.237
    5AU     AUL 2111   8.332  18.304   7.394
    5AU       S 2112   8.113  18.247   7.799
    5AU     LIG 2113   8.187  18.680   8.027
    5AU     LIG 2114   8.165  19.138   8.195
    5AU     LIG 2115   7.995  19.598   8.218
    5AU     LIG 2116   7.688  19.976   8.111
    5AU       S 2117   8.107  18.132   7.042
    5AU     LIG 2118   8.543  18.366   6.962
    5AU     LIG 2119   8.619  18.823   6.852
    5AU     LIG 2120   8.745  19.301   6.878
    5AU     LIG 2121   9.022  19.714   6.981
    5AU    AUSL 2122   8.447  17.753   7.628
    5AU    AUSL 2123   8.434  17.467   8.011
    5AU     AUL 2124   8.538  17.789   8.076
    5AU       S 2125   8.808  17.652   8.414
    5AU     LIG 2126   9.075  17.693   8.782
    5AU     LIG 2127   9.331  18.017   8.977
    5AU     LIG 2128   9.540  18.388   9.151
    5AU     LIG 2129   9.665  18.558   9.560
    5AU       S 2130   8.552  18.072   7.719
    5AU     LIG 2131   8.655  18.516   7.854
    5AU     LIG 2132   8.645  18.938   8.079
    5AU     LIG 2133   8.628  19.379   8.275
    5AU     LIG 2134   8.775  19.845   8.287
    5AU    AUSL 2135   8.122  16.316   7.931
    5AU    AUSL 2136   8.540  16.323   7.768
    5AU     AUL 2137   8.340  16.185   8.144
    5AU       S 2138   8.082  15.841   7.972
    5AU     LIG 2139   8.026  15.686   8.355
    5AU     LIG 2140   7.961  15.241   8.440
    5AU     LIG 2141   7.942  14.778   8.492
    5AU     LIG 2142   7.855  14.333   8.576
    5AU       S 2143   8.710  16.118   7.853
    5AU     LIG 2144   8.892  15.706   8.110
    5AU     LIG 2145   9.212  15.440   8.391
    5AU     LIG 2146   9.461  15.066   8.611
    5AU     LIG 2147   9.686  14.607   8.586
    5AU    AUSL 2148   7.797  16.156   7.650
    5AU    AUSL 2149   7.904  16.477   8.262
    5AU     AUL 2150   7.786  16.202   8.013
    5AU       S 2151   7.890  15.783   7.823
    5AU     LIG 2152   7.675  15.459   8.056
    5AU     LIG 2153   7.622  14.997   8.128
    5AU     LIG 2154   7.664  14.524   8.126
    5AU     LIG 2155   7.432  14.149   8.289
    5AU       S 2156   7.709  16.352   8.456
    5AU     LIG 2157   7.543  15.875   8.532
    5AU     LIG 2158   7.084  15.724   8.631
    5AU     LIG 2159   6.739  15.478   8.860
    5AU     LIG 2160   6.490  15.277   9.208
    5AU    AUSL 2161   8.239  16.070   7.589
    5AU    AUSL 2162   8.002  16.345   7.311
    5AU     AUL 2163   7.911  15.990   7.407
    5AU       S 2164   8.252  15.910   7.122
    5AU     LIG 2165   7.847  15.655   7.055
    5AU     LIG 2166   7.731  15.226   6.930
    5AU     LIG 2167   7.720  14.756   6.850
    5AU     LIG 2168   7.751  14.282   6.766
    5AU       S 2169   8.244  15.852   7.745
    5AU     LIG 2170   8.171  15.358   7.872
    5AU     LIG 2171   8.112  14.890   8.021
    5AU     LIG 2172   8.171  14.395   8.092
    5AU     LIG 2173   8.526  14.067   7.977
    5AU    AUSL 2174   8.204  17.702   6.896
    5AU    AUSL 2175   8.636  17.597   7.238
    5AU     AUL 2176   8.487  17.863   6.891
    5AU       S 2177   8.107  18.142   6.815
    5AU     LIG 2178   8.259  18.514   6.574
    5AU     LIG 2179   8.405  18.897   6.370
    5AU     LIG 2180   8.297  19.158   5.999
    5AU     LIG 2181   8.206  19.508   5.705
    5AU       S 2182   8.876  17.811   7.108
    5AU     LIG 2183   9.294  18.058   6.882
    5AU     LIG 2184   9.532  18.232   6.475
    5AU     LIG 2185   9.886  18.505   6.241
    5AU     LIG 2186  10.296  18.802   6.290
    5AU    AUSL 2187   8.006  17.712   7.298
    5AU    AUSL 2188   7.916  17.394   6.964
    5AU     AUL 2189   7.894  17.733   6.851
    5AU       S 2190   7.920  18.106   7.150
    5AU     LIG 2191   8.078  18.616   7.050
    5AU     LIG 2192   8.140  19.031   6.804
    5AU     LIG 2193   7.992  19.478   6.676
    5AU     LIG 2194   7.853  19.915   6.791
    5AU       S 2195   7.523  17.663   6.605
    5AU     LIG 2196   7.361  17.708   6.183
    5AU     LIG 2197   7.298  18.076   5.888
    5AU     LIG 2198   7.132  18.443   5.637
    5AU     LIG 2199   7.099  18.703   5.237
    5AU    AUSL 2200   8.204  16.323   6.907
    5AU    AUSL 2201   7.584  16.311   7.232
    5AU     AUL 2202   7.856  16.178   6.969
    5AU       S 2203   7.386  16.269   7.014
    5AU     LIG 2204   7.161  15.851   6.903
    5AU     LIG 2205   6.835  15.526   6.715
    5AU     LIG 2206   6.470  15.275   6.506
    5AU     LIG 2207   6.262  14.880   6.285
    5AU       S 2208   8.256  15.916   6.903
    5AU     LIG 2209   8.196  15.459   6.740
    5AU     LIG 2210   8.036  15.036   6.545
    5AU     LIG 2211   7.932  14.585   6.383
    5AU     LIG 2212   7.914  14.098   6.292
    5AU    AUSL 2213   8.434  16.318   7.300
    5AU    AUSL 2214   8.487  16.645   6.963
    5AU     AUL 2215   8.551  16.275   6.920
    5AU       S 2216   8.483  15.923   7.218
    5AU     LIG 2217   8.294  15.445   7.262
    5AU     LIG 2218   8.194  15.020   7.040
    5AU     LIG 2219   8.204  14.587   6.822
    5AU     LIG 2220   8.242  14.124   6.699
    5AU       S 2221   8.796  16.469   6.590
    5AU     LIG 2222   8.697  16.046   6.480
    5AU     LIG 2223   8.941  15.720   6.252
    5AU     LIG 2224   9.209  15.407   6.021
    5AU     LIG 2225   9.390  15.098   5.726
    6AU     AUC 2226  31.224   4.078   7.502
    6AU     AUC 2227  31.492   4.089   7.329
    6AU     AUC 2228  31.476   4.067   7.673
    6AU     AUC 2229  30.948   4.082   7.339
    6AU     AUC 2230  30.973   4.121   7.687
    6AU     AUC 2231  31.063   4.361   7.503
    6AU     AUC 2232  31.416   4.343   7.493
    6AU     AUC 2233  31.036   3.821   7.510
    6AU     AUC 2234  31.389   3.793   7.505
    6AU     AUC 2235  31.226   3.909   7.777
    6AU     AUC 2236  31.223   4.245   7.770
    6AU     AUC 2237  31.212   3.911   7.236
    6AU     AUC 2238  31.245   4.230   7.228
    6AU     AUC 2239  31.811   4.082   7.170
    6AU     AUC 2240  31.829   4.061   7.511
    6AU     AUC 2241  31.773   4.048   7.873
    6AU     AUC 2242  30.634   4.078   7.170
    6AU     AUC 2243  30.619   4.130   7.528
    6AU     AUC 2244  30.667   4.157   7.873
    6AU     AUC 2245  30.911   4.686   7.484
    6AU     AUC 2246  31.264   4.689   7.472
    6AU     AUC 2247  31.630   4.626   7.483
    6AU     AUC 2248  30.826   3.537   7.521
    6AU     AUC 2249  31.189   3.482   7.486
    6AU     AUC 2250  31.564   3.493   7.490
    6AU     AUC 2251  31.199   3.730   8.072
    6AU     AUC 2252  31.240   4.094   8.124
    6AU     AUC 2253  31.259   4.423   8.068
    6AU     AUC 2254  31.233   3.727   6.957
    6AU     AUC 2255  31.202   4.059   6.891
    6AU     AUC 2256  31.223   4.396   6.907
    6AU     AUC 2257  31.490   3.868   8.014
    6AU     AUC 2258  31.543   4.217   8.012
    6AU     AUC 2259  31.539   3.911   7.012
    6AU     AUC 2260  31.523   4.258   7.008
    6AU     AUC 2261  30.913   3.956   8.014
    6AU     AUC 2262  30.955   4.325   7.989
    6AU     AUC 2263  30.907   3.883   7.049
    6AU     AUC 2264  30.889   4.218   7.005
    6AU     AUC 2265  31.754   4.360   7.294
    6AU     AUC 2266  31.728   4.352   7.662
    6AU     AUC 2267  30.749   4.394   7.331
    6AU     AUC 2268  30.770   4.450   7.686
    6AU     AUC 2269  31.716   3.777   7.351
    6AU     AUC 2270  31.671   3.737   7.695
    6AU     AUC 2271  30.704   3.776   7.358
    6AU     AUC 2272  30.754   3.836   7.707
    6AU     AUC 2273  31.093   4.622   7.776
    6AU     AUC 2274  31.440   4.540   7.759
    6AU     AUC 2275  31.011   3.618   7.793
    6AU     AUC 2276  31.351   3.563   7.777
    6AU     AUC 2277  31.064   4.522   7.202
    6AU     AUC 2278  31.430   4.548   7.168
    6AU     AUC 2279  31.027   3.605   7.215
    6AU     AUC 2280  31.427   3.627   7.215
    6AU    AUSL 2281  31.768   3.932   8.277
    6AU    AUSL 2282  31.516   3.545   8.180
    6AU     AUL 2283  31.703   3.520   8.513
    6AU       S 2284  31.864   3.303   8.142
    6AU     LIG 2285  31.732   3.016   8.447
    6AU     LIG 2286  31.961   2.779   8.755
    6AU     LIG 2287  32.232   2.448   8.930
    6AU     LIG 2288  32.490   2.261   9.274
    6AU       S 2289  31.933   3.860   8.330
    6AU     LIG 2290  31.918   3.846   8.826
    6AU     LIG 2291  32.182   3.747   9.234
    6AU     LIG 2292  32.446   3.630   9.632
    6AU     LIG 2293  32.808   3.674   9.947
    6AU    AUSL 2294  31.343   3.883   8.406
    6AU    AUSL 2295  31.090   4.261   8.425
    6AU     AUL 2296  31.286   4.204   8.765
    6AU       S 2297  31.383   3.833   8.528
    6AU     LIG 2298  31.386   3.706   8.927
    6AU     LIG 2299  31.691   3.578   9.243
    6AU     LIG 2300  31.950   3.460   9.614
    6AU     LIG 2301  32.073   3.373  10.052
    6AU       S 2302  30.892   4.014   8.634
    6AU     LIG 2303  30.966   3.963   9.097
    6AU     LIG 2304  30.699   4.024   9.467
    6AU     LIG 2305  30.418   4.107   9.835
    6AU     LIG 2306  30.296   4.350  10.229
    6AU    AUSL 2307  31.514   4.302   8.369
    6AU    AUSL 2308  31.894   4.319   8.112
    6AU     AUL 2309  31.773   4.231   8.526
    6AU       S 2310  31.415   4.606   8.493
    6AU     LIG 2311  31.657   4.565   8.879
    6AU     LIG 2312  31.850   4.681   9.293
    6AU     LIG 2313  31.815   4.717   9.774
    6AU     LIG 2314  31.887   4.744  10.246
    6AU       S 2315  31.999   4.563   8.291
    6AU     LIG 2316  32.424   4.553   8.384
    6AU     LIG 2317  32.692   4.784   8.686
    6AU     LIG 2318  32.913   5.051   9.006
    6AU     LIG 2319  33.103   5.390   9.270
    6AU    AUSL 2320  31.657   4.122   6.864
    6AU    AUSL 2321  31.595   4.559   6.814
    6AU     AUL 2322  31.743   4.451   6.561
    6AU       S 2323  31.630   4.138   6.255
    6AU     LIG 2324  32.069   4.071   6.140
    6AU     LIG 2325  32.271   3.817   5.820
    6AU     LIG 2326  32.348   3.717   5.385
    6AU     LIG 2327  32.532   3.679   4.973
    6AU       S 2328  31.968   4.771   6.813
    6AU     LIG 2329  32.133   4.970   6.417
    6AU     LIG 2330  32.355   5.184   6.044
    6AU     LIG 2331  32.612   5.443   5.730
    6AU     LIG 2332  32.551   5.768   5.374
    6AU    AUSL 2333  31.483   3.835   6.575
    6AU    AUSL 2334  31.966   3.828   6.923
    6AU     AUL 2335  31.861   3.991   6.640
    6AU       S 2336  32.084   3.578   6.697
    6AU     LIG 2337  32.265   3.358   6.337
    6AU     LIG 2338  32.518   2.992   6.237
    6AU     LIG 2339  32.733   2.649   6.037
    6AU     LIG 2340  32.763   2.315   5.718
    6AU       S 2341  31.620   3.887   6.242
    6AU     LIG 2342  31.874   3.574   6.048
    6AU     LIG 2343  31.968   3.437   5.599
    6AU     LIG 2344  32.007   3.441   5.113
    6AU     LIG 2345  32.141   3.567   4.670
    6AU    AUSL 2346  31.312   4.266   6.643
    6AU    AUSL 2347  31.096   3.876   6.766
    6AU     AUL 2348  31.206   3.918   6.436
    6AU       S 2349  30.769   3.903   6.295
    6AU     LIG 2350  30.858   3.718   5.899
    6AU     LIG 2351  30.591   3.494   5.584
    6AU     LIG 2352  30.381   3.462   5.165
    6AU     LIG 2353  30.446   3.545   4.711
    6AU       S 2354  31.413   4.286   6.256
    6AU     LIG 2355  31.511   4.099   5.784
    6AU     LIG 2356  31.865   3.939   5.493
    6AU     LIG 2357  32.030   3.952   5.036
    6AU     LIG 2358  31.956   4.055   4.570
    6AU    AUSL 2359  30.685   4.228   8.255
    6AU    AUSL 2360  31.018   4.555   8.120
    6AU     AUL 2361  30.879   4.508   8.460
    6AU       S 2362  30.700   4.144   8.707
    6AU     LIG 2363  30.471   3.873   8.975
    6AU     LIG 2364  30.244   3.802   9.373
    6AU     LIG 2365  30.040   3.761   9.781
    6AU     LIG 2366  29.710   3.854  10.083
    6AU       S 2367  30.617   4.807   8.198
    6AU     LIG 2368  30.735   5.010   8.563
    6AU     LIG 2369  30.513   5.140   8.928
    6AU     LIG 2370  30.216   5.399   9.159
    6AU     LIG 2371  29.965   5.703   9.400
    6AU    AUSL 2372  30.987   3.918   8.164
    6AU    AUSL 2373  30.546   3.829   8.108
    6AU     AUL 2374  30.519   3.981   8.316
    6AU       S 2375  30.400   3.507   8.272
    6AU     LIG 2376  30.025   3.226   8.223
    6AU     LIG 2377  29.714   2.983   8.421
    6AU     LIG 2378  29.572   2.808   8.814
    6AU     LIG 2379  29.330   2.609   9.152
    6AU       S 2380  30.889   3.849   8.569
    6AU     LIG 2381  30.843   3.527   8.853
    6AU     LIG 2382  30.699   3.528   9.298
    6AU     LIG 2383  30.549   3.596   9.739
    6AU     LIG 2384  30.333   3.523  10.145
    6AU    AUSL 2385  30.657   3.926   6.779
    6AU    AUSL 2386  30.865   3.555   6.941
    6AU     AUL 2387  30.906   3.595   6.623
    6AU       S 2388  30.588   3.822   6.362
    6AU     LIG 2389  30.364   3.845   5.944
    6AU     LIG 2390  30.163   3.784   5.519
    6AU     LIG 2391  29.921   3.758   5.130
    6AU     LIG 2392  29.463   3.745   4.997
    6AU       S 2393  30.513   3.448   6.817
    6AU     LIG 2394  30.588   3.136   6.544
    6AU     LIG 2395  30.295   2.820   6.376
    6AU     LIG 2396  30.002   2.629   6.066
    6AU     LIG 2397  29.774   2.591   5.654
    6AU    AUSL 2398  30.885   4.250   6.594
    6AU    AUSL 2399  30.553   4.342   6.915
    6AU     AUL 2400  30.456   4.134   6.670
    6AU       S 2401  30.529   4.581   6.680
    6AU     LIG 2402  30.135   4.635   6.563
    6AU     LIG 2403  29.961   4.855   6.199
    6AU     LIG 2404  29.762   5.134   5.876
    6AU     LIG 2405  29.472   5.243   5.519
    6AU       S 2406  30.809   4.187   6.352
    6AU     LIG 2407  30.716   4.230   5.906
    6AU     LIG 2408  30.628   4.004   5.503
    6AU     LIG 2409  30.433   3.970   5.070
    6AU     LIG 2410  30.458   4.216   4.659
    6AU    AUSL 2411  32.043   4.587   7.460
    6AU    AUSL 2412  31.969   4.358   7.044
    6AU     AUL 2413  32.317   4.643   7.158
    6AU       S 2414  32.054   4.414   6.886
    6AU     LIG 2415  32.408   4.581   6.654
    6AU     LIG 2416  32.619   4.812   6.317
    6AU     LIG 2417  32.866   5.120   6.075
    6AU     LIG 2418  33.105   5.223   5.692
    6AU       S 2419  32.452   4.663   7.594
    6AU     LIG 2420  32.900   4.727   7.423
    6AU     LIG 2421  33.350   4.856   7.515
    6AU     LIG 2422  33.761   5.085   7.497
    6AU     LIG 2423  33.912   5.526   7.383
    6AU    AUSL 2424  32.199   4.173   7.368
    6AU    AUSL 2425  32.136   3.877   7.725
    6AU     AUL 2426  32.372   4.067   7.801
    6AU       S 2427  32.419   4.256   7.382
    6AU     LIG 2428  32.853   4.220   7.274
    6AU     LIG 2429  33.291   4.403   7.265
    6AU     LIG 2430  33.729   4.612   7.254
    6AU     LIG 2431  34.023   4.944   7.070
    6AU       S 2432  32.409   3.647   7.582
    6AU     LIG 2433  32.701   3.516   7.867
    6AU     LIG 2434  33.043   3.202   7.809
    6AU     LIG 2435  33.467   2.995   7.764
    6AU     LIG 2436  33.870   2.938   7.986
    6AU    AUSL 2437  31.900   4.236   7.693
    6AU    AUSL 2438  31.856   4.689   7.840
    6AU     AUL 2439  32.125   4.467   7.854
    6AU       S 2440  32.066   4.841   8.141
    6AU     LIG 2441  32.326   5.070   8.447
    6AU     LIG 2442  32.666   5.331   8.653
    6AU     LIG 2443  32.931   5.671   8.860
    6AU     LIG 2444  33.141   6.119   8.854
    6AU       S 2445  32.499   4.455   7.583
    6AU     LIG 2446  32.889   4.345   7.773
    6AU     LIG 2447  33.354   4.413   7.775
    6AU     LIG 2448  33.775   4.627   7.773
    6AU     LIG 2449  34.189   4.661   8.003
    6AU    AUSL 2450  30.558   4.692   7.519
    6AU    AUSL 2451  30.657   4.448   7.888
    6AU     AUL 2452  30.354   4.779   7.774
    6AU       S 2453  30.494   4.637   8.185
    6AU     LIG 2454  30.281   4.774   8.579
    6AU     LIG 2455  30.015   4.997   8.881
    6AU     LIG 2456  29.734   5.209   9.181
    6AU     LIG 2457  29.318   5.171   9.394
    6AU       S 2458  30.568   5.048   7.441
    6AU     LIG 2459  30.087   4.928   7.385
    6AU     LIG 2460  29.628   4.926   7.498
    6AU     LIG 2461  29.237   5.209   7.536
    6AU     LIG 2462  28.832   5.463   7.431
    6AU    AUSL 2463  30.528   4.294   7.335
    6AU    AUSL 2464  30.677   4.735   7.106
    6AU     AUL 2465  30.373   4.607   7.154
    6AU       S 2466  30.110   4.213   6.999
    6AU     LIG 2467  29.732   4.430   7.175
    6AU     LIG 2468  29.376   4.621   6.927
    6AU     LIG 2469  28.929   4.495   6.838
    6AU     LIG 2470  28.553   4.740   6.674
    6AU       S 2471  30.491   5.001   6.896
    6AU     LIG 2472  30.369   5.090   6.453
    6AU     LIG 2473  30.087   5.365   6.202
    6AU     LIG 2474  29.723   5.641   6.101
    6AU     LIG 2475  29.683   6.091   6.175
    6AU    AUSL 2476  30.283   4.328   7.725
    6AU    AUSL 2477  30.247   3.976   7.376
    6AU     AUL 2478  30.149   4.325   7.452
    6AU       S 2479  29.967   3.902   7.574
    6AU     LIG 2480  29.695   3.870   7.182
    6AU     LIG 2481  29.231   3.668   7.123
    6AU     LIG 2482  28.746   3.494   7.239
    6AU     LIG 2483  28.276   3.461   7.136
    6AU       S 2484  30.194   4.298   7.970
    6AU     LIG 2485  29.778   4.502   7.793
    6AU     LIG 2486  29.340   4.729   7.908
    6AU     LIG 2487  28.930   4.887   8.114
    6AU     LIG 2488  28.462   4.916   8.000
    6AU    AUSL 2489  31.949   3.505   7.558
    6AU    AUSL 2490  31.750   3.775   7.881
    6AU     AUL 2491  32.090   3.665   7.935
    6AU       S 2492  32.244   3.408   7.564
    6AU     LIG 2493  32.519   3.085   7.658
    6AU     LIG 2494  32.869   2.886   7.443
    6AU     LIG 2495  33.246   2.641   7.440
    6AU     LIG 2496  33.561   2.310   7.311
    6AU       S 2497  31.978   3.230   7.988
    6AU     LIG 2498  32.239   3.017   8.318
    6AU     LIG 2499  32.475   2.807   8.650
    6AU     LIG 2500  32.716   2.654   9.014
    6AU     LIG 2501  33.028   2.677   9.367
    6AU    AUSL 2502  31.891   3.882   7.339
    6AU    AUSL 2503  31.853   3.448   7.135
    6AU     AUL 2504  32.119   3.640   7.178
    6AU       S 2505  32.478   3.756   7.421
    6AU     LIG 2506  32.826   3.409   7.372
    6AU     LIG 2507  33.279   3.202   7.324
    6AU     LIG 2508  33.751   3.267   7.195
    6AU     LIG 2509  34.089   2.976   7.037
    6AU       S 2510  32.050   3.326   6.817
    6AU     LIG 2511  32.202   2.910   6.642
    6AU     LIG 2512  32.410   2.514   6.433
    6AU     LIG 2513  32.687   2.166   6.225
    6AU     LIG 2514  33.088   1.867   6.226
    6AU    AUSL 2515  30.408   3.597   7.564
    6AU    AUSL 2516  30.595   3.809   7.185
    6AU     AUL 2517  30.233   3.698   7.240
    6AU       S 2518  30.382   3.548   6.837
    6AU     LIG 2519  30.083   3.202   6.684
    6AU     LIG 2520  29.782   2.958   6.412
    6AU     LIG 2521  29.498   2.740   6.097
    6AU     LIG 2522  29.271   2.727   5.673
    6AU       S 2523  29.964   3.635   7.631
    6AU     LIG 2524  29.504   3.619   7.579
    6AU     LIG 2525  29.137   3.368   7.544
    6AU     LIG 2526  28.888   2.982   7.434
    6AU     LIG 2527  28.538   2.635   7.457
    6AU    AUSL 2528  30.545   3.996   7.712
    6AU    AUSL 2529  30.757   3.587   7.817
    6AU     AUL 2530  30.343   3.753   7.874
    6AU       S 2531  30.463   3.344   8.037
    6AU     LIG 2532  30.460   2.916   7.999
    6AU     LIG 2533  30.118   2.689   8.209
    6AU     LIG 2534  29.782   2.473   8.461
    6AU     LIG 2535  29.541   2.283   8.806
    6AU       S 2536  29.954   3.946   7.743
    6AU     LIG 2537  29.586   3.892   8.007
    6AU     LIG 2538  29.150   3.718   7.951
    6AU     LIG 2539  28.727   3.581   7.765
    6AU     LIG 2540  28.285   3.621   7.659
    6AU    AUSL 2541  31.284   4.879   8.000
    6AU    AUSL 2542  30.867   4.822   7.802
    6AU     AUL 2543  31.070   4.894   8.206
    6AU       S 2544  30.728   5.029   7.919
    6AU     LIG 2545  30.392   5.237   8.233
    6AU     LIG 2546  30.185   5.412   8.625
    6AU     LIG 2547  29.924   5.726   8.881
    6AU     LIG 2548  29.690   6.063   9.129
    6AU       S 2549  31.378   5.219   7.982
    6AU     LIG 2550  31.571   5.423   8.311
    6AU     LIG 2551  31.492   5.783   8.576
    6AU     LIG 2552  31.469   6.223   8.706
    6AU     LIG 2553  31.350   6.579   8.982
    6AU    AUSL 2554  31.148   5.072   7.597
    6AU    AUSL 2555  31.439   4.998   7.242
    6AU     AUL 2556  31.404   5.354   7.407
    6AU       S 2557  31.170   5.281   7.800
    6AU     LIG 2558  31.247   5.707   8.007
    6AU     LIG 2559  31.230   6.099   8.257
    6AU     LIG 2560  31.176   6.539   8.408
    6AU     LIG 2561  30.905   6.907   8.322
    6AU       S 2562  31.181   5.232   7.034
    6AU     LIG 2563  31.582   5.488   6.968
    6AU     LIG 2564  31.650   5.960   6.903
    6AU     LIG 2565  31.655   6.419   6.724
    6AU     LIG 2566  31.670   6.918   6.703
    6AU    AUSL 2567  31.500   4.795   7.627
    6AU    AUSL 2568  31.495   4.506   8.005
    6AU     AUL 2569  31.601   4.824   8.076
    6AU       S 2570  31.881   4.698   8.408
    6AU     LIG 2571  32.138   4.731   8.784
    6AU     LIG 2572  32.378   5.062   8.990
    6AU     LIG 2573  32.591   5.418   9.198
    6AU     LIG 2574  32.664   5.590   9.636
    6AU       S 2575  31.616   5.108   7.722
    6AU     LIG 2576  31.717   5.559   7.827
    6AU     LIG 2577  31.707   5.933   8.128
    6AU     LIG 2578  31.656   6.405   8.248
    6AU     LIG 2579  31.535   6.887   8.223
    6AU    AUSL 2580  31.173   3.431   7.934
    6AU    AUSL 2581  31.594   3.381   7.773
    6AU     AUL 2582  31.394   3.251   8.145
    6AU       S 2583  31.179   2.869   8.000
    6AU     LIG 2584  30.998   2.727   8.362
    6AU     LIG 2585  30.962   2.278   8.456
    6AU     LIG 2586  31.025   1.818   8.472
    6AU     LIG 2587  31.219   1.436   8.638
    6AU       S 2588  31.754   3.169   7.842
    6AU     LIG 2589  31.873   2.744   8.040
    6AU     LIG 2590  32.144   2.502   8.362
    6AU     LIG 2591  32.304   2.096   8.553
    6AU     LIG 2592  32.615   1.766   8.638
    6AU    AUSL 2593  30.851   3.198   7.680
    6AU    AUSL 2594  30.887   3.515   8.245
    6AU     AUL 2595  30.903   3.241   8.033
    6AU       S 2596  30.957   2.815   7.846
    6AU     LIG 2597  30.761   2.450   7.998
    6AU     LIG 2598  30.727   1.996   8.081
    6AU     LIG 2599  30.764   1.525   8.107
    6AU     LIG 2600  30.498   1.116   8.054
    6AU       S 2601  30.636   3.436   8.376
    6AU     LIG 2602  30.432   3.033   8.494
    6AU     LIG 2603  30.097   2.791   8.722
    6AU     LIG 2604  29.922   2.528   9.079
    6AU     LIG 2605  29.989   2.422   9.545
    6AU    AUSL 2606  31.284   3.129   7.623
    6AU    AUSL 2607  31.048   3.379   7.327
    6AU     AUL 2608  30.947   3.034   7.438
    6AU       S 2609  31.291   2.946   7.159
    6AU     LIG 2610  30.893   2.691   7.097
    6AU     LIG 2611  30.837   2.249   7.053
    6AU     LIG 2612  30.837   1.796   6.921
    6AU     LIG 2613  30.560   1.441   6.752
    6AU       S 2614  31.300   2.923   7.757
    6AU     LIG 2615  31.268   2.425   7.782
    6AU     LIG 2616  31.246   2.033   8.053
    6AU     LIG 2617  31.448   1.612   8.198
    6AU     LIG 2618  31.786   1.249   8.187
    6AU    AUSL 2619  31.237   4.789   6.894
    6AU    AUSL 2620  31.680   4.644   7.229
    6AU     AUL 2621  31.528   4.917   6.895
    6AU       S 2622  31.165   5.214   6.804
    6AU     LIG 2623  31.356   5.498   6.515
    6AU     LIG 2624  31.492   5.922   6.419
    6AU     LIG 2625  31.402   6.349   6.270
    6AU     LIG 2626  31.406   6.601   5.864
    6AU       S 2627  31.923   4.850   7.089
    6AU     LIG 2628  32.350   5.074   6.875
    6AU     LIG 2629  32.588   5.297   6.499
    6AU     LIG 2630  32.883   5.619   6.251
    6AU     LIG 2631  33.183   6.036   6.253
    6AU    AUSL 2632  31.054   4.773   7.305
    6AU    AUSL 2633  30.980   4.457   6.953
    6AU     AUL 2634  30.926   4.834   6.912
    6AU       S 2635  30.980   5.215   7.170
    6AU     LIG 2636  31.114   5.713   6.951
    6AU     LIG 2637  31.193   6.174   6.757
    6AU     LIG 2638  31.183   6.663   6.651
    6AU     LIG 2639  30.922   7.098   6.640
    6AU       S 2640  30.669   4.680   6.579
    6AU     LIG 2641  30.494   4.674   6.164
    6AU     LIG 2642  30.342   5.029   5.898
    6AU     LIG 2643  30.160   5.404   5.677
    6AU     LIG 2644  30.223   5.736   5.348
    6AU    AUSL 2645  31.247   3.351   6.922
    6AU    AUSL 2646  30.626   3.364   7.267
    6AU     AUL 2647  30.897   3.208   6.995
    6AU       S 2648  30.440   3.311   7.072
    6AU     LIG 2649  30.401   2.888   6.951
    6AU     LIG 2650  30.021   2.675   6.783
    6AU     LIG 2651  29.745   2.439   6.488
    6AU     LIG 2652  29.522   2.017   6.486
    6AU       S 2653  31.301   2.953   6.948
    6AU     LIG 2654  31.239   2.527   6.761
    6AU     LIG 2655  31.037   2.147   6.584
    6AU     LIG 2656  31.057   1.700   6.460
    6AU     LIG 2657  31.219   1.380   6.155
    6AU    AUSL 2658  31.481   3.353   7.312
    6AU    AUSL 2659  31.518   3.683   6.970
    6AU     AUL 2660  31.594   3.312   6.927
    6AU       S 2661  31.525   2.976   7.250
    6AU     LIG 2662  31.363   2.475   7.259
    6AU     LIG 2663  31.311   2.045   7.017
    6AU     LIG 2664  31.344   1.572   6.885
    6AU     LIG 2665  31.583   1.134   6.838
    6AU       S 2666  31.830   3.509   6.591
    6AU     LIG 2667  31.811   3.121   6.372
    6AU     LIG 2668  32.055   2.778   6.154
    6AU     LIG 2669  32.279   2.420   5.930
    6AU     LIG 2670  32.292   2.153   5.535
    7AU     AUC 2671  20.834  34.519   7.514
    7AU     AUC 2672  21.106  34.525   7.336
    7AU     AUC 2673  21.084  34.506   7.682
    7AU     AUC 2674  20.560  34.520   7.356
    7AU     AUC 2675  20.576  34.560   7.701
    7AU     AUC 2676  20.673  34.797   7.517
    7AU     AUC 2677  21.026  34.782   7.502
    7AU     AUC 2678  20.647  34.265   7.525
    7AU     AUC 2679  20.998  34.234   7.514
    7AU     AUC 2680  20.838  34.346   7.788
    7AU     AUC 2681  20.835  34.689   7.780
    7AU     AUC 2682  20.822  34.354   7.245
    7AU     AUC 2683  20.860  34.670   7.238
    7AU     AUC 2684  21.426  34.515   7.177
    7AU     AUC 2685  21.440  34.498   7.521
    7AU     AUC 2686  21.378  34.484   7.881
    7AU     AUC 2687  20.240  34.521   7.199
    7AU     AUC 2688  20.228  34.559   7.557
    7AU     AUC 2689  20.282  34.598   7.882
    7AU     AUC 2690  20.523  35.129   7.491
    7AU     AUC 2691  20.876  35.125   7.476
    7AU     AUC 2692  21.240  35.062   7.487
    7AU     AUC 2693  20.442  33.983   7.533
    7AU     AUC 2694  20.793  33.925   7.501
    7AU     AUC 2695  21.169  33.929   7.496
    7AU     AUC 2696  20.817  34.169   8.083
    7AU     AUC 2697  20.851  34.539   8.135
    7AU     AUC 2698  20.870  34.870   8.074
    7AU     AUC 2699  20.840  34.177   6.965
    7AU     AUC 2700  20.817  34.505   6.899
    7AU     AUC 2701  20.841  34.826   6.918
    7AU     AUC 2702  21.095  34.308   8.022
    7AU     AUC 2703  21.150  34.658   8.019
    7AU     AUC 2704  21.151  34.350   7.020
    7AU     AUC 2705  21.142  34.690   7.012
    7AU     AUC 2706  20.534  34.409   8.038
    7AU     AUC 2707  20.565  34.778   7.998
    7AU     AUC 2708  20.514  34.335   7.067
    7AU     AUC 2709  20.495  34.669   7.026
    7AU     AUC 2710  21.368  34.793   7.299
    7AU     AUC 2711  21.334  34.791   7.670
    7AU     AUC 2712  20.351  34.834   7.358
    7AU     AUC 2713  20.382  34.889   7.698
    7AU     AUC 2714  21.328  34.214   7.361
    7AU     AUC 2715  21.280  34.174   7.701
    7AU     AUC 2716  20.312  34.221   7.386
    7AU     AUC 2717  20.364  34.281   7.735
    7AU     AUC 2718  20.706  35.067   7.781
    7AU     AUC 2719  21.052  34.982   7.766
    7AU     AUC 2720  20.638  34.055   7.814
    7AU     AUC 2721  20.955  33.994   7.786
    7AU     AUC 2722  20.671  34.961   7.213
    7AU     AUC 2723  21.046  34.976   7.170
    7AU     AUC 2724  20.630  34.054   7.221
    7AU     AUC 2725  21.034  34.070   7.224
    7AU    AUSL 2726  21.365  34.368   8.282
    7AU    AUSL 2727  21.103  33.992   8.179
    7AU     AUL 2728  21.289  33.948   8.508
    7AU       S 2729  21.473  33.745   8.142
    7AU     LIG 2730  21.353  33.445   8.445
    7AU     LIG 2731  21.580  33.168   8.722
    7AU     LIG 2732  21.850  32.884   8.980
    7AU     LIG 2733  22.083  32.769   9.376
    7AU       S 2734  21.523  34.293   8.342
    7AU     LIG 2735  21.486  34.296   8.819
    7AU     LIG 2736  21.694  34.247   9.243
    7AU     LIG 2737  22.042  34.262   9.570
    7AU     LIG 2738  22.433  34.387   9.814
    7AU    AUSL 2739  20.944  34.324   8.426
    7AU    AUSL 2740  20.695  34.714   8.438
    7AU     AUL 2741  20.894  34.651   8.773
    7AU       S 2742  20.977  34.268   8.548
    7AU     LIG 2743  21.010  34.194   8.992
    7AU     LIG 2744  21.241  34.005   9.363
    7AU     LIG 2745  21.352  33.777   9.780
    7AU     LIG 2746  21.548  33.627  10.197
    7AU       S 2747  20.494  34.468   8.642
    7AU     LIG 2748  20.536  34.454   9.114
    7AU     LIG 2749  20.306  34.458   9.525
    7AU     LIG 2750  20.231  34.481   9.987
    7AU     LIG 2751  20.092  34.687  10.385
    7AU    AUSL 2752  21.118  34.739   8.372
    7AU    AUSL 2753  21.499  34.755   8.119
    7AU     AUL 2754  21.385  34.681   8.523
    7AU       S 2755  21.028  35.052   8.498
    7AU     LIG 2756  21.271  35.006   8.883
    7AU     LIG 2757  21.475  35.150   9.285
    7AU     LIG 2758  21.415  35.256   9.756
    7AU     LIG 2759  21.266  35.392  10.196
    7AU       S 2760  21.620  35.017   8.301
    7AU     LIG 2761  22.036  34.967   8.421
    7AU     LIG 2762  22.334  35.204   8.702
    7AU     LIG 2763  22.617  35.501   8.949
    7AU     LIG 2764  23.052  35.602   9.103
    7AU    AUSL 2765  21.277  34.554   6.861
    7AU    AUSL 2766  21.236  34.995   6.810
    7AU     AUL 2767  21.376  34.872   6.558
    7AU       S 2768  21.233  34.564   6.261
    7AU     LIG 2769  21.627  34.566   6.074
    7AU     LIG 2770  21.779  34.370   5.692
    7AU     LIG 2771  21.850  34.235   5.259
    7AU     LIG 2772  22.042  34.201   4.838
    7AU       S 2773  21.581  35.195   6.827
    7AU     LIG 2774  21.662  35.460   6.479
    7AU     LIG 2775  21.891  35.654   6.130
    7AU     LIG 2776  22.203  35.940   5.954
    7AU     LIG 2777  22.310  36.180   5.571
    7AU    AUSL 2778  21.082  34.269   6.581
    7AU    AUSL 2779  21.579  34.256   6.932
    7AU     AUL 2780  21.472  34.409   6.642
    7AU       S 2781  21.696  33.991   6.708
    7AU     LIG 2782  21.831  33.645   6.382
    7AU     LIG 2783  22.106  33.262   6.287
    7AU     LIG 2784  22.408  32.996   6.012
    7AU     LIG 2785  22.880  32.899   5.924
    7AU       S 2786  21.219  34.317   6.252
    7AU     LIG 2787  21.431  34.086   5.952
    7AU     LIG 2788  21.447  33.997   5.498
    7AU     LIG 2789  21.416  34.062   5.028
    7AU     LIG 2790  21.601  34.112   4.593
    7AU    AUSL 2791  20.930  34.715   6.656
    7AU    AUSL 2792  20.702  34.338   6.774
    7AU     AUL 2793  20.803  34.380   6.438
    7AU       S 2794  20.345  34.361   6.329
    7AU     LIG 2795  20.422  34.110   6.002
    7AU     LIG 2796  20.192  34.011   5.629
    7AU     LIG 2797  20.087  34.032   5.175
    7AU     LIG 2798  19.918  34.133   4.749
    7AU       S 2799  21.045  34.724   6.250
    7AU     LIG 2800  21.184  34.537   5.776
    7AU     LIG 2801  21.395  34.490   5.352
    7AU     LIG 2802  21.586  34.539   4.920
    7AU     LIG 2803  21.738  34.765   4.532
    7AU    AUSL 2804  20.291  34.671   8.262
    7AU    AUSL 2805  20.634  35.004   8.126
    7AU     AUL 2806  20.480  34.957   8.466
    7AU       S 2807  20.286  34.581   8.691
    7AU     LIG 2808  20.091  34.237   8.909
    7AU     LIG 2809  19.905  34.190   9.327
    7AU     LIG 2810  19.791  34.342   9.747
    7AU     LIG 2811  19.489  34.275  10.101
    7AU       S 2812  20.217  35.269   8.210
    7AU     LIG 2813  20.186  35.416   8.628
    7AU     LIG 2814  19.970  35.696   8.945
    7AU     LIG 2815  19.777  35.884   9.342
    7AU     LIG 2816  19.703  35.924   9.812
    7AU    AUSL 2817  20.600  34.375   8.171
    7AU    AUSL 2818  20.175  34.242   8.161
    7AU     AUL 2819  20.091  34.472   8.288
    7AU       S 2820  20.073  34.019   8.415
    7AU     LIG 2821  19.645  33.854   8.238
    7AU     LIG 2822  19.536  33.396   8.339
    7AU     LIG 2823  19.344  33.046   8.600
    7AU     LIG 2824  19.172  32.944   9.023
    7AU       S 2825  20.466  34.320   8.565
    7AU     LIG 2826  20.550  34.006   8.882
    7AU     LIG 2827  20.384  33.983   9.311
    7AU     LIG 2828  20.186  34.003   9.743
    7AU     LIG 2829  19.968  34.066  10.160
    7AU    AUSL 2830  20.272  34.417   6.811
    7AU    AUSL 2831  20.466  34.020   6.944
    7AU     AUL 2832  20.509  34.062   6.636
    7AU       S 2833  20.147  34.287   6.436
    7AU     LIG 2834  19.895  34.154   6.083
    7AU     LIG 2835  19.748  34.288   5.644
    7AU     LIG 2836  19.691  34.370   5.174
    7AU     LIG 2837  19.425  34.320   4.774
    7AU       S 2838  20.104  33.935   6.814
    7AU     LIG 2839  20.155  33.610   6.536
    7AU     LIG 2840  19.857  33.294   6.351
    7AU     LIG 2841  19.479  33.051   6.185
    7AU     LIG 2842  19.090  33.015   5.922
    7AU    AUSL 2843  20.506  34.725   6.590
    7AU    AUSL 2844  20.126  34.816   6.951
    7AU     AUL 2845  20.136  34.688   6.660
    7AU       S 2846  19.876  35.060   6.756
    7AU     LIG 2847  19.652  34.992   6.400
    7AU     LIG 2848  19.552  35.158   5.983
    7AU     LIG 2849  19.233  35.307   5.669
    7AU     LIG 2850  18.996  35.651   5.444
    7AU       S 2851  20.403  34.603   6.284
    7AU     LIG 2852  20.156  34.546   5.881
    7AU     LIG 2853  20.161  34.491   5.412
    7AU     LIG 2854  20.122  34.573   4.948
    7AU     LIG 2855  20.147  34.889   4.579
    7AU    AUSL 2856  21.649  35.022   7.465
    7AU    AUSL 2857  21.585  34.784   7.056
    7AU     AUL 2858  21.930  35.074   7.155
    7AU       S 2859  21.686  34.826   6.883
    7AU     LIG 2860  22.009  35.079   6.597
    7AU     LIG 2861  22.272  35.334   6.262
    7AU     LIG 2862  22.555  35.545   5.920
    7AU     LIG 2863  23.029  35.682   5.837
    7AU       S 2864  21.967  35.163   7.602
    7AU     LIG 2865  22.309  35.348   7.362
    7AU     LIG 2866  22.742  35.279   7.288
    7AU     LIG 2867  23.189  35.329   7.253
    7AU     LIG 2868  23.468  35.678   7.415
    7AU    AUSL 2869  21.817  34.611   7.385
    7AU    AUSL 2870  21.743  34.315   7.740
    7AU     AUL 2871  21.999  34.498   7.805
    7AU       S 2872  22.061  34.727   7.414
    7AU     LIG 2873  22.462  34.851   7.205
    7AU     LIG 2874  22.960  34.834   7.166
    7AU     LIG 2875  23.393  34.941   6.973
    7AU     LIG 2876  23.689  35.208   7.218
    7AU       S 2877  22.022  34.069   7.599
    7AU     LIG 2878  22.348  33.880   7.831
    7AU     LIG 2879  22.737  33.634   7.766
    7AU     LIG 2880  23.191  33.634   7.648
    7AU     LIG 2881  23.623  33.806   7.573
    7AU    AUSL 2882  21.507  34.673   7.700
    7AU    AUSL 2883  21.470  35.126   7.846
    7AU     AUL 2884  21.731  34.878   7.872
    7AU       S 2885  21.686  35.275   8.128
    7AU     LIG 2886  21.971  35.478   8.430
    7AU     LIG 2887  22.327  35.735   8.595
    7AU     LIG 2888  22.460  36.164   8.710
    7AU     LIG 2889  22.608  36.492   8.996
    7AU       S 2890  22.100  34.921   7.605
    7AU     LIG 2891  22.536  34.998   7.692
    7AU     LIG 2892  22.997  35.048   7.670
    7AU     LIG 2893  23.397  35.268   7.731
    7AU     LIG 2894  23.828  35.197   7.806
    7AU    AUSL 2895  20.186  35.117   7.520
    7AU    AUSL 2896  20.270  34.898   7.901
    7AU     AUL 2897  19.965  35.222   7.757
    7AU       S 2898  20.138  35.086   8.154
    7AU     LIG 2899  19.943  34.956   8.522
    7AU     LIG 2900  19.718  35.250   8.804
    7AU     LIG 2901  19.480  35.551   9.070
    7AU     LIG 2902  19.161  35.700   9.374
    7AU       S 2903  20.181  35.504   7.450
    7AU     LIG 2904  19.680  35.421   7.383
    7AU     LIG 2905  19.179  35.393   7.463
    7AU     LIG 2906  18.727  35.574   7.573
    7AU     LIG 2907  18.432  35.888   7.825
    7AU    AUSL 2908  20.139  34.706   7.359
    7AU    AUSL 2909  20.291  35.199   7.109
    7AU     AUL 2910  19.974  35.061   7.218
    7AU       S 2911  19.779  34.520   6.994
    7AU     LIG 2912  19.497  34.910   7.043
    7AU     LIG 2913  19.066  35.135   7.021
    7AU     LIG 2914  18.587  35.162   7.026
    7AU     LIG 2915  18.122  35.231   7.118
    7AU       S 2916  20.134  35.434   6.939
    7AU     LIG 2917  19.818  35.566   6.614
    7AU     LIG 2918  19.718  35.928   6.329
    7AU     LIG 2919  19.561  36.377   6.296
    7AU     LIG 2920  19.306  36.716   6.106
    7AU    AUSL 2921  19.902  34.766   7.735
    7AU    AUSL 2922  19.857  34.391   7.434
    7AU     AUL 2923  19.745  34.715   7.439
    7AU       S 2924  19.656  34.318   7.701
    7AU     LIG 2925  19.398  34.287   7.300
    7AU     LIG 2926  18.993  34.138   7.219
    7AU     LIG 2927  18.586  33.956   7.229
    7AU     LIG 2928  18.209  33.728   7.120
    7AU       S 2929  19.803  34.778   7.970
    7AU     LIG 2930  19.395  34.843   7.845
    7AU     LIG 2931  19.015  35.111   7.878
    7AU     LIG 2932  18.581  35.291   7.975
    7AU     LIG 2933  18.132  35.449   7.961
    7AU    AUSL 2934  21.555  33.942   7.570
    7AU    AUSL 2935  21.355  34.207   7.887
    7AU     AUL 2936  21.699  34.109   7.947
    7AU       S 2937  21.856  33.842   7.580
    7AU     LIG 2938  22.126  33.479   7.594
    7AU     LIG 2939  22.532  33.288   7.448
    7AU     LIG 2940  23.000  33.170   7.493
    7AU     LIG 2941  23.295  32.817   7.654
    7AU       S 2942  21.581  33.674   7.999
    7AU     LIG 2943  21.861  33.477   8.348
    7AU     LIG 2944  22.094  33.259   8.701
    7AU     LIG 2945  22.348  33.060   9.040
    7AU     LIG 2946  22.630  33.117   9.409
    7AU    AUSL 2947  21.508  34.320   7.348
    7AU    AUSL 2948  21.459  33.880   7.148
    7AU     AUL 2949  21.728  34.068   7.191
    7AU       S 2950  22.084  34.195   7.431
    7AU     LIG 2951  22.391  33.830   7.320
    7AU     LIG 2952  22.835  33.656   7.258
    7AU     LIG 2953  23.257  33.475   7.152
    7AU     LIG 2954  23.694  33.354   7.022
    7AU       S 2955  21.650  33.749   6.845
    7AU     LIG 2956  21.757  33.303   6.768
    7AU     LIG 2957  21.909  32.892   6.592
    7AU     LIG 2958  22.152  32.647   6.289
    7AU     LIG 2959  22.508  32.402   6.100
    7AU    AUSL 2960  20.061  34.018   7.591
    7AU    AUSL 2961  20.190  34.251   7.198
    7AU     AUL 2962  19.842  34.100   7.303
    7AU       S 2963  19.972  34.059   6.865
    7AU     LIG 2964  19.683  33.834   6.554
    7AU     LIG 2965  19.381  33.454   6.502
    7AU     LIG 2966  18.986  33.185   6.391
    7AU     LIG 2967  18.586  33.063   6.123
    7AU       S 2968  19.651  34.058   7.730
    7AU     LIG 2969  19.276  33.845   7.543
    7AU     LIG 2970  18.843  33.636   7.518
    7AU     LIG 2971  18.380  33.627   7.637
    7AU     LIG 2972  18.238  33.202   7.810
    7AU    AUSL 2973  20.147  34.415   7.771
    7AU    AUSL 2974  20.404  34.032   7.854
    7AU     AUL 2975  20.064  33.996   7.924
    7AU       S 2976  20.115  33.796   8.332
    7AU     LIG 2977  20.028  33.368   8.150
    7AU     LIG 2978  19.797  32.939   8.165
    7AU     LIG 2979  19.607  32.622   8.461
    7AU     LIG 2980  19.273  32.509   8.762
    7AU       S 2981  19.726  34.313   7.895
    7AU     LIG 2982  19.257  34.115   7.989
    7AU     LIG 2983  18.858  34.087   7.759
    7AU     LIG 2984  18.423  34.134   7.834
    7AU     LIG 2985  17.988  33.990   7.820
    7AU    AUSL 2986  20.894  35.328   7.997
    7AU    AUSL 2987  20.472  35.275   7.814
    7AU     AUL 2988  20.675  35.343   8.210
    7AU       S 2989  20.334  35.487   7.921
    7AU     LIG 2990  20.026  35.730   8.234
    7AU     LIG 2991  19.834  36.045   8.562
    7AU     LIG 2992  19.677  36.507   8.685
    7AU     LIG 2993  19.372  36.895   8.723
    7AU       S 2994  20.981  35.662   7.970
    7AU     LIG 2995  21.143  35.783   8.336
    7AU     LIG 2996  21.146  36.215   8.494
    7AU     LIG 2997  21.038  36.615   8.707
    7AU     LIG 2998  20.986  36.884   9.089
    7AU    AUSL 2999  20.756  35.505   7.589
    7AU    AUSL 3000  21.047  35.425   7.234
    7AU     AUL 3001  21.000  35.780   7.385
    7AU       S 3002  20.785  35.734   7.795
    7AU     LIG 3003  20.894  36.151   8.032
    7AU     LIG 3004  20.837  36.571   8.224
    7AU     LIG 3005  20.484  36.904   8.284
    7AU     LIG 3006  20.103  37.189   8.181
    7AU       S 3007  20.761  35.611   7.040
    7AU     LIG 3008  21.191  35.848   6.941
    7AU     LIG 3009  21.281  36.310   6.847
    7AU     LIG 3010  21.537  36.738   6.784
    7AU     LIG 3011  21.624  37.221   6.887
    7AU    AUSL 3012  21.117  35.239   7.627
    7AU    AUSL 3013  21.106  34.956   8.015
    7AU     AUL 3014  21.217  35.277   8.071
    7AU       S 3015  21.493  35.145   8.405
    7AU     LIG 3016  21.746  35.191   8.790
    7AU     LIG 3017  22.023  35.511   8.965
    7AU     LIG 3018  22.276  35.862   9.108
    7AU     LIG 3019  22.321  36.232   9.381
    7AU       S 3020  21.225  35.562   7.716
    7AU     LIG 3021  21.365  35.988   7.909
    7AU     LIG 3022  21.394  36.444   8.090
    7AU     LIG 3023  21.704  36.849   8.109
    7AU     LIG 3024  21.850  37.306   8.187
    7AU    AUSL 3025  20.779  33.810   7.949
    7AU    AUSL 3026  21.194  33.812   7.775
    7AU     AUL 3027  21.009  33.673   8.151
    7AU       S 3028  20.737  33.325   8.000
    7AU     LIG 3029  20.609  32.951   8.238
    7AU     LIG 3030  20.338  32.580   8.321
    7AU     LIG 3031  20.406  32.186   8.562
    7AU     LIG 3032  20.084  31.944   8.805
    7AU       S 3033  21.362  33.593   7.841
    7AU     LIG 3034  21.555  33.178   8.056
    7AU     LIG 3035  21.868  32.938   8.361
    7AU     LIG 3036  22.213  32.739   8.646
    7AU     LIG 3037  22.533  32.383   8.724
    7AU    AUSL 3038  20.445  33.650   7.673
    7AU    AUSL 3039  20.561  33.969   8.282
    7AU     AUL 3040  20.450  33.698   8.038
    7AU       S 3041  20.523  33.278   7.845
    7AU     LIG 3042  20.255  32.895   7.876
    7AU     LIG 3043  20.237  32.439   7.828
    7AU     LIG 3044  20.324  32.060   8.062
    7AU     LIG 3045  20.270  31.708   8.365
    7AU       S 3046  20.321  33.857   8.476
    7AU     LIG 3047  19.974  33.510   8.679
    7AU     LIG 3048  19.855  33.068   8.656
    7AU     LIG 3049  19.670  32.779   8.953
    7AU     LIG 3050  19.495  32.681   9.358
    7AU    AUSL 3051  20.885  33.559   7.608
    7AU    AUSL 3052  20.648  33.834   7.329
    7AU     AUL 3053  20.550  33.482   7.428
    7AU       S 3054  20.890  33.395   7.144
    7AU     LIG 3055  20.489  33.102   7.124
    7AU     LIG 3056  20.183  32.744   6.989
    7AU     LIG 3057  20.145  32.306   6.804
    7AU     LIG 3058  20.307  31.864   6.742
    7AU       S 3059  20.887  33.353   7.758
    7AU     LIG 3060  20.799  32.877   7.742
    7AU     LIG 3061  20.717  32.494   7.986
    7AU     LIG 3062  20.809  32.111   8.226
    7AU     LIG 3063  21.053  31.712   8.212
    7AU    AUSL 3064  20.855  35.179   6.898
    7AU    AUSL 3065  21.288  35.071   7.232
    7AU     AUL 3066  21.138  35.340   6.888
    7AU       S 3067  20.756  35.618   6.811
    7AU     LIG 3068  20.881  36.014   6.579
    7AU     LIG 3069  21.056  36.403   6.386
    7AU     LIG 3070  21.102  36.667   5.992
    7AU     LIG 3071  21.090  36.810   5.529
    7AU       S 3072  21.533  35.279   7.092
    7AU     LIG 3073  21.956  35.514   6.907
    7AU     LIG 3074  22.185  35.758   6.548
    7AU     LIG 3075  22.424  36.134   6.370
    7AU     LIG 3076  22.499  36.495   6.077
    7AU    AUSL 3077  20.669  35.196   7.304
    7AU    AUSL 3078  20.564  34.877   6.979
    7AU     AUL 3079  20.542  35.209   6.856
    7AU       S 3080  20.584  35.585   7.154
    7AU     LIG 3081  20.731  36.091   7.068
    7AU     LIG 3082  20.757  36.501   6.827
    7AU     LIG 3083  20.478  36.914   6.814
    7AU     LIG 3084  20.227  37.306   6.676
    7AU       S 3085  20.147  35.168   6.640
    7AU     LIG 3086  20.110  35.371   6.239
    7AU     LIG 3087  19.915  35.649   5.919
    7AU     LIG 3088  19.875  35.786   5.464
    7AU     LIG 3089  19.690  35.920   5.050
    7AU    AUSL 3090  20.843  33.807   6.923
    7AU    AUSL 3091  20.229  33.803   7.252
    7AU     AUL 3092  20.494  33.667   6.988
    7AU       S 3093  20.026  33.768   7.022
    7AU     LIG 3094  19.783  33.409   6.852
    7AU     LIG 3095  19.579  32.995   6.695
    7AU     LIG 3096  19.214  32.735   6.519
    7AU     LIG 3097  18.741  32.678   6.435
    7AU       S 3098  20.891  33.402   6.941
    7AU     LIG 3099  20.813  32.977   6.755
    7AU     LIG 3100  20.505  32.646   6.593
    7AU     LIG 3101  20.393  32.231   6.373
    7AU     LIG 3102  20.509  31.797   6.260
    7AU    AUSL 3103  21.079  33.800   7.313
    7AU    AUSL 3104  21.130  34.125   6.978
    7AU     AUL 3105  21.190  33.758   6.929
    7AU       S 3106  21.135  33.416   7.240
    7AU     LIG 3107  20.976  32.935   7.262
    7AU     LIG 3108  20.670  32.607   7.112
    7AU     LIG 3109  20.657  32.230   6.850
    7AU     LIG 3110  20.838  31.860   6.646
    7AU       S 3111  21.438  33.937   6.594
    7AU     LIG 3112  21.345  33.497   6.513
    7AU     LIG 3113  21.586  33.165   6.289
    7AU     LIG 3114  21.857  32.941   5.975
    7AU     LIG 3115  22.090  32.957   5.571
    8AU     AUC 3116  33.303  27.839   7.501
    8AU     AUC 3117  33.575  27.851   7.329
    8AU     AUC 3118  33.552  27.827   7.673
    8AU     AUC 3119  33.028  27.841   7.337
    8AU     AUC 3120  33.044  27.877   7.682
    8AU     AUC 3121  33.140  28.120   7.500
    8AU     AUC 3122  33.495  28.105   7.495
    8AU     AUC 3123  33.119  27.583   7.507
    8AU     AUC 3124  33.469  27.554   7.502
    8AU     AUC 3125  33.304  27.664   7.773
    8AU     AUC 3126  33.298  28.007   7.768
    8AU     AUC 3127  33.296  27.674   7.232
    8AU     AUC 3128  33.330  27.992   7.229
    8AU     AUC 3129  33.896  27.844   7.174
    8AU     AUC 3130  33.909  27.820   7.517
    8AU     AUC 3131  33.844  27.803   7.876
    8AU     AUC 3132  32.714  27.834   7.171
    8AU     AUC 3133  32.696  27.877   7.530
    8AU     AUC 3134  32.745  27.912   7.859
    8AU     AUC 3135  32.987  28.447   7.477
    8AU     AUC 3136  33.343  28.449   7.470
    8AU     AUC 3137  33.709  28.385   7.489
    8AU     AUC 3138  32.917  27.297   7.512
    8AU     AUC 3139  33.272  27.242   7.485
    8AU     AUC 3140  33.644  27.250   7.484
    8AU     AUC 3141  33.279  27.484   8.066
    8AU     AUC 3142  33.310  27.856   8.122
    8AU     AUC 3143  33.327  28.186   8.066
    8AU     AUC 3144  33.322  27.498   6.951
    8AU     AUC 3145  33.290  27.827   6.889
    8AU     AUC 3146  33.310  28.160   6.910
    8AU     AUC 3147  33.558  27.627   8.011
    8AU     AUC 3148  33.611  27.977   8.011
    8AU     AUC 3149  33.627  27.679   7.010
    8AU     AUC 3150  33.611  28.023   7.012
    8AU     AUC 3151  32.995  27.720   8.017
    8AU     AUC 3152  33.025  28.093   7.982
    8AU     AUC 3153  32.991  27.650   7.047
    8AU     AUC 3154  32.971  27.985   7.006
    8AU     AUC 3155  33.838  28.120   7.301
    8AU     AUC 3156  33.803  28.112   7.670
    8AU     AUC 3157  32.822  28.152   7.330
    8AU     AUC 3158  32.845  28.204   7.677
    8AU     AUC 3159  33.798  27.540   7.350
    8AU     AUC 3160  33.746  27.492   7.693
    8AU     AUC 3161  32.785  27.536   7.362
    8AU     AUC 3162  32.831  27.596   7.711
    8AU     AUC 3163  33.167  28.384   7.771
    8AU     AUC 3164  33.514  28.302   7.760
    8AU     AUC 3165  33.107  27.369   7.795
    8AU     AUC 3166  33.424  27.311   7.772
    8AU     AUC 3167  33.143  28.285   7.202
    8AU     AUC 3168  33.514  28.309   7.170
    8AU     AUC 3169  33.110  27.371   7.205
    8AU     AUC 3170  33.514  27.393   7.209
    8AU    AUSL 3171  33.824  27.689   8.274
    8AU    AUSL 3172  33.565  27.311   8.169
    8AU     AUL 3173  33.757  27.279   8.497
    8AU       S 3174  33.936  27.048   8.142
    8AU     LIG 3175  33.780  26.779   8.477
    8AU     LIG 3176  33.949  26.446   8.714
    8AU     LIG 3177  34.224  26.228   9.039
    8AU     LIG 3178  34.483  25.851   9.152
    8AU       S 3179  33.996  27.621   8.332
    8AU     LIG 3180  33.970  27.607   8.824
    8AU     LIG 3181  34.232  27.560   9.240
    8AU     LIG 3182  34.502  27.452   9.630
    8AU     LIG 3183  34.880  27.396   9.914
    8AU    AUSL 3184  33.400  27.641   8.412
    8AU    AUSL 3185  33.149  28.025   8.423
    8AU     AUL 3186  33.340  27.965   8.762
    8AU       S 3187  33.433  27.588   8.531
    8AU     LIG 3188  33.452  27.503   8.948
    8AU     LIG 3189  33.734  27.441   9.299
    8AU     LIG 3190  33.985  27.413   9.695
    8AU     LIG 3191  34.220  27.289  10.084
    8AU       S 3192  32.947  27.774   8.621
    8AU     LIG 3193  32.999  27.776   9.093
    8AU     LIG 3194  32.732  27.773   9.471
    8AU     LIG 3195  32.517  27.818   9.883
    8AU     LIG 3196  32.442  28.064  10.272
    8AU    AUSL 3197  33.573  28.058   8.367
    8AU    AUSL 3198  33.959  28.078   8.119
    8AU     AUL 3199  33.829  27.990   8.527
    8AU       S 3200  33.479  28.366   8.494
    8AU     LIG 3201  33.728  28.324   8.887
    8AU     LIG 3202  33.857  28.407   9.344
    8AU     LIG 3203  33.818  28.441   9.834
    8AU     LIG 3204  33.780  28.555  10.302
    8AU       S 3205  34.062  28.321   8.299
    8AU     LIG 3206  34.498  28.311   8.365
    8AU     LIG 3207  34.772  28.540   8.667
    8AU     LIG 3208  34.991  28.809   8.987
    8AU     LIG 3209  35.179  29.156   9.236
    8AU    AUSL 3210  33.745  27.888   6.859
    8AU    AUSL 3211  33.691  28.326   6.823
    8AU     AUL 3212  33.836  28.221   6.567
    8AU       S 3213  33.716  27.917   6.256
    8AU     LIG 3214  34.146  27.866   6.107
    8AU     LIG 3215  34.345  27.613   5.781
    8AU     LIG 3216  34.441  27.442   5.362
    8AU     LIG 3217  34.783  27.284   5.072
    8AU       S 3218  34.059  28.528   6.834
    8AU     LIG 3219  34.204  28.731   6.445
    8AU     LIG 3220  34.426  28.965   6.084
    8AU     LIG 3221  34.673  29.229   5.757
    8AU     LIG 3222  34.639  29.520   5.384
    8AU    AUSL 3223  33.570  27.606   6.568
    8AU    AUSL 3224  34.057  27.599   6.928
    8AU     AUL 3225  33.950  27.756   6.638
    8AU       S 3226  34.185  27.346   6.699
    8AU     LIG 3227  34.324  27.032   6.351
    8AU     LIG 3228  34.562  26.609   6.284
    8AU     LIG 3229  34.808  26.322   5.997
    8AU     LIG 3230  35.186  26.301   5.700
    8AU       S 3231  33.708  27.672   6.237
    8AU     LIG 3232  33.982  27.358   6.062
    8AU     LIG 3233  34.026  27.236   5.608
    8AU     LIG 3234  33.980  27.300   5.138
    8AU     LIG 3235  33.937  27.231   4.662
    8AU    AUSL 3236  33.399  28.044   6.648
    8AU    AUSL 3237  33.186  27.654   6.761
    8AU     AUL 3238  33.293  27.701   6.430
    8AU       S 3239  32.853  27.681   6.295
    8AU     LIG 3240  32.953  27.530   5.896
    8AU     LIG 3241  32.704  27.313   5.575
    8AU     LIG 3242  32.506  27.367   5.163
    8AU     LIG 3243  32.295  27.386   4.744
    8AU       S 3244  33.496  28.078   6.267
    8AU     LIG 3245  33.536  27.892   5.801
    8AU     LIG 3246  33.893  27.736   5.523
    8AU     LIG 3247  34.025  27.809   5.073
    8AU     LIG 3248  33.905  27.889   4.611
    8AU    AUSL 3249  32.746  27.982   8.240
    8AU    AUSL 3250  33.086  28.320   8.117
    8AU     AUL 3251  32.934  28.264   8.454
    8AU       S 3252  32.736  27.881   8.667
    8AU     LIG 3253  32.531  27.592   8.947
    8AU     LIG 3254  32.289  27.533   9.352
    8AU     LIG 3255  32.076  27.566   9.774
    8AU     LIG 3256  31.829  27.457  10.171
    8AU       S 3257  32.684  28.571   8.189
    8AU     LIG 3258  32.782  28.785   8.562
    8AU     LIG 3259  32.562  28.892   8.957
    8AU     LIG 3260  32.258  29.134   9.227
    8AU     LIG 3261  31.983  29.293   9.582
    8AU    AUSL 3262  33.059  27.688   8.152
    8AU    AUSL 3263  32.636  27.552   8.130
    8AU     AUL 3264  32.548  27.781   8.258
    8AU       S 3265  32.539  27.327   8.385
    8AU     LIG 3266  32.101  27.229   8.237
    8AU     LIG 3267  31.877  26.876   8.465
    8AU     LIG 3268  31.686  26.537   8.737
    8AU     LIG 3269  31.447  26.190   8.957
    8AU       S 3270  32.919  27.629   8.544
    8AU     LIG 3271  32.966  27.321   8.882
    8AU     LIG 3272  32.768  27.287   9.304
    8AU     LIG 3273  32.563  27.326   9.735
    8AU     LIG 3274  32.347  27.350  10.160
    8AU    AUSL 3275  32.749  27.705   6.780
    8AU    AUSL 3276  32.955  27.331   6.930
    8AU     AUL 3277  33.000  27.373   6.615
    8AU       S 3278  32.670  27.586   6.360
    8AU     LIG 3279  32.439  27.550   5.966
    8AU     LIG 3280  32.225  27.558   5.556
    8AU     LIG 3281  31.993  27.488   5.158
    8AU     LIG 3282  31.758  27.397   4.765
    8AU       S 3283  32.597  27.228   6.787
    8AU     LIG 3284  32.650  26.868   6.560
    8AU     LIG 3285  32.334  26.558   6.410
    8AU     LIG 3286  32.047  26.383   6.074
    8AU     LIG 3287  32.017  26.266   5.611
    8AU    AUSL 3288  32.972  28.032   6.588
    8AU    AUSL 3289  32.629  28.115   6.915
    8AU     AUL 3290  32.562  27.914   6.659
    8AU       S 3291  32.531  28.364   6.684
    8AU     LIG 3292  32.158  28.504   6.573
    8AU     LIG 3293  32.033  28.719   6.187
    8AU     LIG 3294  31.881  28.955   5.808
    8AU     LIG 3295  31.527  29.028   5.492
    8AU       S 3296  32.895  27.957   6.325
    8AU     LIG 3297  32.705  27.989   5.902
    8AU     LIG 3298  32.668  27.812   5.459
    8AU     LIG 3299  32.591  27.848   4.978
    8AU     LIG 3300  32.665  28.089   4.553
    8AU    AUSL 3301  34.128  28.340   7.475
    8AU    AUSL 3302  34.053  28.113   7.058
    8AU     AUL 3303  34.394  28.386   7.186
    8AU       S 3304  34.149  28.170   6.888
    8AU     LIG 3305  34.515  28.377   6.677
    8AU     LIG 3306  34.655  28.520   6.256
    8AU     LIG 3307  34.893  28.787   5.963
    8AU     LIG 3308  35.183  29.030   5.711
    8AU       S 3309  34.534  28.430   7.622
    8AU     LIG 3310  34.994  28.539   7.635
    8AU     LIG 3311  35.414  28.507   7.432
    8AU     LIG 3312  35.812  28.760   7.401
    8AU     LIG 3313  36.020  29.016   7.721
    8AU    AUSL 3314  34.286  27.929   7.381
    8AU    AUSL 3315  34.210  27.628   7.735
    8AU     AUL 3316  34.444  27.817   7.801
    8AU       S 3317  34.587  28.029   7.409
    8AU     LIG 3318  34.967  28.233   7.231
    8AU     LIG 3319  35.418  28.134   7.074
    8AU     LIG 3320  35.832  28.244   6.945
    8AU     LIG 3321  36.184  28.494   7.134
    8AU       S 3322  34.499  27.376   7.614
    8AU     LIG 3323  34.843  27.109   7.772
    8AU     LIG 3324  35.317  27.029   7.727
    8AU     LIG 3325  35.767  27.060   7.878
    8AU     LIG 3326  36.251  27.187   7.995
    8AU    AUSL 3327  33.978  27.990   7.701
    8AU    AUSL 3328  33.930  28.448   7.847
    8AU     AUL 3329  34.200  28.219   7.867
    8AU       S 3330  34.133  28.599   8.143
    8AU     LIG 3331  34.400  28.827   8.439
    8AU     LIG 3332  34.741  29.089   8.636
    8AU     LIG 3333  35.010  29.437   8.822
    8AU     LIG 3334  35.233  29.878   8.762
    8AU       S 3335  34.581  28.215   7.608
    8AU     LIG 3336  34.926  28.074   7.840
    8AU     LIG 3337  35.370  28.237   7.874
    8AU     LIG 3338  35.773  28.504   7.862
    8AU     LIG 3339  36.221  28.542   7.662
    8AU    AUSL 3340  32.640  28.437   7.504
    8AU    AUSL 3341  32.733  28.209   7.880
    8AU     AUL 3342  32.434  28.533   7.757
    8AU       S 3343  32.558  28.399   8.181
    8AU     LIG 3344  32.299  28.620   8.533
    8AU     LIG 3345  32.054  28.770   8.917
    8AU     LIG 3346  31.803  28.882   9.315
    8AU     LIG 3347  31.600  28.950   9.749
    8AU       S 3348  32.645  28.811   7.436
    8AU     LIG 3349  32.172  28.726   7.375
    8AU     LIG 3350  31.727  28.875   7.460
    8AU     LIG 3351  31.335  29.098   7.647
    8AU     LIG 3352  30.986  29.387   7.793
    8AU    AUSL 3353  32.602  28.031   7.330
    8AU    AUSL 3354  32.757  28.508   7.095
    8AU     AUL 3355  32.442  28.361   7.164
    8AU       S 3356  32.213  27.917   6.993
    8AU     LIG 3357  31.929  28.321   7.109
    8AU     LIG 3358  31.476  28.543   7.143
    8AU     LIG 3359  30.982  28.629   7.046
    8AU     LIG 3360  30.505  28.532   6.953
    8AU       S 3361  32.589  28.771   6.914
    8AU     LIG 3362  32.453  28.915   6.467
    8AU     LIG 3363  32.203  29.208   6.164
    8AU     LIG 3364  32.027  29.590   5.936
    8AU     LIG 3365  31.921  30.055   5.917
    8AU    AUSL 3366  32.367  28.079   7.712
    8AU    AUSL 3367  32.329  27.709   7.400
    8AU     AUL 3368  32.214  28.049   7.438
    8AU       S 3369  32.139  27.634   7.678
    8AU     LIG 3370  31.821  27.639   7.355
    8AU     LIG 3371  31.397  27.433   7.288
    8AU     LIG 3372  30.958  27.249   7.320
    8AU     LIG 3373  30.524  27.088   7.297
    8AU       S 3374  32.249  28.104   7.937
    8AU     LIG 3375  31.920  28.396   7.720
    8AU     LIG 3376  31.474  28.606   7.810
    8AU     LIG 3377  31.055  28.800   7.986
    8AU     LIG 3378  30.616  28.732   8.193
    8AU    AUSL 3379  34.022  27.261   7.557
    8AU    AUSL 3380  33.820  27.526   7.880
    8AU     AUL 3381  34.155  27.415   7.941
    8AU       S 3382  34.315  27.158   7.567
    8AU     LIG 3383  34.535  26.771   7.532
    8AU     LIG 3384  34.988  26.641   7.578
    8AU     LIG 3385  35.429  26.465   7.518
    8AU     LIG 3386  35.621  26.007   7.534
    8AU       S 3387  34.051  26.974   7.981
    8AU     LIG 3388  34.281  26.745   8.332
    8AU     LIG 3389  34.466  26.522   8.686
    8AU     LIG 3390  34.728  26.316   9.000
    8AU     LIG 3391  35.108  26.201   9.228
    8AU    AUSL 3392  33.973  27.643   7.345
    8AU    AUSL 3393  33.941  27.213   7.130
    8AU     AUL 3394  34.206  27.406   7.186
    8AU       S 3395  34.558  27.509   7.440
    8AU     LIG 3396  34.747  27.133   7.229
    8AU     LIG 3397  35.195  26.953   7.234
    8AU     LIG 3398  35.681  26.903   7.322
    8AU     LIG 3399  36.089  26.669   7.128
    8AU       S 3400  34.136  27.097   6.827
    8AU     LIG 3401  34.251  26.664   6.714
    8AU     LIG 3402  34.220  26.233   6.536
    8AU     LIG 3403  34.483  25.853   6.369
    8AU     LIG 3404  34.890  25.624   6.214
    8AU    AUSL 3405  32.527  27.334   7.563
    8AU    AUSL 3406  32.668  27.564   7.175
    8AU     AUL 3407  32.307  27.421   7.276
    8AU       S 3408  32.458  27.346   6.849
    8AU     LIG 3409  32.152  26.997   6.665
    8AU     LIG 3410  31.838  26.722   6.416
    8AU     LIG 3411  31.527  26.472   6.145
    8AU     LIG 3412  31.090  26.283   6.069
    8AU       S 3413  32.115  27.386   7.713
    8AU     LIG 3414  31.753  27.154   7.547
    8AU     LIG 3415  31.340  26.933   7.472
    8AU     LIG 3416  30.910  26.734   7.437
    8AU     LIG 3417  30.542  26.714   7.675
    8AU    AUSL 3418  32.616  27.730   7.742
    8AU    AUSL 3419  32.872  27.343   7.826
    8AU     AUL 3420  32.532  27.306   7.892
    8AU       S 3421  32.572  27.097   8.297
    8AU     LIG 3422  32.294  26.731   8.201
    8AU     LIG 3423  31.930  26.404   8.250
    8AU     LIG 3424  31.691  26.074   8.500
    8AU     LIG 3425  31.500  25.713   8.755
    8AU       S 3426  32.201  27.632   7.863
    8AU     LIG 3427  31.669  27.561   7.855
    8AU     LIG 3428  31.217  27.348   7.770
    8AU     LIG 3429  30.738  27.176   7.790
    8AU     LIG 3430  30.360  26.992   8.065
    8AU    AUSL 3431  33.351  28.644   7.996
    8AU    AUSL 3432  32.938  28.584   7.793
    8AU     AUL 3433  33.137  28.654   8.205
    8AU       S 3434  32.803  28.790   7.909
    8AU     LIG 3435  32.464  29.009   8.202
    8AU     LIG 3436  32.268  29.152   8.623
    8AU     LIG 3437  32.070  29.504   8.900
    8AU     LIG 3438  31.936  29.982   8.970
    8AU       S 3439  33.442  28.982   7.980
    8AU     LIG 3440  33.602  29.135   8.345
    8AU     LIG 3441  33.582  29.564   8.516
    8AU     LIG 3442  33.463  29.974   8.713
    8AU     LIG 3443  33.323  30.215   9.098
    8AU    AUSL 3444  33.222  28.832   7.590
    8AU    AUSL 3445  33.517  28.752   7.239
    8AU     AUL 3446  33.477  29.101   7.393
    8AU       S 3447  33.253  29.057   7.800
    8AU     LIG 3448  33.349  29.479   8.037
    8AU     LIG 3449  33.325  29.917   8.212
    8AU     LIG 3450  33.060  30.307   8.299
    8AU     LIG 3451  32.688  30.613   8.204
    8AU       S 3452  33.254  28.988   7.017
    8AU     LIG 3453  33.573  29.389   6.988
    8AU     LIG 3454  33.749  29.849   6.897
    8AU     LIG 3455  34.037  30.257   6.830
    8AU     LIG 3456  34.126  30.709   6.673
    8AU    AUSL 3457  33.577  28.560   7.629
    8AU    AUSL 3458  33.564  28.273   8.008
    8AU     AUL 3459  33.669  28.590   8.076
    8AU       S 3460  33.944  28.459   8.411
    8AU     LIG 3461  34.216  28.484   8.774
    8AU     LIG 3462  34.459  28.813   8.977
    8AU     LIG 3463  34.665  29.185   9.153
    8AU     LIG 3464  34.816  29.357   9.560
    8AU       S 3465  33.690  28.883   7.729
    8AU     LIG 3466  33.819  29.312   7.900
    8AU     LIG 3467  33.815  29.756   8.092
    8AU     LIG 3468  33.975  30.211   8.179
    8AU     LIG 3469  34.110  30.678   8.122
    8AU    AUSL 3470  33.248  27.125   7.931
    8AU    AUSL 3471  33.667  27.130   7.770
    8AU     AUL 3472  33.472  26.998   8.147
    8AU       S 3473  33.225  26.645   7.981
    8AU     LIG 3474  33.407  26.422   8.324
    8AU     LIG 3475  33.290  25.980   8.447
    8AU     LIG 3476  33.172  25.536   8.401
    8AU     LIG 3477  33.380  25.145   8.541
    8AU       S 3478  33.826  26.917   7.835
    8AU     LIG 3479  33.893  26.497   8.079
    8AU     LIG 3480  34.232  26.234   8.322
    8AU     LIG 3481  34.494  25.997   8.645
    8AU     LIG 3482  34.901  25.848   8.851
    8AU    AUSL 3483  32.925  26.959   7.651
    8AU    AUSL 3484  33.019  27.281   8.257
    8AU     AUL 3485  32.918  27.005   8.010
    8AU       S 3486  33.041  26.582   7.828
    8AU     LIG 3487  33.021  26.170   8.043
    8AU     LIG 3488  32.972  25.717   7.963
    8AU     LIG 3489  32.912  25.263   8.016
    8AU     LIG 3490  32.705  24.853   8.110
    8AU       S 3491  32.786  27.168   8.448
    8AU     LIG 3492  32.412  26.890   8.697
    8AU     LIG 3493  32.195  26.468   8.680
    8AU     LIG 3494  31.969  26.136   8.934
    8AU     LIG 3495  31.781  26.169   9.358
    8AU    AUSL 3496  33.368  26.876   7.590
    8AU    AUSL 3497  33.133  27.150   7.314
    8AU     AUL 3498  33.039  26.793   7.410
    8AU       S 3499  33.390  26.711   7.134
    8AU     LIG 3500  33.028  26.395   7.118
    8AU     LIG 3501  32.905  25.952   6.990
    8AU     LIG 3502  32.979  25.479   6.984
    8AU     LIG 3503  32.748  25.061   6.895
    8AU       S 3504  33.386  26.669   7.743
    8AU     LIG 3505  33.497  26.218   7.869
    8AU     LIG 3506  33.482  25.763   7.998
    8AU     LIG 3507  33.454  25.301   8.036
    8AU     LIG 3508  33.719  24.963   8.196
    8AU    AUSL 3509  33.321  28.540   6.889
    8AU    AUSL 3510  33.769  28.405   7.241
    8AU     AUL 3511  33.618  28.679   6.899
    8AU       S 3512  33.242  28.957   6.801
    8AU     LIG 3513  33.515  29.165   6.541
    8AU     LIG 3514  33.552  29.616   6.477
    8AU     LIG 3515  33.500  29.989   6.193
    8AU     LIG 3516  33.530  30.177   5.741
    8AU       S 3517  34.007  28.604   7.106
    8AU     LIG 3518  34.420  28.836   6.942
    8AU     LIG 3519  34.669  28.935   6.560
    8AU     LIG 3520  34.855  29.221   6.244
    8AU     LIG 3521  35.103  29.482   5.945
    8AU    AUSL 3522  33.131  28.530   7.298
    8AU    AUSL 3523  33.058  28.214   6.961
    8AU     AUL 3524  33.011  28.566   6.876
    8AU       S 3525  33.051  28.939   7.154
    8AU     LIG 3526  33.071  29.433   6.917
    8AU     LIG 3527  33.189  29.893   6.748
    8AU     LIG 3528  32.987  30.353   6.670
    8AU     LIG 3529  32.826  30.822   6.639
    8AU       S 3530  32.704  28.443   6.576
    8AU     LIG 3531  32.520  28.499   6.160
    8AU     LIG 3532  32.411  28.850   5.855
    8AU     LIG 3533  32.267  29.250   5.633
    8AU     LIG 3534  32.109  29.626   5.380
    8AU    AUSL 3535  33.334  27.122   6.911
    8AU    AUSL 3536  32.714  27.118   7.236
    8AU     AUL 3537  32.988  26.979   6.973
    8AU       S 3538  32.526  27.082   7.031
    8AU     LIG 3539  32.407  26.658   6.961
    8AU     LIG 3540  32.029  26.437   6.806
    8AU     LIG 3541  31.796  26.185   6.490
    8AU     LIG 3542  31.470  25.953   6.242
    8AU       S 3543  33.387  26.712   6.922
    8AU     LIG 3544  33.325  26.250   6.735
    8AU     LIG 3545  33.231  25.788   6.616
    8AU     LIG 3546  32.963  25.410   6.474
    8AU     LIG 3547  32.921  25.086   6.127
    8AU    AUSL 3548  33.566  27.122   7.302
    8AU    AUSL 3549  33.608  27.451   6.963
    8AU     AUL 3550  33.676  27.080   6.916
    8AU       S 3551  33.634  26.737   7.229
    8AU     LIG 3552  33.527  26.248   7.209
    8AU     LIG 3553  33.386  25.817   7.102
    8AU     LIG 3554  33.523  25.409   6.893
    8AU     LIG 3555  33.682  24.962   6.720
    8AU       S 3556  33.924  27.281   6.592
    8AU     LIG 3557  33.841  26.859   6.462
    8AU     LIG 3558  34.074  26.593   6.174
    8AU     LIG 3559  34.293  26.201   6.022
    8AU     LIG 3560  34.580  25.855   5.856
    9AU     AUC 3561  28.169  15.366   7.508
    9AU     AUC 3562  28.445  15.375   7.336
    9AU     AUC 3563  28.418  15.354   7.680
    9AU     AUC 3564  27.896  15.366   7.346
    9AU     AUC 3565  27.907  15.407   7.690
    9AU     AUC 3566  28.007  15.645   7.507
    9AU     AUC 3567  28.362  15.630   7.500
    9AU     AUC 3568  27.981  15.110   7.517
    9AU     AUC 3569  28.336  15.081   7.511
    9AU     AUC 3570  28.169  15.194   7.781
    9AU     AUC 3571  28.165  15.535   7.773
    9AU     AUC 3572  28.163  15.201   7.240
    9AU     AUC 3573  28.200  15.517   7.234
    9AU     AUC 3574  28.767  15.367   7.182
    9AU     AUC 3575  28.776  15.349   7.525
    9AU     AUC 3576  28.710  15.334   7.885
    9AU     AUC 3577  27.578  15.365   7.181
    9AU     AUC 3578  27.561  15.407   7.540
    9AU     AUC 3579  27.608  15.446   7.866
    9AU     AUC 3580  27.856  15.975   7.477
    9AU     AUC 3581  28.211  15.974   7.472
    9AU     AUC 3582  28.575  15.911   7.490
    9AU     AUC 3583  27.777  14.828   7.523
    9AU     AUC 3584  28.134  14.772   7.491
    9AU     AUC 3585  28.511  14.778   7.496
    9AU     AUC 3586  28.143  15.018   8.072
    9AU     AUC 3587  28.175  15.387   8.127
    9AU     AUC 3588  28.195  15.716   8.070
    9AU     AUC 3589  28.187  15.024   6.961
    9AU     AUC 3590  28.162  15.350   6.895
    9AU     AUC 3591  28.183  15.675   6.915
    9AU     AUC 3592  28.425  15.156   8.020
    9AU     AUC 3593  28.478  15.505   8.019
    9AU     AUC 3594  28.496  15.200   7.020
    9AU     AUC 3595  28.484  15.542   7.015
    9AU     AUC 3596  27.858  15.253   8.024
    9AU     AUC 3597  27.891  15.624   7.986
    9AU     AUC 3598  27.856  15.180   7.057
    9AU     AUC 3599  27.839  15.512   7.014
    9AU     AUC 3600  28.706  15.645   7.304
    9AU     AUC 3601  28.669  15.640   7.674
    9AU     AUC 3602  27.687  15.680   7.341
    9AU     AUC 3603  27.712  15.736   7.683
    9AU     AUC 3604  28.668  15.063   7.363
    9AU     AUC 3605  28.615  15.024   7.703
    9AU     AUC 3606  27.647  15.066   7.372
    9AU     AUC 3607  27.693  15.127   7.721
    9AU     AUC 3608  28.036  15.912   7.773
    9AU     AUC 3609  28.382  15.830   7.765
    9AU     AUC 3610  27.967  14.903   7.803
    9AU     AUC 3611  28.292  14.844   7.781
    9AU     AUC 3612  28.010  15.809   7.205
    9AU     AUC 3613  28.384  15.828   7.170
    9AU     AUC 3614  27.972  14.900   7.215
    9AU     AUC 3615  28.377  14.918   7.221
    9AU    AUSL 3616  28.690  15.217   8.288
    9AU    AUSL 3617  28.439  14.836   8.183
    9AU     AUL 3618  28.612  14.814   8.538
    9AU       S 3619  28.788  14.621   8.165
    9AU     LIG 3620  28.658  14.313   8.469
    9AU     LIG 3621  28.901  13.998   8.696
    9AU     LIG 3622  29.188  13.692   8.917
    9AU     LIG 3623  29.496  13.383   9.122
    9AU       S 3624  28.851  15.139   8.339
    9AU     LIG 3625  28.860  15.139   8.829
    9AU     LIG 3626  29.124  15.074   9.233
    9AU     LIG 3627  29.413  15.035   9.614
    9AU     LIG 3628  29.787  15.140   9.902
    9AU    AUSL 3629  28.264  15.172   8.413
    9AU    AUSL 3630  28.016  15.559   8.427
    9AU     AUL 3631  28.209  15.494   8.768
    9AU       S 3632  28.283  15.117   8.531
    9AU     LIG 3633  28.334  15.032   8.950
    9AU     LIG 3634  28.638  14.907   9.270
    9AU     LIG 3635  28.910  14.805   9.647
    9AU     LIG 3636  28.924  14.560  10.062
    9AU       S 3637  27.810  15.316   8.628
    9AU     LIG 3638  27.862  15.295   9.098
    9AU     LIG 3639  27.607  15.278   9.492
    9AU     LIG 3640  27.447  15.292   9.932
    9AU     LIG 3641  27.263  15.514  10.299
    9AU    AUSL 3642  28.441  15.588   8.374
    9AU    AUSL 3643  28.827  15.604   8.126
    9AU     AUL 3644  28.701  15.518   8.534
    9AU       S 3645  28.346  15.897   8.498
    9AU     LIG 3646  28.597  15.884   8.891
    9AU     LIG 3647  28.679  16.075   9.335
    9AU     LIG 3648  28.697  16.223   9.803
    9AU     LIG 3649  28.869  16.320  10.246
    9AU       S 3650  28.937  15.850   8.309
    9AU     LIG 3651  29.373  15.854   8.384
    9AU     LIG 3652  29.651  16.083   8.679
    9AU     LIG 3653  29.877  16.337   9.000
    9AU     LIG 3654  30.097  16.653   9.266
    9AU    AUSL 3655  28.621  15.406   6.867
    9AU    AUSL 3656  28.573  15.847   6.816
    9AU     AUL 3657  28.720  15.727   6.568
    9AU       S 3658  28.584  15.426   6.263
    9AU     LIG 3659  29.025  15.391   6.162
    9AU     LIG 3660  29.202  15.144   5.811
    9AU     LIG 3661  29.285  15.001   5.378
    9AU     LIG 3662  29.554  15.052   5.000
    9AU       S 3663  28.923  16.052   6.832
    9AU     LIG 3664  29.049  16.279   6.447
    9AU     LIG 3665  29.249  16.482   6.065
    9AU     LIG 3666  29.443  16.666   5.667
    9AU     LIG 3667  29.350  16.963   5.294
    9AU    AUSL 3668  28.438  15.122   6.581
    9AU    AUSL 3669  28.925  15.109   6.938
    9AU     AUL 3670  28.821  15.265   6.647
    9AU       S 3671  29.044  14.848   6.711
    9AU     LIG 3672  29.161  14.530   6.353
    9AU     LIG 3673  29.421  14.140   6.248
    9AU     LIG 3674  29.727  13.804   6.072
    9AU     LIG 3675  30.190  13.662   5.947
    9AU       S 3676  28.577  15.188   6.247
    9AU     LIG 3677  28.845  14.881   6.083
    9AU     LIG 3678  28.917  14.723   5.648
    9AU     LIG 3679  28.890  14.732   5.178
    9AU     LIG 3680  29.108  14.760   4.768
    9AU    AUSL 3681  28.276  15.562   6.657
    9AU    AUSL 3682  28.051  15.180   6.767
    9AU     AUL 3683  28.161  15.216   6.439
    9AU       S 3684  27.715  15.198   6.306
    9AU     LIG 3685  27.811  14.951   5.935
    9AU     LIG 3686  27.618  14.722   5.566
    9AU     LIG 3687  27.448  14.767   5.125
    9AU     LIG 3688  27.435  14.908   4.674
    9AU       S 3689  28.371  15.590   6.274
    9AU     LIG 3690  28.432  15.391   5.799
    9AU     LIG 3691  28.776  15.205   5.498
    9AU     LIG 3692  28.956  15.234   5.045
    9AU     LIG 3693  28.922  15.430   4.602
    9AU    AUSL 3694  27.613  15.520   8.246
    9AU    AUSL 3695  27.955  15.851   8.117
    9AU     AUL 3696  27.799  15.807   8.451
    9AU       S 3697  27.603  15.431   8.676
    9AU     LIG 3698  27.406  15.105   8.921
    9AU     LIG 3699  27.184  15.027   9.327
    9AU     LIG 3700  27.008  15.086   9.757
    9AU     LIG 3701  26.789  15.067  10.176
    9AU       S 3702  27.540  16.127   8.180
    9AU     LIG 3703  27.640  16.317   8.568
    9AU     LIG 3704  27.526  16.591   8.926
    9AU     LIG 3705  27.217  16.868   9.113
    9AU     LIG 3706  27.112  17.167   9.458
    9AU    AUSL 3707  27.920  15.220   8.159
    9AU    AUSL 3708  27.494  15.092   8.142
    9AU     AUL 3709  27.411  15.323   8.269
    9AU       S 3710  27.396  14.866   8.390
    9AU     LIG 3711  26.964  14.744   8.223
    9AU     LIG 3712  26.759  14.346   8.371
    9AU     LIG 3713  26.528  14.046   8.655
    9AU     LIG 3714  26.335  13.872   9.046
    9AU       S 3715  27.780  15.167   8.550
    9AU     LIG 3716  27.854  14.850   8.865
    9AU     LIG 3717  27.662  14.807   9.284
    9AU     LIG 3718  27.463  14.814   9.716
    9AU     LIG 3719  27.260  14.832  10.143
    9AU    AUSL 3720  27.618  15.252   6.793
    9AU    AUSL 3721  27.815  14.863   6.940
    9AU     AUL 3722  27.859  14.901   6.629
    9AU       S 3723  27.510  15.124   6.405
    9AU     LIG 3724  27.309  15.038   5.982
    9AU     LIG 3725  27.184  15.008   5.521
    9AU     LIG 3726  26.954  14.981   5.107
    9AU     LIG 3727  26.517  15.089   4.922
    9AU       S 3728  27.454  14.772   6.805
    9AU     LIG 3729  27.544  14.457   6.546
    9AU     LIG 3730  27.265  14.120   6.406
    9AU     LIG 3731  26.981  13.870   6.135
    9AU     LIG 3732  26.941  13.583   5.766
    9AU    AUSL 3733  27.853  15.564   6.582
    9AU    AUSL 3734  27.477  15.654   6.930
    9AU     AUL 3735  27.479  15.516   6.644
    9AU       S 3736  27.216  15.889   6.730
    9AU     LIG 3737  27.064  16.244   6.513
    9AU     LIG 3738  27.034  16.374   6.088
    9AU     LIG 3739  26.814  16.691   5.855
    9AU     LIG 3740  26.448  16.809   5.586
    9AU       S 3741  27.777  15.455   6.288
    9AU     LIG 3742  27.627  15.431   5.857
    9AU     LIG 3743  27.641  15.226   5.448
    9AU     LIG 3744  27.472  15.284   5.017
    9AU     LIG 3745  27.484  15.409   4.547
    9AU    AUSL 3746  28.987  15.876   7.477
    9AU    AUSL 3747  28.926  15.640   7.062
    9AU     AUL 3748  29.258  15.927   7.186
    9AU       S 3749  29.024  15.685   6.900
    9AU     LIG 3750  29.228  15.788   6.507
    9AU     LIG 3751  29.520  16.098   6.306
    9AU     LIG 3752  29.757  16.412   6.041
    9AU     LIG 3753  29.925  16.451   5.597
    9AU       S 3754  29.392  15.969   7.622
    9AU     LIG 3755  29.813  15.960   7.367
    9AU     LIG 3756  30.264  15.930   7.477
    9AU     LIG 3757  30.609  16.251   7.512
    9AU     LIG 3758  30.687  16.711   7.598
    9AU    AUSL 3759  29.152  15.465   7.393
    9AU    AUSL 3760  29.076  15.167   7.747
    9AU     AUL 3761  29.311  15.358   7.816
    9AU       S 3762  29.435  15.569   7.418
    9AU     LIG 3763  29.871  15.453   7.283
    9AU     LIG 3764  30.267  15.610   7.067
    9AU     LIG 3765  30.747  15.548   6.985
    9AU     LIG 3766  31.220  15.645   7.063
    9AU       S 3767  29.374  14.932   7.606
    9AU     LIG 3768  29.829  14.846   7.666
    9AU     LIG 3769  30.256  14.681   7.635
    9AU     LIG 3770  30.687  14.515   7.717
    9AU     LIG 3771  31.018  14.538   8.041
    9AU    AUSL 3772  28.841  15.525   7.707
    9AU    AUSL 3773  28.796  15.978   7.854
    9AU     AUL 3774  29.061  15.757   7.872
    9AU       S 3775  29.004  16.130   8.161
    9AU     LIG 3776  29.301  16.379   8.438
    9AU     LIG 3777  29.659  16.641   8.644
    9AU     LIG 3778  29.961  16.982   8.852
    9AU     LIG 3779  30.249  17.410   8.838
    9AU       S 3780  29.443  15.754   7.619
    9AU     LIG 3781  29.860  15.620   7.766
    9AU     LIG 3782  30.317  15.640   7.901
    9AU     LIG 3783  30.711  15.875   7.853
    9AU     LIG 3784  31.176  15.773   7.840
    9AU    AUSL 3785  27.515  15.965   7.501
    9AU    AUSL 3786  27.594  15.747   7.885
    9AU     AUL 3787  27.292  16.070   7.735
    9AU       S 3788  27.455  15.934   8.139
    9AU     LIG 3789  27.319  15.882   8.572
    9AU     LIG 3790  27.174  16.208   8.875
    9AU     LIG 3791  26.861  16.477   9.105
    9AU     LIG 3792  26.431  16.533   9.301
    9AU       S 3793  27.499  16.352   7.419
    9AU     LIG 3794  27.003  16.280   7.356
    9AU     LIG 3795  26.524  16.453   7.435
    9AU     LIG 3796  26.121  16.756   7.376
    9AU     LIG 3797  25.973  17.192   7.199
    9AU    AUSL 3798  27.474  15.553   7.341
    9AU    AUSL 3799  27.630  16.041   7.091
    9AU     AUL 3800  27.315  15.907   7.191
    9AU       S 3801  27.107  15.386   6.975
    9AU     LIG 3802  26.830  15.811   7.064
    9AU     LIG 3803  26.443  16.117   7.058
    9AU     LIG 3804  26.020  16.380   7.036
    9AU     LIG 3805  25.593  16.460   6.832
    9AU       S 3806  27.472  16.279   6.904
    9AU     LIG 3807  27.445  16.581   6.543
    9AU     LIG 3808  27.131  16.834   6.286
    9AU     LIG 3809  26.887  17.175   6.055
    9AU     LIG 3810  26.631  17.505   5.804
    9AU    AUSL 3811  27.230  15.614   7.712
    9AU    AUSL 3812  27.190  15.239   7.409
    9AU     AUL 3813  27.083  15.568   7.418
    9AU       S 3814  26.990  15.171   7.678
    9AU     LIG 3815  26.656  15.154   7.345
    9AU     LIG 3816  26.175  15.007   7.306
    9AU     LIG 3817  25.700  14.851   7.345
    9AU     LIG 3818  25.414  14.466   7.267
    9AU       S 3819  27.119  15.636   7.935
    9AU     LIG 3820  26.699  15.699   7.734
    9AU     LIG 3821  26.336  16.039   7.720
    9AU     LIG 3822  25.930  16.301   7.831
    9AU     LIG 3823  25.493  16.400   8.023
    9AU    AUSL 3824  28.897  14.792   7.575
    9AU    AUSL 3825  28.687  15.058   7.891
    9AU     AUL 3826  29.035  14.953   7.943
    9AU       S 3827  29.222  14.696   7.583
    9AU     LIG 3828  29.610  14.500   7.369
    9AU     LIG 3829  30.041  14.260   7.420
    9AU     LIG 3830  30.507  14.113   7.445
    9AU     LIG 3831  30.785  13.921   7.785
    9AU       S 3832  28.892  14.536   8.045
    9AU     LIG 3833  29.167  14.346   8.382
    9AU     LIG 3834  29.426  14.073   8.651
    9AU     LIG 3835  29.705  13.820   8.911
    9AU     LIG 3836  29.970  13.632   9.234
    9AU    AUSL 3837  28.846  15.169   7.353
    9AU    AUSL 3838  28.805  14.732   7.151
    9AU     AUL 3839  29.071  14.914   7.197
    9AU       S 3840  29.418  15.062   7.438
    9AU     LIG 3841  29.748  14.965   7.169
    9AU     LIG 3842  30.082  14.678   7.140
    9AU     LIG 3843  30.534  14.609   7.203
    9AU     LIG 3844  30.854  14.301   7.090
    9AU       S 3845  29.005  14.598   6.841
    9AU     LIG 3846  29.133  14.145   6.706
    9AU     LIG 3847  29.266  13.711   6.493
    9AU     LIG 3848  29.550  13.369   6.300
    9AU     LIG 3849  29.986  13.216   6.149
    9AU    AUSL 3850  27.387  14.867   7.572
    9AU    AUSL 3851  27.528  15.096   7.183
    9AU     AUL 3852  27.168  14.951   7.287
    9AU       S 3853  27.322  14.891   6.859
    9AU     LIG 3854  27.034  14.518   6.681
    9AU     LIG 3855  26.750  14.242   6.421
    9AU     LIG 3856  26.467  14.017   6.116
    9AU     LIG 3857  26.102  14.046   5.808
    9AU       S 3858  26.949  14.913   7.710
    9AU     LIG 3859  26.504  14.707   7.587
    9AU     LIG 3860  26.055  14.496   7.503
    9AU     LIG 3861  25.691  14.163   7.562
    9AU     LIG 3862  25.235  13.994   7.481
    9AU    AUSL 3863  27.477  15.264   7.751
    9AU    AUSL 3864  27.725  14.874   7.842
    9AU     AUL 3865  27.374  14.856   7.898
    9AU       S 3866  27.437  14.636   8.293
    9AU     LIG 3867  27.217  14.292   8.111
    9AU     LIG 3868  26.947  13.907   8.162
    9AU     LIG 3869  26.729  13.607   8.447
    9AU     LIG 3870  26.604  13.287   8.765
    9AU       S 3871  27.035  15.172   7.862
    9AU     LIG 3872  26.503  15.156   7.836
    9AU     LIG 3873  26.038  14.926   7.792
    9AU     LIG 3874  25.629  14.632   7.806
    9AU     LIG 3875  25.193  14.553   8.012
    9AU    AUSL 3876  28.222  16.172   7.996
    9AU    AUSL 3877  27.808  16.115   7.792
    9AU     AUL 3878  27.998  16.191   8.200
    9AU       S 3879  27.687  16.299   7.869
    9AU     LIG 3880  27.674  16.623   8.136
    9AU     LIG 3881  27.394  16.788   8.473
    9AU     LIG 3882  27.215  17.159   8.683
    9AU     LIG 3883  26.915  17.311   8.997
    9AU       S 3884  28.308  16.513   7.976
    9AU     LIG 3885  28.141  16.679   8.331
    9AU     LIG 3886  28.252  17.062   8.514
    9AU     LIG 3887  28.091  17.421   8.671
    9AU     LIG 3888  28.112  17.845   8.834
    9AU    AUSL 3889  28.094  16.357   7.584
    9AU    AUSL 3890  28.384  16.274   7.234
    9AU     AUL 3891  28.342  16.631   7.376
    9AU       S 3892  28.125  16.566   7.780
    9AU     LIG 3893  28.091  16.988   7.918
    9AU     LIG 3894  28.085  17.397   8.104
    9AU     LIG 3895  27.936  17.760   8.330
    9AU     LIG 3896  27.555  18.009   8.369
    9AU       S 3897  28.082  16.467   7.042
    9AU     LIG 3898  28.494  16.710   6.919
    9AU     LIG 3899  28.533  17.144   6.807
    9AU     LIG 3900  28.501  17.584   6.654
    9AU     LIG 3901  28.453  18.052   6.617
    9AU    AUSL 3902  28.447  16.085   7.628
    9AU    AUSL 3903  28.432  15.800   8.014
    9AU     AUL 3904  28.541  16.124   8.073
    9AU       S 3905  28.809  15.987   8.413
    9AU     LIG 3906  29.086  16.052   8.774
    9AU     LIG 3907  29.347  16.381   8.976
    9AU     LIG 3908  29.588  16.743   9.155
    9AU     LIG 3909  29.778  16.977   9.517
    9AU       S 3910  28.556  16.401   7.709
    9AU     LIG 3911  28.585  16.871   7.775
    9AU     LIG 3912  28.552  17.191   8.114
    9AU     LIG 3913  28.471  17.593   8.369
    9AU     LIG 3914  28.359  18.054   8.413
    9AU    AUSL 3915  28.114  14.676   7.937
    9AU    AUSL 3916  28.534  14.662   7.776
    9AU     AUL 3917  28.329  14.528   8.150
    9AU       S 3918  28.085  14.168   7.993
    9AU     LIG 3919  28.094  13.805   8.256
    9AU     LIG 3920  27.889  13.390   8.299
    9AU     LIG 3921  27.832  12.928   8.288
    9AU     LIG 3922  28.050  12.650   8.582
    9AU       S 3923  28.701  14.457   7.862
    9AU     LIG 3924  28.866  14.036   8.093
    9AU     LIG 3925  29.177  13.742   8.347
    9AU     LIG 3926  29.508  13.471   8.586
    9AU     LIG 3927  29.908  13.319   8.808
    9AU    AUSL 3928  27.788  14.493   7.665
    9AU    AUSL 3929  27.882  14.814   8.269
    9AU     AUL 3930  27.790  14.537   8.021
    9AU       S 3931  27.893  14.109   7.839
    9AU     LIG 3932  27.746  13.669   7.883
    9AU     LIG 3933  27.722  13.192   7.835
    9AU     LIG 3934  27.466  12.804   7.922
    9AU     LIG 3935  27.232  12.642   8.282
    9AU       S 3936  27.635  14.704   8.450
    9AU     LIG 3937  27.238  14.409   8.655
    9AU     LIG 3938  27.040  13.996   8.663
    9AU     LIG 3939  26.824  13.714   8.954
    9AU     LIG 3940  26.648  13.601   9.370
    9AU    AUSL 3941  28.228  14.408   7.609
    9AU    AUSL 3942  27.993  14.677   7.323
    9AU     AUL 3943  27.895  14.325   7.425
    9AU       S 3944  28.237  14.239   7.142
    9AU     LIG 3945  27.842  13.969   7.084
    9AU     LIG 3946  27.760  13.510   7.143
    9AU     LIG 3947  27.753  13.040   7.052
    9AU     LIG 3948  27.644  12.681   6.764
    9AU       S 3949  28.241  14.202   7.755
    9AU     LIG 3950  28.247  13.701   7.774
    9AU     LIG 3951  28.233  13.223   7.953
    9AU     LIG 3952  28.299  12.763   8.144
    9AU     LIG 3953  28.587  12.455   8.366
    9AU    AUSL 3954  28.193  16.038   6.894
    9AU    AUSL 3955  28.630  15.924   7.237
    9AU     AUL 3956  28.474  16.198   6.893
    9AU       S 3957  28.078  16.471   6.818
    9AU     LIG 3958  28.130  16.855   6.572
    9AU     LIG 3959  28.307  17.210   6.340
    9AU     LIG 3960  28.328  17.639   6.161
    9AU     LIG 3961  28.352  17.852   5.747
    9AU       S 3962  28.866  16.132   7.101
    9AU     LIG 3963  29.281  16.376   6.906
    9AU     LIG 3964  29.507  16.571   6.517
    9AU     LIG 3965  29.801  16.896   6.303
    9AU     LIG 3966  30.077  17.320   6.319
    9AU    AUSL 3967  28.002  16.048   7.299
    9AU    AUSL 3968  27.913  15.725   6.969
    9AU     AUL 3969  27.884  16.055   6.847
    9AU       S 3970  27.916  16.429   7.152
    9AU     LIG 3971  28.044  16.954   7.077
    9AU     LIG 3972  28.053  17.333   6.776
    9AU     LIG 3973  28.018  17.775   6.624
    9AU     LIG 3974  27.961  18.252   6.690
    9AU       S 3975  27.501  16.000   6.617
    9AU     LIG 3976  27.512  16.191   6.218
    9AU     LIG 3977  27.494  16.590   5.989
    9AU     LIG 3978  27.269  16.937   5.786
    9AU     LIG 3979  26.889  17.099   5.539
    9AU    AUSL 3980  28.194  14.652   6.919
    9AU    AUSL 3981  27.574  14.649   7.246
    9AU     AUL 3982  27.844  14.510   6.983
    9AU       S 3983  27.386  14.617   7.040
    9AU     LIG 3984  27.347  14.187   6.940
    9AU     LIG 3985  26.967  13.950   6.789
    9AU     LIG 3986  26.655  13.720   6.512
    9AU     LIG 3987  26.431  13.351   6.297
    9AU       S 3988  28.243  14.255   6.931
    9AU     LIG 3989  28.204  13.847   6.740
    9AU     LIG 3990  27.978  13.448   6.673
    9AU     LIG 3991  28.032  12.989   6.617
    9AU     LIG 3992  28.122  12.522   6.628
    9AU    AUSL 3993  28.424  14.646   7.312
    9AU    AUSL 3994  28.476  14.973   6.977
    9AU     AUL 3995  28.545  14.604   6.936
    9AU       S 3996  28.466  14.254   7.236
    9AU     LIG 3997  28.291  13.758   7.247
    9AU     LIG 3998  28.232  13.287   7.093
    9AU     LIG 3999  28.383  12.840   6.974
    9AU     LIG 4000  28.642  12.485   6.780
    9AU       S 4001  28.787  14.791   6.601
    9AU     LIG 4002  28.692  14.356   6.504
    9AU     LIG 4003  28.911  14.021   6.257
    9AU     LIG 4004  29.185  13.771   5.961
    9AU     LIG 4005  29.192  13.774   5.482
   10AU     AUC 4006  17.817  14.113   7.501
   10AU     AUC 4007  18.087  14.126   7.328
   10AU     AUC 4008  18.066  14.102   7.674
   10AU     AUC 4009  17.542  14.115   7.337
   10AU     AUC 4010  17.557  14.152   7.682
   10AU     AUC 4011  17.654  14.395   7.500
   10AU     AUC 4012  18.008  14.380   7.494
   10AU     AUC 4013  17.632  13.856   7.509
   10AU     AUC 4014  17.985  13.829   7.503
   10AU     AUC 4015  17.819  13.940   7.774
   10AU     AUC 4016  17.812  14.282   7.768
   10AU     AUC 4017  17.811  13.948   7.233
   10AU     AUC 4018  17.843  14.266   7.228
   10AU     AUC 4019  18.409  14.121   7.174
   10AU     AUC 4020  18.422  14.099   7.515
   10AU     AUC 4021  18.360  14.082   7.876
   10AU     AUC 4022  17.228  14.108   7.171
   10AU     AUC 4023  17.209  14.153   7.529
   10AU     AUC 4024  17.258  14.187   7.859
   10AU     AUC 4025  17.502  14.722   7.477
   10AU     AUC 4026  17.856  14.724   7.470
   10AU     AUC 4027  18.221  14.662   7.485
   10AU     AUC 4028  17.430  13.572   7.516
   10AU     AUC 4029  17.789  13.518   7.483
   10AU     AUC 4030  18.163  13.528   7.487
   10AU     AUC 4031  17.794  13.763   8.065
   10AU     AUC 4032  17.826  14.131   8.121
   10AU     AUC 4033  17.844  14.461   8.066
   10AU     AUC 4034  17.837  13.769   6.954
   10AU     AUC 4035  17.803  14.098   6.889
   10AU     AUC 4036  17.824  14.432   6.907
   10AU     AUC 4037  18.076  13.903   8.013
   10AU     AUC 4038  18.127  14.252   8.012
   10AU     AUC 4039  18.141  13.952   7.012
   10AU     AUC 4040  18.124  14.296   7.008
   10AU     AUC 4041  17.507  13.995   8.015
   10AU     AUC 4042  17.541  14.367   7.981
   10AU     AUC 4043  17.506  13.922   7.049
   10AU     AUC 4044  17.486  14.257   7.005
   10AU     AUC 4045  18.349  14.397   7.296
   10AU     AUC 4046  18.315  14.388   7.666
   10AU     AUC 4047  17.338  14.427   7.327
   10AU     AUC 4048  17.359  14.481   7.677
   10AU     AUC 4049  18.313  13.815   7.353
   10AU     AUC 4050  18.265  13.771   7.698
   10AU     AUC 4051  17.300  13.811   7.363
   10AU     AUC 4052  17.343  13.871   7.712
   10AU     AUC 4053  17.682  14.660   7.771
   10AU     AUC 4054  18.029  14.576   7.760
   10AU     AUC 4055  17.618  13.649   7.794
   10AU     AUC 4056  17.945  13.592   7.773
   10AU     AUC 4057  17.657  14.559   7.200
   10AU     AUC 4058  18.027  14.584   7.167
   10AU     AUC 4059  17.626  13.644   7.209
   10AU     AUC 4060  18.030  13.667   7.212
   10AU    AUSL 4061  18.343  13.963   8.282
   10AU    AUSL 4062  18.094  13.584   8.174
   10AU     AUL 4063  18.265  13.551   8.524
   10AU       S 4064  18.449  13.361   8.150
   10AU     LIG 4065  18.313  13.052   8.449
   10AU     LIG 4066  18.545  12.826   8.761
   10AU     LIG 4067  18.800  12.503   8.970
   10AU     LIG 4068  19.065  12.314   9.310
   10AU       S 4069  18.501  13.883   8.338
   10AU     LIG 4070  18.455  13.907   8.833
   10AU     LIG 4071  18.655  13.984   9.264
   10AU     LIG 4072  18.893  13.838   9.645
   10AU     LIG 4073  19.170  13.854  10.025
   10AU    AUSL 4074  17.917  13.916   8.407
   10AU    AUSL 4075  17.668  14.301   8.421
   10AU     AUL 4076  17.862  14.236   8.762
   10AU       S 4077  17.942  13.860   8.527
   10AU     LIG 4078  17.964  13.766   8.960
   10AU     LIG 4079  18.235  13.703   9.350
   10AU     LIG 4080  18.464  13.540   9.745
   10AU     LIG 4081  18.474  13.343  10.189
   10AU       S 4082  17.465  14.054   8.622
   10AU     LIG 4083  17.534  14.044   9.092
   10AU     LIG 4084  17.286  14.077   9.475
   10AU     LIG 4085  16.995  14.179   9.819
   10AU     LIG 4086  16.918  14.470  10.175
   10AU    AUSL 4087  18.093  14.333   8.368
   10AU    AUSL 4088  18.476  14.349   8.115
   10AU     AUL 4089  18.361  14.271   8.518
   10AU       S 4090  18.004  14.637   8.497
   10AU     LIG 4091  18.249  14.560   8.901
   10AU     LIG 4092  18.469  14.483   9.326
   10AU     LIG 4093  18.534  14.537   9.810
   10AU     LIG 4094  18.598  14.731  10.244
   10AU       S 4095  18.592  14.608   8.295
   10AU     LIG 4096  19.004  14.553   8.397
   10AU     LIG 4097  19.276  14.785   8.700
   10AU     LIG 4098  19.499  15.071   9.009
   10AU     LIG 4099  19.659  15.306   9.383
   10AU    AUSL 4100  18.258  14.161   6.862
   10AU    AUSL 4101  18.206  14.600   6.812
   10AU     AUL 4102  18.355  14.488   6.565
   10AU       S 4103  18.224  14.187   6.257
   10AU     LIG 4104  18.665  14.175   6.175
   10AU     LIG 4105  18.865  13.960   5.829
   10AU     LIG 4106  18.932  13.885   5.382
   10AU     LIG 4107  18.986  13.857   4.919
   10AU       S 4108  18.569  14.809   6.823
   10AU     LIG 4109  18.693  15.028   6.430
   10AU     LIG 4110  18.887  15.267   6.057
   10AU     LIG 4111  19.109  15.547   5.742
   10AU     LIG 4112  19.248  15.611   5.291
   10AU    AUSL 4113  18.085  13.877   6.571
   10AU    AUSL 4114  18.573  13.875   6.931
   10AU     AUL 4115  18.463  14.027   6.640
   10AU       S 4116  18.699  13.618   6.703
   10AU     LIG 4117  18.790  13.290   6.347
   10AU     LIG 4118  19.033  12.913   6.215
   10AU     LIG 4119  19.315  12.678   5.925
   10AU     LIG 4120  19.706  12.762   5.654
   10AU       S 4121  18.222  13.950   6.238
   10AU     LIG 4122  18.507  13.661   6.070
   10AU     LIG 4123  18.597  13.554   5.616
   10AU     LIG 4124  18.569  13.609   5.137
   10AU     LIG 4125  18.717  13.467   4.697
   10AU    AUSL 4126  17.913  14.313   6.646
   10AU    AUSL 4127  17.700  13.922   6.763
   10AU     AUL 4128  17.806  13.967   6.431
   10AU       S 4129  17.364  13.939   6.300
   10AU     LIG 4130  17.422  13.739   5.910
   10AU     LIG 4131  17.151  13.519   5.609
   10AU     LIG 4132  16.980  13.570   5.194
   10AU     LIG 4133  17.076  13.598   4.734
   10AU       S 4134  18.007  14.348   6.272
   10AU     LIG 4135  18.071  14.175   5.797
   10AU     LIG 4136  18.432  14.038   5.520
   10AU     LIG 4137  18.579  14.135   5.085
   10AU     LIG 4138  18.575  14.376   4.674
   10AU    AUSL 4139  17.265  14.262   8.241
   10AU    AUSL 4140  17.602  14.595   8.114
   10AU     AUL 4141  17.453  14.543   8.453
   10AU       S 4142  17.261  14.163   8.673
   10AU     LIG 4143  17.029  13.964   8.995
   10AU     LIG 4144  16.799  13.922   9.397
   10AU     LIG 4145  16.587  13.850   9.805
   10AU     LIG 4146  16.182  13.872  10.038
   10AU       S 4147  17.191  14.846   8.188
   10AU     LIG 4148  17.171  14.964   8.605
   10AU     LIG 4149  16.946  15.247   8.882
   10AU     LIG 4150  16.660  15.308   9.249
   10AU     LIG 4151  16.442  15.523   9.612
   10AU    AUSL 4152  17.572  13.962   8.153
   10AU    AUSL 4153  17.145  13.836   8.130
   10AU     AUL 4154  17.066  14.063   8.266
   10AU       S 4155  17.045  13.605   8.376
   10AU     LIG 4156  16.615  13.483   8.211
   10AU     LIG 4157  16.396  13.115   8.380
   10AU     LIG 4158  16.169  12.896   8.731
   10AU     LIG 4159  15.939  12.531   8.922
   10AU       S 4160  17.434  13.906   8.545
   10AU     LIG 4161  17.392  13.608   8.888
   10AU     LIG 4162  17.216  13.594   9.310
   10AU     LIG 4163  17.081  13.661   9.753
   10AU     LIG 4164  17.015  13.519  10.197
   10AU    AUSL 4165  17.264  13.974   6.782
   10AU    AUSL 4166  17.469  13.600   6.935
   10AU     AUL 4167  17.517  13.638   6.620
   10AU       S 4168  17.176  13.841   6.373
   10AU     LIG 4169  16.913  13.769   6.009
   10AU     LIG 4170  16.748  13.860   5.577
   10AU     LIG 4171  16.523  13.845   5.168
   10AU     LIG 4172  16.108  13.899   4.942
   10AU       S 4173  17.115  13.498   6.800
   10AU     LIG 4174  17.157  13.163   6.547
   10AU     LIG 4175  16.824  12.942   6.316
   10AU     LIG 4176  16.566  12.704   6.015
   10AU     LIG 4177  16.509  12.649   5.542
   10AU    AUSL 4178  17.486  14.298   6.587
   10AU    AUSL 4179  17.144  14.386   6.913
   10AU     AUL 4180  17.068  14.176   6.662
   10AU       S 4181  17.087  14.626   6.678
   10AU     LIG 4182  16.673  14.664   6.612
   10AU     LIG 4183  16.423  14.850   6.276
   10AU     LIG 4184  16.279  14.981   5.851
   10AU     LIG 4185  16.084  15.265   5.534
   10AU       S 4186  17.402  14.215   6.329
   10AU     LIG 4187  17.187  14.209   5.915
   10AU     LIG 4188  17.220  14.022   5.492
   10AU     LIG 4189  16.995  14.073   5.089
   10AU     LIG 4190  16.943  14.361   4.725
   10AU    AUSL 4191  18.633  14.623   7.466
   10AU    AUSL 4192  18.567  14.395   7.051
   10AU     AUL 4193  18.916  14.686   7.160
   10AU       S 4194  18.660  14.442   6.896
   10AU     LIG 4195  18.877  14.544   6.506
   10AU     LIG 4196  19.137  14.831   6.230
   10AU     LIG 4197  19.385  15.156   5.980
   10AU     LIG 4198  19.595  15.384   5.614
   10AU       S 4199  19.012  14.715   7.605
   10AU     LIG 4200  19.457  14.792   7.419
   10AU     LIG 4201  19.915  14.914   7.501
   10AU     LIG 4202  20.337  15.139   7.490
   10AU     LIG 4203  20.709  15.393   7.321
   10AU    AUSL 4204  18.795  14.210   7.376
   10AU    AUSL 4205  18.729  13.916   7.733
   10AU     AUL 4206  18.983  14.097   7.800
   10AU       S 4207  18.989  14.294   7.385
   10AU     LIG 4208  19.410  14.238   7.274
   10AU     LIG 4209  19.821  14.455   7.252
   10AU     LIG 4210  20.267  14.615   7.266
   10AU     LIG 4211  20.685  14.842   7.270
   10AU       S 4212  19.023  13.658   7.606
   10AU     LIG 4213  19.436  13.526   7.776
   10AU     LIG 4214  19.852  13.295   7.708
   10AU     LIG 4215  20.217  13.047   7.868
   10AU     LIG 4216  20.653  13.165   7.978
   10AU    AUSL 4217  18.489  14.271   7.696
   10AU    AUSL 4218  18.445  14.721   7.846
   10AU     AUL 4219  18.714  14.481   7.864
   10AU       S 4220  18.654  14.872   8.124
   10AU     LIG 4221  18.912  15.063   8.441
   10AU     LIG 4222  19.224  15.321   8.657
   10AU     LIG 4223  19.394  15.691   8.883
   10AU     LIG 4224  19.422  16.176   8.824
   10AU       S 4225  19.086  14.500   7.593
   10AU     LIG 4226  19.498  14.400   7.753
   10AU     LIG 4227  19.964  14.462   7.745
   10AU     LIG 4228  20.370  14.694   7.758
   10AU     LIG 4229  20.830  14.761   7.785
   10AU    AUSL 4230  17.154  14.714   7.503
   10AU    AUSL 4231  17.248  14.484   7.877
   10AU     AUL 4232  16.939  14.810   7.747
   10AU       S 4233  17.094  14.676   8.155
   10AU     LIG 4234  16.716  14.783   8.399
   10AU     LIG 4235  16.552  14.911   8.831
   10AU     LIG 4236  16.239  15.023   9.168
   10AU     LIG 4237  16.035  15.186   9.552
   10AU       S 4238  17.156  15.086   7.430
   10AU     LIG 4239  16.676  15.012   7.337
   10AU     LIG 4240  16.256  15.274   7.291
   10AU     LIG 4241  15.785  15.425   7.318
   10AU     LIG 4242  15.358  15.422   7.545
   10AU    AUSL 4243  17.117  14.309   7.330
   10AU    AUSL 4244  17.273  14.780   7.093
   10AU     AUL 4245  16.959  14.637   7.156
   10AU       S 4246  16.722  14.203   6.994
   10AU     LIG 4247  16.436  14.583   7.058
   10AU     LIG 4248  16.103  14.835   6.818
   10AU     LIG 4249  15.655  15.015   6.821
   10AU     LIG 4250  15.201  15.212   6.814
   10AU       S 4251  17.099  15.040   6.902
   10AU     LIG 4252  16.840  15.144   6.495
   10AU     LIG 4253  16.591  15.489   6.235
   10AU     LIG 4254  16.375  15.950   6.196
   10AU     LIG 4255  16.007  16.277   6.140
   10AU    AUSL 4256  16.879  14.355   7.713
   10AU    AUSL 4257  16.842  13.989   7.393
   10AU     AUL 4258  16.733  14.336   7.440
   10AU       S 4259  16.623  13.918   7.653
   10AU     LIG 4260  16.344  13.918   7.262
   10AU     LIG 4261  15.887  13.774   7.124
   10AU     LIG 4262  15.431  13.610   7.049
   10AU     LIG 4263  14.968  13.585   6.951
   10AU       S 4264  16.775  14.368   7.952
   10AU     LIG 4265  16.415  14.626   7.950
   10AU     LIG 4266  15.982  14.632   8.149
   10AU     LIG 4267  15.544  14.813   8.099
   10AU     LIG 4268  15.088  14.915   8.180
   10AU    AUSL 4269  18.547  13.543   7.564
   10AU    AUSL 4270  18.341  13.809   7.883
   10AU     AUL 4271  18.686  13.710   7.939
   10AU       S 4272  18.839  13.439   7.573
   10AU     LIG 4273  19.203  13.165   7.487
   10AU     LIG 4274  19.636  13.031   7.333
   10AU     LIG 4275  20.102  12.881   7.386
   10AU     LIG 4276  20.320  12.456   7.504
   10AU       S 4277  18.560  13.280   8.013
   10AU     LIG 4278  18.819  13.064   8.345
   10AU     LIG 4279  19.065  12.830   8.663
   10AU     LIG 4280  19.322  12.602   8.968
   10AU     LIG 4281  19.600  12.581   9.347
   10AU    AUSL 4282  18.486  13.920   7.346
   10AU    AUSL 4283  18.459  13.491   7.138
   10AU     AUL 4284  18.723  13.687   7.191
   10AU       S 4285  19.080  13.790   7.437
   10AU     LIG 4286  19.472  13.552   7.269
   10AU     LIG 4287  19.945  13.433   7.207
   10AU     LIG 4288  20.379  13.573   7.027
   10AU     LIG 4289  20.859  13.645   7.104
   10AU       S 4290  18.654  13.379   6.831
   10AU     LIG 4291  18.674  12.938   6.727
   10AU     LIG 4292  18.843  12.551   6.526
   10AU     LIG 4293  19.107  12.306   6.233
   10AU     LIG 4294  19.212  11.888   6.037
   10AU    AUSL 4295  17.032  13.612   7.562
   10AU    AUSL 4296  17.184  13.838   7.179
   10AU     AUL 4297  16.825  13.700   7.267
   10AU       S 4298  16.979  13.612   6.845
   10AU     LIG 4299  16.728  13.456   6.482
   10AU     LIG 4300  16.370  13.167   6.440
   10AU     LIG 4301  16.119  12.838   6.239
   10AU     LIG 4302  16.071  12.587   5.849
   10AU       S 4303  16.596  13.663   7.685
   10AU     LIG 4304  16.102  13.602   7.569
   10AU     LIG 4305  15.637  13.456   7.507
   10AU     LIG 4306  15.404  13.021   7.575
   10AU     LIG 4307  15.539  12.548   7.584
   10AU    AUSL 4308  17.127  14.007   7.738
   10AU    AUSL 4309  17.373  13.617   7.829
   10AU     AUL 4310  17.019  13.604   7.887
   10AU       S 4311  17.082  13.372   8.275
   10AU     LIG 4312  16.877  12.990   8.161
   10AU     LIG 4313  16.554  12.652   8.196
   10AU     LIG 4314  16.238  12.449   8.480
   10AU     LIG 4315  15.889  12.130   8.581
   10AU       S 4316  16.680  13.915   7.845
   10AU     LIG 4317  16.232  13.770   8.024
   10AU     LIG 4318  15.753  13.796   7.913
   10AU     LIG 4319  15.334  13.530   7.918
   10AU     LIG 4320  14.921  13.277   7.938
   10AU    AUSL 4321  17.867  14.917   7.996
   10AU    AUSL 4322  17.448  14.862   7.795
   10AU     AUL 4323  17.644  14.935   8.199
   10AU       S 4324  17.304  15.072   7.909
   10AU     LIG 4325  16.976  15.287   8.238
   10AU     LIG 4326  16.807  15.637   8.544
   10AU     LIG 4327  16.677  16.109   8.663
   10AU     LIG 4328  16.437  16.544   8.711
   10AU       S 4329  17.963  15.258   7.976
   10AU     LIG 4330  18.142  15.455   8.314
   10AU     LIG 4331  18.079  15.881   8.471
   10AU     LIG 4332  17.975  16.307   8.618
   10AU     LIG 4333  17.893  16.528   9.027
   10AU    AUSL 4334  17.736  15.105   7.592
   10AU    AUSL 4335  18.030  15.032   7.241
   10AU     AUL 4336  17.987  15.390   7.403
   10AU       S 4337  17.757  15.323   7.800
   10AU     LIG 4338  17.872  15.760   7.985
   10AU     LIG 4339  17.865  16.218   8.114
   10AU     LIG 4340  17.636  16.621   8.233
   10AU     LIG 4341  17.311  16.764   8.542
   10AU       S 4342  17.757  15.246   7.043
   10AU     LIG 4343  18.180  15.481   6.966
   10AU     LIG 4344  18.238  15.952   6.911
   10AU     LIG 4345  18.281  16.416   6.754
   10AU     LIG 4346  18.251  16.891   6.857
   10AU    AUSL 4347  18.092  14.833   7.628
   10AU    AUSL 4348  18.080  14.546   8.009
   10AU     AUL 4349  18.185  14.864   8.076
   10AU       S 4350  18.468  14.736   8.405
   10AU     LIG 4351  18.721  14.743   8.791
   10AU     LIG 4352  18.970  15.053   9.019
   10AU     LIG 4353  19.165  15.392   9.261
   10AU     LIG 4354  19.205  15.585   9.689
   10AU       S 4355  18.204  15.142   7.716
   10AU     LIG 4356  18.341  15.569   7.842
   10AU     LIG 4357  18.342  15.992   8.044
   10AU     LIG 4358  18.333  16.459   8.114
   10AU     LIG 4359  18.357  16.922   8.049
   10AU    AUSL 4360  17.767  13.428   7.928
   10AU    AUSL 4361  18.187  13.413   7.769
   10AU     AUL 4362  17.984  13.279   8.144
   10AU       S 4363  17.740  12.921   7.988
   10AU     LIG 4364  17.771  12.610   8.287
   10AU     LIG 4365  17.524  12.258   8.435
   10AU     LIG 4366  17.470  11.808   8.426
   10AU     LIG 4367  17.627  11.403   8.540
   10AU       S 4368  18.350  13.211   7.848
   10AU     LIG 4369  18.469  12.786   8.047
   10AU     LIG 4370  18.742  12.546   8.374
   10AU     LIG 4371  19.084  12.280   8.596
   10AU     LIG 4372  19.283  11.827   8.606
   10AU    AUSL 4373  17.445  13.235   7.658
   10AU    AUSL 4374  17.527  13.556   8.258
   10AU     AUL 4375  17.441  13.285   8.011
   10AU       S 4376  17.550  12.861   7.836
   10AU     LIG 4377  17.342  12.510   8.012
   10AU     LIG 4378  17.196  12.077   8.060
   10AU     LIG 4379  17.286  11.638   7.984
   10AU     LIG 4380  17.457  11.217   8.081
   10AU       S 4381  17.285  13.448   8.437
   10AU     LIG 4382  16.888  13.186   8.666
   10AU     LIG 4383  16.671  12.782   8.677
   10AU     LIG 4384  16.451  12.497   8.957
   10AU     LIG 4385  16.313  12.337   9.372
   10AU    AUSL 4386  17.886  13.155   7.603
   10AU    AUSL 4387  17.650  13.422   7.318
   10AU     AUL 4388  17.556  13.068   7.420
   10AU       S 4389  17.897  12.980   7.138
   10AU     LIG 4390  17.508  12.698   7.097
   10AU     LIG 4391  17.363  12.247   7.074
   10AU     LIG 4392  17.336  11.767   7.010
   10AU     LIG 4393  17.323  11.345   6.789
   10AU       S 4394  17.898  12.954   7.754
   10AU     LIG 4395  17.857  12.464   7.783
   10AU     LIG 4396  17.711  12.055   7.993
   10AU     LIG 4397  17.804  11.592   8.078
   10AU     LIG 4398  17.950  11.151   8.215
   10AU    AUSL 4399  17.839  14.813   6.893
   10AU    AUSL 4400  18.273  14.680   7.232
   10AU     AUL 4401  18.125  14.954   6.894
   10AU       S 4402  17.755  15.245   6.809
   10AU     LIG 4403  17.920  15.596   6.546
   10AU     LIG 4404  18.046  16.035   6.447
   10AU     LIG 4405  18.243  16.377   6.200
   10AU     LIG 4406  18.306  16.539   5.756
   10AU       S 4407  18.516  14.885   7.098
   10AU     LIG 4408  18.924  15.133   6.896
   10AU     LIG 4409  19.158  15.278   6.498
   10AU     LIG 4410  19.326  15.620   6.217
   10AU     LIG 4411  19.525  16.055   6.250
   10AU    AUSL 4412  17.646  14.805   7.299
   10AU    AUSL 4413  17.573  14.488   6.956
   10AU     AUL 4414  17.529  14.847   6.878
   10AU       S 4415  17.564  15.220   7.161
   10AU     LIG 4416  17.721  15.737   7.010
   10AU     LIG 4417  17.777  16.235   6.873
   10AU     LIG 4418  17.591  16.730   6.907
   10AU     LIG 4419  17.220  17.082   6.864
   10AU       S 4420  17.230  14.716   6.571
   10AU     LIG 4421  16.975  14.739   6.188
   10AU     LIG 4422  16.775  15.079   5.951
   10AU     LIG 4423  16.606  15.307   5.579
   10AU     LIG 4424  16.646  15.565   5.185
   10AU    AUSL 4425  17.850  13.393   6.914
   10AU    AUSL 4426  17.230  13.391   7.245
   10AU     AUL 4427  17.501  13.250   6.981
   10AU       S 4428  17.033  13.343   7.031
   10AU     LIG 4429  16.725  13.048   6.818
   10AU     LIG 4430  16.468  12.681   6.598
   10AU     LIG 4431  16.108  12.363   6.469
   10AU     LIG 4432  15.733  12.035   6.535
   10AU       S 4433  17.900  12.990   6.920
   10AU     LIG 4434  17.838  12.561   6.734
   10AU     LIG 4435  17.579  12.185   6.607
   10AU     LIG 4436  17.492  11.736   6.510
   10AU     LIG 4437  17.454  11.314   6.295
   10AU    AUSL 4438  18.083  13.391   7.305
   10AU    AUSL 4439  18.124  13.722   6.966
   10AU     AUL 4440  18.198  13.346   6.932
   10AU       S 4441  18.123  12.994   7.232
   10AU     LIG 4442  17.965  12.495   7.235
   10AU     LIG 4443  17.833  12.045   7.033
   10AU     LIG 4444  17.803  11.556   6.919
   10AU     LIG 4445  18.086  11.165   6.915
   10AU       S 4446  18.434  13.553   6.602
   10AU     LIG 4447  18.294  13.163   6.463
   10AU     LIG 4448  18.514  12.829   6.234
   10AU     LIG 4449  18.769  12.565   5.942
   10AU     LIG 4450  18.844  12.259   5.596
   11POPC   NC3 4451   4.471   6.284   9.271
   11POPC   PO4 4452   4.705   6.802   9.596
   11POPC   GL1 4453   4.463   6.802   9.149
   11POPC   GL2 4454   4.121   6.581   9.043
   11POPC   C1A 4455   4.408   6.785   8.664
   11POPC   D2A 4456   4.073   6.627   8.350
   11POPC   C3A 4457   4.049   6.801   7.935
   11POPC   C4A 4458   4.360   7.000   7.677
   11POPC   C1B 4459   4.273   6.277   8.695
   11POPC   C2B 4460   4.520   6.340   8.358
   11POPC   C3B 4461   4.381   6.235   7.966
   11POPC   C4B 4462   4.299   6.462   7.644
   12POPC   NC3 4463  25.141   1.075   9.548
   12POPC   PO4 4464  25.494   1.654   9.443
   12POPC   GL1 4465  25.340   1.326   9.110
   12POPC   GL2 4466  25.480   1.001   9.096
   12POPC   C1A 4467  25.335   1.197   8.634
   12POPC   D2A 4468  25.596   1.256   8.231
   12POPC   C3A 4469  25.416   1.254   7.806
   12POPC   C4A 4470  24.974   1.363   7.810
   12POPC   C1B 4471  25.357   0.699   8.785
   12POPC   C2B 4472  25.194   0.621   8.394
   12POPC   C3B 4473  25.262   0.793   8.006
   12POPC   C4B 4474  25.082   0.800   7.597
   13POPC   NC3 4475  14.861  20.084   9.590
   13POPC   PO4 4476  15.518  20.145   9.578
   13POPC   GL1 4477  15.299  19.890   9.265
   13POPC   GL2 4478  15.011  20.045   9.108
   13POPC   C1A 4479  15.346  19.695   8.853
   13POPC   D2A 4480  15.635  19.577   8.506
   13POPC   C3A 4481  15.526  19.684   8.080
   13POPC   C4A 4482  15.128  19.648   7.859
   13POPC   C1B 4483  14.862  19.918   8.718
   13POPC   C2B 4484  14.951  19.925   8.274
   13POPC   C3B 4485  14.757  19.993   7.867
   13POPC   C4B 4486  14.889  20.147   7.473
   14POPC   NC3 4487  38.545  26.024   9.608
   14POPC   PO4 4488  38.483  26.635   9.409
   14POPC   GL1 4489  38.656  26.220   9.166
   14POPC   GL2 4490  38.834  25.861   9.218
   14POPC   C1A 4491  38.667  26.019   8.745
   14POPC   D2A 4492  38.509  25.838   8.350
   14POPC   C3A 4493  38.573  26.095   8.005
   14POPC   C4A 4494  38.258  26.116   7.689
   14POPC   C1B 4495  39.026  25.661   8.842
   14POPC   C2B 4496  39.035  25.800   8.409
   14POPC   C3B 4497  38.909  25.686   8.000
   14POPC   C4B 4498  38.872  25.907   7.610
   15POPC   NC3 4499   8.350  10.720   9.316
   15POPC   PO4 4500   8.571  10.238   9.682
   15POPC   GL1 4501   8.466  10.268   9.137
   15POPC   GL2 4502   8.125  10.430   8.979
   15POPC   C1A 4503   8.364  10.192   8.632
   15POPC   D2A 4504   7.932  10.405   8.470
   15POPC   C3A 4505   7.742  10.250   8.089
   15POPC   C4A 4506   7.932  10.375   7.703
   15POPC   C1B 4507   8.326  10.708   8.653
   15POPC   C2B 4508   8.350  10.568   8.228
   15POPC   C3B 4509   8.378  10.573   7.798
   15POPC   C4B 4510   8.677  10.721   7.531
   16POPC   NC3 4511  20.631   4.520   9.423
   16POPC   PO4 4512  20.907   3.926   9.235
   16POPC   GL1 4513  20.657   4.204   9.026
   16POPC   GL2 4514  20.337   4.213   9.134
   16POPC   C1A 4515  20.759   4.517   8.743
   16POPC   D2A 4516  20.967   4.382   8.368
   16POPC   C3A 4517  20.753   4.538   8.001
   16POPC   C4A 4518  20.918   4.723   7.640
   16POPC   C1B 4519  20.249   4.392   8.757
   16POPC   C2B 4520  20.429   4.274   8.385
   16POPC   C3B 4521  20.298   4.298   7.977
   16POPC   C4B 4522  20.362   4.193   7.553
   17POPC   NC3 4523  10.781  44.694   9.822
   17POPC   PO4 4524  10.225  44.323   9.685
   17POPC   GL1 4525  10.389  44.590   9.336
   17POPC   GL2 4526  10.730  44.661   9.280
   17POPC   C1A 4527  10.360  44.753   8.900
   17POPC   D2A 4528  10.531  44.657   8.483
   17POPC   C3A 4529  10.476  44.874   8.090
   17POPC   C4A 4530  10.244  44.792   7.719
   17POPC   C1B 4531  10.885  44.784   8.860
   17POPC   C2B 4532  11.041  44.675   8.435
   17POPC   C3B 4533  10.861  44.488   8.079
   17POPC   C4B 4534  10.753  44.614   7.651
   18POPC   NC3 4535  10.531  40.060   9.478
   18POPC   PO4 4536  10.529  39.464   9.474
   18POPC   GL1 4537  10.549  39.718   9.075
   18POPC   GL2 4538  10.333  40.041   9.025
   18POPC   C1A 4539  10.740  40.001   8.750
   18POPC   D2A 4540  10.557  40.308   8.473
   18POPC   C3A 4541  10.634  40.177   8.046
   18POPC   C4A 4542  10.635  40.212   7.614
   18POPC   C1B 4543  10.213  39.825   8.667
   18POPC   C2B 4544  10.251  39.876   8.229
   18POPC   C3B 4545  10.135  40.046   7.847
   18POPC   C4B 4546  10.155  40.160   7.421
   19POPC   NC3 4547  26.094  10.611   9.502
   19POPC   PO4 4548  25.401  10.521   9.634
   19POPC   GL1 4549  25.698  10.421   9.244
   19POPC   GL2 4550  25.826  10.728   9.039
   19POPC   C1A 4551  25.855  10.335   8.772
   19POPC   D2A 4552  25.927  10.636   8.382
   19POPC   C3A 4553  26.031  10.429   7.969
   19POPC   C4A 4554  25.791  10.163   7.753
   19POPC   C1B 4555  26.255  10.711   8.777
   19POPC   C2B 4556  26.345  10.938   8.351
   19POPC   C3B 4557  26.556  10.820   7.970
   19POPC   C4B 4558  26.467  10.786   7.499
   20POPC   NC3 4559  22.513  14.137   9.404
   20POPC   PO4 4560  22.104  14.670   9.457
   20POPC   GL1 4561  22.279  14.451   9.088
   20POPC   GL2 4562  22.141  14.092   9.052
   20POPC   C1A 4563  22.393  14.335   8.676
   20POPC   D2A 4564  22.137  14.519   8.348
   20POPC   C3A 4565  22.247  14.449   7.913
   20POPC   C4A 4566  22.244  14.210   7.530
   20POPC   C1B 4567  21.983  14.062   8.611
   20POPC   C2B 4568  22.030  14.047   8.152
   20POPC   C3B 4569  21.807  14.209   7.770
   20POPC   C4B 4570  21.780  14.128   7.297
   21POPC   NC3 4571  31.962   0.235   9.353
   21POPC   PO4 4572  32.324   0.580   9.734
   21POPC   GL1 4573  32.319   0.595   9.259
   21POPC   GL2 4574  32.602   0.418   9.105
   21POPC   C1A 4575  32.167   0.462   8.803
   21POPC   D2A 4576  32.026   0.379   8.373
   21POPC   C3A 4577  32.010   0.577   7.999
   21POPC   C4A 4578  32.022   0.201   7.787
   21POPC   C1B 4579  32.575   0.783   8.862
   21POPC   C2B 4580  32.481   0.645   8.467
   21POPC   C3B 4581  32.495   0.504   8.095
   21POPC   C4B 4582  32.522   0.755   7.788
   22POPC   NC3 4583  12.782  34.873   9.397
   22POPC   PO4 4584  12.954  34.216   9.413
   22POPC   GL1 4585  12.969  34.460   9.103
   22POPC   GL2 4586  13.234  34.707   9.180
   22POPC   C1A 4587  12.702  34.562   8.776
   22POPC   D2A 4588  12.687  34.366   8.404
   22POPC   C3A 4589  12.660  34.608   8.056
   22POPC   C4A 4590  12.712  34.388   7.699
   22POPC   C1B 4591  13.233  34.660   8.721
   22POPC   C2B 4592  12.994  34.813   8.388
   22POPC   C3B 4593  13.052  34.920   7.951
   22POPC   C4B 4594  13.374  34.911   7.654
   23POPC   NC3 4595   9.208   2.524   9.410
   23POPC   PO4 4596   8.559   2.621   9.495
   23POPC   GL1 4597   8.659   2.861   9.160
   23POPC   GL2 4598   9.007   2.820   9.054
   23POPC   C1A 4599   8.627   2.812   8.730
   23POPC   D2A 4600   8.969   2.861   8.430
   23POPC   C3A 4601   8.717   2.778   8.085
   23POPC   C4A 4602   8.549   2.559   7.713
   23POPC   C1B 4603   9.385   2.777   8.786
   23POPC   C2B 4604   9.513   2.540   8.416
   23POPC   C3B 4605   9.324   2.423   8.009
   23POPC   C4B 4606   9.082   2.703   7.755
   24POPC   NC3 4607  44.255  32.234   9.328
   24POPC   PO4 4608  43.692  31.968   9.491
   24POPC   GL1 4609  43.708  32.182   9.141
   24POPC   GL2 4610  43.789  32.504   9.275
   24POPC   C1A 4611  43.813  32.091   8.739
   24POPC   D2A 4612  43.740  32.214   8.335
   24POPC   C3A 4613  43.775  31.979   7.950
   24POPC   C4A 4614  43.964  32.105   7.566
   24POPC   C1B 4615  43.889  32.600   8.848
   24POPC   C2B 4616  43.984  32.658   8.418
   24POPC   C3B 4617  43.930  32.505   7.966
   24POPC   C4B 4618  44.260  32.508   7.677
   25POPC   NC3 4619  16.470   3.825   9.549
   25POPC   PO4 4620  16.856   3.302   9.725
   25POPC   GL1 4621  16.858   3.517   9.301
   25POPC   GL2 4622  16.540   3.580   9.138
   25POPC   C1A 4623  16.967   3.600   8.838
   25POPC   D2A 4624  16.893   3.861   8.475
   25POPC   C3A 4625  17.004   3.670   8.084
   25POPC   C4A 4626  16.953   3.486   7.670
   25POPC   C1B 4627  16.471   3.761   8.760
   25POPC   C2B 4628  16.382   3.602   8.349
   25POPC   C3B 4629  16.518   3.600   7.937
   25POPC   C4B 4630  16.467   3.528   7.492
   26POPC   NC3 4631  12.386  12.253   9.379
   26POPC   PO4 4632  11.861  11.898   9.546
   26POPC   GL1 4633  11.903  12.231   9.193
   26POPC   GL2 4634  12.088  11.955   9.049
   26POPC   C1A 4635  12.095  12.334   8.737
   26POPC   D2A 4636  12.112  12.126   8.331
   26POPC   C3A 4637  12.180  12.389   7.959
   26POPC   C4A 4638  12.152  12.521   7.527
   26POPC   C1B 4639  12.227  11.750   8.665
   26POPC   C2B 4640  12.399  11.562   8.276
   26POPC   C3B 4641  12.357  11.898   7.955
   26POPC   C4B 4642  12.234  12.015   7.556
   27POPC   NC3 4643   0.392  41.195   9.481
   27POPC   PO4 4644   0.302  41.792   9.725
   27POPC   GL1 4645   0.285  41.695   9.301
   27POPC   GL2 4646   0.601  41.631   9.303
   27POPC   C1A 4647   0.193  41.549   8.893
   27POPC   D2A 4648  44.998  41.740   8.536
   27POPC   C3A 4649   0.178  41.577   8.173
   27POPC   C4A 4650   0.091  41.608   7.749
   27POPC   C1B 4651   0.682  41.711   8.856
   27POPC   C2B 4652   0.565  41.474   8.505
   27POPC   C3B 4653   0.652  41.365   8.090
   27POPC   C4B 4654   0.743  41.537   7.707
   28POPC   NC3 4655  28.160  39.084   9.469
   28POPC   PO4 4656  28.558  39.594   9.588
   28POPC   GL1 4657  28.528  39.411   9.218
   28POPC   GL2 4658  28.224  39.504   9.146
   28POPC   C1A 4659  28.622  39.539   8.791
   28POPC   D2A 4660  28.589  39.269   8.408
   28POPC   C3A 4661  28.616  39.305   7.958
   28POPC   C4A 4662  28.648  38.921   7.691
   28POPC   C1B 4663  28.166  39.274   8.779
   28POPC   C2B 4664  28.070  39.115   8.373
   28POPC   C3B 4665  28.193  38.996   7.969
   28POPC   C4B 4666  27.865  38.987   7.702
   29POPC   NC3 4667  36.025   8.483   9.366
   29POPC   PO4 4668  35.813   7.911   9.366
   29POPC   GL1 4669  36.191   8.048   9.102
   29POPC   GL2 4670  36.298   8.409   8.955
   29POPC   C1A 4671  36.310   7.977   8.685
   29POPC   D2A 4672  36.325   8.281   8.342
   29POPC   C3A 4673  36.320   8.052   7.949
   29POPC   C4A 4674  36.062   7.866   7.630
   29POPC   C1B 4675  35.938   8.375   8.720
   29POPC   C2B 4676  35.800   8.302   8.317
   29POPC   C3B 4677  35.991   8.481   7.963
   29POPC   C4B 4678  35.835   8.343   7.612
   30POPC   NC3 4679  19.436  28.177   9.390
   30POPC   PO4 4680  19.975  28.537   9.572
   30POPC   GL1 4681  19.751  28.590   9.197
   30POPC   GL2 4682  20.035  28.769   9.088
   30POPC   C1A 4683  19.752  28.358   8.809
   30POPC   D2A 4684  19.761  28.034   8.473
   30POPC   C3A 4685  19.700  28.203   8.052
   30POPC   C4A 4686  19.856  28.098   7.645
   30POPC   C1B 4687  20.187  28.638   8.725
   30POPC   C2B 4688  20.009  28.492   8.371
   30POPC   C3B 4689  20.133  28.502   7.964
   30POPC   C4B 4690  19.870  28.595   7.634
   31POPC   NC3 4691  19.035  16.397   9.772
   31POPC   PO4 4692  19.150  16.984   9.615
   31POPC   GL1 4693  19.181  16.979   9.145
   31POPC   GL2 4694  19.209  16.627   9.044
   31POPC   C1A 4695  19.249  17.076   8.710
   31POPC   D2A 4696  18.875  17.036   8.468
   31POPC   C3A 4697  18.810  17.156   8.067
   31POPC   C4A 4698  18.654  17.111   7.645
   31POPC   C1B 4699  19.108  16.578   8.596
   31POPC   C2B 4700  19.264  16.789   8.213
   31POPC   C3B 4701  19.069  16.787   7.799
   31POPC   C4B 4702  19.051  16.522   7.398
   32POPC   NC3 4703  28.460  29.681   9.532
   32POPC   PO4 4704  28.480  30.276   9.234
   32POPC   GL1 4705  28.468  29.894   9.065
   32POPC   GL2 4706  28.125  29.741   9.138
   32POPC   C1A 4707  28.636  29.959   8.672
   32POPC   D2A 4708  28.826  30.157   8.353
   32POPC   C3A 4709  28.593  30.030   8.020
   32POPC   C4A 4710  28.490  29.899   7.615
   32POPC   C1B 4711  28.148  29.819   8.685
   32POPC   C2B 4712  28.323  29.717   8.321
   32POPC   C3B 4713  28.124  29.739   7.953
   32POPC   C4B 4714  27.995  29.905   7.581
   33POPC   NC3 4715  14.111  34.538   9.627
   33POPC   PO4 4716  14.761  34.678   9.306
   33POPC   GL1 4717  14.500  34.548   9.010
   33POPC   GL2 4718  14.163  34.554   9.112
   33POPC   C1A 4719  14.288  34.725   8.655
   33POPC   D2A 4720  14.183  34.606   8.255
   33POPC   C3A 4721  14.543  34.672   8.000
   33POPC   C4A 4722  14.839  34.374   7.817
   33POPC   C1B 4723  14.026  34.207   8.818
   33POPC   C2B 4724  14.009  34.012   8.377
   33POPC   C3B 4725  14.003  34.236   7.977
   33POPC   C4B 4726  14.298  34.371   7.658
   34POPC   NC3 4727   0.543   0.251   9.662
   34POPC   PO4 4728   0.326   0.877   9.498
   34POPC   GL1 4729   0.554   0.651   9.298
   34POPC   GL2 4730   0.355   0.417   9.191
   34POPC   C1A 4731   0.713   0.676   8.857
   34POPC   D2A 4732   0.579   0.420   8.473
   34POPC   C3A 4733   0.633   0.530   8.019
   34POPC   C4A 4734   0.713   0.196   7.724
   34POPC   C1B 4735   0.166   0.350   8.791
   34POPC   C2B 4736   0.015   0.239   8.374
   34POPC   C3B 4737   0.213   0.237   7.996
   34POPC   C4B 4738   0.238   0.413   7.614
   35POPC   NC3 4739  23.159   9.002   9.657
   35POPC   PO4 4740  22.552   8.726   9.514
   35POPC   GL1 4741  22.763   9.062   9.270
   35POPC   GL2 4742  23.135   9.108   9.153
   35POPC   C1A 4743  22.639   9.147   8.842
   35POPC   D2A 4744  22.627   8.863   8.477
   35POPC   C3A 4745  22.693   8.902   8.024
   35POPC   C4A 4746  22.842   8.542   7.770
   35POPC   C1B 4747  23.076   8.864   8.768
   35POPC   C2B 4748  23.126   8.906   8.307
   35POPC   C3B 4749  23.156   8.946   7.824
   35POPC   C4B 4750  23.276   9.092   7.423
   36POPC   NC3 4751  17.740   6.583   9.562
   36POPC   PO4 4752  17.115   6.767   9.718
   36POPC   GL1 4753  17.357   6.788   9.279
   36POPC   GL2 4754  17.728   6.900   9.168
   36POPC   C1A 4755  17.512   6.512   8.933
   36POPC   D2A 4756  17.607   6.451   8.476
   36POPC   C3A 4757  17.398   6.373   8.057
   36POPC   C4A 4758  17.315   6.643   7.697
   36POPC   C1B 4759  17.904   6.775   8.754
   36POPC   C2B 4760  18.029   6.665   8.295
   36POPC   C3B 4761  17.838   6.595   7.855
   36POPC   C4B 4762  17.883   6.712   7.367
   37POPC   NC3 4763  36.690  41.489   9.398
   37POPC   PO4 4764  37.193  41.881   9.320
   37POPC   GL1 4765  36.966  41.725   8.974
   37POPC   GL2 4766  36.914  41.358   8.964
   37POPC   C1A 4767  37.166  41.617   8.603
   37POPC   D2A 4768  37.211  41.526   8.185
   37POPC   C3A 4769  36.923  41.782   7.968
   37POPC   C4A 4770  36.658  41.800   7.576
   37POPC   C1B 4771  36.842  41.231   8.539
   37POPC   C2B 4772  36.729  41.325   8.125
   37POPC   C3B 4773  36.858  41.348   7.697
   37POPC   C4B 4774  36.702  41.198   7.291
   38POPC   NC3 4775  14.648   9.537   9.364
   38POPC   PO4 4776  14.113   9.885   9.551
   38POPC   GL1 4777  14.277   9.841   9.145
   38POPC   GL2 4778  14.237   9.500   9.095
   38POPC   C1A 4779  14.593   9.788   8.786
   38POPC   D2A 4780  14.541   9.598   8.387
   38POPC   C3A 4781  14.695   9.819   8.024
   38POPC   C4A 4782  14.604   9.617   7.645
   38POPC   C1B 4783  14.117   9.555   8.723
   38POPC   C2B 4784  13.968   9.645   8.361
   38POPC   C3B 4785  14.188   9.657   8.004
   38POPC   C4B 4786  13.932   9.787   7.732
   39POPC   NC3 4787   0.990   4.791   9.351
   39POPC   PO4 4788   1.498   5.077   9.689
   39POPC   GL1 4789   1.367   5.132   9.249
   39POPC   GL2 4790   1.580   4.860   9.204
   39POPC   C1A 4791   1.151   5.056   8.804
   39POPC   D2A 4792   0.975   5.279   8.446
   39POPC   C3A 4793   1.168   5.207   8.050
   39POPC   C4A 4794   0.976   4.984   7.715
   39POPC   C1B 4795   1.655   4.979   8.801
   39POPC   C2B 4796   1.474   4.976   8.410
   39POPC   C3B 4797   1.566   4.883   8.014
   39POPC   C4B 4798   1.498   4.755   7.615
   40POPC   NC3 4799   6.756  37.257   9.517
   40POPC   PO4 4800   6.431  36.656   9.602
   40POPC   GL1 4801   6.483  36.899   9.243
   40POPC   GL2 4802   6.813  36.921   9.138
   40POPC   C1A 4803   6.482  36.991   8.780
   40POPC   D2A 4804   6.758  37.042   8.412
   40POPC   C3A 4805   6.504  36.972   8.029
   40POPC   C4A 4806   6.546  37.056   7.603
   40POPC   C1B 4807   6.959  36.685   8.794
   40POPC   C2B 4808   7.162  36.584   8.381
   40POPC   C3B 4809   7.034  36.419   7.971
   40POPC   C4B 4810   6.681  36.566   7.730
   41POPC   NC3 4811  38.218  14.031   9.571
   41POPC   PO4 4812  38.772  13.712   9.549
   41POPC   GL1 4813  38.503  13.613   9.222
   41POPC   GL2 4814  38.784  13.408   9.103
   41POPC   C1A 4815  38.303  13.306   8.911
   41POPC   D2A 4816  38.311  13.275   8.421
   41POPC   C3A 4817  38.135  13.503   8.031
   41POPC   C4A 4818  38.152  13.357   7.575
   41POPC   C1B 4819  38.647  13.655   8.729
   41POPC   C2B 4820  38.731  13.599   8.286
   41POPC   C3B 4821  38.599  13.667   7.869
   41POPC   C4B 4822  38.454  13.752   7.484
   42POPC   NC3 4823  10.013  27.201   9.480
   42POPC   PO4 4824   9.791  27.907   9.485
   42POPC   GL1 4825   9.694  27.797   9.074
   42POPC   GL2 4826   9.928  27.537   9.104
   42POPC   C1A 4827   9.842  27.722   8.638
   42POPC   D2A 4828   9.647  27.594   8.260
   42POPC   C3A 4829   9.670  27.595   7.803
   42POPC   C4A 4830   9.521  27.813   7.428
   42POPC   C1B 4831  10.085  27.253   8.797
   42POPC   C2B 4832  10.075  27.286   8.395
   42POPC   C3B 4833   9.821  27.166   8.100
   42POPC   C4B 4834  10.048  27.208   7.801
   43POPC   NC3 4835  29.683  36.479   9.577
   43POPC   PO4 4836  29.767  35.858   9.433
   43POPC   GL1 4837  29.846  36.057   9.062
   43POPC   GL2 4838  29.664  36.346   9.097
   43POPC   C1A 4839  29.824  35.925   8.643
   43POPC   D2A 4840  29.736  35.683   8.273
   43POPC   C3A 4841  29.695  35.938   7.880
   43POPC   C4A 4842  29.980  36.089   7.527
   43POPC   C1B 4843  29.553  36.370   8.693
   43POPC   C2B 4844  29.803  36.332   8.304
   43POPC   C3B 4845  29.968  36.421   7.898
   43POPC   C4B 4846  29.798  36.524   7.435
   44POPC   NC3 4847  34.203  39.717   9.447
   44POPC   PO4 4848  33.547  39.850   9.676
   44POPC   GL1 4849  33.668  39.722   9.238
   44POPC   GL2 4850  33.953  39.962   9.095
   44POPC   C1A 4851  33.538  39.850   8.810
   44POPC   D2A 4852  33.856  40.120   8.600
   44POPC   C3A 4853  33.918  40.113   8.145
   44POPC   C4A 4854  33.845  40.138   7.724
   44POPC   C1B 4855  34.001  39.620   8.777
   44POPC   C2B 4856  33.805  39.645   8.390
   44POPC   C3B 4857  34.038  39.619   8.037
   44POPC   C4B 4858  33.884  39.617   7.639
   45POPC   NC3 4859  44.863  41.615   9.607
   45POPC   PO4 4860  44.311  41.923   9.735
   45POPC   GL1 4861  44.469  41.769   9.281
   45POPC   GL2 4862  44.809  41.829   9.117
   45POPC   C1A 4863  44.383  41.836   8.824
   45POPC   D2A 4864  44.497  41.613   8.449
   45POPC   C3A 4865  44.661  41.778   8.089
   45POPC   C4A 4866  44.581  41.542   7.733
   45POPC   C1B 4867  44.687  41.437   8.905
   45POPC   C2B 4868  44.816  41.233   8.539
   45POPC   C3B 4869  44.802  41.242   8.100
   45POPC   C4B 4870  44.895  41.135   7.678
   46POPC   NC3 4871  39.585  25.889   9.730
   46POPC   PO4 4872  39.031  26.217   9.594
   46POPC   GL1 4873  39.234  26.189   9.186
   46POPC   GL2 4874  39.518  25.977   9.204
   46POPC   C1A 4875  39.201  26.139   8.762
   46POPC   D2A 4876  39.373  26.205   8.369
   46POPC   C3A 4877  39.128  26.157   8.009
   46POPC   C4A 4878  39.363  26.329   7.709
   46POPC   C1B 4879  39.769  25.757   8.879
   46POPC   C2B 4880  39.778  25.638   8.432
   46POPC   C3B 4881  39.477  25.758   8.123
   46POPC   C4B 4882  39.324  25.691   7.709
   47POPC   NC3 4883  21.036  40.664   9.510
   47POPC   PO4 4884  20.410  40.811   9.580
   47POPC   GL1 4885  20.417  40.748   9.138
   47POPC   GL2 4886  20.724  40.556   9.085
   47POPC   C1A 4887  20.505  40.838   8.704
   47POPC   D2A 4888  20.711  40.860   8.292
   47POPC   C3A 4889  20.518  40.978   7.890
   47POPC   C4A 4890  20.793  40.906   7.509
   47POPC   C1B 4891  20.873  40.433   8.656
   47POPC   C2B 4892  20.951  40.367   8.231
   47POPC   C3B 4893  20.693  40.504   7.876
   47POPC   C4B 4894  20.407  40.603   7.527
   48POPC   NC3 4895  43.644   8.370   9.532
   48POPC   PO4 4896  44.159   8.033   9.481
   48POPC   GL1 4897  43.845   8.054   9.163
   48POPC   GL2 4898  43.604   7.791   9.155
   48POPC   C1A 4899  43.747   8.332   8.820
   48POPC   D2A 4900  43.991   8.433   8.480
   48POPC   C3A 4901  43.903   8.307   8.074
   48POPC   C4A 4902  44.123   8.560   7.795
   48POPC   C1B 4903  43.724   7.840   8.710
   48POPC   C2B 4904  43.566   7.885   8.295
   48POPC   C3B 4905  43.728   7.847   7.865
   48POPC   C4B 4906  43.822   7.853   7.421
   49POPC   NC3 4907  12.398  21.111   9.399
   49POPC   PO4 4908  12.164  20.500   9.521
   49POPC   GL1 4909  11.942  20.564   9.203
   49POPC   GL2 4910  11.943  20.934   9.197
   49POPC   C1A 4911  12.052  20.406   8.806
   49POPC   D2A 4912  11.952  20.593   8.420
   49POPC   C3A 4913  11.949  20.386   8.030
   49POPC   C4A 4914  11.860  20.625   7.665
   49POPC   C1B 4915  12.096  20.979   8.789
   49POPC   C2B 4916  12.190  21.048   8.367
   49POPC   C3B 4917  12.172  20.864   8.007
   49POPC   C4B 4918  12.083  21.073   7.641
   50POPC   NC3 4919  44.247   7.212   9.544
   50POPC   PO4 4920  43.688   7.227   9.945
   50POPC   GL1 4921  43.767   7.400   9.437
   50POPC   GL2 4922  44.072   7.579   9.242
   50POPC   C1A 4923  43.730   7.350   8.926
   50POPC   D2A 4924  43.881   7.410   8.467
   50POPC   C3A 4925  43.698   7.340   8.028
   50POPC   C4A 4926  43.763   7.395   7.576
   50POPC   C1B 4927  44.253   7.347   8.878
   50POPC   C2B 4928  44.405   7.431   8.450
   50POPC   C3B 4929  44.242   7.446   8.039
   50POPC   C4B 4930  44.483   7.368   7.673
   51POPC   NC3 4931   1.359  41.908   9.533
   51POPC   PO4 4932   0.814  42.275   9.548
   51POPC   GL1 4933   1.109  42.372   9.158
   51POPC   GL2 4934   1.459  42.219   9.148
   51POPC   C1A 4935   0.948  42.413   8.738
   51POPC   D2A 4936   1.121  42.475   8.335
   51POPC   C3A 4937   0.933  42.333   7.967
   51POPC   C4A 4938   1.092  42.404   7.570
   51POPC   C1B 4939   1.473  42.360   8.734
   51POPC   C2B 4940   1.505  42.164   8.361
   51POPC   C3B 4941   1.446  42.268   7.941
   51POPC   C4B 4942   1.512  42.130   7.516
   52POPC   NC3 4943  29.514  37.976   9.490
   52POPC   PO4 4944  30.100  37.490   9.449
   52POPC   GL1 4945  29.788  37.654   9.171
   52POPC   GL2 4946  29.869  38.020   9.130
   52POPC   C1A 4947  29.887  37.662   8.735
   52POPC   D2A 4948  29.966  37.885   8.381
   52POPC   C3A 4949  29.798  37.701   8.029
   52POPC   C4A 4950  29.566  37.712   7.681
   52POPC   C1B 4951  29.533  37.999   8.818
   52POPC   C2B 4952  29.486  38.091   8.405
   52POPC   C3B 4953  29.307  37.918   8.066
   52POPC   C4B 4954  29.260  38.121   7.690
   53POPC   NC3 4955   1.655  12.334   9.532
   53POPC   PO4 4956   2.168  11.863   9.492
   53POPC   GL1 4957   2.114  12.147   9.162
   53POPC   GL2 4958   1.812  12.300   9.058
   53POPC   C1A 4959   2.224  12.151   8.745
   53POPC   D2A 4960   1.973  12.059   8.411
   53POPC   C3A 4961   2.178  12.070   8.056
   53POPC   C4A 4962   2.107  12.200   7.650
   53POPC   C1B 4963   1.864  12.553   8.679
   53POPC   C2B 4964   2.078  12.560   8.265
   53POPC   C3B 4965   1.885  12.646   7.837
   53POPC   C4B 4966   1.842  12.557   7.371
   54POPC   NC3 4967   2.467  40.743   9.494
   54POPC   PO4 4968   3.085  40.755   9.565
   54POPC   GL1 4969   2.852  40.933   9.224
   54POPC   GL2 4970   2.795  40.561   9.179
   54POPC   C1A 4971   2.591  41.039   8.833
   54POPC   D2A 4972   2.720  40.890   8.391
   54POPC   C3A 4973   2.500  40.840   7.992
   54POPC   C4A 4974   2.333  41.184   7.800
   54POPC   C1B 4975   2.995  40.678   8.799
   54POPC   C2B 4976   2.943  40.447   8.420
   54POPC   C3B 4977   2.982  40.615   8.004
   54POPC   C4B 4978   3.058  40.289   7.721
   55POPC   NC3 4979  34.308   3.875   9.458
   55POPC   PO4 4980  34.760   3.512   9.671
   55POPC   GL1 4981  34.611   3.484   9.236
   55POPC   GL2 4982  34.760   3.185   9.108
   55POPC   C1A 4983  34.628   3.585   8.763
   55POPC   D2A 4984  34.690   3.457   8.301
   55POPC   C3A 4985  34.585   3.725   7.905
   55POPC   C4A 4986  34.642   3.797   7.430
   55POPC   C1B 4987  34.388   3.130   8.826
   55POPC   C2B 4988  34.354   3.058   8.351
   55POPC   C3B 4989  34.419   3.230   7.920
   55POPC   C4B 4990  34.762   3.334   7.610
   56POPC   NC3 4991   8.528  23.548   9.473
   56POPC   PO4 4992   9.127  23.893   9.293
   56POPC   GL1 4993   8.893  23.720   8.982
   56POPC   GL2 4994   8.893  23.421   9.154
   56POPC   C1A 4995   9.104  23.499   8.633
   56POPC   D2A 4996   9.380  23.646   8.312
   56POPC   C3A 4997   9.084  23.770   8.000
   56POPC   C4A 4998   9.001  23.844   7.554
   56POPC   C1B 4999   8.601  23.320   8.826
   56POPC   C2B 5000   8.613  23.501   8.427
   56POPC   C3B 5001   8.489  23.437   8.025
   56POPC   C4B 5002   8.769  23.429   7.686
   57POPC   NC3 5003  37.644   6.115   9.867
   57POPC   PO4 5004  37.720   6.773   9.486
   57POPC   GL1 5005  37.618   6.551   9.116
   57POPC   GL2 5006  37.574   6.188   9.189
   57POPC   C1A 5007  37.695   6.711   8.703
   57POPC   D2A 5008  37.417   6.874   8.363
   57POPC   C3A 5009  37.455   6.746   7.972
   57POPC   C4A 5010  37.880   6.771   7.814
   57POPC   C1B 5011  37.710   6.202   8.727
   57POPC   C2B 5012  37.689   6.408   8.296
   57POPC   C3B 5013  37.662   6.291   7.863
   57POPC   C4B 5014  37.496   6.122   7.450
   58POPC   NC3 5015  35.730  22.272   9.359
   58POPC   PO4 5016  36.333  22.378   9.590
   58POPC   GL1 5017  36.195  22.140   9.229
   58POPC   GL2 5018  36.082  22.426   9.023
   58POPC   C1A 5019  36.199  21.975   8.815
   58POPC   D2A 5020  36.285  22.196   8.427
   58POPC   C3A 5021  36.179  22.006   8.022
   58POPC   C4A 5022  36.269  22.132   7.622
   58POPC   C1B 5023  35.871  22.628   8.675
   58POPC   C2B 5024  36.000  22.778   8.278
   58POPC   C3B 5025  36.076  22.503   7.973
   58POPC   C4B 5026  35.903  22.472   7.572
   59POPC   NC3 5027  37.136  10.381   9.536
   59POPC   PO4 5028  36.862  11.031   9.486
   59POPC   GL1 5029  36.920  10.827   9.113
   59POPC   GL2 5030  36.865  10.467   9.112
   59POPC   C1A 5031  36.921  10.699   8.690
   59POPC   D2A 5032  37.154  10.786   8.372
   59POPC   C3A 5033  36.920  10.669   8.048
   59POPC   C4A 5034  36.960  10.602   7.665
   59POPC   C1B 5035  36.857  10.173   8.728
   59POPC   C2B 5036  36.875  10.178   8.281
   59POPC   C3B 5037  36.888  10.130   7.851
   59POPC   C4B 5038  36.626  10.224   7.522
   60POPC   NC3 5039  35.350  15.651   9.419
   60POPC   PO4 5040  35.789  16.298   9.338
   60POPC   GL1 5041  35.566  15.987   9.113
   60POPC   GL2 5042  35.177  15.972   9.064
   60POPC   C1A 5043  35.548  15.826   8.736
   60POPC   D2A 5044  35.535  16.042   8.358
   60POPC   C3A 5045  35.615  15.869   7.996
   60POPC   C4A 5046  35.522  15.950   7.586
   60POPC   C1B 5047  35.053  15.774   8.687
   60POPC   C2B 5048  35.198  15.689   8.268
   60POPC   C3B 5049  35.073  15.890   7.894
   60POPC   C4B 5050  35.073  15.811   7.442
   61POPC   NC3 5051  33.818  11.063   9.513
   61POPC   PO4 5052  33.667  10.417   9.593
   61POPC   GL1 5053  34.008  10.489   9.278
   61POPC   GL2 5054  34.083  10.155   9.161
   61POPC   C1A 5055  34.144  10.574   8.827
   61POPC   D2A 5056  33.847  10.594   8.438
   61POPC   C3A 5057  34.022  10.581   8.021
   61POPC   C4A 5058  33.930  10.381   7.636
   61POPC   C1B 5059  33.786  10.225   8.789
   61POPC   C2B 5060  33.870  10.058   8.355
   61POPC   C3B 5061  34.026   9.946   7.929
   61POPC   C4B 5062  33.753   9.874   7.565
   62POPC   NC3 5063  12.565  30.280   9.439
   62POPC   PO4 5064  13.004  30.797   9.462
   62POPC   GL1 5065  13.039  31.008   9.112
   62POPC   GL2 5066  12.740  30.803   9.015
   62POPC   C1A 5067  13.100  31.191   8.731
   62POPC   D2A 5068  12.874  31.223   8.326
   62POPC   C3A 5069  12.944  30.857   8.051
   62POPC   C4A 5070  13.126  30.801   7.641
   62POPC   C1B 5071  12.743  30.763   8.561
   62POPC   C2B 5072  12.953  30.409   8.370
   62POPC   C3B 5073  13.144  30.377   7.976
   62POPC   C4B 5074  12.902  30.331   7.610
   63POPC   NC3 5075  12.877  27.717   9.458
   63POPC   PO4 5076  13.337  27.213   9.181
   63POPC   GL1 5077  13.006  27.416   9.046
   63POPC   GL2 5078  12.709  27.587   9.005
   63POPC   C1A 5079  13.132  27.609   8.685
   63POPC   D2A 5080  13.087  27.782   8.316
   63POPC   C3A 5081  13.080  27.478   8.005
   63POPC   C4A 5082  12.899  27.556   7.638
   63POPC   C1B 5083  12.666  27.790   8.608
   63POPC   C2B 5084  12.608  27.678   8.176
   63POPC   C3B 5085  12.491  27.838   7.764
   63POPC   C4B 5086  12.562  27.734   7.310
   64POPC   NC3 5087  12.021  33.211   9.409
   64POPC   PO4 5088  12.595  32.967   9.631
   64POPC   GL1 5089  12.440  33.111   9.165
   64POPC   GL2 5090  12.164  32.886   9.029
   64POPC   C1A 5091  12.148  33.315   8.782
   64POPC   D2A 5092  11.991  33.046   8.448
   64POPC   C3A 5093  12.092  33.142   8.043
   64POPC   C4A 5094  12.188  32.983   7.631
   64POPC   C1B 5095  12.458  32.925   8.679
   64POPC   C2B 5096  12.629  32.726   8.343
   64POPC   C3B 5097  12.368  32.620   7.997
   64POPC   C4B 5098  12.538  32.603   7.608
   65POPC   NC3 5099  25.742   0.289   9.673
   65POPC   PO4 5100  26.244   0.577   9.436
   65POPC   GL1 5101  26.118   0.449   9.094
   65POPC   GL2 5102  25.973   0.134   9.157
   65POPC   C1A 5103  26.324   0.523   8.713
   65POPC   D2A 5104  26.076   0.408   8.367
   65POPC   C3A 5105  26.174   0.546   7.966
   65POPC   C4A 5106  25.986   0.415   7.581
   65POPC   C1B 5107  26.153   0.049   8.760
   65POPC   C2B 5108  25.958  44.905   8.381
   65POPC   C3B 5109  26.049   0.028   7.980
   65POPC   C4B 5110  25.809  44.933   7.623
   66POPC   NC3 5111  20.097  23.738   9.546
   66POPC   PO4 5112  19.510  23.547   9.554
   66POPC   GL1 5113  19.669  23.693   9.191
   66POPC   GL2 5114  19.871  23.401   9.194
   66POPC   C1A 5115  19.502  23.717   8.774
   66POPC   D2A 5116  19.436  23.852   8.351
   66POPC   C3A 5117  19.737  23.650   8.055
   66POPC   C4A 5118  19.893  23.826   7.632
   66POPC   C1B 5119  20.018  23.576   8.794
   66POPC   C2B 5120  20.112  23.418   8.361
   66POPC   C3B 5121  20.234  23.520   7.925
   66POPC   C4B 5122  20.259  23.504   7.462
   67POPC   NC3 5123  22.261  29.700   9.510
   67POPC   PO4 5124  22.021  30.284   9.625
   67POPC   GL1 5125  22.080  30.117   9.246
   67POPC   GL2 5126  22.434  30.085   9.214
   67POPC   C1A 5127  21.988  30.095   8.834
   67POPC   D2A 5128  22.110  29.854   8.500
   67POPC   C3A 5129  21.957  29.921   8.091
   67POPC   C4A 5130  22.050  29.848   7.690
   67POPC   C1B 5131  22.537  29.822   8.899
   67POPC   C2B 5132  22.613  29.872   8.479
   67POPC   C3B 5133  22.463  29.862   8.078
   67POPC   C4B 5134  22.514  30.052   7.721
   68POPC   NC3 5135  16.102  18.959   9.437
   68POPC   PO4 5136  15.548  19.322   9.475
   68POPC   GL1 5137  15.784  19.269   9.087
   68POPC   GL2 5138  16.135  19.195   9.003
   68POPC   C1A 5139  15.768  19.115   8.668
   68POPC   D2A 5140  15.723  18.910   8.268
   68POPC   C3A 5141  15.816  19.239   8.027
   68POPC   C4A 5142  16.095  19.232   7.661
   68POPC   C1B 5143  16.370  19.105   8.704
   68POPC   C2B 5144  16.215  19.154   8.346
   68POPC   C3B 5145  16.203  18.912   8.026
   68POPC   C4B 5146  16.477  18.898   7.688
   69POPC   NC3 5147   2.038  39.842   9.428
   69POPC   PO4 5148   2.348  40.372   9.732
   69POPC   GL1 5149   2.148  40.503   9.178
   69POPC   GL2 5150   1.864  40.222   9.138
   69POPC   C1A 5151   2.135  40.227   8.724
   69POPC   D2A 5152   1.989  40.021   8.394
   69POPC   C3A 5153   2.187  40.026   8.022
   69POPC   C4A 5154   2.057  40.087   7.632
   69POPC   C1B 5155   1.722  39.903   8.833
   69POPC   C2B 5156   1.685  39.619   8.459
   69POPC   C3B 5157   1.950  39.585   8.126
   69POPC   C4B 5158   1.780  39.702   7.740
   70POPC   NC3 5159  27.606  17.618  10.244
   70POPC   PO4 5160  27.885  17.505   9.776
   70POPC   GL1 5161  27.779  17.511   9.244
   70POPC   GL2 5162  27.477  17.317   9.126
   70POPC   C1A 5163  27.640  17.631   8.767
   70POPC   D2A 5164  27.479  17.486   8.355
   70POPC   C3A 5165  27.650  17.589   7.929
   70POPC   C4A 5166  27.884  17.342   7.581
   70POPC   C1B 5167  27.709  17.097   8.788
   70POPC   C2B 5168  27.781  17.081   8.341
   70POPC   C3B 5169  27.587  17.083   7.923
   70POPC   C4B 5170  27.412  17.137   7.488
   71POPC   NC3 5171  26.347  32.901   9.427
   71POPC   PO4 5172  25.651  32.931   9.519
   71POPC   GL1 5173  25.702  33.107   9.117
   71POPC   GL2 5174  26.026  33.171   9.136
   71POPC   C1A 5175  25.836  33.062   8.673
   71POPC   D2A 5176  26.136  33.137   8.358
   71POPC   C3A 5177  25.975  33.293   7.978
   71POPC   C4A 5178  25.706  33.165   7.668
   71POPC   C1B 5179  26.160  33.459   8.826
   71POPC   C2B 5180  26.516  33.435   8.582
   71POPC   C3B 5181  26.468  33.462   8.141
   71POPC   C4B 5182  26.426  33.123   7.846
   72POPC   NC3 5183  34.016  10.097   9.678
   72POPC   PO4 5184  33.818   9.444   9.767
   72POPC   GL1 5185  33.924   9.665   9.357
   72POPC   GL2 5186  33.796   9.367   9.246
   72POPC   C1A 5187  33.872   9.737   8.876
   72POPC   D2A 5188  33.581   9.609   8.504
   72POPC   C3A 5189  33.545   9.735   8.040
   72POPC   C4A 5190  33.495   9.393   7.688
   72POPC   C1B 5191  33.790   9.241   8.848
   72POPC   C2B 5192  33.979   9.261   8.476
   72POPC   C3B 5193  33.792   9.285   8.105
   72POPC   C4B 5194  33.968   9.442   7.757
   73POPC   NC3 5195   6.873   1.997   9.525
   73POPC   PO4 5196   6.341   2.304   9.485
   73POPC   GL1 5197   6.365   2.087   9.099
   73POPC   GL2 5198   6.564   1.841   9.093
   73POPC   C1A 5199   6.530   2.162   8.660
   73POPC   D2A 5200   6.497   2.003   8.269
   73POPC   C3A 5201   6.563   2.185   7.903
   73POPC   C4A 5202   6.680   1.951   7.558
   73POPC   C1B 5203   6.336   1.689   8.714
   73POPC   C2B 5204   6.192   1.614   8.288
   73POPC   C3B 5205   6.449   1.625   7.893
   73POPC   C4B 5206   6.747   1.459   7.609
   74POPC   NC3 5207   5.770  23.229   9.491
   74POPC   PO4 5208   5.403  22.613   9.526
   74POPC   GL1 5209   5.690  22.795   9.258
   74POPC   GL2 5210   5.417  23.011   9.156
   74POPC   C1A 5211   5.916  22.953   8.869
   74POPC   D2A 5212   5.812  22.800   8.425
   74POPC   C3A 5213   5.840  22.948   7.971
   74POPC   C4A 5214   5.661  22.967   7.530
   74POPC   C1B 5215   5.457  22.706   8.824
   74POPC   C2B 5216   5.314  22.595   8.457
   74POPC   C3B 5217   5.499  22.543   8.090
   74POPC   C4B 5218   5.700  22.500   7.703
   75POPC   NC3 5219  44.020  25.522   9.440
   75POPC   PO4 5220  43.649  24.901   9.490
   75POPC   GL1 5221  43.898  25.139   9.143
   75POPC   GL2 5222  44.193  24.998   9.058
   75POPC   C1A 5223  43.975  25.463   8.787
   75POPC   D2A 5224  43.825  25.645   8.376
   75POPC   C3A 5225  43.827  25.432   7.962
   75POPC   C4A 5226  43.888  25.467   7.512
   75POPC   C1B 5227  44.280  25.088   8.653
   75POPC   C2B 5228  44.265  25.333   8.360
   75POPC   C3B 5229  44.274  25.173   8.003
   75POPC   C4B 5230  44.089  25.058   7.692
   76POPC   NC3 5231  17.280  10.526   9.433
   76POPC   PO4 5232  17.856  10.662   9.359
   76POPC   GL1 5233  17.562  10.536   9.011
   76POPC   GL2 5234  17.263  10.777   8.986
   76POPC   C1A 5235  17.606  10.181   8.737
   76POPC   D2A 5236  17.477   9.982   8.352
   76POPC   C3A 5237  17.506  10.312   8.048
   76POPC   C4A 5238  17.873  10.529   7.832
   76POPC   C1B 5239  17.485  10.923   8.632
   76POPC   C2B 5240  17.604  10.764   8.243
   76POPC   C3B 5241  17.336  10.756   7.883
   76POPC   C4B 5242  17.164  10.898   7.505
   77POPC   NC3 5243  36.731  35.683   9.532
   77POPC   PO4 5244  37.142  35.208   9.475
   77POPC   GL1 5245  37.034  35.472   9.133
   77POPC   GL2 5246  36.703  35.411   9.089
   77POPC   C1A 5247  36.988  35.412   8.680
   77POPC   D2A 5248  36.815  35.385   8.260
   77POPC   C3A 5249  37.070  35.486   7.900
   77POPC   C4A 5250  37.343  35.494   7.522
   77POPC   C1B 5251  36.587  35.699   8.764
   77POPC   C2B 5252  36.755  35.871   8.392
   77POPC   C3B 5253  36.627  35.824   7.987
   77POPC   C4B 5254  36.558  35.500   7.730
   78POPC   NC3 5255  39.289  23.428   9.890
   78POPC   PO4 5256  39.156  24.010   9.522
   78POPC   GL1 5257  39.323  23.718   9.246
   78POPC   GL2 5258  39.074  23.518   9.069
   78POPC   C1A 5259  39.448  23.781   8.815
   78POPC   D2A 5260  39.177  23.671   8.477
   78POPC   C3A 5261  39.260  23.809   8.076
   78POPC   C4A 5262  39.535  23.764   7.732
   78POPC   C1B 5263  38.950  23.896   8.876
   78POPC   C2B 5264  39.058  24.173   8.555
   78POPC   C3B 5265  38.992  24.253   8.094
   78POPC   C4B 5266  38.979  24.007   7.691
   79POPC   NC3 5267  16.533  40.899   9.349
   79POPC   PO4 5268  15.898  40.751   9.500
   79POPC   GL1 5269  16.135  40.728   9.099
   79POPC   GL2 5270  16.413  40.447   9.060
   79POPC   C1A 5271  15.845  40.791   8.762
   79POPC   D2A 5272  15.699  40.971   8.378
   79POPC   C3A 5273  15.991  40.938   8.062
   79POPC   C4A 5274  15.794  40.935   7.678
   79POPC   C1B 5275  16.172  40.417   8.691
   79POPC   C2B 5276  15.903  40.464   8.323
   79POPC   C3B 5277  15.840  40.480   7.884
   79POPC   C4B 5278  15.924  40.437   7.459
   80POPC   NC3 5279  11.640  34.633   9.706
   80POPC   PO4 5280  12.303  34.589   9.442
   80POPC   GL1 5281  12.039  34.595   9.087
   80POPC   GL2 5282  11.701  34.570   9.170
   80POPC   C1A 5283  11.897  34.701   8.672
   80POPC   D2A 5284  11.637  34.797   8.333
   80POPC   C3A 5285  11.902  34.783   8.006
   80POPC   C4A 5286  12.214  34.588   7.813
   80POPC   C1B 5287  11.731  34.246   8.848
   80POPC   C2B 5288  11.759  34.252   8.423
   80POPC   C3B 5289  11.882  34.255   8.010
   80POPC   C4B 5290  11.786  34.284   7.606
   81POPC   NC3 5291  15.826  33.217   9.548
   81POPC   PO4 5292  15.820  32.674   9.209
   81POPC   GL1 5293  15.971  33.069   9.043
   81POPC   GL2 5294  16.121  33.417   9.175
   81POPC   C1A 5295  15.907  33.006   8.588
   81POPC   D2A 5296  15.669  32.683   8.334
   81POPC   C3A 5297  15.830  32.700   7.914
   81POPC   C4A 5298  15.667  32.821   7.509
   81POPC   C1B 5299  16.165  33.443   8.751
   81POPC   C2B 5300  16.373  33.323   8.387
   81POPC   C3B 5301  16.380  33.368   7.942
   81POPC   C4B 5302  16.052  33.147   7.706
   82POPC   NC3 5303   3.602  41.915   9.599
   82POPC   PO4 5304   3.463  41.359   9.712
   82POPC   GL1 5305   3.484  41.473   9.272
   82POPC   GL2 5306   3.438  41.793   9.095
   82POPC   C1A 5307   3.489  41.370   8.804
   82POPC   D2A 5308   3.462  41.215   8.346
   82POPC   C3A 5309   3.438  41.509   7.996
   82POPC   C4A 5310   3.085  41.591   7.760
   82POPC   C1B 5311   3.153  41.760   8.686
   82POPC   C2B 5312   3.080  41.831   8.224
   82POPC   C3B 5313   3.324  42.023   7.846
   82POPC   C4B 5314   3.435  42.034   7.381
   83POPC   NC3 5315  25.211  19.439   9.805
   83POPC   PO4 5316  25.298  19.959   9.517
   83POPC   GL1 5317  25.234  19.704   9.148
   83POPC   GL2 5318  25.598  19.647   9.116
   83POPC   C1A 5319  24.919  19.539   8.829
   83POPC   D2A 5320  25.082  19.586   8.420
   83POPC   C3A 5321  24.918  19.715   8.027
   83POPC   C4A 5322  25.163  19.723   7.690
   83POPC   C1B 5323  25.552  19.803   8.676
   83POPC   C2B 5324  25.655  19.895   8.265
   83POPC   C3B 5325  25.677  19.652   7.877
   83POPC   C4B 5326  25.590  19.674   7.410
   84POPC   NC3 5327   3.309   0.911   9.936
   84POPC   PO4 5328   3.474   0.225   9.828
   84POPC   GL1 5329   3.468   0.418   9.339
   84POPC   GL2 5330   3.755   0.512   9.106
   84POPC   C1A 5331   3.325   0.308   8.894
   84POPC   D2A 5332   3.582   0.404   8.528
   84POPC   C3A 5333   3.459   0.252   8.134
   84POPC   C4A 5334   3.526   0.392   7.722
   84POPC   C1B 5335   3.463   0.794   8.878
   84POPC   C2B 5336   3.231   0.737   8.563
   84POPC   C3B 5337   3.295   0.734   8.126
   84POPC   C4B 5338   3.353   0.868   7.713
   85POPC   NC3 5339  26.756  30.269   9.284
   85POPC   PO4 5340  26.992  29.654   9.504
   85POPC   GL1 5341  26.926  29.670   9.058
   85POPC   GL2 5342  26.618  29.895   8.978
   85POPC   C1A 5343  26.920  29.696   8.610
   85POPC   D2A 5344  26.568  29.789   8.354
   85POPC   C3A 5345  26.759  29.679   7.982
   85POPC   C4A 5346  26.762  29.848   7.570
   85POPC   C1B 5347  26.770  30.185   8.634
   85POPC   C2B 5348  26.546  30.299   8.294
   85POPC   C3B 5349  26.463  30.083   7.926
   85POPC   C4B 5350  26.614  30.375   7.657
   86POPC   NC3 5351  17.009  24.747   9.476
   86POPC   PO4 5352  17.652  24.484   9.653
   86POPC   GL1 5353  17.510  24.513   9.181
   86POPC   GL2 5354  17.307  24.782   9.077
   86POPC   C1A 5355  17.626  24.392   8.733
   86POPC   D2A 5356  17.776  24.100   8.374
   86POPC   C3A 5357  17.703  24.192   7.921
   86POPC   C4A 5358  17.411  24.337   7.582
   86POPC   C1B 5359  17.536  24.892   8.728
   86POPC   C2B 5360  17.595  24.721   8.336
   86POPC   C3B 5361  17.764  24.720   7.954
   86POPC   C4B 5362  17.943  24.959   7.635
   87POPC   NC3 5363   2.222  22.841   9.743
   87POPC   PO4 5364   2.796  23.148   9.362
   87POPC   GL1 5365   2.850  23.010   8.993
   87POPC   GL2 5366   3.164  23.165   8.995
   87POPC   C1A 5367   2.975  22.714   8.697
   87POPC   D2A 5368   2.900  22.450   8.353
   87POPC   C3A 5369   2.568  22.683   8.127
   87POPC   C4A 5370   2.671  22.844   7.724
   87POPC   C1B 5371   3.215  23.141   8.543
   87POPC   C2B 5372   2.930  23.099   8.223
   87POPC   C3B 5373   3.066  23.133   7.814
   87POPC   C4B 5374   3.063  23.350   7.411
   88POPC   NC3 5375   6.095   7.662   9.566
   88POPC   PO4 5376   6.343   7.097   9.347
   88POPC   GL1 5377   6.459   7.497   9.164
   88POPC   GL2 5378   6.177   7.702   9.069
   88POPC   C1A 5379   6.555   7.580   8.708
   88POPC   D2A 5380   6.617   7.212   8.432
   88POPC   C3A 5381   6.658   7.147   7.984
   88POPC   C4A 5382   6.759   7.538   7.762
   88POPC   C1B 5383   6.120   7.311   8.804
   88POPC   C2B 5384   6.129   7.431   8.429
   88POPC   C3B 5385   6.381   7.569   8.104
   88POPC   C4B 5386   6.275   7.437   7.687
   89POPC   NC3 5387  23.135  44.320   9.401
   89POPC   PO4 5388  22.684  44.783   9.581
   89POPC   GL1 5389  22.803  44.669   9.167
   89POPC   GL2 5390  22.658  44.987   9.090
   89POPC   C1A 5391  22.972  44.462   8.752
   89POPC   D2A 5392  22.863  44.379   8.293
   89POPC   C3A 5393  23.072  44.628   7.946
   89POPC   C4A 5394  23.047  44.707   7.451
   89POPC   C1B 5395  22.984  44.973   8.802
   89POPC   C2B 5396  22.854  44.904   8.402
   89POPC   C3B 5397  22.828   0.227   8.118
   89POPC   C4B 5398  23.014   0.101   7.753
   90POPC   NC3 5399  10.942   7.777   9.331
   90POPC   PO4 5400  11.392   8.324   9.531
   90POPC   GL1 5401  11.225   8.187   9.177
   90POPC   GL2 5402  11.404   7.905   9.106
   90POPC   C1A 5403  11.286   8.281   8.754
   90POPC   D2A 5404  11.069   8.208   8.403
   90POPC   C3A 5405  11.258   8.089   8.024
   90POPC   C4A 5406  11.045   8.073   7.588
   90POPC   C1B 5407  11.708   7.888   8.796
   90POPC   C2B 5408  11.588   7.874   8.373
   90POPC   C3B 5409  11.681   7.694   7.993
   90POPC   C4B 5410  11.501   7.877   7.636
   91POPC   NC3 5411  29.345  35.642   9.438
   91POPC   PO4 5412  28.718  35.353   9.553
   91POPC   GL1 5413  29.065  35.254   9.212
   91POPC   GL2 5414  29.224  34.927   9.146
   91POPC   C1A 5415  29.315  35.297   8.797
   91POPC   D2A 5416  29.241  35.565   8.434
   91POPC   C3A 5417  29.331  35.510   8.007
   91POPC   C4A 5418  29.121  35.435   7.596
   91POPC   C1B 5419  28.929  34.958   8.798
   91POPC   C2B 5420  28.970  35.119   8.375
   91POPC   C3B 5421  29.116  35.055   7.945
   91POPC   C4B 5422  28.991  34.939   7.527
   92POPC   NC3 5423  34.908  43.032   9.485
   92POPC   PO4 5424  34.388  43.404   9.410
   92POPC   GL1 5425  34.557  43.086   9.101
   92POPC   GL2 5426  34.420  42.733   9.042
   92POPC   C1A 5427  34.555  43.009   8.629
   92POPC   D2A 5428  34.778  43.174   8.322
   92POPC   C3A 5429  34.810  43.301   7.905
   92POPC   C4A 5430  34.652  43.156   7.540
   92POPC   C1B 5431  34.876  42.735   8.888
   92POPC   C2B 5432  35.084  42.764   8.469
   92POPC   C3B 5433  34.947  42.817   8.011
   92POPC   C4B 5434  34.991  42.782   7.538
   93POPC   NC3 5435  12.716  32.162   9.378
   93POPC   PO4 5436  13.397  32.373   9.566
   93POPC   GL1 5437  13.116  32.394   9.153
   93POPC   GL2 5438  13.019  32.038   8.994
   93POPC   C1A 5439  12.959  32.468   8.707
   93POPC   D2A 5440  12.981  32.289   8.289
   93POPC   C3A 5441  12.929  32.574   7.933
   93POPC   C4A 5442  13.009  32.497   7.482
   93POPC   C1B 5443  12.621  32.083   8.718
   93POPC   C2B 5444  12.464  32.209   8.316
   93POPC   C3B 5445  12.664  32.141   7.910
   93POPC   C4B 5446  12.583  31.848   7.619
   94POPC   NC3 5447   3.196  34.722   9.485
   94POPC   PO4 5448   3.737  34.228   9.511
   94POPC   GL1 5449   3.447  34.352   9.195
   94POPC   GL2 5450   3.599  34.634   9.175
   94POPC   C1A 5451   3.511  34.318   8.771
   94POPC   D2A 5452   3.410  34.412   8.374
   94POPC   C3A 5453   3.643  34.465   8.031
   94POPC   C4A 5454   3.370  34.642   7.709
   94POPC   C1B 5455   3.481  34.825   8.788
   94POPC   C2B 5456   3.688  34.839   8.425
   94POPC   C3B 5457   3.578  34.958   8.045
   94POPC   C4B 5458   3.237  35.150   7.885
   95POPC   NC3 5459  38.605  22.807   9.507
   95POPC   PO4 5460  39.016  23.322   9.542
   95POPC   GL1 5461  38.687  23.202   9.185
   95POPC   GL2 5462  38.391  22.930   9.056
   95POPC   C1A 5463  38.733  23.138   8.745
   95POPC   D2A 5464  38.783  23.350   8.385
   95POPC   C3A 5465  38.697  23.102   8.072
   95POPC   C4A 5466  38.463  23.067   7.700
   95POPC   C1B 5467  38.153  22.840   8.655
   95POPC   C2B 5468  38.249  22.851   8.186
   95POPC   C3B 5469  38.160  22.613   7.779
   95POPC   C4B 5470  38.010  22.579   7.284
   96POPC   NC3 5471  31.318  13.089   9.441
   96POPC   PO4 5472  31.744  12.596   9.406
   96POPC   GL1 5473  31.538  12.790   9.090
   96POPC   GL2 5474  31.718  13.109   9.030
   96POPC   C1A 5475  31.398  12.724   8.691
   96POPC   D2A 5476  31.681  12.833   8.367
   96POPC   C3A 5477  31.678  12.624   7.992
   96POPC   C4A 5478  31.639  12.744   7.588
   96POPC   C1B 5479  31.335  13.218   8.780
   96POPC   C2B 5480  31.128  13.061   8.395
   96POPC   C3B 5481  31.264  12.913   8.005
   96POPC   C4B 5482  31.440  13.194   7.754
   97POPC   NC3 5483  30.016  44.040   9.580
   97POPC   PO4 5484  29.481  43.628   9.521
   97POPC   GL1 5485  29.476  43.884   9.149
   97POPC   GL2 5486  29.739  44.099   9.163
   97POPC   C1A 5487  29.526  43.919   8.743
   97POPC   D2A 5488  29.775  43.814   8.442
   97POPC   C3A 5489  29.811  44.024   8.045
   97POPC   C4A 5490  29.687  43.851   7.649
   97POPC   C1B 5491  30.003  44.118   8.799
   97POPC   C2B 5492  30.165  44.220   8.397
   97POPC   C3B 5493  30.317  43.907   8.121
   97POPC   C4B 5494  30.209  43.827   7.725
   98POPC   NC3 5495  24.356  40.865   9.383
   98POPC   PO4 5496  24.762  40.359   9.343
   98POPC   GL1 5497  24.699  40.676   9.053
   98POPC   GL2 5498  24.834  41.035   9.164
   98POPC   C1A 5499  24.379  40.628   8.727
   98POPC   D2A 5500  24.292  40.379   8.356
   98POPC   C3A 5501  24.422  40.612   8.030
   98POPC   C4A 5502  24.298  40.807   7.685
   98POPC   C1B 5503  24.601  41.098   8.796
   98POPC   C2B 5504  24.674  40.934   8.410
   98POPC   C3B 5505  24.537  41.108   8.022
   98POPC   C4B 5506  24.740  41.084   7.654
   99POPC   NC3 5507  10.303  42.569   9.502
   99POPC   PO4 5508  10.357  41.917   9.540
   99POPC   GL1 5509  10.415  42.195   9.195
   99POPC   GL2 5510  10.681  42.466   9.161
   99POPC   C1A 5511  10.296  42.391   8.823
   99POPC   D2A 5512  10.294  42.262   8.408
   99POPC   C3A 5513  10.393  42.478   8.033
   99POPC   C4A 5514  10.371  42.177   7.702
   99POPC   C1B 5515  10.724  42.138   8.801
   99POPC   C2B 5516  10.817  42.310   8.404
   99POPC   C3B 5517  10.830  42.229   8.012
   99POPC   C4B 5518  10.772  42.472   7.642
  100POPC   NC3 5519  27.385  28.530   9.525
  100POPC   PO4 5520  27.598  27.983   9.339
  100POPC   GL1 5521  27.716  28.280   9.043
  100POPC   GL2 5522  27.754  28.652   9.093
  100POPC   C1A 5523  27.389  28.440   8.782
  100POPC   D2A 5524  27.321  28.569   8.358
  100POPC   C3A 5525  27.485  28.242   8.043
  100POPC   C4A 5526  27.727  28.153   7.649
  100POPC   C1B 5527  27.952  28.887   8.749
  100POPC   C2B 5528  28.072  28.765   8.300
  100POPC   C3B 5529  27.857  28.563   7.929
  100POPC   C4B 5530  27.882  28.599   7.424
  101POPC   NC3 5531   7.189   9.932   9.342
  101POPC   PO4 5532   7.762   9.700   9.446
  101POPC   GL1 5533   7.572   9.652   9.068
  101POPC   GL2 5534   7.307   9.418   9.055
  101POPC   C1A 5535   7.649   9.542   8.649
  101POPC   D2A 5536   7.544   9.810   8.323
  101POPC   C3A 5537   7.723   9.652   7.966
  101POPC   C4A 5538   7.661   9.938   7.653
  101POPC   C1B 5539   7.127   9.525   8.679
  101POPC   C2B 5540   7.194   9.462   8.245
  101POPC   C3B 5541   7.229   9.675   7.853
  101POPC   C4B 5542   7.431   9.508   7.470
  102POPC   NC3 5543  13.876  32.577   9.513
  102POPC   PO4 5544  13.452  33.112   9.336
  102POPC   GL1 5545  13.780  32.908   9.124
  102POPC   GL2 5546  13.593  32.601   9.085
  102POPC   C1A 5547  13.872  32.827   8.706
  102POPC   D2A 5548  13.656  32.969   8.364
  102POPC   C3A 5549  13.738  33.003   7.945
  102POPC   C4A 5550  13.563  33.351   7.701
  102POPC   C1B 5551  13.342  32.810   8.768
  102POPC   C2B 5552  13.188  32.759   8.357
  102POPC   C3B 5553  13.417  32.593   8.051
  102POPC   C4B 5554  13.466  32.653   7.629
  103POPC   NC3 5555  40.824  44.798   9.401
  103POPC   PO4 5556  41.174  44.229   9.371
  103POPC   GL1 5557  40.914  44.463   9.036
  103POPC   GL2 5558  40.545  44.607   9.018
  103POPC   C1A 5559  40.862  44.529   8.596
  103POPC   D2A 5560  41.026  44.671   8.220
  103POPC   C3A 5561  40.929  44.575   7.814
  103POPC   C4A 5562  40.536  44.419   7.613
  103POPC   C1B 5563  40.557  44.927   8.667
  103POPC   C2B 5564  40.661   0.057   8.236
  103POPC   C3B 5565  40.537  44.898   7.830
  103POPC   C4B 5566  40.329   0.055   7.455
  104POPC   NC3 5567   4.229   0.693  10.030
  104POPC   PO4 5568   4.495   0.445   9.491
  104POPC   GL1 5569   4.276   0.442   9.111
  104POPC   GL2 5570   4.225   0.781   9.081
  104POPC   C1A 5571   4.059   0.504   8.690
  104POPC   D2A 5572   4.210   0.685   8.291
  104POPC   C3A 5573   4.191   0.447   7.925
  104POPC   C4A 5574   3.997   0.366   7.537
  104POPC   C1B 5575   4.545   0.677   8.737
  104POPC   C2B 5576   4.726   0.604   8.330
  104POPC   C3B 5577   4.741   0.800   7.947
  104POPC   C4B 5578   4.545   0.629   7.593
  105POPC   NC3 5579  20.128  22.417   9.619
  105POPC   PO4 5580  20.739  22.105   9.460
  105POPC   GL1 5581  20.683  22.220   9.040
  105POPC   GL2 5582  20.323  22.260   9.085
  105POPC   C1A 5583  20.655  22.267   8.578
  105POPC   D2A 5584  20.602  22.027   8.220
  105POPC   C3A 5585  20.951  22.089   8.006
  105POPC   C4A 5586  20.941  22.422   7.739
  105POPC   C1B 5587  20.250  21.988   8.710
  105POPC   C2B 5588  20.103  21.881   8.281
  105POPC   C3B 5589  20.242  21.978   7.843
  105POPC   C4B 5590  20.380  21.874   7.403
  106POPC   NC3 5591  19.643   9.420   9.484
  106POPC   PO4 5592  20.030   8.812   9.487
  106POPC   GL1 5593  19.802   8.977   9.117
  106POPC   GL2 5594  19.549   9.264   9.021
  106POPC   C1A 5595  19.581   8.860   8.730
  106POPC   D2A 5596  19.423   8.832   8.333
  106POPC   C3A 5597  19.728   8.666   8.083
  106POPC   C4A 5598  19.750   8.945   7.754
  106POPC   C1B 5599  19.887   9.265   8.715
  106POPC   C2B 5600  19.938   9.066   8.326
  106POPC   C3B 5601  20.104   9.250   7.965
  106POPC   C4B 5602  20.094   9.242   7.536
  107POPC   NC3 5603  41.858   6.900   9.555
  107POPC   PO4 5604  41.386   6.513   9.384
  107POPC   GL1 5605  41.645   6.703   9.125
  107POPC   GL2 5606  41.410   6.950   9.115
  107POPC   C1A 5607  41.753   6.587   8.723
  107POPC   D2A 5608  41.547   6.495   8.358
  107POPC   C3A 5609  41.796   6.524   8.008
  107POPC   C4A 5610  41.580   6.420   7.675
  107POPC   C1B 5611  41.330   6.878   8.733
  107POPC   C2B 5612  41.333   6.957   8.331
  107POPC   C3B 5613  41.353   6.813   7.940
  107POPC   C4B 5614  41.665   6.926   7.659
  108POPC   NC3 5615  17.117  23.129   9.720
  108POPC   PO4 5616  17.648  23.101   9.287
  108POPC   GL1 5617  17.257  23.130   9.221
  108POPC   GL2 5618  17.229  22.770   9.355
  108POPC   C1A 5619  17.108  23.192   8.810
  108POPC   D2A 5620  17.311  23.323   8.398
  108POPC   C3A 5621  17.577  23.165   8.062
  108POPC   C4A 5622  17.291  23.261   7.712
  108POPC   C1B 5623  17.250  22.707   8.914
  108POPC   C2B 5624  17.284  22.808   8.508
  108POPC   C3B 5625  17.152  22.904   8.121
  108POPC   C4B 5626  17.416  22.740   7.804
  109POPC   NC3 5627  11.376   2.713   9.612
  109POPC   PO4 5628  10.788   2.570   9.331
  109POPC   GL1 5629  11.180   2.819   9.136
  109POPC   GL2 5630  11.542   2.950   9.181
  109POPC   C1A 5631  11.118   3.052   8.770
  109POPC   D2A 5632  11.320   3.058   8.382
  109POPC   C3A 5633  11.206   2.774   8.109
  109POPC   C4A 5634  11.126   2.824   7.697
  109POPC   C1B 5635  11.564   2.810   8.783
  109POPC   C2B 5636  11.547   2.534   8.449
  109POPC   C3B 5637  11.555   2.402   8.035
  109POPC   C4B 5638  11.518   2.516   7.646
  110POPC   NC3 5639  29.321   9.216   9.662
  110POPC   PO4 5640  28.872   9.794   9.697
  110POPC   GL1 5641  29.012   9.638   9.278
  110POPC   GL2 5642  29.334   9.702   9.140
  110POPC   C1A 5643  28.936   9.784   8.843
  110POPC   D2A 5644  28.853   9.976   8.454
  110POPC   C3A 5645  28.996   9.783   8.080
  110POPC   C4A 5646  28.765   9.832   7.701
  110POPC   C1B 5647  29.546   9.647   8.740
  110POPC   C2B 5648  29.507   9.749   8.304
  110POPC   C3B 5649  29.496   9.534   7.884
  110POPC   C4B 5650  29.488   9.537   7.369
  111POPC   NC3 5651  19.816   3.066   9.332
  111POPC   PO4 5652  20.137   2.559   9.493
  111POPC   GL1 5653  20.045   2.641   9.059
  111POPC   GL2 5654  20.228   2.933   9.034
  111POPC   C1A 5655  19.818   2.752   8.660
  111POPC   D2A 5656  19.639   2.537   8.323
  111POPC   C3A 5657  19.947   2.382   8.079
  111POPC   C4A 5658  19.906   2.495   7.679
  111POPC   C1B 5659  20.333   2.830   8.621
  111POPC   C2B 5660  20.187   3.000   8.272
  111POPC   C3B 5661  19.885   2.893   8.029
  111POPC   C4B 5662  19.745   3.012   7.664
  112POPC   NC3 5663   3.322  10.996   9.704
  112POPC   PO4 5664   3.781  11.419   9.338
  112POPC   GL1 5665   3.569  11.280   9.043
  112POPC   GL2 5666   3.324  11.120   9.217
  112POPC   C1A 5667   3.565  11.455   8.667
  112POPC   D2A 5668   3.365  11.247   8.376
  112POPC   C3A 5669   3.546  11.334   7.999
  112POPC   C4A 5670   3.479  11.587   7.655
  112POPC   C1B 5671   3.165  10.986   8.819
  112POPC   C2B 5672   3.067  10.829   8.404
  112POPC   C3B 5673   3.180  10.929   7.968
  112POPC   C4B 5674   2.898  11.098   7.641
  113POPC   NC3 5675   0.697  31.007   9.544
  113POPC   PO4 5676   0.188  30.598   9.436
  113POPC   GL1 5677   0.422  30.831   9.122
  113POPC   GL2 5678   0.613  31.150   9.060
  113POPC   C1A 5679   0.282  30.881   8.732
  113POPC   D2A 5680   0.081  30.718   8.415
  113POPC   C3A 5681   0.271  30.705   8.034
  113POPC   C4A 5682   0.051  30.433   7.797
  113POPC   C1B 5683   0.729  31.128   8.658
  113POPC   C2B 5684   0.672  30.763   8.378
  113POPC   C3B 5685   0.850  30.704   7.962
  113POPC   C4B 5686   0.765  30.797   7.536
  114POPC   NC3 5687  16.233  33.916   9.426
  114POPC   PO4 5688  16.874  33.855   9.571
  114POPC   GL1 5689  16.670  33.736   9.179
  114POPC   GL2 5690  16.998  33.744   9.034
  114POPC   C1A 5691  16.625  33.663   8.708
  114POPC   D2A 5692  16.920  33.791   8.407
  114POPC   C3A 5693  16.970  33.650   7.995
  114POPC   C4A 5694  16.616  33.849   7.849
  114POPC   C1B 5695  16.842  34.131   8.831
  114POPC   C2B 5696  16.989  34.303   8.411
  114POPC   C3B 5697  16.997  34.166   7.997
  114POPC   C4B 5698  16.850  34.276   7.593
  115POPC   NC3 5699  14.247  33.660   9.471
  115POPC   PO4 5700  14.449  34.210   9.739
  115POPC   GL1 5701  14.316  34.075   9.212
  115POPC   GL2 5702  14.565  34.035   8.960
  115POPC   C1A 5703  14.184  33.731   8.831
  115POPC   D2A 5704  14.446  33.744   8.472
  115POPC   C3A 5705  14.327  33.593   8.095
  115POPC   C4A 5706  14.285  33.874   7.786
  115POPC   C1B 5707  14.469  34.255   8.583
  115POPC   C2B 5708  14.470  34.186   8.169
  115POPC   C3B 5709  14.751  33.927   8.070
  115POPC   C4B 5710  14.749  33.601   7.804
  116POPC   NC3 5711  11.149   4.690   9.645
  116POPC   PO4 5712  11.537   4.113   9.570
  116POPC   GL1 5713  11.325   4.195   9.176
  116POPC   GL2 5714  11.008   4.353   9.262
  116POPC   C1A 5715  11.393   4.375   8.750
  116POPC   D2A 5716  11.313   4.128   8.374
  116POPC   C3A 5717  11.487   4.315   8.003
  116POPC   C4A 5718  11.306   4.561   7.686
  116POPC   C1B 5719  10.924   4.239   8.820
  116POPC   C2B 5720  10.860   4.463   8.438
  116POPC   C3B 5721  10.972   4.363   8.049
  116POPC   C4B 5722  10.857   4.299   7.646
  117POPC   NC3 5723  42.737  40.934   9.493
  117POPC   PO4 5724  43.207  40.382   9.401
  117POPC   GL1 5725  42.923  40.580   9.123
  117POPC   GL2 5726  43.036  40.898   9.101
  117POPC   C1A 5727  42.824  40.726   8.690
  117POPC   D2A 5728  42.837  40.456   8.352
  117POPC   C3A 5729  42.812  40.650   8.000
  117POPC   C4A 5730  43.166  40.651   7.774
  117POPC   C1B 5731  43.318  40.952   8.799
  117POPC   C2B 5732  43.417  40.857   8.387
  117POPC   C3B 5733  43.355  41.069   8.013
  117POPC   C4B 5734  42.949  41.125   7.804
  118POPC   NC3 5735  16.221  32.666   9.423
  118POPC   PO4 5736  16.715  32.248   9.524
  118POPC   GL1 5737  16.768  32.258   9.107
  118POPC   GL2 5738  16.483  32.063   9.075
  118POPC   C1A 5739  16.741  32.538   8.723
  118POPC   D2A 5740  16.620  32.378   8.331
  118POPC   C3A 5741  16.795  32.484   7.965
  118POPC   C4A 5742  16.825  32.227   7.578
  118POPC   C1B 5743  16.604  31.999   8.687
  118POPC   C2B 5744  16.361  31.957   8.308
  118POPC   C3B 5745  16.594  32.001   7.959
  118POPC   C4B 5746  16.553  31.797   7.581
  119POPC   NC3 5747  21.168  17.791   9.662
  119POPC   PO4 5748  21.568  17.316   9.487
  119POPC   GL1 5749  21.352  17.559   9.229
  119POPC   GL2 5750  21.030  17.399   9.289
  119POPC   C1A 5751  21.281  17.633   8.813
  119POPC   D2A 5752  21.398  17.375   8.469
  119POPC   C3A 5753  21.565  17.570   8.095
  119POPC   C4A 5754  21.247  17.544   7.810
  119POPC   C1B 5755  20.921  17.272   8.860
  119POPC   C2B 5756  20.895  17.063   8.430
  119POPC   C3B 5757  20.936  17.175   7.962
  119POPC   C4B 5758  20.864  17.088   7.489
  120POPC   NC3 5759  24.839  33.693   9.833
  120POPC   PO4 5760  25.397  33.899   9.504
  120POPC   GL1 5761  25.225  33.946   9.108
  120POPC   GL2 5762  24.994  33.672   9.163
  120POPC   C1A 5763  25.410  33.994   8.682
  120POPC   D2A 5764  25.301  33.788   8.317
  120POPC   C3A 5765  25.193  33.985   7.930
  120POPC   C4A 5766  25.310  33.986   7.497
  120POPC   C1B 5767  25.068  33.597   8.730
  120POPC   C2B 5768  24.973  33.388   8.323
  120POPC   C3B 5769  25.031  33.517   7.933
  120POPC   C4B 5770  24.886  33.723   7.587
  121POPC   NC3 5771   0.873  35.906   9.468
  121POPC   PO4 5772   1.585  36.114   9.420
  121POPC   GL1 5773   1.256  36.116   9.146
  121POPC   GL2 5774   1.085  36.390   9.228
  121POPC   C1A 5775   1.186  35.919   8.769
  121POPC   D2A 5776   1.001  35.751   8.429
  121POPC   C3A 5777   1.215  35.831   8.081
  121POPC   C4A 5778   1.317  35.745   7.687
  121POPC   C1B 5779   0.958  36.431   8.800
  121POPC   C2B 5780   1.063  36.292   8.366
  121POPC   C3B 5781   1.089  36.317   7.890
  121POPC   C4B 5782   1.103  36.603   7.501
  122POPC   NC3 5783   2.492  24.608   9.386
  122POPC   PO4 5784   3.101  24.370   9.376
  122POPC   GL1 5785   2.847  24.442   9.026
  122POPC   GL2 5786   2.731  24.783   8.987
  122POPC   C1A 5787   2.568  24.403   8.670
  122POPC   D2A 5788   2.520  24.621   8.270
  122POPC   C3A 5789   2.553  24.426   7.862
  122POPC   C4A 5790   2.909  24.291   7.569
  122POPC   C1B 5791   2.980  24.753   8.632
  122POPC   C2B 5792   2.919  24.940   8.246
  122POPC   C3B 5793   3.009  24.598   8.000
  122POPC   C4B 5794   3.324  24.561   7.722
  123POPC   NC3 5795  44.695  28.749   9.535
  123POPC   PO4 5796  44.305  29.270   9.356
  123POPC   GL1 5797  44.720  29.152   9.204
  123POPC   GL2 5798  44.792  28.815   9.050
  123POPC   C1A 5799  44.845  29.326   8.822
  123POPC   D2A 5800  44.594  29.288   8.472
  123POPC   C3A 5801  44.706  28.937   8.232
  123POPC   C4A 5802  44.738  28.925   7.815
  123POPC   C1B 5803  44.460  28.922   8.797
  123POPC   C2B 5804  44.236  28.902   8.426
  123POPC   C3B 5805  44.227  28.897   7.959
  123POPC   C4B 5806  44.344  29.059   7.541
  124POPC   NC3 5807  30.773  32.683   9.399
  124POPC   PO4 5808  30.575  32.022   9.468
  124POPC   GL1 5809  30.824  32.226   9.123
  124POPC   GL2 5810  31.041  32.526   9.023
  124POPC   C1A 5811  30.705  32.367   8.675
  124POPC   D2A 5812  30.522  32.084   8.360
  124POPC   C3A 5813  30.640  32.116   7.986
  124POPC   C4A 5814  30.276  32.244   7.835
  124POPC   C1B 5815  31.156  32.613   8.599
  124POPC   C2B 5816  30.963  32.444   8.238
  124POPC   C3B 5817  30.925  32.504   7.791
  124POPC   C4B 5818  30.906  32.567   7.320
  125POPC   NC3 5819  18.740   9.521   9.325
  125POPC   PO4 5820  19.350   9.833   9.438
  125POPC   GL1 5821  19.157   9.680   9.080
  125POPC   GL2 5822  18.882   9.947   9.070
  125POPC   C1A 5823  19.023   9.702   8.664
  125POPC   D2A 5824  19.226  10.001   8.411
  125POPC   C3A 5825  19.347   9.858   8.026
  125POPC   C4A 5826  19.107   9.704   7.734
  125POPC   C1B 5827  18.810  10.157   8.683
  125POPC   C2B 5828  18.733   9.966   8.265
  125POPC   C3B 5829  18.824  10.097   7.852
  125POPC   C4B 5830  18.754   9.911   7.411
  126POPC   NC3 5831   3.179   9.899  10.002
  126POPC   PO4 5832   3.613   9.671   9.488
  126POPC   GL1 5833   3.644   9.824   9.097
  126POPC   GL2 5834   3.292   9.753   9.022
  126POPC   C1A 5835   3.649   9.868   8.674
  126POPC   D2A 5836   3.283   9.922   8.466
  126POPC   C3A 5837   3.407   9.729   8.115
  126POPC   C4A 5838   3.648   9.944   7.789
  126POPC   C1B 5839   3.171   9.460   8.705
  126POPC   C2B 5840   3.354   9.239   8.376
  126POPC   C3B 5841   3.180   9.280   7.954
  126POPC   C4B 5842   3.352   9.530   7.629
  127POPC   NC3 5843   3.355  11.645   9.362
  127POPC   PO4 5844   3.791  12.110   9.488
  127POPC   GL1 5845   3.556  12.069   9.112
  127POPC   GL2 5846   3.730  11.807   9.015
  127POPC   C1A 5847   3.277  11.968   8.734
  127POPC   D2A 5848   3.315  11.765   8.318
  127POPC   C3A 5849   3.478  11.979   7.966
  127POPC   C4A 5850   3.309  12.065   7.591
  127POPC   C1B 5851   3.778  11.971   8.612
  127POPC   C2B 5852   3.815  11.730   8.269
  127POPC   C3B 5853   3.927  11.725   7.870
  127POPC   C4B 5854   3.794  11.932   7.464
  128POPC   NC3 5855  25.078  28.063   9.480
  128POPC   PO4 5856  25.621  28.501   9.463
  128POPC   GL1 5857  25.393  28.621   9.118
  128POPC   GL2 5858  25.074  28.450   9.120
  128POPC   C1A 5859  25.460  28.467   8.711
  128POPC   D2A 5860  25.361  28.269   8.343
  128POPC   C3A 5861  25.461  28.513   8.016
  128POPC   C4A 5862  25.401  28.409   7.602
  128POPC   C1B 5863  24.963  28.645   8.720
  128POPC   C2B 5864  25.109  28.787   8.300
  128POPC   C3B 5865  25.025  28.719   7.848
  128POPC   C4B 5866  25.168  28.798   7.420
  129POPC   NC3 5867  43.546  19.849   9.468
  129POPC   PO4 5868  44.148  19.604   9.422
  129POPC   GL1 5869  44.069  19.758   9.073
  129POPC   GL2 5870  44.030  20.097   9.139
  129POPC   C1A 5871  44.141  19.774   8.664
  129POPC   D2A 5872  44.010  20.071   8.373
  129POPC   C3A 5873  43.869  19.787   8.084
  129POPC   C4A 5874  43.865  19.537   7.714
  129POPC   C1B 5875  43.695  20.054   8.831
  129POPC   C2B 5876  43.548  20.308   8.493
  129POPC   C3B 5877  43.663  20.301   8.069
  129POPC   C4B 5878  43.893  20.138   7.721
  130POPC   NC3 5879  39.137  13.900   9.341
  130POPC   PO4 5880  39.312  13.280   9.530
  130POPC   GL1 5881  39.310  13.422   9.123
  130POPC   GL2 5882  39.578  13.628   9.206
  130POPC   C1A 5883  39.142  13.525   8.703
  130POPC   D2A 5884  39.198  13.348   8.290
  130POPC   C3A 5885  39.098  13.524   7.889
  130POPC   C4A 5886  39.269  13.905   7.761
  130POPC   C1B 5887  39.604  13.734   8.766
  130POPC   C2B 5888  39.431  13.812   8.345
  130POPC   C3B 5889  39.595  13.593   8.005
  130POPC   C4B 5890  39.639  13.435   7.597
  131POPC   NC3 5891  26.484  28.338   9.563
  131POPC   PO4 5892  27.142  28.179   9.698
  131POPC   GL1 5893  27.045  28.184   9.212
  131POPC   GL2 5894  26.699  28.301   9.096
  131POPC   C1A 5895  27.009  28.053   8.758
  131POPC   D2A 5896  26.767  27.984   8.378
  131POPC   C3A 5897  26.761  28.270   8.022
  131POPC   C4A 5898  27.091  28.531   7.904
  131POPC   C1B 5899  26.859  28.560   8.727
  131POPC   C2B 5900  26.808  28.723   8.297
  131POPC   C3B 5901  26.636  28.750   7.853
  131POPC   C4B 5902  26.897  28.583   7.438
  132POPC   NC3 5903  44.551   1.717   9.554
  132POPC   PO4 5904   0.057   2.172   9.568
  132POPC   GL1 5905  44.826   2.056   9.215
  132POPC   GL2 5906  44.924   1.717   9.199
  132POPC   C1A 5907  44.706   2.146   8.792
  132POPC   D2A 5908  44.466   2.006   8.432
  132POPC   C3A 5909  44.657   2.208   8.086
  132POPC   C4A 5910  44.675   2.075   7.664
  132POPC   C1B 5911  44.653   1.640   8.847
  132POPC   C2B 5912  44.689   1.537   8.410
  132POPC   C3B 5913  44.683   1.701   8.020
  132POPC   C4B 5914  44.413   1.611   7.711
  133POPC   NC3 5915   1.084  41.029   9.622
  133POPC   PO4 5916   1.399  40.491   9.519
  133POPC   GL1 5917   1.199  40.776   9.201
  133POPC   GL2 5918   1.394  41.112   9.215
  133POPC   C1A 5919   1.252  40.715   8.768
  133POPC   D2A 5920   1.097  40.509   8.401
  133POPC   C3A 5921   1.304  40.612   8.027
  133POPC   C4A 5922   1.153  40.458   7.657
  133POPC   C1B 5923   1.101  41.189   8.875
  133POPC   C2B 5924   1.044  41.274   8.431
  133POPC   C3B 5925   1.080  41.090   8.011
  133POPC   C4B 5926   1.243  40.953   7.604
  134POPC   NC3 5927  34.912  17.073   9.284
  134POPC   PO4 5928  34.453  17.519   9.553
  134POPC   GL1 5929  34.720  17.585   9.168
  134POPC   GL2 5930  34.433  17.749   9.061
  134POPC   C1A 5931  34.781  17.461   8.688
  134POPC   D2A 5932  34.770  17.696   8.267
  134POPC   C3A 5933  34.693  17.484   7.865
  134POPC   C4A 5934  34.781  17.079   7.682
  134POPC   C1B 5935  34.537  17.896   8.687
  134POPC   C2B 5936  34.252  17.672   8.413
  134POPC   C3B 5937  34.213  17.681   7.962
  134POPC   C4B 5938  34.175  17.799   7.533
  135POPC   NC3 5939  26.658  39.500   9.247
  135POPC   PO4 5940  27.008  38.956   9.500
  135POPC   GL1 5941  26.955  39.073   9.119
  135POPC   GL2 5942  26.603  38.963   9.140
  135POPC   C1A 5943  27.092  39.348   8.778
  135POPC   D2A 5944  26.928  39.588   8.452
  135POPC   C3A 5945  27.113  39.426   8.051
  135POPC   C4A 5946  26.895  39.509   7.667
  135POPC   C1B 5947  26.649  39.095   8.717
  135POPC   C2B 5948  26.905  39.097   8.376
  135POPC   C3B 5949  26.671  39.194   8.059
  135POPC   C4B 5950  26.714  39.037   7.673
  136POPC   NC3 5951  30.861  18.271   9.644
  136POPC   PO4 5952  30.179  18.444   9.573
  136POPC   GL1 5953  30.440  18.325   9.208
  136POPC   GL2 5954  30.796  18.263   9.163
  136POPC   C1A 5955  30.559  18.545   8.811
  136POPC   D2A 5956  30.474  18.696   8.395
  136POPC   C3A 5957  30.552  18.338   8.174
  136POPC   C4A 5958  30.621  18.254   7.778
  136POPC   C1B 5959  31.035  18.035   8.889
  136POPC   C2B 5960  30.917  18.050   8.479
  136POPC   C3B 5961  30.846  17.901   8.084
  136POPC   C4B 5962  31.080  17.858   7.727
  137POPC   NC3 5963   5.516  20.520   9.472
  137POPC   PO4 5964   5.985  20.968   9.764
  137POPC   GL1 5965   5.878  20.905   9.317
  137POPC   GL2 5966   6.149  21.041   9.130
  137POPC   C1A 5967   5.789  20.739   8.874
  137POPC   D2A 5968   5.587  20.701   8.472
  137POPC   C3A 5969   5.741  20.522   8.110
  137POPC   C4A 5970   5.855  20.825   7.824
  137POPC   C1B 5971   6.261  20.910   8.726
  137POPC   C2B 5972   6.065  20.872   8.359
  137POPC   C3B 5973   6.328  20.848   8.020
  137POPC   C4B 5974   6.309  20.652   7.644
  138POPC   NC3 5975  26.997   7.757   9.565
  138POPC   PO4 5976  26.610   7.265   9.551
  138POPC   GL1 5977  26.900   7.391   9.203
  138POPC   GL2 5978  27.132   7.706   9.087
  138POPC   C1A 5979  26.735   7.504   8.815
  138POPC   D2A 5980  26.633   7.491   8.393
  138POPC   C3A 5981  26.924   7.411   8.047
  138POPC   C4A 5982  26.600   7.354   7.739
  138POPC   C1B 5983  26.955   7.994   8.788
  138POPC   C2B 5984  26.793   7.981   8.370
  138POPC   C3B 5985  26.649   7.833   7.972
  138POPC   C4B 5986  26.869   7.735   7.594
  139POPC   NC3 5987  27.876   8.018   9.510
  139POPC   PO4 5988  28.357   7.406   9.629
  139POPC   GL1 5989  28.467   7.361   9.173
  139POPC   GL2 5990  28.188   7.418   8.934
  139POPC   C1A 5991  28.663   7.586   8.801
  139POPC   D2A 5992  28.691   7.597   8.352
  139POPC   C3A 5993  28.424   7.404   8.053
  139POPC   C4A 5994  28.684   7.303   7.719
  139POPC   C1B 5995  28.193   7.654   8.559
  139POPC   C2B 5996  27.940   7.567   8.205
  139POPC   C3B 5997  27.980   7.643   7.783
  139POPC   C4B 5998  28.111   7.876   7.390
  140POPC   NC3 5999  17.927  44.380   9.677
  140POPC   PO4 6000  18.107  44.956   9.510
  140POPC   GL1 6001  18.358  44.709   9.213
  140POPC   GL2 6002  18.119  44.500   9.165
  140POPC   C1A 6003  18.414  44.379   8.788
  140POPC   D2A 6004  18.540  44.429   8.323
  140POPC   C3A 6005  18.277  44.405   7.990
  140POPC   C4A 6006  18.333  44.628   7.628
  140POPC   C1B 6007  18.156  44.803   8.747
  140POPC   C2B 6008  18.241  44.853   8.284
  140POPC   C3B 6009  18.118  44.992   7.877
  140POPC   C4B 6010  17.982  44.966   7.429
  141POPC   NC3 6011  17.254   8.731   9.398
  141POPC   PO4 6012  17.630   9.256   9.431
  141POPC   GL1 6013  17.411   9.125   9.090
  141POPC   GL2 6014  17.614   8.844   8.998
  141POPC   C1A 6015  17.311   9.177   8.671
  141POPC   D2A 6016  17.578   8.928   8.401
  141POPC   C3A 6017  17.662   9.091   8.001
  141POPC   C4A 6018  17.871   9.059   7.613
  141POPC   C1B 6019  17.240   8.686   8.766
  141POPC   C2B 6020  17.045   8.711   8.381
  141POPC   C3B 6021  17.241   8.744   8.001
  141POPC   C4B 6022  17.037   8.799   7.651
  142POPC   NC3 6023  30.269  41.643   9.575
  142POPC   PO4 6024  30.887  41.513   9.389
  142POPC   GL1 6025  30.555  41.666   9.137
  142POPC   GL2 6026  30.847  41.731   8.918
  142POPC   C1A 6027  30.398  41.611   8.735
  142POPC   D2A 6028  30.714  41.572   8.412
  142POPC   C3A 6029  30.516  41.671   8.049
  142POPC   C4A 6030  30.433  41.623   7.650
  142POPC   C1B 6031  31.024  42.004   8.621
  142POPC   C2B 6032  31.140  41.856   8.258
  142POPC   C3B 6033  31.000  41.713   7.925
  142POPC   C4B 6034  31.119  41.753   7.553
  143POPC   NC3 6035  15.579  20.592   9.586
  143POPC   PO4 6036  15.014  20.873   9.548
  143POPC   GL1 6037  15.260  20.751   9.192
  143POPC   GL2 6038  15.367  20.406   9.152
  143POPC   C1A 6039  15.190  20.889   8.785
  143POPC   D2A 6040  15.357  20.895   8.393
  143POPC   C3A 6041  15.114  20.997   8.030
  143POPC   C4A 6042  15.319  20.895   7.650
  143POPC   C1B 6043  15.333  20.208   8.738
  143POPC   C2B 6044  15.164  20.417   8.382
  143POPC   C3B 6045  15.197  20.480   7.977
  143POPC   C4B 6046  15.322  20.120   7.849
  144POPC   NC3 6047  32.448  15.414   9.520
  144POPC   PO4 6048  31.956  15.048   9.632
  144POPC   GL1 6049  32.092  15.065   9.210
  144POPC   GL2 6050  32.447  15.077   9.137
  144POPC   C1A 6051  32.069  15.155   8.776
  144POPC   D2A 6052  32.375  15.162   8.469
  144POPC   C3A 6053  32.187  15.168   8.093
  144POPC   C4A 6054  32.234  15.307   7.696
  144POPC   C1B 6055  32.602  15.431   8.870
  144POPC   C2B 6056  32.717  15.541   8.450
  144POPC   C3B 6057  32.673  15.348   8.043
  144POPC   C4B 6058  32.721  15.432   7.605
  145POPC   NC3 6059  15.488  18.195   9.392
  145POPC   PO4 6060  16.157  18.494   9.484
  145POPC   GL1 6061  16.007  18.439   9.072
  145POPC   GL2 6062  15.874  18.749   9.019
  145POPC   C1A 6063  15.733  18.339   8.694
  145POPC   D2A 6064  15.595  18.064   8.386
  145POPC   C3A 6065  15.953  17.876   8.171
  145POPC   C4A 6066  16.223  18.010   7.825
  145POPC   C1B 6067  16.052  18.716   8.606
  145POPC   C2B 6068  15.995  18.451   8.244
  145POPC   C3B 6069  15.874  18.579   7.842
  145POPC   C4B 6070  15.972  18.774   7.441
  146POPC   NC3 6071   9.115  26.948   9.565
  146POPC   PO4 6072   8.568  26.517   9.521
  146POPC   GL1 6073   8.877  26.573   9.179
  146POPC   GL2 6074   8.835  26.955   9.150
  146POPC   C1A 6075   8.960  26.719   8.728
  146POPC   D2A 6076   8.981  26.962   8.343
  146POPC   C3A 6077   8.894  26.817   7.966
  146POPC   C4A 6078   9.118  26.904   7.594
  146POPC   C1B 6079   8.881  27.218   8.787
  146POPC   C2B 6080   8.699  27.402   8.415
  146POPC   C3B 6081   8.817  27.358   7.997
  146POPC   C4B 6082   8.671  27.132   7.622
  147POPC   NC3 6083   8.772   4.099   9.385
  147POPC   PO4 6084   9.260   4.470   9.642
  147POPC   GL1 6085   9.089   4.496   9.214
  147POPC   GL2 6086   9.065   4.157   8.990
  147POPC   C1A 6087   9.214   4.592   8.794
  147POPC   D2A 6088   9.011   4.331   8.482
  147POPC   C3A 6089   9.023   4.491   8.095
  147POPC   C4A 6090   8.853   4.457   7.684
  147POPC   C1B 6091   8.633   4.136   8.767
  147POPC   C2B 6092   8.497   4.193   8.347
  147POPC   C3B 6093   8.687   4.084   7.980
  147POPC   C4B 6094   8.452   4.117   7.626
  148POPC   NC3 6095  18.498  31.522   9.291
  148POPC   PO4 6096  18.992  31.199   9.705
  148POPC   GL1 6097  19.010  31.277   9.236
  148POPC   GL2 6098  18.751  31.126   9.097
  148POPC   C1A 6099  19.123  31.466   8.801
  148POPC   D2A 6100  19.381  31.414   8.381
  148POPC   C3A 6101  19.207  31.377   7.935
  148POPC   C4A 6102  19.100  31.799   7.715
  148POPC   C1B 6103  18.658  31.246   8.705
  148POPC   C2B 6104  18.891  31.284   8.369
  148POPC   C3B 6105  18.770  31.590   8.084
  148POPC   C4B 6106  18.639  31.524   7.699
  149POPC   NC3 6107  14.976  30.954   9.271
  149POPC   PO4 6108  15.227  30.512   9.764
  149POPC   GL1 6109  15.376  30.596   9.283
  149POPC   GL2 6110  15.497  30.949   9.156
  149POPC   C1A 6111  15.261  30.557   8.808
  149POPC   D2A 6112  14.913  30.773   8.530
  149POPC   C3A 6113  15.019  30.750   8.098
  149POPC   C4A 6114  15.402  30.555   7.930
  149POPC   C1B 6115  15.336  31.042   8.723
  149POPC   C2B 6116  15.306  31.150   8.277
  149POPC   C3B 6117  15.380  31.045   7.837
  149POPC   C4B 6118  15.477  31.074   7.398
  150POPC   NC3 6119  14.120  30.853   9.426
  150POPC   PO4 6120  14.731  30.546   9.314
  150POPC   GL1 6121  14.471  30.775   9.048
  150POPC   GL2 6122  14.145  30.633   8.959
  150POPC   C1A 6123  14.438  30.972   8.653
  150POPC   D2A 6124  14.592  31.237   8.317
  150POPC   C3A 6125  14.408  31.079   7.963
  150POPC   C4A 6126  14.637  30.813   7.762
  150POPC   C1B 6127  14.364  30.466   8.613
  150POPC   C2B 6128  14.464  30.619   8.213
  150POPC   C3B 6129  14.405  30.376   7.820
  150POPC   C4B 6130  14.215  30.305   7.413
  151POPC   NC3 6131  21.852  23.063   9.538
  151POPC   PO4 6132  21.103  23.012   9.539
  151POPC   GL1 6133  21.313  22.909   9.180
  151POPC   GL2 6134  21.577  23.175   9.141
  151POPC   C1A 6135  21.412  22.903   8.756
  151POPC   D2A 6136  21.542  22.689   8.419
  151POPC   C3A 6137  21.488  22.939   8.121
  151POPC   C4A 6138  21.491  22.880   7.729
  151POPC   C1B 6139  21.691  23.379   8.794
  151POPC   C2B 6140  21.628  23.403   8.361
  151POPC   C3B 6141  21.723  23.346   7.913
  151POPC   C4B 6142  21.516  23.317   7.490
  152POPC   NC3 6143   3.279  23.224   9.514
  152POPC   PO4 6144   3.835  23.769   9.530
  152POPC   GL1 6145   3.786  23.752   9.126
  152POPC   GL2 6146   3.472  23.572   9.169
  152POPC   C1A 6147   3.619  23.900   8.747
  152POPC   D2A 6148   3.272  23.856   8.501
  152POPC   C3A 6149   3.291  23.719   8.086
  152POPC   C4A 6150   3.598  23.811   7.780
  152POPC   C1B 6151   3.575  23.392   8.803
  152POPC   C2B 6152   3.652  23.497   8.399
  152POPC   C3B 6153   3.492  23.260   8.111
  152POPC   C4B 6154   3.511  23.319   7.705
  153POPC   NC3 6155  11.677  30.399   9.290
  153POPC   PO4 6156  11.219  30.758   9.535
  153POPC   GL1 6157  11.237  30.938   9.128
  153POPC   GL2 6158  11.374  30.674   9.010
  153POPC   C1A 6159  11.130  30.935   8.686
  153POPC   D2A 6160  11.265  30.761   8.329
  153POPC   C3A 6161  11.147  30.867   7.948
  153POPC   C4A 6162  11.504  30.739   7.717
  153POPC   C1B 6163  11.455  30.416   8.659
  153POPC   C2B 6164  11.228  30.249   8.321
  153POPC   C3B 6165  11.213  30.291   7.879
  153POPC   C4B 6166  11.267  30.153   7.403
  154POPC   NC3 6167   2.981  42.525   9.466
  154POPC   PO4 6168   2.294  42.520   9.433
  154POPC   GL1 6169   2.603  42.506   9.124
  154POPC   GL2 6170   2.675  42.170   9.028
  154POPC   C1A 6171   2.832  42.537   8.711
  154POPC   D2A 6172   3.121  42.301   8.438
  154POPC   C3A 6173   2.932  42.307   8.042
  154POPC   C4A 6174   2.693  42.603   7.808
  154POPC   C1B 6175   2.712  42.057   8.606
  154POPC   C2B 6176   2.457  42.220   8.300
  154POPC   C3B 6177   2.455  42.124   7.887
  154POPC   C4B 6178   2.784  42.007   7.615
  155POPC   NC3 6179  44.490  30.407   9.399
  155POPC   PO4 6180  44.612  31.054   9.313
  155POPC   GL1 6181  44.680  30.727   8.994
  155POPC   GL2 6182  44.327  30.665   8.982
  155POPC   C1A 6183  44.577  30.650   8.523
  155POPC   D2A 6184  44.458  30.869   8.120
  155POPC   C3A 6185  44.812  30.871   7.826
  155POPC   C4A 6186  44.857  30.696   7.401
  155POPC   C1B 6187  44.306  30.267   8.767
  155POPC   C2B 6188  44.401  30.117   8.356
  155POPC   C3B 6189  44.497  30.368   7.960
  155POPC   C4B 6190  44.644  30.263   7.538
  156POPC   NC3 6191  34.071  20.809   9.386
  156POPC   PO4 6192  33.513  20.490   9.424
  156POPC   GL1 6193  33.802  20.464   9.123
  156POPC   GL2 6194  34.093  20.314   9.270
  156POPC   C1A 6195  33.922  20.749   8.782
  156POPC   D2A 6196  33.759  20.799   8.407
  156POPC   C3A 6197  33.880  20.944   8.038
  156POPC   C4A 6198  33.782  20.718   7.683
  156POPC   C1B 6199  34.216  20.309   8.863
  156POPC   C2B 6200  34.120  20.418   8.466
  156POPC   C3B 6201  34.133  20.485   8.061
  156POPC   C4B 6202  34.185  20.142   7.807
  157POPC   NC3 6203  38.267  12.335   9.496
  157POPC   PO4 6204  38.709  11.770   9.534
  157POPC   GL1 6205  38.574  11.985   9.179
  157POPC   GL2 6206  38.669  12.333   9.158
  157POPC   C1A 6207  38.599  11.874   8.754
  157POPC   D2A 6208  38.344  11.645   8.446
  157POPC   C3A 6209  38.292  11.821   8.057
  157POPC   C4A 6210  38.513  12.087   7.773
  157POPC   C1B 6211  38.288  12.282   8.853
  157POPC   C2B 6212  38.380  12.205   8.421
  157POPC   C3B 6213  38.171  12.328   8.082
  157POPC   C4B 6214  38.211  12.502   7.705
  158POPC   NC3 6215  20.786  38.744   9.573
  158POPC   PO4 6216  20.273  38.449   9.466
  158POPC   GL1 6217  20.447  38.759   9.147
  158POPC   GL2 6218  20.832  38.768   9.060
  158POPC   C1A 6219  20.309  38.847   8.718
  158POPC   D2A 6220  20.044  38.801   8.313
  158POPC   C3A 6221  20.336  38.684   7.954
  158POPC   C4A 6222  20.475  38.300   7.772
  158POPC   C1B 6223  20.781  38.607   8.632
  158POPC   C2B 6224  20.789  38.466   8.177
  158POPC   C3B 6225  20.987  38.345   7.758
  158POPC   C4B 6226  20.989  38.361   7.296
  159POPC   NC3 6227  18.443  39.271   9.464
  159POPC   PO4 6228  17.888  39.095   9.739
  159POPC   GL1 6229  18.003  39.163   9.232
  159POPC   GL2 6230  18.189  39.365   9.041
  159POPC   C1A 6231  18.101  38.976   8.746
  159POPC   D2A 6232  18.130  39.236   8.375
  159POPC   C3A 6233  18.137  39.086   7.942
  159POPC   C4A 6234  18.421  38.886   7.696
  159POPC   C1B 6235  18.433  39.483   8.723
  159POPC   C2B 6236  18.482  39.663   8.341
  159POPC   C3B 6237  18.526  39.456   7.959
  159POPC   C4B 6238  18.750  39.611   7.617
  160POPC   NC3 6239  28.680  37.762   9.373
  160POPC   PO4 6240  29.343  37.534   9.541
  160POPC   GL1 6241  29.062  37.463   9.208
  160POPC   GL2 6242  29.189  37.781   9.107
  160POPC   C1A 6243  28.906  37.578   8.756
  160POPC   D2A 6244  28.991  37.943   8.497
  160POPC   C3A 6245  28.785  37.909   8.095
  160POPC   C4A 6246  28.962  37.537   7.923
  160POPC   C1B 6247  29.413  37.480   8.843
  160POPC   C2B 6248  29.484  37.566   8.421
  160POPC   C3B 6249  29.435  37.340   8.042
  160POPC   C4B 6250  29.663  37.227   7.699
  161POPC   NC3 6251  20.543  25.587   9.480
  161POPC   PO4 6252  20.521  26.220   9.416
  161POPC   GL1 6253  20.474  25.907   9.096
  161POPC   GL2 6254  20.798  25.780   9.014
  161POPC   C1A 6255  20.238  25.800   8.741
  161POPC   D2A 6256  20.135  25.981   8.362
  161POPC   C3A 6257  20.325  25.879   7.942
  161POPC   C4A 6258  20.717  26.030   7.743
  161POPC   C1B 6259  20.731  25.986   8.643
  161POPC   C2B 6260  20.783  25.851   8.225
  161POPC   C3B 6261  20.991  25.626   7.890
  161POPC   C4B 6262  20.981  25.691   7.407
  162POPC   NC3 6263   1.084   1.656   9.427
  162POPC   PO4 6264   0.972   2.358   9.549
  162POPC   GL1 6265   1.216   2.137   9.212
  162POPC   GL2 6266   1.456   1.830   9.145
  162POPC   C1A 6267   1.139   1.994   8.789
  162POPC   D2A 6268   1.014   1.946   8.376
  162POPC   C3A 6269   1.303   2.167   8.163
  162POPC   C4A 6270   1.290   2.191   7.762
  162POPC   C1B 6271   1.552   1.633   8.782
  162POPC   C2B 6272   1.454   1.712   8.362
  162POPC   C3B 6273   1.532   1.736   7.918
  162POPC   C4B 6274   1.569   1.872   7.478
  163POPC   NC3 6275   6.567   6.709   9.509
  163POPC   PO4 6276   7.105   7.112   9.406
  163POPC   GL1 6277   6.913   6.793   9.119
  163POPC   GL2 6278   6.711   6.449   9.094
  163POPC   C1A 6279   6.645   6.817   8.756
  163POPC   D2A 6280   6.484   6.500   8.484
  163POPC   C3A 6281   6.703   6.606   8.153
  163POPC   C4A 6282   6.635   6.617   7.752
  163POPC   C1B 6283   6.969   6.414   8.718
  163POPC   C2B 6284   7.164   6.392   8.306
  163POPC   C3B 6285   7.030   6.306   7.867
  163POPC   C4B 6286   6.916   6.289   7.399
  164POPC   NC3 6287  40.463   8.703   9.399
  164POPC   PO4 6288  41.006   9.262   9.473
  164POPC   GL1 6289  40.811   9.236   9.047
  164POPC   GL2 6290  40.542   8.966   8.979
  164POPC   C1A 6291  40.897   9.086   8.615
  164POPC   D2A 6292  40.746   8.783   8.276
  164POPC   C3A 6293  40.845   8.850   7.823
  164POPC   C4A 6294  40.951   8.914   7.384
  164POPC   C1B 6295  40.440   9.266   8.704
  164POPC   C2B 6296  40.530   9.262   8.273
  164POPC   C3B 6297  40.374   9.212   7.892
  164POPC   C4B 6298  40.452   8.976   7.529
  165POPC   NC3 6299  38.722  43.027   9.556
  165POPC   PO4 6300  38.754  43.601   9.250
  165POPC   GL1 6301  38.498  43.304   9.044
  165POPC   GL2 6302  38.505  42.958   9.099
  165POPC   C1A 6303  38.419  43.477   8.675
  165POPC   D2A 6304  38.677  43.407   8.332
  165POPC   C3A 6305  38.485  43.294   7.960
  165POPC   C4A 6306  38.655  43.179   7.564
  165POPC   C1B 6307  38.337  42.974   8.698
  165POPC   C2B 6308  38.523  42.854   8.307
  165POPC   C3B 6309  38.508  42.782   7.867
  165POPC   C4B 6310  38.207  42.895   7.572
  166POPC   NC3 6311  12.138  24.929   9.395
  166POPC   PO4 6312  12.489  25.566   9.535
  166POPC   GL1 6313  12.386  25.375   9.117
  166POPC   GL2 6314  12.076  25.315   9.061
  166POPC   C1A 6315  12.345  25.118   8.706
  166POPC   D2A 6316  12.441  25.200   8.306
  166POPC   C3A 6317  12.219  25.193   7.940
  166POPC   C4A 6318  12.193  25.538   7.695
  166POPC   C1B 6319  11.879  25.371   8.700
  166POPC   C2B 6320  11.779  25.107   8.370
  166POPC   C3B 6321  11.708  25.254   7.985
  166POPC   C4B 6322  11.760  25.170   7.568
  167POPC   NC3 6323  34.657  38.062   9.538
  167POPC   PO4 6324  34.291  37.510   9.491
  167POPC   GL1 6325  34.659  37.601   9.245
  167POPC   GL2 6326  34.548  37.865   9.075
  167POPC   C1A 6327  34.704  37.435   8.832
  167POPC   D2A 6328  34.454  37.440   8.451
  167POPC   C3A 6329  34.654  37.603   8.058
  167POPC   C4A 6330  34.724  37.378   7.650
  167POPC   C1B 6331  34.435  37.928   8.673
  167POPC   C2B 6332  34.630  38.136   8.342
  167POPC   C3B 6333  34.529  38.105   7.917
  167POPC   C4B 6334  34.687  37.914   7.577
  168POPC   NC3 6335  17.134  35.260   9.393
  168POPC   PO4 6336  17.812  34.988   9.213
  168POPC   GL1 6337  17.425  35.114   9.000
  168POPC   GL2 6338  17.335  35.491   8.987
  168POPC   C1A 6339  17.459  35.196   8.587
  168POPC   D2A 6340  17.683  35.273   8.227
  168POPC   C3A 6341  17.448  35.002   7.971
  168POPC   C4A 6342  17.420  34.988   7.570
  168POPC   C1B 6343  17.136  35.596   8.606
  168POPC   C2B 6344  17.182  35.394   8.205
  168POPC   C3B 6345  17.429  35.524   7.859
  168POPC   C4B 6346  17.804  35.792   7.766
  169POPC   NC3 6347  33.286  10.117   9.501
  169POPC   PO4 6348  32.849   9.724   9.844
  169POPC   GL1 6349  33.026   9.645   9.368
  169POPC   GL2 6350  33.382   9.661   9.265
  169POPC   C1A 6351  33.084   9.531   8.877
  169POPC   D2A 6352  33.038   9.695   8.443
  169POPC   C3A 6353  33.101   9.457   8.041
  169POPC   C4A 6354  33.049   9.493   7.559
  169POPC   C1B 6355  33.383   9.936   8.870
  169POPC   C2B 6356  33.365  10.085   8.446
  169POPC   C3B 6357  33.076  10.099   8.108
  169POPC   C4B 6358  33.196   9.996   7.700
  170POPC   NC3 6359   3.059  27.876   9.506
  170POPC   PO4 6360   2.411  27.614   9.547
  170POPC   GL1 6361   2.635  27.738   9.228
  170POPC   GL2 6362   2.853  27.478   9.260
  170POPC   C1A 6363   2.762  27.753   8.799
  170POPC   D2A 6364   2.907  27.607   8.430
  170POPC   C3A 6365   2.755  27.677   8.017
  170POPC   C4A 6366   3.013  27.601   7.660
  170POPC   C1B 6367   2.500  27.333   8.969
  170POPC   C2B 6368   2.492  27.313   8.566
  170POPC   C3B 6369   2.506  27.241   8.133
  170POPC   C4B 6370   2.334  27.198   7.720
  171POPC   NC3 6371  37.053  22.833   9.278
  171POPC   PO4 6372  36.561  23.216   9.484
  171POPC   GL1 6373  36.579  22.978   9.106
  171POPC   GL2 6374  36.559  22.593   9.144
  171POPC   C1A 6375  36.807  23.137   8.752
  171POPC   D2A 6376  37.082  23.283   8.422
  171POPC   C3A 6377  36.975  23.048   8.064
  171POPC   C4A 6378  37.199  22.891   7.726
  171POPC   C1B 6379  36.741  22.552   8.730
  171POPC   C2B 6380  37.128  22.701   8.525
  171POPC   C3B 6381  37.196  22.549   8.125
  171POPC   C4B 6382  36.814  22.581   7.870
  172POPC   NC3 6383  34.153  43.773   9.573
  172POPC   PO4 6384  33.742  44.181   9.549
  172POPC   GL1 6385  33.670  44.028   9.186
  172POPC   GL2 6386  33.840  43.726   9.148
  172POPC   C1A 6387  33.798  44.066   8.774
  172POPC   D2A 6388  33.637  43.813   8.456
  172POPC   C3A 6389  33.634  44.053   8.101
  172POPC   C4A 6390  33.604  44.070   7.666
  172POPC   C1B 6391  34.046  43.650   8.720
  172POPC   C2B 6392  34.119  43.842   8.319
  172POPC   C3B 6393  33.928  43.620   8.031
  172POPC   C4B 6394  33.611  43.561   7.769
  173POPC   NC3 6395  34.762  43.677   9.296
  173POPC   PO4 6396  34.406  44.163   9.537
  173POPC   GL1 6397  34.218  44.108   9.126
  173POPC   GL2 6398  34.336  43.782   9.083
  173POPC   C1A 6399  34.400  44.047   8.683
  173POPC   D2A 6400  34.729  44.054   8.323
  173POPC   C3A 6401  34.537  44.056   7.927
  173POPC   C4A 6402  34.100  44.080   7.849
  173POPC   C1B 6403  34.546  43.540   8.695
  173POPC   C2B 6404  34.548  43.601   8.239
  173POPC   C3B 6405  34.397  43.594   7.845
  173POPC   C4B 6406  34.575  43.638   7.477
  174POPC   NC3 6407  11.677  41.238   9.504
  174POPC   PO4 6408  11.262  41.795   9.579
  174POPC   GL1 6409  11.423  41.671   9.243
  174POPC   GL2 6410  11.607  41.932   9.139
  174POPC   C1A 6411  11.370  41.495   8.866
  174POPC   D2A 6412  11.277  41.560   8.467
  174POPC   C3A 6413  11.390  41.369   8.102
  174POPC   C4A 6414  11.240  41.520   7.701
  174POPC   C1B 6415  11.709  41.846   8.699
  174POPC   C2B 6416  11.695  41.773   8.258
  174POPC   C3B 6417  11.717  42.016   7.897
  174POPC   C4B 6418  11.538  41.909   7.504
  175POPC   NC3 6419   4.105  21.087   9.683
  175POPC   PO4 6420   4.261  20.433   9.523
  175POPC   GL1 6421   4.259  20.756   9.182
  175POPC   GL2 6422   4.531  21.011   9.123
  175POPC   C1A 6423   4.198  20.605   8.751
  175POPC   D2A 6424   4.078  20.297   8.410
  175POPC   C3A 6425   4.217  20.284   7.946
  175POPC   C4A 6426   4.476  20.488   7.584
  175POPC   C1B 6427   4.703  20.770   8.775
  175POPC   C2B 6428   4.534  20.604   8.371
  175POPC   C3B 6429   4.310  20.781   8.021
  175POPC   C4B 6430   4.554  20.984   7.699
  176POPC   NC3 6431  12.907   9.882   9.507
  176POPC   PO4 6432  13.330   9.386   9.346
  176POPC   GL1 6433  12.963   9.577   9.101
  176POPC   GL2 6434  12.575   9.692   9.146
  176POPC   C1A 6435  12.840   9.718   8.696
  176POPC   D2A 6436  13.019   9.609   8.299
  176POPC   C3A 6437  12.834   9.814   7.947
  176POPC   C4A 6438  13.069   9.740   7.630
  176POPC   C1B 6439  12.438   9.386   8.818
  176POPC   C2B 6440  12.526   9.419   8.389
  176POPC   C3B 6441  12.687   9.319   7.999
  176POPC   C4B 6442  12.620   9.483   7.576
  177POPC   NC3 6443  15.035  26.480   9.896
  177POPC   PO4 6444  15.024  27.065   9.515
  177POPC   GL1 6445  15.296  26.965   9.167
  177POPC   GL2 6446  15.213  26.651   9.006
  177POPC   C1A 6447  15.206  27.054   8.702
  177POPC   D2A 6448  15.057  27.373   8.398
  177POPC   C3A 6449  14.908  27.243   7.974
  177POPC   C4A 6450  14.958  27.135   7.551
  177POPC   C1B 6451  15.194  26.567   8.553
  177POPC   C2B 6452  14.984  26.801   8.248
  177POPC   C3B 6453  15.031  26.703   7.843
  177POPC   C4B 6454  15.316  26.355   7.731
  178POPC   NC3 6455  41.956  21.840   9.616
  178POPC   PO4 6456  42.071  21.241   9.394
  178POPC   GL1 6457  42.222  21.219   9.011
  178POPC   GL2 6458  42.466  21.024   9.090
  178POPC   C1A 6459  42.306  21.231   8.579
  178POPC   D2A 6460  42.153  21.564   8.292
  178POPC   C3A 6461  42.383  21.562   7.921
  178POPC   C4A 6462  42.514  21.403   7.488
  178POPC   C1B 6463  42.734  20.935   8.783
  178POPC   C2B 6464  42.810  21.092   8.388
  178POPC   C3B 6465  42.659  21.119   7.982
  178POPC   C4B 6466  42.706  20.931   7.630
  179POPC   NC3 6467  44.944   3.310   9.852
  179POPC   PO4 6468  44.658   3.835   9.611
  179POPC   GL1 6469  44.568   3.860   9.146
  179POPC   GL2 6470  44.845   3.817   8.935
  179POPC   C1A 6471  44.436   3.625   8.717
  179POPC   D2A 6472  44.575   3.329   8.386
  179POPC   C3A 6473  44.390   3.429   7.969
  179POPC   C4A 6474  44.651   3.349   7.572
  179POPC   C1B 6475  44.700   4.048   8.626
  179POPC   C2B 6476  44.562   3.896   8.231
  179POPC   C3B 6477  44.680   3.804   7.834
  179POPC   C4B 6478  44.970   3.761   7.497
  180POPC   NC3 6479  32.530  10.053   9.623
  180POPC   PO4 6480  32.025   9.565   9.485
  180POPC   GL1 6481  32.216   9.846   9.246
  180POPC   GL2 6482  32.534   9.722   9.205
  180POPC   C1A 6483  32.213   9.986   8.821
  180POPC   D2A 6484  32.017   9.798   8.499
  180POPC   C3A 6485  31.942  10.053   8.186
  180POPC   C4A 6486  32.218   9.897   7.865
  180POPC   C1B 6487  32.596   9.671   8.739
  180POPC   C2B 6488  32.556   9.855   8.301
  180POPC   C3B 6489  32.725   9.775   7.886
  180POPC   C4B 6490  32.728   9.833   7.449
  181POPC   NC3 6491  18.677  34.426   9.666
  181POPC   PO4 6492  19.160  34.214   9.503
  181POPC   GL1 6493  18.914  34.391   9.146
  181POPC   GL2 6494  18.755  34.705   9.169
  181POPC   C1A 6495  19.008  34.486   8.699
  181POPC   D2A 6496  19.284  34.512   8.330
  181POPC   C3A 6497  19.005  34.541   8.016
  181POPC   C4A 6498  19.090  34.517   7.615
  181POPC   C1B 6499  18.622  34.827   8.726
  181POPC   C2B 6500  18.693  34.864   8.268
  181POPC   C3B 6501  18.628  34.796   7.822
  181POPC   C4B 6502  18.788  34.939   7.438
  182POPC   NC3 6503  24.918  44.280   9.254
  182POPC   PO4 6504  24.429  43.912   9.480
  182POPC   GL1 6505  24.371  43.734   9.088
  182POPC   GL2 6506  24.662  43.893   8.989
  182POPC   C1A 6507  24.243  43.808   8.657
  182POPC   D2A 6508  24.436  44.001   8.297
  182POPC   C3A 6509  24.278  43.992   7.886
  182POPC   C4A 6510  24.441  43.723   7.562
  182POPC   C1B 6511  24.750  43.459   8.837
  182POPC   C2B 6512  25.040  43.342   8.517
  182POPC   C3B 6513  25.022  43.627   8.139
  182POPC   C4B 6514  24.805  43.927   7.861
  183POPC   NC3 6515  34.312  32.167   9.540
  183POPC   PO4 6516  34.838  32.495   9.273
  183POPC   GL1 6517  34.680  32.143   9.074
  183POPC   GL2 6518  34.387  31.898   9.114
  183POPC   C1A 6519  34.715  32.193   8.632
  183POPC   D2A 6520  34.900  32.129   8.229
  183POPC   C3A 6521  34.714  32.249   7.860
  183POPC   C4A 6522  34.601  32.112   7.470
  183POPC   C1B 6523  34.202  32.265   8.862
  183POPC   C2B 6524  34.331  32.500   8.485
  183POPC   C3B 6525  34.371  32.594   8.053
  183POPC   C4B 6526  34.418  32.585   7.577
  184POPC   NC3 6527   8.585  12.400   9.431
  184POPC   PO4 6528   8.598  13.065   9.416
  184POPC   GL1 6529   8.757  12.789   9.084
  184POPC   GL2 6530   9.092  12.714   9.032
  184POPC   C1A 6531   8.812  12.949   8.665
  184POPC   D2A 6532   9.108  13.163   8.374
  184POPC   C3A 6533   8.960  13.062   7.942
  184POPC   C4A 6534   8.896  12.828   7.540
  184POPC   C1B 6535   9.315  12.778   8.651
  184POPC   C2B 6536   9.503  12.669   8.249
  184POPC   C3B 6537   9.363  12.739   7.832
  184POPC   C4B 6538   9.291  12.527   7.417
  185POPC   NC3 6539  35.945   9.297   9.343
  185POPC   PO4 6540  36.416   8.718   9.345
  185POPC   GL1 6541  36.213   8.941   9.119
  185POPC   GL2 6542  36.379   9.253   9.040
  185POPC   C1A 6543  35.986   8.931   8.775
  185POPC   D2A 6544  35.978   8.793   8.378
  185POPC   C3A 6545  35.884   9.101   8.066
  185POPC   C4A 6546  35.906   9.045   7.615
  185POPC   C1B 6547  36.501   8.970   8.717
  185POPC   C2B 6548  36.478   8.803   8.321
  185POPC   C3B 6549  36.333   8.907   7.931
  185POPC   C4B 6550  36.508   9.255   7.757
  186POPC   NC3 6551  24.848   9.981   9.430
  186POPC   PO4 6552  25.313   9.526   9.685
  186POPC   GL1 6553  25.201   9.641   9.172
  186POPC   GL2 6554  24.929   9.497   8.971
  186POPC   C1A 6555  25.425   9.676   8.800
  186POPC   D2A 6556  25.436  10.004   8.515
  186POPC   C3A 6557  25.444   9.876   8.085
  186POPC   C4A 6558  25.339   9.960   7.675
  186POPC   C1B 6559  24.963   9.852   8.680
  186POPC   C2B 6560  24.959  10.002   8.239
  186POPC   C3B 6561  24.845   9.985   7.774
  186POPC   C4B 6562  24.927   9.641   7.481
  187POPC   NC3 6563  44.695  42.712   9.354
  187POPC   PO4 6564  44.904  43.376   9.232
  187POPC   GL1 6565  44.688  43.099   9.022
  187POPC   GL2 6566  44.389  43.146   9.164
  187POPC   C1A 6567  44.531  42.925   8.665
  187POPC   D2A 6568  44.693  42.673   8.353
  187POPC   C3A 6569  44.756  42.990   8.060
  187POPC   C4A 6570  45.000  43.183   7.749
  187POPC   C1B 6571  44.393  43.438   8.753
  187POPC   C2B 6572  44.628  43.545   8.377
  187POPC   C3B 6573  44.670  43.507   7.930
  187POPC   C4B 6574  44.576  43.343   7.492
  188POPC   NC3 6575  35.841   2.848   9.782
  188POPC   PO4 6576  35.763   2.295   9.555
  188POPC   GL1 6577  35.712   2.674   9.294
  188POPC   GL2 6578  35.992   2.915   9.244
  188POPC   C1A 6579  35.730   2.774   8.828
  188POPC   D2A 6580  35.834   3.035   8.436
  188POPC   C3A 6581  35.830   2.811   8.023
  188POPC   C4A 6582  35.999   2.432   7.875
  188POPC   C1B 6583  36.204   2.998   8.801
  188POPC   C2B 6584  36.331   3.001   8.325
  188POPC   C3B 6585  36.345   2.807   7.909
  188POPC   C4B 6586  36.504   2.791   7.495
  189POPC   NC3 6587  25.965  40.801   9.605
  189POPC   PO4 6588  25.748  40.192   9.351
  189POPC   GL1 6589  25.796  40.639   9.128
  189POPC   GL2 6590  25.898  41.040   9.154
  189POPC   C1A 6591  26.048  40.752   8.761
  189POPC   D2A 6592  26.225  40.586   8.362
  189POPC   C3A 6593  26.106  40.778   7.969
  189POPC   C4A 6594  26.205  40.687   7.507
  189POPC   C1B 6595  26.164  41.244   8.776
  189POPC   C2B 6596  26.262  41.170   8.332
  189POPC   C3B 6597  25.986  41.275   7.991
  189POPC   C4B 6598  25.969  41.134   7.579
  190POPC   NC3 6599  11.189  25.000   9.296
  190POPC   PO4 6600  11.781  25.235   9.456
  190POPC   GL1 6601  11.568  25.417   9.114
  190POPC   GL2 6602  11.231  25.555   9.112
  190POPC   C1A 6603  11.388  25.235   8.730
  190POPC   D2A 6604  11.029  25.155   8.491
  190POPC   C3A 6605  11.176  25.124   8.075
  190POPC   C4A 6606  11.294  25.384   7.731
  190POPC   C1B 6607  11.032  25.663   8.666
  190POPC   C2B 6608  10.989  25.599   8.193
  190POPC   C3B 6609  10.856  25.636   7.765
  190POPC   C4B 6610  10.961  25.511   7.334
  191POPC   NC3 6611  44.695   9.332   9.546
  191POPC   PO4 6612  44.736   9.996   9.526
  191POPC   GL1 6613  44.742   9.880   9.129
  191POPC   GL2 6614  44.879   9.540   9.120
  191POPC   C1A 6615  44.781   9.804   8.701
  191POPC   D2A 6616  44.623   9.599   8.373
  191POPC   C3A 6617  44.796   9.781   8.049
  191POPC   C4A 6618  44.629   9.993   7.693
  191POPC   C1B 6619  44.838   9.306   8.723
  191POPC   C2B 6620  44.894   9.148   8.297
  191POPC   C3B 6621  44.633   9.297   7.946
  191POPC   C4B 6622  44.797   9.503   7.613
  192POPC   NC3 6623  38.877   8.659   9.385
  192POPC   PO4 6624  39.189   7.990   9.471
  192POPC   GL1 6625  39.185   8.225   9.133
  192POPC   GL2 6626  38.859   8.229   9.119
  192POPC   C1A 6627  39.378   8.185   8.755
  192POPC   D2A 6628  39.338   8.462   8.443
  192POPC   C3A 6629  39.286   8.340   8.046
  192POPC   C4A 6630  39.238   7.932   7.896
  192POPC   C1B 6631  38.899   8.379   8.717
  192POPC   C2B 6632  38.993   8.081   8.395
  192POPC   C3B 6633  38.764   7.986   8.053
  192POPC   C4B 6634  38.833   8.337   7.773
  193POPC   NC3 6635  31.799  19.708   9.844
  193POPC   PO4 6636  31.246  19.630   9.542
  193POPC   GL1 6637  31.398  19.881   9.216
  193POPC   GL2 6638  31.728  19.781   9.251
  193POPC   C1A 6639  31.295  19.906   8.763
  193POPC   D2A 6640  31.442  20.031   8.339
  193POPC   C3A 6641  31.216  19.917   7.936
  193POPC   C4A 6642  31.245  19.898   7.453
  193POPC   C1B 6643  31.819  19.850   8.807
  193POPC   C2B 6644  31.928  19.703   8.379
  193POPC   C3B 6645  31.683  19.689   8.020
  193POPC   C4B 6646  31.705  19.936   7.648
  194POPC   NC3 6647  28.050  30.319   9.414
  194POPC   PO4 6648  28.428  30.921   9.506
  194POPC   GL1 6649  28.374  30.761   9.124
  194POPC   GL2 6650  28.064  30.703   9.072
  194POPC   C1A 6651  28.410  30.751   8.687
  194POPC   D2A 6652  28.652  30.835   8.344
  194POPC   C3A 6653  28.554  30.592   7.986
  194POPC   C4A 6654  28.344  30.750   7.617
  194POPC   C1B 6655  28.105  30.348   8.742
  194POPC   C2B 6656  28.329  30.292   8.369
  194POPC   C3B 6657  28.147  30.278   7.933
  194POPC   C4B 6658  27.985  30.405   7.536
  195POPC   NC3 6659   8.082  26.346   9.533
  195POPC   PO4 6660   8.536  25.727   9.481
  195POPC   GL1 6661   8.311  25.832   9.128
  195POPC   GL2 6662   8.302  26.188   9.119
  195POPC   C1A 6663   8.297  25.925   8.680
  195POPC   D2A 6664   8.057  25.945   8.336
  195POPC   C3A 6665   8.255  26.003   7.976
  195POPC   C4A 6666   8.104  25.895   7.576
  195POPC   C1B 6667   8.090  26.384   8.757
  195POPC   C2B 6668   8.196  26.455   8.357
  195POPC   C3B 6669   7.964  26.402   7.999
  195POPC   C4B 6670   8.072  26.419   7.583
  196POPC   NC3 6671   0.899  42.778   9.360
  196POPC   PO4 6672   1.480  43.027   9.532
  196POPC   GL1 6673   1.413  43.110   9.093
  196POPC   GL2 6674   1.459  42.745   9.091
  196POPC   C1A 6675   1.275  43.357   8.679
  196POPC   D2A 6676   0.952  43.440   8.349
  196POPC   C3A 6677   1.157  43.347   7.954
  196POPC   C4A 6678   1.458  43.461   7.685
  196POPC   C1B 6679   1.261  42.830   8.698
  196POPC   C2B 6680   1.183  42.972   8.301
  196POPC   C3B 6681   1.250  42.764   7.914
  196POPC   C4B 6682   1.386  42.945   7.538
  197POPC   NC3 6683   3.958  25.060   9.515
  197POPC   PO4 6684   4.609  25.381   9.559
  197POPC   GL1 6685   4.519  25.228   9.182
  197POPC   GL2 6686   4.174  25.357   9.125
  197POPC   C1A 6687   4.608  25.416   8.789
  197POPC   D2A 6688   4.326  25.420   8.443
  197POPC   C3A 6689   4.524  25.365   8.059
  197POPC   C4A 6690   4.349  25.492   7.653
  197POPC   C1B 6691   4.230  25.060   8.796
  197POPC   C2B 6692   4.072  24.966   8.379
  197POPC   C3B 6693   4.292  24.904   8.001
  197POPC   C4B 6694   4.418  24.979   7.572
  198POPC   NC3 6695  40.003  12.465   9.515
  198POPC   PO4 6696  40.280  13.062   9.659
  198POPC   GL1 6697  40.143  13.043   9.189
  198POPC   GL2 6698  39.872  12.849   9.161
  198POPC   C1A 6699  40.178  12.931   8.741
  198POPC   D2A 6700  39.927  12.762   8.405
  198POPC   C3A 6701  40.186  12.819   8.096
  198POPC   C4A 6702  40.303  12.779   7.718
  198POPC   C1B 6703  39.786  13.251   8.889
  198POPC   C2B 6704  39.749  13.287   8.420
  198POPC   C3B 6705  39.919  13.218   7.972
  198POPC   C4B 6706  40.028  13.141   7.489
  199POPC   NC3 6707  35.074  24.305   9.635
  199POPC   PO4 6708  35.536  24.712   9.547
  199POPC   GL1 6709  35.548  24.613   9.126
  199POPC   GL2 6710  35.240  24.457   9.182
  199POPC   C1A 6711  35.684  24.553   8.690
  199POPC   D2A 6712  35.421  24.383   8.378
  199POPC   C3A 6713  35.456  24.456   7.947
  199POPC   C4A 6714  35.470  24.735   7.615
  199POPC   C1B 6715  35.180  24.573   8.787
  199POPC   C2B 6716  34.910  24.469   8.464
  199POPC   C3B 6717  34.991  24.277   8.074
  199POPC   C4B 6718  35.051  24.456   7.628
  200POPC   NC3 6719   2.209  19.538   9.453
  200POPC   PO4 6720   1.917  20.085   9.425
  200POPC   GL1 6721   1.808  19.825   9.086
  200POPC   GL2 6722   2.089  19.580   8.980
  200POPC   C1A 6723   1.801  19.773   8.644
  200POPC   D2A 6724   2.119  19.581   8.453
  200POPC   C3A 6725   2.024  19.682   8.068
  200POPC   C4A 6726   2.016  19.712   7.639
  200POPC   C1B 6727   2.238  19.988   8.799
  200POPC   C2B 6728   2.434  19.984   8.393
  200POPC   C3B 6729   2.397  20.006   7.985
  200POPC   C4B 6730   2.422  20.202   7.629
  201POPC   NC3 6731   7.991  34.037   9.796
  201POPC   PO4 6732   8.633  33.759   9.512
  201POPC   GL1 6733   8.379  33.723   9.155
  201POPC   GL2 6734   8.457  34.068   9.124
  201POPC   C1A 6735   8.130  33.733   8.727
  201POPC   D2A 6736   8.189  33.476   8.346
  201POPC   C3A 6737   8.422  33.621   8.015
  201POPC   C4A 6738   8.158  33.715   7.687
  201POPC   C1B 6739   8.591  33.917   8.742
  201POPC   C2B 6740   8.549  34.044   8.311
  201POPC   C3B 6741   8.299  34.132   7.956
  201POPC   C4B 6742   8.420  34.079   7.489
  202POPC   NC3 6743   9.640  38.525   9.742
  202POPC   PO4 6744  10.076  38.087   9.890
  202POPC   GL1 6745   9.901  38.199   9.387
  202POPC   GL2 6746   9.704  38.527   9.246
  202POPC   C1A 6747  10.011  38.294   8.891
  202POPC   D2A 6748   9.846  38.491   8.489
  202POPC   C3A 6749   9.888  38.264   8.098
  202POPC   C4A 6750  10.020  38.505   7.734
  202POPC   C1B 6751   9.504  38.587   8.850
  202POPC   C2B 6752   9.383  38.789   8.443
  202POPC   C3B 6753   9.629  38.723   8.078
  202POPC   C4B 6754   9.536  38.471   7.752
  203POPC   NC3 6755  26.837   9.286   9.491
  203POPC   PO4 6756  26.322   8.910   9.735
  203POPC   GL1 6757  26.506   8.908   9.289
  203POPC   GL2 6758  26.873   8.840   9.242
  203POPC   C1A 6759  26.645   9.033   8.841
  203POPC   D2A 6760  26.678   8.831   8.428
  203POPC   C3A 6761  26.644   9.120   8.119
  203POPC   C4A 6762  26.898   9.318   7.757
  203POPC   C1B 6763  27.144   8.912   8.835
  203POPC   C2B 6764  27.320   8.879   8.391
  203POPC   C3B 6765  27.069   8.877   8.013
  203POPC   C4B 6766  26.735   8.777   7.759
  204POPC   NC3 6767  20.012  20.297   9.467
  204POPC   PO4 6768  20.024  20.976   9.477
  204POPC   GL1 6769  20.045  20.692   9.130
  204POPC   GL2 6770  19.675  20.594   9.183
  204POPC   C1A 6771  20.086  20.435   8.729
  204POPC   D2A 6772  20.216  20.231   8.371
  204POPC   C3A 6773  19.962  20.441   8.094
  204POPC   C4A 6774  19.993  20.716   7.753
  204POPC   C1B 6775  19.680  20.742   8.748
  204POPC   C2B 6776  19.704  20.936   8.361
  204POPC   C3B 6777  19.535  20.757   7.989
  204POPC   C4B 6778  19.578  20.371   7.771
  205POPC   NC3 6779   3.229  24.821   9.400
  205POPC   PO4 6780   3.608  25.411   9.524
  205POPC   GL1 6781   3.661  25.493   9.126
  205POPC   GL2 6782   3.621  25.112   9.087
  205POPC   C1A 6783   3.387  25.535   8.752
  205POPC   D2A 6784   3.289  25.273   8.438
  205POPC   C3A 6785   3.457  25.324   8.035
  205POPC   C4A 6786   3.202  25.056   7.813
  205POPC   C1B 6787   3.796  25.271   8.693
  205POPC   C2B 6788   3.814  25.535   8.350
  205POPC   C3B 6789   4.001  25.323   8.012
  205POPC   C4B 6790   3.952  25.198   7.568
  206POPC   NC3 6791  14.443  32.345   9.518
  206POPC   PO4 6792  14.563  31.766   9.880
  206POPC   GL1 6793  14.507  31.841   9.357
  206POPC   GL2 6794  14.720  32.011   9.143
  206POPC   C1A 6795  14.289  31.957   8.895
  206POPC   D2A 6796  14.273  32.195   8.474
  206POPC   C3A 6797  14.172  32.048   8.053
  206POPC   C4A 6798  14.286  32.208   7.628
  206POPC   C1B 6799  14.715  32.238   8.755
  206POPC   C2B 6800  14.722  32.414   8.351
  206POPC   C3B 6801  14.674  32.201   7.967
  206POPC   C4B 6802  14.801  32.310   7.545
  207POPC   NC3 6803  27.132   1.812   9.919
  207POPC   PO4 6804  27.735   1.742   9.627
  207POPC   GL1 6805  27.491   1.876   9.234
  207POPC   GL2 6806  27.183   1.730   9.266
  207POPC   C1A 6807  27.361   2.049   8.798
  207POPC   D2A 6808  27.450   2.255   8.389
  207POPC   C3A 6809  27.535   2.054   8.003
  207POPC   C4A 6810  27.393   2.075   7.593
  207POPC   C1B 6811  27.142   1.583   8.841
  207POPC   C2B 6812  27.294   1.655   8.413
  207POPC   C3B 6813  27.168   1.714   7.987
  207POPC   C4B 6814  26.969   1.508   7.671
  208POPC   NC3 6815  23.602  11.474   9.525
  208POPC   PO4 6816  23.841  10.851   9.609
  208POPC   GL1 6817  23.849  11.149   9.224
  208POPC   GL2 6818  23.491  11.216   9.102
  208POPC   C1A 6819  23.873  11.358   8.809
  208POPC   D2A 6820  23.661  11.269   8.421
  208POPC   C3A 6821  23.863  11.232   7.997
  208POPC   C4A 6822  23.983  11.014   7.596
  208POPC   C1B 6823  23.206  11.433   8.776
  208POPC   C2B 6824  23.273  11.591   8.341
  208POPC   C3B 6825  23.656  11.700   8.122
  208POPC   C4B 6826  23.694  11.629   7.698
  209POPC   NC3 6827  10.796   9.589   9.493
  209POPC   PO4 6828  10.294  10.103   9.454
  209POPC   GL1 6829  10.513   9.858   9.159
  209POPC   GL2 6830  10.822   9.963   9.075
  209POPC   C1A 6831  10.441   9.718   8.740
  209POPC   D2A 6832  10.122   9.912   8.496
  209POPC   C3A 6833  10.188  10.041   8.057
  209POPC   C4A 6834  10.244   9.776   7.705
  209POPC   C1B 6835  10.944   9.608   8.801
  209POPC   C2B 6836  10.804   9.454   8.425
  209POPC   C3B 6837  10.520   9.539   8.095
  209POPC   C4B 6838  10.733   9.700   7.756
  210POPC   NC3 6839  24.191   6.413   9.498
  210POPC   PO4 6840  24.691   6.893   9.496
  210POPC   GL1 6841  24.776   6.749   9.111
  210POPC   GL2 6842  24.481   6.571   9.113
  210POPC   C1A 6843  24.738   6.637   8.681
  210POPC   D2A 6844  24.455   6.711   8.348
  210POPC   C3A 6845  24.699   6.744   8.008
  210POPC   C4A 6846  24.704   6.554   7.622
  210POPC   C1B 6847  24.323   6.341   8.751
  210POPC   C2B 6848  24.510   6.204   8.374
  210POPC   C3B 6849  24.388   6.322   7.965
  210POPC   C4B 6850  24.426   6.135   7.544
  211POPC   NC3 6851   8.046   4.733   9.359
  211POPC   PO4 6852   8.340   4.133   9.548
  211POPC   GL1 6853   8.350   4.331   9.149
  211POPC   GL2 6854   8.546   4.595   9.231
  211POPC   C1A 6855   8.248   4.473   8.707
  211POPC   D2A 6856   8.002   4.360   8.357
  211POPC   C3A 6857   7.906   4.600   8.013
  211POPC   C4A 6858   8.000   4.405   7.632
  211POPC   C1B 6859   8.717   4.638   8.812
  211POPC   C2B 6860   8.600   4.692   8.348
  211POPC   C3B 6861   8.419   4.554   7.930
  211POPC   C4B 6862   8.446   4.583   7.432
  212POPC   NC3 6863  32.574  18.860   9.850
  212POPC   PO4 6864  32.438  19.272   9.308
  212POPC   GL1 6865  32.240  18.916   9.126
  212POPC   GL2 6866  31.910  18.749   9.213
  212POPC   C1A 6867  32.298  18.854   8.697
  212POPC   D2A 6868  32.350  18.638   8.325
  212POPC   C3A 6869  32.443  18.916   7.999
  212POPC   C4A 6870  32.264  19.070   7.631
  212POPC   C1B 6871  31.813  18.987   8.806
  212POPC   C2B 6872  31.805  19.170   8.349
  212POPC   C3B 6873  31.733  19.171   7.872
  212POPC   C4B 6874  31.811  18.948   7.458
  213POPC   NC3 6875  27.478  39.023   9.562
  213POPC   PO4 6876  27.829  39.525   9.452
  213POPC   GL1 6877  27.775  39.183   9.160
  213POPC   GL2 6878  27.457  39.308   9.107
  213POPC   C1A 6879  27.690  39.025   8.745
  213POPC   D2A 6880  27.427  39.177   8.424
  213POPC   C3A 6881  27.622  39.256   8.060
  213POPC   C4A 6882  27.420  39.293   7.654
  213POPC   C1B 6883  27.709  39.534   8.757
  213POPC   C2B 6884  27.917  39.604   8.324
  213POPC   C3B 6885  28.047  39.520   7.881
  213POPC   C4B 6886  27.851  39.466   7.472
  214POPC   NC3 6887  27.041  36.014   9.449
  214POPC   PO4 6888  26.784  36.617   9.327
  214POPC   GL1 6889  26.731  36.329   9.009
  214POPC   GL2 6890  26.696  35.994   9.079
  214POPC   C1A 6891  27.002  36.185   8.678
  214POPC   D2A 6892  26.807  36.152   8.276
  214POPC   C3A 6893  26.998  36.052   7.893
  214POPC   C4A 6894  26.764  36.165   7.511
  214POPC   C1B 6895  26.553  35.931   8.673
  214POPC   C2B 6896  26.418  35.718   8.304
  214POPC   C3B 6897  26.481  35.936   7.931
  214POPC   C4B 6898  26.331  35.895   7.539
  215POPC   NC3 6899  11.095  32.839   9.466
  215POPC   PO4 6900  11.781  32.797   9.456
  215POPC   GL1 6901  11.476  32.798   9.133
  215POPC   GL2 6902  11.292  33.139   9.110
  215POPC   C1A 6903  11.270  32.779   8.735
  215POPC   D2A 6904  11.407  32.728   8.317
  215POPC   C3A 6905  11.293  33.072   8.059
  215POPC   C4A 6906  11.112  33.161   7.677
  215POPC   C1B 6907  11.633  33.169   8.811
  215POPC   C2B 6908  11.559  33.326   8.406
  215POPC   C3B 6909  11.647  33.442   7.977
  215POPC   C4B 6910  11.695  33.116   7.680
  216POPC   NC3 6911  13.803  28.962   9.389
  216POPC   PO4 6912  13.526  29.636   9.506
  216POPC   GL1 6913  13.480  29.322   9.194
  216POPC   GL2 6914  13.795  29.334   9.056
  216POPC   C1A 6915  13.372  29.206   8.754
  216POPC   D2A 6916  13.222  29.375   8.348
  216POPC   C3A 6917  13.276  29.076   8.028
  216POPC   C4A 6918  13.627  28.858   7.859
  216POPC   C1B 6919  13.982  29.470   8.722
  216POPC   C2B 6920  13.784  29.263   8.374
  216POPC   C3B 6921  13.707  29.371   7.965
  216POPC   C4B 6922  14.066  29.418   7.719
  217POPC   NC3 6923  11.458  35.446   9.382
  217POPC   PO4 6924  10.795  35.611   9.413
  217POPC   GL1 6925  11.051  35.569   9.086
  217POPC   GL2 6926  10.948  35.231   9.093
  217POPC   C1A 6927  11.302  35.388   8.758
  217POPC   D2A 6928  11.296  35.302   8.362
  217POPC   C3A 6929  11.337  35.579   7.990
  217POPC   C4A 6930  11.482  35.555   7.565
  217POPC   C1B 6931  10.863  35.044   8.700
  217POPC   C2B 6932  11.054  34.853   8.360
  217POPC   C3B 6933  11.289  34.983   7.981
  217POPC   C4B 6934  11.251  35.095   7.575
  218POPC   NC3 6935  18.339  20.484   9.431
  218POPC   PO4 6936  18.126  21.090   9.604
  218POPC   GL1 6937  18.033  20.884   9.217
  218POPC   GL2 6938  17.894  20.545   9.183
  218POPC   C1A 6939  18.164  20.846   8.796
  218POPC   D2A 6940  18.237  20.974   8.383
  218POPC   C3A 6941  18.062  20.664   8.125
  218POPC   C4A 6942  18.208  20.616   7.695
  218POPC   C1B 6943  18.119  20.306   8.826
  218POPC   C2B 6944  18.281  20.288   8.410
  218POPC   C3B 6945  18.143  20.186   8.003
  218POPC   C4B 6946  17.953  20.198   7.624
  219POPC   NC3 6947  38.735  15.637   9.494
  219POPC   PO4 6948  38.999  15.038   9.447
  219POPC   GL1 6949  38.629  15.058   9.160
  219POPC   GL2 6950  38.324  14.846   9.181
  219POPC   C1A 6951  38.411  15.231   8.776
  219POPC   D2A 6952  38.288  15.445   8.369
  219POPC   C3A 6953  38.535  15.369   7.962
  219POPC   C4A 6954  38.585  15.379   7.466
  219POPC   C1B 6955  38.535  14.723   8.764
  219POPC   C2B 6956  38.555  14.947   8.325
  219POPC   C3B 6957  38.380  14.883   7.879
  219POPC   C4B 6958  38.383  14.508   7.612
  220POPC   NC3 6959  42.393  43.563   9.697
  220POPC   PO4 6960  42.475  44.105   9.425
  220POPC   GL1 6961  42.194  43.962   9.166
  220POPC   GL2 6962  42.265  43.616   9.098
  220POPC   C1A 6963  42.271  43.987   8.749
  220POPC   D2A 6964  42.252  43.766   8.426
  220POPC   C3A 6965  42.265  44.039   8.103
  220POPC   C4A 6966  42.344  43.917   7.738
  220POPC   C1B 6967  41.939  43.573   8.789
  220POPC   C2B 6968  41.827  43.467   8.360
  220POPC   C3B 6969  41.968  43.633   7.992
  220POPC   C4B 6970  42.082  43.507   7.578
  221POPC   NC3 6971   1.692  30.551   9.334
  221POPC   PO4 6972   1.120  30.876   9.461
  221POPC   GL1 6973   1.198  30.591   9.174
  221POPC   GL2 6974   0.888  30.640   8.996
  221POPC   C1A 6975   1.283  30.394   8.760
  221POPC   D2A 6976   1.086  30.457   8.381
  221POPC   C3A 6977   1.356  30.621   8.053
  221POPC   C4A 6978   1.292  30.757   7.619
  221POPC   C1B 6979   1.161  30.889   8.773
  221POPC   C2B 6980   1.161  30.975   8.377
  221POPC   C3B 6981   1.179  31.099   8.001
  221POPC   C4B 6982   1.028  31.223   7.676
  222POPC   NC3 6983  31.968  24.540   9.567
  222POPC   PO4 6984  32.155  23.936   9.382
  222POPC   GL1 6985  32.425  24.184   9.097
  222POPC   GL2 6986  32.444  24.532   9.138
  222POPC   C1A 6987  32.368  24.196   8.627
  222POPC   D2A 6988  32.297  24.526   8.295
  222POPC   C3A 6989  32.255  24.393   7.862
  222POPC   C4A 6990  32.463  24.316   7.453
  222POPC   C1B 6991  32.119  24.580   8.830
  222POPC   C2B 6992  31.865  24.755   8.487
  222POPC   C3B 6993  31.962  24.879   8.037
  222POPC   C4B 6994  31.812  24.785   7.622
  223POPC   NC3 6995   2.654  36.845   9.575
  223POPC   PO4 6996   3.138  37.322   9.569
  223POPC   GL1 6997   2.912  37.236   9.186
  223POPC   GL2 6998   2.843  36.873   9.105
  223POPC   C1A 6999   3.025  37.156   8.744
  223POPC   D2A 7000   2.770  36.997   8.433
  223POPC   C3A 7001   3.041  36.844   8.135
  223POPC   C4A 7002   2.928  36.674   7.764
  223POPC   C1B 7003   2.454  36.944   8.845
  223POPC   C2B 7004   2.307  36.744   8.458
  223POPC   C3B 7005   2.477  36.727   8.033
  223POPC   C4B 7006   2.404  36.555   7.602
  224POPC   NC3 7007  40.824  29.257   9.347
  224POPC   PO4 7008  40.357  28.686   9.378
  224POPC   GL1 7009  40.407  29.043   9.117
  224POPC   GL2 7010  40.464  29.418   9.025
  224POPC   C1A 7011  40.661  29.027   8.739
  224POPC   D2A 7012  40.577  29.041   8.311
  224POPC   C3A 7013  40.886  28.896   8.015
  224POPC   C4A 7014  41.122  29.179   7.701
  224POPC   C1B 7015  40.573  29.526   8.615
  224POPC   C2B 7016  40.328  29.506   8.258
  224POPC   C3B 7017  40.422  29.264   7.878
  224POPC   C4B 7018  40.380  29.329   7.419
  225POPC   NC3 7019  23.427  41.093   9.413
  225POPC   PO4 7020  23.775  41.712   9.559
  225POPC   GL1 7021  23.482  41.558   9.203
  225POPC   GL2 7022  23.553  41.839   9.085
  225POPC   C1A 7023  23.348  41.535   8.716
  225POPC   D2A 7024  23.658  41.403   8.341
  225POPC   C3A 7025  23.535  41.206   7.916
  225POPC   C4A 7026  23.490  41.347   7.458
  225POPC   C1B 7027  23.769  41.834   8.719
  225POPC   C2B 7028  23.645  41.926   8.326
  225POPC   C3B 7029  23.890  41.950   7.977
  225POPC   C4B 7030  23.849  41.590   7.703
  226POPC   NC3 7031   9.113   0.001   9.475
  226POPC   PO4 7032   8.567  44.634   9.541
  226POPC   GL1 7033   8.892  44.526   9.247
  226POPC   GL2 7034   8.868  44.820   9.085
  226POPC   C1A 7035   9.156  44.469   8.863
  226POPC   D2A 7036   9.106  44.607   8.443
  226POPC   C3A 7037   9.111  44.395   8.043
  226POPC   C4A 7038   9.066  44.368   7.576
  226POPC   C1B 7039   9.144  44.991   8.786
  226POPC   C2B 7040   9.023   0.089   8.362
  226POPC   C3B 7041   8.953  44.882   7.991
  226POPC   C4B 7042   9.241  44.982   7.690
  227POPC   NC3 7043  15.371  28.465   9.513
  227POPC   PO4 7044  14.769  28.516   9.506
  227POPC   GL1 7045  14.861  28.260   9.154
  227POPC   GL2 7046  15.215  28.380   9.035
  227POPC   C1A 7047  14.839  28.241   8.710
  227POPC   D2A 7048  15.204  28.349   8.481
  227POPC   C3A 7049  15.327  28.203   8.064
  227POPC   C4A 7050  15.483  28.274   7.658
  227POPC   C1B 7051  14.959  28.708   8.861
  227POPC   C2B 7052  14.756  28.684   8.448
  227POPC   C3B 7053  14.908  28.485   8.083
  227POPC   C4B 7054  15.002  28.505   7.670
  228POPC   NC3 7055  43.146  22.695   9.593
  228POPC   PO4 7056  43.302  23.338   9.464
  228POPC   GL1 7057  43.122  23.035   9.193
  228POPC   GL2 7058  43.473  22.998   9.086
  228POPC   C1A 7059  42.985  22.890   8.772
  228POPC   D2A 7060  43.083  23.106   8.366
  228POPC   C3A 7061  43.123  22.901   7.950
  228POPC   C4A 7062  42.959  22.525   7.937
  228POPC   C1B 7063  43.505  22.909   8.640
  228POPC   C2B 7064  43.562  23.010   8.201
  228POPC   C3B 7065  43.601  22.835   7.780
  228POPC   C4B 7066  43.449  22.958   7.361
  229POPC   NC3 7067  27.882  40.636   9.672
  229POPC   PO4 7068  27.476  41.158   9.395
  229POPC   GL1 7069  27.541  41.025   8.996
  229POPC   GL2 7070  27.609  40.681   9.058
  229POPC   C1A 7071  27.840  40.961   8.653
  229POPC   D2A 7072  27.674  40.970   8.271
  229POPC   C3A 7073  27.882  40.871   7.975
  229POPC   C4A 7074  28.029  41.115   7.710
  229POPC   C1B 7075  27.482  40.591   8.630
  229POPC   C2B 7076  27.233  40.754   8.269
  229POPC   C3B 7077  27.385  40.778   7.856
  229POPC   C4B 7078  27.556  40.412   7.696
  230POPC   NC3 7079  35.066  10.002   9.560
  230POPC   PO4 7080  35.633   9.571   9.542
  230POPC   GL1 7081  35.402   9.507   9.207
  230POPC   GL2 7082  35.324   9.859   9.146
  230POPC   C1A 7083  35.375   9.499   8.767
  230POPC   D2A 7084  35.111   9.702   8.457
  230POPC   C3A 7085  35.208   9.641   8.015
  230POPC   C4A 7086  34.965   9.580   7.631
  230POPC   C1B 7087  35.532   9.987   8.776
  230POPC   C2B 7088  35.650   9.834   8.388
  230POPC   C3B 7089  35.621   9.994   7.978
  230POPC   C4B 7090  35.441  10.245   7.669
  231POPC   NC3 7091  29.058  38.800   9.392
  231POPC   PO4 7092  29.023  38.063   9.490
  231POPC   GL1 7093  29.293  38.297   9.174
  231POPC   GL2 7094  29.444  38.628   9.132
  231POPC   C1A 7095  29.158  38.351   8.776
  231POPC   D2A 7096  28.969  38.604   8.492
  231POPC   C3A 7097  29.062  38.394   8.118
  231POPC   C4A 7098  28.971  38.536   7.718
  231POPC   C1B 7099  29.412  38.795   8.754
  231POPC   C2B 7100  29.477  38.602   8.428
  231POPC   C3B 7101  29.450  38.753   8.095
  231POPC   C4B 7102  29.468  38.594   7.724
  232POPC   NC3 7103  35.543   4.668   9.656
  232POPC   PO4 7104  34.963   5.078   9.701
  232POPC   GL1 7105  35.368   5.086   9.367
  232POPC   GL2 7106  35.562   5.332   9.126
  232POPC   C1A 7107  35.454   4.893   8.931
  232POPC   D2A 7108  35.231   4.952   8.519
  232POPC   C3A 7109  35.347   4.888   8.080
  232POPC   C4A 7110  35.114   4.944   7.724
  232POPC   C1B 7111  35.477   5.364   8.690
  232POPC   C2B 7112  35.492   5.529   8.257
  232POPC   C3B 7113  35.268   5.413   7.875
  232POPC   C4B 7114  35.182   5.427   7.420
  233POPC   NC3 7115   7.542  21.117   9.539
  233POPC   PO4 7116   6.898  21.187   9.421
  233POPC   GL1 7117   7.260  21.346   9.150
  233POPC   GL2 7118   7.681  21.355   9.117
  233POPC   C1A 7119   7.362  21.148   8.773
  233POPC   D2A 7120   7.404  21.336   8.373
  233POPC   C3A 7121   7.284  21.174   7.975
  233POPC   C4A 7122   7.580  21.114   7.614
  233POPC   C1B 7123   7.504  21.637   8.802
  233POPC   C2B 7124   7.360  21.850   8.425
  233POPC   C3B 7125   7.461  21.764   8.027
  233POPC   C4B 7126   7.428  21.586   7.631
  234POPC   NC3 7127   6.439   2.695   9.262
  234POPC   PO4 7128   7.051   2.498   9.447
  234POPC   GL1 7129   6.927   2.686   9.095
  234POPC   GL2 7130   6.759   2.398   9.034
  234POPC   C1A 7131   6.722   2.910   8.714
  234POPC   D2A 7132   6.843   3.040   8.278
  234POPC   C3A 7133   6.509   3.091   7.950
  234POPC   C4A 7134   6.515   3.253   7.536
  234POPC   C1B 7135   6.942   2.454   8.646
  234POPC   C2B 7136   6.832   2.445   8.268
  234POPC   C3B 7137   6.808   2.642   7.925
  234POPC   C4B 7138   7.057   2.329   7.758
  235POPC   NC3 7139  40.194  26.585   9.571
  235POPC   PO4 7140  39.654  26.919   9.385
  235POPC   GL1 7141  40.005  26.901   9.146
  235POPC   GL2 7142  40.247  26.642   9.087
  235POPC   C1A 7143  39.887  26.773   8.749
  235POPC   D2A 7144  39.996  26.628   8.378
  235POPC   C3A 7145  39.844  26.955   8.102
  235POPC   C4A 7146  39.642  26.751   7.785
  235POPC   C1B 7147  40.380  26.889   8.775
  235POPC   C2B 7148  40.497  26.717   8.414
  235POPC   C3B 7149  40.313  26.782   8.010
  235POPC   C4B 7150  40.261  26.413   7.798
  236POPC   NC3 7151  18.180   5.708   9.716
  236POPC   PO4 7152  18.305   5.032   9.506
  236POPC   GL1 7153  18.353   4.952   9.076
  236POPC   GL2 7154  18.163   4.668   8.975
  236POPC   C1A 7155  18.176   5.144   8.714
  236POPC   D2A 7156  18.044   5.467   8.425
  236POPC   C3A 7157  18.202   5.366   8.038
  236POPC   C4A 7158  18.324   5.204   7.678
  236POPC   C1B 7159  18.090   4.647   8.559
  236POPC   C2B 7160  18.352   4.849   8.308
  236POPC   C3B 7161  18.457   4.789   7.925
  236POPC   C4B 7162  18.203   4.689   7.595
  237POPC   NC3 7163  43.895  41.688   9.738
  237POPC   PO4 7164  43.925  41.061   9.555
  237POPC   GL1 7165  43.809  41.303   9.186
  237POPC   GL2 7166  43.950  41.662   9.218
  237POPC   C1A 7167  44.079  41.399   8.798
  237POPC   D2A 7168  44.002  41.673   8.452
  237POPC   C3A 7169  44.080  41.468   8.039
  237POPC   C4A 7170  43.758  41.287   7.764
  237POPC   C1B 7171  43.633  41.681   8.876
  237POPC   C2B 7172  43.485  41.719   8.450
  237POPC   C3B 7173  43.604  41.686   8.054
  237POPC   C4B 7174  43.686  41.833   7.639
  238POPC   NC3 7175   5.462  36.208   9.343
  238POPC   PO4 7176   5.930  35.778   9.489
  238POPC   GL1 7177   5.897  36.048   9.140
  238POPC   GL2 7178   5.621  35.889   8.972
  238POPC   C1A 7179   5.760  36.406   8.810
  238POPC   D2A 7180   5.641  36.603   8.399
  238POPC   C3A 7181   5.879  36.473   8.033
  238POPC   C4A 7182   5.773  36.397   7.628
  238POPC   C1B 7183   5.933  35.956   8.656
  238POPC   C2B 7184   5.999  36.012   8.262
  238POPC   C3B 7185   5.964  35.953   7.858
  238POPC   C4B 7186   5.929  35.947   7.453
  239POPC   NC3 7187  24.422   5.465   9.279
  239POPC   PO4 7188  24.579   6.100   9.532
  239POPC   GL1 7189  24.601   6.067   9.110
  239POPC   GL2 7190  24.251   6.008   9.136
  239POPC   C1A 7191  24.733   5.854   8.729
  239POPC   D2A 7192  24.685   5.716   8.292
  239POPC   C3A 7193  24.782   5.986   7.935
  239POPC   C4A 7194  24.766   5.759   7.558
  239POPC   C1B 7195  24.184   5.840   8.737
  239POPC   C2B 7196  24.085   5.936   8.323
  239POPC   C3B 7197  24.283   5.821   7.960
  239POPC   C4B 7198  24.266   5.655   7.579
  240POPC   NC3 7199  37.646  18.785   9.493
  240POPC   PO4 7200  37.768  19.418   9.746
  240POPC   GL1 7201  37.659  19.269   9.320
  240POPC   GL2 7202  37.956  19.126   9.277
  240POPC   C1A 7203  37.593  19.063   8.896
  240POPC   D2A 7204  37.364  19.026   8.520
  240POPC   C3A 7205  37.562  19.063   8.117
  240POPC   C4A 7206  37.414  19.099   7.717
  240POPC   C1B 7207  38.108  19.001   8.883
  240POPC   C2B 7208  37.907  18.943   8.484
  240POPC   C3B 7209  38.062  18.973   8.044
  240POPC   C4B 7210  37.899  18.921   7.624
  241POPC   NC3 7211  19.191  29.758   9.556
  241POPC   PO4 7212  18.627  29.405   9.348
  241POPC   GL1 7213  18.898  29.738   9.145
  241POPC   GL2 7214  19.287  29.796   9.070
  241POPC   C1A 7215  18.931  30.066   8.827
  241POPC   D2A 7216  18.747  30.306   8.507
  241POPC   C3A 7217  19.064  30.234   8.166
  241POPC   C4A 7218  18.975  30.082   7.751
  241POPC   C1B 7219  19.145  29.539   8.754
  241POPC   C2B 7220  19.336  29.546   8.395
  241POPC   C3B 7221  19.200  29.733   8.052
  241POPC   C4B 7222  19.118  29.580   7.670
  242POPC   NC3 7223  25.198  32.812   9.524
  242POPC   PO4 7224  24.727  33.222   9.767
  242POPC   GL1 7225  24.897  33.173   9.330
  242POPC   GL2 7226  24.773  32.836   9.246
  242POPC   C1A 7227  25.221  33.160   8.968
  242POPC   D2A 7228  25.391  33.253   8.560
  242POPC   C3A 7229  25.529  33.068   8.186
  242POPC   C4A 7230  25.252  33.077   7.856
  242POPC   C1B 7231  24.978  32.715   8.875
  242POPC   C2B 7232  25.129  32.822   8.475
  242POPC   C3B 7233  24.983  32.697   8.073
  242POPC   C4B 7234  25.025  32.695   7.619
  243POPC   NC3 7235  41.118  30.218   9.381
  243POPC   PO4 7236  41.198  29.533   9.335
  243POPC   GL1 7237  40.933  29.669   9.046
  243POPC   GL2 7238  40.741  29.919   9.166
  243POPC   C1A 7239  40.970  29.859   8.679
  243POPC   D2A 7240  41.042  29.589   8.353
  243POPC   C3A 7241  40.751  29.728   8.071
  243POPC   C4A 7242  40.770  29.572   7.672
  243POPC   C1B 7243  40.595  30.188   8.806
  243POPC   C2B 7244  40.699  30.214   8.387
  243POPC   C3B 7245  40.543  30.221   7.993
  243POPC   C4B 7246  40.712  30.075   7.636
  244POPC   NC3 7247  21.400   6.329   9.508
  244POPC   PO4 7248  21.564   7.002   9.550
  244POPC   GL1 7249  21.394   6.761   9.187
  244POPC   GL2 7250  21.497   6.415   9.034
  244POPC   C1A 7251  21.111   6.658   8.864
  244POPC   D2A 7252  21.354   6.493   8.519
  244POPC   C3A 7253  21.501   6.789   8.196
  244POPC   C4A 7254  21.514   6.708   7.735
  244POPC   C1B 7255  21.763   6.236   8.736
  244POPC   C2B 7256  21.827   6.377   8.310
  244POPC   C3B 7257  21.558   6.274   7.966
  244POPC   C4B 7258  21.607   6.251   7.478
  245POPC   NC3 7259  39.629  20.684   9.485
  245POPC   PO4 7260  39.082  21.065   9.408
  245POPC   GL1 7261  39.310  20.925   9.077
  245POPC   GL2 7262  39.343  20.576   9.035
  245POPC   C1A 7263  39.143  20.847   8.664
  245POPC   D2A 7264  39.272  21.071   8.330
  245POPC   C3A 7265  39.085  20.895   8.008
  245POPC   C4A 7266  39.185  20.604   7.739
  245POPC   C1B 7267  39.477  20.259   8.749
  245POPC   C2B 7268  39.315  20.071   8.402
  245POPC   C3B 7269  39.251  20.096   8.013
  245POPC   C4B 7270  38.924  20.184   7.772
  246POPC   NC3 7271   8.879  34.193   9.378
  246POPC   PO4 7272   8.971  34.891   9.330
  246POPC   GL1 7273   8.853  34.789   8.926
  246POPC   GL2 7274   8.600  34.554   9.021
  246POPC   C1A 7275   9.068  34.784   8.529
  246POPC   D2A 7276   9.254  34.999   8.183
  246POPC   C3A 7277   9.308  34.672   7.928
  246POPC   C4A 7278   8.922  34.668   7.761
  246POPC   C1B 7279   8.830  34.350   8.673
  246POPC   C2B 7280   8.959  34.356   8.234
  246POPC   C3B 7281   8.783  34.211   7.845
  246POPC   C4B 7282   8.842  34.332   7.386
  247POPC   NC3 7283  16.216  28.662   9.455
  247POPC   PO4 7284  15.733  28.157   9.447
  247POPC   GL1 7285  15.963  28.362   9.116
  247POPC   GL2 7286  16.234  28.202   9.215
  247POPC   C1A 7287  15.924  28.559   8.698
  247POPC   D2A 7288  15.681  28.513   8.304
  247POPC   C3A 7289  15.913  28.656   7.934
  247POPC   C4A 7290  15.866  28.547   7.481
  247POPC   C1B 7291  16.324  28.209   8.759
  247POPC   C2B 7292  16.149  28.287   8.327
  247POPC   C3B 7293  15.901  28.141   7.979
  247POPC   C4B 7294  16.226  28.283   7.718
  248POPC   NC3 7295   4.208  23.424   9.531
  248POPC   PO4 7296   4.471  24.053   9.382
  248POPC   GL1 7297   4.289  23.869   9.059
  248POPC   GL2 7298   4.326  23.536   9.055
  248POPC   C1A 7299   4.469  23.871   8.651
  248POPC   D2A 7300   4.398  24.047   8.264
  248POPC   C3A 7301   4.546  23.785   7.936
  248POPC   C4A 7302   4.828  23.939   7.666
  248POPC   C1B 7303   4.057  23.568   8.707
  248POPC   C2B 7304   4.198  23.576   8.282
  248POPC   C3B 7305   3.976  23.462   7.913
  248POPC   C4B 7306   3.956  23.580   7.478
  249POPC   NC3 7307  31.144  24.104   9.427
  249POPC   PO4 7308  31.491  23.486   9.463
  249POPC   GL1 7309  31.530  23.607   9.084
  249POPC   GL2 7310  31.627  23.939   9.177
  249POPC   C1A 7311  31.449  23.441   8.719
  249POPC   D2A 7312  31.204  23.426   8.386
  249POPC   C3A 7313  31.404  23.543   8.032
  249POPC   C4A 7314  31.356  23.469   7.629
  249POPC   C1B 7315  31.328  23.966   8.821
  249POPC   C2B 7316  31.173  24.061   8.452
  249POPC   C3B 7317  31.323  24.080   8.065
  249POPC   C4B 7318  31.397  23.963   7.690
  250POPC   NC3 7319   2.579  29.826   9.599
  250POPC   PO4 7320   3.221  29.949   9.528
  250POPC   GL1 7321   2.872  29.984   9.174
  250POPC   GL2 7322   2.492  30.004   9.150
  250POPC   C1A 7323   2.811  30.189   8.769
  250POPC   D2A 7324   2.949  30.084   8.366
  250POPC   C3A 7325   2.680  29.974   8.021
  250POPC   C4A 7326   2.946  29.937   7.684
  250POPC   C1B 7327   2.547  29.768   8.803
  250POPC   C2B 7328   2.635  29.689   8.427
  250POPC   C3B 7329   2.683  29.472   8.081
  250POPC   C4B 7330   2.617  29.541   7.686
  251POPC   NC3 7331  13.187  20.550   9.354
  251POPC   PO4 7332  13.811  20.606   9.616
  251POPC   GL1 7333  13.887  20.695   9.201
  251POPC   GL2 7334  13.571  20.732   9.046
  251POPC   C1A 7335  13.986  20.576   8.789
  251POPC   D2A 7336  13.879  20.796   8.422
  251POPC   C3A 7337  13.675  20.572   8.076
  251POPC   C4A 7338  13.897  20.329   7.757
  251POPC   C1B 7339  13.437  20.612   8.624
  251POPC   C2B 7340  13.204  20.747   8.265
  251POPC   C3B 7341  13.321  20.872   7.837
  251POPC   C4B 7342  13.655  20.703   7.504
  252POPC   NC3 7343  30.362  11.517   9.445
  252POPC   PO4 7344  29.873  11.096   9.496
  252POPC   GL1 7345  29.967  11.292   9.141
  252POPC   GL2 7346  29.869  11.638   9.219
  252POPC   C1A 7347  30.042  11.127   8.731
  252POPC   D2A 7348  30.165  11.098   8.309
  252POPC   C3A 7349  29.844  11.094   7.998
  252POPC   C4A 7350  30.125  11.166   7.663
  252POPC   C1B 7351  29.994  11.659   8.785
  252POPC   C2B 7352  29.869  11.549   8.368
  252POPC   C3B 7353  30.009  11.593   7.931
  252POPC   C4B 7354  29.789  11.504   7.541
  253POPC   NC3 7355   9.419  21.256   9.369
  253POPC   PO4 7356   8.681  21.352   9.496
  253POPC   GL1 7357   8.813  21.451   9.121
  253POPC   GL2 7358   8.660  21.757   9.131
  253POPC   C1A 7359   9.096  21.429   8.769
  253POPC   D2A 7360   9.254  21.187   8.389
  253POPC   C3A 7361   9.134  21.398   8.031
  253POPC   C4A 7362   9.240  21.456   7.635
  253POPC   C1B 7363   8.534  21.505   8.723
  253POPC   C2B 7364   8.755  21.305   8.398
  253POPC   C3B 7365   8.696  21.174   7.977
  253POPC   C4B 7366   8.748  21.429   7.552
  254POPC   NC3 7367   8.454  31.104   9.378
  254POPC   PO4 7368   7.883  31.437   9.474
  254POPC   GL1 7369   8.012  31.625   9.094
  254POPC   GL2 7370   8.380  31.594   9.085
  254POPC   C1A 7371   7.770  31.783   8.727
  254POPC   D2A 7372   7.802  31.949   8.302
  254POPC   C3A 7373   7.954  31.595   8.069
  254POPC   C4A 7374   7.907  31.488   7.645
  254POPC   C1B 7375   8.476  31.357   8.728
  254POPC   C2B 7376   8.357  31.272   8.287
  254POPC   C3B 7377   8.428  31.474   7.899
  254POPC   C4B 7378   8.384  31.345   7.432
  255POPC   NC3 7379  14.843  33.226   9.367
  255POPC   PO4 7380  14.308  32.786   9.556
  255POPC   GL1 7381  14.481  32.882   9.193
  255POPC   GL2 7382  14.671  32.576   9.127
  255POPC   C1A 7383  14.250  33.118   8.897
  255POPC   D2A 7384  14.331  33.254   8.504
  255POPC   C3A 7385  14.223  33.078   8.121
  255POPC   C4A 7386  14.512  33.161   7.798
  255POPC   C1B 7387  14.295  32.539   8.875
  255POPC   C2B 7388  14.303  32.707   8.474
  255POPC   C3B 7389  14.280  32.550   8.065
  255POPC   C4B 7390  14.201  32.750   7.703
  256POPC   NC3 7391  15.735   3.210   9.485
  256POPC   PO4 7392  16.079   2.711   9.635
  256POPC   GL1 7393  16.156   2.753   9.199
  256POPC   GL2 7394  16.097   3.077   9.102
  256POPC   C1A 7395  16.000   2.662   8.766
  256POPC   D2A 7396  16.145   2.532   8.365
  256POPC   C3A 7397  15.957   2.615   7.964
  256POPC   C4A 7398  16.154   2.507   7.581
  256POPC   C1B 7399  15.731   3.083   8.807
  256POPC   C2B 7400  15.721   2.895   8.379
  256POPC   C3B 7401  15.701   3.052   7.953
  256POPC   C4B 7402  15.803   2.887   7.526
  257POPC   NC3 7403  42.189  27.848   9.441
  257POPC   PO4 7404  42.638  27.400   9.515
  257POPC   GL1 7405  42.541  27.610   9.135
  257POPC   GL2 7406  42.164  27.587   9.017
  257POPC   C1A 7407  42.526  27.710   8.697
  257POPC   D2A 7408  42.327  27.504   8.372
  257POPC   C3A 7409  42.507  27.554   7.963
  257POPC   C4A 7410  42.641  27.239   7.687
  257POPC   C1B 7411  42.062  27.962   8.767
  257POPC   C2B 7412  42.177  27.984   8.340
  257POPC   C3B 7413  42.018  27.740   7.999
  257POPC   C4B 7414  42.122  27.752   7.572
  258POPC   NC3 7415  23.265   2.453   9.396
  258POPC   PO4 7416  23.014   3.003   9.664
  258POPC   GL1 7417  23.017   2.881   9.223
  258POPC   GL2 7418  22.788   2.666   9.021
  258POPC   C1A 7419  23.125   3.001   8.797
  258POPC   D2A 7420  23.258   2.843   8.376
  258POPC   C3A 7421  22.902   2.706   8.157
  258POPC   C4A 7422  22.632   2.686   7.790
  258POPC   C1B 7423  23.131   2.468   8.739
  258POPC   C2B 7424  23.250   2.297   8.333
  258POPC   C3B 7425  23.279   2.375   7.898
  258POPC   C4B 7426  23.144   2.798   7.717
  259POPC   NC3 7427   3.345  36.950   9.327
  259POPC   PO4 7428   3.902  36.681   9.633
  259POPC   GL1 7429   3.705  36.499   9.193
  259POPC   GL2 7430   3.640  36.758   8.960
  259POPC   C1A 7431   3.833  36.334   8.745
  259POPC   D2A 7432   3.817  36.411   8.302
  259POPC   C3A 7433   3.588  36.750   8.142
  259POPC   C4A 7434   3.424  36.817   7.749
  259POPC   C1B 7435   3.617  37.122   8.692
  259POPC   C2B 7436   3.830  37.165   8.316
  259POPC   C3B 7437   3.585  37.265   7.978
  259POPC   C4B 7438   3.513  37.284   7.547
  260POPC   NC3 7439  40.598  18.735   9.579
  260POPC   PO4 7440  40.942  19.283   9.768
  260POPC   GL1 7441  40.939  18.974   9.296
  260POPC   GL2 7442  40.708  18.774   9.087
  260POPC   C1A 7443  41.030  19.037   8.780
  260POPC   D2A 7444  40.893  19.069   8.329
  260POPC   C3A 7445  41.134  19.210   7.949
  260POPC   C4A 7446  40.999  18.965   7.590
  260POPC   C1B 7447  40.536  18.946   8.701
  260POPC   C2B 7448  40.412  18.857   8.281
  260POPC   C3B 7449  40.598  18.983   7.878
  260POPC   C4B 7450  40.542  19.100   7.386
  261POPC   NC3 7451   7.037  30.310  10.028
  261POPC   PO4 7452   6.519  30.521   9.624
  261POPC   GL1 7453   6.526  30.628   9.191
  261POPC   GL2 7454   6.860  30.587   9.188
  261POPC   C1A 7455   6.453  30.723   8.785
  261POPC   D2A 7456   6.602  30.577   8.396
  261POPC   C3A 7457   6.658  30.938   8.143
  261POPC   C4A 7458   6.394  31.047   7.768
  261POPC   C1B 7459   6.802  30.358   8.821
  261POPC   C2B 7460   6.989  30.170   8.451
  261POPC   C3B 7461   6.846  30.276   8.042
  261POPC   C4B 7462   6.736  30.621   7.753
  262POPC   NC3 7463   4.329   5.552   9.485
  262POPC   PO4 7464   4.037   6.156   9.341
  262POPC   GL1 7465   4.078   5.831   9.126
  262POPC   GL2 7466   4.401   5.832   9.064
  262POPC   C1A 7467   4.039   5.747   8.689
  262POPC   D2A 7468   4.076   6.005   8.316
  262POPC   C3A 7469   4.069   5.815   7.916
  262POPC   C4A 7470   4.135   5.999   7.542
  262POPC   C1B 7471   4.556   5.770   8.670
  262POPC   C2B 7472   4.620   5.860   8.224
  262POPC   C3B 7473   4.543   5.684   7.808
  262POPC   C4B 7474   4.423   5.634   7.376
  263POPC   NC3 7475   9.026  29.328   9.375
  263POPC   PO4 7476   8.578  28.812   9.307
  263POPC   GL1 7477   8.932  28.934   9.063
  263POPC   GL2 7478   8.839  29.258   8.922
  263POPC   C1A 7479   9.281  29.099   8.795
  263POPC   D2A 7480   9.342  29.015   8.389
  263POPC   C3A 7481   9.049  29.161   8.129
  263POPC   C4A 7482   8.835  29.140   7.754
  263POPC   C1B 7483   8.780  28.989   8.587
  263POPC   C2B 7484   8.557  29.031   8.224
  263POPC   C3B 7485   8.574  28.740   7.913
  263POPC   C4B 7486   8.473  28.875   7.491
  264POPC   NC3 7487  26.800  11.594   9.314
  264POPC   PO4 7488  26.684  12.116   9.788
  264POPC   GL1 7489  26.825  12.101   9.323
  264POPC   GL2 7490  27.162  11.963   9.236
  264POPC   C1A 7491  26.732  12.022   8.824
  264POPC   D2A 7492  26.875  11.717   8.504
  264POPC   C3A 7493  26.819  11.833   8.057
  264POPC   C4A 7494  26.604  12.149   7.800
  264POPC   C1B 7495  27.213  12.156   8.826
  264POPC   C2B 7496  27.180  12.129   8.372
  264POPC   C3B 7497  27.305  11.979   7.987
  264POPC   C4B 7498  27.102  12.006   7.603
  265POPC   NC3 7499  39.426  33.661   9.452
  265POPC   PO4 7500  39.128  34.267   9.394
  265POPC   GL1 7501  39.226  33.983   9.113
  265POPC   GL2 7502  39.596  34.018   9.147
  265POPC   C1A 7503  39.062  33.748   8.778
  265POPC   D2A 7504  39.182  33.620   8.354
  265POPC   C3A 7505  38.960  33.819   8.010
  265POPC   C4A 7506  39.084  33.917   7.593
  265POPC   C1B 7507  39.564  33.764   8.776
  265POPC   C2B 7508  39.654  33.865   8.378
  265POPC   C3B 7509  39.457  33.914   7.999
  265POPC   C4B 7510  39.596  33.807   7.608
  266POPC   NC3 7511   2.724  21.993   9.610
  266POPC   PO4 7512   2.657  22.712   9.617
  266POPC   GL1 7513   2.742  22.396   9.201
  266POPC   GL2 7514   2.793  22.024   9.117
  266POPC   C1A 7515   2.599  22.320   8.760
  266POPC   D2A 7516   2.600  21.977   8.466
  266POPC   C3A 7517   2.620  22.125   8.051
  266POPC   C4A 7518   2.863  22.398   7.827
  266POPC   C1B 7519   3.102  21.848   8.831
  266POPC   C2B 7520   3.157  21.971   8.435
  266POPC   C3B 7521   3.035  21.814   8.076
  266POPC   C4B 7522   3.093  21.948   7.695
  267POPC   NC3 7523  34.496   2.266   9.429
  267POPC   PO4 7524  34.963   1.786   9.513
  267POPC   GL1 7525  34.690   1.854   9.161
  267POPC   GL2 7526  34.668   2.194   8.952
  267POPC   C1A 7527  34.647   1.735   8.744
  267POPC   D2A 7528  34.850   2.007   8.459
  267POPC   C3A 7529  34.677   2.128   8.096
  267POPC   C4A 7530  34.836   2.054   7.690
  267POPC   C1B 7531  34.358   2.108   8.586
  267POPC   C2B 7532  34.299   1.774   8.291
  267POPC   C3B 7533  34.321   1.876   7.846
  267POPC   C4B 7534  34.364   2.267   7.688
  268POPC   NC3 7535  22.719   9.970   9.700
  268POPC   PO4 7536  23.036   9.425   9.548
  268POPC   GL1 7537  22.844   9.574   9.180
  268POPC   GL2 7538  23.172   9.635   9.071
  268POPC   C1A 7539  22.815   9.611   8.713
  268POPC   D2A 7540  22.613   9.386   8.362
  268POPC   C3A 7541  22.645   9.677   8.043
  268POPC   C4A 7542  23.038   9.828   7.908
  268POPC   C1B 7543  23.276   9.366   8.701
  268POPC   C2B 7544  23.192   9.424   8.241
  268POPC   C3B 7545  23.374   9.416   7.806
  268POPC   C4B 7546  23.339   9.579   7.363
  269POPC   NC3 7547   7.529   6.916   9.476
  269POPC   PO4 7548   7.046   6.423   9.483
  269POPC   GL1 7549   7.376   6.518   9.150
  269POPC   GL2 7550   7.449   6.881   8.996
  269POPC   C1A 7551   7.490   6.477   8.710
  269POPC   D2A 7552   7.559   6.755   8.368
  269POPC   C3A 7553   7.615   6.520   7.998
  269POPC   C4A 7554   7.413   6.477   7.597
  269POPC   C1B 7555   7.161   6.903   8.694
  269POPC   C2B 7556   7.044   6.966   8.309
  269POPC   C3B 7557   7.184   6.791   7.970
  269POPC   C4B 7558   7.524   6.978   7.735
  270POPC   NC3 7559  42.132   2.490   9.424
  270POPC   PO4 7560  42.204   3.089   9.728
  270POPC   GL1 7561  42.446   2.976   9.301
  270POPC   GL2 7562  42.791   3.114   9.171
  270POPC   C1A 7563  42.496   2.773   8.885
  270POPC   D2A 7564  42.177   2.653   8.591
  270POPC   C3A 7565  42.268   2.552   8.175
  270POPC   C4A 7566  42.167   2.551   7.747
  270POPC   C1B 7567  42.559   3.279   8.769
  270POPC   C2B 7568  42.329   3.112   8.385
  270POPC   C3B 7569  42.337   3.003   7.931
  270POPC   C4B 7570  42.655   2.661   7.817
  271POPC   NC3 7571   9.900  14.342   9.506
  271POPC   PO4 7572   9.404  14.683   9.419
  271POPC   GL1 7573   9.618  14.404   9.072
  271POPC   GL2 7574   9.969  14.531   9.046
  271POPC   C1A 7575   9.523  14.089   8.709
  271POPC   D2A 7576   9.244  14.088   8.318
  271POPC   C3A 7577   9.419  14.229   7.892
  271POPC   C4A 7578   9.369  14.489   7.504
  271POPC   C1B 7579  10.020  14.215   8.761
  271POPC   C2B 7580  10.140  14.340   8.359
  271POPC   C3B 7581   9.931  14.419   7.948
  271POPC   C4B 7582   9.819  14.750   7.650
  272POPC   NC3 7583  12.289  26.626   9.443
  272POPC   PO4 7584  11.700  26.685   9.680
  272POPC   GL1 7585  11.843  26.573   9.191
  272POPC   GL2 7586  12.019  26.852   9.054
  272POPC   C1A 7587  12.212  26.445   8.815
  272POPC   D2A 7588  12.194  26.405   8.345
  272POPC   C3A 7589  12.308  26.715   8.003
  272POPC   C4A 7590  11.975  26.650   7.688
  272POPC   C1B 7591  11.880  26.769   8.622
  272POPC   C2B 7592  11.859  26.832   8.193
  272POPC   C3B 7593  12.006  27.123   7.884
  272POPC   C4B 7594  11.795  27.141   7.522
  273POPC   NC3 7595  36.938  32.955   9.510
  273POPC   PO4 7596  37.293  32.754   9.011
  273POPC   GL1 7597  36.946  33.025   9.013
  273POPC   GL2 7598  36.649  32.804   9.092
  273POPC   C1A 7599  36.691  33.190   8.714
  273POPC   D2A 7600  36.576  33.043   8.321
  273POPC   C3A 7601  36.794  33.226   7.962
  273POPC   C4A 7602  37.119  33.061   7.679
  273POPC   C1B 7603  36.713  32.679   8.688
  273POPC   C2B 7604  37.019  32.810   8.361
  273POPC   C3B 7605  36.851  32.722   7.948
  273POPC   C4B 7606  36.641  32.887   7.560
  274POPC   NC3 7607  37.418  31.118   9.453
  274POPC   PO4 7608  37.999  31.397   9.659
  274POPC   GL1 7609  37.882  31.288   9.214
  274POPC   GL2 7610  37.567  31.162   8.989
  274POPC   C1A 7611  37.833  31.565   8.860
  274POPC   D2A 7612  37.679  31.772   8.474
  274POPC   C3A 7613  37.716  31.484   8.119
  274POPC   C4A 7614  37.857  31.445   7.656
  274POPC   C1B 7615  37.398  31.338   8.626
  274POPC   C2B 7616  37.196  31.353   8.229
  274POPC   C3B 7617  37.345  31.336   7.800
  274POPC   C4B 7618  37.283  31.350   7.357
  275POPC   NC3 7619  42.798   7.626   9.308
  275POPC   PO4 7620  42.177   7.243   9.507
  275POPC   GL1 7621  42.287   7.527   9.193
  275POPC   GL2 7622  42.405   7.258   9.009
  275POPC   C1A 7623  42.050   7.625   8.822
  275POPC   D2A 7624  42.076   7.407   8.444
  275POPC   C3A 7625  42.060   7.588   8.047
  275POPC   C4A 7626  42.384   7.449   7.767
  275POPC   C1B 7627  42.559   7.502   8.684
  275POPC   C2B 7628  42.521   7.664   8.286
  275POPC   C3B 7629  42.780   7.725   7.962
  275POPC   C4B 7630  42.893   7.418   7.659
  276POPC   NC3 7631  18.097  26.594   9.514
  276POPC   PO4 7632  18.674  26.912   9.408
  276POPC   GL1 7633  18.423  26.712   9.129
  276POPC   GL2 7634  18.133  26.934   9.140
  276POPC   C1A 7635  18.252  26.590   8.747
  276POPC   D2A 7636  18.167  26.743   8.322
  276POPC   C3A 7637  18.319  26.498   7.951
  276POPC   C4A 7638  18.320  26.483   7.494
  276POPC   C1B 7639  18.172  27.095   8.757
  276POPC   C2B 7640  18.308  27.262   8.408
  276POPC   C3B 7641  18.161  27.162   8.022
  276POPC   C4B 7642  18.419  27.152   7.662
  277POPC   NC3 7643  15.093  38.943   9.615
  277POPC   PO4 7644  15.649  39.258   9.580
  277POPC   GL1 7645  15.368  39.114   9.163
  277POPC   GL2 7646  15.051  38.862   9.129
  277POPC   C1A 7647  15.321  39.211   8.709
  277POPC   D2A 7648  15.533  39.078   8.322
  277POPC   C3A 7649  15.319  39.198   7.930
  277POPC   C4A 7650  15.423  39.364   7.520
  277POPC   C1B 7651  14.865  38.978   8.736
  277POPC   C2B 7652  15.014  38.923   8.321
  277POPC   C3B 7653  14.826  38.961   7.924
  277POPC   C4B 7654  14.801  39.196   7.551
  278POPC   NC3 7655  37.257   6.887   9.371
  278POPC   PO4 7656  36.708   6.540   9.455
  278POPC   GL1 7657  36.668   6.830   9.113
  278POPC   GL2 7658  36.970   6.810   8.957
  278POPC   C1A 7659  36.591   7.027   8.717
  278POPC   D2A 7660  36.930   7.015   8.441
  278POPC   C3A 7661  36.954   6.737   8.088
  278POPC   C4A 7662  36.863   6.748   7.665
  278POPC   C1B 7663  37.178   6.548   8.663
  278POPC   C2B 7664  37.176   6.316   8.264
  278POPC   C3B 7665  37.147   6.324   7.804
  278POPC   C4B 7666  37.000   6.309   7.355
  279POPC   NC3 7667  37.954  24.273   9.551
  279POPC   PO4 7668  37.409  24.569   9.900
  279POPC   GL1 7669  37.565  24.547   9.365
  279POPC   GL2 7670  37.931  24.665   9.236
  279POPC   C1A 7671  37.717  24.348   8.893
  279POPC   D2A 7672  37.679  24.109   8.443
  279POPC   C3A 7673  37.799  24.313   8.009
  279POPC   C4A 7674  37.555  24.420   7.617
  279POPC   C1B 7675  37.926  24.808   8.805
  279POPC   C2B 7676  37.734  24.614   8.423
  279POPC   C3B 7677  37.516  24.730   8.041
  279POPC   C4B 7678  37.666  24.916   7.630
  280POPC   NC3 7679  43.360  32.304   9.529
  280POPC   PO4 7680  42.795  32.073   9.477
  280POPC   GL1 7681  42.966  32.339   9.147
  280POPC   GL2 7682  43.294  32.502   9.074
  280POPC   C1A 7683  42.846  32.200   8.740
  280POPC   D2A 7684  43.083  32.236   8.373
  280POPC   C3A 7685  42.862  32.165   8.005
  280POPC   C4A 7686  43.027  32.079   7.624
  280POPC   C1B 7687  43.431  32.500   8.664
  280POPC   C2B 7688  43.483  32.635   8.247
  280POPC   C3B 7689  43.382  32.340   7.958
  280POPC   C4B 7690  43.394  32.506   7.607
  281POPC   NC3 7691  24.890  27.084   9.561
  281POPC   PO4 7692  25.543  26.918   9.413
  281POPC   GL1 7693  25.286  26.824   9.088
  281POPC   GL2 7694  25.038  27.100   9.044
  281POPC   C1A 7695  25.017  26.655   8.775
  281POPC   D2A 7696  24.986  26.572   8.313
  281POPC   C3A 7697  25.198  26.815   8.032
  281POPC   C4A 7698  25.471  26.709   7.679
  281POPC   C1B 7699  25.279  27.077   8.616
  281POPC   C2B 7700  25.548  27.139   8.237
  281POPC   C3B 7701  25.490  27.200   7.766
  281POPC   C4B 7702  25.176  27.115   7.401
  282POPC   NC3 7703  27.549   6.363   9.387
  282POPC   PO4 7704  27.876   6.925   9.434
  282POPC   GL1 7705  27.703   6.779   9.037
  282POPC   GL2 7706  27.905   6.493   9.042
  282POPC   C1A 7707  27.363   6.806   8.687
  282POPC   D2A 7708  27.202   7.057   8.325
  282POPC   C3A 7709  27.268   6.851   7.912
  282POPC   C4A 7710  27.432   6.463   7.750
  282POPC   C1B 7711  27.781   6.482   8.614
  282POPC   C2B 7712  27.727   6.514   8.171
  282POPC   C3B 7713  27.906   6.296   7.783
  282POPC   C4B 7714  27.936   6.662   7.548
  283POPC   NC3 7715   1.822  24.229   9.465
  283POPC   PO4 7716   2.122  24.880   9.349
  283POPC   GL1 7717   2.031  24.518   9.082
  283POPC   GL2 7718   1.684  24.346   8.995
  283POPC   C1A 7719   2.062  24.379   8.667
  283POPC   D2A 7720   2.090  24.266   8.273
  283POPC   C3A 7721   1.835  24.477   7.950
  283POPC   C4A 7722   1.970  24.523   7.509
  283POPC   C1B 7723   1.701  24.733   8.720
  283POPC   C2B 7724   1.534  24.724   8.298
  283POPC   C3B 7725   1.596  24.948   7.909
  283POPC   C4B 7726   1.508  24.732   7.530
  284POPC   NC3 7727  22.381  21.105   9.495
  284POPC   PO4 7728  22.757  20.435   9.576
  284POPC   GL1 7729  22.757  20.621   9.179
  284POPC   GL2 7730  22.419  20.815   9.086
  284POPC   C1A 7731  23.019  20.547   8.837
  284POPC   D2A 7732  22.933  20.289   8.493
  284POPC   C3A 7733  23.070  20.446   8.098
  284POPC   C4A 7734  23.144  20.609   7.668
  284POPC   C1B 7735  22.669  20.890   8.724
  284POPC   C2B 7736  22.710  20.719   8.357
  284POPC   C3B 7737  22.734  20.837   7.965
  284POPC   C4B 7738  22.735  20.966   7.561
  285POPC   NC3 7739  14.951  29.396   9.414
  285POPC   PO4 7740  15.531  28.945   9.578
  285POPC   GL1 7741  15.374  28.989   9.170
  285POPC   GL2 7742  15.620  28.737   9.110
  285POPC   C1A 7743  15.184  29.184   8.777
  285POPC   D2A 7744  15.340  29.384   8.389
  285POPC   C3A 7745  15.214  29.215   8.001
  285POPC   C4A 7746  14.926  29.375   7.756
  285POPC   C1B 7747  15.440  28.735   8.711
  285POPC   C2B 7748  15.228  28.838   8.345
  285POPC   C3B 7749  15.376  28.729   7.939
  285POPC   C4B 7750  15.623  29.019   7.718
  286POPC   NC3 7751  23.192  14.469   9.837
  286POPC   PO4 7752  22.716  14.563   9.314
  286POPC   GL1 7753  22.811  14.323   8.999
  286POPC   GL2 7754  23.166  14.215   8.919
  286POPC   C1A 7755  22.834  14.575   8.644
  286POPC   D2A 7756  22.654  14.473   8.250
  286POPC   C3A 7757  22.961  14.378   7.999
  286POPC   C4A 7758  23.175  14.605   7.692
  286POPC   C1B 7759  22.910  14.063   8.568
  286POPC   C2B 7760  22.521  13.948   8.343
  286POPC   C3B 7761  22.528  14.021   7.915
  286POPC   C4B 7762  22.899  14.016   7.655
  287POPC   NC3 7763  23.480  30.382   9.950
  287POPC   PO4 7764  22.967  30.593   9.526
  287POPC   GL1 7765  23.056  30.750   9.115
  287POPC   GL2 7766  23.061  30.396   9.067
  287POPC   C1A 7767  23.068  30.951   8.695
  287POPC   D2A 7768  22.798  31.015   8.326
  287POPC   C3A 7769  22.968  31.062   7.913
  287POPC   C4A 7770  22.798  30.855   7.550
  287POPC   C1B 7771  22.886  30.493   8.705
  287POPC   C2B 7772  22.769  30.510   8.315
  287POPC   C3B 7773  23.006  30.545   7.936
  287POPC   C4B 7774  22.889  30.345   7.570
  288POPC   NC3 7775  30.075   6.814   9.405
  288POPC   PO4 7776  30.316   6.290   9.145
  288POPC   GL1 7777  30.009   6.592   8.958
  288POPC   GL2 7778  29.707   6.584   9.128
  288POPC   C1A 7779  29.832   6.883   8.655
  288POPC   D2A 7780  30.104   7.006   8.330
  288POPC   C3A 7781  30.088   7.082   7.899
  288POPC   C4A 7782  30.141   6.885   7.492
  288POPC   C1B 7783  29.594   6.402   8.736
  288POPC   C2B 7784  29.599   6.567   8.326
  288POPC   C3B 7785  29.868   6.625   7.991
  288POPC   C4B 7786  29.839   6.454   7.594
  289POPC   NC3 7787   5.130  14.875   9.455
  289POPC   PO4 7788   4.690  14.419   9.644
  289POPC   GL1 7789   4.911  14.364   9.204
  289POPC   GL2 7790   5.207  14.477   9.113
  289POPC   C1A 7791   4.844  14.246   8.774
  289POPC   D2A 7792   4.795  14.413   8.389
  289POPC   C3A 7793   4.806  14.269   7.975
  289POPC   C4A 7794   5.095  14.306   7.614
  289POPC   C1B 7795   5.190  14.617   8.723
  289POPC   C2B 7796   5.165  14.802   8.331
  289POPC   C3B 7797   5.241  14.608   7.981
  289POPC   C4B 7798   5.432  14.697   7.550
  290POPC   NC3 7799  29.860   1.157   9.669
  290POPC   PO4 7800  30.031   1.737   9.573
  290POPC   GL1 7801  29.961   1.372   9.215
  290POPC   GL2 7802  29.689   1.094   9.196
  290POPC   C1A 7803  30.052   1.091   8.832
  290POPC   D2A 7804  29.950   0.973   8.381
  290POPC   C3A 7805  29.984   1.214   7.980
  290POPC   C4A 7806  30.104   1.306   7.524
  290POPC   C1B 7807  29.568   0.914   8.789
  290POPC   C2B 7808  29.417   1.060   8.389
  290POPC   C3B 7809  29.380   0.913   7.975
  290POPC   C4B 7810  29.722   0.851   7.730
  291POPC   NC3 7811  16.396  23.806   9.572
  291POPC   PO4 7812  15.738  23.569   9.409
  291POPC   GL1 7813  16.028  23.726   9.164
  291POPC   GL2 7814  16.348  23.561   9.140
  291POPC   C1A 7815  15.955  23.630   8.741
  291POPC   D2A 7816  15.783  23.908   8.440
  291POPC   C3A 7817  15.730  23.989   8.013
  291POPC   C4A 7818  15.596  23.936   7.622
  291POPC   C1B 7819  16.383  23.903   8.845
  291POPC   C2B 7820  16.330  23.780   8.428
  291POPC   C3B 7821  16.067  23.608   8.096
  291POPC   C4B 7822  16.055  23.750   7.676
  292POPC   NC3 7823  32.870  35.751   9.615
  292POPC   PO4 7824  32.801  35.093   9.694
  292POPC   GL1 7825  32.976  35.316   9.302
  292POPC   GL2 7826  32.673  35.467   9.236
  292POPC   C1A 7827  33.049  35.435   8.860
  292POPC   D2A 7828  32.847  35.325   8.439
  292POPC   C3A 7829  33.105  35.172   8.143
  292POPC   C4A 7830  33.294  35.372   7.796
  292POPC   C1B 7831  32.534  35.372   8.834
  292POPC   C2B 7832  32.417  35.595   8.474
  292POPC   C3B 7833  32.553  35.689   8.111
  292POPC   C4B 7834  32.798  35.452   7.847
  293POPC   NC3 7835   6.484  28.901   9.424
  293POPC   PO4 7836   6.844  29.494   9.348
  293POPC   GL1 7837   6.794  29.169   9.082
  293POPC   GL2 7838   6.445  29.220   9.031
  293POPC   C1A 7839   6.760  29.326   8.661
  293POPC   D2A 7840   6.662  29.197   8.235
  293POPC   C3A 7841   6.925  29.368   7.895
  293POPC   C4A 7842   6.966  29.511   7.427
  293POPC   C1B 7843   6.315  29.060   8.611
  293POPC   C2B 7844   6.383  28.769   8.244
  293POPC   C3B 7845   6.448  28.971   7.826
  293POPC   C4B 7846   6.496  29.381   7.610
  294POPC   NC3 7847  24.204  20.453   9.537
  294POPC   PO4 7848  24.794  20.285   9.358
  294POPC   GL1 7849  24.405  20.385   9.073
  294POPC   GL2 7850  24.046  20.236   9.116
  294POPC   C1A 7851  24.402  20.652   8.694
  294POPC   D2A 7852  24.460  20.541   8.281
  294POPC   C3A 7853  24.582  20.705   7.898
  294POPC   C4A 7854  24.733  20.585   7.480
  294POPC   C1B 7855  23.934  20.507   8.808
  294POPC   C2B 7856  23.924  20.664   8.409
  294POPC   C3B 7857  24.044  20.578   8.001
  294POPC   C4B 7858  24.176  20.623   7.584
  295POPC   NC3 7859   5.692  37.917   9.429
  295POPC   PO4 7860   5.627  37.249   9.548
  295POPC   GL1 7861   5.696  37.471   9.146
  295POPC   GL2 7862   6.033  37.640   9.169
  295POPC   C1A 7863   5.690  37.653   8.720
  295POPC   D2A 7864   5.709  37.788   8.261
  295POPC   C3A 7865   5.532  37.468   7.937
  295POPC   C4A 7866   5.337  37.511   7.504
  295POPC   C1B 7867   6.190  37.877   8.827
  295POPC   C2B 7868   6.317  37.804   8.405
  295POPC   C3B 7869   6.149  37.899   8.003
  295POPC   C4B 7870   5.915  37.663   7.690
  296POPC   NC3 7871   3.007  41.438   9.569
  296POPC   PO4 7872   3.201  42.102   9.467
  296POPC   GL1 7873   2.943  41.762   9.151
  296POPC   GL2 7874   3.024  41.407   9.063
  296POPC   C1A 7875   2.653  41.587   8.774
  296POPC   D2A 7876   2.429  41.702   8.363
  296POPC   C3A 7877   2.647  41.652   7.986
  296POPC   C4A 7878   2.621  41.538   7.538
  296POPC   C1B 7879   3.022  41.239   8.638
  296POPC   C2B 7880   2.966  41.305   8.195
  296POPC   C3B 7881   2.833  41.151   7.793
  296POPC   C4B 7882   3.010  41.230   7.395
  297POPC   NC3 7883  43.225  20.734   9.570
  297POPC   PO4 7884  42.685  21.052   9.582
  297POPC   GL1 7885  42.851  20.740   9.239
  297POPC   GL2 7886  42.857  20.416   9.315
  297POPC   C1A 7887  43.158  20.563   8.909
  297POPC   D2A 7888  43.127  20.610   8.467
  297POPC   C3A 7889  42.928  20.663   8.082
  297POPC   C4A 7890  43.137  20.725   7.734
  297POPC   C1B 7891  42.706  20.348   8.875
  297POPC   C2B 7892  42.791  20.196   8.451
  297POPC   C3B 7893  43.132  20.185   8.143
  297POPC   C4B 7894  43.075  20.227   7.693
  298POPC   NC3 7895  22.962  36.129   9.548
  298POPC   PO4 7896  23.449  36.287   9.384
  298POPC   GL1 7897  23.085  36.212   9.047
  298POPC   GL2 7898  22.762  36.015   9.094
  298POPC   C1A 7899  22.947  36.380   8.632
  298POPC   D2A 7900  23.085  36.535   8.228
  298POPC   C3A 7901  22.917  36.327   7.839
  298POPC   C4A 7902  22.652  36.377   7.433
  298POPC   C1B 7903  22.884  35.870   8.680
  298POPC   C2B 7904  23.125  36.014   8.300
  298POPC   C3B 7905  23.243  35.884   7.875
  298POPC   C4B 7906  22.993  35.581   7.638
  299POPC   NC3 7907  13.908  40.947   9.492
  299POPC   PO4 7908  13.433  40.488   9.455
  299POPC   GL1 7909  13.559  40.503   9.050
  299POPC   GL2 7910  13.908  40.516   9.126
  299POPC   C1A 7911  13.430  40.786   8.693
  299POPC   D2A 7912  13.661  41.094   8.408
  299POPC   C3A 7913  13.574  41.004   7.974
  299POPC   C4A 7914  13.467  40.570   7.833
  299POPC   C1B 7915  13.942  40.732   8.743
  299POPC   C2B 7916  13.756  40.586   8.346
  299POPC   C3B 7917  13.959  40.684   7.996
  299POPC   C4B 7918  14.082  40.556   7.651
  300POPC   NC3 7919   0.359  27.785   9.410
  300POPC   PO4 7920   0.361  27.121   9.270
  300POPC   GL1 7921   0.443  27.369   8.949
  300POPC   GL2 7922   0.721  27.504   9.147
  300POPC   C1A 7923   0.243  27.402   8.533
  300POPC   D2A 7924  44.981  27.677   8.268
  300POPC   C3A 7925   0.118  27.889   7.918
  300POPC   C4A 7926   0.236  27.577   7.589
  300POPC   C1B 7927   0.710  27.799   8.800
  300POPC   C2B 7928   0.512  27.829   8.402
  300POPC   C3B 7929   0.515  27.586   8.040
  300POPC   C4B 7930   0.740  27.627   7.673
  301POPC   NC3 7931  41.086  32.957   9.673
  301POPC   PO4 7932  40.539  32.768   9.485
  301POPC   GL1 7933  40.625  33.063   9.139
  301POPC   GL2 7934  40.941  33.010   9.181
  301POPC   C1A 7935  40.581  33.048   8.651
  301POPC   D2A 7936  40.603  33.139   8.171
  301POPC   C3A 7937  40.637  32.804   7.808
  301POPC   C4A 7938  40.445  32.850   7.379
  301POPC   C1B 7939  41.086  33.107   8.772
  301POPC   C2B 7940  41.063  32.928   8.333
  301POPC   C3B 7941  41.054  33.146   7.915
  301POPC   C4B 7942  41.247  33.497   7.722
  302POPC   NC3 7943   1.437  31.171   9.330
  302POPC   PO4 7944   1.399  31.823   9.486
  302POPC   GL1 7945   1.387  31.641   9.099
  302POPC   GL2 7946   1.102  31.363   9.002
  302POPC   C1A 7947   1.263  31.746   8.721
  302POPC   D2A 7948   1.049  31.476   8.426
  302POPC   C3A 7949   1.126  31.603   8.029
  302POPC   C4A 7950   1.453  31.513   7.772
  302POPC   C1B 7951   1.464  31.293   8.681
  302POPC   C2B 7952   1.559  31.332   8.249
  302POPC   C3B 7953   1.680  31.063   7.868
  302POPC   C4B 7954   1.540  31.169   7.430
  303POPC   NC3 7955  23.569   5.672   9.576
  303POPC   PO4 7956  23.813   6.245   9.298
  303POPC   GL1 7957  23.737   5.973   9.034
  303POPC   GL2 7958  23.876   5.635   9.138
  303POPC   C1A 7959  23.763   6.170   8.635
  303POPC   D2A 7960  23.997   6.445   8.335
  303POPC   C3A 7961  23.876   6.225   7.949
  303POPC   C4A 7962  23.524   5.965   7.807
  303POPC   C1B 7963  23.720   5.597   8.697
  303POPC   C2B 7964  23.570   5.801   8.332
  303POPC   C3B 7965  23.801   5.616   8.039
  303POPC   C4B 7966  23.765   5.530   7.619
  304POPC   NC3 7967  18.092  40.270   9.567
  304POPC   PO4 7968  18.167  39.657   9.450
  304POPC   GL1 7969  18.163  39.958   9.135
  304POPC   GL2 7970  17.821  40.084   9.169
  304POPC   C1A 7971  18.360  40.016   8.729
  304POPC   D2A 7972  18.290  40.210   8.328
  304POPC   C3A 7973  18.346  39.966   7.942
  304POPC   C4A 7974  18.372  39.921   7.505
  304POPC   C1B 7975  17.915  40.280   8.779
  304POPC   C2B 7976  17.757  40.322   8.370
  304POPC   C3B 7977  17.955  40.312   7.941
  304POPC   C4B 7978  17.961  40.232   7.465
  305POPC   NC3 7979  31.050  20.857   9.530
  305POPC   PO4 7980  30.555  20.352   9.533
  305POPC   GL1 7981  30.792  20.460   9.158
  305POPC   GL2 7982  30.814  20.817   9.084
  305POPC   C1A 7983  30.645  20.452   8.736
  305POPC   D2A 7984  30.610  20.616   8.335
  305POPC   C3A 7985  30.819  20.481   7.982
  305POPC   C4A 7986  30.531  20.382   7.658
  305POPC   C1B 7987  30.826  20.959   8.675
  305POPC   C2B 7988  30.654  21.118   8.287
  305POPC   C3B 7989  30.548  20.887   7.892
  305POPC   C4B 7990  30.795  20.824   7.552
  306POPC   NC3 7991  39.329  37.973   9.549
  306POPC   PO4 7992  39.159  37.349   9.445
  306POPC   GL1 7993  39.245  37.662   9.162
  306POPC   GL2 7994  38.964  37.914   9.166
  306POPC   C1A 7995  39.445  37.676   8.770
  306POPC   D2A 7996  39.538  37.865   8.361
  306POPC   C3A 7997  39.442  37.677   7.932
  306POPC   C4A 7998  39.454  37.349   7.579
  306POPC   C1B 7999  38.920  37.618   8.791
  306POPC   C2B 8000  39.028  37.747   8.373
  306POPC   C3B 8001  38.959  37.840   7.946
  306POPC   C4B 8002  39.069  37.668   7.551
  307POPC   NC3 8003  15.583   7.382   9.466
  307POPC   PO4 8004  14.942   7.529   9.460
  307POPC   GL1 8005  15.204   7.507   9.103
  307POPC   GL2 8006  15.526   7.705   9.064
  307POPC   C1A 8007  15.091   7.478   8.676
  307POPC   D2A 8008  15.033   7.230   8.301
  307POPC   C3A 8009  15.156   7.429   7.923
  307POPC   C4A 8010  15.259   7.656   7.550
  307POPC   C1B 8011  15.587   7.299   8.823
  307POPC   C2B 8012  15.747   7.140   8.445
  307POPC   C3B 8013  15.577   7.140   8.002
  307POPC   C4B 8014  15.743   7.097   7.609
  308POPC   NC3 8015  20.223  39.562   9.460
  308POPC   PO4 8016  19.671  39.152   9.530
  308POPC   GL1 8017  19.765  39.161   9.109
  308POPC   GL2 8018  20.140  39.197   9.081
  308POPC   C1A 8019  19.485  39.298   8.747
  308POPC   D2A 8020  19.389  39.203   8.289
  308POPC   C3A 8021  19.702  39.078   7.977
  308POPC   C4A 8022  19.699  39.102   7.505
  308POPC   C1B 8023  19.981  39.229   8.649
  308POPC   C2B 8024  19.800  39.513   8.352
  308POPC   C3B 8025  19.698  39.598   7.939
  308POPC   C4B 8026  20.059  39.369   7.766
  309POPC   NC3 8027  27.696  20.438   9.573
  309POPC   PO4 8028  27.366  21.000   9.369
  309POPC   GL1 8029  27.525  20.646   9.139
  309POPC   GL2 8030  27.261  20.438   9.207
  309POPC   C1A 8031  27.665  20.362   8.800
  309POPC   D2A 8032  27.886  20.215   8.412
  309POPC   C3A 8033  27.717  20.370   8.005
  309POPC   C4A 8034  27.635  20.623   7.626
  309POPC   C1B 8035  27.172  20.481   8.765
  309POPC   C2B 8036  27.323  20.328   8.347
  309POPC   C3B 8037  27.179  20.318   7.909
  309POPC   C4B 8038  26.808  20.449   7.669
  310POPC   NC3 8039  29.888  32.380   9.752
  310POPC   PO4 8040  29.869  31.712   9.560
  310POPC   GL1 8041  30.066  32.041   9.294
  310POPC   GL2 8042  29.812  32.287   9.132
  310POPC   C1A 8043  30.265  32.209   8.896
  310POPC   D2A 8044  30.150  32.390   8.488
  310POPC   C3A 8045  29.919  32.118   8.204
  310POPC   C4A 8046  29.800  32.113   7.777
  310POPC   C1B 8047  29.793  32.619   8.773
  310POPC   C2B 8048  29.661  32.566   8.329
  310POPC   C3B 8049  29.879  32.587   7.941
  310POPC   C4B 8050  29.727  32.540   7.518
  311POPC   NC3 8051  37.772  31.807   9.517
  311POPC   PO4 8052  37.335  32.432   9.536
  311POPC   GL1 8053  37.532  32.306   9.133
  311POPC   GL2 8054  37.745  32.023   9.055
  311POPC   C1A 8055  37.815  32.446   8.771
  311POPC   D2A 8056  38.058  32.490   8.400
  311POPC   C3A 8057  37.822  32.590   8.028
  311POPC   C4A 8058  37.659  32.296   7.735
  311POPC   C1B 8059  38.084  31.993   8.718
  311POPC   C2B 8060  38.204  31.976   8.272
  311POPC   C3B 8061  37.938  31.900   7.880
  311POPC   C4B 8062  37.910  31.954   7.389
  312POPC   NC3 8063  27.999  28.793   9.507
  312POPC   PO4 8064  28.518  29.219   9.457
  312POPC   GL1 8065  28.293  28.996   9.146
  312POPC   GL2 8066  27.996  29.204   9.170
  312POPC   C1A 8067  28.465  28.885   8.723
  312POPC   D2A 8068  28.647  29.161   8.406
  312POPC   C3A 8069  28.581  28.998   8.005
  312POPC   C4A 8070  28.246  28.813   7.761
  312POPC   C1B 8071  28.269  29.356   8.819
  312POPC   C2B 8072  28.145  29.255   8.444
  312POPC   C3B 8073  28.079  29.228   8.043
  312POPC   C4B 8074  28.278  29.326   7.679
  313POPC   NC3 8075  30.478  36.349   9.449
  313POPC   PO4 8076  31.032  36.370   9.750
  313POPC   GL1 8077  30.935  36.099   9.328
  313POPC   GL2 8078  30.625  35.921   9.213
  313POPC   C1A 8079  30.861  36.113   8.828
  313POPC   D2A 8080  30.548  36.195   8.477
  313POPC   C3A 8081  30.698  36.111   8.052
  313POPC   C4A 8082  30.788  36.419   7.754
  313POPC   C1B 8083  30.335  35.855   8.844
  313POPC   C2B 8084  30.247  35.770   8.387
  313POPC   C3B 8085  30.212  35.951   7.972
  313POPC   C4B 8086  30.498  35.891   7.613
  314POPC   NC3 8087  41.187  15.676   9.565
  314POPC   PO4 8088  40.733  16.033   9.269
  314POPC   GL1 8089  40.744  15.828   8.985
  314POPC   GL2 8090  41.078  15.694   9.072
  314POPC   C1A 8091  40.680  15.943   8.577
  314POPC   D2A 8092  40.721  15.715   8.229
  314POPC   C3A 8093  40.767  16.065   8.004
  314POPC   C4A 8094  40.424  16.183   7.767
  314POPC   C1B 8095  41.159  15.862   8.680
  314POPC   C2B 8096  41.218  15.706   8.283
  314POPC   C3B 8097  41.107  15.597   7.883
  314POPC   C4B 8098  40.725  15.693   7.672
  315POPC   NC3 8099  12.889   7.022   9.486
  315POPC   PO4 8100  12.791   7.719   9.432
  315POPC   GL1 8101  12.971   7.428   9.188
  315POPC   GL2 8102  12.638   7.310   9.138
  315POPC   C1A 8103  13.013   7.411   8.767
  315POPC   D2A 8104  12.792   7.462   8.389
  315POPC   C3A 8105  13.028   7.552   8.020
  315POPC   C4A 8106  13.148   7.217   7.755
  315POPC   C1B 8107  12.546   7.186   8.779
  315POPC   C2B 8108  12.333   7.219   8.442
  315POPC   C3B 8109  12.460   7.262   8.030
  315POPC   C4B 8110  12.592   6.979   7.695
  316POPC   NC3 8111  34.053   8.264   9.432
  316POPC   PO4 8112  33.440   7.903   9.484
  316POPC   GL1 8113  33.419   8.059   9.105
  316POPC   GL2 8114  33.683   8.296   9.046
  316POPC   C1A 8115  33.435   7.909   8.707
  316POPC   D2A 8116  33.761   7.767   8.437
  316POPC   C3A 8117  33.818   8.048   8.118
  316POPC   C4A 8118  33.840   8.117   7.706
  316POPC   C1B 8119  34.063   8.399   8.789
  316POPC   C2B 8120  34.205   8.278   8.377
  316POPC   C3B 8121  34.110   8.465   7.963
  316POPC   C4B 8122  34.080   8.577   7.530
  317POPC   NC3 8123  24.235  30.365   9.534
  317POPC   PO4 8124  23.626  30.759   9.678
  317POPC   GL1 8125  23.539  30.641   9.250
  317POPC   GL2 8126  23.846  30.594   9.189
  317POPC   C1A 8127  23.435  30.558   8.797
  317POPC   D2A 8128  23.683  30.407   8.443
  317POPC   C3A 8129  23.553  30.572   8.042
  317POPC   C4A 8130  23.592  30.326   7.687
  317POPC   C1B 8131  23.939  30.706   8.785
  317POPC   C2B 8132  24.177  30.604   8.452
  317POPC   C3B 8133  24.066  30.442   8.072
  317POPC   C4B 8134  24.005  30.659   7.742
  318POPC   NC3 8135  30.733  40.699   9.585
  318POPC   PO4 8136  30.692  39.941   9.526
  318POPC   GL1 8137  30.644  39.912   9.129
  318POPC   GL2 8138  30.384  39.668   9.106
  318POPC   C1A 8139  30.894  40.025   8.784
  318POPC   D2A 8140  30.844  39.892   8.395
  318POPC   C3A 8141  30.592  40.010   8.090
  318POPC   C4A 8142  30.797  40.254   7.793
  318POPC   C1B 8143  30.396  39.845   8.677
  318POPC   C2B 8144  30.199  39.741   8.310
  318POPC   C3B 8145  30.281  39.621   7.896
  318POPC   C4B 8146  30.561  39.815   7.626
  319POPC   NC3 8147  10.407  13.919   9.677
  319POPC   PO4 8148  10.688  13.278   9.516
  319POPC   GL1 8149  10.559  13.342   9.130
  319POPC   GL2 8150  10.425  13.645   9.217
  319POPC   C1A 8151  10.675  13.462   8.718
  319POPC   D2A 8152  10.431  13.367   8.357
  319POPC   C3A 8153  10.523  13.601   7.981
  319POPC   C4A 8154  10.535  13.391   7.594
  319POPC   C1B 8155  10.399  13.872   8.833
  319POPC   C2B 8156  10.397  13.889   8.392
  319POPC   C3B 8157  10.204  13.981   8.007
  319POPC   C4B 8158  10.211  13.787   7.620
  320POPC   NC3 8159  32.792  16.010   9.596
  320POPC   PO4 8160  33.367  15.803   9.349
  320POPC   GL1 8161  33.235  16.136   9.037
  320POPC   GL2 8162  32.946  16.263   9.176
  320POPC   C1A 8163  33.162  16.159   8.586
  320POPC   D2A 8164  33.130  15.829   8.265
  320POPC   C3A 8165  33.195  15.936   7.841
  320POPC   C4A 8166  33.037  15.807   7.443
  320POPC   C1B 8167  32.783  15.937   8.864
  320POPC   C2B 8168  32.694  16.040   8.419
  320POPC   C3B 8169  32.695  15.900   7.963
  320POPC   C4B 8170  32.539  16.216   7.684
  321POPC   NC3 8171  23.485  19.208   9.324
  321POPC   PO4 8172  23.852  18.779   9.594
  321POPC   GL1 8173  23.855  18.722   9.102
  321POPC   GL2 8174  24.019  19.005   8.984
  321POPC   C1A 8175  23.933  18.753   8.584
  321POPC   D2A 8176  23.744  18.740   8.184
  321POPC   C3A 8177  23.902  18.977   7.814
  321POPC   C4A 8178  23.710  19.015   7.400
  321POPC   C1B 8179  23.764  19.238   8.660
  321POPC   C2B 8180  23.816  19.255   8.252
  321POPC   C3B 8181  24.089  19.440   7.979
  321POPC   C4B 8182  24.007  19.413   7.542
  322POPC   NC3 8183  21.567  30.359   9.799
  322POPC   PO4 8184  21.407  29.788   9.461
  322POPC   GL1 8185  21.464  29.954   9.078
  322POPC   GL2 8186  21.188  29.721   8.974
  322POPC   C1A 8187  21.579  29.840   8.660
  322POPC   D2A 8188  21.295  29.700   8.384
  322POPC   C3A 8189  21.440  29.881   8.056
  322POPC   C4A 8190  21.545  29.905   7.639
  322POPC   C1B 8191  21.123  30.068   8.700
  322POPC   C2B 8192  21.246  30.236   8.354
  322POPC   C3B 8193  21.161  30.335   7.973
  322POPC   C4B 8194  21.055  30.010   7.765
  323POPC   NC3 8195  35.780  42.795   9.485
  323POPC   PO4 8196  35.995  43.380   9.749
  323POPC   GL1 8197  36.042  43.437   9.188
  323POPC   GL2 8198  35.835  43.119   9.076
  323POPC   C1A 8199  35.929  43.414   8.699
  323POPC   D2A 8200  35.806  43.179   8.318
  323POPC   C3A 8201  35.927  43.353   7.920
  323POPC   C4A 8202  36.208  43.224   7.607
  323POPC   C1B 8203  36.091  42.924   8.725
  323POPC   C2B 8204  36.451  42.811   8.426
  323POPC   C3B 8205  36.376  42.833   7.986
  323POPC   C4B 8206  35.937  42.837   7.877
  324POPC   NC3 8207  38.719  10.523   9.773
  324POPC   PO4 8208  38.984  10.973   9.405
  324POPC   GL1 8209  38.621  10.654   9.182
  324POPC   GL2 8210  38.242  10.788   9.107
  324POPC   C1A 8211  38.426  10.406   8.782
  324POPC   D2A 8212  38.488  10.171   8.359
  324POPC   C3A 8213  38.314  10.279   7.923
  324POPC   C4A 8214  38.594  10.396   7.556
  324POPC   C1B 8215  38.486  10.901   8.750
  324POPC   C2B 8216  38.542  10.721   8.335
  324POPC   C3B 8217  38.433  10.803   7.898
  324POPC   C4B 8218  38.167  10.635   7.566
  325POPC   NC3 8219  33.601  12.586   9.703
  325POPC   PO4 8220  34.064  13.076   9.689
  325POPC   GL1 8221  34.087  12.853   9.316
  325POPC   GL2 8222  33.742  12.786   9.233
  325POPC   C1A 8223  34.104  12.811   8.865
  325POPC   D2A 8224  34.267  12.721   8.472
  325POPC   C3A 8225  33.950  12.754   8.166
  325POPC   C4A 8226  33.965  12.906   7.747
  325POPC   C1B 8227  33.575  12.856   8.806
  325POPC   C2B 8228  33.483  12.611   8.419
  325POPC   C3B 8229  33.525  12.540   8.002
  325POPC   C4B 8230  33.459  12.903   7.746
  326POPC   NC3 8231  37.965  27.251   9.916
  326POPC   PO4 8232  37.632  27.745   9.562
  326POPC   GL1 8233  37.640  27.479   9.186
  326POPC   GL2 8234  37.384  27.654   9.064
  326POPC   C1A 8235  37.492  27.312   8.736
  326POPC   D2A 8236  37.531  27.440   8.321
  326POPC   C3A 8237  37.862  27.443   8.039
  326POPC   C4A 8238  38.010  27.809   7.800
  326POPC   C1B 8239  37.807  27.706   8.754
  326POPC   C2B 8240  37.846  27.858   8.320
  326POPC   C3B 8241  37.523  27.818   7.972
  326POPC   C4B 8242  37.277  27.743   7.631
  327POPC   NC3 8243  22.726   3.295   9.408
  327POPC   PO4 8244  23.271   3.754   9.516
  327POPC   GL1 8245  22.995   3.684   9.175
  327POPC   GL2 8246  23.194   3.375   9.150
  327POPC   C1A 8247  22.935   3.542   8.722
  327POPC   D2A 8248  22.887   3.215   8.384
  327POPC   C3A 8249  23.033   3.367   7.985
  327POPC   C4A 8250  22.827   3.642   7.658
  327POPC   C1B 8251  23.395   3.723   8.859
  327POPC   C2B 8252  23.335   3.831   8.405
  327POPC   C3B 8253  23.163   3.880   7.976
  327POPC   C4B 8254  23.303   3.815   7.528
  328POPC   NC3 8255   9.579   4.775   9.504
  328POPC   PO4 8256   9.990   5.254   9.533
  328POPC   GL1 8257   9.722   5.123   9.145
  328POPC   GL2 8258   9.660   4.746   9.019
  328POPC   C1A 8259   9.860   5.125   8.705
  328POPC   D2A 8260   9.701   5.284   8.328
  328POPC   C3A 8261   9.934   5.246   7.970
  328POPC   C4A 8262   9.616   5.370   7.669
  328POPC   C1B 8263   9.899   4.628   8.666
  328POPC   C2B 8264   9.857   4.782   8.248
  328POPC   C3B 8265   9.615   4.864   7.897
  328POPC   C4B 8266   9.270   4.721   7.704
  329POPC   NC3 8267  18.834   7.168   9.490
  329POPC   PO4 8268  19.038   6.582   9.528
  329POPC   GL1 8269  19.044   6.760   9.138
  329POPC   GL2 8270  19.190   7.058   9.134
  329POPC   C1A 8271  18.879   6.634   8.748
  329POPC   D2A 8272  19.059   6.399   8.443
  329POPC   C3A 8273  18.995   6.467   8.036
  329POPC   C4A 8274  19.147   6.164   7.748
  329POPC   C1B 8275  19.041   7.133   8.755
  329POPC   C2B 8276  19.172   6.911   8.388
  329POPC   C3B 8277  19.302   6.879   7.971
  329POPC   C4B 8278  19.154   6.652   7.592
  330POPC   NC3 8279   2.108  18.546   9.375
  330POPC   PO4 8280   1.769  17.933   9.332
  330POPC   GL1 8281   1.996  18.159   9.010
  330POPC   GL2 8282   2.063  18.529   8.872
  330POPC   C1A 8283   1.980  18.099   8.584
  330POPC   D2A 8284   2.086  18.395   8.303
  330POPC   C3A 8285   2.220  18.199   7.954
  330POPC   C4A 8286   2.058  17.871   7.754
  330POPC   C1B 8287   1.648  18.566   8.685
  330POPC   C2B 8288   1.463  18.792   8.327
  330POPC   C3B 8289   1.677  18.892   7.979
  330POPC   C4B 8290   2.089  18.719   7.893
  331POPC   NC3 8291  39.900  41.880   9.491
  331POPC   PO4 8292  40.240  42.495   9.469
  331POPC   GL1 8293  39.995  42.492   9.069
  331POPC   GL2 8294  39.982  42.135   9.063
  331POPC   C1A 8295  39.989  42.340   8.603
  331POPC   D2A 8296  40.112  42.065   8.267
  331POPC   C3A 8297  40.337  42.255   7.933
  331POPC   C4A 8298  40.227  42.723   7.979
  331POPC   C1B 8299  39.781  41.843   8.784
  331POPC   C2B 8300  39.669  41.781   8.396
  331POPC   C3B 8301  39.615  42.066   8.097
  331POPC   C4B 8302  39.847  42.344   7.873
  332POPC   NC3 8303  16.633  17.114   9.588
  332POPC   PO4 8304  16.284  16.567   9.470
  332POPC   GL1 8305  16.529  16.850   9.139
  332POPC   GL2 8306  16.897  16.900   9.200
  332POPC   C1A 8307  16.752  16.970   8.716
  332POPC   D2A 8308  16.960  17.062   8.313
  332POPC   C3A 8309  16.789  16.808   7.980
  332POPC   C4A 8310  16.609  16.676   7.583
  332POPC   C1B 8311  16.924  16.537   8.894
  332POPC   C2B 8312  16.870  16.539   8.429
  332POPC   C3B 8313  17.154  16.472   8.079
  332POPC   C4B 8314  17.089  16.471   7.627
  333POPC   NC3 8315  43.186  24.974   9.514
  333POPC   PO4 8316  42.962  25.627   9.467
  333POPC   GL1 8317  43.043  25.316   9.153
  333POPC   GL2 8318  43.388  25.200   9.106
  333POPC   C1A 8319  42.985  25.223   8.730
  333POPC   D2A 8320  42.971  25.297   8.316
  333POPC   C3A 8321  42.739  25.151   7.996
  333POPC   C4A 8322  42.797  25.338   7.651
  333POPC   C1B 8323  43.506  25.315   8.687
  333POPC   C2B 8324  43.462  25.249   8.271
  333POPC   C3B 8325  43.299  25.327   7.862
  333POPC   C4B 8326  43.495  25.150   7.503
  334POPC   NC3 8327  26.322  44.351   9.740
  334POPC   PO4 8328  25.879  44.856   9.570
  334POPC   GL1 8329  25.986  44.612   9.222
  334POPC   GL2 8330  26.284  44.595   9.154
  334POPC   C1A 8331  25.930  44.601   8.787
  334POPC   D2A 8332  26.172  44.414   8.425
  334POPC   C3A 8333  26.000  44.523   8.010
  334POPC   C4A 8334  25.712  44.429   7.686
  334POPC   C1B 8335  26.490  44.670   8.765
  334POPC   C2B 8336  26.466  44.871   8.362
  334POPC   C3B 8337  26.468  44.700   7.962
  334POPC   C4B 8338  26.255  44.681   7.562
  335POPC   NC3 8339  14.217   5.429   9.492
  335POPC   PO4 8340  14.547   4.846   9.739
  335POPC   GL1 8341  14.492   4.925   9.266
  335POPC   GL2 8342  14.590   5.273   9.157
  335POPC   C1A 8343  14.397   4.944   8.808
  335POPC   D2A 8344  14.596   5.159   8.436
  335POPC   C3A 8345  14.507   4.997   8.016
  335POPC   C4A 8346  14.771   4.923   7.696
  335POPC   C1B 8347  14.288   5.433   8.800
  335POPC   C2B 8348  14.352   5.631   8.405
  335POPC   C3B 8349  14.478   5.520   8.009
  335POPC   C4B 8350  14.143   5.325   7.805
  336POPC   NC3 8351  21.495   4.022   9.341
  336POPC   PO4 8352  20.959   4.273   9.633
  336POPC   GL1 8353  21.129   4.366   9.140
  336POPC   GL2 8354  21.236   4.079   8.896
  336POPC   C1A 8355  21.297   4.561   8.763
  336POPC   D2A 8356  21.519   4.492   8.368
  336POPC   C3A 8357  21.293   4.487   7.982
  336POPC   C4A 8358  21.060   4.161   7.815
  336POPC   C1B 8359  21.664   4.186   8.754
  336POPC   C2B 8360  21.835   4.062   8.368
  336POPC   C3B 8361  21.710   4.167   7.980
  336POPC   C4B 8362  21.516   3.995   7.637
  337POPC   NC3 8363  36.770  36.488   9.294
  337POPC   PO4 8364  37.161  36.003   9.603
  337POPC   GL1 8365  37.163  35.977   9.174
  337POPC   GL2 8366  36.824  35.982   9.100
  337POPC   C1A 8367  37.192  36.196   8.764
  337POPC   D2A 8368  37.045  36.336   8.353
  337POPC   C3A 8369  37.112  36.012   8.047
  337POPC   C4A 8370  37.418  35.981   7.730
  337POPC   C1B 8371  36.664  36.229   8.726
  337POPC   C2B 8372  36.528  36.341   8.306
  337POPC   C3B 8373  36.721  36.304   7.897
  337POPC   C4B 8374  36.516  36.050   7.507
  338POPC   NC3 8375  24.923   6.411   9.466
  338POPC   PO4 8376  25.455   6.779   9.631
  338POPC   GL1 8377  25.296   6.698   9.171
  338POPC   GL2 8378  25.117   6.394   8.984
  338POPC   C1A 8379  25.344   6.795   8.721
  338POPC   D2A 8380  25.113   6.741   8.355
  338POPC   C3A 8381  25.229   6.808   7.948
  338POPC   C4A 8382  25.130   6.398   7.898
  338POPC   C1B 8383  25.554   6.348   8.808
  338POPC   C2B 8384  25.609   6.462   8.369
  338POPC   C3B 8385  25.691   6.479   7.944
  338POPC   C4B 8386  25.527   6.291   7.579
  339POPC   NC3 8387  40.205  23.433   9.488
  339POPC   PO4 8388  40.040  22.753   9.431
  339POPC   GL1 8389  40.238  23.020   9.140
  339POPC   GL2 8390  39.910  23.185   9.157
  339POPC   C1A 8391  40.285  23.022   8.676
  339POPC   D2A 8392  40.128  22.690   8.365
  339POPC   C3A 8393  40.044  22.776   7.901
  339POPC   C4A 8394  40.262  23.107   7.651
  339POPC   C1B 8395  39.796  22.938   8.823
  339POPC   C2B 8396  39.742  23.024   8.403
  339POPC   C3B 8397  39.505  22.843   8.090
  339POPC   C4B 8398  39.467  22.701   7.691
  340POPC   NC3 8399  22.317  24.825   9.472
  340POPC   PO4 8400  22.282  24.157   9.413
  340POPC   GL1 8401  21.951  24.332   9.179
  340POPC   GL2 8402  22.018  24.655   9.097
  340POPC   C1A 8403  21.809  24.309   8.762
  340POPC   D2A 8404  22.082  24.366   8.443
  340POPC   C3A 8405  21.938  24.286   8.103
  340POPC   C4A 8406  21.923  24.654   7.852
  340POPC   C1B 8407  22.375  24.522   8.825
  340POPC   C2B 8408  22.521  24.636   8.396
  340POPC   C3B 8409  22.419  24.654   7.952
  340POPC   C4B 8410  22.278  24.496   7.506
  341POPC   NC3 8411   6.917   3.915   9.651
  341POPC   PO4 8412   6.630   3.255   9.632
  341POPC   GL1 8413   6.619   3.171   9.209
  341POPC   GL2 8414   6.946   3.184   9.107
  341POPC   C1A 8415   6.460   3.361   8.831
  341POPC   D2A 8416   6.384   3.287   8.404
  341POPC   C3A 8417   6.254   3.657   8.139
  341POPC   C4A 8418   6.321   3.743   7.683
  341POPC   C1B 8419   6.958   3.375   8.693
  341POPC   C2B 8420   6.758   3.645   8.391
  341POPC   C3B 8421   6.731   3.632   7.959
  341POPC   C4B 8422   6.831   3.659   7.518
  342POPC   NC3 8423  22.606  41.821   9.449
  342POPC   PO4 8424  22.998  41.299   9.385
  342POPC   GL1 8425  22.847  41.491   9.028
  342POPC   GL2 8426  23.022  41.792   9.147
  342POPC   C1A 8427  22.845  41.459   8.550
  342POPC   D2A 8428  22.663  41.161   8.232
  342POPC   C3A 8429  22.738  41.323   7.796
  342POPC   C4A 8430  23.152  41.490   7.791
  342POPC   C1B 8431  22.970  41.906   8.777
  342POPC   C2B 8432  23.129  41.893   8.377
  342POPC   C3B 8433  22.858  41.751   8.083
  342POPC   C4B 8434  22.793  41.828   7.648
  343POPC   NC3 8435  23.026  18.849   9.635
  343POPC   PO4 8436  22.519  19.195   9.501
  343POPC   GL1 8437  22.876  19.267   9.227
  343POPC   GL2 8438  23.073  19.000   9.133
  343POPC   C1A 8439  22.865  19.252   8.756
  343POPC   D2A 8440  22.973  19.337   8.334
  343POPC   C3A 8441  22.872  19.103   7.955
  343POPC   C4A 8442  22.643  19.257   7.601
  343POPC   C1B 8443  23.318  18.994   8.746
  343POPC   C2B 8444  23.241  18.873   8.340
  343POPC   C3B 8445  23.395  19.074   7.984
  343POPC   C4B 8446  23.250  19.070   7.580
  344POPC   NC3 8447  29.693  40.838   9.431
  344POPC   PO4 8448  30.302  40.704   9.445
  344POPC   GL1 8449  30.104  40.654   9.066
  344POPC   GL2 8450  29.758  40.462   9.093
  344POPC   C1A 8451  30.232  40.736   8.627
  344POPC   D2A 8452  29.949  40.869   8.300
  344POPC   C3A 8453  30.040  40.866   7.893
  344POPC   C4A 8454  30.152  40.574   7.598
  344POPC   C1B 8455  29.745  40.600   8.695
  344POPC   C2B 8456  29.550  40.532   8.317
  344POPC   C3B 8457  29.730  40.425   7.949
  344POPC   C4B 8458  29.630  40.640   7.640
  345POPC   NC3 8459   2.199  27.190   9.513
  345POPC   PO4 8460   1.987  26.478   9.560
  345POPC   GL1 8461   2.128  26.755   9.246
  345POPC   GL2 8462   1.797  26.938   9.227
  345POPC   C1A 8463   2.130  26.972   8.821
  345POPC   D2A 8464   2.337  26.851   8.431
  345POPC   C3A 8465   2.135  26.855   8.091
  345POPC   C4A 8466   2.224  26.698   7.697
  345POPC   C1B 8467   1.762  26.614   8.926
  345POPC   C2B 8468   1.795  26.674   8.500
  345POPC   C3B 8469   1.609  26.634   8.100
  345POPC   C4B 8470   1.757  26.855   7.764
  346POPC   NC3 8471  22.065  10.157   9.493
  346POPC   PO4 8472  22.005  10.721   9.283
  346POPC   GL1 8473  22.386  10.527   9.091
  346POPC   GL2 8474  22.533  10.229   9.289
  346POPC   C1A 8475  22.415  10.443   8.631
  346POPC   D2A 8476  22.083  10.253   8.404
  346POPC   C3A 8477  21.979  10.470   8.024
  346POPC   C4A 8478  21.957  10.633   7.595
  346POPC   C1B 8479  22.424  10.017   8.919
  346POPC   C2B 8480  22.508   9.951   8.470
  346POPC   C3B 8481  22.609  10.211   8.115
  346POPC   C4B 8482  22.401  10.380   7.723
  347POPC   NC3 8483  28.664  44.884   9.441
  347POPC   PO4 8484  28.204  44.386   9.496
  347POPC   GL1 8485  28.427  44.536   9.151
  347POPC   GL2 8486  28.254  44.779   9.084
  347POPC   C1A 8487  28.335  44.434   8.691
  347POPC   D2A 8488  28.615  44.384   8.299
  347POPC   C3A 8489  28.431  44.459   7.896
  347POPC   C4A 8490  28.059  44.624   7.758
  347POPC   C1B 8491  28.419  44.929   8.748
  347POPC   C2B 8492  28.209  44.858   8.405
  347POPC   C3B 8493  28.360  44.952   8.058
  347POPC   C4B 8494  28.398  44.997   7.659
  348POPC   NC3 8495   5.865  14.100   9.410
  348POPC   PO4 8496   5.530  14.639   9.456
  348POPC   GL1 8497   5.739  14.493   9.064
  348POPC   GL2 8498   5.876  14.141   8.913
  348POPC   C1A 8499   5.930  14.578   8.682
  348POPC   D2A 8500   6.067  14.259   8.380
  348POPC   C3A 8501   6.099  14.426   7.975
  348POPC   C4A 8502   5.912  14.742   7.740
  348POPC   C1B 8503   5.442  14.105   8.816
  348POPC   C2B 8504   5.258  14.210   8.430
  348POPC   C3B 8505   5.291  14.097   8.024
  348POPC   C4B 8506   5.612  14.302   7.805
  349POPC   NC3 8507  42.916   9.056   9.558
  349POPC   PO4 8508  43.456   8.717   9.285
  349POPC   GL1 8509  43.072   8.893   9.098
  349POPC   GL2 8510  42.972   9.273   9.104
  349POPC   C1A 8511  43.097   8.958   8.672
  349POPC   D2A 8512  43.109   8.773   8.310
  349POPC   C3A 8513  43.319   9.052   8.034
  349POPC   C4A 8514  43.302   9.117   7.592
  349POPC   C1B 8515  42.897   9.430   8.705
  349POPC   C2B 8516  42.900   9.284   8.281
  349POPC   C3B 8517  42.908   9.309   7.835
  349POPC   C4B 8518  42.897   9.368   7.354
  350POPC   NC3 8519  26.227  40.193   9.391
  350POPC   PO4 8520  26.189  39.505   9.334
  350POPC   GL1 8521  26.030  39.857   9.033
  350POPC   GL2 8522  26.128  40.236   8.911
  350POPC   C1A 8523  25.948  39.850   8.649
  350POPC   D2A 8524  26.124  40.033   8.319
  350POPC   C3A 8525  25.918  39.840   7.992
  350POPC   C4A 8526  26.012  39.740   7.592
  350POPC   C1B 8527  25.794  40.344   8.615
  350POPC   C2B 8528  25.775  40.377   8.160
  350POPC   C3B 8529  26.097  40.294   7.863
  350POPC   C4B 8530  26.210  40.180   7.470
  351POPC   NC3 8531  34.004  11.439  10.105
  351POPC   PO4 8532  33.509  11.388   9.621
  351POPC   GL1 8533  33.644  11.384   9.166
  351POPC   GL2 8534  33.990  11.362   9.131
  351POPC   C1A 8535  33.670  11.455   8.741
  351POPC   D2A 8536  33.499  11.333   8.376
  351POPC   C3A 8537  33.665  11.601   8.072
  351POPC   C4A 8538  33.768  11.485   7.669
  351POPC   C1B 8539  33.835  10.996   8.860
  351POPC   C2B 8540  33.941  11.090   8.428
  351POPC   C3B 8541  33.784  11.072   8.017
  351POPC   C4B 8542  33.973  10.989   7.637
  352POPC   NC3 8543  37.235  27.333   9.485
  352POPC   PO4 8544  36.866  28.029   9.590
  352POPC   GL1 8545  36.905  27.817   9.179
  352POPC   GL2 8546  36.865  27.473   9.164
  352POPC   C1A 8547  37.035  27.782   8.732
  352POPC   D2A 8548  37.176  27.895   8.328
  352POPC   C3A 8549  36.904  27.821   7.991
  352POPC   C4A 8550  36.748  27.805   7.586
  352POPC   C1B 8551  36.920  27.294   8.776
  352POPC   C2B 8552  37.038  27.400   8.398
  352POPC   C3B 8553  37.128  27.376   8.004
  352POPC   C4B 8554  36.986  27.330   7.602
  353POPC   NC3 8555  37.838  20.382   9.329
  353POPC   PO4 8556  37.419  20.872   9.660
  353POPC   GL1 8557  37.514  20.781   9.217
  353POPC   GL2 8558  37.854  20.786   9.029
  353POPC   C1A 8559  37.407  20.773   8.769
  353POPC   D2A 8560  37.747  20.885   8.463
  353POPC   C3A 8561  37.761  20.667   8.063
  353POPC   C4A 8562  37.434  20.572   7.733
  353POPC   C1B 8563  37.858  20.427   8.690
  353POPC   C2B 8564  38.075  20.295   8.310
  353POPC   C3B 8565  38.183  20.397   7.894
  353POPC   C4B 8566  37.893  20.363   7.595
  354POPC   NC3 8567   3.049  22.745   9.392
  354POPC   PO4 8568   3.653  22.787   9.556
  354POPC   GL1 8569   3.632  23.001   9.187
  354POPC   GL2 8570   3.892  23.242   9.174
  354POPC   C1A 8571   3.493  22.812   8.828
  354POPC   D2A 8572   3.622  22.815   8.424
  354POPC   C3A 8573   3.319  22.781   8.128
  354POPC   C4A 8574   3.429  22.788   7.699
  354POPC   C1B 8575   3.947  23.047   8.765
  354POPC   C2B 8576   4.001  23.127   8.333
  354POPC   C3B 8577   3.848  22.948   7.952
  354POPC   C4B 8578   3.910  23.084   7.529
  355POPC   NC3 8579  14.083  38.612   9.468
  355POPC   PO4 8580  14.609  38.898   9.567
  355POPC   GL1 8581  14.560  38.673   9.121
  355POPC   GL2 8582  14.369  38.353   9.155
  355POPC   C1A 8583  14.355  38.765   8.726
  355POPC   D2A 8584  14.064  38.826   8.373
  355POPC   C3A 8585  14.307  38.754   7.998
  355POPC   C4A 8586  14.446  38.805   7.605
  355POPC   C1B 8587  14.130  38.314   8.797
  355POPC   C2B 8588  14.174  38.316   8.369
  355POPC   C3B 8589  13.979  38.390   8.009
  355POPC   C4B 8590  14.038  38.491   7.552
  356POPC   NC3 8591  33.659  19.402   9.480
  356POPC   PO4 8592  33.878  18.795   9.515
  356POPC   GL1 8593  33.828  19.024   9.160
  356POPC   GL2 8594  34.048  19.308   9.152
  356POPC   C1A 8595  33.661  19.154   8.787
  356POPC   D2A 8596  33.793  19.003   8.406
  356POPC   C3A 8597  33.598  18.977   8.038
  356POPC   C4A 8598  33.762  19.082   7.661
  356POPC   C1B 8599  34.164  19.222   8.745
  356POPC   C2B 8600  34.068  19.407   8.349
  356POPC   C3B 8601  34.167  19.261   7.937
  356POPC   C4B 8602  34.098  19.447   7.528
  357POPC   NC3 8603  16.693  36.644   9.591
  357POPC   PO4 8604  17.086  37.245   9.555
  357POPC   GL1 8605  16.784  36.989   9.215
  357POPC   GL2 8606  16.871  36.616   9.141
  357POPC   C1A 8607  16.633  36.924   8.795
  357POPC   D2A 8608  16.421  36.685   8.462
  357POPC   C3A 8609  16.600  36.821   8.052
  357POPC   C4A 8610  16.583  37.234   7.799
  357POPC   C1B 8611  16.798  36.449   8.764
  357POPC   C2B 8612  16.925  36.614   8.394
  357POPC   C3B 8613  16.977  36.406   8.039
  357POPC   C4B 8614  16.741  36.428   7.664
  358POPC   NC3 8615  16.448  24.456   9.578
  358POPC   PO4 8616  17.025  24.306   9.297
  358POPC   GL1 8617  16.888  24.482   9.014
  358POPC   GL2 8618  16.599  24.659   9.149
  358POPC   C1A 8619  17.129  24.520   8.666
  358POPC   D2A 8620  17.156  24.317   8.300
  358POPC   C3A 8621  17.235  24.555   7.994
  358POPC   C4A 8622  16.985  24.700   7.677
  358POPC   C1B 8623  16.439  24.461   8.798
  358POPC   C2B 8624  16.659  24.536   8.437
  358POPC   C3B 8625  16.489  24.522   8.062
  358POPC   C4B 8626  16.473  24.562   7.640
  359POPC   NC3 8627  27.132  34.866   9.590
  359POPC   PO4 8628  26.938  34.218   9.549
  359POPC   GL1 8629  26.950  34.514   9.238
  359POPC   GL2 8630  27.255  34.431   9.125
  359POPC   C1A 8631  26.702  34.567   8.870
  359POPC   D2A 8632  26.600  34.637   8.445
  359POPC   C3A 8633  26.808  34.730   8.064
  359POPC   C4A 8634  26.640  34.811   7.672
  359POPC   C1B 8635  27.093  34.287   8.741
  359POPC   C2B 8636  27.119  34.369   8.325
  359POPC   C3B 8637  26.985  34.259   7.939
  359POPC   C4B 8638  26.999  34.471   7.560
  360POPC   NC3 8639   0.702  18.247   9.683
  360POPC   PO4 8640   0.071  18.380   9.567
  360POPC   GL1 8641   0.353  18.457   9.219
  360POPC   GL2 8642   0.520  18.122   9.211
  360POPC   C1A 8643   0.298  18.347   8.777
  360POPC   D2A 8644   0.297  18.074   8.399
  360POPC   C3A 8645   0.152  18.315   8.049
  360POPC   C4A 8646   0.281  18.553   7.698
  360POPC   C1B 8647   0.596  17.937   8.809
  360POPC   C2B 8648   0.824  18.086   8.433
  360POPC   C3B 8649   0.661  18.117   8.018
  360POPC   C4B 8650   0.590  17.839   7.649
  361POPC   NC3 8651  30.143   9.998   9.499
  361POPC   PO4 8652  29.620   9.536   9.514
  361POPC   GL1 8653  29.860   9.716   9.166
  361POPC   GL2 8654  30.149   9.489   9.146
  361POPC   C1A 8655  29.993   9.934   8.773
  361POPC   D2A 8656  30.234  10.068   8.375
  361POPC   C3A 8657  30.009  10.110   7.957
  361POPC   C4A 8658  29.749   9.888   7.632
  361POPC   C1B 8659  29.990   9.386   8.761
  361POPC   C2B 8660  30.011   9.595   8.370
  361POPC   C3B 8661  29.994   9.571   7.938
  361POPC   C4B 8662  29.975   9.356   7.529
  362POPC   NC3 8663   5.472  30.504   9.429
  362POPC   PO4 8664   4.806  30.541   9.568
  362POPC   GL1 8665   4.996  30.487   9.177
  362POPC   GL2 8666   5.169  30.765   9.052
  362POPC   C1A 8667   5.082  30.269   8.793
  362POPC   D2A 8668   5.321  30.180   8.441
  362POPC   C3A 8669   5.154  30.210   8.044
  362POPC   C4A 8670   5.394  30.376   7.670
  362POPC   C1B 8671   4.949  30.921   8.727
  362POPC   C2B 8672   5.034  30.638   8.411
  362POPC   C3B 8673   5.197  30.705   8.009
  362POPC   C4B 8674   4.836  30.663   7.764
  363POPC   NC3 8675  34.365  20.064   9.625
  363POPC   PO4 8676  35.030  19.813   9.674
  363POPC   GL1 8677  34.619  19.716   9.365
  363POPC   GL2 8678  34.565  20.055   9.155
  363POPC   C1A 8679  34.494  19.570   8.936
  363POPC   D2A 8680  34.567  19.549   8.489
  363POPC   C3A 8681  34.389  19.700   8.115
  363POPC   C4A 8682  34.517  19.600   7.734
  363POPC   C1B 8683  34.593  20.030   8.685
  363POPC   C2B 8684  34.516  20.159   8.265
  363POPC   C3B 8685  34.668  20.040   7.855
  363POPC   C4B 8686  34.789  19.898   7.417
  364POPC   NC3 8687   0.151  10.221   9.513
  364POPC   PO4 8688   0.725  10.587   9.287
  364POPC   GL1 8689   0.487  10.721   8.976
  364POPC   GL2 8690   0.255  10.508   9.101
  364POPC   C1A 8691   0.380  10.533   8.612
  364POPC   D2A 8692   0.171  10.647   8.297
  364POPC   C3A 8693   0.384  10.543   7.961
  364POPC   C4A 8694   0.631  10.848   7.828
  364POPC   C1B 8695   0.070  10.189   8.861
  364POPC   C2B 8696   0.009  10.158   8.417
  364POPC   C3B 8697  44.974  10.247   7.981
  364POPC   C4B 8698   0.156  10.170   7.550
  365POPC   NC3 8699  34.485  10.556   9.482
  365POPC   PO4 8700  34.983  10.938   9.331
  365POPC   GL1 8701  34.647  10.774   9.069
  365POPC   GL2 8702  34.299  10.944   9.211
  365POPC   C1A 8703  34.668  10.532   8.709
  365POPC   D2A 8704  34.826  10.531   8.297
  365POPC   C3A 8705  34.533  10.372   8.029
  365POPC   C4A 8706  34.450  10.488   7.618
  365POPC   C1B 8707  34.327  11.042   8.785
  365POPC   C2B 8708  34.377  10.808   8.375
  365POPC   C3B 8709  34.417  10.909   7.931
  365POPC   C4B 8710  34.446  10.980   7.480
  366POPC   NC3 8711  34.159  34.689   9.366
  366POPC   PO4 8712  34.746  34.431   9.509
  366POPC   GL1 8713  34.547  34.470   9.124
  366POPC   GL2 8714  34.673  34.829   9.092
  366POPC   C1A 8715  34.428  34.397   8.703
  366POPC   D2A 8716  34.712  34.193   8.412
  366POPC   C3A 8717  34.532  34.264   8.027
  366POPC   C4A 8718  34.322  34.420   7.705
  366POPC   C1B 8719  34.816  34.706   8.671
  366POPC   C2B 8720  34.571  34.727   8.266
  366POPC   C3B 8721  34.663  34.809   7.823
  366POPC   C4B 8722  35.035  34.871   7.573
  367POPC   NC3 8723  34.090  44.499   9.454
  367POPC   PO4 8724  33.428  44.746   9.280
  367POPC   GL1 8725  33.470  44.463   8.966
  367POPC   GL2 8726  33.835  44.499   9.010
  367POPC   C1A 8727  33.569  44.422   8.517
  367POPC   D2A 8728  33.996  44.365   8.323
  367POPC   C3A 8729  33.997  44.584   7.925
  367POPC   C4A 8730  33.662  44.724   7.642
  367POPC   C1B 8731  34.137  44.691   8.729
  367POPC   C2B 8732  34.242  44.877   8.320
  367POPC   C3B 8733  34.347  44.988   7.913
  367POPC   C4B 8734  34.122  44.930   7.511
  368POPC   NC3 8735  30.121  20.490   9.576
  368POPC   PO4 8736  29.508  20.689   9.771
  368POPC   GL1 8737  29.745  20.639   9.301
  368POPC   GL2 8738  29.718  20.362   9.112
  368POPC   C1A 8739  30.005  20.728   8.910
  368POPC   D2A 8740  29.902  20.934   8.528
  368POPC   C3A 8741  30.149  20.835   8.189
  368POPC   C4A 8742  30.104  20.630   7.792
  368POPC   C1B 8743  30.007  20.220   8.845
  368POPC   C2B 8744  30.164  20.420   8.496
  368POPC   C3B 8745  30.272  20.257   8.094
  368POPC   C4B 8746  29.973  20.131   7.770
  369POPC   NC3 8747  38.888  36.169   9.457
  369POPC   PO4 8748  39.505  35.914   9.542
  369POPC   GL1 8749  39.274  35.941   9.159
  369POPC   GL2 8750  38.962  35.767   9.145
  369POPC   C1A 8751  39.280  36.146   8.749
  369POPC   D2A 8752  39.148  36.353   8.376
  369POPC   C3A 8753  39.206  36.132   8.027
  369POPC   C4A 8754  39.339  35.803   7.774
  369POPC   C1B 8755  38.753  35.852   8.799
  369POPC   C2B 8756  38.886  35.915   8.402
  369POPC   C3B 8757  38.873  35.762   8.014
  369POPC   C4B 8758  38.811  35.931   7.633
  370POPC   NC3 8759  33.294  10.789   9.673
  370POPC   PO4 8760  32.864  10.351   9.462
  370POPC   GL1 8761  33.008  10.305   9.069
  370POPC   GL2 8762  32.899   9.999   8.994
  370POPC   C1A 8763  33.268  10.488   8.742
  370POPC   D2A 8764  33.272  10.573   8.294
  370POPC   C3A 8765  33.538  10.345   8.011
  370POPC   C4A 8766  33.562  10.692   7.742
  370POPC   C1B 8767  32.853  10.190   8.578
  370POPC   C2B 8768  32.771  10.621   8.404
  370POPC   C3B 8769  32.787  10.763   8.008
  370POPC   C4B 8770  33.078  10.526   7.803
  371POPC   NC3 8771   0.174  16.640   9.371
  371POPC   PO4 8772   0.762  17.065   9.484
  371POPC   GL1 8773   0.562  16.841   9.125
  371POPC   GL2 8774   0.657  16.472   9.140
  371POPC   C1A 8775   0.413  16.994   8.714
  371POPC   D2A 8776   0.245  17.095   8.315
  371POPC   C3A 8777   0.210  16.848   7.923
  371POPC   C4A 8778   0.150  17.032   7.513
  371POPC   C1B 8779   0.464  16.495   8.728
  371POPC   C2B 8780   0.386  16.546   8.286
  371POPC   C3B 8781   0.645  16.569   7.875
  371POPC   C4B 8782   0.820  16.522   7.443
  372POPC   NC3 8783  43.182  39.209   9.619
  372POPC   PO4 8784  43.332  38.652   9.260
  372POPC   GL1 8785  43.017  38.999   9.168
  372POPC   GL2 8786  43.255  39.310   9.122
  372POPC   C1A 8787  42.862  39.285   8.812
  372POPC   D2A 8788  43.048  39.410   8.436
  372POPC   C3A 8789  42.967  39.222   8.055
  372POPC   C4A 8790  43.124  39.234   7.678
  372POPC   C1B 8791  43.300  39.047   8.740
  372POPC   C2B 8792  43.388  38.748   8.460
  372POPC   C3B 8793  43.384  38.940   8.100
  372POPC   C4B 8794  43.396  38.811   7.712
  373POPC   NC3 8795  41.347  42.575  10.025
  373POPC   PO4 8796  41.624  43.174   9.667
  373POPC   GL1 8797  41.527  43.254   9.213
  373POPC   GL2 8798  41.468  42.928   9.089
  373POPC   C1A 8799  41.530  43.274   8.731
  373POPC   D2A 8800  41.235  43.287   8.366
  373POPC   C3A 8801  41.492  43.189   8.052
  373POPC   C4A 8802  41.614  43.396   7.686
  373POPC   C1B 8803  41.569  42.766   8.696
  373POPC   C2B 8804  41.743  42.761   8.291
  373POPC   C3B 8805  41.516  42.684   7.917
  373POPC   C4B 8806  41.361  42.972   7.601
  374POPC   NC3 8807  35.479  38.000   9.395
  374POPC   PO4 8808  35.159  37.420   9.537
  374POPC   GL1 8809  35.185  37.616   9.120
  374POPC   GL2 8810  35.048  37.950   9.118
  374POPC   C1A 8811  35.508  37.650   8.768
  374POPC   D2A 8812  35.699  37.834   8.394
  374POPC   C3A 8813  35.584  37.615   8.023
  374POPC   C4A 8814  35.559  37.719   7.623
  374POPC   C1B 8815  34.993  37.822   8.681
  374POPC   C2B 8816  35.142  37.656   8.287
  374POPC   C3B 8817  35.094  37.748   7.837
  374POPC   C4B 8818  35.088  37.608   7.395
  375POPC   NC3 8819  12.545   4.786   9.378
  375POPC   PO4 8820  12.958   5.247   9.608
  375POPC   GL1 8821  12.882   5.121   9.175
  375POPC   GL2 8822  13.200   4.983   9.097
  375POPC   C1A 8823  12.792   5.335   8.758
  375POPC   D2A 8824  12.886   5.189   8.338
  375POPC   C3A 8825  12.784   5.353   7.985
  375POPC   C4A 8826  12.837   5.188   7.641
  375POPC   C1B 8827  12.975   4.855   8.726
  375POPC   C2B 8828  12.834   4.692   8.334
  375POPC   C3B 8829  12.993   4.726   7.941
  375POPC   C4B 8830  12.819   4.644   7.564
  376POPC   NC3 8831   2.840  40.159   9.680
  376POPC   PO4 8832   2.381  40.106   9.277
  376POPC   GL1 8833   2.767  40.006   9.140
  376POPC   GL2 8834   2.763  40.195   8.841
  376POPC   C1A 8835   2.730  39.710   8.779
  376POPC   D2A 8836   2.507  39.911   8.443
  376POPC   C3A 8837   2.811  39.925   8.112
  376POPC   C4A 8838   2.773  39.853   7.699
  376POPC   C1B 8839   2.511  40.545   8.749
  376POPC   C2B 8840   2.326  40.532   8.370
  376POPC   C3B 8841   2.552  40.352   8.096
  376POPC   C4B 8842   2.525  40.291   7.704
  377POPC   NC3 8843   3.371   4.164   9.431
  377POPC   PO4 8844   3.616   4.740   9.623
  377POPC   GL1 8845   3.864   4.475   9.267
  377POPC   GL2 8846   3.572   4.388   9.039
  377POPC   C1A 8847   3.999   4.429   8.796
  377POPC   D2A 8848   3.746   4.318   8.416
  377POPC   C3A 8849   3.879   4.378   7.975
  377POPC   C4A 8850   3.713   4.533   7.579
  377POPC   C1B 8851   3.330   4.150   8.736
  377POPC   C2B 8852   3.241   4.284   8.329
  377POPC   C3B 8853   3.393   4.233   7.932
  377POPC   C4B 8854   3.227   4.139   7.553
  378POPC   NC3 8855  12.099  24.003   9.705
  378POPC   PO4 8856  12.173  23.376   9.504
  378POPC   GL1 8857  12.056  23.705   9.215
  378POPC   GL2 8858  12.351  23.927   9.190
  378POPC   C1A 8859  11.809  23.721   8.823
  378POPC   D2A 8860  11.877  23.971   8.458
  378POPC   C3A 8861  11.785  23.715   8.136
  378POPC   C4A 8862  11.786  23.460   7.781
  378POPC   C1B 8863  12.307  23.769   8.731
  378POPC   C2B 8864  12.320  23.872   8.257
  378POPC   C3B 8865  12.207  23.793   7.826
  378POPC   C4B 8866  12.406  23.454   7.522
  379POPC   NC3 8867  13.655  25.675   9.393
  379POPC   PO4 8868  13.393  25.139   9.571
  379POPC   GL1 8869  13.609  25.184   9.144
  379POPC   GL2 8870  13.423  24.875   9.117
  379POPC   C1A 8871  13.796  25.412   8.746
  379POPC   D2A 8872  13.879  25.306   8.303
  379POPC   C3A 8873  13.701  25.502   7.924
  379POPC   C4A 8874  13.800  25.348   7.514
  379POPC   C1B 8875  13.334  24.750   8.725
  379POPC   C2B 8876  13.415  24.891   8.311
  379POPC   C3B 8877  13.469  25.049   7.907
  379POPC   C4B 8878  13.420  24.947   7.435
  380POPC   NC3 8879   9.263  31.663   9.562
  380POPC   PO4 8880   8.636  31.509   9.513
  380POPC   GL1 8881   8.908  31.422   9.159
  380POPC   GL2 8882   9.203  31.654   9.071
  380POPC   C1A 8883   9.008  31.348   8.727
  380POPC   D2A 8884   8.822  31.508   8.376
  380POPC   C3A 8885   8.950  31.339   8.012
  380POPC   C4A 8886   8.833  31.499   7.612
  380POPC   C1B 8887   9.260  31.865   8.685
  380POPC   C2B 8888   9.314  31.719   8.250
  380POPC   C3B 8889   9.249  31.719   7.795
  380POPC   C4B 8890   9.142  31.787   7.339
  381POPC   NC3 8891   3.958   2.905   9.634
  381POPC   PO4 8892   4.531   2.786   9.386
  381POPC   GL1 8893   4.175   2.710   9.117
  381POPC   GL2 8894   4.013   2.382   9.150
  381POPC   C1A 8895   4.258   2.560   8.696
  381POPC   D2A 8896   4.441   2.634   8.307
  381POPC   C3A 8897   4.343   2.967   8.123
  381POPC   C4A 8898   4.291   2.847   7.730
  381POPC   C1B 8899   3.833   2.285   8.727
  381POPC   C2B 8900   3.945   2.474   8.302
  381POPC   C3B 8901   4.104   2.418   7.886
  381POPC   C4B 8902   3.968   2.472   7.416
  382POPC   NC3 8903  12.223  44.730   9.685
  382POPC   PO4 8904  11.808  44.365   9.630
  382POPC   GL1 8905  11.975  44.562   9.233
  382POPC   GL2 8906  11.835  44.892   9.137
  382POPC   C1A 8907  11.867  44.531   8.744
  382POPC   D2A 8908  12.021  44.388   8.299
  382POPC   C3A 8909  12.162  44.628   7.926
  382POPC   C4A 8910  12.518  44.720   7.633
  382POPC   C1B 8911  11.865   0.036   8.663
  382POPC   C2B 8912  11.891  44.954   8.200
  382POPC   C3B 8913  11.981   0.060   7.733
  382POPC   C4B 8914  11.966   0.017   7.271
  383POPC   NC3 8915  36.755  11.719   9.486
  383POPC   PO4 8916  37.292  11.544   9.216
  383POPC   GL1 8917  36.905  11.397   9.084
  383POPC   GL2 8918  36.725  11.716   8.986
  383POPC   C1A 8919  37.012  11.192   8.710
  383POPC   D2A 8920  37.258  11.296   8.342
  383POPC   C3A 8921  36.974  11.190   8.012
  383POPC   C4A 8922  36.612  11.008   7.784
  383POPC   C1B 8923  36.843  11.658   8.574
  383POPC   C2B 8924  36.574  11.529   8.270
  383POPC   C3B 8925  36.610  11.513   7.847
  383POPC   C4B 8926  37.027  11.604   7.695
  384POPC   NC3 8927  24.710  26.238  10.062
  384POPC   PO4 8928  25.309  26.334   9.646
  384POPC   GL1 8929  25.216  26.282   9.139
  384POPC   GL2 8930  24.989  25.992   9.154
  384POPC   C1A 8931  25.068  26.174   8.669
  384POPC   D2A 8932  25.329  26.169   8.293
  384POPC   C3A 8933  25.186  26.316   7.883
  384POPC   C4A 8934  25.022  26.210   7.460
  384POPC   C1B 8935  25.250  25.738   8.841
  384POPC   C2B 8936  25.167  25.689   8.377
  384POPC   C3B 8937  25.225  25.807   7.921
  384POPC   C4B 8938  25.164  25.706   7.468
  385POPC   NC3 8939  40.812   0.538   9.403
  385POPC   PO4 8940  40.424   0.006   9.365
  385POPC   GL1 8941  40.705   0.191   9.059
  385POPC   GL2 8942  41.007   0.053   8.997
  385POPC   C1A 8943  40.848   0.481   8.715
  385POPC   D2A 8944  41.129   0.525   8.321
  385POPC   C3A 8945  40.894   0.573   7.932
  385POPC   C4A 8946  40.470   0.405   7.819
  385POPC   C1B 8947  41.064   0.058   8.558
  385POPC   C2B 8948  41.338   0.061   8.221
  385POPC   C3B 8949  41.047   0.097   7.893
  385POPC   C4B 8950  40.849   0.257   7.512
  386POPC   NC3 8951  39.816  11.549   9.869
  386POPC   PO4 8952  40.271  11.645   9.310
  386POPC   GL1 8953  40.002  11.337   9.049
  386POPC   GL2 8954  39.793  11.015   9.089
  386POPC   C1A 8955  40.053  11.180   8.613
  386POPC   D2A 8956  39.723  11.213   8.273
  386POPC   C3A 8957  39.807  11.335   7.882
  386POPC   C4A 8958  40.243  11.381   7.807
  386POPC   C1B 8959  39.681  10.827   8.675
  386POPC   C2B 8960  39.493  10.774   8.253
  386POPC   C3B 8961  39.777  10.801   7.895
  386POPC   C4B 8962  39.800  10.996   7.508
  387POPC   NC3 8963  36.622  31.462   9.492
  387POPC   PO4 8964  37.310  31.632   9.399
  387POPC   GL1 8965  37.006  31.400   9.137
  387POPC   GL2 8966  36.768  31.700   9.069
  387POPC   C1A 8967  36.856  31.232   8.722
  387POPC   D2A 8968  36.535  31.420   8.446
  387POPC   C3A 8969  36.621  31.264   8.032
  387POPC   C4A 8970  36.856  31.261   7.650
  387POPC   C1B 8971  37.042  31.706   8.720
  387POPC   C2B 8972  36.928  31.803   8.312
  387POPC   C3B 8973  36.970  31.695   7.896
  387POPC   C4B 8974  36.615  31.811   7.699
  388POPC   NC3 8975  24.972  14.550   9.153
  388POPC   PO4 8976  24.423  14.621   9.499
  388POPC   GL1 8977  24.395  14.356   9.104
  388POPC   GL2 8978  24.120  14.553   9.068
  388POPC   C1A 8979  24.244  14.040   8.748
  388POPC   D2A 8980  24.299  14.119   8.264
  388POPC   C3A 8981  24.700  14.336   8.070
  388POPC   C4A 8982  24.900  14.380   7.629
  388POPC   C1B 8983  24.122  14.497   8.643
  388POPC   C2B 8984  24.325  14.654   8.298
  388POPC   C3B 8985  24.284  14.549   7.898
  388POPC   C4B 8986  24.377  14.317   7.549
  389POPC   NC3 8987  18.192  18.876   9.413
  389POPC   PO4 8988  18.687  19.364   9.155
  389POPC   GL1 8989  18.312  19.154   9.007
  389POPC   GL2 8990  18.380  18.774   8.958
  389POPC   C1A 8991  18.285  19.121   8.572
  389POPC   D2A 8992  18.487  19.406   8.311
  389POPC   C3A 8993  18.406  19.196   7.951
  389POPC   C4A 8994  18.366  19.297   7.549
  389POPC   C1B 8995  17.962  18.796   8.804
  389POPC   C2B 8996  17.893  18.784   8.403
  389POPC   C3B 8997  17.990  18.908   8.012
  389POPC   C4B 8998  18.272  18.770   7.686
  390POPC   NC3 8999  14.145   4.680   9.867
  390POPC   PO4 9000  14.647   4.185   9.639
  390POPC   GL1 9001  14.435   4.394   9.280
  390POPC   GL2 9002  14.519   4.146   9.079
  390POPC   C1A 9003  14.263   4.458   8.802
  390POPC   D2A 9004  14.456   4.635   8.399
  390POPC   C3A 9005  14.331   4.498   7.967
  390POPC   C4A 9006  14.508   4.516   7.540
  390POPC   C1B 9007  14.519   4.025   8.714
  390POPC   C2B 9008  14.355   4.133   8.334
  390POPC   C3B 9009  14.567   4.046   7.952
  390POPC   C4B 9010  14.732   4.070   7.565
  391POPC   NC3 9011  42.986  27.727   9.511
  391POPC   PO4 9012  43.485  27.215   9.436
  391POPC   GL1 9013  43.231  27.453   9.151
  391POPC   GL2 9014  43.274  27.804   9.069
  391POPC   C1A 9015  42.929  27.422   8.819
  391POPC   D2A 9016  42.790  27.265   8.385
  391POPC   C3A 9017  43.023  27.451   8.021
  391POPC   C4A 9018  43.040  27.505   7.541
  391POPC   C1B 9019  43.009  27.917   8.689
  391POPC   C2B 9020  42.790  27.877   8.279
  391POPC   C3B 9021  42.893  27.894   7.843
  391POPC   C4B 9022  43.050  28.004   7.415
  392POPC   NC3 9023  11.495  16.633   9.599
  392POPC   PO4 9024  11.239  17.270   9.346
  392POPC   GL1 9025  11.305  16.862   9.110
  392POPC   GL2 9026  11.470  16.521   9.109
  392POPC   C1A 9027  11.359  16.768   8.652
  392POPC   D2A 9028  11.546  16.898   8.264
  392POPC   C3A 9029  11.398  16.902   7.830
  392POPC   C4A 9030  11.534  17.071   7.425
  392POPC   C1B 9031  11.712  16.419   8.735
  392POPC   C2B 9032  11.558  16.377   8.282
  392POPC   C3B 9033  11.350  16.387   7.879
  392POPC   C4B 9034  11.231  16.138   7.492
  393POPC   NC3 9035  35.968  18.865   9.387
  393POPC   PO4 9036  36.368  19.344   9.310
  393POPC   GL1 9037  36.442  19.133   8.949
  393POPC   GL2 9038  36.307  18.844   9.028
  393POPC   C1A 9039  36.383  19.034   8.532
  393POPC   D2A 9040  36.020  19.114   8.300
  393POPC   C3A 9041  35.981  18.818   7.976
  393POPC   C4A 9042  36.238  19.137   7.790
  393POPC   C1B 9043  36.079  18.630   8.733
  393POPC   C2B 9044  36.222  18.546   8.353
  393POPC   C3B 9045  36.492  18.701   8.036
  393POPC   C4B 9046  36.360  18.692   7.609
  394POPC   NC3 9047  12.598   8.145   9.356
  394POPC   PO4 9048  13.109   8.528   9.282
  394POPC   GL1 9049  13.060   8.122   9.073
  394POPC   GL2 9050  12.720   8.137   8.869
  394POPC   C1A 9051  13.133   7.914   8.683
  394POPC   D2A 9052  12.831   7.963   8.370
  394POPC   C3A 9053  12.899   8.096   7.965
  394POPC   C4A 9054  12.672   8.379   7.745
  394POPC   C1B 9055  12.928   8.456   8.615
  394POPC   C2B 9056  12.924   8.605   8.175
  394POPC   C3B 9057  13.149   8.559   7.781
  394POPC   C4B 9058  13.055   8.315   7.392
  395POPC   NC3 9059  30.876   9.330   9.504
  395POPC   PO4 9060  30.375   8.887   9.421
  395POPC   GL1 9061  30.582   9.165   9.097
  395POPC   GL2 9062  30.958   9.079   9.076
  395POPC   C1A 9063  30.714   9.136   8.639
  395POPC   D2A 9064  30.674   8.723   8.403
  395POPC   C3A 9065  30.422   8.733   8.022
  395POPC   C4A 9066  30.464   9.106   7.774
  395POPC   C1B 9067  31.115   8.807   8.731
  395POPC   C2B 9068  31.199   8.741   8.289
  395POPC   C3B 9069  31.004   8.929   7.910
  395POPC   C4B 9070  31.195   8.824   7.520
  396POPC   NC3 9071  13.933   4.542   9.364
  396POPC   PO4 9072  13.313   4.799   9.566
  396POPC   GL1 9073  13.455   4.536   9.172
  396POPC   GL2 9074  13.490   4.177   9.211
  396POPC   C1A 9075  13.708   4.412   8.774
  396POPC   D2A 9076  13.957   4.466   8.391
  396POPC   C3A 9077  13.750   4.386   8.025
  396POPC   C4A 9078  13.484   4.644   7.811
  396POPC   C1B 9079  13.459   3.970   8.806
  396POPC   C2B 9080  13.577   4.065   8.404
  396POPC   C3B 9081  13.551   3.914   7.978
  396POPC   C4B 9082  13.658   4.100   7.566
  397POPC   NC3 9083   4.180  38.853   9.489
  397POPC   PO4 9084   4.704  39.191   9.431
  397POPC   GL1 9085   4.537  39.041   9.071
  397POPC   GL2 9086   4.165  39.071   9.039
  397POPC   C1A 9087   4.591  39.059   8.656
  397POPC   D2A 9088   4.799  39.202   8.310
  397POPC   C3A 9089   4.687  39.092   7.908
  397POPC   C4A 9090   4.692  39.310   7.500
  397POPC   C1B 9091   4.114  39.227   8.643
  397POPC   C2B 9092   4.259  39.136   8.239
  397POPC   C3B 9093   4.265  39.346   7.826
  397POPC   C4B 9094   4.177  39.344   7.380
  398POPC   NC3 9095  19.499  44.676   9.554
  398POPC   PO4 9096  18.805  44.760   9.527
  398POPC   GL1 9097  19.099  44.635   9.198
  398POPC   GL2 9098  18.813  44.527   9.061
  398POPC   C1A 9099  19.282  44.773   8.777
  398POPC   D2A 9100  19.221   0.080   8.446
  398POPC   C3A 9101  19.349  44.929   8.035
  398POPC   C4A 9102  19.243  44.663   7.712
  398POPC   C1B 9103  18.836  44.624   8.663
  398POPC   C2B 9104  19.023  44.606   8.273
  398POPC   C3B 9105  18.778  44.727   7.912
  398POPC   C4B 9106  18.786  44.688   7.447
  399POPC   NC3 9107  40.504  13.329   9.356
  399POPC   PO4 9108  41.011  13.669   9.681
  399POPC   GL1 9109  40.862  13.646   9.198
  399POPC   GL2 9110  40.874  13.320   8.976
  399POPC   C1A 9111  40.838  13.761   8.745
  399POPC   D2A 9112  40.975  13.445   8.453
  399POPC   C3A 9113  40.799  13.471   8.072
  399POPC   C4A 9114  40.637  13.705   7.722
  399POPC   C1B 9115  40.523  13.339   8.690
  399POPC   C2B 9116  40.272  13.329   8.314
  399POPC   C3B 9117  40.412  13.238   7.871
  399POPC   C4B 9118  40.759  13.204   7.584
  400POPC   NC3 9119  44.850  38.954   9.464
  400POPC   PO4 9120  44.510  39.465   9.746
  400POPC   GL1 9121  44.573  39.362   9.236
  400POPC   GL2 9122  44.633  39.059   9.016
  400POPC   C1A 9123  44.677  39.491   8.799
  400POPC   D2A 9124  44.629  39.179   8.465
  400POPC   C3A 9125  44.740  39.254   8.065
  400POPC   C4A 9126  44.561  39.505   7.814
  400POPC   C1B 9127   0.023  39.058   8.767
  400POPC   C2B 9128   0.112  39.017   8.340
  400POPC   C3B 9129   0.065  38.870   7.950
  400POPC   C4B 9130   0.004  39.192   7.601
  401POPC   NC3 9131  22.446  12.546   9.499
  401POPC   PO4 9132  22.973  12.121   9.576
  401POPC   GL1 9133  22.955  11.998   9.158
  401POPC   GL2 9134  22.670  12.222   8.992
  401POPC   C1A 9135  23.080  12.037   8.726
  401POPC   D2A 9136  22.738  12.260   8.492
  401POPC   C3A 9137  22.807  12.337   8.083
  401POPC   C4A 9138  22.922  12.082   7.700
  401POPC   C1B 9139  22.629  11.798   8.833
  401POPC   C2B 9140  22.801  11.683   8.482
  401POPC   C3B 9141  22.649  11.849   8.140
  401POPC   C4B 9142  22.533  11.714   7.782
  402POPC   NC3 9143  29.779  38.913   9.457
  402POPC   PO4 9144  29.436  39.359   9.749
  402POPC   GL1 9145  29.819  39.400   9.321
  402POPC   GL2 9146  30.137  39.200   9.163
  402POPC   C1A 9147  29.785  39.379   8.831
  402POPC   D2A 9148  29.688  39.104   8.452
  402POPC   C3A 9149  29.580  39.254   8.046
  402POPC   C4A 9150  29.870  39.338   7.714
  402POPC   C1B 9151  30.276  39.320   8.700
  402POPC   C2B 9152  30.176  39.200   8.235
  402POPC   C3B 9153  30.342  39.136   7.792
  402POPC   C4B 9154  30.231  39.288   7.351
  403POPC   NC3 9155   6.519  34.243   9.355
  403POPC   PO4 9156   7.034  34.636   9.544
  403POPC   GL1 9157   6.816  34.635   9.133
  403POPC   GL2 9158   6.533  34.526   8.938
  403POPC   C1A 9159   6.927  34.792   8.725
  403POPC   D2A 9160   6.763  34.827   8.315
  403POPC   C3A 9161   6.886  34.512   7.989
  403POPC   C4A 9162   6.884  34.621   7.542
  403POPC   C1B 9163   6.246  34.610   8.622
  403POPC   C2B 9164   6.289  34.647   8.194
  403POPC   C3B 9165   6.406  34.678   7.787
  403POPC   C4B 9166   6.051  34.776   7.516
  404POPC   NC3 9167  17.921  21.386   9.325
  404POPC   PO4 9168  18.387  21.792   9.504
  404POPC   GL1 9169  18.430  21.445   9.217
  404POPC   GL2 9170  18.223  21.623   8.992
  404POPC   C1A 9171  18.501  21.258   8.785
  404POPC   D2A 9172  18.513  21.446   8.368
  404POPC   C3A 9173  18.512  21.200   7.996
  404POPC   C4A 9174  18.087  21.075   7.848
  404POPC   C1B 9175  18.011  21.370   8.670
  404POPC   C2B 9176  17.876  21.584   8.318
  404POPC   C3B 9177  18.131  21.545   7.995
  404POPC   C4B 9178  18.204  21.501   7.573
  405POPC   NC3 9179  17.844  28.119   9.577
  405POPC   PO4 9180  18.461  28.554   9.547
  405POPC   GL1 9181  18.198  28.292   9.217
  405POPC   GL2 9182  17.848  28.416   9.138
  405POPC   C1A 9183  18.187  28.228   8.755
  405POPC   D2A 9184  18.493  28.262   8.396
  405POPC   C3A 9185  18.415  28.096   7.963
  405POPC   C4A 9186  18.644  28.179   7.584
  405POPC   C1B 9187  17.899  28.687   8.772
  405POPC   C2B 9188  18.019  28.649   8.350
  405POPC   C3B 9189  17.920  28.602   7.906
  405POPC   C4B 9190  17.916  28.312   7.567
  406POPC   NC3 9191  19.625  26.741   9.812
  406POPC   PO4 9192  20.194  26.762   9.590
  406POPC   GL1 9193  19.901  26.732   9.195
  406POPC   GL2 9194  19.659  26.472   9.108
  406POPC   C1A 9195  19.852  26.855   8.763
  406POPC   D2A 9196  20.113  27.096   8.472
  406POPC   C3A 9197  20.009  26.983   8.071
  406POPC   C4A 9198  20.179  26.732   7.775
  406POPC   C1B 9199  19.439  26.549   8.714
  406POPC   C2B 9200  19.516  26.589   8.245
  406POPC   C3B 9201  19.670  26.647   7.831
  406POPC   C4B 9202  19.684  27.065   7.674
  407POPC   NC3 9203  19.436  31.292   9.552
  407POPC   PO4 9204  19.865  31.716   9.542
  407POPC   GL1 9205  19.832  31.361   9.197
  407POPC   GL2 9206  19.510  31.250   9.040
  407POPC   C1A 9207  19.923  31.172   8.760
  407POPC   D2A 9208  19.828  31.174   8.299
  407POPC   C3A 9209  19.992  31.469   7.977
  407POPC   C4A 9210  20.051  31.465   7.523
  407POPC   C1B 9211  19.654  31.614   8.780
  407POPC   C2B 9212  19.761  31.756   8.360
  407POPC   C3B 9213  19.580  31.776   7.934
  407POPC   C4B 9214  19.513  31.513   7.545
  408POPC   NC3 9215  44.461  44.948   9.466
  408POPC   PO4 9216   0.059   0.264   9.605
  408POPC   GL1 9217  44.822   0.337   9.186
  408POPC   GL2 9218  44.880   0.689   9.050
  408POPC   C1A 9219  44.648   0.332   8.736
  408POPC   D2A 9220  44.714   0.657   8.409
  408POPC   C3A 9221  44.797   0.539   7.948
  408POPC   C4A 9222  44.734   0.457   7.468
  408POPC   C1B 9223  44.432   0.737   8.944
  408POPC   C2B 9224  44.227   0.606   8.548
  408POPC   C3B 9225  44.338   0.408   8.161
  408POPC   C4B 9226  44.302   0.595   7.765
  409POPC   NC3 9227  32.582  14.427   9.377
  409POPC   PO4 9228  32.051  14.237   9.730
  409POPC   GL1 9229  32.125  14.186   9.278
  409POPC   GL2 9230  32.136  14.561   9.211
  409POPC   C1A 9231  32.128  14.235   8.805
  409POPC   D2A 9232  32.468  14.314   8.479
  409POPC   C3A 9233  32.352  14.289   8.007
  409POPC   C4A 9234  32.553  13.953   7.716
  409POPC   C1B 9235  32.320  14.707   8.807
  409POPC   C2B 9236  32.170  14.702   8.385
  409POPC   C3B 9237  32.024  14.698   7.983
  409POPC   C4B 9238  32.373  14.821   7.714
  410POPC   NC3 9239  15.609  34.693   9.351
  410POPC   PO4 9240  16.235  34.456   9.582
  410POPC   GL1 9241  16.099  34.553   9.214
  410POPC   GL2 9242  15.925  34.273   9.199
  410POPC   C1A 9243  16.155  34.675   8.814
  410POPC   D2A 9244  16.101  34.533   8.391
  410POPC   C3A 9245  15.891  34.876   8.160
  410POPC   C4A 9246  16.042  35.045   7.758
  410POPC   C1B 9247  15.755  34.364   8.798
  410POPC   C2B 9248  15.534  34.483   8.442
  410POPC   C3B 9249  15.688  34.415   8.044
  410POPC   C4B 9250  15.674  34.713   7.716
  411POPC   NC3 9251  43.850  43.239   9.439
  411POPC   PO4 9252  44.233  42.674   9.468
  411POPC   GL1 9253  43.945  42.920   9.056
  411POPC   GL2 9254  43.955  43.307   8.956
  411POPC   C1A 9255  43.567  43.077   8.746
  411POPC   D2A 9256  43.591  43.314   8.333
  411POPC   C3A 9257  43.784  43.046   8.012
  411POPC   C4A 9258  43.759  42.944   7.565
  411POPC   C1B 9259  44.039  43.074   8.557
  411POPC   C2B 9260  44.248  42.889   8.209
  411POPC   C3B 9261  44.294  43.149   7.872
  411POPC   C4B 9262  43.992  43.380   7.692
  412POPC   NC3 9263   4.350   7.241   9.536
  412POPC   PO4 9264   4.084   7.866   9.434
  412POPC   GL1 9265   4.199   7.842   9.060
  412POPC   GL2 9266   4.415   7.591   9.138
  412POPC   C1A 9267   4.137   7.574   8.702
  412POPC   D2A 9268   4.229   7.219   8.439
  412POPC   C3A 9269   4.161   7.320   8.024
  412POPC   C4A 9270   4.070   7.673   7.741
  412POPC   C1B 9271   4.546   7.275   8.886
  412POPC   C2B 9272   4.750   7.253   8.534
  412POPC   C3B 9273   4.667   7.209   8.128
  412POPC   C4B 9274   4.573   7.450   7.763
  413POPC   NC3 9275  17.347  27.153   9.478
  413POPC   PO4 9276  17.223  27.776   9.548
  413POPC   GL1 9277  17.614  27.599   9.278
  413POPC   GL2 9278  17.828  27.891   9.122
  413POPC   C1A 9279  17.639  27.254   8.910
  413POPC   D2A 9280  17.349  27.070   8.571
  413POPC   C3A 9281  17.293  27.351   8.206
  413POPC   C4A 9282  17.345  27.473   7.777
  413POPC   C1B 9283  17.520  27.774   8.819
  413POPC   C2B 9284  17.595  27.793   8.407
  413POPC   C3B 9285  17.353  27.918   8.083
  413POPC   C4B 9286  17.171  27.950   7.703
  414POPC   NC3 9287  26.966  11.718   9.798
  414POPC   PO4 9288  27.583  11.789   9.494
  414POPC   GL1 9289  27.801  11.788   9.130
  414POPC   GL2 9290  27.699  12.108   8.980
  414POPC   C1A 9291  27.851  11.708   8.713
  414POPC   D2A 9292  27.654  11.908   8.368
  414POPC   C3A 9293  27.809  11.906   7.920
  414POPC   C4A 9294  27.556  11.787   7.540
  414POPC   C1B 9295  27.603  12.377   8.583
  414POPC   C2B 9296  27.632  12.361   8.125
  414POPC   C3B 9297  27.520  12.339   7.676
  414POPC   C4B 9298  27.621  12.570   7.269
  415POPC   NC3 9299  24.816  12.589   9.527
  415POPC   PO4 9300  24.364  13.028   9.460
  415POPC   GL1 9301  24.394  12.680   9.163
  415POPC   GL2 9302  24.714  12.791   9.081
  415POPC   C1A 9303  24.499  12.504   8.732
  415POPC   D2A 9304  24.617  12.457   8.302
  415POPC   C3A 9305  24.315  12.522   7.971
  415POPC   C4A 9306  24.287  12.712   7.609
  415POPC   C1B 9307  24.488  13.046   8.776
  415POPC   C2B 9308  24.471  13.243   8.375
  415POPC   C3B 9309  24.473  13.058   7.955
  415POPC   C4B 9310  24.664  13.086   7.524
  416POPC   NC3 9311  23.515  40.343   9.247
  416POPC   PO4 9312  23.445  39.812   9.715
  416POPC   GL1 9313  23.424  39.836   9.222
  416POPC   GL2 9314  23.229  39.614   9.033
  416POPC   C1A 9315  23.657  39.898   8.791
  416POPC   D2A 9316  23.569  39.865   8.337
  416POPC   C3A 9317  23.866  40.022   8.026
  416POPC   C4A 9318  23.708  40.123   7.614
  416POPC   C1B 9319  23.455  39.461   8.682
  416POPC   C2B 9320  23.555  39.363   8.298
  416POPC   C3B 9321  23.360  39.549   7.928
  416POPC   C4B 9322  23.380  39.480   7.478
  417POPC   NC3 9323  35.089  32.141   9.420
  417POPC   PO4 9324  35.716  32.271   9.696
  417POPC   GL1 9325  35.491  32.001   9.175
  417POPC   GL2 9326  35.214  32.271   8.971
  417POPC   C1A 9327  35.411  31.893   8.721
  417POPC   D2A 9328  35.571  31.889   8.312
  417POPC   C3A 9329  35.306  31.968   7.945
  417POPC   C4A 9330  35.134  32.099   7.532
  417POPC   C1B 9331  35.480  32.386   8.675
  417POPC   C2B 9332  35.338  32.358   8.324
  417POPC   C3B 9333  35.501  32.448   7.996
  417POPC   C4B 9334  35.378  32.543   7.647
  418POPC   NC3 9335   7.889   7.780   9.495
  418POPC   PO4 9336   8.328   7.318   9.508
  418POPC   GL1 9337   8.177   7.504   9.167
  418POPC   GL2 9338   8.433   7.748   9.134
  418POPC   C1A 9339   8.021   7.768   8.847
  418POPC   D2A 9340   8.162   7.843   8.432
  418POPC   C3A 9341   7.975   7.520   8.211
  418POPC   C4A 9342   7.938   7.252   7.835
  418POPC   C1B 9343   8.425   7.504   8.716
  418POPC   C2B 9344   8.444   7.304   8.336
  418POPC   C3B 9345   8.411   7.464   7.926
  418POPC   C4B 9346   8.589   7.434   7.533
  419POPC   NC3 9347  26.289  27.364   9.680
  419POPC   PO4 9348  25.804  27.674   9.307
  419POPC   GL1 9349  26.131  27.623   9.093
  419POPC   GL2 9350  26.191  27.951   9.060
  419POPC   C1A 9351  26.081  27.549   8.667
  419POPC   D2A 9352  26.030  27.329   8.280
  419POPC   C3A 9353  26.156  27.419   7.901
  419POPC   C4A 9354  25.821  27.625   7.729
  419POPC   C1B 9355  26.389  28.082   8.758
  419POPC   C2B 9356  26.254  27.913   8.375
  419POPC   C3B 9357  26.151  27.914   7.993
  419POPC   C4B 9358  26.206  28.038   7.590
  420POPC   NC3 9359  37.521  26.395   9.682
  420POPC   PO4 9360  38.049  26.036   9.535
  420POPC   GL1 9361  37.700  26.139   9.267
  420POPC   GL2 9362  37.584  25.800   9.225
  420POPC   C1A 9363  37.625  26.207   8.834
  420POPC   D2A 9364  37.899  26.068   8.457
  420POPC   C3A 9365  37.904  26.248   8.031
  420POPC   C4A 9366  37.863  26.429   7.622
  420POPC   C1B 9367  37.696  25.710   8.785
  420POPC   C2B 9368  37.657  25.630   8.346
  420POPC   C3B 9369  37.512  25.901   8.010
  420POPC   C4B 9370  37.607  26.006   7.609
  421POPC   NC3 9371  20.674  17.066   9.793
  421POPC   PO4 9372  20.689  17.753   9.629
  421POPC   GL1 9373  20.583  17.642   9.206
  421POPC   GL2 9374  20.253  17.536   9.125
  421POPC   C1A 9375  20.603  17.689   8.749
  421POPC   D2A 9376  20.890  17.567   8.424
  421POPC   C3A 9377  20.776  17.691   8.023
  421POPC   C4A 9378  20.399  17.657   7.788
  421POPC   C1B 9379  20.179  17.402   8.712
  421POPC   C2B 9380  20.310  17.472   8.302
  421POPC   C3B 9381  20.183  17.226   7.952
  421POPC   C4B 9382  20.482  16.986   7.817
  422POPC   NC3 9383  31.981  12.187   9.530
  422POPC   PO4 9384  32.673  11.932   9.547
  422POPC   GL1 9385  32.385  11.864   9.293
  422POPC   GL2 9386  32.361  12.159   9.176
  422POPC   C1A 9387  32.419  11.800   8.825
  422POPC   D2A 9388  32.349  11.956   8.413
  422POPC   C3A 9389  32.187  11.772   8.049
  422POPC   C4A 9390  32.242  11.953   7.601
  422POPC   C1B 9391  32.174  12.267   8.797
  422POPC   C2B 9392  31.990  12.319   8.371
  422POPC   C3B 9393  31.952  12.203   7.930
  422POPC   C4B 9394  31.859  12.277   7.470
  423POPC   NC3 9395  16.527   6.121   9.291
  423POPC   PO4 9396  16.959   5.786   9.601
  423POPC   GL1 9397  17.032   5.538   9.225
  423POPC   GL2 9398  16.748   5.688   9.106
  423POPC   C1A 9399  17.129   5.594   8.756
  423POPC   D2A 9400  17.001   5.791   8.352
  423POPC   C3A 9401  16.858   5.984   7.963
  423POPC   C4A 9402  17.137   6.135   7.640
  423POPC   C1B 9403  16.856   6.023   8.773
  423POPC   C2B 9404  16.668   6.323   8.492
  423POPC   C3B 9405  16.300   6.333   8.231
  423POPC   C4B 9406  16.420   6.350   7.828
  424POPC   NC3 9407  34.507  13.005   9.647
  424POPC   PO4 9408  34.743  12.529   9.200
  424POPC   GL1 9409  34.740  12.917   8.999
  424POPC   GL2 9410  34.447  13.142   9.065
  424POPC   C1A 9411  34.729  12.951   8.575
  424POPC   D2A 9412  34.728  12.672   8.234
  424POPC   C3A 9413  34.423  12.806   7.961
  424POPC   C4A 9414  34.543  12.853   7.552
  424POPC   C1B 9415  34.599  13.421   8.724
  424POPC   C2B 9416  34.703  13.389   8.307
  424POPC   C3B 9417  34.794  13.176   7.948
  424POPC   C4B 9418  34.666  13.404   7.599
  425POPC   NC3 9419  29.434  32.865   9.510
  425POPC   PO4 9420  28.813  32.714   9.400
  425POPC   GL1 9421  28.980  32.958   9.076
  425POPC   GL2 9422  29.324  32.833   9.013
  425POPC   C1A 9423  28.915  33.096   8.628
  425POPC   D2A 9424  29.207  33.378   8.403
  425POPC   C3A 9425  29.216  33.319   7.971
  425POPC   C4A 9426  29.009  32.979   7.773
  425POPC   C1B 9427  29.421  32.944   8.601
  425POPC   C2B 9428  29.211  32.846   8.227
  425POPC   C3B 9429  29.360  32.635   7.846
  425POPC   C4B 9430  29.286  32.746   7.366
  426POPC   NC3 9431  12.440   7.463   9.589
  426POPC   PO4 9432  11.842   7.463   9.771
  426POPC   GL1 9433  12.031   7.566   9.304
  426POPC   GL2 9434  12.320   7.761   9.169
  426POPC   C1A 9435  12.069   7.414   8.881
  426POPC   D2A 9436  11.922   7.520   8.484
  426POPC   C3A 9437  11.916   7.234   8.156
  426POPC   C4A 9438  11.765   7.225   7.770
  426POPC   C1B 9439  12.496   7.690   8.744
  426POPC   C2B 9440  12.360   7.742   8.295
  426POPC   C3B 9441  12.418   7.814   7.841
  426POPC   C4B 9442  12.259   7.764   7.384
  427POPC   NC3 9443  37.037  18.093   9.425
  427POPC   PO4 9444  36.439  18.622   9.483
  427POPC   GL1 9445  36.748  18.618   9.115
  427POPC   GL2 9446  36.901  18.326   9.012
  427POPC   C1A 9447  36.609  18.601   8.706
  427POPC   D2A 9448  36.767  18.269   8.453
  427POPC   C3A 9449  36.937  18.369   8.068
  427POPC   C4A 9450  36.722  18.352   7.723
  427POPC   C1B 9451  37.194  18.125   8.765
  427POPC   C2B 9452  37.170  17.868   8.437
  427POPC   C3B 9453  37.315  18.006   8.027
  427POPC   C4B 9454  37.108  17.957   7.645
  428POPC   NC3 9455  33.128  38.396   9.677
  428POPC   PO4 9456  32.657  38.831   9.393
  428POPC   GL1 9457  32.837  38.519   9.069
  428POPC   GL2 9458  33.170  38.357   9.155
  428POPC   C1A 9459  33.040  38.559   8.706
  428POPC   D2A 9460  32.907  38.775   8.374
  428POPC   C3A 9461  33.011  38.609   8.005
  428POPC   C4A 9462  32.827  38.467   7.612
  428POPC   C1B 9463  33.463  38.238   8.842
  428POPC   C2B 9464  33.591  38.223   8.412
  428POPC   C3B 9465  33.470  38.052   8.008
  428POPC   C4B 9466  33.284  38.326   7.704
  429POPC   NC3 9467   3.757  17.149   9.496
  429POPC   PO4 9468   3.188  17.587   9.526
  429POPC   GL1 9469   3.363  17.615   9.124
  429POPC   GL2 9470   3.612  17.399   9.056
  429POPC   C1A 9471   3.222  17.645   8.685
  429POPC   D2A 9472   3.539  17.526   8.398
  429POPC   C3A 9473   3.686  17.777   8.058
  429POPC   C4A 9474   4.080  17.837   7.914
  429POPC   C1B 9475   3.181  17.189   8.906
  429POPC   C2B 9476   3.107  17.199   8.429
  429POPC   C3B 9477   3.357  17.190   8.064
  429POPC   C4B 9478   3.465  17.485   7.699
  430POPC   NC3 9479   5.461  32.768   9.500
  430POPC   PO4 9480   6.090  32.646   9.359
  430POPC   GL1 9481   5.817  32.943   9.175
  430POPC   GL2 9482   6.083  33.082   9.015
  430POPC   C1A 9483   5.608  33.101   8.813
  430POPC   D2A 9484   5.513  32.886   8.427
  430POPC   C3A 9485   5.675  33.139   8.106
  430POPC   C4A 9486   5.793  33.416   7.780
  430POPC   C1B 9487   5.998  32.809   8.664
  430POPC   C2B 9488   6.041  32.799   8.231
  430POPC   C3B 9489   5.994  32.919   7.781
  430POPC   C4B 9490   5.977  32.814   7.345
  431POPC   NC3 9491  37.423  22.057   9.381
  431POPC   PO4 9492  38.040  22.391   9.496
  431POPC   GL1 9493  37.862  22.164   9.143
  431POPC   GL2 9494  37.852  21.810   9.176
  431POPC   C1A 9495  37.630  22.070   8.747
  431POPC   D2A 9496  37.612  22.236   8.312
  431POPC   C3A 9497  37.406  22.010   8.006
  431POPC   C4A 9498  37.462  21.817   7.610
  431POPC   C1B 9499  38.039  21.758   8.789
  431POPC   C2B 9500  38.012  21.862   8.365
  431POPC   C3B 9501  37.872  21.779   7.951
  431POPC   C4B 9502  37.986  21.826   7.510
  432POPC   NC3 9503  36.017  38.843   9.372
  432POPC   PO4 9504  36.197  39.473   9.468
  432POPC   GL1 9505  36.341  39.286   9.103
  432POPC   GL2 9506  36.369  38.938   9.014
  432POPC   C1A 9507  36.175  39.246   8.671
  432POPC   D2A 9508  36.428  39.196   8.319
  432POPC   C3A 9509  36.196  39.344   7.963
  432POPC   C4A 9510  36.122  39.044   7.669
  432POPC   C1B 9511  35.958  38.801   8.757
  432POPC   C2B 9512  35.773  39.034   8.423
  432POPC   C3B 9513  35.778  38.968   8.025
  432POPC   C4B 9514  35.619  39.008   7.622
  433POPC   NC3 9515  10.631  26.623   9.607
  433POPC   PO4 9516  10.114  26.796   9.301
  433POPC   GL1 9517  10.405  27.059   9.144
  433POPC   GL2 9518  10.746  26.977   9.243
  433POPC   C1A 9519  10.548  26.921   8.763
  433POPC   D2A 9520  10.435  26.690   8.415
  433POPC   C3A 9521  10.319  26.904   8.110
  433POPC   C4A 9522  10.380  26.730   7.748
  433POPC   C1B 9523  10.941  26.647   8.949
  433POPC   C2B 9524  10.945  26.608   8.503
  433POPC   C3B 9525  10.812  26.641   8.066
  433POPC   C4B 9526  10.837  26.983   7.770
  434POPC   NC3 9527  35.549  31.009   9.479
  434POPC   PO4 9528  34.883  30.984   9.613
  434POPC   GL1 9529  35.116  30.899   9.191
  434POPC   GL2 9530  35.415  30.656   9.114
  434POPC   C1A 9531  35.284  30.989   8.767
  434POPC   D2A 9532  35.485  30.873   8.409
  434POPC   C3A 9533  35.285  30.966   8.039
  434POPC   C4A 9534  35.520  31.089   7.740
  434POPC   C1B 9535  35.282  30.480   8.685
  434POPC   C2B 9536  35.230  30.480   8.205
  434POPC   C3B 9537  35.430  30.528   7.772
  434POPC   C4B 9538  35.380  30.343   7.332
  435POPC   NC3 9539  40.546  28.139   9.313
  435POPC   PO4 9540  41.040  28.618   9.615
  435POPC   GL1 9541  40.845  28.529   9.202
  435POPC   GL2 9542  40.542  28.566   8.937
  435POPC   C1A 9543  41.012  28.479   8.788
  435POPC   D2A 9544  40.775  28.578   8.438
  435POPC   C3A 9545  40.836  28.258   8.173
  435POPC   C4A 9546  41.124  28.148   7.871
  435POPC   C1B 9547  40.318  28.257   8.695
  435POPC   C2B 9548  40.425  27.995   8.359
  435POPC   C3B 9549  40.373  28.133   7.955
  435POPC   C4B 9550  40.638  28.439   7.744
  436POPC   NC3 9551  12.375   2.348   9.482
  436POPC   PO4 9552  11.813   2.660   9.517
  436POPC   GL1 9553  11.954   2.646   9.105
  436POPC   GL2 9554  12.268   2.731   9.101
  436POPC   C1A 9555  12.038   2.698   8.660
  436POPC   D2A 9556  12.024   2.558   8.278
  436POPC   C3A 9557  11.840   2.823   8.027
  436POPC   C4A 9558  11.996   2.616   7.703
  436POPC   C1B 9559  12.438   2.995   8.769
  436POPC   C2B 9560  12.309   3.014   8.351
  436POPC   C3B 9561  12.358   2.889   7.951
  436POPC   C4B 9562  12.278   2.975   7.516
  437POPC   NC3 9563  36.299   7.645   9.421
  437POPC   PO4 9564  35.897   7.116   9.559
  437POPC   GL1 9565  35.984   7.354   9.147
  437POPC   GL2 9566  36.312   7.460   8.954
  437POPC   C1A 9567  35.859   7.543   8.717
  437POPC   D2A 9568  35.987   7.793   8.322
  437POPC   C3A 9569  36.176   7.514   7.998
  437POPC   C4A 9570  36.134   7.304   7.599
  437POPC   C1B 9571  36.324   7.406   8.499
  437POPC   C2B 9572  36.523   7.144   8.176
  437POPC   C3B 9573  36.625   7.268   7.799
  437POPC   C4B 9574  36.511   7.636   7.525
  438POPC   NC3 9575  21.245  24.388   9.548
  438POPC   PO4 9576  21.405  24.953   9.525
  438POPC   GL1 9577  21.497  24.610   9.155
  438POPC   GL2 9578  21.451  24.210   9.126
  438POPC   C1A 9579  21.563  24.764   8.720
  438POPC   D2A 9580  21.660  24.654   8.314
  438POPC   C3A 9581  21.464  24.851   7.971
  438POPC   C4A 9582  21.106  24.720   7.773
  438POPC   C1B 9583  21.287  24.327   8.744
  438POPC   C2B 9584  21.414  24.222   8.354
  438POPC   C3B 9585  21.461  24.332   7.937
  438POPC   C4B 9586  21.212  24.110   7.707
  439POPC   NC3 9587  39.776  19.288   9.450
  439POPC   PO4 9588  40.422  19.119   9.380
  439POPC   GL1 9589  40.086  19.016   9.107
  439POPC   GL2 9590  39.817  18.820   9.262
  439POPC   C1A 9591  40.028  19.088   8.677
  439POPC   D2A 9592  39.912  19.315   8.330
  439POPC   C3A 9593  40.221  19.278   8.066
  439POPC   C4A 9594  40.141  19.091   7.679
  439POPC   C1B 9595  39.722  18.732   8.852
  439POPC   C2B 9596  39.866  18.665   8.446
  439POPC   C3B 9597  39.908  18.839   8.071
  439POPC   C4B 9598  39.891  18.655   7.672
  440POPC   NC3 9599   7.522  22.306   9.520
  440POPC   PO4 9600   7.514  21.615   9.521
  440POPC   GL1 9601   7.363  21.899   9.230
  440POPC   GL2 9602   7.679  22.008   9.107
  440POPC   C1A 9603   7.226  22.082   8.850
  440POPC   D2A 9604   7.138  22.341   8.475
  440POPC   C3A 9605   7.317  22.254   8.086
  440POPC   C4A 9606   7.211  22.064   7.677
  440POPC   C1B 9607   7.811  22.025   8.683
  440POPC   C2B 9608   7.783  22.179   8.265
  440POPC   C3B 9609   7.740  22.126   7.802
  440POPC   C4B 9610   7.816  22.301   7.403
  441POPC   NC3 9611  13.544  11.178   9.788
  441POPC   PO4 9612  13.662  11.734   9.580
  441POPC   GL1 9613  13.626  11.424   9.236
  441POPC   GL2 9614  13.541  11.084   9.233
  441POPC   C1A 9615  13.667  11.480   8.794
  441POPC   D2A 9616  13.617  11.709   8.414
  441POPC   C3A 9617  13.723  11.445   8.090
  441POPC   C4A 9618  13.357  11.390   7.908
  441POPC   C1B 9619  13.430  11.019   8.822
  441POPC   C2B 9620  13.384  11.160   8.404
  441POPC   C3B 9621  13.486  10.948   8.052
  441POPC   C4B 9622  13.655  11.111   7.629
  442POPC   NC3 9623   4.507   4.030   9.486
  442POPC   PO4 9624   4.373   4.673   9.411
  442POPC   GL1 9625   4.479   4.637   9.031
  442POPC   GL2 9626   4.426   4.292   9.042
  442POPC   C1A 9627   4.426   4.655   8.601
  442POPC   D2A 9628   4.280   4.332   8.338
  442POPC   C3A 9629   4.390   4.384   7.910
  442POPC   C4A 9630   4.184   4.383   7.463
  442POPC   C1B 9631   4.616   4.018   8.758
  442POPC   C2B 9632   4.541   3.868   8.346
  442POPC   C3B 9633   4.592   3.797   7.924
  442POPC   C4B 9634   4.578   4.085   7.566
  443POPC   NC3 9635  24.308  10.813   9.580
  443POPC   PO4 9636  24.713  10.326   9.709
  443POPC   GL1 9637  24.732  10.426   9.214
  443POPC   GL2 9638  24.702  10.767   9.206
  443POPC   C1A 9639  24.474  10.557   8.798
  443POPC   D2A 9640  24.416  10.651   8.376
  443POPC   C3A 9641  24.517  10.285   8.103
  443POPC   C4A 9642  24.423  10.277   7.666
  443POPC   C1B 9643  24.761  10.984   8.759
  443POPC   C2B 9644  24.802  10.995   8.309
  443POPC   C3B 9645  24.680  10.748   7.937
  443POPC   C4B 9646  24.467  10.787   7.566
  444POPC   NC3 9647  27.752  19.630   9.383
  444POPC   PO4 9648  27.298  20.092   9.607
  444POPC   GL1 9649  27.432  19.972   9.161
  444POPC   GL2 9650  27.743  19.887   8.953
  444POPC   C1A 9651  27.316  19.979   8.723
  444POPC   D2A 9652  27.555  19.806   8.392
  444POPC   C3A 9653  27.420  19.871   7.972
  444POPC   C4A 9654  27.560  20.094   7.611
  444POPC   C1B 9655  28.008  19.585   8.763
  444POPC   C2B 9656  27.996  19.480   8.354
  444POPC   C3B 9657  27.677  19.401   8.075
  444POPC   C4B 9658  27.753  19.583   7.696
  445POPC   NC3 9659  16.294  22.235   9.370
  445POPC   PO4 9660  16.885  22.396   9.460
  445POPC   GL1 9661  16.700  22.123   9.072
  445POPC   GL2 9662  16.375  21.852   9.062
  445POPC   C1A 9663  16.517  22.244   8.676
  445POPC   D2A 9664  16.465  22.311   8.226
  445POPC   C3A 9665  16.826  22.225   7.939
  445POPC   C4A 9666  16.743  22.404   7.554
  445POPC   C1B 9667  16.593  21.719   8.725
  445POPC   C2B 9668  16.748  21.882   8.367
  445POPC   C3B 9669  16.547  21.820   8.007
  445POPC   C4B 9670  16.635  21.814   7.611
  446POPC   NC3 9671  40.751  25.348   9.481
  446POPC   PO4 9672  40.796  24.716   9.349
  446POPC   GL1 9673  40.623  25.023   9.098
  446POPC   GL2 9674  40.909  25.220   8.978
  446POPC   C1A 9675  40.477  25.122   8.690
  446POPC   D2A 9676  40.826  25.073   8.423
  446POPC   C3A 9677  40.871  25.282   8.049
  446POPC   C4A 9678  40.747  25.135   7.672
  446POPC   C1B 9679  40.779  25.545   8.663
  446POPC   C2B 9680  40.745  25.753   8.248
  446POPC   C3B 9681  40.723  25.701   7.785
  446POPC   C4B 9682  40.711  25.532   7.360
  447POPC   NC3 9683  23.111  22.702   9.682
  447POPC   PO4 9684  22.521  22.529   9.370
  447POPC   GL1 9685  22.757  22.737   9.037
  447POPC   GL2 9686  22.951  22.999   9.096
  447POPC   C1A 9687  23.092  22.734   8.693
  447POPC   D2A 9688  23.117  22.477   8.333
  447POPC   C3A 9689  22.907  22.627   7.974
  447POPC   C4A 9690  23.128  22.932   7.791
  447POPC   C1B 9691  22.861  23.186   8.703
  447POPC   C2B 9692  22.939  23.069   8.296
  447POPC   C3B 9693  22.744  23.186   7.965
  447POPC   C4B 9694  22.571  23.014   7.670
  448POPC   NC3 9695  35.703  21.909   9.976
  448POPC   PO4 9696  35.315  22.104   9.499
  448POPC   GL1 9697  35.275  22.198   9.092
  448POPC   GL2 9698  35.492  21.940   9.043
  448POPC   C1A 9699  35.206  22.090   8.635
  448POPC   D2A 9700  35.327  21.889   8.233
  448POPC   C3A 9701  35.193  22.117   7.848
  448POPC   C4A 9702  34.956  22.242   7.486
  448POPC   C1B 9703  35.712  22.128   8.737
  448POPC   C2B 9704  35.807  22.003   8.364
  448POPC   C3B 9705  35.696  22.143   7.960
  448POPC   C4B 9706  35.741  21.987   7.596
  449POPC   NC3 9707  24.357  33.378   9.543
  449POPC   PO4 9708  24.559  33.996   9.636
  449POPC   GL1 9709  24.519  33.842   9.230
  449POPC   GL2 9710  24.729  34.133   9.131
  449POPC   C1A 9711  24.570  33.694   8.776
  449POPC   D2A 9712  24.472  33.447   8.375
  449POPC   C3A 9713  24.522  33.628   7.937
  449POPC   C4A 9714  24.423  33.949   7.548
  449POPC   C1B 9715  24.905  34.083   8.728
  449POPC   C2B 9716  24.793  33.887   8.329
  449POPC   C3B 9717  24.690  34.112   7.951
  449POPC   C4B 9718  24.876  34.235   7.571
  450POPC   NC3 9719  13.233  21.526   9.214
  450POPC   PO4 9720  12.961  22.112   9.546
  450POPC   GL1 9721  12.908  22.130   9.107
  450POPC   GL2 9722  13.268  22.067   9.139
  450POPC   C1A 9723  12.730  22.238   8.703
  450POPC   D2A 9724  12.617  22.052   8.293
  450POPC   C3A 9725  12.859  22.277   7.974
  450POPC   C4A 9726  12.762  22.529   7.623
  450POPC   C1B 9727  13.272  22.335   8.784
  450POPC   C2B 9728  13.177  22.200   8.396
  450POPC   C3B 9729  13.336  22.443   8.073
  450POPC   C4B 9730  13.277  22.478   7.648
  451POPC   NC3 9731  19.540   6.983   9.535
  451POPC   PO4 9732  20.033   6.522   9.450
  451POPC   GL1 9733  19.896   6.823   9.174
  451POPC   GL2 9734  19.588   6.734   9.106
  451POPC   C1A 9735  20.024   6.878   8.785
  451POPC   D2A 9736  20.051   6.623   8.431
  451POPC   C3A 9737  19.931   6.766   8.036
  451POPC   C4A 9738  20.096   6.551   7.690
  451POPC   C1B 9739  19.394   6.597   8.762
  451POPC   C2B 9740  19.551   6.544   8.343
  451POPC   C3B 9741  19.544   6.439   7.906
  451POPC   C4B 9742  19.523   6.349   7.453
  452POPC   NC3 9743  41.907  10.934   9.530
  452POPC   PO4 9744  42.327  10.310   9.468
  452POPC   GL1 9745  42.140  10.623   9.190
  452POPC   GL2 9746  42.416  10.754   9.067
  452POPC   C1A 9747  42.004  10.665   8.767
  452POPC   D2A 9748  42.207  10.514   8.374
  452POPC   C3A 9749  41.956  10.399   8.028
  452POPC   C4A 9750  41.787  10.645   7.732
  452POPC   C1B 9751  42.398  10.347   8.820
  452POPC   C2B 9752  42.644  10.243   8.438
  452POPC   C3B 9753  42.613  10.443   8.038
  452POPC   C4B 9754  42.276  10.770   7.900
  453POPC   NC3 9755  37.456  39.696   9.413
  453POPC   PO4 9756  37.481  40.416   9.408
  453POPC   GL1 9757  37.738  40.105   9.178
  453POPC   GL2 9758  37.580  39.848   8.935
  453POPC   C1A 9759  37.984  40.144   8.805
  453POPC   D2A 9760  37.856  40.280   8.405
  453POPC   C3A 9761  37.902  40.003   8.084
  453POPC   C4A 9762  37.658  39.808   7.791
  453POPC   C1B 9763  37.458  40.252   8.753
  453POPC   C2B 9764  37.424  40.548   8.433
  453POPC   C3B 9765  37.414  40.435   8.012
  453POPC   C4B 9766  37.729  40.357   7.775
  454POPC   NC3 9767  32.190  30.866   9.467
  454POPC   PO4 9768  32.459  30.284   9.352
  454POPC   GL1 9769  32.187  30.472   9.041
  454POPC   GL2 9770  31.859  30.544   9.178
  454POPC   C1A 9771  32.294  30.593   8.606
  454POPC   D2A 9772  32.304  30.955   8.318
  454POPC   C3A 9773  32.443  30.953   7.866
  454POPC   C4A 9774  32.748  31.012   7.502
  454POPC   C1B 9775  31.859  30.816   8.805
  454POPC   C2B 9776  31.860  30.701   8.356
  454POPC   C3B 9777  32.016  30.659   7.933
  454POPC   C4B 9778  31.921  30.573   7.494
  455POPC   NC3 9779  13.917   6.989   9.690
  455POPC   PO4 9780  13.708   6.371   9.547
  455POPC   GL1 9781  13.635   6.689   9.204
  455POPC   GL2 9782  13.255   6.701   9.165
  455POPC   C1A 9783  13.835   6.821   8.778
  455POPC   D2A 9784  13.633   6.821   8.340
  455POPC   C3A 9785  13.764   6.589   7.939
  455POPC   C4A 9786  13.911   6.849   7.518
  455POPC   C1B 9787  13.349   6.561   8.747
  455POPC   C2B 9788  13.169   6.645   8.346
  455POPC   C3B 9789  13.297   6.755   7.928
  455POPC   C4B 9790  13.432   6.440   7.577
  456POPC   NC3 9791  14.257  41.436  10.291
  456POPC   PO4 9792  14.179  41.284   9.634
  456POPC   GL1 9793  14.353  41.399   9.205
  456POPC   GL2 9794  14.075  41.483   8.986
  456POPC   C1A 9795  14.536  41.476   8.758
  456POPC   D2A 9796  14.395  41.611   8.322
  456POPC   C3A 9797  14.551  41.542   7.914
  456POPC   C4A 9798  14.552  41.311   7.522
  456POPC   C1B 9799  14.114  41.218   8.614
  456POPC   C2B 9800  14.126  41.181   8.165
  456POPC   C3B 9801  14.043  41.532   7.884
  456POPC   C4B 9802  14.249  41.906   7.671
  457POPC   NC3 9803   7.592  12.494   9.498
  457POPC   PO4 9804   7.607  13.192   9.452
  457POPC   GL1 9805   7.400  12.987   9.113
  457POPC   GL2 9806   7.139  12.725   9.147
  457POPC   C1A 9807   7.352  12.983   8.649
  457POPC   D2A 9808   7.614  12.972   8.290
  457POPC   C3A 9809   7.375  13.007   7.892
  457POPC   C4A 9810   7.473  13.174   7.466
  457POPC   C1B 9811   7.450  12.549   8.864
  457POPC   C2B 9812   7.490  12.486   8.434
  457POPC   C3B 9813   7.567  12.559   7.995
  457POPC   C4B 9814   7.511  12.654   7.527
  458POPC   NC3 9815  14.235  17.544   9.450
  458POPC   PO4 9816  14.896  17.579   9.345
  458POPC   GL1 9817  14.567  17.649   9.065
  458POPC   GL2 9818  14.401  17.329   9.018
  458POPC   C1A 9819  14.434  17.653   8.637
  458POPC   D2A 9820  14.180  17.744   8.304
  458POPC   C3A 9821  14.418  17.602   8.000
  458POPC   C4A 9822  14.645  17.717   7.678
  458POPC   C1B 9823  14.342  17.063   8.657
  458POPC   C2B 9824  14.491  17.117   8.193
  458POPC   C3B 9825  14.466  17.173   7.720
  458POPC   C4B 9826  14.531  17.349   7.312
  459POPC   NC3 9827  41.246  24.657   9.427
  459POPC   PO4 9828  41.896  24.350   9.469
  459POPC   GL1 9829  41.702  24.600   9.143
  459POPC   GL2 9830  41.462  24.350   9.081
  459POPC   C1A 9831  41.572  24.780   8.733
  459POPC   D2A 9832  41.314  24.901   8.389
  459POPC   C3A 9833  41.534  24.765   8.055
  459POPC   C4A 9834  41.585  24.537   7.720
  459POPC   C1B 9835  41.233  24.206   8.711
  459POPC   C2B 9836  41.019  24.405   8.367
  459POPC   C3B 9837  41.175  24.329   7.945
  459POPC   C4B 9838  41.316  24.128   7.574
  460POPC   NC3 9839  21.872   1.593   9.464
  460POPC   PO4 9840  22.322   1.173   9.638
  460POPC   GL1 9841  22.118   1.195   9.224
  460POPC   GL2 9842  22.332   1.449   9.168
  460POPC   C1A 9843  21.950   1.447   8.830
  460POPC   D2A 9844  21.967   1.440   8.378
  460POPC   C3A 9845  22.062   1.023   8.224
  460POPC   C4A 9846  21.963   0.848   7.813
  460POPC   C1B 9847  22.421   1.196   8.785
  460POPC   C2B 9848  22.490   1.335   8.344
  460POPC   C3B 9849  22.279   1.384   7.946
  460POPC   C4B 9850  22.364   1.530   7.553
  461POPC   NC3 9851   6.501  37.972   9.553
  461POPC   PO4 9852   6.299  37.365   9.514
  461POPC   GL1 9853   6.498  37.403   9.103
  461POPC   GL2 9854   6.607  37.725   9.117
  461POPC   C1A 9855   6.863  37.386   8.802
  461POPC   D2A 9856   6.962  37.598   8.401
  461POPC   C3A 9857   6.684  37.466   8.088
  461POPC   C4A 9858   6.401  37.531   7.749
  461POPC   C1B 9859   6.714  37.909   8.731
  461POPC   C2B 9860   6.737  38.091   8.314
  461POPC   C3B 9861   6.648  37.977   7.881
  461POPC   C4B 9862   6.525  37.932   7.435
  462POPC   NC3 9863  42.884  15.608   9.540
  462POPC   PO4 9864  42.428  15.150   9.604
  462POPC   GL1 9865  42.422  15.261   9.144
  462POPC   GL2 9866  42.081  15.361   8.987
  462POPC   C1A 9867  42.512  15.550   8.806
  462POPC   D2A 9868  42.162  15.520   8.519
  462POPC   C3A 9869  42.149  15.593   8.072
  462POPC   C4A 9870  42.317  15.323   7.738
  462POPC   C1B 9871  42.228  15.029   8.654
  462POPC   C2B 9872  42.324  14.835   8.245
  462POPC   C3B 9873  42.172  14.830   7.803
  462POPC   C4B 9874  42.110  15.008   7.362
  463POPC   NC3 9875  24.169   8.772   9.548
  463POPC   PO4 9876  23.604   9.078   9.588
  463POPC   GL1 9877  23.766   8.887   9.221
  463POPC   GL2 9878  24.061   9.089   9.169
  463POPC   C1A 9879  23.605   8.882   8.806
  463POPC   D2A 9880  23.627   9.097   8.419
  463POPC   C3A 9881  23.588   8.855   8.082
  463POPC   C4A 9882  23.684   8.947   7.706
  463POPC   C1B 9883  24.139   8.838   8.809
  463POPC   C2B 9884  24.357   8.862   8.405
  463POPC   C3B 9885  24.119   8.926   8.043
  463POPC   C4B 9886  24.178   9.066   7.655
  464POPC   NC3 9887  32.000  33.954   9.443
  464POPC   PO4 9888  32.578  33.512   9.461
  464POPC   GL1 9889  32.288  33.648   9.152
  464POPC   GL2 9890  32.462  33.926   9.107
  464POPC   C1A 9891  32.071  33.530   8.760
  464POPC   D2A 9892  32.272  33.567   8.358
  464POPC   C3A 9893  32.127  33.633   7.922
  464POPC   C4A 9894  32.389  33.786   7.557
  464POPC   C1B 9895  32.280  34.021   8.738
  464POPC   C2B 9896  32.538  34.003   8.389
  464POPC   C3B 9897  32.424  34.067   7.990
  464POPC   C4B 9898  32.000  34.138   7.887
  465POPC   NC3 9899  23.953  42.090   9.353
  465POPC   PO4 9900  24.522  42.347   9.510
  465POPC   GL1 9901  24.383  42.372   9.106
  465POPC   GL2 9902  24.647  42.117   9.063
  465POPC   C1A 9903  24.350  42.521   8.663
  465POPC   D2A 9904  24.468  42.373   8.215
  465POPC   C3A 9905  24.256  42.296   7.796
  465POPC   C4A 9906  24.188  42.508   7.379
  465POPC   C1B 9907  24.979  41.985   8.829
  465POPC   C2B 9908  24.672  41.995   8.501
  465POPC   C3B 9909  24.641  41.891   8.107
  465POPC   C4B 9910  24.735  42.093   7.748
  466POPC   NC3 9911  18.070  23.356   9.412
  466POPC   PO4 9912  17.913  24.040   9.386
  466POPC   GL1 9913  18.087  23.777   9.048
  466POPC   GL2 9914  18.454  23.828   8.998
  466POPC   C1A 9915  18.179  23.779   8.576
  466POPC   D2A 9916  18.276  24.043   8.210
  466POPC   C3A 9917  18.120  23.834   7.851
  466POPC   C4A 9918  18.234  23.733   7.401
  466POPC   C1B 9919  18.430  23.408   8.831
  466POPC   C2B 9920  18.566  23.297   8.422
  466POPC   C3B 9921  18.522  23.542   8.059
  466POPC   C4B 9922  18.638  23.784   7.701
  467POPC   NC3 9923  40.823  34.924   9.433
  467POPC   PO4 9924  40.814  34.225   9.520
  467POPC   GL1 9925  41.027  34.472   9.198
  467POPC   GL2 9926  40.723  34.597   8.987
  467POPC   C1A 9927  41.180  34.579   8.785
  467POPC   D2A 9928  40.930  34.449   8.460
  467POPC   C3A 9929  41.130  34.490   8.110
  467POPC   C4A 9930  41.205  34.391   7.732
  467POPC   C1B 9931  40.408  34.446   8.655
  467POPC   C2B 9932  40.464  34.475   8.192
  467POPC   C3B 9933  40.713  34.636   7.845
  467POPC   C4B 9934  40.783  34.815   7.421
  468POPC   NC3 9935  42.125   8.472   9.374
  468POPC   PO4 9936  42.686   8.081   9.321
  468POPC   GL1 9937  42.341   8.088   9.080
  468POPC   GL2 9938  42.437   8.453   8.976
  468POPC   C1A 9939  42.382   7.977   8.663
  468POPC   D2A 9940  42.535   8.183   8.312
  468POPC   C3A 9941  42.367   8.005   7.928
  468POPC   C4A 9942  42.232   7.869   7.520
  468POPC   C1B 9943  42.090   8.365   8.704
  468POPC   C2B 9944  42.086   8.429   8.280
  468POPC   C3B 9945  42.355   8.517   7.925
  468POPC   C4B 9946  42.463   8.328   7.541
  469POPC   NC3 9947  34.533  34.025   9.476
  469POPC   PO4 9948  34.370  33.350   9.494
  469POPC   GL1 9949  34.631  33.623   9.156
  469POPC   GL2 9950  34.802  33.976   9.055
  469POPC   C1A 9951  34.821  33.546   8.757
  469POPC   D2A 9952  34.635  33.627   8.364
  469POPC   C3A 9953  34.828  33.842   8.035
  469POPC   C4A 9954  34.833  33.470   7.809
  469POPC   C1B 9955  34.442  33.902   8.768
  469POPC   C2B 9956  34.244  33.945   8.344
  469POPC   C3B 9957  34.345  33.796   7.909
  469POPC   C4B 9958  34.642  33.986   7.562
  470POPC   NC3 9959   3.755  30.032   9.422
  470POPC   PO4 9960   3.749  29.377   9.646
  470POPC   GL1 9961   3.589  29.588   9.194
  470POPC   GL2 9962   3.396  29.893   9.079
  470POPC   C1A 9963   3.630  29.667   8.710
  470POPC   D2A 9964   3.617  29.556   8.274
  470POPC   C3A 9965   3.383  29.801   7.924
  470POPC   C4A 9966   3.384  30.188   7.699
  470POPC   C1B 9967   3.327  30.118   8.707
  470POPC   C2B 9968   3.470  30.044   8.348
  470POPC   C3B 9969   3.786  30.062   8.078
  470POPC   C4B 9970   3.863  30.362   7.768
  471POPC   NC3 9971   5.021  23.038   9.491
  471POPC   PO4 9972   4.490  22.872   9.842
  471POPC   GL1 9973   4.680  22.683   9.314
  471POPC   GL2 9974   4.880  22.984   9.016
  471POPC   C1A 9975   4.768  22.528   8.864
  471POPC   D2A 9976   4.803  22.542   8.380
  471POPC   C3A 9977   5.020  22.829   8.100
  471POPC   C4A 9978   5.211  22.729   7.724
  471POPC   C1B 9979   5.225  23.155   8.698
  471POPC   C2B 9980   5.424  23.116   8.277
  471POPC   C3B 9981   5.351  23.202   7.844
  471POPC   C4B 9982   5.270  23.213   7.336
  472POPC   NC3 9983  44.908   0.701   9.561
  472POPC   PO4 9984  44.776   1.318   9.507
  472POPC   GL1 9985  44.818   1.208   9.117
  472POPC   GL2 9986  44.447   1.243   9.111
  472POPC   C1A 9987   0.041   1.313   8.723
  472POPC   D2A 9988  44.939   1.094   8.323
  472POPC   C3A 9989  44.960   1.291   7.932
  472POPC   C4A 9990  44.771   1.311   7.541
  472POPC   C1B 9991  44.564   1.142   8.694
  472POPC   C2B 9992  44.388   1.075   8.355
  472POPC   C3B 9993  44.539   0.998   7.984
  472POPC   C4B 9994  44.318   1.107   7.665
  473POPC   NC3 9995  28.504  31.401   9.481
  473POPC   PO4 9996  27.976  31.883   9.644
  473POPC   GL1 9997  28.083  31.587   9.261
  473POPC   GL2 9998  28.035  31.204   9.287
  473POPC   C1A 9999  28.215  31.693   8.804
  473POPC   D2A10000  28.176  31.736   8.325
  473POPC   C3A10001  28.428  31.610   7.954
  473POPC   C4A10002  28.726  31.620   7.590
  473POPC   C1B10003  28.232  31.194   8.890
  473POPC   C2B10004  28.253  31.207   8.449
  473POPC   C3B10005  28.316  31.083   8.034
  473POPC   C4B10006  28.101  31.219   7.707
  474POPC   NC310007  15.828  16.575   9.510
  474POPC   PO410008  15.308  16.390   9.349
  474POPC   GL110009  15.605  16.771   9.101
  474POPC   GL210010  15.958  16.972   9.175
  474POPC   C1A10011  15.721  17.003   8.725
  474POPC   D2A10012  15.887  17.006   8.314
  474POPC   C3A10013  15.761  16.740   7.969
  474POPC   C4A10014  15.851  16.686   7.505
  474POPC   C1B10015  16.237  17.050   8.763
  474POPC   C2B10016  16.413  16.939   8.334
  474POPC   C3B10017  16.266  16.955   7.902
  474POPC   C4B10018  16.267  17.027   7.466
  475POPC   NC310019  29.938   9.158   9.495
  475POPC   PO410020  29.565   8.559   9.307
  475POPC   GL110021  29.775   8.708   8.982
  475POPC   GL210022  30.014   8.938   9.064
  475POPC   C1A10023  29.723   8.962   8.642
  475POPC   D2A10024  29.615   9.260   8.368
  475POPC   C3A10025  29.565   9.033   8.013
  475POPC   C4A10026  29.324   8.916   7.734
  475POPC   C1B10027  30.285   8.873   8.767
  475POPC   C2B10028  30.261   9.110   8.416
  475POPC   C3B10029  30.052   9.093   8.073
  475POPC   C4B10030  29.954   8.858   7.701
  476POPC   NC310031  43.510  10.758   9.397
  476POPC   PO410032  43.968  10.319   9.257
  476POPC   GL110033  43.654  10.452   8.967
  476POPC   GL210034  43.620  10.147   8.842
  476POPC   C1A10035  43.657  10.550   8.500
  476POPC   D2A10036  44.024  10.732   8.265
  476POPC   C3A10037  43.983  10.730   7.832
  476POPC   C4A10038  44.085  10.779   7.429
  476POPC   C1B10039  44.012  10.183   8.627
  476POPC   C2B10040  43.985  10.217   8.213
  476POPC   C3B10041  43.673  10.333   7.928
  476POPC   C4B10042  43.844  10.308   7.528
  477POPC   NC310043   1.065  43.496   9.461
  477POPC   PO410044   1.479  44.024   9.451
  477POPC   GL110045   1.158  43.906   9.153
  477POPC   GL210046   1.383  43.636   9.082
  477POPC   C1A10047   0.968  43.974   8.740
  477POPC   D2A10048   0.954  44.196   8.341
  477POPC   C3A10049   1.085  43.894   8.042
  477POPC   C4A10050   0.979  43.717   7.649
  477POPC   C1B10051   1.518  43.959   8.789
  477POPC   C2B10052   1.455  44.076   8.394
  477POPC   C3B10053   1.596  44.212   8.021
  477POPC   C4B10054   1.471  43.960   7.719
  478POPC   NC310055  18.378  24.166   9.369
  478POPC   PO410056  19.006  24.405   9.459
  478POPC   GL110057  19.094  24.346   9.055
  478POPC   GL210058  19.117  23.984   8.989
  478POPC   C1A10059  19.301  24.613   8.773
  478POPC   D2A10060  19.468  24.596   8.379
  478POPC   C3A10061  19.203  24.443   8.048
  478POPC   C4A10062  19.211  24.600   7.595
  478POPC   C1B10063  19.046  24.209   8.566
  478POPC   C2B10064  18.674  24.376   8.339
  478POPC   C3B10065  18.707  24.242   7.935
  478POPC   C4B10066  19.076  24.121   7.681
  479POPC   NC310067   4.102  22.677   9.667
  479POPC   PO410068   4.570  23.151   9.396
  479POPC   GL110069   4.361  23.030   9.067
  479POPC   GL210070   4.157  22.773   9.155
  479POPC   C1A10071   4.423  23.191   8.658
  479POPC   D2A10072   4.550  22.995   8.289
  479POPC   C3A10073   4.343  23.084   7.907
  479POPC   C4A10074   4.366  22.916   7.451
  479POPC   C1B10075   4.286  22.645   8.716
  479POPC   C2B10076   4.161  22.660   8.283
  479POPC   C3B10077   4.204  22.605   7.842
  479POPC   C4B10078   3.886  22.590   7.551
  480POPC   NC310079  22.479  38.358   9.716
  480POPC   PO410080  21.955  37.956   9.732
  480POPC   GL110081  22.100  38.379   9.360
  480POPC   GL210082  22.469  38.496   9.248
  480POPC   C1A10083  22.168  38.747   8.950
  480POPC   D2A10084  22.120  38.923   8.507
  480POPC   C3A10085  22.318  38.797   8.149
  480POPC   C4A10086  22.172  38.588   7.785
  480POPC   C1B10087  22.270  38.259   8.895
  480POPC   C2B10088  22.247  38.379   8.460
  480POPC   C3B10089  22.153  38.139   8.090
  480POPC   C4B10090  22.291  38.120   7.659
  481POPC   NC310091  14.632  27.342   9.548
  481POPC   PO410092  14.127  27.808   9.467
  481POPC   GL110093  14.217  27.591   9.084
  481POPC   GL210094  14.380  27.316   9.112
  481POPC   C1A10095  14.212  27.607   8.644
  481POPC   D2A10096  14.552  27.597   8.384
  481POPC   C3A10097  14.625  27.707   7.982
  481POPC   C4A10098  14.679  27.612   7.602
  481POPC   C1B10099  14.163  27.108   8.767
  481POPC   C2B10100  13.962  27.245   8.379
  481POPC   C3B10101  14.060  27.613   8.138
  481POPC   C4B10102  14.173  27.609   7.730
  482POPC   NC310103  38.927  20.625   9.342
  482POPC   PO410104  38.287  20.477   9.472
  482POPC   GL110105  38.264  20.411   9.029
  482POPC   GL210106  38.506  20.668   9.026
  482POPC   C1A10107  38.501  20.349   8.610
  482POPC   D2A10108  38.860  20.487   8.315
  482POPC   C3A10109  38.677  20.607   7.911
  482POPC   C4A10110  38.737  20.536   7.453
  482POPC   C1B10111  38.230  20.791   8.689
  482POPC   C2B10112  38.232  20.802   8.270
  482POPC   C3B10113  38.267  20.892   7.866
  482POPC   C4B10114  38.266  20.718   7.465
  483POPC   NC310115  18.454   0.227   9.599
  483POPC   PO410116  17.909   0.634   9.526
  483POPC   GL110117  18.265   0.589   9.235
  483POPC   GL210118  18.281   0.233   9.107
  483POPC   C1A10119  18.437   0.627   8.811
  483POPC   D2A10120  18.306   0.325   8.479
  483POPC   C3A10121  18.190   0.486   8.069
  483POPC   C4A10122  18.154   0.431   7.625
  483POPC   C1B10123  18.593   0.046   8.819
  483POPC   C2B10124  18.715   0.034   8.345
  483POPC   C3B10125  18.578   0.193   7.907
  483POPC   C4B10126  18.493   0.098   7.450
  484POPC   NC310127  43.257  11.527   9.409
  484POPC   PO410128  43.120  10.843   9.172
  484POPC   GL110129  42.903  11.225   9.046
  484POPC   GL210130  43.102  11.523   8.929
  484POPC   C1A10131  42.817  11.251   8.596
  484POPC   D2A10132  43.084  11.128   8.244
  484POPC   C3A10133  42.960  11.416   7.945
  484POPC   C4A10134  42.763  11.500   7.556
  484POPC   C1B10135  43.239  11.564   8.500
  484POPC   C2B10136  43.461  11.515   8.098
  484POPC   C3B10137  43.349  11.610   7.683
  484POPC   C4B10138  43.459  11.460   7.267
  485POPC   NC310139   3.277  39.262   9.615
  485POPC   PO410140   3.747  38.924   9.317
  485POPC   GL110141   3.405  39.102   9.140
  485POPC   GL210142   3.634  39.263   8.917
  485POPC   C1A10143   3.163  39.050   8.785
  485POPC   D2A10144   3.210  38.896   8.369
  485POPC   C3A10145   3.300  39.144   7.997
  485POPC   C4A10146   3.370  38.994   7.593
  485POPC   C1B10147   3.698  38.919   8.613
  485POPC   C2B10148   3.743  38.948   8.161
  485POPC   C3B10149   3.808  39.152   7.785
  485POPC   C4B10150   3.803  39.607   7.670
  486POPC   NC310151  10.728  28.703   9.848
  486POPC   PO410152  10.209  28.494   9.511
  486POPC   GL110153  10.393  28.296   9.115
  486POPC   GL210154  10.128  28.061   9.031
  486POPC   C1A10155  10.609  28.409   8.716
  486POPC   D2A10156  10.584  28.705   8.367
  486POPC   C3A10157  10.776  28.570   7.967
  486POPC   C4A10158  10.618  28.419   7.579
  486POPC   C1B10159  10.192  28.145   8.590
  486POPC   C2B10160  10.448  28.239   8.228
  486POPC   C3B10161  10.309  28.123   7.836
  486POPC   C4B10162   9.923  28.043   7.682
  487POPC   NC310163  10.535  25.755   9.340
  487POPC   PO410164  10.235  26.348   9.634
  487POPC   GL110165  10.386  26.238   9.210
  487POPC   GL210166  10.481  26.537   9.100
  487POPC   C1A10167  10.660  26.169   8.810
  487POPC   D2A10168  10.730  26.002   8.396
  487POPC   C3A10169  10.707  26.095   7.941
  487POPC   C4A10170  10.814  26.027   7.453
  487POPC   C1B10171  10.214  26.407   8.748
  487POPC   C2B10172  10.159  26.173   8.399
  487POPC   C3B10173  10.245  26.325   8.030
  487POPC   C4B10174  10.363  26.230   7.607
  488POPC   NC310175  36.798  28.550   9.568
  488POPC   PO410176  37.441  28.700   9.588
  488POPC   GL110177  37.343  28.571   9.181
  488POPC   GL210178  37.217  28.234   9.146
  488POPC   C1A10179  37.407  28.583   8.720
  488POPC   D2A10180  37.087  28.438   8.405
  488POPC   C3A10181  37.122  28.323   7.957
  488POPC   C4A10182  36.904  28.578   7.634
  488POPC   C1B10183  36.880  28.246   8.824
  488POPC   C2B10184  36.694  28.086   8.384
  488POPC   C3B10185  36.584  28.206   7.899
  488POPC   C4B10186  36.562  28.246   7.417
  489POPC   NC310187  24.430  38.041   9.486
  489POPC   PO410188  24.289  37.414   9.299
  489POPC   GL110189  24.660  37.446   9.117
  489POPC   GL210190  24.643  37.798   9.100
  489POPC   C1A10191  24.688  37.437   8.681
  489POPC   D2A10192  24.546  37.273   8.275
  489POPC   C3A10193  24.386  37.567   7.951
  489POPC   C4A10194  24.214  37.550   7.557
  489POPC   C1B10195  24.537  37.959   8.736
  489POPC   C2B10196  24.439  37.821   8.384
  489POPC   C3B10197  24.121  37.970   8.107
  489POPC   C4B10198  24.221  38.068   7.718
  490POPC   NC310199  17.154  32.211   9.642
  490POPC   PO410200  17.820  32.471   9.528
  490POPC   GL110201  17.645  32.113   9.207
  490POPC   GL210202  17.269  32.075   9.173
  490POPC   C1A10203  17.546  32.078   8.731
  490POPC   D2A10204  17.509  32.396   8.376
  490POPC   C3A10205  17.646  32.278   7.966
  490POPC   C4A10206  17.514  31.924   7.758
  490POPC   C1B10207  17.200  32.398   8.870
  490POPC   C2B10208  17.058  32.199   8.483
  490POPC   C3B10209  17.129  32.122   8.047
  490POPC   C4B10210  17.248  32.425   7.723
  491POPC   NC310211  30.991  19.243   9.481
  491POPC   PO410212  31.725  19.061   9.665
  491POPC   GL110213  31.456  19.019   9.346
  491POPC   GL210214  31.476  19.327   9.226
  491POPC   C1A10215  31.329  18.936   8.952
  491POPC   D2A10216  31.342  19.028   8.535
  491POPC   C3A10217  31.405  18.776   8.181
  491POPC   C4A10218  31.429  18.725   7.749
  491POPC   C1B10219  31.540  19.427   8.824
  491POPC   C2B10220  31.424  19.524   8.430
  491POPC   C3B10221  31.284  19.308   8.091
  491POPC   C4B10222  31.350  19.466   7.704
  492POPC   NC310223  19.478  41.265   9.472
  492POPC   PO410224  19.970  41.704   9.488
  492POPC   GL110225  19.953  41.493   9.093
  492POPC   GL210226  20.163  41.192   8.960
  492POPC   C1A10227  19.888  41.557   8.688
  492POPC   D2A10228  20.054  41.382   8.339
  492POPC   C3A10229  19.857  41.503   7.985
  492POPC   C4A10230  20.154  41.498   7.686
  492POPC   C1B10231  19.872  41.055   8.684
  492POPC   C2B10232  19.537  41.192   8.448
  492POPC   C3B10233  19.391  41.129   8.038
  492POPC   C4B10234  19.458  41.367   7.683
  493POPC   NC310235  24.768  14.874   9.706
  493POPC   PO410236  24.857  15.543   9.638
  493POPC   GL110237  24.475  15.397   9.318
  493POPC   GL210238  24.406  15.048   9.178
  493POPC   C1A10239  24.397  15.435   8.836
  493POPC   D2A10240  24.554  15.318   8.373
  493POPC   C3A10241  24.692  15.354   7.912
  493POPC   C4A10242  24.422  15.333   7.518
  493POPC   C1B10243  24.322  14.952   8.740
  493POPC   C2B10244  24.090  15.112   8.366
  493POPC   C3B10245  24.305  15.055   7.965
  493POPC   C4B10246  24.708  14.827   7.805
  494POPC   NC310247   6.174  32.221   9.523
  494POPC   PO410248   5.464  32.286   9.536
  494POPC   GL110249   5.659  32.413   9.168
  494POPC   GL210250   5.984  32.256   9.050
  494POPC   C1A10251   5.605  32.516   8.771
  494POPC   D2A10252   5.738  32.392   8.374
  494POPC   C3A10253   5.626  32.585   8.014
  494POPC   C4A10254   5.853  32.435   7.666
  494POPC   C1B10255   5.862  32.023   8.695
  494POPC   C2B10256   5.915  31.845   8.297
  494POPC   C3B10257   6.250  31.808   8.040
  494POPC   C4B10258   6.457  32.061   7.765
  495POPC   NC310259  40.566  39.003   9.467
  495POPC   PO410260  41.224  39.122   9.465
  495POPC   GL110261  40.895  39.142   9.103
  495POPC   GL210262  40.682  38.859   8.984
  495POPC   C1A10263  40.777  39.351   8.709
  495POPC   D2A10264  40.708  39.300   8.235
  495POPC   C3A10265  41.012  39.450   7.874
  495POPC   C4A10266  40.843  39.652   7.428
  495POPC   C1B10267  40.994  38.889   8.636
  495POPC   C2B10268  41.065  38.926   8.174
  495POPC   C3B10269  40.787  38.974   7.804
  495POPC   C4B10270  40.762  38.845   7.368
  496POPC   NC310271  11.019  37.479   9.555
  496POPC   PO410272  11.654  37.723   9.407
  496POPC   GL110273  11.405  37.515   9.158
  496POPC   GL210274  11.123  37.721   9.142
  496POPC   C1A10275  11.399  37.545   8.731
  496POPC   D2A10276  11.195  37.692   8.359
  496POPC   C3A10277  11.509  37.729   8.032
  496POPC   C4A10278  11.417  37.645   7.616
  496POPC   C1B10279  10.885  37.610   8.790
  496POPC   C2B10280  10.663  37.750   8.446
  496POPC   C3B10281  10.771  37.685   8.056
  496POPC   C4B10282  10.937  37.569   7.697
  497POPC   NC310283  21.222   2.946   9.508
  497POPC   PO410284  21.898   2.765   9.505
  497POPC   GL110285  21.565   2.767   9.202
  497POPC   GL210286  21.593   3.097   9.137
  497POPC   C1A10287  21.266   2.642   8.887
  497POPC   D2A10288  21.320   2.534   8.467
  497POPC   C3A10289  21.072   2.610   8.129
  497POPC   C4A10290  21.257   2.673   7.748
  497POPC   C1B10291  21.461   3.181   8.734
  497POPC   C2B10292  21.322   3.027   8.339
  497POPC   C3B10293  21.298   3.157   7.909
  497POPC   C4B10294  21.147   3.081   7.471
  498POPC   NC310295  38.060  25.616   9.364
  498POPC   PO410296  37.757  25.082   9.484
  498POPC   GL110297  37.565  24.997   9.093
  498POPC   GL210298  37.727  25.255   8.980
  498POPC   C1A10299  37.432  24.899   8.707
  498POPC   D2A10300  37.716  25.109   8.417
  498POPC   C3A10301  37.625  25.232   8.031
  498POPC   C4A10302  37.570  25.489   7.712
  498POPC   C1B10303  38.065  25.321   8.710
  498POPC   C2B10304  38.125  25.412   8.276
  498POPC   C3B10305  37.997  25.725   7.964
  498POPC   C4B10306  37.994  25.712   7.513
  499POPC   NC310307   1.236   4.705   9.831
  499POPC   PO410308   1.030   4.253   9.369
  499POPC   GL110309   1.253   4.459   9.085
  499POPC   GL210310   1.592   4.355   9.178
  499POPC   C1A10311   1.043   4.424   8.706
  499POPC   D2A10312   1.028   4.032   8.481
  499POPC   C3A10313   0.979   4.227   8.102
  499POPC   C4A10314   1.136   4.584   7.953
  499POPC   C1B10315   1.559   4.256   8.741
  499POPC   C2B10316   1.445   4.453   8.364
  499POPC   C3B10317   1.585   4.343   7.969
  499POPC   C4B10318   1.474   4.215   7.586
  500POPC   NC310319   7.102   1.366   9.548
  500POPC   PO410320   7.727   1.080   9.625
  500POPC   GL110321   7.609   0.968   9.198
  500POPC   GL210322   7.282   1.144   9.119
  500POPC   C1A10323   7.706   1.057   8.767
  500POPC   D2A10324   7.653   1.271   8.371
  500POPC   C3A10325   7.459   1.089   8.012
  500POPC   C4A10326   7.672   1.108   7.649
  500POPC   C1B10327   7.373   1.472   8.820
  500POPC   C2B10328   7.246   1.578   8.410
  500POPC   C3B10329   7.372   1.577   8.003
  500POPC   C4B10330   7.243   1.354   7.581
  501POPC   NC310331  21.007  21.701   9.553
  501POPC   PO410332  21.514  21.280   9.276
  501POPC   GL110333  21.346  21.601   9.000
  501POPC   GL210334  20.978  21.598   9.059
  501POPC   C1A10335  21.437  21.574   8.551
  501POPC   D2A10336  21.288  21.169   8.379
  501POPC   C3A10337  21.441  21.078   7.984
  501POPC   C4A10338  21.675  21.443   7.844
  501POPC   C1B10339  20.951  21.493   8.630
  501POPC   C2B10340  20.974  21.544   8.179
  501POPC   C3B10341  21.183  21.521   7.780
  501POPC   C4B10342  21.040  21.544   7.335
  502POPC   NC310343  19.538  17.190   9.427
  502POPC   PO410344  19.071  17.758   9.369
  502POPC   GL110345  19.143  17.529   8.998
  502POPC   GL210346  19.409  17.766   8.950
  502POPC   C1A10347  18.973  17.587   8.542
  502POPC   D2A10348  19.174  17.792   8.149
  502POPC   C3A10349  18.882  17.922   7.851
  502POPC   C4A10350  18.685  17.575   7.809
  502POPC   C1B10351  19.472  17.550   8.562
  502POPC   C2B10352  19.283  17.298   8.218
  502POPC   C3B10353  19.184  17.298   7.762
  502POPC   C4B10354  19.428  17.331   7.379
  503POPC   NC310355  44.585   8.647   9.340
  503POPC   PO410356   0.126   9.136   9.486
  503POPC   GL110357  44.907   9.000   9.141
  503POPC   GL210358  44.571   9.114   9.089
  503POPC   C1A10359  44.843   8.792   8.741
  503POPC   D2A10360   0.149   8.704   8.436
  503POPC   C3A10361   0.006   8.562   8.052
  503POPC   C4A10362  44.798   8.852   7.768
  503POPC   C1B10363  44.324   9.303   8.783
  503POPC   C2B10364  44.385   9.142   8.396
  503POPC   C3B10365  44.192   9.022   8.028
  503POPC   C4B10366  44.214   9.060   7.602
  504POPC   NC310367  25.416   3.821   9.532
  504POPC   PO410368  25.138   4.450   9.554
  504POPC   GL110369  25.167   4.331   9.157
  504POPC   GL210370  25.433   4.155   9.144
  504POPC   C1A10371  25.243   4.485   8.732
  504POPC   D2A10372  25.043   4.595   8.350
  504POPC   C3A10373  25.226   4.528   7.997
  504POPC   C4A10374  24.979   4.384   7.724
  504POPC   C1B10375  25.596   4.123   8.757
  504POPC   C2B10376  25.405   4.149   8.334
  504POPC   C3B10377  25.500   4.041   7.883
  504POPC   C4B10378  25.340   4.169   7.435
  505POPC   NC310379  20.039   6.067   9.429
  505POPC   PO410380  19.468   5.700   9.519
  505POPC   GL110381  19.665   5.855   9.162
  505POPC   GL210382  19.577   6.223   9.213
  505POPC   C1A10383  19.776   5.710   8.768
  505POPC   D2A10384  19.645   5.576   8.365
  505POPC   C3A10385  19.949   5.693   8.066
  505POPC   C4A10386  20.107   5.657   7.595
  505POPC   C1B10387  19.813   6.329   8.843
  505POPC   C2B10388  19.895   6.124   8.478
  505POPC   C3B10389  19.987   6.219   8.085
  505POPC   C4B10390  19.827   6.059   7.728
  506POPC   NC310391  42.557   3.376   9.607
  506POPC   PO410392  42.412   4.036   9.482
  506POPC   GL110393  42.333   3.685   9.222
  506POPC   GL210394  42.651   3.600   9.166
  506POPC   C1A10395  42.169   3.620   8.797
  506POPC   D2A10396  42.007   3.921   8.488
  506POPC   C3A10397  41.984   3.823   8.049
  506POPC   C4A10398  41.941   3.439   7.807
  506POPC   C1B10399  42.612   3.874   8.809
  506POPC   C2B10400  42.491   3.764   8.400
  506POPC   C3B10401  42.383   3.511   8.078
  506POPC   C4B10402  42.466   3.483   7.678
  507POPC   NC310403  13.910  15.323   9.656
  507POPC   PO410404  13.266  15.471   9.659
  507POPC   GL110405  13.425  15.226   9.280
  507POPC   GL210406  13.718  15.436   9.200
  507POPC   C1A10407  13.559  15.088   8.833
  507POPC   D2A10408  13.784  14.893   8.454
  507POPC   C3A10409  13.721  15.075   8.043
  507POPC   C4A10410  13.446  15.424   8.027
  507POPC   C1B10411  13.721  15.586   8.811
  507POPC   C2B10412  13.737  15.439   8.436
  507POPC   C3B10413  13.970  15.593   8.090
  507POPC   C4B10414  14.041  15.360   7.740
  508POPC   NC310415  43.194  24.368   9.494
  508POPC   PO410416  42.726  24.905   9.535
  508POPC   GL110417  42.978  24.806   9.092
  508POPC   GL210418  43.338  24.679   9.126
  508POPC   C1A10419  43.047  24.444   8.778
  508POPC   D2A10420  42.954  24.535   8.389
  508POPC   C3A10421  43.154  24.367   8.070
  508POPC   C4A10422  42.913  24.206   7.732
  508POPC   C1B10423  43.331  24.849   8.727
  508POPC   C2B10424  43.441  24.721   8.350
  508POPC   C3B10425  43.167  24.875   8.073
  508POPC   C4B10426  43.157  24.819   7.684
  509POPC   NC310427  38.070   6.307   9.427
  509POPC   PO410428  38.699   6.567   9.495
  509POPC   GL110429  38.494   6.692   9.134
  509POPC   GL210430  38.118   6.745   9.117
  509POPC   C1A10431  38.497   6.824   8.724
  509POPC   D2A10432  38.199   6.776   8.399
  509POPC   C3A10433  38.374   6.814   8.006
  509POPC   C4A10434  38.717   6.639   7.753
  509POPC   C1B10435  38.162   6.431   8.776
  509POPC   C2B10436  38.175   6.263   8.332
  509POPC   C3B10437  38.209   6.345   7.873
  509POPC   C4B10438  38.408   6.326   7.455
  510POPC   NC310439  42.007  17.681   9.793
  510POPC   PO410440  42.539  17.377   9.566
  510POPC   GL110441  42.365  17.499   9.159
  510POPC   GL210442  42.153  17.278   8.963
  510POPC   C1A10443  42.393  17.741   8.796
  510POPC   D2A10444  42.309  17.530   8.429
  510POPC   C3A10445  42.480  17.565   8.024
  510POPC   C4A10446  42.205  17.711   7.721
  510POPC   C1B10447  42.302  17.054   8.650
  510POPC   C2B10448  42.475  17.082   8.260
  510POPC   C3B10449  42.200  17.126   7.903
  510POPC   C4B10450  42.150  17.260   7.460
  511POPC   NC310451  21.795  30.567   9.331
  511POPC   PO410452  21.198  30.575   9.620
  511POPC   GL110453  21.213  30.451   9.159
  511POPC   GL210454  21.421  30.724   9.023
  511POPC   C1A10455  21.083  30.576   8.693
  511POPC   D2A10456  21.435  30.703   8.353
  511POPC   C3A10457  21.414  30.790   7.877
  511POPC   C4A10458  21.224  31.044   7.513
  511POPC   C1B10459  21.556  30.369   8.757
  511POPC   C2B10460  21.759  30.285   8.378
  511POPC   C3B10461  21.673  30.330   7.934
  511POPC   C4B10462  21.986  30.338   7.632
  512POPC   NC310463  44.476  39.809   9.450
  512POPC   PO410464  44.890  40.258   9.407
  512POPC   GL110465  44.670  40.090   9.068
  512POPC   GL210466  44.289  40.171   9.120
  512POPC   C1A10467  44.770  39.956   8.654
  512POPC   D2A10468  44.594  39.722   8.313
  512POPC   C3A10469  44.872  39.860   7.986
  512POPC   C4A10470  44.839  40.222   7.748
  512POPC   C1B10471  44.254  39.970   8.695
  512POPC   C2B10472  44.122  39.989   8.273
  512POPC   C3B10473  44.357  39.965   7.893
  512POPC   C4B10474  44.486  39.881   7.460
  513POPC   NC310475  15.693  37.220   9.349
  513POPC   PO410476  16.285  36.911   9.524
  513POPC   GL110477  16.184  36.775   9.112
  513POPC   GL210478  15.788  36.797   9.075
  513POPC   C1A10479  16.138  37.047   8.771
  513POPC   D2A10480  16.310  37.196   8.405
  513POPC   C3A10481  16.104  36.940   8.138
  513POPC   C4A10482  16.197  36.905   7.746
  513POPC   C1B10483  15.631  37.067   8.696
  513POPC   C2B10484  15.619  37.070   8.245
  513POPC   C3B10485  15.738  37.138   7.827
  513POPC   C4B10486  15.724  37.255   7.382
  514POPC   NC310487  21.023   3.658   9.587
  514POPC   PO410488  21.654   3.581   9.434
  514POPC   GL110489  21.426   3.599   9.078
  514POPC   GL210490  21.179   3.398   9.162
  514POPC   C1A10491  21.546   3.695   8.675
  514POPC   D2A10492  21.526   3.497   8.287
  514POPC   C3A10493  21.277   3.675   7.958
  514POPC   C4A10494  21.291   3.556   7.524
  514POPC   C1B10495  21.052   3.520   8.716
  514POPC   C2B10496  20.953   3.381   8.274
  514POPC   C3B10497  20.865   3.382   7.794
  514POPC   C4B10498  20.729   3.340   7.334
  515POPC   NC310499   5.755   5.226   9.685
  515POPC   PO410500   6.234   4.715   9.769
  515POPC   GL110501   5.988   4.983   9.326
  515POPC   GL210502   6.045   5.313   9.271
  515POPC   C1A10503   5.937   4.933   8.820
  515POPC   D2A10504   6.077   4.944   8.367
  515POPC   C3A10505   5.741   5.066   8.083
  515POPC   C4A10506   5.541   4.723   7.814
  515POPC   C1B10507   5.960   5.442   8.840
  515POPC   C2B10508   6.128   5.467   8.423
  515POPC   C3B10509   6.298   5.274   8.030
  515POPC   C4B10510   6.146   5.295   7.606
  516POPC   NC310511  15.686  30.390   9.738
  516POPC   PO410512  16.099  30.925   9.749
  516POPC   GL110513  15.931  30.706   9.357
  516POPC   GL210514  16.033  30.964   9.118
  516POPC   C1A10515  15.789  30.565   8.906
  516POPC   D2A10516  15.660  30.708   8.473
  516POPC   C3A10517  15.898  30.649   8.092
  516POPC   C4A10518  15.860  30.848   7.691
  516POPC   C1B10519  16.236  31.142   8.753
  516POPC   C2B10520  16.230  30.924   8.386
  516POPC   C3B10521  16.300  30.967   7.976
  516POPC   C4B10522  16.290  31.207   7.660
  517POPC   NC310523  31.604  15.713   9.583
  517POPC   PO410524  32.333  15.913   9.450
  517POPC   GL110525  32.299  15.899   9.039
  517POPC   GL210526  32.151  15.563   9.077
  517POPC   C1A10527  32.235  16.147   8.631
  517POPC   D2A10528  32.301  16.209   8.159
  517POPC   C3A10529  32.038  16.327   7.830
  517POPC   C4A10530  32.072  16.180   7.402
  517POPC   C1B10531  32.231  15.638   8.623
  517POPC   C2B10532  32.304  15.683   8.191
  517POPC   C3B10533  32.187  15.823   7.797
  517POPC   C4B10534  32.005  15.662   7.422
  518POPC   NC310535  10.550  35.229   9.440
  518POPC   PO410536   9.970  34.923   9.337
  518POPC   GL110537  10.282  35.146   9.020
  518POPC   GL210538  10.503  35.473   9.014
  518POPC   C1A10539  10.393  35.236   8.585
  518POPC   D2A10540  10.403  35.645   8.350
  518POPC   C3A10541  10.421  35.458   7.968
  518POPC   C4A10542  10.463  35.484   7.538
  518POPC   C1B10543  10.803  35.544   8.656
  518POPC   C2B10544  10.807  35.324   8.272
  518POPC   C3B10545  10.899  35.315   7.861
  518POPC   C4B10546  10.973  35.624   7.573
  519POPC   NC310547   5.574  44.460   9.737
  519POPC   PO410548   5.026  44.631   9.572
  519POPC   GL110549   4.953  44.790   9.126
  519POPC   GL210550   4.605  44.818   9.108
  519POPC   C1A10551   5.097  44.836   8.674
  519POPC   D2A10552   5.220  44.862   8.231
  519POPC   C3A10553   5.361  44.604   7.875
  519POPC   C4A10554   5.332  44.400   7.459
  519POPC   C1B10555   4.588  44.703   8.642
  519POPC   C2B10556   4.794  44.579   8.253
  519POPC   C3B10557   4.876  44.786   7.852
  519POPC   C4B10558   4.688  44.861   7.461
  520POPC   NC310559  16.073  39.449   9.499
  520POPC   PO410560  15.844  39.048   9.044
  520POPC   GL110561  15.787  39.484   9.047
  520POPC   GL210562  16.142  39.613   9.024
  520POPC   C1A10563  15.819  39.514   8.602
  520POPC   D2A10564  16.066  39.378   8.303
  520POPC   C3A10565  15.858  39.252   7.954
  520POPC   C4A10566  15.837  39.593   7.725
  520POPC   C1B10567  16.365  39.330   8.764
  520POPC   C2B10568  16.318  38.977   8.478
  520POPC   C3B10569  16.332  38.968   8.060
  520POPC   C4B10570  16.132  38.935   7.666
  521POPC   NC310571  11.734  12.807   9.466
  521POPC   PO410572  12.348  12.746   9.338
  521POPC   GL110573  12.068  12.757   9.011
  521POPC   GL210574  11.780  12.997   9.003
  521POPC   C1A10575  12.007  12.835   8.562
  521POPC   D2A10576  11.699  13.076   8.354
  521POPC   C3A10577  11.758  13.183   7.915
  521POPC   C4A10578  12.074  13.016   7.610
  521POPC   C1B10579  11.635  12.568   8.831
  521POPC   C2B10580  11.708  12.443   8.403
  521POPC   C3B10581  11.770  12.667   8.039
  521POPC   C4B10582  11.668  12.715   7.620
  522POPC   NC310583  42.184   5.582   9.589
  522POPC   PO410584  42.251   6.260   9.676
  522POPC   GL110585  42.223   5.898   9.221
  522POPC   GL210586  42.552   5.782   9.205
  522POPC   C1A10587  42.166   5.971   8.742
  522POPC   D2A10588  42.299   6.149   8.338
  522POPC   C3A10589  42.281   5.881   7.977
  522POPC   C4A10590  42.104   5.724   7.594
  522POPC   C1B10591  42.532   5.611   8.800
  522POPC   C2B10592  42.474   5.580   8.368
  522POPC   C3B10593  42.791   5.573   8.056
  522POPC   C4B10594  42.711   5.724   7.699
  523POPC   NC310595   6.980  21.650   9.474
  523POPC   PO410596   6.427  21.319   9.744
  523POPC   GL110597   6.462  21.420   9.261
  523POPC   GL210598   6.753  21.509   9.049
  523POPC   C1A10599   6.320  21.412   8.801
  523POPC   D2A10600   6.441  21.247   8.368
  523POPC   C3A10601   6.487  21.522   7.996
  523POPC   C4A10602   6.637  21.460   7.578
  523POPC   C1B10603   7.000  21.565   8.696
  523POPC   C2B10604   6.923  21.434   8.278
  523POPC   C3B10605   7.000  21.577   7.878
  523POPC   C4B10606   7.084  21.247   7.489
  524POPC   NC310607   3.187  31.321   9.472
  524POPC   PO410608   3.859  31.212   9.535
  524POPC   GL110609   3.821  31.459   9.134
  524POPC   GL210610   3.474  31.610   9.115
  524POPC   C1A10611   3.701  31.471   8.665
  524POPC   D2A10612   3.423  31.633   8.327
  524POPC   C3A10613   3.532  31.778   7.900
  524POPC   C4A10614   3.475  31.650   7.447
  524POPC   C1B10615   3.185  31.435   8.781
  524POPC   C2B10616   3.062  31.280   8.355
  524POPC   C3B10617   3.227  31.329   7.923
  524POPC   C4B10618   3.320  31.182   7.484
  525POPC   NC310619  35.853  13.908   9.373
  525POPC   PO410620  36.178  13.291   9.541
  525POPC   GL110621  36.145  13.530   9.172
  525POPC   GL210622  35.817  13.422   9.121
  525POPC   C1A10623  35.999  13.723   8.757
  525POPC   D2A10624  35.855  13.761   8.344
  525POPC   C3A10625  36.196  13.810   8.098
  525POPC   C4A10626  36.282  13.777   7.685
  525POPC   C1B10627  35.856  13.212   8.741
  525POPC   C2B10628  35.757  13.227   8.308
  525POPC   C3B10629  35.953  13.395   7.932
  525POPC   C4B10630  35.674  13.322   7.620
  526POPC   NC310631  32.538  37.594   9.578
  526POPC   PO410632  31.961  37.637   9.496
  526POPC   GL110633  31.973  37.664   9.062
  526POPC   GL210634  32.292  37.698   9.073
  526POPC   C1A10635  32.141  37.549   8.617
  526POPC   D2A10636  32.034  37.518   8.182
  526POPC   C3A10637  31.949  37.836   7.877
  526POPC   C4A10638  32.109  37.906   7.473
  526POPC   C1B10639  32.461  37.936   8.679
  526POPC   C2B10640  32.437  37.894   8.193
  526POPC   C3B10641  32.458  38.128   7.772
  526POPC   C4B10642  32.527  38.154   7.293
  527POPC   NC310643  42.185   4.728   9.559
  527POPC   PO410644  42.566   5.321   9.540
  527POPC   GL110645  42.380   5.261   9.137
  527POPC   GL210646  42.420   4.938   9.138
  527POPC   C1A10647  42.314   5.178   8.651
  527POPC   D2A10648  42.187   5.180   8.218
  527POPC   C3A10649  42.368   5.366   7.884
  527POPC   C4A10650  42.434   5.070   7.587
  527POPC   C1B10651  42.516   4.734   8.763
  527POPC   C2B10652  42.586   4.733   8.354
  527POPC   C3B10653  42.369   4.744   7.989
  527POPC   C4B10654  42.575   4.563   7.678
  528POPC   NC310655   4.178  34.059   9.580
  528POPC   PO410656   4.567  33.604   9.729
  528POPC   GL110657   4.520  33.694   9.270
  528POPC   GL210658   4.537  34.040   9.165
  528POPC   C1A10659   4.467  33.632   8.795
  528POPC   D2A10660   4.662  33.713   8.358
  528POPC   C3A10661   4.452  33.859   8.016
  528POPC   C4A10662   4.549  33.852   7.610
  528POPC   C1B10663   4.238  34.119   8.852
  528POPC   C2B10664   4.164  33.932   8.452
  528POPC   C3B10665   3.990  34.074   8.059
  528POPC   C4B10666   4.047  33.939   7.638
  529POPC   NC310667  22.410   6.543   9.336
  529POPC   PO410668  21.838   6.166   9.403
  529POPC   GL110669  21.972   6.526   9.102
  529POPC   GL210670  21.897   6.900   9.145
  529POPC   C1A10671  22.193   6.525   8.691
  529POPC   D2A10672  22.407   6.344   8.330
  529POPC   C3A10673  22.274   6.580   7.957
  529POPC   C4A10674  21.985   6.561   7.605
  529POPC   C1B10675  21.747   6.798   8.717
  529POPC   C2B10676  21.990   6.873   8.334
  529POPC   C3B10677  21.915   6.971   7.915
  529POPC   C4B10678  22.237   7.001   7.597
  530POPC   NC310679   3.991  11.724   9.620
  530POPC   PO410680   4.433  12.133   9.592
  530POPC   GL110681   4.213  12.030   9.214
  530POPC   GL210682   4.218  11.694   9.140
  530POPC   C1A10683   4.241  12.153   8.796
  530POPC   D2A10684   4.030  12.418   8.485
  530POPC   C3A10685   3.980  12.200   8.103
  530POPC   C4A10686   4.178  12.184   7.705
  530POPC   C1B10687   4.135  11.617   8.714
  530POPC   C2B10688   4.297  11.867   8.362
  530POPC   C3B10689   4.536  12.107   8.059
  530POPC   C4B10690   4.647  11.992   7.626
  531POPC   NC310691  39.832  11.740   9.342
  531POPC   PO410692  40.367  12.066   9.640
  531POPC   GL110693  40.190  12.154   9.182
  531POPC   GL210694  40.064  11.911   8.916
  531POPC   C1A10695  40.020  12.419   8.829
  531POPC   D2A10696  39.946  12.181   8.453
  531POPC   C3A10697  39.995  12.342   8.022
  531POPC   C4A10698  40.211  12.309   7.602
  531POPC   C1B10699  39.618  11.844   8.741
  531POPC   C2B10700  39.514  11.716   8.362
  531POPC   C3B10701  39.834  11.812   8.091
  531POPC   C4B10702  39.798  11.813   7.692
  532POPC   NC310703  41.811   2.999   9.949
  532POPC   PO410704  41.700   2.538   9.573
  532POPC   GL110705  41.781   2.697   9.101
  532POPC   GL210706  42.023   2.971   8.988
  532POPC   C1A10707  41.683   2.762   8.632
  532POPC   D2A10708  41.856   2.862   8.190
  532POPC   C3A10709  41.680   2.566   7.869
  532POPC   C4A10710  41.783   2.454   7.417
  532POPC   C1B10711  41.885   3.228   8.605
  532POPC   C2B10712  41.619   3.327   8.232
  532POPC   C3B10713  41.476   3.222   7.812
  532POPC   C4B10714  41.624   3.302   7.376
  533POPC   NC310715  41.728  26.280   9.495
  533POPC   PO410716  41.057  26.033   9.586
  533POPC   GL110717  41.344  26.095   9.206
  533POPC   GL210718  41.562  25.844   9.218
  533POPC   C1A10719  41.552  26.199   8.804
  533POPC   D2A10720  41.699  26.100   8.377
  533POPC   C3A10721  41.707  26.318   7.993
  533POPC   C4A10722  41.472  26.118   7.716
  533POPC   C1B10723  41.768  25.682   8.869
  533POPC   C2B10724  41.705  25.597   8.454
  533POPC   C3B10725  41.674  25.721   8.056
  533POPC   C4B10726  41.871  25.731   7.725
  534POPC   NC310727  16.602  11.363   9.477
  534POPC   PO410728  16.975  10.878   9.436
  534POPC   GL110729  16.781  10.928   9.072
  534POPC   GL210730  16.478  11.021   9.096
  534POPC   C1A10731  16.923  11.080   8.700
  534POPC   D2A10732  17.039  11.343   8.351
  534POPC   C3A10733  16.985  11.226   7.912
  534POPC   C4A10734  16.861  11.557   7.633
  534POPC   C1B10735  16.377  10.924   8.670
  534POPC   C2B10736  16.589  11.049   8.300
  534POPC   C3B10737  16.478  11.259   7.949
  534POPC   C4B10738  16.235  11.081   7.673
  535POPC   NC310739   7.814   5.249   9.714
  535POPC   PO410740   8.492   5.014   9.571
  535POPC   GL110741   8.145   5.217   9.287
  535POPC   GL210742   8.367   5.081   9.087
  535POPC   C1A10743   7.978   5.293   8.816
  535POPC   D2A10744   7.708   5.042   8.446
  535POPC   C3A10745   7.790   5.109   7.997
  535POPC   C4A10746   7.976   5.451   7.763
  535POPC   C1B10747   8.345   4.967   8.713
  535POPC   C2B10748   8.213   5.068   8.349
  535POPC   C3B10749   8.339   5.102   7.968
  535POPC   C4B10750   8.145   4.916   7.666
  536POPC   NC310751  24.115  32.571   9.459
  536POPC   PO410752  23.958  33.239   9.383
  536POPC   GL110753  24.298  33.003   9.212
  536POPC   GL210754  24.487  33.282   9.064
  536POPC   C1A10755  24.446  32.793   8.837
  536POPC   D2A10756  24.241  32.658   8.456
  536POPC   C3A10757  24.253  32.884   8.073
  536POPC   C4A10758  24.284  33.002   7.654
  536POPC   C1B10759  24.764  33.175   8.744
  536POPC   C2B10760  24.665  32.967   8.361
  536POPC   C3B10761  24.715  33.105   7.914
  536POPC   C4B10762  24.902  33.215   7.509
  537POPC   NC310763  17.690  41.990   9.426
  537POPC   PO410764  17.444  42.578   9.510
  537POPC   GL110765  17.432  42.381   9.143
  537POPC   GL210766  17.764  42.393   9.052
  537POPC   C1A10767  17.398  42.546   8.732
  537POPC   D2A10768  17.588  42.626   8.330
  537POPC   C3A10769  17.417  42.614   7.925
  537POPC   C4A10770  17.246  42.666   7.516
  537POPC   C1B10771  17.912  42.066   8.773
  537POPC   C2B10772  17.991  42.142   8.364
  537POPC   C3B10773  17.683  42.181   8.071
  537POPC   C4B10774  17.740  41.900   7.770
  538POPC   NC310775  27.092  29.204   9.396
  538POPC   PO410776  26.579  28.759   9.336
  538POPC   GL110777  26.667  29.153   9.123
  538POPC   GL210778  26.501  29.454   9.250
  538POPC   C1A10779  26.948  29.207   8.765
  538POPC   D2A10780  27.135  29.109   8.365
  538POPC   C3A10781  27.111  29.304   7.983
  538POPC   C4A10782  26.986  29.048   7.660
  538POPC   C1B10783  26.467  29.465   8.767
  538POPC   C2B10784  26.634  29.291   8.368
  538POPC   C3B10785  26.432  29.257   8.005
  538POPC   C4B10786  26.554  29.371   7.623
  539POPC   NC310787  41.837  39.409   9.974
  539POPC   PO410788  41.874  38.952   9.427
  539POPC   GL110789  41.657  39.270   9.191
  539POPC   GL210790  41.390  39.041   9.008
  539POPC   C1A10791  41.477  39.518   8.847
  539POPC   D2A10792  41.268  39.320   8.502
  539POPC   C3A10793  41.546  39.137   8.202
  539POPC   C4A10794  41.506  39.191   7.772
  539POPC   C1B10795  41.683  39.049   8.710
  539POPC   C2B10796  41.820  38.736   8.411
  539POPC   C3B10797  41.938  38.828   8.010
  539POPC   C4B10798  42.064  38.995   7.642
  540POPC   NC310799  18.828   8.731   9.405
  540POPC   PO410800  19.397   9.025   9.441
  540POPC   GL110801  19.197   8.849   9.071
  540POPC   GL210802  19.021   9.164   9.074
  540POPC   C1A10803  18.842   8.852   8.724
  540POPC   D2A10804  18.917   8.972   8.295
  540POPC   C3A10805  18.782   8.793   7.894
  540POPC   C4A10806  18.877   8.940   7.464
  540POPC   C1B10807  19.208   9.229   8.649
  540POPC   C2B10808  19.121   9.449   8.246
  540POPC   C3B10809  19.040   9.246   7.894
  540POPC   C4B10810  19.264   8.957   7.801
  541POPC   NC310811   5.943  14.846   9.390
  541POPC   PO410812   5.879  15.551   9.352
  541POPC   GL110813   5.806  15.207   9.058
  541POPC   GL210814   5.484  15.005   9.096
  541POPC   C1A10815   6.019  15.136   8.667
  541POPC   D2A10816   5.814  15.239   8.287
  541POPC   C3A10817   6.002  15.248   7.878
  541POPC   C4A10818   6.003  15.544   7.517
  541POPC   C1B10819   5.562  14.935   8.661
  541POPC   C2B10820   5.677  14.746   8.250
  541POPC   C3B10821   5.535  15.025   7.923
  541POPC   C4B10822   5.626  15.165   7.510
  542POPC   NC310823   5.656   2.584   9.513
  542POPC   PO410824   6.116   3.005   9.273
  542POPC   GL110825   5.839   2.726   9.066
  542POPC   GL210826   5.987   2.425   9.115
  542POPC   C1A10827   5.715   2.523   8.694
  542POPC   D2A10828   5.863   2.725   8.318
  542POPC   C3A10829   5.645   2.752   7.940
  542POPC   C4A10830   5.783   2.893   7.547
  542POPC   C1B10831   6.220   2.584   8.698
  542POPC   C2B10832   6.410   2.716   8.329
  542POPC   C3B10833   6.287   2.621   7.927
  542POPC   C4B10834   5.969   2.435   7.719
  543POPC   NC310835  40.449  35.477   9.865
  543POPC   PO410836  40.998  35.642   9.626
  543POPC   GL110837  40.824  35.435   9.246
  543POPC   GL210838  40.928  35.736   9.087
  543POPC   C1A10839  40.711  35.140   8.864
  543POPC   D2A10840  40.652  34.880   8.499
  543POPC   C3A10841  40.930  34.969   8.162
  543POPC   C4A10842  40.768  35.153   7.791
  543POPC   C1B10843  41.047  35.542   8.752
  543POPC   C2B10844  40.827  35.390   8.431
  543POPC   C3B10845  40.818  35.574   8.081
  543POPC   C4B10846  40.880  35.620   7.670
  544POPC   NC310847   0.829  33.727   9.477
  544POPC   PO410848   1.303  34.122   9.390
  544POPC   GL110849   1.182  34.047   9.035
  544POPC   GL210850   1.181  33.691   9.101
  544POPC   C1A10851   1.384  34.061   8.651
  544POPC   D2A10852   1.331  33.811   8.287
  544POPC   C3A10853   1.080  33.922   7.939
  544POPC   C4A10854   1.115  34.029   7.489
  544POPC   C1B10855   0.994  33.706   8.699
  544POPC   C2B10856   0.940  33.444   8.356
  544POPC   C3B10857   1.164  33.360   8.002
  544POPC   C4B10858   0.958  33.504   7.663
  545POPC   NC310859  21.630  25.343   9.549
  545POPC   PO410860  21.003  25.578   9.423
  545POPC   GL110861  21.311  25.392   9.152
  545POPC   GL210862  21.285  25.052   9.038
  545POPC   C1A10863  21.549  25.375   8.752
  545POPC   D2A10864  21.556  25.163   8.361
  545POPC   C3A10865  21.468  25.407   7.990
  545POPC   C4A10866  21.396  25.465   7.554
  545POPC   C1B10867  21.024  25.254   8.766
  545POPC   C2B10868  21.058  25.397   8.368
  545POPC   C3B10869  21.051  25.143   8.044
  545POPC   C4B10870  20.909  25.187   7.676
  546POPC   NC310871  38.347  36.394   9.590
  546POPC   PO410872  38.705  35.750   9.563
  546POPC   GL110873  38.466  36.036   9.206
  546POPC   GL210874  38.564  36.385   9.129
  546POPC   C1A10875  38.273  36.211   8.760
  546POPC   D2A10876  38.065  36.143   8.327
  546POPC   C3A10877  38.219  36.355   7.986
  546POPC   C4A10878  38.302  36.170   7.624
  546POPC   C1B10879  38.804  36.354   8.780
  546POPC   C2B10880  38.616  36.348   8.379
  546POPC   C3B10881  38.717  36.292   7.976
  546POPC   C4B10882  39.005  36.439   7.685
  547POPC   NC310883   3.993  19.804   9.483
  547POPC   PO410884   3.408  20.097   9.353
  547POPC   GL110885   3.412  19.858   9.021
  547POPC   GL210886   3.715  19.754   9.049
  547POPC   C1A10887   3.506  20.006   8.602
  547POPC   D2A10888   3.724  19.983   8.212
  547POPC   C3A10889   3.402  19.935   7.943
  547POPC   C4A10890   3.267  20.256   7.693
  547POPC   C1B10891   3.628  19.504   8.678
  547POPC   C2B10892   3.600  19.485   8.246
  547POPC   C3B10893   3.437  19.420   7.877
  547POPC   C4B10894   3.737  19.622   7.647
  548POPC   NC310895  39.494  17.528   9.386
  548POPC   PO410896  40.162  17.582   9.208
  548POPC   GL110897  39.813  17.453   9.008
  548POPC   GL210898  39.665  17.770   8.909
  548POPC   C1A10899  39.764  17.275   8.635
  548POPC   D2A10900  40.151  17.208   8.398
  548POPC   C3A10901  40.158  17.486   8.055
  548POPC   C4A10902  39.812  17.645   7.839
  548POPC   C1B10903  40.031  17.716   8.591
  548POPC   C2B10904  40.366  17.893   8.327
  548POPC   C3B10905  40.409  17.950   7.892
  548POPC   C4B10906  40.474  17.608   7.658
  549POPC   NC310907  16.532  22.691   9.610
  549POPC   PO410908  16.714  23.380   9.511
  549POPC   GL110909  16.763  22.982   9.247
  549POPC   GL210910  16.588  23.126   9.004
  549POPC   C1A10911  16.754  22.698   8.827
  549POPC   D2A10912  16.588  22.820   8.400
  549POPC   C3A10913  16.716  22.708   7.983
  549POPC   C4A10914  16.955  22.867   7.632
  549POPC   C1B10915  16.332  23.294   8.688
  549POPC   C2B10916  16.204  23.177   8.311
  549POPC   C3B10917  16.500  23.169   8.006
  549POPC   C4B10918  16.617  23.238   7.605
  550POPC   NC310919  19.105   2.084   9.636
  550POPC   PO410920  19.105   1.468   9.787
  550POPC   GL110921  19.163   1.694   9.329
  550POPC   GL210922  18.899   1.865   9.135
  550POPC   C1A10923  19.326   1.852   8.898
  550POPC   D2A10924  19.340   2.254   8.640
  550POPC   C3A10925  19.236   2.250   8.199
  550POPC   C4A10926  19.034   2.037   7.855
  550POPC   C1B10927  18.869   2.081   8.739
  550POPC   C2B10928  18.766   2.035   8.334
  550POPC   C3B10929  18.755   2.394   8.110
  550POPC   C4B10930  18.674   2.393   7.696
  551POPC   NC310931   3.651  13.300   9.534
  551POPC   PO410932   3.869  13.880   9.459
  551POPC   GL110933   3.718  13.654   9.131
  551POPC   GL210934   3.916  13.323   9.100
  551POPC   C1A10935   3.500  13.832   8.739
  551POPC   D2A10936   3.438  14.053   8.337
  551POPC   C3A10937   3.402  13.785   7.967
  551POPC   C4A10938   3.253  13.996   7.614
  551POPC   C1B10939   3.610  13.324   8.787
  551POPC   C2B10940   3.347  13.353   8.461
  551POPC   C3B10941   3.488  13.235   8.089
  551POPC   C4B10942   3.713  13.372   7.790
  552POPC   NC310943   8.486  11.112   9.719
  552POPC   PO410944   8.005  11.505   9.663
  552POPC   GL110945   8.303  11.540   9.288
  552POPC   GL210946   8.361  11.222   9.201
  552POPC   C1A10947   8.465  11.661   8.837
  552POPC   D2A10948   8.511  11.766   8.366
  552POPC   C3A10949   8.304  11.530   8.021
  552POPC   C4A10950   7.962  11.263   7.845
  552POPC   C1B10951   8.191  11.209   8.783
  552POPC   C2B10952   8.159  11.102   8.339
  552POPC   C3B10953   8.431  11.033   7.998
  552POPC   C4B10954   8.455  11.166   7.593
  553POPC   NC310955  20.577  24.165   9.311
  553POPC   PO410956  20.528  23.564   9.568
  553POPC   GL110957  20.720  23.675   9.223
  553POPC   GL210958  20.998  23.906   9.332
  553POPC   C1A10959  20.692  23.518   8.801
  553POPC   D2A10960  20.588  23.655   8.392
  553POPC   C3A10961  20.729  23.372   8.112
  553POPC   C4A10962  20.650  23.277   7.712
  553POPC   C1B10963  21.030  23.903   8.893
  553POPC   C2B10964  20.939  24.040   8.478
  553POPC   C3B10965  20.932  23.861   8.047
  553POPC   C4B10966  20.640  23.790   7.718
  554POPC   NC310967  19.028  26.566   9.423
  554POPC   PO410968  19.585  27.042   9.459
  554POPC   GL110969  19.395  26.926   9.082
  554POPC   GL210970  19.077  27.067   9.111
  554POPC   C1A10971  19.337  27.056   8.631
  554POPC   D2A10972  19.081  26.850   8.280
  554POPC   C3A10973  19.219  26.881   7.837
  554POPC   C4A10974  19.404  26.726   7.415
  554POPC   C1B10975  18.937  26.775   8.799
  554POPC   C2B10976  18.622  26.860   8.516
  554POPC   C3B10977  18.604  26.911   8.079
  554POPC   C4B10978  18.750  26.710   7.703
  555POPC   NC310979  10.694  28.632   9.335
  555POPC   PO410980  10.480  29.215   9.622
  555POPC   GL110981  10.548  29.124   9.180
  555POPC   GL210982  10.287  28.890   9.161
  555POPC   C1A10983  10.756  28.965   8.778
  555POPC   D2A10984  11.023  28.957   8.397
  555POPC   C3A10985  10.753  29.079   8.046
  555POPC   C4A10986  10.714  29.005   7.643
  555POPC   C1B10987  10.245  29.062   8.732
  555POPC   C2B10988  10.300  29.133   8.287
  555POPC   C3B10989  10.330  28.825   7.905
  555POPC   C4B10990  10.318  28.800   7.415
  556POPC   NC310991  14.596  18.636   9.489
  556POPC   PO410992  14.429  17.965   9.537
  556POPC   GL110993  14.566  18.157   9.208
  556POPC   GL210994  14.334  18.386   9.106
  556POPC   C1A10995  14.633  18.119   8.781
  556POPC   D2A10996  14.718  18.342   8.416
  556POPC   C3A10997  14.636  18.105   8.023
  556POPC   C4A10998  14.538  18.248   7.586
  556POPC   C1B10999  14.135  18.339   8.711
  556POPC   C2B11000  14.194  18.270   8.273
  556POPC   C3B11001  14.202  18.538   7.884
  556POPC   C4B11002  14.162  18.566   7.412
  557POPC   NC311003  44.546  34.987   9.531
  557POPC   PO411004  44.414  35.636   9.491
  557POPC   GL111005  44.478  35.432   9.128
  557POPC   GL211006  44.752  35.246   9.139
  557POPC   C1A11007  44.644  35.469   8.706
  557POPC   D2A11008  44.554  35.192   8.394
  557POPC   C3A11009  44.534  35.408   8.046
  557POPC   C4A11010  44.585  35.269   7.678
  557POPC   C1B11011  44.850  35.007   8.773
  557POPC   C2B11012  44.998  34.907   8.348
  557POPC   C3B11013   0.008  35.103   7.944
  557POPC   C4B11014   0.052  35.305   7.526
  558POPC   NC311015  24.665  16.718   9.901
  558POPC   PO411016  25.079  16.739   9.450
  558POPC   GL111017  24.976  16.780   9.030
  558POPC   GL211018  24.841  17.081   8.957
  558POPC   C1A11019  25.199  16.833   8.638
  558POPC   D2A11020  25.424  17.007   8.284
  558POPC   C3A11021  25.327  16.854   7.879
  558POPC   C4A11022  25.096  16.503   7.661
  558POPC   C1B11023  24.846  17.202   8.548
  558POPC   C2B11024  24.904  16.944   8.215
  558POPC   C3B11025  24.817  16.913   7.820
  558POPC   C4B11026  25.037  17.252   7.762
  559POPC   NC311027  31.153  41.999   9.271
  559POPC   PO411028  30.932  42.523   9.666
  559POPC   GL111029  30.641  42.341   9.278
  559POPC   GL211030  30.379  42.593   9.109
  559POPC   C1A11031  30.586  42.153   8.876
  559POPC   D2A11032  30.512  42.036   8.453
  559POPC   C3A11033  30.743  42.124   8.101
  559POPC   C4A11034  30.681  42.118   7.679
  559POPC   C1B11035  30.671  42.677   8.791
  559POPC   C2B11036  30.821  42.514   8.410
  559POPC   C3B11037  30.735  42.618   7.957
  559POPC   C4B11038  30.477  42.900   7.741
  560POPC   NC311039  35.653  13.119   9.510
  560POPC   PO411040  34.957  12.902   9.599
  560POPC   GL111041  35.245  12.883   9.227
  560POPC   GL211042  35.335  13.225   9.118
  560POPC   C1A11043  35.369  12.874   8.778
  560POPC   D2A11044  35.191  12.835   8.375
  560POPC   C3A11045  35.295  12.616   7.987
  560POPC   C4A11046  35.596  12.821   7.704
  560POPC   C1B11047  35.096  13.298   8.725
  560POPC   C2B11048  35.217  13.361   8.322
  560POPC   C3B11049  35.328  13.138   7.981
  560POPC   C4B11050  35.103  12.919   7.605
  561POPC   NC311051  13.932  18.494   9.376
  561POPC   PO411052  13.358  18.384   9.543
  561POPC   GL111053  13.615  18.117   9.255
  561POPC   GL211054  13.989  17.982   9.246
  561POPC   C1A11055  13.626  18.187   8.821
  561POPC   D2A11056  13.715  18.388   8.420
  561POPC   C3A11057  13.729  18.284   8.002
  561POPC   C4A11058  13.403  18.248   7.724
  561POPC   C1B11059  14.005  17.865   8.812
  561POPC   C2B11060  13.693  17.846   8.445
  561POPC   C3B11061  13.772  17.777   7.986
  561POPC   C4B11062  14.157  18.015   7.835
  562POPC   NC311063  23.375  23.442   9.694
  562POPC   PO411064  23.968  23.657   9.620
  562POPC   GL111065  23.764  23.681   9.196
  562POPC   GL211066  23.388  23.695   9.214
  562POPC   C1A11067  23.717  23.732   8.724
  562POPC   D2A11068  23.869  23.724   8.278
  562POPC   C3A11069  23.636  23.664   7.874
  562POPC   C4A11070  23.797  23.533   7.459
  562POPC   C1B11071  23.307  23.429   8.830
  562POPC   C2B11072  23.235  23.496   8.367
  562POPC   C3B11073  23.154  23.472   7.890
  562POPC   C4B11074  23.284  23.668   7.491
  563POPC   NC311075  11.040  19.553   9.469
  563POPC   PO411076  11.369  20.146   9.543
  563POPC   GL111077  11.439  19.914   9.193
  563POPC   GL211078  11.209  19.669   9.015
  563POPC   C1A11079  11.361  20.112   8.826
  563POPC   D2A11080  11.097  20.030   8.507
  563POPC   C3A11081  11.273  20.027   8.104
  563POPC   C4A11082  11.429  19.810   7.710
  563POPC   C1B11083  11.369  19.603   8.605
  563POPC   C2B11084  11.079  19.580   8.253
  563POPC   C3B11085  11.080  19.483   7.811
  563POPC   C4B11086  11.105  19.627   7.354
  564POPC   NC311087  39.505  30.600   9.492
  564POPC   PO411088  39.108  31.199   9.627
  564POPC   GL111089  39.164  30.917   9.244
  564POPC   GL211090  39.246  30.576   9.051
  564POPC   C1A11091  39.331  31.000   8.813
  564POPC   D2A11092  39.265  30.672   8.524
  564POPC   C3A11093  39.333  30.714   8.096
  564POPC   C4A11094  39.074  30.704   7.751
  564POPC   C1B11095  39.541  30.302   8.779
  564POPC   C2B11096  39.641  30.341   8.302
  564POPC   C3B11097  39.572  30.332   7.816
  564POPC   C4B11098  39.324  30.412   7.408
  565POPC   NC311099  12.261   9.436   9.486
  565POPC   PO411100  11.926  10.034   9.536
  565POPC   GL111101  12.046   9.842   9.159
  565POPC   GL211102  11.756   9.991   9.029
  565POPC   C1A11103  12.007   9.621   8.744
  565POPC   D2A11104  11.872   9.604   8.283
  565POPC   C3A11105  12.239   9.629   7.977
  565POPC   C4A11106  12.328   9.901   7.605
  565POPC   C1B11107  11.670   9.957   8.607
  565POPC   C2B11108  11.910  10.125   8.325
  565POPC   C3B11109  11.978  10.060   7.954
  565POPC   C4B11110  11.834   9.985   7.593
  566POPC   NC311111  21.523  38.072   9.649
  566POPC   PO411112  21.244  38.631   9.625
  566POPC   GL111113  21.375  38.826   9.197
  566POPC   GL211114  21.690  38.641   9.122
  566POPC   C1A11115  21.306  38.745   8.738
  566POPC   D2A11116  21.287  38.493   8.346
  566POPC   C3A11117  21.341  38.660   7.930
  566POPC   C4A11118  21.725  38.824   7.761
  566POPC   C1B11119  21.789  38.545   8.665
  566POPC   C2B11120  21.818  38.572   8.204
  566POPC   C3B11121  21.736  38.304   7.821
  566POPC   C4B11122  21.837  38.107   7.409
  567POPC   NC311123  16.785  41.361   9.806
  567POPC   PO411124  17.227  41.842   9.502
  567POPC   GL111125  17.124  41.616   9.117
  567POPC   GL211126  17.124  41.257   9.117
  567POPC   C1A11127  17.035  41.758   8.677
  567POPC   D2A11128  16.803  41.959   8.361
  567POPC   C3A11129  16.818  41.741   7.971
  567POPC   C4A11130  16.573  41.398   7.853
  567POPC   C1B11131  16.817  41.315   8.804
  567POPC   C2B11132  16.804  41.405   8.363
  567POPC   C3B11133  17.036  41.269   7.999
  567POPC   C4B11134  16.954  41.196   7.548
  568POPC   NC311135   8.533  22.548   9.457
  568POPC   PO411136   7.967  22.175   9.484
  568POPC   GL111137   8.252  22.073   9.194
  568POPC   GL211138   8.247  22.397   9.066
  568POPC   C1A11139   8.327  21.974   8.778
  568POPC   D2A11140   8.294  22.175   8.400
  568POPC   C3A11141   8.159  21.894   8.086
  568POPC   C4A11142   8.243  22.025   7.692
  568POPC   C1B11143   8.005  22.490   8.717
  568POPC   C2B11144   8.080  22.633   8.317
  568POPC   C3B11145   8.124  22.473   7.927
  568POPC   C4B11146   8.112  22.687   7.517
  569POPC   NC311147  34.894   3.928   9.831
  569POPC   PO411148  35.460   4.222   9.737
  569POPC   GL111149  35.283   4.394   9.298
  569POPC   GL211150  35.045   4.670   9.368
  569POPC   C1A11151  35.447   4.392   8.838
  569POPC   D2A11152  35.600   4.602   8.446
  569POPC   C3A11153  35.541   4.382   8.047
  569POPC   C4A11154  35.418   4.172   7.655
  569POPC   C1B11155  35.008   4.636   8.900
  569POPC   C2B11156  35.079   4.468   8.457
  569POPC   C3B11157  35.046   4.447   7.988
  569POPC   C4B11158  34.935   4.076   7.748
  570POPC   NC311159   2.608  13.937   9.520
  570POPC   PO411160   3.211  13.539   9.381
  570POPC   GL111161   2.773  13.513   9.151
  570POPC   GL211162   2.505  13.792   9.053
  570POPC   C1A11163   2.673  13.477   8.690
  570POPC   D2A11164   2.482  13.740   8.355
  570POPC   C3A11165   2.551  13.555   7.955
  570POPC   C4A11166   2.960  13.526   7.784
  570POPC   C1B11167   2.913  13.935   8.861
  570POPC   C2B11168   2.939  14.071   8.425
  570POPC   C3B11169   2.906  13.999   7.999
  570POPC   C4B11170   2.671  13.958   7.630
  571POPC   NC311171  14.966  31.631   9.643
  571POPC   PO411172  15.010  32.299   9.412
  571POPC   GL111173  15.173  32.274   9.036
  571POPC   GL211174  15.244  31.939   8.959
  571POPC   C1A11175  15.142  32.504   8.669
  571POPC   D2A11176  15.145  32.706   8.278
  571POPC   C3A11177  15.181  32.524   7.855
  571POPC   C4A11178  15.516  32.337   7.661
  571POPC   C1B11179  15.244  32.025   8.547
  571POPC   C2B11180  15.154  32.147   8.184
  571POPC   C3B11181  15.106  31.981   7.795
  571POPC   C4B11182  14.859  31.751   7.459
  572POPC   NC311183  13.376  22.195   9.761
  572POPC   PO411184  14.032  22.187   9.790
  572POPC   GL111185  13.743  22.126   9.319
  572POPC   GL211186  13.700  22.405   9.094
  572POPC   C1A11187  13.664  21.987   8.835
  572POPC   D2A11188  13.696  22.121   8.384
  572POPC   C3A11189  13.461  21.952   8.042
  572POPC   C4A11190  13.641  22.130   7.716
  572POPC   C1B11191  13.908  22.441   8.717
  572POPC   C2B11192  13.818  22.616   8.306
  572POPC   C3B11193  13.752  22.649   7.859
  572POPC   C4B11194  13.965  22.493   7.527
  573POPC   NC311195  40.299   5.019   9.560
  573POPC   PO411196  40.967   5.135   9.498
  573POPC   GL111197  40.877   5.265   9.107
  573POPC   GL211198  40.546   5.179   9.151
  573POPC   C1A11199  41.015   5.383   8.711
  573POPC   D2A11200  41.152   5.189   8.341
  573POPC   C3A11201  40.875   5.364   8.015
  573POPC   C4A11202  40.742   5.190   7.607
  573POPC   C1B11203  40.580   4.983   8.788
  573POPC   C2B11204  40.633   5.099   8.380
  573POPC   C3B11205  40.642   4.882   7.983
  573POPC   C4B11206  40.671   4.703   7.539
  574POPC   NC311207  31.165  17.703   9.722
  574POPC   PO411208  31.472  17.181   9.445
  574POPC   GL111209  31.422  17.595   9.196
  574POPC   GL211210  31.700  17.801   9.311
  574POPC   C1A11211  31.368  17.695   8.718
  574POPC   D2A11212  31.348  17.872   8.282
  574POPC   C3A11213  31.366  17.535   7.997
  574POPC   C4A11214  31.374  17.436   7.574
  574POPC   C1B11215  31.761  17.975   8.894
  574POPC   C2B11216  31.848  17.939   8.450
  574POPC   C3B11217  31.791  17.815   8.030
  574POPC   C4B11218  31.836  17.668   7.612
  575POPC   NC311219  15.439  14.242   9.564
  575POPC   PO411220  14.882  14.479   9.571
  575POPC   GL111221  15.015  14.358   9.150
  575POPC   GL211222  15.384  14.355   9.045
  575POPC   C1A11223  14.993  14.451   8.695
  575POPC   D2A11224  15.300  14.456   8.357
  575POPC   C3A11225  15.154  14.467   7.935
  575POPC   C4A11226  15.218  14.843   7.673
  575POPC   C1B11227  15.385  14.066   8.663
  575POPC   C2B11228  15.303  13.975   8.188
  575POPC   C3B11229  15.313  14.004   7.730
  575POPC   C4B11230  15.150  13.911   7.348
  576POPC   NC311231  41.878   7.646   9.503
  576POPC   PO411232  41.480   7.164   9.565
  576POPC   GL111233  41.540   7.424   9.202
  576POPC   GL211234  41.845   7.249   9.131
  576POPC   C1A11235  41.524   7.698   8.834
  576POPC   D2A11236  41.268   7.832   8.471
  576POPC   C3A11237  41.488   7.801   8.076
  576POPC   C4A11238  41.331   7.601   7.708
  576POPC   C1B11239  41.686   7.221   8.749
  576POPC   C2B11240  41.571   7.410   8.393
  576POPC   C3B11241  41.610   7.296   7.993
  576POPC   C4B11242  41.885   7.392   7.621
  577POPC   NC311243   3.017  13.092   9.397
  577POPC   PO411244   2.487  12.671   9.449
  577POPC   GL111245   2.686  12.793   9.111
  577POPC   GL211246   2.493  13.088   8.983
  577POPC   C1A11247   3.013  12.533   8.906
  577POPC   D2A11248   3.058  12.405   8.484
  577POPC   C3A11249   2.731  12.588   8.252
  577POPC   C4A11250   2.710  12.757   7.850
  577POPC   C1B11251   2.838  12.972   8.657
  577POPC   C2B11252   2.962  13.069   8.214
  577POPC   C3B11253   3.142  13.016   7.787
  577POPC   C4B11254   2.900  13.146   7.441
  578POPC   NC311255   2.377  22.758   9.250
  578POPC   PO411256   1.823  23.089   9.587
  578POPC   GL111257   1.904  23.001   9.122
  578POPC   GL211258   2.227  23.106   8.931
  578POPC   C1A11259   1.907  22.690   8.759
  578POPC   D2A11260   2.118  22.812   8.379
  578POPC   C3A11261   1.915  22.748   8.009
  578POPC   C4A11262   1.801  23.073   7.698
  578POPC   C1B11263   2.529  23.039   8.597
  578POPC   C2B11264   2.452  23.276   8.230
  578POPC   C3B11265   2.263  23.085   7.892
  578POPC   C4B11266   2.245  22.865   7.486
  579POPC   NC311267  35.615  16.588   9.647
  579POPC   PO411268  35.048  16.806   9.640
  579POPC   GL111269  35.324  16.748   9.238
  579POPC   GL211270  35.332  16.444   9.167
  579POPC   C1A11271  35.557  16.791   8.816
  579POPC   D2A11272  35.453  17.004   8.436
  579POPC   C3A11273  35.579  16.867   8.015
  579POPC   C4A11274  35.360  16.804   7.613
  579POPC   C1B11275  35.357  16.322   8.734
  579POPC   C2B11276  35.329  16.525   8.312
  579POPC   C3B11277  35.281  16.352   7.852
  579POPC   C4B11278  35.255  16.317   7.366
  580POPC   NC311279  41.120  16.834   9.911
  580POPC   PO411280  41.682  16.930   9.498
  580POPC   GL111281  41.671  16.840   9.099
  580POPC   GL211282  41.879  16.576   9.075
  580POPC   C1A11283  41.792  16.909   8.698
  580POPC   D2A11284  41.550  16.901   8.332
  580POPC   C3A11285  41.713  16.919   7.928
  580POPC   C4A11286  41.442  16.720   7.627
  580POPC   C1B11287  41.794  16.301   8.801
  580POPC   C2B11288  41.686  16.392   8.420
  580POPC   C3B11289  41.580  16.444   8.042
  580POPC   C4B11290  41.777  16.342   7.693
  581POPC   NC311291  20.651  26.646   9.578
  581POPC   PO411292  20.547  27.292   9.418
  581POPC   GL111293  20.638  26.973   9.132
  581POPC   GL211294  20.416  26.673   9.140
  581POPC   C1A11295  20.770  27.013   8.696
  581POPC   D2A11296  20.593  26.874   8.285
  581POPC   C3A11297  20.844  26.970   7.903
  581POPC   C4A11298  20.594  26.966   7.500
  581POPC   C1B11299  20.358  26.716   8.741
  581POPC   C2B11300  20.475  26.395   8.488
  581POPC   C3B11301  20.424  26.355   8.075
  581POPC   C4B11302  20.640  26.533   7.765
  582POPC   NC311303  43.294  25.978   9.461
  582POPC   PO411304  42.945  26.481   9.257
  582POPC   GL111305  43.123  26.423   8.887
  582POPC   GL211306  43.379  26.189   8.982
  582POPC   C1A11307  43.031  26.121   8.555
  582POPC   D2A11308  42.790  25.729   8.527
  582POPC   C3A11309  42.695  25.663   8.083
  582POPC   C4A11310  42.934  25.822   7.702
  582POPC   C1B11311  43.396  25.811   8.717
  582POPC   C2B11312  43.301  25.733   8.268
  582POPC   C3B11313  43.476  25.824   7.844
  582POPC   C4B11314  43.334  26.077   7.493
  583POPC   NC311315   0.383   4.759   9.643
  583POPC   PO411316   0.826   5.231   9.417
  583POPC   GL111317   0.530   5.049   9.155
  583POPC   GL211318   0.193   5.192   9.269
  583POPC   C1A11319   0.636   4.974   8.711
  583POPC   D2A11320   0.776   4.715   8.344
  583POPC   C3A11321   0.558   4.923   8.033
  583POPC   C4A11322   0.677   5.328   8.007
  583POPC   C1B11323   0.153   5.193   8.814
  583POPC   C2B11324   0.306   5.265   8.381
  583POPC   C3B11325   0.176   5.281   7.940
  583POPC   C4B11326   0.280   5.039   7.585
  584POPC   NC311327  31.124  35.217   9.544
  584POPC   PO411328  30.518  35.523   9.500
  584POPC   GL111329  30.816  35.445   9.182
  584POPC   GL211330  31.143  35.622   9.196
  584POPC   C1A11331  30.791  35.590   8.757
  584POPC   D2A11332  30.591  35.345   8.428
  584POPC   C3A11333  30.528  35.528   8.014
  584POPC   C4A11334  30.452  35.334   7.610
  584POPC   C1B11335  31.192  35.289   8.878
  584POPC   C2B11336  31.159  35.372   8.439
  584POPC   C3B11337  30.956  35.254   8.068
  584POPC   C4B11338  30.936  35.417   7.690
  585POPC   NC311339  32.606  22.774   9.344
  585POPC   PO411340  32.254  23.300   9.619
  585POPC   GL111341  32.163  23.029   9.190
  585POPC   GL211342  32.010  22.683   9.157
  585POPC   C1A11343  32.344  22.899   8.736
  585POPC   D2A11344  32.548  22.751   8.306
  585POPC   C3A11345  32.497  23.053   7.930
  585POPC   C4A11346  32.167  23.131   7.609
  585POPC   C1B11347  31.879  22.684   8.712
  585POPC   C2B11348  32.029  22.894   8.317
  585POPC   C3B11349  32.054  22.727   7.909
  585POPC   C4B11350  31.779  22.765   7.559
  586POPC   NC311351  14.077  26.528   9.614
  586POPC   PO411352  13.424  26.827   9.605
  586POPC   GL111353  13.629  26.734   9.207
  586POPC   GL211354  13.330  26.642   9.053
  586POPC   C1A11355  13.688  26.884   8.749
  586POPC   D2A11356  13.487  26.783   8.370
  586POPC   C3A11357  13.752  26.691   8.022
  586POPC   C4A11358  14.025  26.982   7.830
  586POPC   C1B11359  13.500  26.390   8.714
  586POPC   C2B11360  13.518  26.286   8.278
  586POPC   C3B11361  13.278  26.475   7.943
  586POPC   C4B11362  13.211  26.685   7.555
  587POPC   NC311363   8.771   7.282   9.577
  587POPC   PO411364   9.265   7.673   9.469
  587POPC   GL111365   9.026   7.423   9.138
  587POPC   GL211366   8.659   7.291   9.095
  587POPC   C1A11367   9.043   7.210   8.747
  587POPC   D2A11368   9.019   7.370   8.359
  587POPC   C3A11369   9.274   7.239   8.038
  587POPC   C4A11370   9.095   7.428   7.675
  587POPC   C1B11371   8.557   6.997   8.765
  587POPC   C2B11372   8.759   6.891   8.380
  587POPC   C3B11373   8.791   7.090   7.973
  587POPC   C4B11374   8.812   6.872   7.607
  588POPC   NC311375  30.785  15.318   9.628
  588POPC   PO411376  30.312  15.043   9.489
  588POPC   GL111377  30.680  15.091   9.175
  588POPC   GL211378  30.859  15.412   9.126
  588POPC   C1A11379  30.929  14.993   8.789
  588POPC   D2A11380  31.024  15.022   8.314
  588POPC   C3A11381  30.658  14.944   8.012
  588POPC   C4A11382  30.643  14.994   7.546
  588POPC   C1B11383  31.009  15.486   8.685
  588POPC   C2B11384  30.882  15.516   8.231
  588POPC   C3B11385  30.805  15.388   7.822
  588POPC   C4B11386  30.574  15.505   7.464
  589POPC   NC311387  41.972  30.978   9.711
  589POPC   PO411388  41.371  31.057   9.372
  589POPC   GL111389  41.255  30.773   9.100
  589POPC   GL211390  41.556  30.598   9.061
  589POPC   C1A11391  41.371  30.885   8.686
  589POPC   D2A11392  41.570  30.815   8.324
  589POPC   C3A11393  41.331  30.897   7.983
  589POPC   C4A11394  41.554  31.027   7.649
  589POPC   C1B11395  41.529  30.378   8.667
  589POPC   C2B11396  41.730  30.333   8.250
  589POPC   C3B11397  41.753  30.525   7.816
  589POPC   C4B11398  41.929  30.386   7.372
  590POPC   NC311399  40.397   7.892   9.469
  590POPC   PO411400  40.845   8.345   9.375
  590POPC   GL111401  40.743   8.060   9.063
  590POPC   GL211402  40.412   8.164   9.011
  590POPC   C1A11403  40.899   8.183   8.633
  590POPC   D2A11404  41.065   8.341   8.213
  590POPC   C3A11405  41.053   7.999   7.905
  590POPC   C4A11406  41.146   7.962   7.427
  590POPC   C1B11407  40.479   8.508   8.723
  590POPC   C2B11408  40.429   8.374   8.298
  590POPC   C3B11409  40.599   8.412   7.887
  590POPC   C4B11410  40.587   8.503   7.402
  591POPC   NC311411  26.107   7.305   9.511
  591POPC   PO411412  26.166   7.965   9.613
  591POPC   GL111413  26.003   7.707   9.191
  591POPC   GL211414  25.808   7.371   9.097
  591POPC   C1A11415  26.203   7.491   8.808
  591POPC   D2A11416  26.169   7.235   8.434
  591POPC   C3A11417  25.896   7.433   8.163
  591POPC   C4A11418  26.159   7.556   7.857
  591POPC   C1B11419  25.843   7.019   8.778
  591POPC   C2B11420  25.732   6.946   8.380
  591POPC   C3B11421  25.697   7.004   7.960
  591POPC   C4B11422  25.821   7.256   7.645
  592POPC   NC311423  28.099   0.689   9.259
  592POPC   PO411424  28.479   1.147   9.629
  592POPC   GL111425  28.360   1.130   9.202
  592POPC   GL211426  28.065   1.225   9.215
  592POPC   C1A11427  28.453   0.918   8.775
  592POPC   D2A11428  28.352   1.093   8.378
  592POPC   C3A11429  28.287   0.924   7.955
  592POPC   C4A11430  28.517   0.935   7.566
  592POPC   C1B11431  28.013   1.205   8.804
  592POPC   C2B11432  27.908   1.332   8.417
  592POPC   C3B11433  28.152   1.458   8.079
  592POPC   C4B11434  28.003   1.394   7.678
  593POPC   NC311435  13.461  37.108   9.417
  593POPC   PO411436  13.860  36.638   9.542
  593POPC   GL111437  13.800  36.824   9.132
  593POPC   GL211438  13.768  37.201   9.026
  593POPC   C1A11439  13.519  36.804   8.778
  593POPC   D2A11440  13.599  36.942   8.359
  593POPC   C3A11441  13.305  36.987   8.037
  593POPC   C4A11442  13.574  36.928   7.691
  593POPC   C1B11443  13.979  37.050   8.694
  593POPC   C2B11444  14.182  37.112   8.325
  593POPC   C3B11445  14.032  36.924   7.956
  593POPC   C4B11446  13.948  37.270   7.738
  594POPC   NC311447  15.049   5.680   9.458
  594POPC   PO411448  15.508   6.146   9.676
  594POPC   GL111449  15.352   6.066   9.233
  594POPC   GL211450  15.493   5.757   9.120
  594POPC   C1A11451  15.095   5.969   8.828
  594POPC   D2A11452  14.819   5.837   8.449
  594POPC   C3A11453  14.894   5.850   7.969
  594POPC   C4A11454  15.088   6.090   7.603
  594POPC   C1B11455  15.586   6.032   8.740
  594POPC   C2B11456  15.461   5.885   8.308
  594POPC   C3B11457  15.381   5.773   7.862
  594POPC   C4B11458  15.386   5.756   7.370
  595POPC   NC311459  36.756  25.758   9.773
  595POPC   PO411460  37.095  26.257   9.789
  595POPC   GL111461  37.185  26.155   9.340
  595POPC   GL211462  37.149  26.463   9.175
  595POPC   C1A11463  37.201  25.906   8.917
  595POPC   D2A11464  37.318  25.988   8.470
  595POPC   C3A11465  37.011  25.997   8.098
  595POPC   C4A11466  36.632  26.042   7.817
  595POPC   C1B11467  37.154  26.387   8.744
  595POPC   C2B11468  37.077  26.495   8.319
  595POPC   C3B11469  36.858  26.500   7.945
  595POPC   C4B11470  36.421  26.520   7.763
  596POPC   NC311471  17.956  24.177   9.813
  596POPC   PO411472  18.303  24.665   9.459
  596POPC   GL111473  18.039  24.468   9.153
  596POPC   GL211474  17.939  24.696   8.980
  596POPC   C1A11475  18.119  24.264   8.732
  596POPC   D2A11476  18.084  24.546   8.354
  596POPC   C3A11477  18.260  24.513   7.926
  596POPC   C4A11478  18.304  24.217   7.589
  596POPC   C1B11479  18.386  24.692   8.777
  596POPC   C2B11480  18.476  24.898   8.391
  596POPC   C3B11481  18.220  25.020   8.060
  596POPC   C4B11482  18.433  24.989   7.668
  597POPC   NC311483  25.052  38.321   9.612
  597POPC   PO411484  25.627  37.989   9.494
  597POPC   GL111485  25.392  38.340   9.246
  597POPC   GL211486  25.040  38.208   9.126
  597POPC   C1A11487  25.239  38.605   8.876
  597POPC   D2A11488  25.121  38.618   8.439
  597POPC   C3A11489  25.432  38.567   8.117
  597POPC   C4A11490  25.316  38.674   7.693
  597POPC   C1B11491  25.048  38.000   8.735
  597POPC   C2B11492  25.217  38.096   8.329
  597POPC   C3B11493  25.146  38.211   7.899
  597POPC   C4B11494  25.191  38.123   7.471
  598POPC   NC311495  38.740  37.157   9.514
  598POPC   PO411496  38.095  36.788   9.627
  598POPC   GL111497  38.234  36.778   9.224
  598POPC   GL211498  38.335  37.110   9.136
  598POPC   C1A11499  38.084  36.735   8.804
  598POPC   D2A11500  38.182  36.620   8.420
  598POPC   C3A11501  38.462  36.812   8.142
  598POPC   C4A11502  38.319  37.112   7.833
  598POPC   C1B11503  38.593  36.830   8.845
  598POPC   C2B11504  38.918  36.783   8.524
  598POPC   C3B11505  38.971  36.744   8.091
  598POPC   C4B11506  38.791  37.006   7.775
  599POPC   NC311507  35.469  19.991   9.664
  599POPC   PO411508  35.035  19.878   9.149
  599POPC   GL111509  35.305  19.740   8.910
  599POPC   GL211510  35.558  19.767   9.187
  599POPC   C1A11511  35.132  19.533   8.535
  599POPC   D2A11512  34.929  19.782   8.206
  599POPC   C3A11513  35.138  19.836   7.798
  599POPC   C4A11514  35.303  19.996   7.400
  599POPC   C1B11515  35.799  19.617   8.829
  599POPC   C2B11516  35.625  19.403   8.473
  599POPC   C3B11517  35.519  19.615   8.092
  599POPC   C4B11518  35.591  19.661   7.641
  600POPC   NC311519   9.305  10.584   9.579
  600POPC   PO411520   8.760  10.911   9.387
  600POPC   GL111521   8.908  10.523   9.212
  600POPC   GL211522   9.002  10.177   9.342
  600POPC   C1A11523   8.785  10.493   8.786
  600POPC   D2A11524   8.809  10.691   8.401
  600POPC   C3A11525   8.834  10.467   8.011
  600POPC   C4A11526   9.132  10.596   7.726
  600POPC   C1B11527   9.093  10.117   8.898
  600POPC   C2B11528   9.244  10.378   8.545
  600POPC   C3B11529   9.320  10.310   8.095
  600POPC   C4B11530   9.205  10.087   7.736
  601POPC   NC311531  32.763   0.158   9.526
  601POPC   PO411532  33.282   0.631   9.451
  601POPC   GL111533  33.067   0.635   9.104
  601POPC   GL211534  33.102   0.277   9.123
  601POPC   C1A11535  32.988   0.558   8.676
  601POPC   D2A11536  33.249   0.639   8.338
  601POPC   C3A11537  33.009   0.641   7.984
  601POPC   C4A11538  32.847   0.326   7.771
  601POPC   C1B11539  33.413   0.330   8.805
  601POPC   C2B11540  33.354   0.143   8.396
  601POPC   C3B11541  33.366   0.277   7.964
  601POPC   C4B11542  33.256   0.027   7.634
  602POPC   NC311543  18.710  44.264   9.522
  602POPC   PO411544  19.184  43.794   9.628
  602POPC   GL111545  19.202  43.823   9.175
  602POPC   GL211546  19.018  44.083   9.145
  602POPC   C1A11547  19.232  43.703   8.761
  602POPC   D2A11548  18.974  43.568   8.424
  602POPC   C3A11549  19.061  43.683   8.005
  602POPC   C4A11550  19.119  43.841   7.597
  602POPC   C1B11551  19.202  44.237   8.768
  602POPC   C2B11552  19.211  44.073   8.345
  602POPC   C3B11553  19.095  44.217   7.936
  602POPC   C4B11554  18.707  44.268   7.717
  603POPC   NC311555  17.106  23.621   9.412
  603POPC   PO411556  16.726  24.109   9.686
  603POPC   GL111557  16.733  23.907   9.202
  603POPC   GL211558  17.049  23.910   9.013
  603POPC   C1A11559  16.757  23.573   8.807
  603POPC   D2A11560  16.795  23.307   8.416
  603POPC   C3A11561  16.891  23.509   8.006
  603POPC   C4A11562  16.536  23.724   7.838
  603POPC   C1B11563  16.825  24.082   8.657
  603POPC   C2B11564  16.715  24.048   8.221
  603POPC   C3B11565  16.813  24.216   7.827
  603POPC   C4B11566  16.959  24.191   7.409
  604POPC   NC311567  16.214  17.975   9.407
  604POPC   PO411568  16.896  18.217   9.500
  604POPC   GL111569  16.822  18.396   9.127
  604POPC   GL211570  16.500  18.298   9.135
  604POPC   C1A11571  16.906  18.295   8.718
  604POPC   D2A11572  16.668  18.206   8.341
  604POPC   C3A11573  16.851  18.225   7.960
  604POPC   C4A11574  16.695  18.106   7.583
  604POPC   C1B11575  16.424  18.430   8.744
  604POPC   C2B11576  16.496  18.672   8.352
  604POPC   C3B11577  16.418  18.468   7.923
  604POPC   C4B11578  16.379  18.462   7.442
  605POPC   NC311579  23.635  27.919   9.446
  605POPC   PO411580  23.759  28.637   9.596
  605POPC   GL111581  23.653  28.588   9.198
  605POPC   GL211582  23.546  28.915   9.149
  605POPC   C1A11583  23.640  28.318   8.820
  605POPC   D2A11584  23.878  28.286   8.463
  605POPC   C3A11585  23.723  28.094   8.103
  605POPC   C4A11586  23.900  28.308   7.795
  605POPC   C1B11587  23.564  28.814   8.707
  605POPC   C2B11588  23.378  28.563   8.360
  605POPC   C3B11589  23.413  28.478   7.901
  605POPC   C4B11590  23.594  28.814   7.675
  606POPC   NC311591  41.471  28.906   9.863
  606POPC   PO411592  41.663  29.134   9.246
  606POPC   GL111593  41.330  29.189   8.987
  606POPC   GL211594  41.094  28.939   9.032
  606POPC   C1A11595  41.444  29.349   8.612
  606POPC   D2A11596  41.785  29.292   8.335
  606POPC   C3A11597  41.646  29.465   7.944
  606POPC   C4A11598  41.730  29.450   7.531
  606POPC   C1B11599  41.131  28.942   8.557
  606POPC   C2B11600  41.321  29.125   8.174
  606POPC   C3B11601  41.569  28.961   7.813
  606POPC   C4B11602  41.363  28.762   7.430
  607POPC   NC311603  40.294  31.551   9.472
  607POPC   PO411604  39.690  31.732   9.481
  607POPC   GL111605  39.902  31.471   9.143
  607POPC   GL211606  40.147  31.668   9.008
  607POPC   C1A11607  39.790  31.218   8.778
  607POPC   D2A11608  39.627  31.401   8.374
  607POPC   C3A11609  39.811  31.438   7.967
  607POPC   C4A11610  39.865  31.133   7.669
  607POPC   C1B11611  40.035  31.608   8.628
  607POPC   C2B11612  40.148  31.688   8.256
  607POPC   C3B11613  40.249  31.775   7.852
  607POPC   C4B11614  40.093  31.544   7.525
  608POPC   NC311615  31.358  30.365   9.708
  608POPC   PO411616  31.700  30.917   9.507
  608POPC   GL111617  31.404  30.796   9.165
  608POPC   GL211618  31.336  30.450   9.181
  608POPC   C1A11619  31.355  30.828   8.726
  608POPC   D2A11620  31.551  31.094   8.434
  608POPC   C3A11621  31.548  30.941   8.006
  608POPC   C4A11622  31.480  30.820   7.529
  608POPC   C1B11623  31.553  30.378   8.759
  608POPC   C2B11624  31.396  30.512   8.310
  608POPC   C3B11625  31.534  30.438   7.869
  608POPC   C4B11626  31.635  30.117   7.548
  609POPC   NC311627  20.095  32.097   9.571
  609POPC   PO411628  20.347  32.589   9.614
  609POPC   GL111629  20.080  32.498   9.205
  609POPC   GL211630  19.780  32.279   9.154
  609POPC   C1A11631  20.021  32.479   8.737
  609POPC   D2A11632  19.948  32.231   8.359
  609POPC   C3A11633  19.777  32.419   8.024
  609POPC   C4A11634  19.756  32.459   7.598
  609POPC   C1B11635  19.617  32.138   8.731
  609POPC   C2B11636  19.429  32.148   8.295
  609POPC   C3B11637  19.325  32.249   7.839
  609POPC   C4B11638  19.235  32.374   7.378
  610POPC   NC311639  17.711  38.304   9.329
  610POPC   PO411640  17.120  38.580   9.626
  610POPC   GL111641  17.302  38.668   9.161
  610POPC   GL211642  17.624  38.657   8.952
  610POPC   C1A11643  17.207  38.746   8.694
  610POPC   D2A11644  17.384  38.585   8.289
  610POPC   C3A11645  17.485  38.670   7.860
  610POPC   C4A11646  17.211  38.516   7.539
  610POPC   C1B11647  17.452  38.282   8.694
  610POPC   C2B11648  17.469  38.052   8.312
  610POPC   C3B11649  17.259  38.186   7.921
  610POPC   C4B11650  17.487  38.034   7.558
  611POPC   NC311651  42.012  15.131   9.418
  611POPC   PO411652  41.510  14.808   9.402
  611POPC   GL111653  41.563  15.098   9.082
  611POPC   GL211654  41.534  15.457   9.154
  611POPC   C1A11655  41.746  15.163   8.678
  611POPC   D2A11656  41.916  15.153   8.263
  611POPC   C3A11657  41.700  14.880   8.024
  611POPC   C4A11658  41.684  14.975   7.627
  611POPC   C1B11659  41.313  15.394   8.732
  611POPC   C2B11660  41.406  15.236   8.307
  611POPC   C3B11661  41.587  15.395   7.931
  611POPC   C4B11662  41.395  15.362   7.515
  612POPC   NC311663  16.197  20.717   9.501
  612POPC   PO411664  16.213  20.070   9.470
  612POPC   GL111665  16.087  20.384   9.117
  612POPC   GL211666  15.828  20.672   9.151
  612POPC   C1A11667  16.146  20.648   8.739
  612POPC   D2A11668  16.340  20.522   8.355
  612POPC   C3A11669  16.136  20.543   7.960
  612POPC   C4A11670  16.113  20.634   7.515
  612POPC   C1B11671  15.630  20.620   8.769
  612POPC   C2B11672  15.699  20.503   8.371
  612POPC   C3B11673  15.653  20.711   8.004
  612POPC   C4B11674  15.684  20.452   7.696
  613POPC   NC311675  20.315  16.687   9.359
  613POPC   PO411676  20.217  17.199   9.855
  613POPC   GL111677  20.499  17.164   9.341
  613POPC   GL211678  20.745  16.944   9.255
  613POPC   C1A11679  20.493  17.020   8.823
  613POPC   D2A11680  20.398  16.972   8.346
  613POPC   C3A11681  20.474  16.575   8.108
  613POPC   C4A11682  20.362  16.391   7.677
  613POPC   C1B11683  20.981  16.730   8.894
  613POPC   C2B11684  20.994  16.522   8.473
  613POPC   C3B11685  21.032  16.689   8.074
  613POPC   C4B11686  20.817  16.639   7.711
  614POPC   NC311687  27.839  12.169   9.500
  614POPC   PO411688  28.542  12.063   9.569
  614POPC   GL111689  28.281  11.976   9.161
  614POPC   GL211690  28.194  12.263   9.009
  614POPC   C1A11691  28.467  11.897   8.725
  614POPC   D2A11692  28.702  11.926   8.331
  614POPC   C3A11693  28.614  12.157   7.942
  614POPC   C4A11694  28.290  12.123   7.635
  614POPC   C1B11695  28.065  12.154   8.580
  614POPC   C2B11696  28.135  12.253   8.142
  614POPC   C3B11697  27.999  12.519   7.770
  614POPC   C4B11698  28.150  12.539   7.314
  615POPC   NC311699  34.341  31.407   9.337
  615POPC   PO411700  34.736  31.880   9.563
  615POPC   GL111701  34.914  31.693   9.195
  615POPC   GL211702  34.847  31.344   9.188
  615POPC   C1A11703  34.730  31.712   8.786
  615POPC   D2A11704  34.557  31.518   8.423
  615POPC   C3A11705  34.576  31.763   8.066
  615POPC   C4A11706  34.856  31.751   7.754
  615POPC   C1B11707  34.738  31.208   8.791
  615POPC   C2B11708  34.967  31.177   8.392
  615POPC   C3B11709  34.723  31.254   8.016
  615POPC   C4B11710  34.357  31.069   7.895
  616POPC   NC311711   8.864  35.504   9.400
  616POPC   PO411712   9.476  35.418   9.461
  616POPC   GL111713   9.213  35.367   9.057
  616POPC   GL211714   9.063  35.641   8.932
  616POPC   C1A11715   9.169  35.284   8.606
  616POPC   D2A11716   8.967  35.556   8.266
  616POPC   C3A11717   9.107  35.542   7.831
  616POPC   C4A11718   9.164  35.100   7.676
  616POPC   C1B11719   8.694  35.520   8.711
  616POPC   C2B11720   8.710  35.144   8.469
  616POPC   C3B11721   8.752  35.046   8.070
  616POPC   C4B11722   8.699  35.279   7.722
  617POPC   NC311723  38.344  41.199   9.585
  617POPC   PO411724  38.819  41.745   9.634
  617POPC   GL111725  38.513  41.626   9.244
  617POPC   GL211726  38.534  41.306   9.127
  617POPC   C1A11727  38.294  41.562   8.794
  617POPC   D2A11728  38.466  41.480   8.369
  617POPC   C3A11729  38.261  41.410   7.978
  617POPC   C4A11730  38.323  41.711   7.657
  617POPC   C1B11731  38.701  41.204   8.720
  617POPC   C2B11732  38.962  41.330   8.352
  617POPC   C3B11733  38.821  41.526   7.964
  617POPC   C4B11734  38.645  41.243   7.653
  618POPC   NC311735  37.520  11.868   9.436
  618POPC   PO411736  37.807  12.474   9.445
  618POPC   GL111737  37.831  12.152   9.122
  618POPC   GL211738  38.062  11.893   9.285
  618POPC   C1A11739  37.517  12.020   8.771
  618POPC   D2A11740  37.236  12.049   8.388
  618POPC   C3A11741  37.342  11.742   8.072
  618POPC   C4A11742  37.530  11.781   7.659
  618POPC   C1B11743  38.073  11.778   8.861
  618POPC   C2B11744  37.937  11.976   8.485
  618POPC   C3B11745  37.795  11.978   8.060
  618POPC   C4B11746  38.000  12.032   7.686
  619POPC   NC311747  44.247   6.300   9.240
  619POPC   PO411748  43.908   6.910   9.393
  619POPC   GL111749  43.790   6.819   9.027
  619POPC   GL211750  43.794   6.507   9.070
  619POPC   C1A11751  43.851   6.814   8.591
  619POPC   D2A11752  43.896   6.505   8.241
  619POPC   C3A11753  44.008   6.638   7.838
  619POPC   C4A11754  44.070   7.058   7.772
  619POPC   C1B11755  43.846   6.254   8.693
  619POPC   C2B11756  43.536   6.143   8.360
  619POPC   C3B11757  43.599   6.204   7.901
  619POPC   C4B11758  43.929   6.224   7.543
  620POPC   NC311759  44.157  12.179   9.702
  620POPC   PO411760  43.565  11.879   9.535
  620POPC   GL111761  43.941  11.993   9.252
  620POPC   GL211762  44.039  12.323   9.222
  620POPC   C1A11763  44.211  11.953   8.889
  620POPC   D2A11764  44.219  12.002   8.422
  620POPC   C3A11765  43.938  11.773   8.146
  620POPC   C4A11766  43.875  11.676   7.715
  620POPC   C1B11767  43.895  12.337   8.811
  620POPC   C2B11768  43.757  12.393   8.415
  620POPC   C3B11769  43.969  12.357   8.045
  620POPC   C4B11770  43.881  12.338   7.619
  621POPC   NC311771  37.135  37.766   9.634
  621POPC   PO411772  36.709  37.297   9.388
  621POPC   GL111773  36.786  37.428   9.000
  621POPC   GL211774  36.981  37.708   9.114
  621POPC   C1A11775  37.085  37.451   8.649
  621POPC   D2A11776  37.208  37.723   8.306
  621POPC   C3A11777  36.930  37.590   7.980
  621POPC   C4A11778  36.509  37.567   7.839
  621POPC   C1B11779  36.874  37.891   8.727
  621POPC   C2B11780  36.737  37.936   8.302
  621POPC   C3B11781  36.942  38.118   7.930
  621POPC   C4B11782  37.175  38.211   7.527
  622POPC   NC311783   0.739  39.395   9.346
  622POPC   PO411784   0.059  39.406   9.378
  622POPC   GL111785   0.315  39.313   9.086
  622POPC   GL211786   0.352  38.963   9.156
  622POPC   C1A11787   0.368  39.464   8.695
  622POPC   D2A11788   0.059  39.529   8.392
  622POPC   C3A11789   0.228  39.461   7.976
  622POPC   C4A11790   0.374  39.528   7.540
  622POPC   C1B11791   0.567  38.982   8.737
  622POPC   C2B11792   0.586  39.176   8.315
  622POPC   C3B11793   0.521  39.035   7.892
  622POPC   C4B11794   0.749  38.864   7.587
  623POPC   NC311795  24.743  29.521   9.364
  623POPC   PO411796  24.165  29.201   9.578
  623POPC   GL111797  24.421  29.108   9.230
  623POPC   GL211798  24.324  29.418   9.118
  623POPC   C1A11799  24.637  29.081   8.809
  623POPC   D2A11800  24.432  29.137   8.387
  623POPC   C3A11801  24.684  29.092   8.025
  623POPC   C4A11802  24.812  29.124   7.605
  623POPC   C1B11803  24.395  29.519   8.733
  623POPC   C2B11804  24.205  29.594   8.385
  623POPC   C3B11805  24.295  29.507   7.967
  623POPC   C4B11806  24.023  29.545   7.611
  624POPC   NC311807  28.900  27.411   9.559
  624POPC   PO411808  29.093  28.026   9.470
  624POPC   GL111809  29.283  27.792   9.128
  624POPC   GL211810  29.266  27.425   9.204
  624POPC   C1A11811  29.355  27.738   8.666
  624POPC   D2A11812  28.971  27.786   8.418
  624POPC   C3A11813  29.067  27.697   7.987
  624POPC   C4A11814  29.405  27.814   7.695
  624POPC   C1B11815  29.006  27.432   8.831
  624POPC   C2B11816  29.133  27.312   8.368
  624POPC   C3B11817  29.029  27.172   7.942
  624POPC   C4B11818  28.780  27.287   7.664
  625POPC   NC311819  21.757  42.203   9.768
  625POPC   PO411820  22.052  41.656   9.466
  625POPC   GL111821  22.325  41.518   9.158
  625POPC   GL211822  22.368  41.838   9.006
  625POPC   C1A11823  22.390  41.393   8.749
  625POPC   D2A11824  22.165  41.201   8.452
  625POPC   C3A11825  22.197  41.221   8.014
  625POPC   C4A11826  22.217  41.193   7.574
  625POPC   C1B11827  22.485  41.893   8.599
  625POPC   C2B11828  22.421  41.618   8.266
  625POPC   C3B11829  22.366  41.668   7.850
  625POPC   C4B11830  22.125  41.855   7.584
  626POPC   NC311831  44.013  13.882   9.589
  626POPC   PO411832  43.449  13.439   9.521
  626POPC   GL111833  43.692  13.649   9.178
  626POPC   GL211834  44.061  13.613   9.169
  626POPC   C1A11835  43.822  13.623   8.711
  626POPC   D2A11836  43.760  13.795   8.299
  626POPC   C3A11837  43.574  13.627   7.920
  626POPC   C4A11838  43.816  13.721   7.553
  626POPC   C1B11839  44.234  13.324   8.918
  626POPC   C2B11840  44.220  13.249   8.492
  626POPC   C3B11841  43.996  13.371   8.150
  626POPC   C4B11842  44.112  13.330   7.744
  627POPC   NC311843  41.157  37.866   9.546
  627POPC   PO411844  40.496  37.914   9.631
  627POPC   GL111845  40.726  37.803   9.219
  627POPC   GL211846  41.000  37.553   9.179
  627POPC   C1A11847  40.959  37.880   8.801
  627POPC   D2A11848  41.182  38.004   8.400
  627POPC   C3A11849  40.937  37.902   8.024
  627POPC   C4A11850  40.684  37.935   7.610
  627POPC   C1B11851  41.209  37.421   8.790
  627POPC   C2B11852  41.082  37.497   8.361
  627POPC   C3B11853  41.046  37.393   7.909
  627POPC   C4B11854  40.795  37.426   7.542
  628POPC   NC311855  12.346  23.007   9.744
  628POPC   PO411856  12.026  22.464   9.617
  628POPC   GL111857  12.091  22.675   9.210
  628POPC   GL211858  12.260  22.999   9.172
  628POPC   C1A11859  11.940  22.815   8.805
  628POPC   D2A11860  11.903  22.627   8.435
  628POPC   C3A11861  12.012  22.824   8.077
  628POPC   C4A11862  11.895  22.621   7.702
  628POPC   C1B11863  12.139  23.285   8.794
  628POPC   C2B11864  12.119  23.415   8.392
  628POPC   C3B11865  12.241  23.313   7.990
  628POPC   C4B11866  12.083  23.076   7.618
  629POPC   NC311867  20.248  41.283   9.468
  629POPC   PO411868  20.810  41.701   9.380
  629POPC   GL111869  20.491  41.576   9.133
  629POPC   GL211870  20.643  41.225   9.119
  629POPC   C1A11871  20.398  41.575   8.720
  629POPC   D2A11872  20.657  41.515   8.375
  629POPC   C3A11873  20.512  41.664   8.020
  629POPC   C4A11874  20.534  41.855   7.637
  629POPC   C1B11875  20.924  41.359   8.784
  629POPC   C2B11876  21.135  41.336   8.365
  629POPC   C3B11877  20.911  41.290   7.981
  629POPC   C4B11878  20.664  41.381   7.599
  630POPC   NC311879  37.853  17.881   9.308
  630POPC   PO411880  37.404  18.404   9.452
  630POPC   GL111881  37.649  18.327   9.076
  630POPC   GL211882  37.996  18.391   9.218
  630POPC   C1A11883  37.620  18.512   8.638
  630POPC   D2A11884  37.375  18.594   8.233
  630POPC   C3A11885  37.539  18.561   7.811
  630POPC   C4A11886  37.545  18.182   7.548
  630POPC   C1B11887  38.108  18.493   8.792
  630POPC   C2B11888  38.165  18.516   8.347
  630POPC   C3B11889  38.099  18.483   7.891
  630POPC   C4B11890  38.004  18.087   7.717
  631POPC   NC311891  21.527  18.640   9.358
  631POPC   PO411892  21.563  18.013   9.627
  631POPC   GL111893  21.566  18.051   9.149
  631POPC   GL211894  21.758  17.812   8.963
  631POPC   C1A11895  21.381  18.216   8.732
  631POPC   D2A11896  21.171  18.380   8.324
  631POPC   C3A11897  21.480  18.443   7.962
  631POPC   C4A11898  21.615  18.456   7.530
  631POPC   C1B11899  21.680  17.797   8.542
  631POPC   C2B11900  21.268  17.889   8.340
  631POPC   C3B11901  21.165  18.039   7.937
  631POPC   C4B11902  21.565  17.984   7.748
  632POPC   NC311903  27.861  32.728   9.901
  632POPC   PO411904  27.469  32.284   9.502
  632POPC   GL111905  27.566  32.259   9.130
  632POPC   GL211906  27.612  32.618   9.126
  632POPC   C1A11907  27.407  32.295   8.755
  632POPC   D2A11908  27.238  32.358   8.394
  632POPC   C3A11909  27.478  32.230   8.100
  632POPC   C4A11910  27.399  32.068   7.738
  632POPC   C1B11911  27.870  32.579   8.803
  632POPC   C2B11912  27.680  32.603   8.431
  632POPC   C3B11913  27.810  32.604   8.039
  632POPC   C4B11914  27.679  32.484   7.659
  633POPC   NC311915  41.581  42.709   9.508
  633POPC   PO411916  41.178  42.261   9.726
  633POPC   GL111917  41.271  42.426   9.218
  633POPC   GL211918  41.635  42.423   9.086
  633POPC   C1A11919  41.332  42.289   8.728
  633POPC   D2A11920  41.492  42.309   8.317
  633POPC   C3A11921  41.238  42.252   7.912
  633POPC   C4A11922  41.046  42.567   7.638
  633POPC   C1B11923  41.886  42.380   8.696
  633POPC   C2B11924  42.014  42.212   8.307
  633POPC   C3B11925  41.769  42.127   7.941
  633POPC   C4B11926  41.759  42.372   7.558
  634POPC   NC311927  42.925  38.491   9.445
  634POPC   PO411928  43.393  38.174   9.815
  634POPC   GL111929  43.303  38.133   9.288
  634POPC   GL211930  42.934  38.176   9.059
  634POPC   C1A11931  43.357  38.170   8.794
  634POPC   D2A11932  43.083  38.341   8.440
  634POPC   C3A11933  43.326  38.399   8.046
  634POPC   C4A11934  43.225  38.348   7.622
  634POPC   C1B11935  42.854  38.628   8.821
  634POPC   C2B11936  42.882  38.876   8.471
  634POPC   C3B11937  42.908  38.714   8.095
  634POPC   C4B11938  42.862  38.775   7.684
  635POPC   NC311939  26.627  38.513   9.435
  635POPC   PO411940  27.255  38.100   9.489
  635POPC   GL111941  27.007  38.225   9.152
  635POPC   GL211942  26.951  38.547   9.058
  635POPC   C1A11943  26.828  38.112   8.766
  635POPC   D2A11944  26.875  38.306   8.408
  635POPC   C3A11945  26.576  38.250   8.106
  635POPC   C4A11946  26.879  38.202   7.780
  635POPC   C1B11947  26.590  38.575   8.773
  635POPC   C2B11948  26.594  38.720   8.366
  635POPC   C3B11949  26.795  38.686   8.011
  635POPC   C4B11950  26.549  38.559   7.667
  636POPC   NC311951   9.475  32.552   9.644
  636POPC   PO411952  10.082  32.398   9.488
  636POPC   GL111953   9.836  32.485   9.150
  636POPC   GL211954   9.513  32.668   9.148
  636POPC   C1A11955   9.963  32.295   8.754
  636POPC   D2A11956   9.743  31.972   8.507
  636POPC   C3A11957   9.713  32.035   8.062
  636POPC   C4A11958   9.751  31.885   7.626
  636POPC   C1B11959   9.451  32.347   8.820
  636POPC   C2B11960   9.328  32.279   8.379
  636POPC   C3B11961   9.469  32.503   8.046
  636POPC   C4B11962   9.797  32.444   7.770
  637POPC   NC311963  21.672  44.616   9.515
  637POPC   PO411964  21.123   0.008   9.402
  637POPC   GL111965  21.308  44.662   9.154
  637POPC   GL211966  21.560  44.891   9.094
  637POPC   C1A11967  21.425  44.460   8.767
  637POPC   D2A11968  21.404  44.711   8.395
  637POPC   C3A11969  21.177  44.681   8.022
  637POPC   C4A11970  21.319  44.415   7.717
  637POPC   C1B11971  21.747  44.915   8.713
  637POPC   C2B11972  21.902  44.836   8.305
  637POPC   C3B11973  21.745  44.518   8.054
  637POPC   C4B11974  21.809  44.523   7.636
  638POPC   NC311975   7.952  23.925   9.433
  638POPC   PO411976   8.539  23.971   9.682
  638POPC   GL111977   8.424  23.951   9.162
  638POPC   GL211978   8.136  24.178   9.005
  638POPC   C1A11979   8.274  23.779   8.708
  638POPC   D2A11980   7.997  23.761   8.314
  638POPC   C3A11981   8.139  23.818   7.881
  638POPC   C4A11982   8.250  23.530   7.579
  638POPC   C1B11983   8.439  24.257   8.637
  638POPC   C2B11984   8.480  23.978   8.285
  638POPC   C3B11985   8.626  23.927   7.899
  638POPC   C4B11986   8.485  24.135   7.581
  639POPC   NC311987  18.245  29.653   9.391
  639POPC   PO411988  17.917  30.173   9.297
  639POPC   GL111989  18.132  29.977   8.993
  639POPC   GL211990  18.082  29.637   8.910
  639POPC   C1A11991  18.213  30.047   8.593
  639POPC   D2A11992  18.406  30.063   8.215
  639POPC   C3A11993  18.179  29.963   7.905
  639POPC   C4A11994  18.486  30.088   7.610
  639POPC   C1B11995  18.560  29.717   8.773
  639POPC   C2B11996  18.812  29.806   8.384
  639POPC   C3B11997  18.678  29.712   7.928
  639POPC   C4B11998  18.323  29.616   7.574
  640POPC   NC311999   0.712  16.632   9.630
  640POPC   PO412000   1.239  16.273   9.492
  640POPC   GL112001   1.328  16.700   9.275
  640POPC   GL212002   1.060  16.784   9.154
  640POPC   C1A12003   1.416  16.794   8.794
  640POPC   D2A12004   1.278  16.859   8.359
  640POPC   C3A12005   1.369  16.608   7.985
  640POPC   C4A12006   1.648  16.656   7.612
  640POPC   C1B12007   0.921  16.955   8.763
  640POPC   C2B12008   0.761  16.910   8.333
  640POPC   C3B12009   0.981  16.970   7.937
  640POPC   C4B12010   1.179  16.840   7.554
  641POPC   NC312011  12.584  13.456   9.355
  641POPC   PO412012  13.167  13.874   9.452
  641POPC   GL112013  12.981  13.685   9.093
  641POPC   GL212014  13.139  13.388   8.998
  641POPC   C1A12015  12.797  13.581   8.681
  641POPC   D2A12016  12.667  13.749   8.295
  641POPC   C3A12017  12.982  13.742   7.979
  641POPC   C4A12018  12.626  13.751   7.710
  641POPC   C1B12019  13.135  13.119   8.638
  641POPC   C2B12020  13.090  13.212   8.190
  641POPC   C3B12021  12.705  13.284   7.940
  641POPC   C4B12022  12.500  13.302   7.509
  642POPC   NC312023   4.776  12.982   9.526
  642POPC   PO412024   4.083  13.066   9.507
  642POPC   GL112025   4.347  12.914   9.207
  642POPC   GL212026   4.045  12.784   9.045
  642POPC   C1A12027   4.498  12.661   8.850
  642POPC   D2A12028   4.361  12.824   8.449
  642POPC   C3A12029   4.295  12.621   8.038
  642POPC   C4A12030   4.516  12.825   7.684
  642POPC   C1B12031   3.836  12.869   8.673
  642POPC   C2B12032   3.949  13.189   8.411
  642POPC   C3B12033   4.259  13.221   8.116
  642POPC   C4B12034   4.078  13.027   7.790
  643POPC   NC312035  25.447  35.779   9.419
  643POPC   PO412036  25.126  36.314   9.528
  643POPC   GL112037  25.261  36.149   9.131
  643POPC   GL212038  25.623  36.208   9.146
  643POPC   C1A12039  25.118  35.993   8.741
  643POPC   D2A12040  25.266  35.700   8.460
  643POPC   C3A12041  25.159  35.786   8.068
  643POPC   C4A12042  25.027  36.049   7.773
  643POPC   C1B12043  25.640  36.019   8.740
  643POPC   C2B12044  25.485  36.142   8.352
  643POPC   C3B12045  25.495  36.154   7.931
  643POPC   C4B12046  25.369  36.476   7.684
  644POPC   NC312047  21.885  23.923   9.483
  644POPC   PO412048  22.205  23.343   9.429
  644POPC   GL112049  22.094  23.553   9.046
  644POPC   GL212050  21.909  23.846   8.992
  644POPC   C1A12051  22.145  23.471   8.604
  644POPC   D2A12052  22.435  23.249   8.361
  644POPC   C3A12053  22.248  23.309   7.961
  644POPC   C4A12054  22.074  23.711   7.842
  644POPC   C1B12055  22.246  23.981   8.739
  644POPC   C2B12056  22.317  23.898   8.288
  644POPC   C3B12057  22.368  24.134   7.891
  644POPC   C4B12058  21.934  24.160   7.621
  645POPC   NC312059  10.295  20.189   9.669
  645POPC   PO412060  10.568  19.548   9.533
  645POPC   GL112061  10.500  19.727   9.142
  645POPC   GL212062  10.216  19.972   9.148
  645POPC   C1A12063  10.677  19.812   8.734
  645POPC   D2A12064  10.613  20.064   8.351
  645POPC   C3A12065  10.774  19.878   7.989
  645POPC   C4A12066  10.572  19.466   7.872
  645POPC   C1B12067  10.162  19.718   8.749
  645POPC   C2B12068  10.364  19.605   8.366
  645POPC   C3B12069  10.269  19.840   8.026
  645POPC   C4B12070  10.122  19.914   7.641
  646POPC   NC312071  21.843  27.838   9.421
  646POPC   PO412072  22.484  27.621   9.486
  646POPC   GL112073  22.343  27.364   9.139
  646POPC   GL212074  22.684  27.293   9.047
  646POPC   C1A12075  22.006  27.341   8.787
  646POPC   D2A12076  21.779  27.295   8.354
  646POPC   C3A12077  22.011  27.497   7.968
  646POPC   C4A12078  22.219  27.878   7.910
  646POPC   C1B12079  22.511  27.526   8.685
  646POPC   C2B12080  22.429  27.510   8.249
  646POPC   C3B12081  22.524  27.304   7.861
  646POPC   C4B12082  22.510  27.145   7.418
  647POPC   NC312083   6.374  33.731   9.576
  647POPC   PO412084   6.918  33.942   9.350
  647POPC   GL112085   6.713  33.661   9.123
  647POPC   GL212086   6.404  33.835   9.079
  647POPC   C1A12087   6.623  33.520   8.723
  647POPC   D2A12088   6.419  33.732   8.391
  647POPC   C3A12089   6.625  33.617   8.029
  647POPC   C4A12090   6.854  33.530   7.666
  647POPC   C1B12091   6.658  34.046   8.754
  647POPC   C2B12092   6.609  34.292   8.397
  647POPC   C3B12093   6.534  34.134   7.977
  647POPC   C4B12094   6.759  34.152   7.581
  648POPC   NC312095  16.260  35.750   9.470
  648POPC   PO412096  15.859  35.080   9.494
  648POPC   GL112097  16.030  35.084   9.101
  648POPC   GL212098  16.040  35.458   9.062
  648POPC   C1A12099  15.906  35.130   8.668
  648POPC   D2A12100  15.929  35.481   8.403
  648POPC   C3A12101  15.776  35.405   8.034
  648POPC   C4A12102  15.827  35.463   7.603
  648POPC   C1B12103  16.332  35.602   8.721
  648POPC   C2B12104  16.347  35.747   8.283
  648POPC   C3B12105  16.264  35.550   7.870
  648POPC   C4B12106  16.309  35.578   7.417
  649POPC   NC312107  40.121  10.131   9.306
  649POPC   PO412108  39.784   9.670   9.566
  649POPC   GL112109  39.933   9.637   9.154
  649POPC   GL212110  40.285   9.587   9.074
  649POPC   C1A12111  39.869   9.442   8.779
  649POPC   D2A12112  40.074   9.422   8.425
  649POPC   C3A12113  39.995   9.527   8.076
  649POPC   C4A12114  39.914   9.439   7.717
  649POPC   C1B12115  40.247   9.855   8.710
  649POPC   C2B12116  40.133   9.982   8.294
  649POPC   C3B12117  40.204   9.918   7.831
  649POPC   C4B12118  40.395   9.631   7.574
  650POPC   NC312119   9.264  43.839   9.718
  650POPC   PO412120   8.607  43.812   9.663
  650POPC   GL112121   8.842  44.007   9.290
  650POPC   GL212122   9.206  44.097   9.246
  650POPC   C1A12123   8.865  44.066   8.826
  650POPC   D2A12124   9.143  44.081   8.450
  650POPC   C3A12125   8.913  43.929   8.042
  650POPC   C4A12126   8.841  43.555   7.750
  650POPC   C1B12127   9.301  43.760   8.927
  650POPC   C2B12128   9.402  43.657   8.479
  650POPC   C3B12129   9.336  43.634   8.023
  650POPC   C4B12130   9.224  43.874   7.642
  651POPC   NC312131  35.378  21.086   9.706
  651POPC   PO412132  35.429  20.457   9.617
  651POPC   GL112133  35.452  20.489   9.189
  651POPC   GL212134  35.703  20.263   9.140
  651POPC   C1A12135  35.392  20.650   8.756
  651POPC   D2A12136  35.189  20.863   8.381
  651POPC   C3A12137  35.141  20.736   7.923
  651POPC   C4A12138  35.242  20.692   7.439
  651POPC   C1B12139  35.561  20.158   8.702
  651POPC   C2B12140  35.366  20.329   8.278
  651POPC   C3B12141  35.435  20.334   7.799
  651POPC   C4B12142  35.642  20.387   7.379
  652POPC   NC312143  25.031   9.267   9.433
  652POPC   PO412144  24.611   8.814   9.668
  652POPC   GL112145  24.556   9.030   9.283
  652POPC   GL212146  24.493   8.704   9.157
  652POPC   C1A12147  24.531   9.183   8.824
  652POPC   D2A12148  24.780   9.167   8.417
  652POPC   C3A12149  24.583   9.199   7.996
  652POPC   C4A12150  24.651   9.205   7.521
  652POPC   C1B12151  24.654   8.678   8.773
  652POPC   C2B12152  24.761   8.471   8.417
  652POPC   C3B12153  24.802   8.712   8.076
  652POPC   C4B12154  24.569   8.744   7.731
  653POPC   NC312155  29.515  25.826   9.517
  653POPC   PO412156  29.004  26.156   9.583
  653POPC   GL112157  29.087  26.189   9.184
  653POPC   GL212158  29.375  26.406   9.200
  653POPC   C1A12159  28.954  25.979   8.803
  653POPC   D2A12160  28.783  26.075   8.380
  653POPC   C3A12161  29.003  26.103   7.971
  653POPC   C4A12162  29.021  25.739   7.692
  653POPC   C1B12163  29.473  26.089   8.856
  653POPC   C2B12164  29.308  25.963   8.428
  653POPC   C3B12165  29.432  25.814   8.015
  653POPC   C4B12166  29.448  26.087   7.701
  654POPC   NC312167   4.595  30.052   9.409
  654POPC   PO412168   4.095  29.540   9.267
  654POPC   GL112169   3.995  29.894   8.996
  654POPC   GL212170   4.326  30.006   8.971
  654POPC   C1A12171   3.890  30.194   8.640
  654POPC   D2A12172   4.098  30.418   8.268
  654POPC   C3A12173   4.297  30.070   8.074
  654POPC   C4A12174   4.320  29.886   7.709
  654POPC   C1B12175   4.423  30.154   8.563
  654POPC   C2B12176   4.668  30.369   8.196
  654POPC   C3B12177   4.733  30.167   7.755
  654POPC   C4B12178   4.620  30.077   7.287
  655POPC   NC312179  40.664   5.519   9.499
  655POPC   PO412180  40.671   6.097   9.492
  655POPC   GL112181  40.744   6.019   9.092
  655POPC   GL212182  41.074   6.154   9.104
  655POPC   C1A12183  40.713   6.102   8.650
  655POPC   D2A12184  40.827   5.762   8.378
  655POPC   C3A12185  40.616   5.843   8.015
  655POPC   C4A12186  40.730   5.709   7.650
  655POPC   C1B12187  41.174   5.919   8.723
  655POPC   C2B12188  41.264   6.057   8.311
  655POPC   C3B12189  41.112   5.889   7.949
  655POPC   C4B12190  41.189   5.925   7.532
  656POPC   NC312191  21.807  12.083   9.602
  656POPC   PO412192  22.364  12.103   9.367
  656POPC   GL112193  22.170  12.022   8.973
  656POPC   GL212194  21.864  11.900   9.107
  656POPC   C1A12195  22.259  11.972   8.521
  656POPC   D2A12196  22.276  12.228   8.154
  656POPC   C3A12197  22.443  12.279   7.753
  656POPC   C4A12198  22.346  12.465   7.374
  656POPC   C1B12199  21.724  11.814   8.680
  656POPC   C2B12200  21.849  11.528   8.344
  656POPC   C3B12201  22.111  11.756   8.073
  656POPC   C4B12202  22.055  11.983   7.692
  657POPC   NC312203  13.457  17.095   9.672
  657POPC   PO412204  13.404  16.457   9.755
  657POPC   GL112205  13.646  16.679   9.376
  657POPC   GL212206  13.550  17.004   9.171
  657POPC   C1A12207  13.619  16.529   8.942
  657POPC   D2A12208  13.501  16.343   8.537
  657POPC   C3A12209  13.515  16.445   8.097
  657POPC   C4A12210  13.687  16.485   7.676
  657POPC   C1B12211  13.734  16.977   8.755
  657POPC   C2B12212  13.525  16.868   8.380
  657POPC   C3B12213  13.610  16.929   7.939
  657POPC   C4B12214  13.501  16.911   7.471
  658POPC   NC312215  38.057  26.795   9.474
  658POPC   PO412216  37.394  26.788   9.460
  658POPC   GL112217  37.643  26.667   9.124
  658POPC   GL212218  37.759  26.989   9.102
  658POPC   C1A12219  37.817  26.643   8.683
  658POPC   D2A12220  37.569  26.447   8.356
  658POPC   C3A12221  37.447  26.495   7.905
  658POPC   C4A12222  37.561  26.823   7.515
  658POPC   C1B12223  37.960  27.126   8.754
  658POPC   C2B12224  37.862  27.033   8.346
  658POPC   C3B12225  37.829  26.840   7.957
  658POPC   C4B12226  38.059  26.883   7.563
  659POPC   NC312227  39.299  32.779   9.591
  659POPC   PO412228  39.006  33.413   9.472
  659POPC   GL112229  39.265  33.117   9.199
  659POPC   GL212230  39.512  33.358   9.060
  659POPC   C1A12231  39.280  32.785   8.837
  659POPC   D2A12232  39.438  32.808   8.374
  659POPC   C3A12233  39.316  32.962   7.956
  659POPC   C4A12234  38.936  32.948   7.698
  659POPC   C1B12235  39.262  33.272   8.712
  659POPC   C2B12236  39.010  33.103   8.382
  659POPC   C3B12237  38.946  33.318   8.026
  659POPC   C4B12238  39.266  33.455   7.784
  660POPC   NC312239  36.623  39.656   9.409
  660POPC   PO412240  36.761  40.300   9.435
  660POPC   GL112241  36.804  40.034   9.123
  660POPC   GL212242  37.153  40.055   9.116
  660POPC   C1A12243  36.930  39.759   8.785
  660POPC   D2A12244  36.750  39.887   8.377
  660POPC   C3A12245  36.928  39.923   7.964
  660POPC   C4A12246  36.754  39.797   7.576
  660POPC   C1B12247  36.934  40.251   8.694
  660POPC   C2B12248  37.004  40.327   8.287
  660POPC   C3B12249  36.896  40.422   7.858
  660POPC   C4B12250  36.908  40.285   7.448
  661POPC   NC312251  22.723  10.999   9.559
  661POPC   PO412252  22.863  10.401   9.683
  661POPC   GL112253  22.880  10.599   9.264
  661POPC   GL212254  23.154  10.479   9.085
  661POPC   C1A12255  22.775  10.736   8.821
  661POPC   D2A12256  22.928  10.592   8.410
  661POPC   C3A12257  22.871  10.804   7.983
  661POPC   C4A12258  22.790  10.775   7.503
  661POPC   C1B12259  22.897  10.191   8.815
  661POPC   C2B12260  23.042   9.996   8.424
  661POPC   C3B12261  23.175  10.269   8.100
  661POPC   C4B12262  22.919  10.324   7.718
  662POPC   NC312263   9.182   8.126   9.534
  662POPC   PO412264   8.804   8.634   9.322
  662POPC   GL112265   8.989   8.297   9.108
  662POPC   GL212266   8.916   7.933   9.130
  662POPC   C1A12267   8.987   8.234   8.701
  662POPC   D2A12268   9.157   8.032   8.374
  662POPC   C3A12269   9.065   8.223   7.978
  662POPC   C4A12270   9.209   8.021   7.604
  662POPC   C1B12271   8.863   7.737   8.716
  662POPC   C2B12272   8.695   7.754   8.273
  662POPC   C3B12273   8.789   7.820   7.807
  662POPC   C4B12274   8.850   7.810   7.300
  663POPC   NC312275   0.295  42.191   9.484
  663POPC   PO412276   0.078  42.787   9.598
  663POPC   GL112277   0.343  42.633   9.201
  663POPC   GL212278   0.587  42.328   9.100
  663POPC   C1A12279   0.370  42.587   8.728
  663POPC   D2A12280   0.605  42.494   8.363
  663POPC   C3A12281   0.439  42.410   7.976
  663POPC   C4A12282   0.612  42.568   7.579
  663POPC   C1B12283   0.301  42.077   8.829
  663POPC   C2B12284   0.458  41.975   8.432
  663POPC   C3B12285   0.598  41.900   8.040
  663POPC   C4B12286   0.563  42.048   7.629
  664POPC   NC312287   8.793  26.105   9.537
  664POPC   PO412288   9.467  26.082   9.567
  664POPC   GL112289   9.174  26.066   9.172
  664POPC   GL212290   8.800  26.032   9.052
  664POPC   C1A12291   9.178  26.242   8.761
  664POPC   D2A12292   9.226  26.083   8.343
  664POPC   C3A12293   9.095  26.327   7.991
  664POPC   C4A12294   9.144  26.170   7.590
  664POPC   C1B12295   8.804  25.935   8.640
  664POPC   C2B12296   8.726  25.943   8.240
  664POPC   C3B12297   8.983  25.818   7.939
  664POPC   C4B12298   8.691  26.031   7.693
  665POPC   NC312299  34.283  32.866   9.584
  665POPC   PO412300  33.606  33.101   9.543
  665POPC   GL112301  33.716  32.901   9.194
  665POPC   GL212302  34.029  33.083   9.184
  665POPC   C1A12303  33.625  33.021   8.779
  665POPC   D2A12304  33.726  33.291   8.446
  665POPC   C3A12305  33.581  33.121   8.079
  665POPC   C4A12306  33.482  33.298   7.690
  665POPC   C1B12307  34.113  32.808   8.844
  665POPC   C2B12308  33.947  32.816   8.421
  665POPC   C3B12309  34.085  33.033   8.073
  665POPC   C4B12310  33.910  33.001   7.698
  666POPC   NC312311   0.666  29.227   9.456
  666POPC   PO412312   0.176  28.814   9.534
  666POPC   GL112313   0.296  28.735   9.116
  666POPC   GL212314   0.626  28.822   9.125
  666POPC   C1A12315   0.153  28.732   8.692
  666POPC   D2A12316   0.137  29.108   8.452
  666POPC   C3A12317   0.202  29.053   8.029
  666POPC   C4A12318   0.195  29.351   7.696
  666POPC   C1B12319   0.591  29.001   8.745
  666POPC   C2B12320   0.590  28.781   8.371
  666POPC   C3B12321   0.850  28.861   8.038
  666POPC   C4B12322   0.610  28.989   7.702
  667POPC   NC312323   6.789  11.465   9.489
  667POPC   PO412324   6.158  11.150   9.340
  667POPC   GL112325   6.538  11.240   9.087
  667POPC   GL212326   6.917  11.168   9.081
  667POPC   C1A12327   6.616  11.508   8.742
  667POPC   D2A12328   6.354  11.630   8.389
  667POPC   C3A12329   6.564  11.533   8.014
  667POPC   C4A12330   6.933  11.494   7.746
  667POPC   C1B12331   6.861  10.986   8.687
  667POPC   C2B12332   6.634  10.843   8.321
  667POPC   C3B12333   6.776  11.053   7.955
  667POPC   C4B12334   6.855  11.075   7.495
  668POPC   NC312335  19.460  24.428   9.427
  668POPC   PO412336  20.127  24.225   9.394
  668POPC   GL112337  19.856  24.437   9.094
  668POPC   GL212338  19.593  24.203   8.985
  668POPC   C1A12339  19.819  24.725   8.749
  668POPC   D2A12340  19.988  24.628   8.345
  668POPC   C3A12341  19.761  24.576   7.963
  668POPC   C4A12342  19.809  24.756   7.584
  668POPC   C1B12343  19.876  24.179   8.646
  668POPC   C2B12344  19.881  24.126   8.211
  668POPC   C3B12345  19.558  24.108   7.908
  668POPC   C4B12346  19.592  24.283   7.528
  669POPC   NC312347  11.125  34.505   9.441
  669POPC   PO412348  11.645  35.021   9.465
  669POPC   GL112349  11.379  34.942   9.060
  669POPC   GL212350  11.065  34.745   9.027
  669POPC   C1A12351  11.394  34.592   8.716
  669POPC   D2A12352  11.281  34.396   8.322
  669POPC   C3A12353  11.462  34.515   7.931
  669POPC   C4A12354  11.351  34.515   7.502
  669POPC   C1B12355  10.892  34.462   8.717
  669POPC   C2B12356  10.723  34.432   8.308
  669POPC   C3B12357  10.960  34.574   7.945
  669POPC   C4B12358  10.895  34.729   7.539
  670POPC   NC312359  24.564  44.552   9.659
  670POPC   PO412360  24.025  44.919   9.765
  670POPC   GL112361  24.221  44.858   9.278
  670POPC   GL212362  24.418  44.540   9.169
  670POPC   C1A12363  24.240  44.849   8.768
  670POPC   D2A12364  24.388   0.051   8.338
  670POPC   C3A12365  24.393  44.850   7.924
  670POPC   C4A12366  24.121  44.481   7.787
  670POPC   C1B12367  24.441  44.336   8.754
  670POPC   C2B12368  24.442  44.517   8.338
  670POPC   C3B12369  24.657  44.407   7.970
  670POPC   C4B12370  24.580  44.318   7.576
  671POPC   NC312371  41.536   1.222   9.498
  671POPC   PO412372  41.108   0.883   9.367
  671POPC   GL112373  41.529   0.865   9.115
  671POPC   GL212374  41.735   1.199   9.032
  671POPC   C1A12375  41.584   0.897   8.669
  671POPC   D2A12376  41.709   1.224   8.354
  671POPC   C3A12377  41.680   1.016   7.951
  671POPC   C4A12378  41.360   0.754   7.744
  671POPC   C1B12379  41.958   1.532   8.758
  671POPC   C2B12380  41.963   1.709   8.323
  671POPC   C3B12381  41.720   1.678   7.925
  671POPC   C4B12382  41.681   1.613   7.456
  672POPC   NC312383  37.860   7.254   9.476
  672POPC   PO412384  37.455   7.717   9.344
  672POPC   GL112385  37.621   7.429   9.037
  672POPC   GL212386  37.956   7.451   9.025
  672POPC   C1A12387  37.723   7.205   8.630
  672POPC   D2A12388  37.884   7.120   8.214
  672POPC   C3A12389  37.610   7.220   7.880
  672POPC   C4A12390  37.652   7.163   7.445
  672POPC   C1B12391  37.883   7.678   8.635
  672POPC   C2B12392  37.739   7.607   8.203
  672POPC   C3B12393  37.678   7.706   7.765
  672POPC   C4B12394  37.891   7.635   7.381
  673POPC   NC312395  15.329  21.205   9.597
  673POPC   PO412396  15.299  21.852   9.610
  673POPC   GL112397  15.172  21.555   9.229
  673POPC   GL212398  15.408  21.255   9.106
  673POPC   C1A12399  14.911  21.327   8.896
  673POPC   D2A12400  14.792  21.345   8.434
  673POPC   C3A12401  15.010  21.656   8.157
  673POPC   C4A12402  15.221  21.463   7.764
  673POPC   C1B12403  15.405  21.357   8.683
  673POPC   C2B12404  15.413  21.377   8.259
  673POPC   C3B12405  15.611  21.678   8.013
  673POPC   C4B12406  15.736  21.584   7.658
  674POPC   NC312407  26.600  18.795   9.504
  674POPC   PO412408  27.158  19.200   9.671
  674POPC   GL112409  26.946  19.138   9.221
  674POPC   GL212410  26.583  19.059   9.080
  674POPC   C1A12411  26.979  19.138   8.745
  674POPC   D2A12412  26.943  19.424   8.371
  674POPC   C3A12413  26.750  19.320   7.966
  674POPC   C4A12414  26.892  19.210   7.552
  674POPC   C1B12415  26.601  18.815   8.684
  674POPC   C2B12416  26.788  18.923   8.310
  674POPC   C3B12417  26.907  18.747   7.952
  674POPC   C4B12418  26.719  18.720   7.576
  675POPC   NC312419  44.700   6.155   9.601
  675POPC   PO412420   0.154   5.740   9.331
  675POPC   GL112421  44.836   5.882   9.050
  675POPC   GL212422  44.560   5.672   8.990
  675POPC   C1A12423  44.723   5.953   8.593
  675POPC   D2A12424  44.532   6.000   8.213
  675POPC   C3A12425  44.790   6.118   7.938
  675POPC   C4A12426  44.812   6.037   7.512
  675POPC   C1B12427  44.707   5.441   8.668
  675POPC   C2B12428  44.500   5.513   8.312
  675POPC   C3B12429  44.660   5.536   7.880
  675POPC   C4B12430  44.742   5.147   7.693
  676POPC   NC312431  33.178  20.733   9.633
  676POPC   PO412432  32.940  20.121   9.468
  676POPC   GL112433  33.058  20.364   9.083
  676POPC   GL212434  33.172  20.728   9.132
  676POPC   C1A12435  32.861  20.661   8.752
  676POPC   D2A12436  32.707  20.828   8.374
  676POPC   C3A12437  32.914  20.765   7.968
  676POPC   C4A12438  32.778  20.703   7.514
  676POPC   C1B12439  33.397  20.603   8.769
  676POPC   C2B12440  33.247  20.799   8.410
  676POPC   C3B12441  33.415  20.719   8.030
  676POPC   C4B12442  33.278  20.736   7.604
  677POPC   NC312443   0.018  25.579   9.423
  677POPC   PO412444  44.672  26.106   9.677
  677POPC   GL112445  44.657  26.270   9.275
  677POPC   GL212446  44.671  25.913   9.183
  677POPC   C1A12447  44.581  26.301   8.817
  677POPC   D2A12448  44.794  26.192   8.410
  677POPC   C3A12449  44.502  26.171   8.049
  677POPC   C4A12450  44.420  26.310   7.635
  677POPC   C1B12451  44.893  25.856   8.800
  677POPC   C2B12452   0.015  25.676   8.412
  677POPC   C3B12453  44.977  25.862   8.019
  677POPC   C4B12454  44.688  25.858   7.691
  678POPC   NC312455  12.006  40.812   9.650
  678POPC   PO412456  11.820  40.278   9.375
  678POPC   GL112457  12.094  40.609   9.159
  678POPC   GL212458  12.043  40.969   9.166
  678POPC   C1A12459  12.342  40.648   8.791
  678POPC   D2A12460  12.169  40.592   8.400
  678POPC   C3A12461  12.227  40.883   8.164
  678POPC   C4A12462  12.261  40.867   7.747
  678POPC   C1B12463  11.882  40.842   8.749
  678POPC   C2B12464  11.744  40.924   8.326
  678POPC   C3B12465  11.817  40.698   7.923
  678POPC   C4B12466  11.894  40.710   7.456
  679POPC   NC312467  20.780   0.364   9.458
  679POPC   PO412468  20.145   0.216   9.358
  679POPC   GL112469  20.235   0.489   9.056
  679POPC   GL212470  20.538   0.669   9.130
  679POPC   C1A12471  20.486   0.364   8.699
  679POPC   D2A12472  20.688   0.245   8.310
  679POPC   C3A12473  20.546   0.258   7.896
  679POPC   C4A12474  20.683   0.181   7.430
  679POPC   C1B12475  20.752   0.833   8.756
  679POPC   C2B12476  20.908   0.951   8.336
  679POPC   C3B12477  20.904   0.639   8.009
  679POPC   C4B12478  20.757   0.642   7.579
  680POPC   NC312479  35.198  32.631   9.530
  680POPC   PO412480  35.512  33.215   9.438
  680POPC   GL112481  35.344  32.925   9.143
  680POPC   GL212482  35.372  33.211   8.940
  680POPC   C1A12483  35.182  32.792   8.741
  680POPC   D2A12484  35.077  33.139   8.480
  680POPC   C3A12485  35.247  33.101   8.067
  680POPC   C4A12486  35.343  33.365   7.692
  680POPC   C1B12487  35.690  32.933   8.765
  680POPC   C2B12488  35.630  32.787   8.393
  680POPC   C3B12489  35.843  32.834   8.073
  680POPC   C4B12490  35.629  32.957   7.717
  681POPC   NC312491   1.340  32.877   9.564
  681POPC   PO412492   0.782  33.258   9.500
  681POPC   GL112493   1.128  33.159   9.159
  681POPC   GL212494   1.475  32.972   9.089
  681POPC   C1A12495   1.168  33.145   8.708
  681POPC   D2A12496   0.890  32.906   8.451
  681POPC   C3A12497   1.048  32.842   8.083
  681POPC   C4A12498   0.993  32.956   7.686
  681POPC   C1B12499   1.676  32.782   8.734
  681POPC   C2B12500   1.480  32.868   8.343
  681POPC   C3B12501   1.510  32.982   7.901
  681POPC   C4B12502   1.508  32.739   7.507
  682POPC   NC312503  31.136  44.914   9.406
  682POPC   PO412504  31.125  44.254   9.593
  682POPC   GL112505  31.346  44.467   9.213
  682POPC   GL212506  31.285  44.736   8.961
  682POPC   C1A12507  31.540  44.313   8.815
  682POPC   D2A12508  31.742  44.333   8.386
  682POPC   C3A12509  31.469  44.478   8.055
  682POPC   C4A12510  31.388  44.459   7.611
  682POPC   C1B12511  31.691  44.798   8.746
  682POPC   C2B12512  32.010  44.859   8.473
  682POPC   C3B12513  31.941  44.770   8.061
  682POPC   C4B12514  31.641  44.867   7.742
  683POPC   NC312515   8.312  39.324   9.616
  683POPC   PO412516   7.742  39.388   9.570
  683POPC   GL112517   7.984  39.089   9.281
  683POPC   GL212518   8.355  38.929   9.279
  683POPC   C1A12519   8.044  39.100   8.833
  683POPC   D2A12520   7.816  39.194   8.448
  683POPC   C3A12521   8.027  39.282   8.046
  683POPC   C4A12522   7.922  39.324   7.606
  683POPC   C1B12523   8.537  38.960   8.850
  683POPC   C2B12524   8.369  38.950   8.394
  683POPC   C3B12525   8.506  39.090   7.963
  683POPC   C4B12526   8.525  39.512   7.713
  684POPC   NC312527  25.160  17.849   9.748
  684POPC   PO412528  25.307  18.437   9.404
  684POPC   GL112529  25.291  18.285   9.005
  684POPC   GL212530  24.995  18.532   8.970
  684POPC   C1A12531  25.204  18.252   8.578
  684POPC   D2A12532  25.220  18.647   8.415
  684POPC   C3A12533  25.366  18.651   8.007
  684POPC   C4A12534  25.080  18.530   7.707
  684POPC   C1B12535  24.746  18.593   8.627
  684POPC   C2B12536  24.792  18.372   8.289
  684POPC   C3B12537  25.011  18.142   8.002
  684POPC   C4B12538  24.911  18.079   7.540
  685POPC   NC312539  12.972  18.712   9.200
  685POPC   PO412540  12.902  19.266   9.660
  685POPC   GL112541  12.751  19.298   9.169
  685POPC   GL212542  12.522  19.026   9.057
  685POPC   C1A12543  12.833  19.201   8.707
  685POPC   D2A12544  13.239  19.043   8.564
  685POPC   C3A12545  13.193  19.035   8.119
  685POPC   C4A12546  13.074  18.960   7.716
  685POPC   C1B12547  12.563  18.746   8.716
  685POPC   C2B12548  12.853  18.747   8.408
  685POPC   C3B12549  12.699  18.877   8.045
  685POPC   C4B12550  12.625  18.685   7.654
  686POPC   NC312551  28.550  26.152   9.660
  686POPC   PO412552  27.991  25.886   9.538
  686POPC   GL112553  28.163  26.273   9.296
  686POPC   GL212554  28.522  26.351   9.201
  686POPC   C1A12555  28.090  26.319   8.817
  686POPC   D2A12556  28.257  26.157   8.413
  686POPC   C3A12557  28.057  26.107   7.991
  686POPC   C4A12558  28.101  25.993   7.556
  686POPC   C1B12559  28.611  26.375   8.773
  686POPC   C2B12560  28.586  26.549   8.377
  686POPC   C3B12561  28.536  26.329   7.996
  686POPC   C4B12562  28.597  26.032   7.643
  687POPC   NC312563  22.597  42.739   9.845
  687POPC   PO412564  22.248  43.233   9.577
  687POPC   GL112565  22.302  43.103   9.159
  687POPC   GL212566  21.997  43.133   8.994
  687POPC   C1A12567  22.425  43.177   8.721
  687POPC   D2A12568  22.130  43.092   8.369
  687POPC   C3A12569  22.318  43.176   7.964
  687POPC   C4A12570  22.512  43.071   7.568
  687POPC   C1B12571  21.726  42.820   8.839
  687POPC   C2B12572  21.673  42.754   8.398
  687POPC   C3B12573  21.727  42.983   8.034
  687POPC   C4B12574  21.851  43.263   7.697
  688POPC   NC312575  38.729  17.940   9.360
  688POPC   PO412576  39.057  17.330   9.398
  688POPC   GL112577  39.027  17.625   9.067
  688POPC   GL212578  38.675  17.584   8.976
  688POPC   C1A12579  39.185  17.730   8.651
  688POPC   D2A12580  39.551  17.677   8.377
  688POPC   C3A12581  39.559  17.303   8.133
  688POPC   C4A12582  39.332  17.441   7.798
  688POPC   C1B12583  38.908  17.298   8.673
  688POPC   C2B12584  39.035  17.317   8.219
  688POPC   C3B12585  38.994  17.092   7.793
  688POPC   C4B12586  39.030  17.257   7.336
  689POPC   NC312587  36.832   9.685   9.562
  689POPC   PO412588  36.560  10.313   9.488
  689POPC   GL112589  36.653   9.990   9.182
  689POPC   GL212590  37.022   9.985   9.176
  689POPC   C1A12591  36.640   9.702   8.821
  689POPC   D2A12592  36.528   9.786   8.385
  689POPC   C3A12593  36.765   9.638   8.022
  689POPC   C4A12594  36.733   9.703   7.570
  689POPC   C1B12595  37.181   9.738   8.859
  689POPC   C2B12596  37.059   9.719   8.448
  689POPC   C3B12597  37.255   9.853   8.075
  689POPC   C4B12598  37.300   9.734   7.697
  690POPC   NC312599   0.535   2.171   9.589
  690POPC   PO412600   0.674   1.633   9.200
  690POPC   GL112601   0.700   2.041   9.119
  690POPC   GL212602   0.336   2.070   9.135
  690POPC   C1A12603   0.627   2.092   8.704
  690POPC   D2A12604   0.517   1.873   8.392
  690POPC   C3A12605   0.598   2.150   8.118
  690POPC   C4A12606   0.782   2.153   7.762
  690POPC   C1B12607   0.152   1.859   8.777
  690POPC   C2B12608   0.003   1.936   8.376
  690POPC   C3B12609   0.185   1.856   7.991
  690POPC   C4B12610   0.052   1.722   7.620
  691POPC   NC312611  18.354   6.317   9.550
  691POPC   PO412612  18.088   6.894   9.527
  691POPC   GL112613  18.212   6.698   9.158
  691POPC   GL212614  18.004   6.404   9.143
  691POPC   C1A12615  18.405   6.817   8.730
  691POPC   D2A12616  18.660   7.068   8.411
  691POPC   C3A12617  18.457   7.181   8.011
  691POPC   C4A12618  18.227   6.882   7.724
  691POPC   C1B12619  18.370   6.311   8.869
  691POPC   C2B12620  18.423   6.232   8.437
  691POPC   C3B12621  18.337   6.342   8.012
  691POPC   C4B12622  18.649   6.177   7.738
  692POPC   NC312623  40.692  11.744   9.489
  692POPC   PO412624  40.786  11.017   9.520
  692POPC   GL112625  40.815  11.337   9.192
  692POPC   GL212626  40.508  11.263   9.068
  692POPC   C1A12627  41.043  11.425   8.797
  692POPC   D2A12628  41.331  11.208   8.492
  692POPC   C3A12629  41.173  11.211   8.052
  692POPC   C4A12630  41.064  11.343   7.648
  692POPC   C1B12631  40.632  11.128   8.682
  692POPC   C2B12632  40.716  11.306   8.252
  692POPC   C3B12633  40.685  11.083   7.833
  692POPC   C4B12634  40.802  11.003   7.387
  693POPC   NC312635  23.703  29.098   9.610
  693POPC   PO412636  23.529  29.768   9.588
  693POPC   GL112637  23.494  29.439   9.265
  693POPC   GL212638  23.829  29.351   9.164
  693POPC   C1A12639  23.449  29.305   8.824
  693POPC   D2A12640  23.725  29.367   8.464
  693POPC   C3A12641  23.632  29.170   8.068
  693POPC   C4A12642  23.575  29.312   7.659
  693POPC   C1B12643  24.033  29.116   8.807
  693POPC   C2B12644  23.969  28.872   8.406
  693POPC   C3B12645  24.026  28.826   7.970
  693POPC   C4B12646  24.280  29.075   7.705
  694POPC   NC312647  27.592   5.633   9.471
  694POPC   PO412648  27.133   6.190   9.497
  694POPC   GL112649  27.281   6.017   9.099
  694POPC   GL212650  27.634   6.024   8.993
  694POPC   C1A12651  27.277   6.317   8.760
  694POPC   D2A12652  27.246   6.382   8.310
  694POPC   C3A12653  27.404   6.039   8.063
  694POPC   C4A12654  27.501   5.925   7.657
  694POPC   C1B12655  27.614   6.010   8.540
  694POPC   C2B12656  27.895   6.045   8.228
  694POPC   C3B12657  27.927   5.766   7.897
  694POPC   C4B12658  28.007   5.329   7.800
  695POPC   NC312659  17.838  22.721   9.433
  695POPC   PO412660  18.423  23.020   9.392
  695POPC   GL112661  18.131  22.993   9.063
  695POPC   GL212662  17.955  23.266   8.911
  695POPC   C1A12663  18.309  22.926   8.693
  695POPC   D2A12664  18.213  22.860   8.287
  695POPC   C3A12665  18.416  23.024   7.936
  695POPC   C4A12666  18.199  23.340   7.720
  695POPC   C1B12667  17.780  22.903   8.655
  695POPC   C2B12668  17.730  22.693   8.248
  695POPC   C3B12669  17.937  22.764   7.857
  695POPC   C4B12670  17.767  23.056   7.590
  696POPC   NC312671  19.046  10.898   9.494
  696POPC   PO412672  19.579  11.323   9.473
  696POPC   GL112673  19.269  11.215   9.173
  696POPC   GL212674  19.280  10.868   9.041
  696POPC   C1A12675  19.024  11.436   8.879
  696POPC   D2A12676  18.918  11.478   8.450
  696POPC   C3A12677  19.229  11.327   8.180
  696POPC   C4A12678  19.332  10.981   7.905
  696POPC   C1B12679  19.206  11.017   8.636
  696POPC   C2B12680  18.908  10.963   8.312
  696POPC   C3B12681  18.824  11.094   7.910
  696POPC   C4B12682  19.003  10.930   7.509
  697POPC   NC312683  18.640  25.001   9.451
  697POPC   PO412684  18.012  25.397   9.459
  697POPC   GL112685  18.232  25.400   9.086
  697POPC   GL212686  18.263  25.059   9.101
  697POPC   C1A12687  18.481  25.316   8.701
  697POPC   D2A12688  18.832  25.311   8.396
  697POPC   C3A12689  18.611  25.353   8.005
  697POPC   C4A12690  18.593  25.700   7.705
  697POPC   C1B12691  18.046  25.058   8.663
  697POPC   C2B12692  18.073  25.402   8.381
  697POPC   C3B12693  18.171  25.601   8.027
  697POPC   C4B12694  18.169  25.412   7.664
  698POPC   NC312695  19.649   7.740   9.404
  698POPC   PO412696  19.962   7.201   9.537
  698POPC   GL112697  19.981   7.349   9.139
  698POPC   GL212698  19.635   7.290   9.116
  698POPC   C1A12699  19.878   7.465   8.709
  698POPC   D2A12700  19.771   7.785   8.449
  698POPC   C3A12701  19.911   7.700   8.036
  698POPC   C4A12702  19.583   7.713   7.744
  698POPC   C1B12703  19.553   7.077   8.719
  698POPC   C2B12704  19.603   7.210   8.281
  698POPC   C3B12705  19.692   7.189   7.821
  698POPC   C4B12706  19.963   7.012   7.487
  699POPC   NC312707  21.813   8.033   9.306
  699POPC   PO412708  22.412   7.773   9.441
  699POPC   GL112709  22.299   8.063   9.123
  699POPC   GL212710  22.302   8.398   9.189
  699POPC   C1A12711  22.208   8.104   8.720
  699POPC   D2A12712  22.445   7.946   8.376
  699POPC   C3A12713  22.225   7.958   8.003
  699POPC   C4A12714  22.020   8.246   7.728
  699POPC   C1B12715  22.327   8.628   8.816
  699POPC   C2B12716  22.223   8.493   8.389
  699POPC   C3B12717  22.380   8.487   7.975
  699POPC   C4B12718  22.387   8.543   7.506
  700POPC   NC312719  18.134   4.611   9.494
  700POPC   PO412720  18.567   4.069   9.452
  700POPC   GL112721  18.390   4.215   9.094
  700POPC   GL212722  18.622   4.500   9.069
  700POPC   C1A12723  18.195   4.130   8.688
  700POPC   D2A12724  18.148   4.239   8.235
  700POPC   C3A12725  18.094   3.973   7.852
  700POPC   C4A12726  18.125   4.195   7.444
  700POPC   C1B12727  18.713   4.324   8.661
  700POPC   C2B12728  18.657   4.400   8.210
  700POPC   C3B12729  18.510   4.292   7.780
  700POPC   C4B12730  18.551   4.415   7.329
  701POPC   NC312731   6.127  27.398   9.713
  701POPC   PO412732   5.763  27.754   9.324
  701POPC   GL112733   5.753  27.524   9.018
  701POPC   GL212734   5.994  27.278   9.181
  701POPC   C1A12735   5.753  27.715   8.603
  701POPC   D2A12736   5.876  27.907   8.218
  701POPC   C3A12737   5.710  27.624   7.967
  701POPC   C4A12738   5.620  27.535   7.561
  701POPC   C1B12739   6.146  27.377   8.737
  701POPC   C2B12740   6.133  27.474   8.276
  701POPC   C3B12741   6.147  27.421   7.819
  701POPC   C4B12742   5.946  27.184   7.453
  702POPC   NC312743  17.419   5.749   9.612
  702POPC   PO412744  17.925   6.143   9.584
  702POPC   GL112745  17.573   6.091   9.237
  702POPC   GL212746  17.517   5.724   9.131
  702POPC   C1A12747  17.367   6.053   8.791
  702POPC   D2A12748  17.489   5.971   8.376
  702POPC   C3A12749  17.357   5.803   7.976
  702POPC   C4A12750  17.542   5.793   7.561
  702POPC   C1B12751  17.695   5.638   8.761
  702POPC   C2B12752  17.504   5.469   8.410
  702POPC   C3B12753  17.682   5.404   8.026
  702POPC   C4B12754  17.407   5.326   7.705
  703POPC   NC312755  41.887  33.048   9.755
  703POPC   PO412756  42.453  33.004   9.545
  703POPC   GL112757  42.286  33.049   9.186
  703POPC   GL212758  42.180  32.714   9.164
  703POPC   C1A12759  42.438  33.191   8.807
  703POPC   D2A12760  42.576  32.937   8.507
  703POPC   C3A12761  42.555  33.002   8.102
  703POPC   C4A12762  42.725  33.039   7.739
  703POPC   C1B12763  42.045  32.868   8.753
  703POPC   C2B12764  42.098  32.982   8.326
  703POPC   C3B12765  42.076  32.952   7.896
  703POPC   C4B12766  42.237  33.199   7.558
  704POPC   NC312767   7.079  20.231   9.557
  704POPC   PO412768   7.498  20.669   9.654
  704POPC   GL112769   7.592  20.759   9.191
  704POPC   GL212770   7.246  20.833   9.170
  704POPC   C1A12771   7.577  20.671   8.746
  704POPC   D2A12772   7.354  20.821   8.383
  704POPC   C3A12773   7.587  20.777   8.006
  704POPC   C4A12774   7.612  20.392   7.812
  704POPC   C1B12775   7.094  20.598   8.827
  704POPC   C2B12776   6.982  20.453   8.406
  704POPC   C3B12777   7.142  20.542   8.006
  704POPC   C4B12778   7.212  20.778   7.640
  705POPC   NC312779  16.536   4.601   9.477
  705POPC   PO412780  16.889   3.994   9.465
  705POPC   GL112781  16.781   4.031   9.066
  705POPC   GL212782  16.506   4.223   9.132
  705POPC   C1A12783  16.782   4.323   8.721
  705POPC   D2A12784  17.018   4.477   8.404
  705POPC   C3A12785  16.985   4.198   8.072
  705POPC   C4A12786  16.938   4.426   7.736
  705POPC   C1B12787  16.268   4.221   8.763
  705POPC   C2B12788  16.437   4.109   8.379
  705POPC   C3B12789  16.476   4.191   7.973
  705POPC   C4B12790  16.679   3.987   7.621
  706POPC   NC312791  41.495  28.714   9.331
  706POPC   PO412792  41.874  28.195   9.517
  706POPC   GL112793  41.662  28.220   9.133
  706POPC   GL212794  41.296  28.268   9.161
  706POPC   C1A12795  41.701  28.430   8.748
  706POPC   D2A12796  41.619  28.786   8.461
  706POPC   C3A12797  41.326  28.610   8.145
  706POPC   C4A12798  41.523  28.438   7.781
  706POPC   C1B12799  41.231  27.971   8.827
  706POPC   C2B12800  41.184  27.917   8.374
  706POPC   C3B12801  41.532  27.888   8.073
  706POPC   C4B12802  41.661  27.966   7.633
  707POPC   NC312803  32.880  41.815   9.559
  707POPC   PO412804  33.319  41.351   9.309
  707POPC   GL112805  33.099  41.697   9.078
  707POPC   GL212806  32.716  41.782   9.092
  707POPC   C1A12807  32.953  41.627   8.644
  707POPC   D2A12808  32.853  41.304   8.344
  707POPC   C3A12809  33.200  41.265   8.090
  707POPC   C4A12810  33.199  41.411   7.677
  707POPC   C1B12811  32.622  41.985   8.716
  707POPC   C2B12812  32.619  41.836   8.293
  707POPC   C3B12813  32.926  41.730   7.995
  707POPC   C4B12814  32.802  41.738   7.561
  708POPC   NC312815   3.863  29.138   9.261
  708POPC   PO412816   3.248  28.952   9.466
  708POPC   GL112817   3.290  29.173   9.094
  708POPC   GL212818   3.559  29.169   8.857
  708POPC   C1A12819   3.063  29.200   8.699
  708POPC   D2A12820   2.950  29.073   8.292
  708POPC   C3A12821   3.348  29.015   8.147
  708POPC   C4A12822   3.450  29.004   7.741
  708POPC   C1B12823   3.918  29.214   8.549
  708POPC   C2B12824   3.870  29.147   8.093
  708POPC   C3B12825   3.701  29.421   7.790
  708POPC   C4B12826   3.421  29.554   7.479
  709POPC   NC312827  11.512  42.194   9.583
  709POPC   PO412828  11.371  42.789   9.581
  709POPC   GL112829  11.206  42.417   9.237
  709POPC   GL212830  11.020  42.080   9.235
  709POPC   C1A12831  11.091  42.488   8.801
  709POPC   D2A12832  11.296  42.582   8.405
  709POPC   C3A12833  11.330  42.411   8.007
  709POPC   C4A12834  11.263  42.626   7.620
  709POPC   C1B12835  11.206  41.979   8.835
  709POPC   C2B12836  11.281  42.070   8.421
  709POPC   C3B12837  11.233  41.916   8.011
  709POPC   C4B12838  11.136  42.144   7.611
  710POPC   NC312839   0.429  13.257   9.309
  710POPC   PO412840   0.324  13.933   9.463
  710POPC   GL112841   0.496  13.719   9.086
  710POPC   GL212842   0.810  13.698   8.883
  710POPC   C1A12843   0.350  13.856   8.699
  710POPC   D2A12844   0.283  13.798   8.301
  710POPC   C3A12845   0.580  13.620   8.039
  710POPC   C4A12846   0.462  13.789   7.644
  710POPC   C1B12847   0.599  13.442   8.541
  710POPC   C2B12848   0.739  13.069   8.320
  710POPC   C3B12849   0.818  13.005   7.887
  710POPC   C4B12850   0.675  13.324   7.625
  711POPC   NC312851  29.821  24.762   9.725
  711POPC   PO412852  30.318  24.346   9.637
  711POPC   GL112853  30.173  24.423   9.203
  711POPC   GL212854  30.273  24.731   9.028
  711POPC   C1A12855  29.870  24.465   8.810
  711POPC   D2A12856  29.670  24.267   8.420
  711POPC   C3A12857  29.821  24.313   7.983
  711POPC   C4A12858  29.597  24.390   7.581
  711POPC   C1B12859  30.353  24.383   8.735
  711POPC   C2B12860  30.183  24.410   8.348
  711POPC   C3B12861  30.153  24.697   8.020
  711POPC   C4B12862  30.034  24.645   7.598
  712POPC   NC312863  18.545   1.966   9.474
  712POPC   PO412864  18.067   1.463   9.680
  712POPC   GL112865  18.194   1.669   9.249
  712POPC   GL212866  18.090   2.010   9.223
  712POPC   C1A12867  18.383   1.808   8.797
  712POPC   D2A12868  18.190   1.987   8.397
  712POPC   C3A12869  18.359   2.067   8.002
  712POPC   C4A12870  18.603   1.784   7.805
  712POPC   C1B12871  18.014   2.219   8.829
  712POPC   C2B12872  17.883   2.384   8.424
  712POPC   C3B12873  17.837   2.131   7.997
  712POPC   C4B12874  17.899   2.149   7.507
  713POPC   NC312875   4.864  36.194   9.667
  713POPC   PO412876   5.261  35.800   9.363
  713POPC   GL112877   4.918  35.996   9.189
  713POPC   GL212878   5.004  36.324   9.148
  713POPC   C1A12879   4.716  35.974   8.789
  713POPC   D2A12880   4.927  35.820   8.430
  713POPC   C3A12881   5.012  36.053   8.087
  713POPC   C4A12882   4.932  35.984   7.668
  713POPC   C1B12883   5.199  36.121   8.765
  713POPC   C2B12884   5.489  36.079   8.446
  713POPC   C3B12885   5.501  35.927   8.047
  713POPC   C4B12886   5.430  36.020   7.630
  714POPC   NC312887  36.456  19.728   9.551
  714POPC   PO412888  35.909  20.086   9.590
  714POPC   GL112889  36.069  19.895   9.183
  714POPC   GL212890  36.406  19.782   9.051
  714POPC   C1A12891  36.103  20.062   8.757
  714POPC   D2A12892  36.437  20.172   8.481
  714POPC   C3A12893  36.247  20.120   8.097
  714POPC   C4A12894  35.831  20.060   7.910
  714POPC   C1B12895  36.290  19.559   8.679
  714POPC   C2B12896  36.027  19.691   8.334
  714POPC   C3B12897  36.082  19.620   7.908
  714POPC   C4B12898  36.443  19.586   7.661
  715POPC   NC312899  37.210  42.343   9.401
  715POPC   PO412900  36.621  42.606   9.653
  715POPC   GL112901  36.584  42.380   9.240
  715POPC   GL212902  36.848  42.521   9.083
  715POPC   C1A12903  36.633  42.113   8.833
  715POPC   D2A12904  36.525  42.235   8.387
  715POPC   C3A12905  36.650  42.224   7.957
  715POPC   C4A12906  36.811  42.586   7.757
  715POPC   C1B12907  37.085  42.350   8.749
  715POPC   C2B12908  37.060  42.092   8.409
  715POPC   C3B12909  37.149  42.243   8.026
  715POPC   C4B12910  37.025  42.133   7.607
  716POPC   NC312911   4.282  21.698   9.572
  716POPC   PO412912   3.697  21.283   9.675
  716POPC   GL112913   4.067  21.255   9.237
  716POPC   GL212914   4.322  21.481   9.113
  716POPC   C1A12915   4.126  21.118   8.795
  716POPC   D2A12916   4.456  21.134   8.453
  716POPC   C3A12917   4.335  21.311   8.031
  716POPC   C4A12918   4.556  21.506   7.665
  716POPC   C1B12919   4.164  21.632   8.714
  716POPC   C2B12920   4.342  21.748   8.360
  716POPC   C3B12921   4.215  21.804   7.985
  716POPC   C4B12922   4.070  21.622   7.618
  717POPC   NC312923  32.084  36.580   9.662
  717POPC   PO412924  32.406  35.938   9.480
  717POPC   GL112925  32.153  36.018   9.151
  717POPC   GL212926  32.079  36.337   9.091
  717POPC   C1A12927  32.284  35.996   8.748
  717POPC   D2A12928  32.477  36.148   8.404
  717POPC   C3A12929  32.236  36.115   8.065
  717POPC   C4A12930  32.206  35.871   7.711
  717POPC   C1B12931  32.133  36.481   8.673
  717POPC   C2B12932  32.062  36.692   8.286
  717POPC   C3B12933  31.994  36.523   7.879
  717POPC   C4B12934  32.375  36.385   7.641
  718POPC   NC312935  26.706   6.054   9.658
  718POPC   PO412936  26.527   5.430   9.730
  718POPC   GL112937  26.565   5.663   9.332
  718POPC   GL212938  26.275   5.859   9.262
  718POPC   C1A12939  26.779   5.888   8.981
  718POPC   D2A12940  27.011   5.929   8.594
  718POPC   C3A12941  26.895   5.990   8.180
  718POPC   C4A12942  27.028   5.786   7.795
  718POPC   C1B12943  26.360   5.623   8.858
  718POPC   C2B12944  26.482   5.845   8.505
  718POPC   C3B12945  26.436   5.799   8.082
  718POPC   C4B12946  26.605   6.065   7.737
  719POPC   NC312947  14.789  24.226   9.407
  719POPC   PO412948  14.260  24.659   9.441
  719POPC   GL112949  14.396  24.603   9.035
  719POPC   GL212950  14.370  24.234   9.022
  719POPC   C1A12951  14.202  24.504   8.612
  719POPC   D2A12952  14.002  24.245   8.266
  719POPC   C3A12953  14.321  24.292   7.961
  719POPC   C4A12954  14.426  24.678   7.767
  719POPC   C1B12955  14.740  24.348   8.763
  719POPC   C2B12956  14.884  24.305   8.378
  719POPC   C3B12957  14.806  24.433   8.003
  719POPC   C4B12958  14.721  24.249   7.623
  720POPC   NC312959  44.144   3.167   9.600
  720POPC   PO412960  43.719   2.721   9.584
  720POPC   GL112961  43.798   2.847   9.149
  720POPC   GL212962  43.791   2.551   8.944
  720POPC   C1A12963  43.753   3.027   8.701
  720POPC   D2A12964  43.607   3.108   8.234
  720POPC   C3A12965  43.628   2.732   8.005
  720POPC   C4A12966  43.817   2.572   7.642
  720POPC   C1B12967  44.145   2.672   8.738
  720POPC   C2B12968  44.227   2.745   8.320
  720POPC   C3B12969  44.267   2.538   7.931
  720POPC   C4B12970  44.278   2.377   7.487
  721POPC   NC312971   7.779   0.631   9.559
  721POPC   PO412972   7.315   0.160   9.493
  721POPC   GL112973   7.436   0.463   9.214
  721POPC   GL212974   7.178   0.642   9.127
  721POPC   C1A12975   7.645   0.556   8.836
  721POPC   D2A12976   7.823   0.633   8.416
  721POPC   C3A12977   7.500   0.600   8.090
  721POPC   C4A12978   7.426   0.654   7.648
  721POPC   C1B12979   7.167   0.355   8.761
  721POPC   C2B12980   7.215   0.255   8.320
  721POPC   C3B12981   7.043   0.382   7.913
  721POPC   C4B12982   7.053   0.105   7.541
  722POPC   NC312983  41.029   7.117   9.488
  722POPC   PO412984  40.629   7.535   9.922
  722POPC   GL112985  40.792   7.569   9.427
  722POPC   GL212986  40.563   7.536   9.134
  722POPC   C1A12987  41.039   7.580   8.993
  722POPC   D2A12988  41.110   7.331   8.604
  722POPC   C3A12989  41.101   7.462   8.145
  722POPC   C4A12990  40.812   7.561   7.782
  722POPC   C1B12991  40.596   7.285   8.745
  722POPC   C2B12992  40.398   7.096   8.383
  722POPC   C3B12993  40.451   7.255   7.980
  722POPC   C4B12994  40.588   7.140   7.559
  723POPC   NC312995  21.893   7.312   9.475
  723POPC   PO412996  22.467   7.009   9.416
  723POPC   GL112997  22.287   7.291   9.118
  723POPC   GL212998  22.052   7.603   9.086
  723POPC   C1A12999  22.108   7.209   8.720
  723POPC   D2A13000  22.141   7.520   8.386
  723POPC   C3A13001  22.183   7.391   7.949
  723POPC   C4A13002  21.901   7.433   7.631
  723POPC   C1B13003  21.736   7.549   8.753
  723POPC   C2B13004  21.656   7.271   8.423
  723POPC   C3B13005  21.718   7.473   8.092
  723POPC   C4B13006  21.743   7.855   7.856
  724POPC   NC313007  22.740   7.413   9.434
  724POPC   PO413008  23.226   6.865   9.476
  724POPC   GL113009  23.139   7.226   9.178
  724POPC   GL213010  22.819   7.117   9.031
  724POPC   C1A13011  23.084   7.530   8.807
  724POPC   D2A13012  22.898   7.652   8.396
  724POPC   C3A13013  23.050   7.384   8.044
  724POPC   C4A13014  23.091   7.238   7.610
  724POPC   C1B13015  22.616   7.308   8.696
  724POPC   C2B13016  22.580   7.282   8.264
  724POPC   C3B13017  22.609   7.617   7.971
  724POPC   C4B13018  22.579   7.448   7.575
  725POPC   NC313019   6.304   9.123   9.308
  725POPC   PO413020   5.781   8.728   9.587
  725POPC   GL113021   5.875   8.851   9.194
  725POPC   GL213022   5.798   9.189   9.208
  725POPC   C1A13023   5.948   8.705   8.791
  725POPC   D2A13024   6.054   8.907   8.426
  725POPC   C3A13025   5.822   8.921   8.053
  725POPC   C4A13026   5.977   8.938   7.659
  725POPC   C1B13027   5.962   9.282   8.785
  725POPC   C2B13028   5.814   9.350   8.377
  725POPC   C3B13029   6.014   9.391   7.953
  725POPC   C4B13030   5.748   9.385   7.583
  726POPC   NC313031   0.844   3.120   9.515
  726POPC   PO413032   0.211   3.002   9.623
  726POPC   GL113033   0.430   2.884   9.234
  726POPC   GL213034   0.572   2.558   9.261
  726POPC   C1A13035   0.668   2.906   8.829
  726POPC   D2A13036   0.502   2.734   8.419
  726POPC   C3A13037   0.558   3.020   8.089
  726POPC   C4A13038   0.748   2.980   7.698
  726POPC   C1B13039   0.380   2.492   8.875
  726POPC   C2B13040   0.089   2.417   8.551
  726POPC   C3B13041   0.144   2.398   8.107
  726POPC   C4B13042   0.478   2.568   7.849
  727POPC   NC313043  21.311  10.548   9.649
  727POPC   PO413044  20.926  10.093   9.299
  727POPC   GL113045  21.243  10.253   9.043
  727POPC   GL213046  21.468  10.549   9.158
  727POPC   C1A13047  21.294  10.157   8.608
  727POPC   D2A13048  21.573  10.336   8.302
  727POPC   C3A13049  21.473  10.301   7.866
  727POPC   C4A13050  21.135  10.335   7.582
  727POPC   C1B13051  21.448  10.658   8.717
  727POPC   C2B13052  21.138  10.623   8.363
  727POPC   C3B13053  21.125  10.747   7.936
  727POPC   C4B13054  21.494  10.775   7.725
  728POPC   NC313055  15.828  29.598   9.260
  728POPC   PO413056  16.098  30.184   9.583
  728POPC   GL113057  15.876  30.150   9.220
  728POPC   GL213058  15.519  30.105   9.307
  728POPC   C1A13059  16.083  30.135   8.811
  728POPC   D2A13060  16.157  30.393   8.453
  728POPC   C3A13061  16.134  30.108   8.098
  728POPC   C4A13062  15.945  29.804   7.804
  728POPC   C1B13063  15.504  30.095   8.852
  728POPC   C2B13064  15.672  30.197   8.455
  728POPC   C3B13065  15.619  30.117   8.028
  728POPC   C4B13066  15.873  30.323   7.701
  729POPC   NC313067   9.655  30.079   9.440
  729POPC   PO413068  10.105  29.592   9.565
  729POPC   GL113069   9.917  29.700   9.190
  729POPC   GL213070  10.203  29.856   9.073
  729POPC   C1A13071   9.786  29.987   8.814
  729POPC   D2A13072   9.485  30.171   8.523
  729POPC   C3A13073   9.737  30.221   8.169
  729POPC   C4A13074   9.815  29.931   7.811
  729POPC   C1B13075  10.098  29.565   8.740
  729POPC   C2B13076   9.918  29.729   8.352
  729POPC   C3B13077  10.081  29.536   7.989
  729POPC   C4B13078  10.117  29.591   7.552
  730POPC   NC313079  14.453  10.978   9.470
  730POPC   PO413080  14.621  11.563   9.357
  730POPC   GL113081  14.304  11.322   9.098
  730POPC   GL213082  14.051  11.049   9.164
  730POPC   C1A13083  14.171  11.333   8.688
  730POPC   D2A13084  14.454  11.344   8.355
  730POPC   C3A13085  14.247  11.232   8.024
  730POPC   C4A13086  14.105  11.459   7.734
  730POPC   C1B13087  13.915  10.896   8.770
  730POPC   C2B13088  13.906  11.012   8.344
  730POPC   C3B13089  13.949  10.813   7.927
  730POPC   C4B13090  14.136  11.000   7.550
  731POPC   NC313091  13.131   8.980   9.297
  731POPC   PO413092  12.727   9.437   9.575
  731POPC   GL113093  12.669   9.181   9.204
  731POPC   GL213094  12.527   8.892   9.334
  731POPC   C1A13095  12.892   9.177   8.746
  731POPC   D2A13096  13.199   8.923   8.491
  731POPC   C3A13097  13.142   9.066   8.057
  731POPC   C4A13098  13.073   9.245   7.647
  731POPC   C1B13099  12.611   8.765   8.905
  731POPC   C2B13100  12.528   8.896   8.489
  731POPC   C3B13101  12.479   8.819   8.067
  731POPC   C4B13102  12.743   8.884   7.718
  732POPC   NC313103  40.393   7.131   9.796
  732POPC   PO413104  39.892   7.409   9.451
  732POPC   GL113105  39.849   7.495   9.071
  732POPC   GL213106  40.107   7.736   9.053
  732POPC   C1A13107  39.734   7.231   8.766
  732POPC   D2A13108  39.898   6.987   8.442
  732POPC   C3A13109  39.827   7.117   8.041
  732POPC   C4A13110  40.032   7.354   7.739
  732POPC   C1B13111  40.142   7.505   8.647
  732POPC   C2B13112  40.043   7.576   8.215
  732POPC   C3B13113  40.303   7.768   7.885
  732POPC   C4B13114  40.379   7.609   7.470
  733POPC   NC313115  32.722  19.640   9.467
  733POPC   PO413116  33.376  19.596   9.188
  733POPC   GL113117  33.037  19.820   9.016
  733POPC   GL213118  32.690  19.951   9.059
  733POPC   C1A13119  33.003  19.729   8.574
  733POPC   D2A13120  32.789  19.489   8.272
  733POPC   C3A13121  32.905  19.633   7.857
  733POPC   C4A13122  33.301  19.838   7.689
  733POPC   C1B13123  32.796  20.166   8.665
  733POPC   C2B13124  33.051  20.349   8.346
  733POPC   C3B13125  33.156  20.299   7.918
  733POPC   C4B13126  32.806  20.138   7.766
  734POPC   NC313127  25.776  33.628   9.489
  734POPC   PO413128  26.356  33.998   9.435
  734POPC   GL113129  26.071  33.893   9.097
  734POPC   GL213130  25.732  33.952   9.111
  734POPC   C1A13131  25.966  33.971   8.672
  734POPC   D2A13132  26.221  33.810   8.414
  734POPC   C3A13133  26.070  33.790   8.041
  734POPC   C4A13134  26.276  33.727   7.694
  734POPC   C1B13135  25.659  33.579   8.838
  734POPC   C2B13136  25.762  33.545   8.384
  734POPC   C3B13137  25.589  33.618   7.939
  734POPC   C4B13138  25.795  33.729   7.537
  735POPC   NC313139  24.457  15.762   9.694
  735POPC   PO413140  24.253  16.341   9.849
  735POPC   GL113141  24.260  16.151   9.364
  735POPC   GL213142  24.492  15.925   9.172
  735POPC   C1A13143  24.183  16.338   8.912
  735POPC   D2A13144  24.284  16.435   8.498
  735POPC   C3A13145  24.435  16.117   8.222
  735POPC   C4A13146  24.228  16.071   7.862
  735POPC   C1B13147  24.379  15.920   8.702
  735POPC   C2B13148  24.161  15.648   8.381
  735POPC   C3B13149  24.242  15.577   7.941
  735POPC   C4B13150  24.585  15.793   7.642
  736POPC   NC313151  34.869  31.440   9.686
  736POPC   PO413152  35.532  31.487   9.464
  736POPC   GL113153  35.373  31.350   9.124
  736POPC   GL213154  35.692  31.201   9.038
  736POPC   C1A13155  35.169  31.470   8.770
  736POPC   D2A13156  35.074  31.683   8.381
  736POPC   C3A13157  35.180  31.472   8.021
  736POPC   C4A13158  35.061  31.294   7.649
  736POPC   C1B13159  35.709  31.479   8.757
  736POPC   C2B13160  35.524  31.384   8.395
  736POPC   C3B13161  35.674  31.489   8.012
  736POPC   C4B13162  35.482  31.609   7.604
  737POPC   NC313163  25.472  36.635   9.517
  737POPC   PO413164  25.090  37.145   9.501
  737POPC   GL113165  25.046  36.839   9.178
  737POPC   GL213166  25.312  36.639   9.039
  737POPC   C1A13167  25.004  36.937   8.735
  737POPC   D2A13168  24.928  36.783   8.305
  737POPC   C3A13169  24.998  37.137   8.058
  737POPC   C4A13170  25.047  37.243   7.634
  737POPC   C1B13171  25.355  36.576   8.600
  737POPC   C2B13172  25.432  36.914   8.288
  737POPC   C3B13173  25.460  36.981   7.838
  737POPC   C4B13174  25.704  36.828   7.499
  738POPC   NC313175   4.121  32.480   9.293
  738POPC   PO413176   4.523  31.956   9.607
  738POPC   GL113177   4.561  32.170   9.213
  738POPC   GL213178   4.598  32.489   9.022
  738POPC   C1A13179   4.342  32.080   8.822
  738POPC   D2A13180   4.407  32.031   8.368
  738POPC   C3A13181   4.180  32.305   8.081
  738POPC   C4A13182   4.015  32.194   7.641
  738POPC   C1B13183   4.814  32.231   8.671
  738POPC   C2B13184   4.895  32.034   8.230
  738POPC   C3B13185   4.625  32.157   7.838
  738POPC   C4B13186   4.453  32.360   7.440
  739POPC   NC313187  23.235  18.193   9.444
  739POPC   PO413188  22.645  18.540   9.647
  739POPC   GL113189  22.852  18.559   9.229
  739POPC   GL213190  22.910  18.250   9.072
  739POPC   C1A13191  22.939  18.659   8.781
  739POPC   D2A13192  22.854  18.416   8.439
  739POPC   C3A13193  22.845  18.601   8.078
  739POPC   C4A13194  22.888  18.422   7.670
  739POPC   C1B13195  23.131  18.107   8.750
  739POPC   C2B13196  23.001  17.911   8.395
  739POPC   C3B13197  23.038  18.071   8.013
  739POPC   C4B13198  22.941  17.880   7.678
  740POPC   NC313199   9.067  22.751   9.747
  740POPC   PO413200   8.510  23.011   9.549
  740POPC   GL113201   8.940  22.942   9.304
  740POPC   GL213202   9.067  22.636   9.168
  740POPC   C1A13203   9.093  23.059   8.885
  740POPC   D2A13204   8.866  23.044   8.485
  740POPC   C3A13205   8.995  23.256   8.130
  740POPC   C4A13206   9.101  23.005   7.762
  740POPC   C1B13207   9.003  22.604   8.692
  740POPC   C2B13208   9.154  22.693   8.234
  740POPC   C3B13209   8.969  22.497   7.858
  740POPC   C4B13210   8.566  22.492   7.700
  741POPC   NC313211   9.817  44.567   9.670
  741POPC   PO413212   9.562   0.075   9.482
  741POPC   GL113213   9.552  44.704   9.232
  741POPC   GL213214   9.912  44.746   9.202
  741POPC   C1A13215   9.600  44.708   8.790
  741POPC   D2A13216   9.565  44.969   8.463
  741POPC   C3A13217   9.450  44.792   8.116
  741POPC   C4A13218   9.497  44.546   7.780
  741POPC   C1B13219   9.988  44.419   8.933
  741POPC   C2B13220  10.063  44.432   8.505
  741POPC   C3B13221   9.934  44.581   8.092
  741POPC   C4B13222   9.947  44.352   7.702
  742POPC   NC313223  10.047   6.422   9.416
  742POPC   PO413224   9.372   6.690   9.359
  742POPC   GL113225   9.728   6.762   9.147
  742POPC   GL213226   9.924   7.031   9.296
  742POPC   C1A13227   9.843   6.497   8.812
  742POPC   D2A13228   9.765   6.307   8.439
  742POPC   C3A13229   9.660   6.563   8.099
  742POPC   C4A13230   9.812   6.494   7.690
  742POPC   C1B13231  10.084   6.986   8.860
  742POPC   C2B13232   9.877   6.861   8.459
  742POPC   C3B13233  10.015   6.902   8.015
  742POPC   C4B13234  10.103   6.935   7.600
  743POPC   NC313235  15.691  17.447   9.561
  743POPC   PO413236  15.811  17.951   9.188
  743POPC   GL113237  15.833  17.532   9.039
  743POPC   GL213238  16.192  17.460   9.079
  743POPC   C1A13239  15.643  17.517   8.623
  743POPC   D2A13240  15.416  17.621   8.242
  743POPC   C3A13241  15.687  17.482   7.953
  743POPC   C4A13242  15.813  17.166   7.693
  743POPC   C1B13243  16.147  17.559   8.619
  743POPC   C2B13244  16.158  17.403   8.163
  743POPC   C3B13245  16.248  17.498   7.706
  743POPC   C4B13246  16.276  17.850   7.339
  744POPC   NC313247  43.091  44.901   9.753
  744POPC   PO413248  43.375  44.461   9.414
  744POPC   GL113249  43.179  44.776   9.163
  744POPC   GL213250  42.899  44.628   8.955
  744POPC   C1A13251  43.227  44.915   8.733
  744POPC   D2A13252  42.998  44.686   8.420
  744POPC   C3A13253  43.260  44.728   8.087
  744POPC   C4A13254  43.199  44.964   7.720
  744POPC   C1B13255  43.280  44.402   8.792
  744POPC   C2B13256  43.395  44.323   8.412
  744POPC   C3B13257  43.096  44.237   8.103
  744POPC   C4B13258  43.076  44.437   7.712
  745POPC   NC313259  39.828  25.049   9.810
  745POPC   PO413260  40.267  25.421   9.542
  745POPC   GL113261  40.110  25.435   9.145
  745POPC   GL213262  40.448  25.511   9.058
  745POPC   C1A13263  39.984  25.282   8.742
  745POPC   D2A13264  40.066  25.059   8.376
  745POPC   C3A13265  39.900  25.303   8.064
  745POPC   C4A13266  39.876  25.264   7.653
  745POPC   C1B13267  40.282  25.747   8.724
  745POPC   C2B13268  40.290  25.532   8.343
  745POPC   C3B13269  40.372  25.375   7.937
  745POPC   C4B13270  40.257  25.578   7.579
  746POPC   NC313271   4.940  30.991   9.442
  746POPC   PO413272   5.246  31.606   9.461
  746POPC   GL113273   4.992  31.718   9.140
  746POPC   GL213274   4.922  31.364   9.072
  746POPC   C1A13275   4.944  31.745   8.703
  746POPC   D2A13276   4.991  31.523   8.343
  746POPC   C3A13277   5.195  31.669   7.999
  746POPC   C4A13278   5.070  31.936   7.688
  746POPC   C1B13279   5.270  31.320   8.759
  746POPC   C2B13280   5.248  31.089   8.340
  746POPC   C3B13281   4.977  31.164   7.961
  746POPC   C4B13282   5.148  31.353   7.594
  747POPC   NC313283  12.010   4.181   9.620
  747POPC   PO413284  12.183   4.871   9.657
  747POPC   GL113285  12.133   4.520   9.238
  747POPC   GL213286  12.183   4.120   9.162
  747POPC   C1A13287  12.160   4.438   8.765
  747POPC   D2A13288  12.334   4.548   8.342
  747POPC   C3A13289  12.065   4.692   8.010
  747POPC   C4A13290  11.814   4.566   7.668
  747POPC   C1B13291  12.398   3.957   8.815
  747POPC   C2B13292  12.223   4.027   8.432
  747POPC   C3B13293  11.998   4.180   8.076
  747POPC   C4B13294  12.222   4.249   7.716
  748POPC   NC313295  12.169  38.078   9.794
  748POPC   PO413296  12.010  38.573   9.331
  748POPC   GL113297  12.182  38.387   9.036
  748POPC   GL213298  11.866  38.326   8.902
  748POPC   C1A13299  12.306  38.220   8.670
  748POPC   D2A13300  12.491  38.438   8.394
  748POPC   C3A13301  12.216  38.420   8.095
  748POPC   C4A13302  12.154  38.265   7.717
  748POPC   C1B13303  11.740  37.971   8.702
  748POPC   C2B13304  11.880  38.029   8.309
  748POPC   C3B13305  11.723  38.191   7.949
  748POPC   C4B13306  11.797  37.955   7.549
  749POPC   NC313307  41.227  11.204   9.479
  749POPC   PO413308  41.874  11.415   9.523
  749POPC   GL113309  41.643  11.225   9.190
  749POPC   GL213310  41.480  11.507   9.098
  749POPC   C1A13311  41.768  11.125   8.766
  749POPC   D2A13312  41.927  10.949   8.353
  749POPC   C3A13313  41.615  10.974   8.079
  749POPC   C4A13314  41.555  11.152   7.687
  749POPC   C1B13315  41.422  11.770   8.748
  749POPC   C2B13316  41.309  11.697   8.312
  749POPC   C3B13317  41.481  11.606   7.888
  749POPC   C4B13318  41.404  11.579   7.396
  750POPC   NC313319  21.505  20.844   9.424
  750POPC   PO413320  20.899  20.549   9.571
  750POPC   GL113321  21.164  20.330   9.226
  750POPC   GL213322  21.508  20.453   9.107
  750POPC   C1A13323  21.122  20.481   8.786
  750POPC   D2A13324  21.161  20.684   8.406
  750POPC   C3A13325  21.300  20.487   8.045
  750POPC   C4A13326  21.243  20.701   7.685
  750POPC   C1B13327  21.586  20.714   8.707
  750POPC   C2B13328  21.759  20.553   8.301
  750POPC   C3B13329  21.749  20.606   7.841
  750POPC   C4B13330  21.706  20.715   7.406
  751POPC   NC313331  11.917  38.108   9.361
  751POPC   PO413332  12.251  37.607   9.691
  751POPC   GL113333  12.163  37.604   9.220
  751POPC   GL213334  12.156  37.872   9.006
  751POPC   C1A13335  11.927  37.463   8.829
  751POPC   D2A13336  11.788  37.503   8.397
  751POPC   C3A13337  12.013  37.618   8.021
  751POPC   C4A13338  11.901  37.468   7.637
  751POPC   C1B13339  12.506  37.756   8.809
  751POPC   C2B13340  12.337  37.748   8.411
  751POPC   C3B13341  12.431  37.947   8.037
  751POPC   C4B13342  12.313  37.793   7.626
  752POPC   NC313343  13.187  19.550   9.367
  752POPC   PO413344  13.837  19.607   9.572
  752POPC   GL113345  13.965  19.829   9.199
  752POPC   GL213346  14.016  20.190   9.158
  752POPC   C1A13347  13.888  19.813   8.770
  752POPC   D2A13348  13.571  19.732   8.452
  752POPC   C3A13349  13.689  19.438   8.126
  752POPC   C4A13350  13.492  19.262   7.753
  752POPC   C1B13351  13.638  20.229   8.915
  752POPC   C2B13352  13.762  20.235   8.467
  752POPC   C3B13353  13.899  19.971   8.132
  752POPC   C4B13354  13.703  19.832   7.756
  753POPC   NC313355  34.408  17.991   9.509
  753POPC   PO413356  35.000  18.194   9.490
  753POPC   GL113357  34.755  18.151   9.113
  753POPC   GL213358  34.397  18.274   9.075
  753POPC   C1A13359  34.747  18.385   8.726
  753POPC   D2A13360  34.806  18.206   8.341
  753POPC   C3A13361  34.898  18.341   7.952
  753POPC   C4A13362  34.613  18.092   7.729
  753POPC   C1B13363  34.168  18.220   8.674
  753POPC   C2B13364  34.302  18.133   8.225
  753POPC   C3B13365  34.114  18.207   7.839
  753POPC   C4B13366  34.255  18.307   7.409
  754POPC   NC313367  31.144  25.701   9.409
  754POPC   PO413368  30.626  26.038   9.500
  754POPC   GL113369  30.556  25.956   9.097
  754POPC   GL213370  30.729  25.648   9.101
  754POPC   C1A13371  30.446  26.088   8.654
  754POPC   D2A13372  30.334  25.825   8.262
  754POPC   C3A13373  30.451  26.024   7.861
  754POPC   C4A13374  30.834  26.284   7.806
  754POPC   C1B13375  30.634  25.637   8.709
  754POPC   C2B13376  30.899  25.684   8.369
  754POPC   C3B13377  30.910  25.728   7.944
  754POPC   C4B13378  30.600  25.539   7.730
  755POPC   NC313379   5.192  37.061   9.528
  755POPC   PO413380   4.651  36.577   9.512
  755POPC   GL113381   4.950  36.826   9.157
  755POPC   GL213382   5.312  37.001   9.056
  755POPC   C1A13383   4.934  37.009   8.734
  755POPC   D2A13384   5.233  36.981   8.408
  755POPC   C3A13385   5.055  36.851   8.029
  755POPC   C4A13386   5.123  37.089   7.688
  755POPC   C1B13387   5.278  36.627   8.793
  755POPC   C2B13388   5.150  36.462   8.384
  755POPC   C3B13389   5.357  36.429   7.973
  755POPC   C4B13390   5.335  36.646   7.572
  756POPC   NC313391   2.842   1.675   9.492
  756POPC   PO413392   2.732   2.338   9.524
  756POPC   GL113393   2.585   2.056   9.170
  756POPC   GL213394   2.897   1.950   9.060
  756POPC   C1A13395   2.555   1.852   8.725
  756POPC   D2A13396   2.798   1.933   8.336
  756POPC   C3A13397   2.579   2.001   7.936
  756POPC   C4A13398   2.835   1.824   7.599
  756POPC   C1B13399   2.862   2.272   8.753
  756POPC   C2B13400   3.016   2.391   8.342
  756POPC   C3B13401   3.063   2.210   7.930
  756POPC   C4B13402   2.812   2.332   7.572
  757POPC   NC313403   6.400   1.008   9.481
  757POPC   PO413404   6.655   1.586   9.529
  757POPC   GL113405   6.668   1.347   9.151
  757POPC   GL213406   6.304   1.359   9.094
  757POPC   C1A13407   6.842   1.524   8.752
  757POPC   D2A13408   6.703   1.533   8.336
  757POPC   C3A13409   6.946   1.308   8.048
  757POPC   C4A13410   6.986   0.925   7.817
  757POPC   C1B13411   6.489   1.190   8.679
  757POPC   C2B13412   6.609   0.991   8.294
  757POPC   C3B13413   6.484   1.102   7.873
  757POPC   C4B13414   6.328   1.212   7.450
  758POPC   NC313415  35.742  41.796   9.484
  758POPC   PO413416  35.019  41.855   9.438
  758POPC   GL113417  35.284  41.689   9.093
  758POPC   GL213418  35.658  41.702   9.008
  758POPC   C1A13419  35.302  41.483   8.725
  758POPC   D2A13420  35.049  41.460   8.397
  758POPC   C3A13421  35.190  41.368   8.016
  758POPC   C4A13422  34.916  41.456   7.731
  758POPC   C1B13423  35.648  41.828   8.612
  758POPC   C2B13424  35.460  41.728   8.263
  758POPC   C3B13425  35.196  41.875   7.959
  758POPC   C4B13426  35.432  41.997   7.633
  759POPC   NC313427  28.799  12.445   9.455
  759POPC   PO413428  28.956  13.044   9.650
  759POPC   GL113429  29.067  12.829   9.182
  759POPC   GL213430  29.125  12.473   9.059
  759POPC   C1A13431  29.006  12.781   8.696
  759POPC   D2A13432  29.071  12.853   8.259
  759POPC   C3A13433  28.727  12.986   7.976
  759POPC   C4A13434  28.417  12.833   7.654
  759POPC   C1B13435  29.419  12.455   8.685
  759POPC   C2B13436  29.524  12.608   8.259
  759POPC   C3B13437  29.380  12.793   7.855
  759POPC   C4B13438  29.542  12.892   7.463
  760POPC   NC313439  21.135   7.826   9.434
  760POPC   PO413440  21.532   8.379   9.411
  760POPC   GL113441  21.370   8.210   9.088
  760POPC   GL213442  21.076   8.432   9.132
  760POPC   C1A13443  21.569   8.054   8.707
  760POPC   D2A13444  21.842   7.947   8.379
  760POPC   C3A13445  21.687   8.268   8.147
  760POPC   C4A13446  21.521   8.361   7.748
  760POPC   C1B13447  20.950   8.091   8.849
  760POPC   C2B13448  21.097   8.122   8.459
  760POPC   C3B13449  21.152   8.133   8.044
  760POPC   C4B13450  20.842   8.045   7.760
  761POPC   NC313451   2.613   3.511   9.427
  761POPC   PO413452   3.210   3.731   9.533
  761POPC   GL113453   3.062   3.550   9.140
  761POPC   GL213454   2.817   3.283   9.013
  761POPC   C1A13455   3.126   3.634   8.727
  761POPC   D2A13456   2.958   3.850   8.407
  761POPC   C3A13457   2.992   3.597   8.066
  761POPC   C4A13458   2.971   3.711   7.655
  761POPC   C1B13459   2.614   3.614   8.738
  761POPC   C2B13460   2.500   3.613   8.295
  761POPC   C3B13461   2.483   3.807   7.881
  761POPC   C4B13462   2.505   3.629   7.469
  762POPC   NC313463  10.298  37.647   9.696
  762POPC   PO413464  10.835  38.013   9.527
  762POPC   GL113465  10.661  37.944   9.161
  762POPC   GL213466  10.618  37.597   9.236
  762POPC   C1A13467  10.502  38.097   8.777
  762POPC   D2A13468  10.202  37.985   8.435
  762POPC   C3A13469  10.308  37.889   7.990
  762POPC   C4A13470  10.647  38.028   7.685
  762POPC   C1B13471  10.372  37.605   8.879
  762POPC   C2B13472  10.258  37.418   8.517
  762POPC   C3B13473  10.317  37.238   8.137
  762POPC   C4B13474  10.445  37.401   7.770
  763POPC   NC313475  31.146  38.558   9.437
  763POPC   PO413476  31.738  38.294   9.469
  763POPC   GL113477  31.541  38.426   9.138
  763POPC   GL213478  31.586  38.100   9.021
  763POPC   C1A13479  31.334  38.482   8.762
  763POPC   D2A13480  31.544  38.522   8.384
  763POPC   C3A13481  31.674  38.795   8.061
  763POPC   C4A13482  31.495  38.892   7.653
  763POPC   C1B13483  31.833  37.966   8.678
  763POPC   C2B13484  31.815  38.106   8.284
  763POPC   C3B13485  31.619  38.296   7.926
  763POPC   C4B13486  31.675  38.161   7.530
  764POPC   NC313487   2.275   2.448   9.538
  764POPC   PO413488   1.725   2.067   9.481
  764POPC   GL113489   1.977   1.941   9.125
  764POPC   GL213490   2.108   2.247   9.095
  764POPC   C1A13491   2.049   1.848   8.677
  764POPC   D2A13492   1.912   1.887   8.237
  764POPC   C3A13493   2.014   1.949   7.808
  764POPC   C4A13494   1.780   2.307   7.739
  764POPC   C1B13495   2.344   2.318   8.763
  764POPC   C2B13496   2.343   2.182   8.372
  764POPC   C3B13497   2.181   2.375   8.051
  764POPC   C4B13498   2.309   2.353   7.659
  765POPC   NC313499  37.360  36.415   9.749
  765POPC   PO413500  37.953  36.188   9.453
  765POPC   GL113501  37.656  36.147   9.132
  765POPC   GL213502  37.686  35.819   9.102
  765POPC   C1A13503  37.711  36.129   8.691
  765POPC   D2A13504  37.544  36.147   8.265
  765POPC   C3A13505  37.728  36.340   7.879
  765POPC   C4A13506  37.804  36.120   7.435
  765POPC   C1B13507  37.395  35.712   8.799
  765POPC   C2B13508  37.296  35.662   8.374
  765POPC   C3B13509  37.561  35.643   8.055
  765POPC   C4B13510  37.907  35.866   7.876
  766POPC   NC313511  42.681  32.563   9.508
  766POPC   PO413512  42.017  32.373   9.528
  766POPC   GL113513  42.145  32.181   9.144
  766POPC   GL213514  42.463  32.256   9.133
  766POPC   C1A13515  42.289  32.057   8.690
  766POPC   D2A13516  42.528  31.921   8.356
  766POPC   C3A13517  42.355  32.041   7.987
  766POPC   C4A13518  42.516  32.193   7.584
  766POPC   C1B13519  42.443  32.526   8.780
  766POPC   C2B13520  42.593  32.449   8.355
  766POPC   C3B13521  42.428  32.544   7.944
  766POPC   C4B13522  42.313  32.670   7.521
  767POPC   NC313523   6.554   9.994   9.537
  767POPC   PO413524   7.055   9.512   9.481
  767POPC   GL113525   6.798   9.679   9.122
  767POPC   GL213526   6.755  10.054   9.058
  767POPC   C1A13527   6.577   9.477   8.774
  767POPC   D2A13528   6.332   9.359   8.400
  767POPC   C3A13529   6.550   9.506   8.033
  767POPC   C4A13530   6.420   9.643   7.624
  767POPC   C1B13531   6.880   9.962   8.648
  767POPC   C2B13532   6.874   9.875   8.216
  767POPC   C3B13533   6.793   9.966   7.793
  767POPC   C4B13534   6.984  10.237   7.437
  768POPC   NC313535  41.927  37.829   9.580
  768POPC   PO413536  41.317  37.421   9.557
  768POPC   GL113537  41.536  37.638   9.260
  768POPC   GL213538  41.790  37.365   9.295
  768POPC   C1A13539  41.498  37.848   8.849
  768POPC   D2A13540  41.597  37.633   8.458
  768POPC   C3A13541  41.450  37.716   8.038
  768POPC   C4A13542  41.589  37.579   7.629
  768POPC   C1B13543  41.818  37.435   8.883
  768POPC   C2B13544  42.074  37.384   8.529
  768POPC   C3B13545  41.986  37.506   8.103
  768POPC   C4B13546  41.942  37.246   7.753
  769POPC   NC313547  33.607  23.342   9.627
  769POPC   PO413548  33.934  23.949   9.475
  769POPC   GL113549  33.655  23.684   9.243
  769POPC   GL213550  33.501  23.878   9.031
  769POPC   C1A13551  33.671  23.444   8.832
  769POPC   D2A13552  33.850  23.485   8.407
  769POPC   C3A13553  33.645  23.572   7.992
  769POPC   C4A13554  33.964  23.616   7.653
  769POPC   C1B13555  33.651  23.943   8.609
  769POPC   C2B13556  33.511  24.013   8.189
  769POPC   C3B13557  33.674  24.050   7.762
  769POPC   C4B13558  33.445  24.187   7.357
  770POPC   NC313559   0.449  17.590   9.517
  770POPC   PO413560   0.053  17.078   9.304
  770POPC   GL113561   0.365  17.317   9.115
  770POPC   GL213562   0.248  17.679   9.066
  770POPC   C1A13563   0.681  17.421   8.818
  770POPC   D2A13564   0.658  17.617   8.415
  770POPC   C3A13565   0.694  17.375   8.084
  770POPC   C4A13566   0.357  17.330   7.870
  770POPC   C1B13567   0.129  17.452   8.695
  770POPC   C2B13568   0.055  17.597   8.308
  770POPC   C3B13569   0.169  17.801   7.956
  770POPC   C4B13570   0.009  17.601   7.606
  771POPC   NC313571  23.791  16.481   9.890
  771POPC   PO413572  24.000  17.063   9.537
  771POPC   GL113573  23.834  16.807   9.151
  771POPC   GL213574  23.474  16.699   9.198
  771POPC   C1A13575  23.963  16.785   8.698
  771POPC   D2A13576  23.912  16.969   8.279
  771POPC   C3A13577  23.860  16.743   7.922
  771POPC   C4A13578  24.028  16.475   7.663
  771POPC   C1B13579  23.579  16.478   8.810
  771POPC   C2B13580  23.631  16.504   8.376
  771POPC   C3B13581  23.577  16.325   7.975
  771POPC   C4B13582  23.518  16.479   7.545
  772POPC   NC313583  24.886  30.247   9.421
  772POPC   PO413584  24.474  30.807   9.499
  772POPC   GL113585  24.333  30.753   9.105
  772POPC   GL213586  24.296  30.398   9.016
  772POPC   C1A13587  24.390  30.983   8.727
  772POPC   D2A13588  24.669  30.933   8.417
  772POPC   C3A13589  24.440  30.841   8.083
  772POPC   C4A13590  24.473  30.945   7.696
  772POPC   C1B13591  24.616  30.506   8.709
  772POPC   C2B13592  24.658  30.406   8.241
  772POPC   C3B13593  24.491  30.432   7.775
  772POPC   C4B13594  24.231  30.371   7.373
  773POPC   NC313595  16.730  31.805   9.434
  773POPC   PO413596  16.313  31.315   9.355
  773POPC   GL113597  16.528  31.542   9.037
  773POPC   GL213598  16.896  31.532   9.064
  773POPC   C1A13599  16.662  31.471   8.630
  773POPC   D2A13600  16.820  31.713   8.329
  773POPC   C3A13601  16.614  31.507   8.037
  773POPC   C4A13602  16.772  31.369   7.712
  773POPC   C1B13603  17.114  31.781   8.773
  773POPC   C2B13604  17.336  31.774   8.369
  773POPC   C3B13605  17.166  31.611   7.961
  773POPC   C4B13606  17.064  31.766   7.558
  774POPC   NC313607  15.821  41.210   9.585
  774POPC   PO413608  16.398  41.285   9.550
  774POPC   GL113609  16.228  41.227   9.104
  774POPC   GL213610  15.862  41.265   9.066
  774POPC   C1A13611  16.127  41.200   8.639
  774POPC   D2A13612  15.871  41.485   8.374
  774POPC   C3A13613  15.773  41.388   7.967
  774POPC   C4A13614  16.099  41.337   7.705
  774POPC   C1B13615  15.538  41.322   8.721
  774POPC   C2B13616  15.355  41.461   8.297
  774POPC   C3B13617  15.450  41.784   7.970
  774POPC   C4B13618  15.823  42.029   7.785
  775POPC   NC313619  43.561  30.039   9.425
  775POPC   PO413620  43.908  29.558   9.762
  775POPC   GL113621  43.874  29.672   9.275
  775POPC   GL213622  43.762  29.453   9.110
  775POPC   C1A13623  44.028  29.834   8.854
  775POPC   D2A13624  43.886  30.119   8.525
  775POPC   C3A13625  43.972  30.071   8.067
  775POPC   C4A13626  44.340  29.877   7.884
  775POPC   C1B13627  43.551  29.694   8.766
  775POPC   C2B13628  43.705  29.701   8.341
  775POPC   C3B13629  43.743  29.597   7.927
  775POPC   C4B13630  43.427  29.438   7.660
  776POPC   NC313631  14.647  22.623   9.410
  776POPC   PO413632  15.276  22.930   9.449
  776POPC   GL113633  15.390  22.860   9.050
  776POPC   GL213634  15.143  22.603   9.034
  776POPC   C1A13635  15.229  23.064   8.702
  776POPC   D2A13636  15.035  23.299   8.397
  776POPC   C3A13637  15.209  23.132   8.049
  776POPC   C4A13638  15.332  23.017   7.666
  776POPC   C1B13639  14.840  22.724   8.761
  776POPC   C2B13640  14.831  22.838   8.312
  776POPC   C3B13641  14.986  22.614   7.937
  776POPC   C4B13642  14.932  22.696   7.472
  777POPC   NC313643  24.964  18.834   9.431
  777POPC   PO413644  25.546  19.221   9.574
  777POPC   GL113645  25.281  19.198   9.218
  777POPC   GL213646  25.353  18.877   9.054
  777POPC   C1A13647  25.380  19.337   8.787
  777POPC   D2A13648  25.342  19.129   8.390
  777POPC   C3A13649  25.178  19.268   8.018
  777POPC   C4A13650  25.392  19.283   7.656
  777POPC   C1B13651  24.990  19.022   8.801
  777POPC   C2B13652  24.818  19.110   8.403
  777POPC   C3B13653  24.853  18.850   8.049
  777POPC   C4B13654  24.955  19.000   7.629
  778POPC   NC313655  39.060  42.418   9.421
  778POPC   PO413656  39.446  41.905   9.324
  778POPC   GL113657  39.490  42.260   9.051
  778POPC   GL213658  39.254  42.530   8.973
  778POPC   C1A13659  39.500  42.231   8.616
  778POPC   D2A13660  39.241  42.343   8.339
  778POPC   C3A13661  39.333  42.489   7.950
  778POPC   C4A13662  39.430  42.212   7.615
  778POPC   C1B13663  39.019  42.192   8.801
  778POPC   C2B13664  38.786  42.398   8.528
  778POPC   C3B13665  38.806  42.442   8.098
  778POPC   C4B13666  38.903  42.450   7.695
  779POPC   NC313667   6.376  24.024   9.515
  779POPC   PO413668   6.946  24.471   9.614
  779POPC   GL113669   6.772  24.276   9.213
  779POPC   GL213670   6.469  24.372   9.089
  779POPC   C1A13671   6.767  24.087   8.783
  779POPC   D2A13672   6.489  23.994   8.446
  779POPC   C3A13673   6.552  24.293   8.130
  779POPC   C4A13674   6.642  24.227   7.694
  779POPC   C1B13675   6.474  24.499   8.639
  779POPC   C2B13676   6.275  24.726   8.270
  779POPC   C3B13677   6.433  24.714   7.844
  779POPC   C4B13678   6.321  24.557   7.424
  780POPC   NC313679  31.852  18.255   9.513
  780POPC   PO413680  32.456  18.382   9.764
  780POPC   GL113681  32.424  18.409   9.266
  780POPC   GL213682  32.168  18.208   9.112
  780POPC   C1A13683  32.606  18.240   8.829
  780POPC   D2A13684  32.652  17.966   8.448
  780POPC   C3A13685  32.287  18.097   8.176
  780POPC   C4A13686  32.345  18.429   7.846
  780POPC   C1B13687  32.077  18.376   8.714
  780POPC   C2B13688  31.852  18.649   8.426
  780POPC   C3B13689  31.936  18.728   7.985
  780POPC   C4B13690  31.867  18.465   7.621
  781POPC   NC313691  32.643  17.958   9.423
  781POPC   PO413692  33.058  18.488   9.305
  781POPC   GL113693  33.237  18.322   8.963
  781POPC   GL213694  33.116  18.015   9.083
  781POPC   C1A13695  33.079  18.275   8.549
  781POPC   D2A13696  32.790  18.408   8.234
  781POPC   C3A13697  32.865  18.374   7.809
  781POPC   C4A13698  32.715  18.735   7.597
  781POPC   C1B13699  33.166  17.802   8.708
  781POPC   C2B13700  33.323  17.886   8.282
  781POPC   C3B13701  33.095  17.904   7.904
  781POPC   C4B13702  32.985  17.928   7.441
  782POPC   NC313703  33.431   9.132   9.595
  782POPC   PO413704  33.704   8.550   9.490
  782POPC   GL113705  33.820   8.835   9.192
  782POPC   GL213706  34.163   9.014   9.251
  782POPC   C1A13707  33.664   8.755   8.795
  782POPC   D2A13708  33.562   8.969   8.447
  782POPC   C3A13709  33.694   8.743   8.101
  782POPC   C4A13710  33.759   8.934   7.722
  782POPC   C1B13711  34.182   8.913   8.817
  782POPC   C2B13712  34.090   8.772   8.411
  782POPC   C3B13713  34.184   8.970   8.005
  782POPC   C4B13714  34.245   9.061   7.565
  783POPC   NC313715  14.351  39.372   9.501
  783POPC   PO413716  14.992  39.323   9.386
  783POPC   GL113717  14.617  39.189   9.117
  783POPC   GL213718  14.227  39.044   9.143
  783POPC   C1A13719  14.445  39.299   8.717
  783POPC   D2A13720  14.510  39.075   8.336
  783POPC   C3A13721  14.398  39.255   7.941
  783POPC   C4A13722  14.576  39.621   7.796
  783POPC   C1B13723  13.954  39.165   8.779
  783POPC   C2B13724  13.956  39.343   8.353
  783POPC   C3B13725  13.887  39.306   7.896
  783POPC   C4B13726  14.141  39.466   7.530
  784POPC   NC313727  13.471  32.259  10.006
  784POPC   PO413728  14.013  32.113   9.533
  784POPC   GL113729  13.871  32.165   9.139
  784POPC   GL213730  13.528  32.087   9.052
  784POPC   C1A13731  13.848  32.308   8.718
  784POPC   D2A13732  13.840  32.487   8.299
  784POPC   C3A13733  13.813  32.339   7.839
  784POPC   C4A13734  13.903  32.444   7.381
  784POPC   C1B13735  13.368  32.163   8.629
  784POPC   C2B13736  13.451  32.087   8.191
  784POPC   C3B13737  13.268  32.172   7.796
  784POPC   C4B13738  13.459  32.192   7.404
  785POPC   NC313739  22.824  29.355   9.491
  785POPC   PO413740  22.123  29.265   9.468
  785POPC   GL113741  22.267  29.118   9.113
  785POPC   GL213742  22.536  29.349   9.077
  785POPC   C1A13743  22.070  28.953   8.755
  785POPC   D2A13744  22.193  28.944   8.356
  785POPC   C3A13745  21.897  29.044   8.072
  785POPC   C4A13746  21.789  29.087   7.644
  785POPC   C1B13747  22.352  29.413   8.656
  785POPC   C2B13748  22.320  29.418   8.236
  785POPC   C3B13749  22.210  29.377   7.830
  785POPC   C4B13750  22.296  29.108   7.506
  786POPC   NC313751  29.793  42.550   9.379
  786POPC   PO413752  29.987  41.947   9.404
  786POPC   GL113753  30.101  42.181   9.044
  786POPC   GL213754  29.841  42.373   8.919
  786POPC   C1A13755  30.223  42.409   8.626
  786POPC   D2A13756  29.983  42.271   8.273
  786POPC   C3A13757  29.942  42.436   7.860
  786POPC   C4A13758  30.225  42.535   7.517
  786POPC   C1B13759  29.591  42.222   8.605
  786POPC   C2B13760  29.615  41.893   8.275
  786POPC   C3B13761  29.563  41.980   7.836
  786POPC   C4B13762  29.744  42.148   7.476
  787POPC   NC313763  41.586  12.739   9.499
  787POPC   PO413764  41.106  13.236   9.405
  787POPC   GL113765  41.498  13.144   9.186
  787POPC   GL213766  41.559  12.801   9.004
  787POPC   C1A13767  41.786  13.241   8.844
  787POPC   D2A13768  41.953  13.087   8.453
  787POPC   C3A13769  41.768  13.121   8.059
  787POPC   C4A13770  41.746  12.794   7.759
  787POPC   C1B13771  41.234  12.998   8.774
  787POPC   C2B13772  41.119  12.945   8.381
  787POPC   C3B13773  41.307  12.780   8.032
  787POPC   C4B13774  41.200  12.978   7.658
  788POPC   NC313775  38.600   7.011   9.552
  788POPC   PO413776  38.217   7.612   9.468
  788POPC   GL113777  38.461   7.523   9.124
  788POPC   GL213778  38.398   7.189   9.081
  788POPC   C1A13779  38.631   7.512   8.740
  788POPC   D2A13780  38.679   7.182   8.405
  788POPC   C3A13781  38.580   7.273   8.004
  788POPC   C4A13782  38.697   7.572   7.751
  788POPC   C1B13783  38.221   7.251   8.642
  788POPC   C2B13784  38.291   7.587   8.326
  788POPC   C3B13785  38.181   7.618   7.892
  788POPC   C4B13786  38.105   7.241   7.697
  789POPC   NC313787  11.180  24.301   9.704
  789POPC   PO413788  11.580  24.602   9.278
  789POPC   GL113789  11.226  24.499   9.080
  789POPC   GL213790  10.970  24.268   9.193
  789POPC   C1A13791  11.215  24.712   8.697
  789POPC   D2A13792  11.135  24.643   8.297
  789POPC   C3A13793  11.390  24.665   7.969
  789POPC   C4A13794  11.595  24.476   7.671
  789POPC   C1B13795  10.881  24.310   8.716
  789POPC   C2B13796  10.748  24.333   8.252
  789POPC   C3B13797  10.890  24.536   7.833
  789POPC   C4B13798  11.094  24.475   7.384
  790POPC   NC313799   2.165  16.930   9.590
  790POPC   PO413800   2.818  16.659   9.563
  790POPC   GL113801   2.852  16.480   9.188
  790POPC   GL213802   2.590  16.719   9.099
  790POPC   C1A13803   2.957  16.611   8.777
  790POPC   D2A13804   2.764  16.796   8.427
  790POPC   C3A13805   2.968  16.824   8.055
  790POPC   C4A13806   2.892  16.656   7.663
  790POPC   C1B13807   2.369  16.874   8.749
  790POPC   C2B13808   2.239  16.829   8.304
  790POPC   C3B13809   2.484  16.918   7.912
  790POPC   C4B13810   2.521  16.931   7.444
  791POPC   NC313811  15.522  42.261   9.625
  791POPC   PO413812  15.066  42.502   9.801
  791POPC   GL113813  15.098  42.447   9.305
  791POPC   GL213814  15.386  42.539   9.105
  791POPC   C1A13815  15.016  42.240   8.836
  791POPC   D2A13816  14.921  42.351   8.350
  791POPC   C3A13817  15.121  42.213   7.938
  791POPC   C4A13818  15.339  42.046   7.542
  791POPC   C1B13819  15.083  42.732   8.793
  791POPC   C2B13820  14.966  42.862   8.372
  791POPC   C3B13821  15.096  42.750   7.964
  791POPC   C4B13822  14.971  42.828   7.528
  792POPC   NC313823  36.321  12.961   9.821
  792POPC   PO413824  35.798  12.665   9.502
  792POPC   GL113825  35.770  12.807   9.088
  792POPC   GL213826  36.042  12.568   9.033
  792POPC   C1A13827  35.817  12.703   8.619
  792POPC   D2A13828  35.772  12.645   8.189
  792POPC   C3A13829  36.021  12.904   7.939
  792POPC   C4A13830  36.047  12.992   7.516
  792POPC   C1B13831  36.242  12.939   8.968
  792POPC   C2B13832  36.297  12.919   8.552
  792POPC   C3B13833  36.450  12.886   8.169
  792POPC   C4B13834  36.554  12.811   7.762
  793POPC   NC313835  33.817  31.121   9.670
  793POPC   PO413836  34.069  31.745   9.499
  793POPC   GL113837  33.826  31.503   9.234
  793POPC   GL213838  33.947  31.170   9.124
  793POPC   C1A13839  33.721  31.537   8.803
  793POPC   D2A13840  33.565  31.327   8.420
  793POPC   C3A13841  33.686  31.375   7.967
  793POPC   C4A13842  33.628  31.572   7.544
  793POPC   C1B13843  34.169  31.317   8.712
  793POPC   C2B13844  34.044  31.570   8.325
  793POPC   C3B13845  34.158  31.544   7.876
  793POPC   C4B13846  34.128  31.319   7.470
  794POPC   NC313847  23.382  12.194   9.405
  794POPC   PO413848  23.921  11.833   9.442
  794POPC   GL113849  23.739  11.992   9.110
  794POPC   GL213850  23.439  11.752   9.114
  794POPC   C1A13851  23.858  12.275   8.768
  794POPC   D2A13852  24.166  12.234   8.440
  794POPC   C3A13853  23.932  12.182   8.089
  794POPC   C4A13854  23.783  12.559   7.848
  794POPC   C1B13855  23.601  11.777   8.686
  794POPC   C2B13856  23.505  12.097   8.425
  794POPC   C3B13857  23.276  12.044   8.075
  794POPC   C4B13858  23.564  12.120   7.729
  795POPC   NC313859  11.018   5.636   9.536
  795POPC   PO413860  11.663   5.665   9.341
  795POPC   GL113861  11.310   5.758   9.127
  795POPC   GL213862  11.126   6.053   9.251
  795POPC   C1A13863  11.361   5.695   8.712
  795POPC   D2A13864  11.193   5.857   8.369
  795POPC   C3A13865  11.481   5.822   8.042
  795POPC   C4A13866  11.412   5.623   7.664
  795POPC   C1B13867  11.144   6.173   8.819
  795POPC   C2B13868  11.145   6.369   8.398
  795POPC   C3B13869  11.136   6.201   7.974
  795POPC   C4B13870  11.447   6.211   7.658
  796POPC   NC313871   6.138  20.533   9.708
  796POPC   PO413872   5.744  20.032   9.510
  796POPC   GL113873   5.860  20.233   9.134
  796POPC   GL213874   5.952  19.894   9.031
  796POPC   C1A13875   5.782  20.199   8.677
  796POPC   D2A13876   5.610  19.836   8.407
  796POPC   C3A13877   5.673  19.943   7.989
  796POPC   C4A13878   5.931  19.916   7.617
  796POPC   C1B13879   6.024  19.656   8.647
  796POPC   C2B13880   5.979  19.555   8.189
  796POPC   C3B13881   6.051  19.449   7.750
  796POPC   C4B13882   6.018  19.513   7.280
  797POPC   NC313883  28.535  19.894   9.560
  797POPC   PO413884  27.955  20.099   9.368
  797POPC   GL113885  28.240  19.927   9.074
  797POPC   GL213886  28.558  19.783   9.080
  797POPC   C1A13887  28.298  19.963   8.643
  797POPC   D2A13888  28.442  19.731   8.339
  797POPC   C3A13889  28.450  19.952   7.991
  797POPC   C4A13890  28.065  19.965   7.763
  797POPC   C1B13891  28.787  19.770   8.740
  797POPC   C2B13892  28.902  19.558   8.383
  797POPC   C3B13893  28.716  19.468   7.962
  797POPC   C4B13894  28.425  19.606   7.616
  798POPC   NC313895  11.205  30.287   9.706
  798POPC   PO413896  11.004  29.714   9.379
  798POPC   GL113897  11.348  29.951   9.272
  798POPC   GL213898  11.187  30.244   9.184
  798POPC   C1A13899  11.550  29.927   8.871
  798POPC   D2A13900  11.411  29.785   8.478
  798POPC   C3A13901  11.560  29.905   8.089
  798POPC   C4A13902  11.366  29.778   7.714
  798POPC   C1B13903  11.089  30.053   8.787
  798POPC   C2B13904  10.824  29.950   8.464
  798POPC   C3B13905  11.021  29.833   8.094
  798POPC   C4B13906  10.880  29.954   7.701
  799POPC   NC313907  42.021  20.137   9.494
  799POPC   PO413908  42.376  19.569   9.393
  799POPC   GL113909  42.148  19.791   9.099
  799POPC   GL213910  42.366  20.055   9.116
  799POPC   C1A13911  42.029  19.627   8.693
  799POPC   D2A13912  42.036  19.479   8.276
  799POPC   C3A13913  42.331  19.701   7.993
  799POPC   C4A13914  42.144  20.022   7.741
  799POPC   C1B13915  42.251  20.130   8.696
  799POPC   C2B13916  42.309  20.179   8.246
  799POPC   C3B13917  42.624  20.159   7.938
  799POPC   C4B13918  42.608  20.001   7.515
  800POPC   NC313919  34.510   7.001   9.622
  800POPC   PO413920  35.061   7.253   9.330
  800POPC   GL113921  34.637   7.242   9.098
  800POPC   GL213922  34.326   7.058   9.099
  800POPC   C1A13923  34.550   7.464   8.720
  800POPC   D2A13924  34.772   7.547   8.350
  800POPC   C3A13925  34.598   7.558   7.940
  800POPC   C4A13926  34.744   7.814   7.629
  800POPC   C1B13927  34.343   7.005   8.629
  800POPC   C2B13928  34.311   7.250   8.235
  800POPC   C3B13929  34.257   7.191   7.784
  800POPC   C4B13930  34.285   7.085   7.282
  801POPC   NC313931   7.968  33.999   9.285
  801POPC   PO413932   8.491  34.343   9.602
  801POPC   GL113933   8.151  34.481   9.271
  801POPC   GL213934   8.068  34.319   8.929
  801POPC   C1A13935   7.937  34.790   8.992
  801POPC   D2A13936   7.951  34.780   8.548
  801POPC   C3A13937   7.959  34.457   8.240
  801POPC   C4A13938   7.958  34.654   7.841
  801POPC   C1B13939   8.317  34.381   8.635
  801POPC   C2B13940   8.519  34.669   8.406
  801POPC   C3B13941   8.468  34.619   7.998
  801POPC   C4B13942   8.424  34.577   7.569
  802POPC   NC313943  36.614  24.839   9.403
  802POPC   PO413944  36.013  24.837   9.219
  802POPC   GL113945  36.377  24.929   8.961
  802POPC   GL213946  36.424  25.263   9.039
  802POPC   C1A13947  36.439  25.049   8.537
  802POPC   D2A13948  36.153  24.888   8.272
  802POPC   C3A13949  36.147  25.094   7.871
  802POPC   C4A13950  35.897  25.031   7.498
  802POPC   C1B13951  36.033  25.281   8.736
  802POPC   C2B13952  35.872  25.315   8.295
  802POPC   C3B13953  35.915  25.551   7.888
  802POPC   C4B13954  36.125  25.870   7.608
  803POPC   NC313955  35.618  33.665   9.460
  803POPC   PO413956  34.988  33.832   9.528
  803POPC   GL113957  35.179  33.642   9.187
  803POPC   GL213958  35.340  33.994   9.152
  803POPC   C1A13959  35.319  33.682   8.767
  803POPC   D2A13960  35.121  33.821   8.442
  803POPC   C3A13961  35.280  33.626   8.123
  803POPC   C4A13962  35.595  33.780   7.876
  803POPC   C1B13963  35.624  34.104   8.798
  803POPC   C2B13964  35.856  34.277   8.417
  803POPC   C3B13965  35.779  34.269   7.936
  803POPC   C4B13966  35.564  34.123   7.506
  804POPC   NC313967  26.207  12.168   9.850
  804POPC   PO413968  26.400  11.815   9.313
  804POPC   GL113969  26.046  12.007   9.193
  804POPC   GL213970  26.150  12.308   9.358
  804POPC   C1A13971  25.999  12.001   8.734
  804POPC   D2A13972  25.828  12.196   8.363
  804POPC   C3A13973  25.957  12.004   7.958
  804POPC   C4A13974  25.832  11.961   7.539
  804POPC   C1B13975  26.213  12.432   8.924
  804POPC   C2B13976  26.347  12.341   8.490
  804POPC   C3B13977  26.234  12.436   8.059
  804POPC   C4B13978  26.133  12.370   7.643
  805POPC   NC313979  27.965   7.385   9.379
  805POPC   PO413980  27.449   7.809   9.514
  805POPC   GL113981  27.640   7.656   9.126
  805POPC   GL213982  27.530   7.286   9.140
  805POPC   C1A13983  27.693   7.492   8.690
  805POPC   D2A13984  27.780   7.068   8.542
  805POPC   C3A13985  27.914   7.031   8.119
  805POPC   C4A13986  27.713   7.135   7.752
  805POPC   C1B13987  27.222   7.279   8.825
  805POPC   C2B13988  27.145   7.558   8.522
  805POPC   C3B13989  27.423   7.548   8.212
  805POPC   C4B13990  27.421   7.546   7.795
  806POPC   NC313991  44.387  10.278   9.443
  806POPC   PO413992  44.949  10.718   9.502
  806POPC   GL113993  44.780  10.431   9.197
  806POPC   GL213994  44.595  10.688   9.105
  806POPC   C1A13995  44.548  10.259   8.801
  806POPC   D2A13996  44.493  10.103   8.378
  806POPC   C3A13997  44.425  10.363   8.005
  806POPC   C4A13998  44.344  10.393   7.582
  806POPC   C1B13999  44.877  10.634   8.743
  806POPC   C2B14000  44.681  10.597   8.373
  806POPC   C3B14001  44.796  10.722   7.959
  806POPC   C4B14002  44.821  10.544   7.579
  807POPC   NC314003  13.824   9.490   9.581
  807POPC   PO414004  13.392   8.938   9.702
  807POPC   GL114005  13.641   8.985   9.284
  807POPC   GL214006  13.970   9.072   9.257
  807POPC   C1A14007  13.657   8.775   8.881
  807POPC   D2A14008  13.836   8.746   8.462
  807POPC   C3A14009  13.585   8.790   8.091
  807POPC   C4A14010  13.480   8.956   7.685
  807POPC   C1B14011  14.114   9.025   8.828
  807POPC   C2B14012  14.151   9.153   8.383
  807POPC   C3B14013  14.061   8.994   7.953
  807POPC   C4B14014  13.899   9.192   7.519
  808POPC   NC314015  30.934  10.052   9.424
  808POPC   PO414016  30.468   9.621   9.520
  808POPC   GL114017  30.694   9.678   9.149
  808POPC   GL214018  30.448   9.927   9.039
  808POPC   C1A14019  30.916   9.829   8.770
  808POPC   D2A14020  30.727   9.960   8.369
  808POPC   C3A14021  30.904   9.911   7.943
  808POPC   C4A14022  30.865   9.456   7.798
  808POPC   C1B14023  30.450   9.599   8.692
  808POPC   C2B14024  30.520   9.513   8.239
  808POPC   C3B14025  30.430   9.807   7.915
  808POPC   C4B14026  30.220   9.861   7.543
  809POPC   NC314027  40.600  16.457   9.351
  809POPC   PO414028  41.203  16.458   9.667
  809POPC   GL114029  41.169  16.647   9.207
  809POPC   GL214030  40.872  16.849   9.091
  809POPC   C1A14031  41.261  16.835   8.765
  809POPC   D2A14032  41.076  16.735   8.355
  809POPC   C3A14033  41.048  16.564   7.949
  809POPC   C4A14034  40.978  16.914   7.748
  809POPC   C1B14035  40.800  16.537   8.737
  809POPC   C2B14036  40.646  16.455   8.319
  809POPC   C3B14037  40.540  16.698   7.935
  809POPC   C4B14038  40.567  16.606   7.488
  810POPC   NC314039  32.338  42.910   9.465
  810POPC   PO414040  32.506  42.172   9.496
  810POPC   GL114041  32.245  42.225   9.137
  810POPC   GL214042  32.221  42.591   9.095
  810POPC   C1A14043  32.206  42.248   8.685
  810POPC   D2A14044  32.006  42.313   8.311
  810POPC   C3A14045  32.305  42.243   8.016
  810POPC   C4A14046  32.374  41.880   7.816
  810POPC   C1B14047  32.080  42.733   8.680
  810POPC   C2B14048  32.386  42.650   8.331
  810POPC   C3B14049  32.609  42.665   7.938
  810POPC   C4B14050  32.477  42.489   7.551
  811POPC   NC314051  14.904  16.532   9.526
  811POPC   PO414052  15.498  17.011   9.559
  811POPC   GL114053  15.132  16.876   9.214
  811POPC   GL214054  14.872  17.117   9.111
  811POPC   C1A14055  15.159  16.738   8.775
  811POPC   D2A14056  15.432  16.700   8.407
  811POPC   C3A14057  15.245  16.588   8.011
  811POPC   C4A14058  15.365  16.764   7.631
  811POPC   C1B14059  14.830  17.115   8.686
  811POPC   C2B14060  14.931  16.895   8.308
  811POPC   C3B14061  14.914  16.955   7.849
  811POPC   C4B14062  14.913  16.993   7.388
  812POPC   NC314063  32.801  42.540   9.539
  812POPC   PO414064  33.223  42.123   9.701
  812POPC   GL114065  33.063  42.184   9.247
  812POPC   GL214066  32.755  42.326   9.087
  812POPC   C1A14067  33.136  42.123   8.791
  812POPC   D2A14068  33.229  41.964   8.377
  812POPC   C3A14069  33.275  42.201   7.995
  812POPC   C4A14070  33.227  41.985   7.597
  812POPC   C1B14071  32.708  42.495   8.689
  812POPC   C2B14072  32.806  42.311   8.263
  812POPC   C3B14073  32.789  42.188   7.805
  812POPC   C4B14074  32.836  42.187   7.301
  813POPC   NC314075  21.991   3.238   9.422
  813POPC   PO414076  22.439   3.770   9.403
  813POPC   GL114077  22.300   3.469   9.090
  813POPC   GL214078  21.937   3.492   8.983
  813POPC   C1A14079  22.461   3.334   8.706
  813POPC   D2A14080  22.552   3.603   8.361
  813POPC   C3A14081  22.511   3.412   7.986
  813POPC   C4A14082  22.235   3.412   7.648
  813POPC   C1B14083  22.057   3.620   8.558
  813POPC   C2B14084  22.017   3.359   8.179
  813POPC   C3B14085  21.745   3.452   7.807
  813POPC   C4B14086  21.790   3.567   7.363
  814POPC   NC314087  29.509   0.636   9.383
  814POPC   PO414088  30.125   0.742   9.591
  814POPC   GL114089  29.969   0.654   9.157
  814POPC   GL214090  29.815   0.324   9.113
  814POPC   C1A14091  29.962   0.571   8.707
  814POPC   D2A14092  30.269   0.561   8.405
  814POPC   C3A14093  30.070   0.626   8.029
  814POPC   C4A14094  30.231   0.843   7.701
  814POPC   C1B14095  29.761   0.097   8.734
  814POPC   C2B14096  29.816   0.179   8.311
  814POPC   C3B14097  29.976   0.146   7.903
  814POPC   C4B14098  29.930   0.415   7.535
  815POPC   NC314099  23.162  24.764   9.447
  815POPC   PO414100  23.079  24.096   9.487
  815POPC   GL114101  22.853  24.285   9.128
  815POPC   GL214102  22.748  24.622   9.159
  815POPC   C1A14103  22.850  24.327   8.679
  815POPC   D2A14104  22.749  24.163   8.276
  815POPC   C3A14105  22.870  24.415   7.946
  815POPC   C4A14106  23.294  24.396   7.781
  815POPC   C1B14107  22.857  24.851   8.752
  815POPC   C2B14108  23.007  24.794   8.294
  815POPC   C3B14109  23.044  24.879   7.825
  815POPC   C4B14110  22.702  24.789   7.531
  816POPC   NC314111  10.887  14.494   9.459
  816POPC   PO414112  10.303  14.363   9.715
  816POPC   GL114113  10.371  14.229   9.254
  816POPC   GL214114  10.710  14.073   9.193
  816POPC   C1A14115  10.502  14.374   8.830
  816POPC   D2A14116  10.734  14.257   8.460
  816POPC   C3A14117  10.563  14.387   8.048
  816POPC   C4A14118  10.338  14.744   7.827
  816POPC   C1B14119  10.943  13.918   8.809
  816POPC   C2B14120  11.113  13.883   8.392
  816POPC   C3B14121  10.914  13.999   8.050
  816POPC   C4B14122  10.721  14.037   7.694
  817POPC   NC314123  42.844   4.199   9.428
  817POPC   PO414124  43.286   4.629   9.485
  817POPC   GL114125  43.247   4.377   9.130
  817POPC   GL214126  43.463   4.125   9.219
  817POPC   C1A14127  42.919   4.304   8.769
  817POPC   D2A14128  42.753   4.216   8.334
  817POPC   C3A14129  42.989   4.441   7.974
  817POPC   C4A14130  43.253   4.390   7.563
  817POPC   C1B14131  43.415   4.099   8.741
  817POPC   C2B14132  43.252   4.148   8.325
  817POPC   C3B14133  43.276   3.997   7.904
  817POPC   C4B14134  43.703   3.985   7.813
  818POPC   NC314135  15.634  24.033   9.401
  818POPC   PO414136  15.059  24.626   9.387
  818POPC   GL114137  15.354  24.641   9.088
  818POPC   GL214138  15.357  24.295   9.085
  818POPC   C1A14139  15.264  24.545   8.655
  818POPC   D2A14140  15.133  24.759   8.308
  818POPC   C3A14141  15.273  24.590   7.929
  818POPC   C4A14142  14.993  24.687   7.594
  818POPC   C1B14143  15.320  24.036   8.721
  818POPC   C2B14144  15.355  24.162   8.304
  818POPC   C3B14145  15.166  24.065   7.933
  818POPC   C4B14146  15.218  24.244   7.541
  819POPC   NC314147  12.423  14.265   9.473
  819POPC   PO414148  11.943  14.748   9.536
  819POPC   GL114149  12.014  14.486   9.229
  819POPC   GL214150  11.759  14.589   9.050
  819POPC   C1A14151  12.226  14.334   8.865
  819POPC   D2A14152  12.134  14.298   8.435
  819POPC   C3A14153  12.402  14.252   8.122
  819POPC   C4A14154  12.366  14.458   7.765
  819POPC   C1B14155  11.722  14.367   8.721
  819POPC   C2B14156  11.693  14.530   8.325
  819POPC   C3B14157  11.879  14.346   7.993
  819POPC   C4B14158  11.696  14.349   7.632
  820POPC   NC314159  35.842  36.460   9.377
  820POPC   PO414160  36.090  37.055   9.547
  820POPC   GL114161  35.826  36.963   9.203
  820POPC   GL214162  36.065  36.771   9.054
  820POPC   C1A14163  35.735  37.083   8.768
  820POPC   D2A14164  35.778  37.282   8.355
  820POPC   C3A14165  36.039  37.113   8.013
  820POPC   C4A14166  35.979  36.821   7.655
  820POPC   C1B14167  36.085  36.522   8.713
  820POPC   C2B14168  36.150  36.711   8.330
  820POPC   C3B14169  36.367  36.696   7.970
  820POPC   C4B14170  36.432  36.563   7.571
  821POPC   NC314171   7.472  31.187   9.546
  821POPC   PO414172   7.518  30.522   9.648
  821POPC   GL114173   7.506  30.715   9.240
  821POPC   GL214174   7.239  30.930   9.168
  821POPC   C1A14175   7.693  30.845   8.842
  821POPC   D2A14176   7.601  30.612   8.472
  821POPC   C3A14177   7.701  30.654   8.049
  821POPC   C4A14178   7.641  30.731   7.631
  821POPC   C1B14179   7.204  30.662   8.793
  821POPC   C2B14180   7.103  30.666   8.338
  821POPC   C3B14181   7.198  30.808   7.922
  821POPC   C4B14182   7.143  30.706   7.457
  822POPC   NC314183  31.381  36.111   9.866
  822POPC   PO414184  31.505  35.510   9.559
  822POPC   GL114185  31.675  35.309   9.218
  822POPC   GL214186  31.669  35.633   9.085
  822POPC   C1A14187  31.677  35.216   8.762
  822POPC   D2A14188  31.654  35.316   8.341
  822POPC   C3A14189  31.403  35.021   8.126
  822POPC   C4A14190  31.381  35.178   7.721
  822POPC   C1B14191  31.433  35.710   8.734
  822POPC   C2B14192  31.427  35.854   8.331
  822POPC   C3B14193  31.334  35.639   7.957
  822POPC   C4B14194  31.394  35.652   7.497
  823POPC   NC314195  34.265  38.968   9.378
  823POPC   PO414196  34.706  39.491   9.558
  823POPC   GL114197  34.539  39.372   9.208
  823POPC   GL214198  34.734  39.063   9.220
  823POPC   C1A14199  34.459  39.282   8.801
  823POPC   D2A14200  34.454  39.498   8.449
  823POPC   C3A14201  34.492  39.281   8.097
  823POPC   C4A14202  34.384  39.415   7.706
  823POPC   C1B14203  34.754  38.825   8.860
  823POPC   C2B14204  34.743  38.998   8.469
  823POPC   C3B14205  34.867  38.898   8.096
  823POPC   C4B14206  34.820  39.080   7.763
  824POPC   NC314207  14.129  37.028   9.593
  824POPC   PO414208  14.442  36.479   9.751
  824POPC   GL114209  14.310  36.670   9.270
  824POPC   GL214210  14.271  37.028   9.117
  824POPC   C1A14211  14.311  36.652   8.793
  824POPC   D2A14212  14.088  36.622   8.396
  824POPC   C3A14213  14.247  36.450   8.025
  824POPC   C4A14214  14.425  36.596   7.658
  824POPC   C1B14215  14.483  37.142   8.747
  824POPC   C2B14216  14.714  37.091   8.384
  824POPC   C3B14217  14.548  36.954   8.012
  824POPC   C4B14218  14.431  37.107   7.645
  825POPC   NC314219  42.236  20.876   9.628
  825POPC   PO414220  42.460  20.257   9.580
  825POPC   GL114221  42.338  20.551   9.230
  825POPC   GL214222  42.029  20.755   9.179
  825POPC   C1A14223  42.295  20.649   8.771
  825POPC   D2A14224  42.543  20.638   8.414
  825POPC   C3A14225  42.419  20.650   7.995
  825POPC   C4A14226  42.446  20.488   7.570
  825POPC   C1B14227  41.862  20.930   8.779
  825POPC   C2B14228  41.999  20.870   8.363
  825POPC   C3B14229  42.158  21.098   8.047
  825POPC   C4B14230  42.210  20.986   7.644
  826POPC   NC314231  18.951   2.973   9.441
  826POPC   PO414232  18.864   2.328   9.337
  826POPC   GL114233  18.836   2.660   9.059
  826POPC   GL214234  18.572   2.909   9.080
  826POPC   C1A14235  19.117   2.905   8.791
  826POPC   D2A14236  19.129   2.746   8.381
  826POPC   C3A14237  19.386   2.928   8.086
  826POPC   C4A14238  19.413   2.653   7.744
  826POPC   C1B14239  18.643   2.823   8.624
  826POPC   C2B14240  18.672   2.924   8.203
  826POPC   C3B14241  18.944   2.811   7.878
  826POPC   C4B14242  18.993   2.777   7.440
  827POPC   NC314243  27.208  27.777   9.487
  827POPC   PO414244  27.762  27.406   9.564
  827POPC   GL114245  27.534  27.503   9.152
  827POPC   GL214246  27.289  27.264   9.012
  827POPC   C1A14247  27.453  27.730   8.757
  827POPC   D2A14248  27.289  27.868   8.349
  827POPC   C3A14249  27.535  27.736   7.975
  827POPC   C4A14250  27.840  27.487   7.787
  827POPC   C1B14251  27.613  27.221   8.709
  827POPC   C2B14252  27.759  27.245   8.285
  827POPC   C3B14253  27.475  27.209   7.966
  827POPC   C4B14254  27.236  27.448   7.681
  828POPC   NC314255   7.269  10.691   9.469
  828POPC   PO414256   7.925  10.578   9.411
  828POPC   GL114257   7.610  10.634   9.074
  828POPC   GL214258   7.427  10.328   9.124
  828POPC   C1A14259   7.313  10.621   8.700
  828POPC   D2A14260   7.143  10.758   8.289
  828POPC   C3A14261   7.470  10.668   8.002
  828POPC   C4A14262   7.922  10.767   8.030
  828POPC   C1B14263   7.382  10.098   8.737
  828POPC   C2B14264   7.237  10.236   8.342
  828POPC   C3B14265   7.253  10.185   7.909
  828POPC   C4B14266   7.442  10.394   7.577
  829POPC   NC314267  37.157  12.714   9.827
  829POPC   PO414268  37.103  12.127   9.494
  829POPC   GL114269  36.779  12.196   9.187
  829POPC   GL214270  36.567  12.482   9.280
  829POPC   C1A14271  36.833  12.152   8.739
  829POPC   D2A14272  36.579  12.062   8.378
  829POPC   C3A14273  36.838  11.932   8.047
  829POPC   C4A14274  37.113  12.124   7.754
  829POPC   C1B14275  36.520  12.535   8.839
  829POPC   C2B14276  36.718  12.583   8.457
  829POPC   C3B14277  36.734  12.434   8.049
  829POPC   C4B14278  36.630  12.279   7.639
  830POPC   NC314279  31.726  42.389   9.437
  830POPC   PO414280  31.130  42.457   9.166
  830POPC   GL114281  31.440  42.289   8.945
  830POPC   GL214282  31.782  42.383   8.942
  830POPC   C1A14283  31.512  42.427   8.524
  830POPC   D2A14284  31.720  42.714   8.271
  830POPC   C3A14285  31.620  42.493   7.918
  830POPC   C4A14286  31.331  42.132   7.833
  830POPC   C1B14287  31.763  42.005   8.684
  830POPC   C2B14288  31.616  41.987   8.268
  830POPC   C3B14289  31.832  42.014   7.913
  830POPC   C4B14290  31.979  42.256   7.622
  831POPC   NC314291  37.011  38.735   9.417
  831POPC   PO414292  37.175  38.120   9.354
  831POPC   GL114293  36.874  38.301   9.018
  831POPC   GL214294  36.826  38.686   8.956
  831POPC   C1A14295  36.878  38.374   8.555
  831POPC   D2A14296  36.580  38.429   8.221
  831POPC   C3A14297  36.757  38.605   7.887
  831POPC   C4A14298  37.191  38.585   7.887
  831POPC   C1B14299  37.179  38.782   8.709
  831POPC   C2B14300  37.270  39.049   8.434
  831POPC   C3B14301  37.010  39.010   8.125
  831POPC   C4B14302  37.122  39.108   7.762
  832POPC   NC314303  11.104  23.471   9.627
  832POPC   PO414304  11.614  23.942   9.671
  832POPC   GL114305  11.525  23.657   9.322
  832POPC   GL214306  11.218  23.816   9.255
  832POPC   C1A14307  11.380  23.464   8.921
  832POPC   D2A14308  11.587  23.292   8.557
  832POPC   C3A14309  11.328  23.398   8.212
  832POPC   C4A14310  11.332  23.690   7.882
  832POPC   C1B14311  11.230  23.958   8.852
  832POPC   C2B14312  11.392  23.842   8.481
  832POPC   C3B14313  11.443  24.125   8.143
  832POPC   C4B14314  11.227  24.162   7.762
  833POPC   NC314315  27.252  41.611   9.465
  833POPC   PO414316  27.803  42.094   9.523
  833POPC   GL114317  27.750  41.700   9.231
  833POPC   GL214318  27.434  41.564   9.010
  833POPC   C1A14319  27.885  41.431   8.855
  833POPC   D2A14320  27.593  41.424   8.485
  833POPC   C3A14321  27.779  41.448   8.073
  833POPC   C4A14322  27.991  41.619   7.712
  833POPC   C1B14323  27.652  41.862   8.755
  833POPC   C2B14324  27.825  42.039   8.415
  833POPC   C3B14325  27.676  41.956   8.036
  833POPC   C4B14326  27.546  41.846   7.671
  834POPC   NC314327  29.436  29.894   9.573
  834POPC   PO414328  28.771  29.996   9.671
  834POPC   GL114329  28.983  29.957   9.220
  834POPC   GL214330  29.232  29.672   9.157
  834POPC   C1A14331  29.145  30.020   8.760
  834POPC   D2A14332  29.374  30.137   8.347
  834POPC   C3A14333  29.146  30.080   7.956
  834POPC   C4A14334  28.855  30.280   7.683
  834POPC   C1B14335  29.304  29.502   8.752
  834POPC   C2B14336  29.378  29.603   8.309
  834POPC   C3B14337  29.403  29.630   7.861
  834POPC   C4B14338  29.243  29.545   7.464
  835POPC   NC314339   3.639   7.751   9.443
  835POPC   PO414340   3.804   7.119   9.472
  835POPC   GL114341   3.526   7.344   9.130
  835POPC   GL214342   3.199   7.560   9.187
  835POPC   C1A14343   3.600   7.488   8.694
  835POPC   D2A14344   3.818   7.612   8.296
  835POPC   C3A14345   3.663   7.370   7.940
  835POPC   C4A14346   3.864   7.170   7.600
  835POPC   C1B14347   3.075   7.457   8.772
  835POPC   C2B14348   3.079   7.147   8.438
  835POPC   C3B14349   3.116   7.210   8.003
  835POPC   C4B14350   3.229   7.590   7.823
  836POPC   NC314351  39.695  38.660   9.456
  836POPC   PO414352  39.023  38.332   9.548
  836POPC   GL114353  39.241  38.387   9.184
  836POPC   GL214354  39.462  38.133   9.084
  836POPC   C1A14355  39.371  38.581   8.810
  836POPC   D2A14356  39.169  38.824   8.492
  836POPC   C3A14357  39.296  38.719   8.091
  836POPC   C4A14358  39.213  38.605   7.676
  836POPC   C1B14359  39.176  38.104   8.744
  836POPC   C2B14360  39.112  38.293   8.368
  836POPC   C3B14361  39.307  38.211   7.995
  836POPC   C4B14362  39.237  38.114   7.573
  837POPC   NC314363  24.925  32.007   9.619
  837POPC   PO414364  25.314  31.342   9.583
  837POPC   GL114365  25.189  31.297   9.161
  837POPC   GL214366  25.019  31.599   9.153
  837POPC   C1A14367  25.366  31.236   8.760
  837POPC   D2A14368  25.603  31.474   8.462
  837POPC   C3A14369  25.392  31.561   8.060
  837POPC   C4A14370  25.311  31.169   7.838
  837POPC   C1B14371  25.197  31.721   8.719
  837POPC   C2B14372  25.003  31.791   8.312
  837POPC   C3B14373  24.921  31.737   7.859
  837POPC   C4B14374  24.825  31.768   7.389
  838POPC   NC314375  12.235  22.024   9.602
  838POPC   PO414376  11.943  21.420   9.378
  838POPC   GL114377  12.117  21.856   9.139
  838POPC   GL214378  12.338  22.183   9.141
  838POPC   C1A14379  12.268  21.935   8.709
  838POPC   D2A14380  12.081  22.128   8.363
  838POPC   C3A14381  12.155  21.941   7.996
  838POPC   C4A14382  12.041  22.098   7.615
  838POPC   C1B14383  12.264  22.430   8.771
  838POPC   C2B14384  12.399  22.520   8.342
  838POPC   C3B14385  12.321  22.418   7.913
  838POPC   C4B14386  12.308  22.489   7.419
  839POPC   NC314387   0.048  40.684   9.355
  839POPC   PO414388   0.697  40.848   9.443
  839POPC   GL114389   0.433  40.906   9.078
  839POPC   GL214390   0.629  41.207   9.017
  839POPC   C1A14391   0.289  41.076   8.680
  839POPC   D2A14392   0.168  40.931   8.304
  839POPC   C3A14393   0.319  41.025   7.917
  839POPC   C4A14394   0.293  40.771   7.548
  839POPC   C1B14395   0.759  40.859   8.705
  839POPC   C2B14396   0.691  40.861   8.286
  839POPC   C3B14397   0.743  40.743   7.883
  839POPC   C4B14398   0.737  41.041   7.584
  840POPC   NC314399  38.244  19.356   9.693
  840POPC   PO414400  38.356  18.665   9.613
  840POPC   GL114401  38.461  19.034   9.279
  840POPC   GL214402  38.371  19.403   9.195
  840POPC   C1A14403  38.632  19.095   8.850
  840POPC   D2A14404  38.413  19.012   8.448
  840POPC   C3A14405  38.540  18.753   8.103
  840POPC   C4A14406  38.509  19.005   7.772
  840POPC   C1B14407  38.299  19.469   8.751
  840POPC   C2B14408  38.622  19.488   8.448
  840POPC   C3B14409  38.582  19.451   8.031
  840POPC   C4B14410  38.206  19.438   7.784
  841POPC   NC314411  42.676   6.198   9.495
  841POPC   PO414412  43.388   6.132   9.474
  841POPC   GL114413  43.089   6.061   9.146
  841POPC   GL214414  42.842   6.284   9.035
  841POPC   C1A14415  43.159   6.010   8.714
  841POPC   D2A14416  43.216   5.687   8.424
  841POPC   C3A14417  43.177   5.910   8.061
  841POPC   C4A14418  43.242   5.747   7.694
  841POPC   C1B14419  42.662   6.099   8.712
  841POPC   C2B14420  42.770   5.975   8.354
  841POPC   C3B14421  42.727   6.172   7.972
  841POPC   C4B14422  43.064   6.249   7.702
  842POPC   NC314423   8.475   3.790   9.828
  842POPC   PO414424   9.130   3.859   9.542
  842POPC   GL114425   8.921   3.645   9.209
  842POPC   GL214426   8.922   3.299   9.210
  842POPC   C1A14427   8.849   3.683   8.797
  842POPC   D2A14428   8.790   3.794   8.410
  842POPC   C3A14429   8.971   3.660   8.078
  842POPC   C4A14430   8.698   3.616   7.713
  842POPC   C1B14431   9.131   3.248   8.820
  842POPC   C2B14432   9.242   3.363   8.417
  842POPC   C3B14433   9.127   3.168   8.033
  842POPC   C4B14434   9.034   3.238   7.625
  843POPC   NC314435   6.113   8.403   9.513
  843POPC   PO414436   5.778   7.921   9.337
  843POPC   GL114437   5.872   8.240   9.084
  843POPC   GL214438   5.593   8.426   9.201
  843POPC   C1A14439   6.063   8.085   8.738
  843POPC   D2A14440   5.903   7.902   8.414
  843POPC   C3A14441   6.084   7.985   8.059
  843POPC   C4A14442   5.940   8.263   7.790
  843POPC   C1B14443   5.466   8.522   8.773
  843POPC   C2B14444   5.639   8.513   8.339
  843POPC   C3B14445   5.514   8.539   7.880
  843POPC   C4B14446   5.719   8.537   7.440
  844POPC   NC314447  31.533  44.066   9.757
  844POPC   PO414448  32.108  44.092   9.499
  844POPC   GL114449  31.946  43.841   9.202
  844POPC   GL214450  32.282  43.853   9.061
  844POPC   C1A14451  31.903  43.961   8.766
  844POPC   D2A14452  32.242  43.982   8.509
  844POPC   C3A14453  32.050  43.965   8.168
  844POPC   C4A14454  32.019  43.903   7.767
  844POPC   C1B14455  32.407  43.578   8.776
  844POPC   C2B14456  32.491  43.526   8.356
  844POPC   C3B14457  32.319  43.544   7.978
  844POPC   C4B14458  32.237  43.503   7.551
  845POPC   NC314459  10.074  19.529   9.415
  845POPC   PO414460   9.864  20.152   9.500
  845POPC   GL114461   9.705  20.065   9.101
  845POPC   GL214462   9.752  19.703   9.043
  845POPC   C1A14463   9.717  20.047   8.646
  845POPC   D2A14464   9.838  19.781   8.300
  845POPC   C3A14465   9.645  19.859   7.868
  845POPC   C4A14466   9.674  20.062   7.452
  845POPC   C1B14467   9.435  19.643   8.699
  845POPC   C2B14468   9.311  19.887   8.308
  845POPC   C3B14469   9.133  19.844   7.880
  845POPC   C4B14470   9.266  19.765   7.442
  846POPC   NC314471  20.793   6.065   9.723
  846POPC   PO414472  20.254   5.642   9.582
  846POPC   GL114473  20.577   5.680   9.231
  846POPC   GL214474  20.853   5.977   9.218
  846POPC   C1A14475  20.604   5.789   8.776
  846POPC   D2A14476  20.412   6.019   8.433
  846POPC   C3A14477  20.428   5.837   8.018
  846POPC   C4A14478  20.337   6.086   7.698
  846POPC   C1B14479  20.816   6.251   8.842
  846POPC   C2B14480  20.918   6.224   8.391
  846POPC   C3B14481  20.843   6.112   7.946
  846POPC   C4B14482  20.793   6.090   7.478
  847POPC   NC314483  26.611   0.869   9.495
  847POPC   PO414484  26.995   1.434   9.697
  847POPC   GL114485  26.814   1.361   9.293
  847POPC   GL214486  27.114   1.213   9.208
  847POPC   C1A14487  26.621   1.402   8.877
  847POPC   D2A14488  26.678   1.643   8.502
  847POPC   C3A14489  26.776   1.412   8.141
  847POPC   C4A14490  26.519   1.179   7.823
  847POPC   C1B14491  27.013   1.063   8.831
  847POPC   C2B14492  26.650   0.925   8.621
  847POPC   C3B14493  26.706   0.901   8.202
  847POPC   C4B14494  27.041   1.050   7.876
  848POPC   NC314495  40.940  23.705   9.468
  848POPC   PO414496  40.261  23.934   9.479
  848POPC   GL114497  40.507  23.685   9.140
  848POPC   GL214498  40.847  23.779   8.995
  848POPC   C1A14499  40.559  23.490   8.694
  848POPC   D2A14500  40.750  23.516   8.263
  848POPC   C3A14501  40.461  23.577   7.898
  848POPC   C4A14502  40.543  23.507   7.459
  848POPC   C1B14503  41.075  23.694   8.636
  848POPC   C2B14504  41.125  23.909   8.265
  848POPC   C3B14505  40.919  23.874   7.874
  848POPC   C4B14506  40.891  23.884   7.438
  849POPC   NC314507  25.971   2.989   9.550
  849POPC   PO414508  26.145   2.392   9.262
  849POPC   GL114509  25.850   2.520   9.015
  849POPC   GL214510  25.853   2.884   9.074
  849POPC   C1A14511  25.729   2.665   8.652
  849POPC   D2A14512  25.922   2.906   8.398
  849POPC   C3A14513  25.839   2.748   8.038
  849POPC   C4A14514  26.063   2.762   7.670
  849POPC   C1B14515  25.642   3.166   8.762
  849POPC   C2B14516  25.654   3.335   8.335
  849POPC   C3B14517  25.550   3.137   7.920
  849POPC   C4B14518  25.711   3.077   7.478
  850POPC   NC314519  26.985   4.853   9.535
  850POPC   PO414520  26.257   4.949   9.664
  850POPC   GL114521  26.554   5.102   9.307
  850POPC   GL214522  26.895   5.272   9.268
  850POPC   C1A14523  26.536   5.123   8.841
  850POPC   D2A14524  26.869   4.966   8.548
  850POPC   C3A14525  26.802   4.878   8.100
  850POPC   C4A14526  27.122   4.848   7.790
  850POPC   C1B14527  26.940   5.423   8.843
  850POPC   C2B14528  26.803   5.469   8.425
  850POPC   C3B14529  26.764   5.386   7.993
  850POPC   C4B14530  26.529   5.512   7.642
  851POPC   NC314531  15.880  29.201   9.730
  851POPC   PO414532  16.304  29.515   9.302
  851POPC   GL114533  16.017  29.140   9.194
  851POPC   GL214534  16.110  28.895   9.009
  851POPC   C1A14535  15.714  29.145   8.798
  851POPC   D2A14536  15.716  29.023   8.328
  851POPC   C3A14537  15.928  29.300   8.008
  851POPC   C4A14538  16.029  29.368   7.549
  851POPC   C1B14539  16.177  29.105   8.606
  851POPC   C2B14540  16.521  29.125   8.334
  851POPC   C3B14541  16.417  29.136   7.910
  851POPC   C4B14542  16.235  28.883   7.556
  852POPC   NC314543  35.467  11.864   9.716
  852POPC   PO414544  35.353  11.235   9.659
  852POPC   GL114545  35.280  11.342   9.205
  852POPC   GL214546  35.041  11.628   9.160
  852POPC   C1A14547  35.433  11.203   8.793
  852POPC   D2A14548  35.648  11.107   8.404
  852POPC   C3A14549  35.373  11.124   8.052
  852POPC   C4A14550  35.475  11.361   7.721
  852POPC   C1B14551  35.013  11.504   8.786
  852POPC   C2B14552  35.167  11.403   8.409
  852POPC   C3B14553  35.118  11.624   8.039
  852POPC   C4B14554  35.045  11.583   7.617
  853POPC   NC314555  38.302  43.632   9.352
  853POPC   PO414556  38.921  43.796   9.710
  853POPC   GL114557  38.681  44.088   9.321
  853POPC   GL214558  38.347  44.135   9.229
  853POPC   C1A14559  38.707  44.135   8.852
  853POPC   D2A14560  38.640  43.903   8.494
  853POPC   C3A14561  38.557  43.984   8.065
  853POPC   C4A14562  38.505  43.731   7.672
  853POPC   C1B14563  38.205  44.017   8.813
  853POPC   C2B14564  38.142  43.833   8.409
  853POPC   C3B14565  38.122  43.714   8.010
  853POPC   C4B14566  38.036  43.924   7.599
  854POPC   NC314567  32.996  13.350   9.472
  854POPC   PO414568  32.781  14.027   9.522
  854POPC   GL114569  32.857  13.750   9.152
  854POPC   GL214570  32.717  13.401   9.041
  854POPC   C1A14571  32.982  13.694   8.720
  854POPC   D2A14572  33.074  13.868   8.332
  854POPC   C3A14573  33.350  13.629   8.087
  854POPC   C4A14574  33.301  13.433   7.701
  854POPC   C1B14575  32.610  13.328   8.626
  854POPC   C2B14576  32.819  13.425   8.267
  854POPC   C3B14577  32.786  13.478   7.841
  854POPC   C4B14578  32.557  13.253   7.505
  855POPC   NC314579  38.499  33.309   9.585
  855POPC   PO414580  38.831  32.703   9.584
  855POPC   GL114581  38.752  33.006   9.256
  855POPC   GL214582  38.391  33.145   9.121
  855POPC   C1A14583  38.802  33.013   8.836
  855POPC   D2A14584  38.535  32.861   8.514
  855POPC   C3A14585  38.504  33.208   8.259
  855POPC   C4A14586  38.509  33.185   7.815
  855POPC   C1B14587  38.108  32.958   8.799
  855POPC   C2B14588  38.031  33.006   8.345
  855POPC   C3B14589  38.274  32.809   8.037
  855POPC   C4B14590  38.216  32.754   7.609
  856POPC   NC314591   4.946  28.105   9.585
  856POPC   PO414592   5.332  28.570   9.483
  856POPC   GL114593   5.103  28.438   9.159
  856POPC   GL214594   5.134  28.098   9.115
  856POPC   C1A14595   5.199  28.499   8.734
  856POPC   D2A14596   5.103  28.542   8.320
  856POPC   C3A14597   4.715  28.402   8.152
  856POPC   C4A14598   4.679  28.335   7.729
  856POPC   C1B14599   5.242  27.979   8.723
  856POPC   C2B14600   4.937  28.006   8.415
  856POPC   C3B14601   4.964  27.966   7.991
  856POPC   C4B14602   5.295  27.880   7.762
  857POPC   NC314603   2.220  30.643   9.633
  857POPC   PO414604   1.817  30.968   9.179
  857POPC   GL114605   2.220  30.833   9.113
  857POPC   GL214606   2.312  30.492   9.149
  857POPC   C1A14607   2.308  30.740   8.680
  857POPC   D2A14608   2.010  30.602   8.355
  857POPC   C3A14609   2.119  30.798   7.966
  857POPC   C4A14610   2.197  30.970   7.588
  857POPC   C1B14611   2.292  30.239   8.762
  857POPC   C2B14612   2.463  30.311   8.355
  857POPC   C3B14613   2.207  30.298   7.994
  857POPC   C4B14614   1.774  30.445   7.828
  858POPC   NC314615  39.034  28.988   9.700
  858POPC   PO414616  39.590  29.316   9.500
  858POPC   GL114617  39.382  29.218   9.160
  858POPC   GL214618  39.082  29.126   9.227
  858POPC   C1A14619  39.406  29.279   8.756
  858POPC   D2A14620  39.594  29.030   8.483
  858POPC   C3A14621  39.282  29.034   8.174
  858POPC   C4A14622  39.202  29.155   7.776
  858POPC   C1B14623  38.965  29.014   8.823
  858POPC   C2B14624  38.810  28.952   8.384
  858POPC   C3B14625  38.875  28.769   7.953
  858POPC   C4B14626  38.967  28.806   7.486
  859POPC   NC314627  30.300  23.927   9.453
  859POPC   PO414628  29.846  23.465   9.623
  859POPC   GL114629  29.950  23.642   9.215
  859POPC   GL214630  29.685  23.518   9.013
  859POPC   C1A14631  29.975  23.930   8.840
  859POPC   D2A14632  29.775  23.780   8.447
  859POPC   C3A14633  29.900  23.785   8.002
  859POPC   C4A14634  29.994  23.983   7.612
  859POPC   C1B14635  30.050  23.408   8.752
  859POPC   C2B14636  30.111  23.417   8.327
  859POPC   C3B14637  30.071  23.264   7.938
  859POPC   C4B14638  30.275  23.492   7.623
  860POPC   NC314639  43.506  13.034   9.743
  860POPC   PO414640  43.981  12.602   9.645
  860POPC   GL114641  43.976  12.829   9.240
  860POPC   GL214642  43.804  13.144   9.229
  860POPC   C1A14643  44.027  12.864   8.796
  860POPC   D2A14644  43.866  12.904   8.391
  860POPC   C3A14645  44.120  12.876   8.048
  860POPC   C4A14646  43.942  12.846   7.647
  860POPC   C1B14647  43.593  13.186   8.820
  860POPC   C2B14648  43.518  13.305   8.373
  860POPC   C3B14649  43.615  13.121   7.952
  860POPC   C4B14650  43.674  13.248   7.494
  861POPC   NC314651  20.357   5.173   9.605
  861POPC   PO414652  20.911   4.916   9.380
  861POPC   GL114653  20.587   5.107   9.144
  861POPC   GL214654  20.334   4.865   9.170
  861POPC   C1A14655  20.606   5.050   8.712
  861POPC   D2A14656  20.842   4.880   8.375
  861POPC   C3A14657  20.754   5.083   7.993
  861POPC   C4A14658  20.839   5.529   7.833
  861POPC   C1B14659  20.123   4.883   8.806
  861POPC   C2B14660  20.294   4.781   8.404
  861POPC   C3B14661  20.146   4.793   8.006
  861POPC   C4B14662  20.385   4.693   7.659
  862POPC   NC314663  38.138   8.830   9.396
  862POPC   PO414664  38.765   9.084   9.584
  862POPC   GL114665  38.566   9.061   9.176
  862POPC   GL214666  38.311   9.292   9.200
  862POPC   C1A14667  38.466   9.036   8.714
  862POPC   D2A14668  38.284   8.830   8.322
  862POPC   C3A14669  38.647   8.774   8.030
  862POPC   C4A14670  38.679   8.929   7.601
  862POPC   C1B14671  38.191   9.455   8.816
  862POPC   C2B14672  38.112   9.327   8.392
  862POPC   C3B14673  38.328   9.246   7.985
  862POPC   C4B14674  38.203   9.247   7.578
  863POPC   NC314675  24.875  35.107   9.426
  863POPC   PO414676  24.248  34.937   9.501
  863POPC   GL114677  24.417  35.161   9.147
  863POPC   GL214678  24.632  35.488   9.153
  863POPC   C1A14679  24.433  35.286   8.706
  863POPC   D2A14680  24.543  35.063   8.341
  863POPC   C3A14681  24.325  35.201   7.979
  863POPC   C4A14682  24.507  34.970   7.694
  863POPC   C1B14683  24.888  35.513   8.758
  863POPC   C2B14684  24.952  35.342   8.306
  863POPC   C3B14685  24.756  35.460   7.927
  863POPC   C4B14686  24.895  35.628   7.535
  864POPC   NC314687  27.632  35.730   9.646
  864POPC   PO414688  27.389  36.347   9.493
  864POPC   GL114689  27.535  36.226   9.111
  864POPC   GL214690  27.837  36.393   9.124
  864POPC   C1A14691  27.490  35.968   8.744
  864POPC   D2A14692  27.337  35.989   8.329
  864POPC   C3A14693  27.538  36.097   7.954
  864POPC   C4A14694  27.395  36.033   7.555
  864POPC   C1B14695  28.074  36.482   8.772
  864POPC   C2B14696  27.991  36.643   8.369
  864POPC   C3B14697  27.753  36.559   8.021
  864POPC   C4B14698  27.948  36.399   7.612
  865POPC   NC314699  42.745  36.455   9.376
  865POPC   PO414700  43.369  36.733   9.573
  865POPC   GL114701  43.388  36.645   9.070
  865POPC   GL214702  43.093  36.408   8.993
  865POPC   C1A14703  43.195  36.752   8.630
  865POPC   D2A14704  43.267  36.757   8.207
  865POPC   C3A14705  43.301  37.093   7.900
  865POPC   C4A14706  43.448  37.473   7.678
  865POPC   C1B14707  42.769  36.494   8.685
  865POPC   C2B14708  42.901  36.397   8.285
  865POPC   C3B14709  43.033  36.496   7.861
  865POPC   C4B14710  43.433  36.608   7.712
  866POPC   NC314711  42.088  17.163   9.446
  866POPC   PO414712  42.198  16.520   9.486
  866POPC   GL114713  42.348  16.722   9.112
  866POPC   GL214714  42.572  16.993   9.181
  866POPC   C1A14715  42.217  16.561   8.685
  866POPC   D2A14716  42.058  16.746   8.287
  866POPC   C3A14717  42.195  16.610   7.890
  866POPC   C4A14718  42.406  16.809   7.542
  866POPC   C1B14719  42.711  16.756   8.773
  866POPC   C2B14720  42.617  16.576   8.350
  866POPC   C3B14721  42.697  16.752   7.949
  866POPC   C4B14722  42.685  17.157   7.773
  867POPC   NC314723   5.593   4.263   9.469
  867POPC   PO414724   4.917   4.257   9.583
  867POPC   GL114725   4.938   4.253   9.154
  867POPC   GL214726   5.300   4.295   9.021
  867POPC   C1A14727   4.880   4.459   8.777
  867POPC   D2A14728   5.132   4.517   8.434
  867POPC   C3A14729   4.884   4.409   8.078
  867POPC   C4A14730   5.023   4.503   7.668
  867POPC   C1B14731   5.189   4.051   8.636
  867POPC   C2B14732   5.062   3.908   8.221
  867POPC   C3B14733   5.031   3.999   7.784
  867POPC   C4B14734   5.085   4.122   7.345
  868POPC   NC314735  19.403  39.882   9.604
  868POPC   PO414736  20.046  40.065   9.493
  868POPC   GL114737  19.803  39.837   9.230
  868POPC   GL214738  19.595  40.116   9.157
  868POPC   C1A14739  19.871  39.734   8.808
  868POPC   D2A14740  20.100  39.972   8.468
  868POPC   C3A14741  20.162  39.779   8.055
  868POPC   C4A14742  20.036  39.844   7.600
  868POPC   C1B14743  19.679  40.210   8.742
  868POPC   C2B14744  19.608  39.994   8.359
  868POPC   C3B14745  19.783  40.126   7.975
  868POPC   C4B14746  19.596  40.093   7.584
  869POPC   NC314747   1.613  16.106   9.723
  869POPC   PO414748   2.035  16.133   9.232
  869POPC   GL114749   2.187  15.834   8.991
  869POPC   GL214750   1.857  15.686   9.063
  869POPC   C1A14751   2.212  15.949   8.562
  869POPC   D2A14752   1.933  16.123   8.289
  869POPC   C3A14753   2.202  16.077   7.974
  869POPC   C4A14754   2.261  15.948   7.598
  869POPC   C1B14755   1.750  15.776   8.654
  869POPC   C2B14756   1.878  15.610   8.273
  869POPC   C3B14757   1.848  15.689   7.856
  869POPC   C4B14758   1.454  15.711   7.672
  870POPC   NC314759  20.263  28.089   9.615
  870POPC   PO414760  20.725  28.428   9.389
  870POPC   GL114761  20.491  28.464   9.072
  870POPC   GL214762  20.192  28.297   9.160
  870POPC   C1A14763  20.701  28.555   8.698
  870POPC   D2A14764  20.508  28.603   8.325
  870POPC   C3A14765  20.644  28.309   8.076
  870POPC   C4A14766  20.904  28.451   7.763
  870POPC   C1B14767  20.158  28.026   8.840
  870POPC   C2B14768  20.283  28.056   8.424
  870POPC   C3B14769  20.167  27.959   8.033
  870POPC   C4B14770  20.371  28.134   7.688
  871POPC   NC314771  23.282  31.827   9.493
  871POPC   PO414772  23.772  32.271   9.554
  871POPC   GL114773  23.777  32.015   9.217
  871POPC   GL214774  23.477  32.114   9.092
  871POPC   C1A14775  24.018  31.916   8.845
  871POPC   D2A14776  24.115  32.172   8.483
  871POPC   C3A14777  24.065  32.180   8.062
  871POPC   C4A14778  24.069  32.394   7.686
  871POPC   C1B14779  23.751  32.370   8.791
  871POPC   C2B14780  23.758  32.511   8.318
  871POPC   C3B14781  23.598  32.428   7.869
  871POPC   C4B14782  23.533  32.420   7.399
  872POPC   NC314783  14.701   7.033   9.457
  872POPC   PO414784  14.231   7.489   9.580
  872POPC   GL114785  14.371   7.399   9.157
  872POPC   GL214786  14.715   7.335   9.044
  872POPC   C1A14787  14.267   7.251   8.732
  872POPC   D2A14788  14.007   7.157   8.373
  872POPC   C3A14789  14.105   7.390   7.993
  872POPC   C4A14790  14.348   7.732   7.836
  872POPC   C1B14791  14.749   7.073   8.705
  872POPC   C2B14792  14.534   7.066   8.298
  872POPC   C3B14793  14.628   7.308   7.936
  872POPC   C4B14794  14.815   7.382   7.542
  873POPC   NC314795   0.166  15.643   9.454
  873POPC   PO414796   0.476  16.231   9.579
  873POPC   GL114797   0.432  16.011   9.223
  873POPC   GL214798   0.209  16.223   9.070
  873POPC   C1A14799   0.628  15.990   8.846
  873POPC   D2A14800   0.481  16.059   8.458
  873POPC   C3A14801   0.668  15.917   8.107
  873POPC   C4A14802   0.506  15.652   7.783
  873POPC   C1B14803   0.004  16.253   8.648
  873POPC   C2B14804   0.051  16.153   8.223
  873POPC   C3B14805   0.284  16.193   7.849
  873POPC   C4B14806   0.295  16.184   7.389
  874POPC   NC314807   1.300   6.519   9.832
  874POPC   PO414808   1.509   6.869   9.239
  874POPC   GL114809   1.093   6.735   9.041
  874POPC   GL214810   0.788   6.929   9.082
  874POPC   C1A14811   1.185   6.481   8.649
  874POPC   D2A14812   1.520   6.573   8.322
  874POPC   C3A14813   1.312   6.750   7.957
  874POPC   C4A14814   0.925   6.576   7.782
  874POPC   C1B14815   0.850   6.884   8.642
  874POPC   C2B14816   0.907   6.697   8.276
  874POPC   C3B14817   0.822   7.012   8.035
  874POPC   C4B14818   1.017   7.081   7.688
  875POPC   NC314819  19.062  39.164   9.943
  875POPC   PO414820  18.850  39.067   9.362
  875POPC   GL114821  18.693  39.151   9.031
  875POPC   GL214822  18.459  38.870   9.078
  875POPC   C1A14823  18.946  39.298   8.712
  875POPC   D2A14824  18.867  39.319   8.314
  875POPC   C3A14825  19.092  39.549   8.039
  875POPC   C4A14826  19.303  39.329   7.734
  875POPC   C1B14827  18.585  38.899   8.615
  875POPC   C2B14828  18.591  38.920   8.177
  875POPC   C3B14829  18.880  39.055   7.834
  875POPC   C4B14830  18.738  39.168   7.400
  876POPC   NC314831  23.532  17.346   9.460
  876POPC   PO414832  23.949  17.862   9.537
  876POPC   GL114833  23.749  17.692   9.156
  876POPC   GL214834  23.873  17.325   9.054
  876POPC   C1A14835  23.494  17.544   8.794
  876POPC   D2A14836  23.723  17.394   8.458
  876POPC   C3A14837  23.633  17.533   8.042
  876POPC   C4A14838  23.611  17.662   7.632
  876POPC   C1B14839  23.528  17.040   8.799
  876POPC   C2B14840  23.364  16.945   8.360
  876POPC   C3B14841  23.473  17.073   7.911
  876POPC   C4B14842  23.883  17.226   7.709
  877POPC   NC314843  17.721   0.208   9.541
  877POPC   PO414844  17.540  44.625   9.742
  877POPC   GL114845  17.666  44.686   9.292
  877POPC   GL214846  17.825  44.959   9.102
  877POPC   C1A14847  17.720  44.544   8.827
  877POPC   D2A14848  17.774  44.687   8.377
  877POPC   C3A14849  17.795  44.599   7.910
  877POPC   C4A14850  17.526  44.725   7.563
  877POPC   C1B14851  17.760   0.115   8.680
  877POPC   C2B14852  17.802   0.182   8.225
  877POPC   C3B14853  17.672   0.212   7.768
  877POPC   C4B14854  17.358   0.184   7.427
  878POPC   NC314855   4.238  14.544   9.566
  878POPC   PO414856   4.529  13.996   9.291
  878POPC   GL114857   4.416  14.405   9.093
  878POPC   GL214858   4.581  14.745   9.246
  878POPC   C1A14859   4.322  14.453   8.645
  878POPC   D2A14860   4.329  14.526   8.208
  878POPC   C3A14861   4.260  14.226   7.879
  878POPC   C4A14862   4.147  13.994   7.514
  878POPC   C1B14863   4.722  14.741   8.857
  878POPC   C2B14864   4.630  14.876   8.470
  878POPC   C3B14865   4.743  14.804   8.056
  878POPC   C4B14866   4.497  14.675   7.739
  879POPC   NC314867  24.234  42.761   9.460
  879POPC   PO414868  23.666  43.318   9.471
  879POPC   GL114869  23.569  43.128   9.094
  879POPC   GL214870  23.866  42.908   9.100
  879POPC   C1A14871  23.533  43.159   8.665
  879POPC   D2A14872  23.588  42.899   8.307
  879POPC   C3A14873  23.401  43.097   7.990
  879POPC   C4A14874  23.535  43.462   7.834
  879POPC   C1B14875  23.987  42.899   8.659
  879POPC   C2B14876  24.081  43.038   8.223
  879POPC   C3B14877  23.900  43.094   7.770
  879POPC   C4B14878  23.920  42.922   7.312
  880POPC   NC314879  13.720  16.115  10.004
  880POPC   PO414880  14.050  15.740   9.510
  880POPC   GL114881  13.837  16.119   9.255
  880POPC   GL214882  13.452  16.197   9.309
  880POPC   C1A14883  13.917  16.149   8.781
  880POPC   D2A14884  13.777  15.949   8.409
  880POPC   C3A14885  13.841  16.078   7.976
  880POPC   C4A14886  13.658  15.753   7.730
  880POPC   C1B14887  13.455  15.990   8.925
  880POPC   C2B14888  13.293  15.852   8.530
  880POPC   C3B14889  13.344  15.959   8.105
  880POPC   C4B14890  13.325  16.135   7.661
  881POPC   NC314891  37.303  24.977   9.501
  881POPC   PO414892  36.776  25.319   9.651
  881POPC   GL114893  36.927  25.259   9.222
  881POPC   GL214894  37.246  25.406   9.117
  881POPC   C1A14895  36.868  25.204   8.770
  881POPC   D2A14896  36.868  25.430   8.376
  881POPC   C3A14897  36.685  25.199   8.035
  881POPC   C4A14898  36.440  25.512   7.837
  881POPC   C1B14899  37.320  25.385   8.646
  881POPC   C2B14900  37.196  25.064   8.285
  881POPC   C3B14901  37.161  25.030   7.819
  881POPC   C4B14902  37.296  25.185   7.405
  882POPC   NC314903  28.386   9.998   9.714
  882POPC   PO414904  27.832  10.040   9.351
  882POPC   GL114905  28.187   9.837   9.125
  882POPC   GL214906  28.498   9.739   9.287
  882POPC   C1A14907  28.433   9.987   8.781
  882POPC   D2A14908  28.395  10.230   8.393
  882POPC   C3A14909  28.441   9.906   8.091
  882POPC   C4A14910  28.263   9.723   7.722
  882POPC   C1B14911  28.533   9.483   8.898
  882POPC   C2B14912  28.550   9.547   8.436
  882POPC   C3B14913  28.627   9.426   7.977
  882POPC   C4B14914  28.610   9.389   7.490
  883POPC   NC314915  44.424  12.731   9.560
  883POPC   PO414916   0.004  13.114   9.470
  883POPC   GL114917  44.709  13.193   9.135
  883POPC   GL214918  44.476  12.893   9.084
  883POPC   C1A14919  44.674  13.140   8.693
  883POPC   D2A14920  44.602  12.871   8.368
  883POPC   C3A14921  44.622  12.954   7.925
  883POPC   C4A14922  44.431  13.019   7.493
  883POPC   C1B14923  44.374  12.496   8.870
  883POPC   C2B14924  44.245  12.519   8.455
  883POPC   C3B14925  44.466  12.478   8.072
  883POPC   C4B14926  44.343  12.551   7.686
  884POPC   NC314927  11.656   7.858   9.531
  884POPC   PO414928  12.155   8.264   9.428
  884POPC   GL114929  12.022   8.201   9.050
  884POPC   GL214930  11.703   8.337   9.053
  884POPC   C1A14931  12.224   8.118   8.661
  884POPC   D2A14932  12.487   8.347   8.364
  884POPC   C3A14933  12.248   8.299   7.992
  884POPC   C4A14934  11.974   8.046   7.746
  884POPC   C1B14935  11.754   8.356   8.599
  884POPC   C2B14936  11.734   8.309   8.164
  884POPC   C3B14937  11.592   8.374   7.772
  884POPC   C4B14938  11.837   8.518   7.440
  885POPC   NC314939  16.636   8.759   9.653
  885POPC   PO414940  16.853   9.332   9.472
  885POPC   GL114941  16.645   9.094   9.164
  885POPC   GL214942  16.786   8.754   9.152
  885POPC   C1A14943  16.809   9.061   8.742
  885POPC   D2A14944  16.638   9.112   8.354
  885POPC   C3A14945  16.959   9.167   8.036
  885POPC   C4A14946  16.889   9.306   7.601
  885POPC   C1B14947  16.485   8.682   8.802
  885POPC   C2B14948  16.534   8.584   8.374
  885POPC   C3B14949  16.644   8.729   7.982
  885POPC   C4B14950  16.493   9.120   7.863
  886POPC   NC314951  23.263  30.983   9.517
  886POPC   PO414952  22.902  31.513   9.470
  886POPC   GL114953  22.831  31.262   9.113
  886POPC   GL214954  23.171  31.269   9.073
  886POPC   C1A14955  22.770  31.400   8.670
  886POPC   D2A14956  22.940  31.502   8.241
  886POPC   C3A14957  22.695  31.483   7.843
  886POPC   C4A14958  22.716  31.346   7.389
  886POPC   C1B14959  23.294  31.393   8.633
  886POPC   C2B14960  23.499  31.365   8.234
  886POPC   C3B14961  23.316  31.485   7.869
  886POPC   C4B14962  23.047  31.875   7.869
  887POPC   NC314963   8.742  29.830   9.763
  887POPC   PO414964   9.183  29.913   9.347
  887POPC   GL114965   8.914  29.918   9.032
  887POPC   GL214966   8.648  29.795   9.211
  887POPC   C1A14967   8.830  30.005   8.609
  887POPC   D2A14968   8.616  30.067   8.217
  887POPC   C3A14969   8.927  30.065   7.923
  887POPC   C4A14970   9.291  29.835   7.736
  887POPC   C1B14971   8.528  29.640   8.833
  887POPC   C2B14972   8.754  29.488   8.474
  887POPC   C3B14973   8.698  29.546   8.059
  887POPC   C4B14974   8.802  29.646   7.668
  888POPC   NC314975   5.522  38.557   9.520
  888POPC   PO414976   6.061  38.222   9.429
  888POPC   GL114977   5.722  38.305   9.102
  888POPC   GL214978   5.647  38.667   9.036
  888POPC   C1A14979   5.764  38.159   8.688
  888POPC   D2A14980   6.095  38.264   8.376
  888POPC   C3A14981   5.906  38.371   8.000
  888POPC   C4A14982   5.638  38.097   7.809
  888POPC   C1B14983   5.976  38.618   8.723
  888POPC   C2B14984   6.085  38.796   8.305
  888POPC   C3B14985   5.999  38.855   7.863
  888POPC   C4B14986   5.952  39.038   7.429
  889POPC   NC314987  11.626  13.665   9.553
  889POPC   PO414988  12.263  13.811   9.398
  889POPC   GL114989  11.912  13.682   9.131
  889POPC   GL214990  11.827  14.029   9.095
  889POPC   C1A14991  11.807  13.441   8.734
  889POPC   D2A14992  12.146  13.337   8.409
  889POPC   C3A14993  12.216  13.424   7.952
  889POPC   C4A14994  12.000  13.506   7.595
  889POPC   C1B14995  12.056  13.879   8.692
  889POPC   C2B14996  12.144  13.834   8.224
  889POPC   C3B14997  12.131  13.968   7.759
  889POPC   C4B14998  11.771  13.907   7.405
  890POPC   NC314999   1.951   4.951   9.574
  890POPC   PO415000   2.057   5.594   9.557
  890POPC   GL115001   1.850   5.333   9.206
  890POPC   GL215002   2.060   5.036   9.093
  890POPC   C1A15003   1.975   5.394   8.755
  890POPC   D2A15004   1.983   5.108   8.425
  890POPC   C3A15005   2.049   5.246   8.045
  890POPC   C4A15006   1.858   5.156   7.674
  890POPC   C1B15007   2.334   4.940   8.755
  890POPC   C2B15008   2.366   4.770   8.336
  890POPC   C3B15009   2.422   4.895   7.897
  890POPC   C4B15010   2.227   4.905   7.430
  891POPC   NC315011  41.829  31.044   9.232
  891POPC   PO415012  42.246  30.606   9.693
  891POPC   GL115013  42.402  30.531   9.275
  891POPC   GL215014  42.069  30.573   9.131
  891POPC   C1A15015  42.582  30.681   8.851
  891POPC   D2A15016  42.507  30.807   8.420
  891POPC   C3A15017  42.592  30.543   8.053
  891POPC   C4A15018  42.261  30.463   7.742
  891POPC   C1B15019  41.945  30.710   8.692
  891POPC   C2B15020  42.041  31.031   8.362
  891POPC   C3B15021  42.122  30.961   7.932
  891POPC   C4B15022  42.010  30.876   7.500
  892POPC   NC315023  12.919   4.792   9.871
  892POPC   PO415024  12.514   4.318   9.506
  892POPC   GL115025  12.650   4.331   9.114
  892POPC   GL215026  12.936   4.529   9.134
  892POPC   C1A15027  12.674   4.374   8.694
  892POPC   D2A15028  12.717   4.175   8.338
  892POPC   C3A15029  12.643   4.351   7.973
  892POPC   C4A15030  12.725   4.100   7.644
  892POPC   C1B15031  13.184   4.395   8.759
  892POPC   C2B15032  13.290   4.468   8.324
  892POPC   C3B15033  13.162   4.245   7.957
  892POPC   C4B15034  13.181   4.295   7.505
  893POPC   NC315035   1.308  23.245   9.763
  893POPC   PO415036   1.369  23.901   9.498
  893POPC   GL115037   1.350  23.866   9.038
  893POPC   GL215038   1.041  23.654   8.994
  893POPC   C1A15039   1.423  23.607   8.652
  893POPC   D2A15040   1.354  23.517   8.199
  893POPC   C3A15041   1.363  23.775   7.802
  893POPC   C4A15042   1.399  23.793   7.316
  893POPC   C1B15043   1.034  23.261   8.689
  893POPC   C2B15044   0.943  23.217   8.248
  893POPC   C3B15045   0.908  23.485   7.901
  893POPC   C4B15046   0.988  23.534   7.477
  894POPC   NC315047  33.414  20.049   9.315
  894POPC   PO415048  34.049  19.657   9.557
  894POPC   GL115049  34.120  19.815   9.162
  894POPC   GL215050  33.826  19.901   9.081
  894POPC   C1A15051  34.117  19.798   8.684
  894POPC   D2A15052  33.977  19.968   8.283
  894POPC   C3A15053  33.885  19.725   7.911
  894POPC   C4A15054  33.818  19.915   7.506
  894POPC   C1B15055  33.732  20.177   8.724
  894POPC   C2B15056  33.587  20.329   8.334
  894POPC   C3B15057  33.683  20.250   7.907
  894POPC   C4B15058  33.529  20.311   7.498
  895POPC   NC315059   1.804  10.469   9.465
  895POPC   PO415060   2.455  10.191   9.501
  895POPC   GL115061   2.384  10.413   9.109
  895POPC   GL215062   2.255  10.754   9.182
  895POPC   C1A15063   2.142  10.304   8.732
  895POPC   D2A15064   1.722  10.326   8.561
  895POPC   C3A15065   1.761  10.152   8.131
  895POPC   C4A15066   2.114  10.305   7.837
  895POPC   C1B15067   1.970  10.783   8.826
  895POPC   C2B15068   1.866  10.908   8.425
  895POPC   C3B15069   1.862  10.666   8.090
  895POPC   C4B15070   1.652  10.489   7.734
  896POPC   NC315071  21.833  17.691   9.440
  896POPC   PO415072  22.477  17.715   9.609
  896POPC   GL115073  22.252  17.580   9.181
  896POPC   GL215074  22.042  17.254   9.224
  896POPC   C1A15075  22.193  17.646   8.715
  896POPC   D2A15076  22.130  17.777   8.235
  896POPC   C3A15077  22.496  17.703   7.921
  896POPC   C4A15078  22.641  17.545   7.488
  896POPC   C1B15079  21.806  17.327   8.831
  896POPC   C2B15080  21.928  17.334   8.408
  896POPC   C3B15081  21.978  17.305   7.980
  896POPC   C4B15082  21.703  17.391   7.624
  897POPC   NC315083  29.250  19.285   9.561
  897POPC   PO415084  28.865  18.803   9.595
  897POPC   GL115085  28.844  19.041   9.148
  897POPC   GL215086  28.945  19.377   9.113
  897POPC   C1A15087  28.982  19.135   8.665
  897POPC   D2A15088  29.082  19.139   8.176
  897POPC   C3A15089  28.890  19.020   7.754
  897POPC   C4A15090  28.983  18.967   7.296
  897POPC   C1B15091  29.403  19.190   8.948
  897POPC   C2B15092  29.532  19.169   8.506
  897POPC   C3B15093  29.548  19.314   8.071
  897POPC   C4B15094  29.314  19.306   7.690
  898POPC   NC315095  29.559  28.154   9.438
  898POPC   PO415096  29.178  28.735   9.551
  898POPC   GL115097  29.227  28.666   9.149
  898POPC   GL215098  29.135  28.342   9.091
  898POPC   C1A15099  29.063  28.688   8.731
  898POPC   D2A15100  29.333  28.629   8.374
  898POPC   C3A15101  29.056  28.666   8.067
  898POPC   C4A15102  29.137  28.757   7.676
  898POPC   C1B15103  29.244  28.217   8.674
  898POPC   C2B15104  29.295  28.121   8.206
  898POPC   C3B15105  29.354  28.311   7.816
  898POPC   C4B15106  29.090  28.274   7.474
  899POPC   NC315107  22.720   2.669   9.802
  899POPC   PO415108  22.383   2.990   9.336
  899POPC   GL115109  22.073   2.890   9.030
  899POPC   GL215110  21.943   2.501   9.017
  899POPC   C1A15111  22.155   2.939   8.592
  899POPC   D2A15112  22.440   2.993   8.266
  899POPC   C3A15113  22.225   2.975   7.898
  899POPC   C4A15114  22.135   2.627   7.700
  899POPC   C1B15115  21.719   2.732   8.706
  899POPC   C2B15116  21.769   2.760   8.265
  899POPC   C3B15117  21.714   2.876   7.847
  899POPC   C4B15118  21.886   3.058   7.482
  900POPC   NC315119  35.930  41.139   9.557
  900POPC   PO415120  36.222  41.705   9.481
  900POPC   GL115121  36.261  41.368   9.180
  900POPC   GL215122  35.976  41.317   9.080
  900POPC   C1A15123  36.396  41.437   8.745
  900POPC   D2A15124  36.655  41.726   8.469
  900POPC   C3A15125  36.422  41.767   8.082
  900POPC   C4A15126  36.224  41.476   7.789
  900POPC   C1B15127  35.835  41.369   8.670
  900POPC   C2B15128  35.930  41.504   8.264
  900POPC   C3B15129  35.701  41.449   7.879
  900POPC   C4B15130  35.794  41.254   7.495
  901POPC   NC315131  30.963  43.578   9.928
  901POPC   PO415132  30.508  43.988   9.626
  901POPC   GL115133  30.445  43.975   9.197
  901POPC   GL215134  30.535  43.610   9.176
  901POPC   C1A15135  30.496  44.244   8.822
  901POPC   D2A15136  30.698  44.174   8.433
  901POPC   C3A15137  30.570  44.340   8.075
  901POPC   C4A15138  30.623  44.120   7.724
  901POPC   C1B15139  30.697  43.755   8.781
  901POPC   C2B15140  30.899  43.719   8.397
  901POPC   C3B15141  30.759  43.657   7.980
  901POPC   C4B15142  30.893  43.563   7.582
  902POPC   NC315143   3.851  27.607   9.603
  902POPC   PO415144   3.253  27.608   9.816
  902POPC   GL115145   3.383  27.512   9.305
  902POPC   GL215146   3.721  27.619   9.122
  902POPC   C1A15147   3.291  27.634   8.841
  902POPC   D2A15148   3.397  27.462   8.417
  902POPC   C3A15149   3.296  27.670   8.074
  902POPC   C4A15150   3.549  27.672   7.759
  902POPC   C1B15151   3.763  27.377   8.770
  902POPC   C2B15152   3.859  27.206   8.390
  902POPC   C3B15153   3.707  27.251   7.993
  902POPC   C4B15154   3.885  27.317   7.605
  903POPC   NC315155  44.166  39.268   9.514
  903POPC   PO415156  43.569  38.963   9.723
  903POPC   GL115157  43.728  39.119   9.248
  903POPC   GL215158  44.096  39.131   9.046
  903POPC   C1A15159  43.691  39.358   8.815
  903POPC   D2A15160  43.549  39.422   8.354
  903POPC   C3A15161  43.718  39.310   7.928
  903POPC   C4A15162  43.653  39.480   7.495
  903POPC   C1B15163  44.183  39.375   8.650
  903POPC   C2B15164  44.201  39.403   8.190
  903POPC   C3B15165  44.207  39.113   7.844
  903POPC   C4B15166  43.870  38.988   7.529
  904POPC   NC315167  37.804  14.838   9.609
  904POPC   PO415168  37.455  15.509   9.606
  904POPC   GL115169  37.546  15.294   9.210
  904POPC   GL215170  37.848  15.086   9.149
  904POPC   C1A15171  37.699  15.447   8.791
  904POPC   D2A15172  37.683  15.250   8.395
  904POPC   C3A15173  37.493  15.353   8.001
  904POPC   C4A15174  37.297  15.004   7.794
  904POPC   C1B15175  37.989  14.886   8.750
  904POPC   C2B15176  38.011  14.872   8.277
  904POPC   C3B15177  37.855  15.005   7.849
  904POPC   C4B15178  38.030  14.837   7.451
  905POPC   NC315179  23.362  30.190   9.404
  905POPC   PO415180  22.789  29.806   9.623
  905POPC   GL115181  22.948  29.903   9.228
  905POPC   GL215182  23.032  29.588   9.086
  905POPC   C1A15183  23.008  29.993   8.781
  905POPC   D2A15184  23.197  30.200   8.442
  905POPC   C3A15185  22.927  30.070   8.115
  905POPC   C4A15186  23.026  29.912   7.755
  905POPC   C1B15187  22.873  29.451   8.685
  905POPC   C2B15188  22.872  29.530   8.231
  905POPC   C3B15189  23.177  29.472   7.931
  905POPC   C4B15190  23.188  29.549   7.437
  906POPC   NC315191  42.295   9.839   9.543
  906POPC   PO415192  42.006   9.265   9.487
  906POPC   GL115193  42.082   9.572   9.131
  906POPC   GL215194  42.126   9.969   9.086
  906POPC   C1A15195  42.356   9.473   8.803
  906POPC   D2A15196  42.403   9.257   8.414
  906POPC   C3A15197  42.352   9.513   8.039
  906POPC   C4A15198  42.154   9.674   7.657
  906POPC   C1B15199  42.179   9.934   8.640
  906POPC   C2B15200  42.231   9.996   8.197
  906POPC   C3B15201  42.321  10.131   7.796
  906POPC   C4B15202  42.375  10.060   7.407
  907POPC   NC315203  23.340  26.400   9.525
  907POPC   PO415204  22.824  26.779   9.596
  907POPC   GL115205  22.961  26.906   9.228
  907POPC   GL215206  23.127  27.183   9.376
  907POPC   C1A15207  22.850  26.783   8.792
  907POPC   D2A15208  22.551  26.671   8.414
  907POPC   C3A15209  22.684  26.736   8.007
  907POPC   C4A15210  22.741  26.711   7.575
  907POPC   C1B15211  23.171  27.235   8.909
  907POPC   C2B15212  23.230  27.009   8.530
  907POPC   C3B15213  23.105  27.000   8.100
  907POPC   C4B15214  23.185  26.996   7.648
  908POPC   NC315215   5.716  25.265   9.646
  908POPC   PO415216   6.268  25.148   9.366
  908POPC   GL115217   5.867  25.080   9.157
  908POPC   GL215218   5.604  25.365   9.157
  908POPC   C1A15219   5.794  25.147   8.722
  908POPC   D2A15220   5.598  25.276   8.356
  908POPC   C3A15221   5.869  25.086   8.071
  908POPC   C4A15222   5.849  25.231   7.675
  908POPC   C1B15223   5.664  25.633   8.797
  908POPC   C2B15224   5.926  25.704   8.429
  908POPC   C3B15225   5.967  25.600   8.016
  908POPC   C4B15226   5.555  25.628   7.940
  909POPC   NC315227   1.670  29.837   9.854
  909POPC   PO415228   2.270  30.178   9.593
  909POPC   GL115229   1.967  30.116   9.214
  909POPC   GL215230   1.761  29.793   9.191
  909POPC   C1A15231   1.775  30.181   8.777
  909POPC   D2A15232   1.983  30.026   8.389
  909POPC   C3A15233   1.845  29.941   7.952
  909POPC   C4A15234   2.252  29.915   7.666
  909POPC   C1B15235   2.053  29.764   8.863
  909POPC   C2B15236   2.165  29.541   8.525
  909POPC   C3B15237   2.187  29.600   8.089
  909POPC   C4B15238   2.171  29.320   7.741
  910POPC   NC315239  39.157   6.621   9.576
  910POPC   PO415240  39.848   6.529   9.443
  910POPC   GL115241  39.504   6.764   9.152
  910POPC   GL215242  39.086   6.726   9.086
  910POPC   C1A15243  39.394   6.869   8.715
  910POPC   D2A15244  38.985   6.782   8.517
  910POPC   C3A15245  39.012   6.898   8.079
  910POPC   C4A15246  39.351   7.073   7.816
  910POPC   C1B15247  39.236   6.395   8.767
  910POPC   C2B15248  39.187   6.360   8.299
  910POPC   C3B15249  39.209   6.324   7.852
  910POPC   C4B15250  39.396   6.216   7.437
  911POPC   NC315251  11.900  31.695   9.719
  911POPC   PO415252  12.158  31.083   9.645
  911POPC   GL115253  12.040  31.364   9.281
  911POPC   GL215254  11.925  31.741   9.215
  911POPC   C1A15255  12.095  31.371   8.840
  911POPC   D2A15256  11.877  31.359   8.467
  911POPC   C3A15257  12.078  31.365   8.076
  911POPC   C4A15258  12.011  31.077   7.738
  911POPC   C1B15259  11.723  31.742   8.815
  911POPC   C2B15260  11.549  31.747   8.385
  911POPC   C3B15261  11.722  31.721   7.987
  911POPC   C4B15262  12.085  31.724   7.699
  912POPC   NC315263  38.236  20.054   9.659
  912POPC   PO415264  38.677  19.566   9.611
  912POPC   GL115265  38.636  19.855   9.260
  912POPC   GL215266  38.297  19.924   9.172
  912POPC   C1A15267  38.627  19.866   8.797
  912POPC   D2A15268  38.815  19.967   8.398
  912POPC   C3A15269  38.549  20.109   8.095
  912POPC   C4A15270  38.516  19.873   7.710
  912POPC   C1B15271  38.145  19.968   8.714
  912POPC   C2B15272  38.232  19.793   8.314
  912POPC   C3B15273  38.048  19.909   7.907
  912POPC   C4B15274  37.989  19.854   7.465
  913POPC   NC315275  27.222  30.250   9.665
  913POPC   PO415276  27.828  29.921   9.616
  913POPC   GL115277  27.655  29.943   9.198
  913POPC   GL215278  27.311  29.984   9.237
  913POPC   C1A15279  27.686  29.973   8.746
  913POPC   D2A15280  27.872  30.083   8.332
  913POPC   C3A15281  27.659  30.015   7.957
  913POPC   C4A15282  27.560  30.128   7.522
  913POPC   C1B15283  27.210  30.070   8.845
  913POPC   C2B15284  27.303  30.112   8.423
  913POPC   C3B15285  27.263  29.764   8.185
  913POPC   C4B15286  27.233  29.776   7.766
  914POPC   NC315287  41.548  18.823   9.489
  914POPC   PO415288  41.226  19.372   9.313
  914POPC   GL115289  41.446  19.071   9.064
  914POPC   GL215290  41.293  18.719   9.070
  914POPC   C1A15291  41.836  19.117   8.796
  914POPC   D2A15292  42.029  18.983   8.403
  914POPC   C3A15293  41.781  19.042   8.053
  914POPC   C4A15294  41.623  19.396   7.804
  914POPC   C1B15295  41.554  18.704   8.734
  914POPC   C2B15296  41.384  18.918   8.398
  914POPC   C3B15297  41.200  18.727   8.034
  914POPC   C4B15298  41.467  18.869   7.696
  915POPC   NC315299   1.046  37.843   9.486
  915POPC   PO415300   1.030  37.198   9.491
  915POPC   GL115301   1.085  37.431   9.177
  915POPC   GL215302   1.346  37.645   9.104
  915POPC   C1A15303   0.882  37.584   8.868
  915POPC   D2A15304   0.742  37.435   8.525
  915POPC   C3A15305   1.011  37.484   8.217
  915POPC   C4A15306   1.088  37.757   7.870
  915POPC   C1B15307   1.356  37.632   8.665
  915POPC   C2B15308   1.419  37.798   8.284
  915POPC   C3B15309   1.604  37.800   7.884
  915POPC   C4B15310   1.494  37.973   7.522
  916POPC   NC315311   0.134  26.149   9.748
  916POPC   PO415312   0.514  25.642   9.469
  916POPC   GL115313   0.554  25.882   9.140
  916POPC   GL215314   0.624  26.214   9.252
  916POPC   C1A15315   0.411  25.872   8.733
  916POPC   D2A15316   0.361  26.043   8.349
  916POPC   C3A15317   0.495  25.767   8.018
  916POPC   C4A15318   0.335  25.922   7.644
  916POPC   C1B15319   0.788  26.242   8.788
  916POPC   C2B15320   0.723  26.431   8.382
  916POPC   C3B15321   0.644  26.247   7.961
  916POPC   C4B15322   0.627  26.346   7.530
  917POPC   NC315323  26.498  34.444   9.489
  917POPC   PO415324  26.026  34.942   9.453
  917POPC   GL115325  25.908  34.717   9.137
  917POPC   GL215326  26.052  34.398   9.212
  917POPC   C1A15327  25.892  34.850   8.709
  917POPC   D2A15328  26.136  34.814   8.327
  917POPC   C3A15329  25.883  34.671   7.990
  917POPC   C4A15330  25.772  34.678   7.545
  917POPC   C1B15331  26.200  34.438   8.781
  917POPC   C2B15332  26.225  34.310   8.356
  917POPC   C3B15333  26.350  34.464   7.985
  917POPC   C4B15334  26.046  34.214   7.769
  918POPC   NC315335  10.524  30.400   9.607
  918POPC   PO415336  10.233  30.904   9.624
  918POPC   GL115337  10.435  30.729   9.206
  918POPC   GL215338  10.812  30.616   9.197
  918POPC   C1A15339  10.522  30.854   8.746
  918POPC   D2A15340  10.344  31.123   8.417
  918POPC   C3A15341  10.428  30.989   8.015
  918POPC   C4A15342  10.665  30.848   7.707
  918POPC   C1B15343  10.913  30.506   8.754
  918POPC   C2B15344  10.797  30.566   8.305
  918POPC   C3B15345  10.676  30.379   7.899
  918POPC   C4B15346  10.350  30.452   7.560
  919POPC   NC315347  15.060  11.424   9.435
  919POPC   PO415348  15.317  10.846   9.409
  919POPC   GL115349  15.156  11.053   9.060
  919POPC   GL215350  14.797  11.123   9.099
  919POPC   C1A15351  15.379  11.175   8.686
  919POPC   D2A15352  15.499  11.344   8.320
  919POPC   C3A15353  15.353  11.074   8.039
  919POPC   C4A15354  15.040  10.813   7.908
  919POPC   C1B15355  14.863  11.362   8.717
  919POPC   C2B15356  14.965  11.410   8.267
  919POPC   C3B15357  14.750  11.396   7.864
  919POPC   C4B15358  14.592  10.986   7.752
  920POPC   NC315359  12.076   3.036   9.532
  920POPC   PO415360  12.133   3.730   9.542
  920POPC   GL115361  12.140   3.589   9.145
  920POPC   GL215362  12.326   3.285   9.162
  920POPC   C1A15363  12.022   3.612   8.728
  920POPC   D2A15364  12.165   3.505   8.326
  920POPC   C3A15365  12.331   3.798   7.987
  920POPC   C4A15366  11.986   3.808   7.680
  920POPC   C1B15367  11.954   3.141   8.900
  920POPC   C2B15368  11.818   3.125   8.461
  920POPC   C3B15369  11.762   3.330   8.067
  920POPC   C4B15370  12.150   3.345   7.834
  921POPC   NC315371  22.647   8.180   9.486
  921POPC   PO415372  23.168   7.751   9.422
  921POPC   GL115373  23.200   8.193   9.179
  921POPC   GL215374  22.932   8.502   9.175
  921POPC   C1A15375  23.260   8.346   8.738
  921POPC   D2A15376  23.169   8.073   8.377
  921POPC   C3A15377  23.295   8.061   7.932
  921POPC   C4A15378  23.119   8.185   7.523
  921POPC   C1B15379  22.731   8.312   8.802
  921POPC   C2B15380  22.746   8.379   8.352
  921POPC   C3B15381  22.784   8.097   8.016
  921POPC   C4B15382  22.593   8.079   7.641
  922POPC   NC315383  31.803  23.243   9.710
  922POPC   PO415384  31.284  22.857   9.593
  922POPC   GL115385  31.487  22.809   9.188
  922POPC   GL215386  31.668  23.119   9.138
  922POPC   C1A15387  31.432  22.916   8.746
  922POPC   D2A15388  31.546  23.047   8.374
  922POPC   C3A15389  31.542  22.763   8.056
  922POPC   C4A15390  31.350  22.971   7.702
  922POPC   C1B15391  31.907  23.223   8.734
  922POPC   C2B15392  31.891  23.403   8.283
  922POPC   C3B15393  31.761  23.190   7.887
  922POPC   C4B15394  31.705  23.228   7.369
  923POPC   NC315395  18.881  21.638   9.451
  923POPC   PO415396  19.280  21.065   9.655
  923POPC   GL115397  19.254  21.191   9.226
  923POPC   GL215398  18.907  21.229   9.148
  923POPC   C1A15399  19.312  21.281   8.776
  923POPC   D2A15400  19.245  21.177   8.372
  923POPC   C3A15401  18.981  21.451   8.101
  923POPC   C4A15402  19.189  21.684   7.788
  923POPC   C1B15403  18.908  20.965   8.790
  923POPC   C2B15404  18.773  20.968   8.389
  923POPC   C3B15405  18.995  20.948   8.004
  923POPC   C4B15406  18.965  21.122   7.643
  924POPC   NC315407  26.108   3.709   9.492
  924POPC   PO415408  26.454   3.110   9.564
  924POPC   GL115409  26.267   3.243   9.167
  924POPC   GL215410  25.950   3.384   9.137
  924POPC   C1A15411  26.151   3.234   8.727
  924POPC   D2A15412  26.175   3.460   8.381
  924POPC   C3A15413  26.058   3.232   8.020
  924POPC   C4A15414  26.231   3.253   7.626
  924POPC   C1B15415  25.938   3.717   8.816
  924POPC   C2B15416  25.804   3.837   8.397
  924POPC   C3B15417  25.899   3.714   8.013
  924POPC   C4B15418  25.775   3.524   7.692
  925POPC   NC315419  10.806   2.092   9.292
  925POPC   PO415420  11.319   1.811   9.703
  925POPC   GL115421  11.309   2.097   9.266
  925POPC   GL215422  11.476   2.410   9.125
  925POPC   C1A15423  11.228   2.031   8.771
  925POPC   D2A15424  11.397   1.765   8.458
  925POPC   C3A15425  11.384   1.931   8.053
  925POPC   C4A15426  11.134   1.843   7.697
  925POPC   C1B15427  11.137   2.514   8.750
  925POPC   C2B15428  11.059   2.319   8.327
  925POPC   C3B15429  11.068   2.332   7.865
  925POPC   C4B15430  11.086   2.363   7.407
  926POPC   NC315431   4.012  10.332   9.991
  926POPC   PO415432   4.093  10.495   9.399
  926POPC   GL115433   4.380  10.375   9.116
  926POPC   GL215434   4.182  10.136   8.971
  926POPC   C1A15435   4.390  10.592   8.722
  926POPC   D2A15436   4.461  10.850   8.353
  926POPC   C3A15437   4.315  10.657   7.963
  926POPC   C4A15438   4.131  10.822   7.617
  926POPC   C1B15439   4.171  10.127   8.562
  926POPC   C2B15440   4.040  10.489   8.361
  926POPC   C3B15441   3.810  10.406   8.038
  926POPC   C4B15442   4.019  10.310   7.695
  927POPC   NC315443  13.038  29.455   9.508
  927POPC   PO415444  12.661  28.851   9.511
  927POPC   GL115445  12.651  29.028   9.131
  927POPC   GL215446  13.011  29.100   9.119
  927POPC   C1A15447  12.725  28.867   8.718
  927POPC   D2A15448  13.026  28.857   8.424
  927POPC   C3A15449  12.785  28.861   8.042
  927POPC   C4A15450  12.738  29.060   7.647
  927POPC   C1B15451  12.864  29.368   8.781
  927POPC   C2B15452  12.711  29.265   8.381
  927POPC   C3B15453  12.856  29.423   7.967
  927POPC   C4B15454  13.180  29.380   7.635
  928POPC   NC315455  42.821  30.030   9.440
  928POPC   PO415456  43.362  29.599   9.393
  928POPC   GL115457  43.083  29.715   9.084
  928POPC   GL215458  43.193  30.047   9.062
  928POPC   C1A15459  43.056  29.811   8.645
  928POPC   D2A15460  43.291  30.004   8.339
  928POPC   C3A15461  43.273  29.755   8.034
  928POPC   C4A15462  42.970  29.699   7.754
  928POPC   C1B15463  42.874  30.254   8.834
  928POPC   C2B15464  42.644  30.089   8.496
  928POPC   C3B15465  42.795  29.934   8.167
  928POPC   C4B15466  43.035  30.206   7.890
  929POPC   NC315467   8.408  44.202   9.529
  929POPC   PO415468   7.837  44.552   9.463
  929POPC   GL115469   8.056  44.746   9.099
  929POPC   GL215470   8.387  44.633   9.068
  929POPC   C1A15471   8.129  44.776   8.642
  929POPC   D2A15472   8.273  44.538   8.287
  929POPC   C3A15473   8.057  44.521   7.905
  929POPC   C4A15474   7.922  44.920   7.802
  929POPC   C1B15475   8.650  44.560   8.702
  929POPC   C2B15476   8.706  44.304   8.334
  929POPC   C3B15477   8.626  44.457   7.908
  929POPC   C4B15478   8.424  44.861   7.859
  930POPC   NC315479  26.200   5.262  10.000
  930POPC   PO415480  25.699   5.186   9.500
  930POPC   GL115481  25.826   5.097   9.095
  930POPC   GL215482  26.117   4.926   9.096
  930POPC   C1A15483  26.025   5.242   8.702
  930POPC   D2A15484  26.328   5.295   8.355
  930POPC   C3A15485  26.112   5.355   7.941
  930POPC   C4A15486  26.158   5.181   7.502
  930POPC   C1B15487  26.205   4.760   8.664
  930POPC   C2B15488  26.017   4.883   8.251
  930POPC   C3B15489  26.051   4.783   7.793
  930POPC   C4B15490  25.828   4.790   7.360
  931POPC   NC315491  43.678  22.279   9.584
  931POPC   PO415492  44.056  21.715   9.539
  931POPC   GL115493  44.188  21.892   9.137
  931POPC   GL215494  44.127  22.249   9.244
  931POPC   C1A15495  44.123  21.885   8.658
  931POPC   D2A15496  44.035  21.661   8.268
  931POPC   C3A15497  43.676  21.805   8.018
  931POPC   C4A15498  43.874  21.942   7.657
  931POPC   C1B15499  43.823  22.256   8.890
  931POPC   C2B15500  43.722  22.142   8.449
  931POPC   C3B15501  44.003  22.174   8.102
  931POPC   C4B15502  43.960  22.445   7.752
  932POPC   NC315503  39.283  43.522   9.341
  932POPC   PO415504  39.174  42.846   9.525
  932POPC   GL115505  39.304  43.018   9.135
  932POPC   GL215506  38.990  43.162   9.093
  932POPC   C1A15507  39.341  43.154   8.692
  932POPC   D2A15508  39.197  43.294   8.265
  932POPC   C3A15509  39.428  43.229   7.868
  932POPC   C4A15510  39.545  43.157   7.426
  932POPC   C1B15511  38.885  42.862   8.764
  932POPC   C2B15512  39.057  42.815   8.341
  932POPC   C3B15513  39.005  42.931   7.890
  932POPC   C4B15514  39.082  42.890   7.423
  933POPC   NC315515  43.595   5.698   9.486
  933POPC   PO415516  44.347   5.854   9.417
  933POPC   GL115517  44.087   5.847   9.059
  933POPC   GL215518  43.805   6.019   9.164
  933POPC   C1A15519  44.200   5.873   8.637
  933POPC   D2A15520  44.028   6.017   8.260
  933POPC   C3A15521  44.136   5.718   8.004
  933POPC   C4A15522  44.334   5.871   7.686
  933POPC   C1B15523  43.616   5.820   8.834
  933POPC   C2B15524  43.745   5.673   8.488
  933POPC   C3B15525  43.627   5.692   8.087
  933POPC   C4B15526  43.747   5.743   7.679
  934POPC   NC315527  42.772  23.308   9.501
  934POPC   PO415528  42.999  23.943   9.563
  934POPC   GL115529  42.993  23.669   9.196
  934POPC   GL215530  42.644  23.634   9.139
  934POPC   C1A15531  43.176  23.674   8.770
  934POPC   D2A15532  43.084  24.004   8.465
  934POPC   C3A15533  43.112  23.864   8.050
  934POPC   C4A15534  43.162  23.762   7.632
  934POPC   C1B15535  42.719  23.408   8.756
  934POPC   C2B15536  42.818  23.539   8.332
  934POPC   C3B15537  42.971  23.381   7.945
  934POPC   C4B15538  43.053  23.281   7.491
  935POPC   NC315539   7.434  39.066   9.485
  935POPC   PO415540   6.784  39.103   9.323
  935POPC   GL115541   7.187  39.086   9.043
  935POPC   GL215542   7.567  38.932   9.015
  935POPC   C1A15543   7.396  39.310   8.714
  935POPC   D2A15544   7.434  39.522   8.320
  935POPC   C3A15545   7.508  39.301   7.931
  935POPC   C4A15546   7.375  39.455   7.515
  935POPC   C1B15547   7.350  38.786   8.675
  935POPC   C2B15548   7.325  38.969   8.298
  935POPC   C3B15549   7.344  38.811   7.911
  935POPC   C4B15550   7.526  38.966   7.527
  936POPC   NC315551  22.759  40.887   9.423
  936POPC   PO415552  23.341  40.662   9.540
  936POPC   GL115553  23.101  40.707   9.103
  936POPC   GL215554  22.723  40.558   9.047
  936POPC   C1A15555  23.016  40.998   8.758
  936POPC   D2A15556  23.206  41.136   8.362
  936POPC   C3A15557  23.080  40.969   7.960
  936POPC   C4A15558  23.101  41.023   7.531
  936POPC   C1B15559  22.910  40.483   8.676
  936POPC   C2B15560  22.864  40.665   8.303
  936POPC   C3B15561  22.868  40.501   7.886
  936POPC   C4B15562  22.797  40.638   7.430
  937POPC   NC315563  23.536  42.880   9.530
  937POPC   PO415564  22.897  42.984   9.541
  937POPC   GL115565  22.832  43.079   9.106
  937POPC   GL215566  23.092  42.897   9.063
  937POPC   C1A15567  22.947  43.223   8.682
  937POPC   D2A15568  22.724  43.310   8.308
  937POPC   C3A15569  22.880  43.095   7.938
  937POPC   C4A15570  23.099  43.312   7.580
  937POPC   C1B15571  23.214  42.775   8.663
  937POPC   C2B15572  23.080  42.728   8.250
  937POPC   C3B15573  23.155  42.675   7.835
  937POPC   C4B15574  22.941  42.832   7.479
  938POPC   NC315575  30.237  10.764   9.513
  938POPC   PO415576  29.743  10.257   9.530
  938POPC   GL115577  29.995  10.391   9.177
  938POPC   GL215578  29.943  10.761   9.108
  938POPC   C1A15579  29.812  10.422   8.758
  938POPC   D2A15580  29.741  10.222   8.387
  938POPC   C3A15581  29.687  10.498   8.033
  938POPC   C4A15582  29.621  10.365   7.606
  938POPC   C1B15583  30.270  10.652   8.814
  938POPC   C2B15584  30.132  10.576   8.394
  938POPC   C3B15585  30.193  10.668   7.998
  938POPC   C4B15586  29.959  10.715   7.650
  939POPC   NC315587  25.863  17.874   9.392
  939POPC   PO415588  26.311  18.280   9.619
  939POPC   GL115589  26.107  18.530   9.293
  939POPC   GL215590  25.792  18.379   9.184
  939POPC   C1A15591  26.152  18.584   8.822
  939POPC   D2A15592  26.171  18.741   8.388
  939POPC   C3A15593  26.011  18.560   8.032
  939POPC   C4A15594  25.953  18.191   7.799
  939POPC   C1B15595  25.645  18.530   8.785
  939POPC   C2B15596  25.678  18.411   8.378
  939POPC   C3B15597  25.513  18.134   8.067
  939POPC   C4B15598  25.416  18.167   7.633
  940POPC   NC315599  35.294   0.086   9.304
  940POPC   PO415600  35.299  44.409   9.524
  940POPC   GL115601  35.186  44.486   9.129
  940POPC   GL215602  34.990  44.771   9.062
  940POPC   C1A15603  35.334  44.565   8.726
  940POPC   D2A15604  35.603  44.517   8.394
  940POPC   C3A15605  35.356  44.513   8.040
  940POPC   C4A15606  34.974  44.329   7.938
  940POPC   C1B15607  35.117   0.016   8.680
  940POPC   C2B15608  35.363  44.966   8.305
  940POPC   C3B15609  35.363  44.980   7.858
  940POPC   C4B15610  35.656   0.023   7.531
  941POPC   NC315611  12.252  10.372   9.582
  941POPC   PO415612  11.908  10.902   9.463
  941POPC   GL115613  11.959  10.488   9.185
  941POPC   GL215614  12.304  10.314   9.099
  941POPC   C1A15615  11.916  10.407   8.754
  941POPC   D2A15616  11.857  10.644   8.379
  941POPC   C3A15617  12.107  10.557   8.032
  941POPC   C4A15618  12.101  10.421   7.599
  941POPC   C1B15619  12.321  10.065   8.755
  941POPC   C2B15620  12.374  10.308   8.399
  941POPC   C3B15621  12.474  10.192   7.995
  941POPC   C4B15622  12.597  10.348   7.604
  942POPC   NC315623  34.875  14.772   9.442
  942POPC   PO415624  34.715  14.123   9.373
  942POPC   GL115625  34.519  14.352   9.044
  942POPC   GL215626  34.606  14.671   9.044
  942POPC   C1A15627  34.421  14.428   8.628
  942POPC   D2A15628  34.399  14.537   8.203
  942POPC   C3A15629  34.629  14.261   7.961
  942POPC   C4A15630  34.257  14.164   7.721
  942POPC   C1B15631  34.877  14.864   8.758
  942POPC   C2B15632  34.629  14.922   8.437
  942POPC   C3B15633  34.710  14.897   8.012
  942POPC   C4B15634  34.468  14.662   7.715
  943POPC   NC315635  21.639  14.623   9.444
  943POPC   PO415636  21.384  14.021   9.509
  943POPC   GL115637  21.631  14.191   9.124
  943POPC   GL215638  21.797  14.525   8.969
  943POPC   C1A15639  21.497  14.212   8.694
  943POPC   D2A15640  21.627  14.309   8.287
  943POPC   C3A15641  21.363  14.107   7.983
  943POPC   C4A15642  21.337  14.215   7.547
  943POPC   C1B15643  21.483  14.725   8.683
  943POPC   C2B15644  21.262  14.663   8.265
  943POPC   C3B15645  21.342  14.660   7.813
  943POPC   C4B15646  21.136  14.645   7.379
  944POPC   NC315647  24.266  10.073   9.628
  944POPC   PO415648  24.657   9.546   9.409
  944POPC   GL115649  24.476   9.879   9.121
  944POPC   GL215650  24.161  10.009   9.115
  944POPC   C1A15651  24.503  10.040   8.716
  944POPC   D2A15652  24.523   9.648   8.489
  944POPC   C3A15653  24.536   9.745   8.099
  944POPC   C4A15654  24.472   9.632   7.721
  944POPC   C1B15655  24.057   9.808   8.735
  944POPC   C2B15656  24.117   9.961   8.329
  944POPC   C3B15657  24.075   9.949   7.907
  944POPC   C4B15658  24.116   9.899   7.495
  945POPC   NC315659  17.338  36.137   9.828
  945POPC   PO415660  17.331  35.711   9.445
  945POPC   GL115661  17.451  36.142   9.217
  945POPC   GL215662  17.191  36.243   8.990
  945POPC   C1A15663  17.600  36.427   8.799
  945POPC   D2A15664  17.414  36.468   8.370
  945POPC   C3A15665  17.666  36.519   7.979
  945POPC   C4A15666  18.028  36.266   7.876
  945POPC   C1B15667  17.471  35.937   8.754
  945POPC   C2B15668  17.502  35.824   8.310
  945POPC   C3B15669  17.409  36.065   7.945
  945POPC   C4B15670  17.334  35.901   7.537
  946POPC   NC315671  44.221  19.132   9.294
  946POPC   PO415672  44.929  19.302   9.457
  946POPC   GL115673  44.712  19.191   9.145
  946POPC   GL215674  44.526  19.476   9.021
  946POPC   C1A15675  44.619  18.927   8.810
  946POPC   D2A15676  44.754  18.938   8.418
  946POPC   C3A15677  44.489  18.980   8.061
  946POPC   C4A15678  44.664  18.963   7.656
  946POPC   C1B15679  44.887  19.397   8.712
  946POPC   C2B15680   0.056  19.364   8.297
  946POPC   C3B15681  44.886  19.416   7.886
  946POPC   C4B15682  44.812  19.415   7.435
  947POPC   NC315683  17.664   1.636   9.813
  947POPC   PO415684  17.336   2.123   9.754
  947POPC   GL115685  17.532   2.095   9.283
  947POPC   GL215686  17.669   1.733   9.306
  947POPC   C1A15687  17.493   2.267   8.780
  947POPC   D2A15688  17.410   2.367   8.278
  947POPC   C3A15689  17.328   2.117   7.876
  947POPC   C4A15690  17.394   2.173   7.401
  947POPC   C1B15691  17.721   1.807   8.867
  947POPC   C2B15692  17.673   1.910   8.439
  947POPC   C3B15693  17.588   1.679   8.073
  947POPC   C4B15694  17.626   1.740   7.655
  948POPC   NC315695  42.990  43.335   9.387
  948POPC   PO415696  43.502  42.918   9.398
  948POPC   GL115697  43.168  42.954   9.065
  948POPC   GL215698  42.876  42.752   9.133
  948POPC   C1A15699  42.985  43.234   8.727
  948POPC   D2A15700  43.023  43.516   8.374
  948POPC   C3A15701  43.110  43.382   7.973
  948POPC   C4A15702  43.511  43.431   7.793
  948POPC   C1B15703  42.646  42.845   8.756
  948POPC   C2B15704  42.730  42.983   8.327
  948POPC   C3B15705  42.887  42.902   7.900
  948POPC   C4B15706  42.968  42.646   7.491
  949POPC   NC315707  29.342  44.756   9.575
  949POPC   PO415708  28.848  44.402   9.537
  949POPC   GL115709  29.022  44.602   9.199
  949POPC   GL215710  29.330  44.428   9.168
  949POPC   C1A15711  28.818  44.615   8.821
  949POPC   D2A15712  29.016  44.633   8.451
  949POPC   C3A15713  28.875  44.800   8.066
  949POPC   C4A15714  29.200  44.740   7.775
  949POPC   C1B15715  29.616  44.450   8.819
  949POPC   C2B15716  29.621  44.316   8.432
  949POPC   C3B15717  29.367  44.397   8.112
  949POPC   C4B15718  29.541  44.355   7.700
  950POPC   NC315719   3.581  18.866   9.457
  950POPC   PO415720   3.648  19.528   9.528
  950POPC   GL115721   3.588  19.277   9.151
  950POPC   GL215722   3.260  19.310   8.962
  950POPC   C1A15723   3.671  18.994   8.819
  950POPC   D2A15724   3.469  19.059   8.455
  950POPC   C3A15725   3.597  18.874   8.109
  950POPC   C4A15726   3.543  18.929   7.703
  950POPC   C1B15727   3.171  18.849   8.792
  950POPC   C2B15728   3.280  18.583   8.389
  950POPC   C3B15729   3.163  18.593   7.952
  950POPC   C4B15730   3.366  18.484   7.564
  951POPC   NC315731  43.657   4.735   9.749
  951POPC   PO415732  44.191   4.677   9.340
  951POPC   GL115733  44.019   5.037   9.072
  951POPC   GL215734  43.896   5.378   9.165
  951POPC   C1A15735  43.903   4.943   8.663
  951POPC   D2A15736  43.693   4.743   8.372
  951POPC   C3A15737  43.952   4.765   8.033
  951POPC   C4A15738  44.033   4.917   7.654
  951POPC   C1B15739  43.584   5.300   8.817
  951POPC   C2B15740  43.538   5.231   8.354
  951POPC   C3B15741  43.732   5.239   7.897
  951POPC   C4B15742  43.811   5.288   7.409
  952POPC   NC315743  11.580   9.601   9.511
  952POPC   PO415744  11.014   9.988   9.561
  952POPC   GL115745  11.298   9.985   9.251
  952POPC   GL215746  11.331   9.677   9.095
  952POPC   C1A15747  11.229  10.056   8.796
  952POPC   D2A15748  11.141   9.906   8.398
  952POPC   C3A15749  11.477   9.933   8.093
  952POPC   C4A15750  11.343  10.042   7.671
  952POPC   C1B15751  11.505   9.458   8.761
  952POPC   C2B15752  11.352   9.436   8.353
  952POPC   C3B15753  11.164   9.554   7.984
  952POPC   C4B15754  11.543   9.572   7.744
  953POPC   NC315755  42.012  40.248   9.559
  953POPC   PO415756  42.457  39.747   9.444
  953POPC   GL115757  42.410  40.183   9.202
  953POPC   GL215758  42.119  40.238   9.018
  953POPC   C1A15759  42.651  40.255   8.796
  953POPC   D2A15760  42.591  40.019   8.380
  953POPC   C3A15761  42.601  40.155   7.927
  953POPC   C4A15762  42.199  40.274   7.719
  953POPC   C1B15763  42.355  39.842   8.819
  953POPC   C2B15764  42.240  39.659   8.441
  953POPC   C3B15765  42.099  39.864   8.089
  953POPC   C4B15766  42.315  39.767   7.734
  954POPC   NC315767  37.300  23.547   9.589
  954POPC   PO415768  36.791  23.783   9.928
  954POPC   GL115769  36.901  23.847   9.392
  954POPC   GL215770  37.161  23.709   9.138
  954POPC   C1A15771  36.701  23.767   8.963
  954POPC   D2A15772  36.710  23.619   8.523
  954POPC   C3A15773  36.763  23.871   8.130
  954POPC   C4A15774  36.699  23.812   7.656
  954POPC   C1B15775  37.147  23.897   8.711
  954POPC   C2B15776  37.273  23.799   8.277
  954POPC   C3B15777  37.149  23.546   7.939
  954POPC   C4B15778  37.214  23.613   7.514
  955POPC   NC315779   0.834  11.847   9.831
  955POPC   PO415780   1.425  11.928   9.568
  955POPC   GL115781   1.248  11.797   9.216
  955POPC   GL215782   1.317  12.135   9.093
  955POPC   C1A15783   1.229  11.705   8.780
  955POPC   D2A15784   1.048  11.931   8.426
  955POPC   C3A15785   1.171  11.834   8.009
  955POPC   C4A15786   0.971  12.053   7.671
  955POPC   C1B15787   1.512  12.150   8.693
  955POPC   C2B15788   1.567  12.375   8.302
  955POPC   C3B15789   1.386  12.291   7.939
  955POPC   C4B15790   1.492  12.220   7.528
  956POPC   NC315791   3.409  24.022   9.463
  956POPC   PO415792   3.687  24.669   9.461
  956POPC   GL115793   3.558  24.536   9.097
  956POPC   GL215794   3.842  24.670   8.895
  956POPC   C1A15795   3.330  24.347   8.774
  956POPC   D2A15796   3.568  24.336   8.443
  956POPC   C3A15797   3.406  24.215   8.083
  956POPC   C4A15798   3.735  24.299   7.802
  956POPC   C1B15799   3.492  24.834   8.668
  956POPC   C2B15800   3.418  24.802   8.238
  956POPC   C3B15801   3.714  24.873   7.930
  956POPC   C4B15802   3.997  24.698   7.667
  957POPC   NC315803  25.234  20.401   9.409
  957POPC   PO415804  25.591  20.889   9.319
  957POPC   GL115805  25.532  20.539   8.991
  957POPC   GL215806  25.465  20.160   9.031
  957POPC   C1A15807  25.254  20.495   8.633
  957POPC   D2A15808  24.964  20.537   8.277
  957POPC   C3A15809  25.187  20.562   7.878
  957POPC   C4A15810  25.641  20.557   7.719
  957POPC   C1B15811  25.123  20.022   8.735
  957POPC   C2B15812  25.185  20.082   8.264
  957POPC   C3B15813  25.426  20.110   7.858
  957POPC   C4B15814  25.546  20.173   7.403
  958POPC   NC315815  11.790  38.953   9.491
  958POPC   PO415816  12.490  38.980   9.685
  958POPC   GL115817  12.247  39.115   9.280
  958POPC   GL215818  12.345  38.895   9.047
  958POPC   C1A15819  11.999  39.245   8.874
  958POPC   D2A15820  12.125  39.187   8.395
  958POPC   C3A15821  12.056  39.244   7.934
  958POPC   C4A15822  12.403  39.182   7.635
  958POPC   C1B15823  12.140  38.738   8.666
  958POPC   C2B15824  11.797  38.554   8.421
  958POPC   C3B15825  11.816  38.733   8.019
  958POPC   C4B15826  12.092  38.768   7.724
  959POPC   NC315827  16.203   9.239   9.458
  959POPC   PO415828  16.210   8.575   9.590
  959POPC   GL115829  16.179   8.816   9.184
  959POPC   GL215830  15.822   9.012   9.118
  959POPC   C1A15831  16.199   9.093   8.803
  959POPC   D2A15832  15.916   9.000   8.493
  959POPC   C3A15833  16.155   8.913   8.170
  959POPC   C4A15834  15.998   9.087   7.810
  959POPC   C1B15835  15.682   9.356   8.775
  959POPC   C2B15836  15.632   9.518   8.364
  959POPC   C3B15837  15.639   9.455   7.922
  959POPC   C4B15838  15.729   9.318   7.464
  960POPC   NC315839  40.265  25.866   9.434
  960POPC   PO415840  39.802  26.300   9.649
  960POPC   GL115841  39.801  26.410   9.213
  960POPC   GL215842  40.044  26.161   9.086
  960POPC   C1A15843  39.680  26.314   8.783
  960POPC   D2A15844  39.889  26.126   8.449
  960POPC   C3A15845  39.800  26.174   8.013
  960POPC   C4A15846  39.823  25.804   7.741
  960POPC   C1B15847  40.289  26.292   8.722
  960POPC   C2B15848  40.388  26.119   8.335
  960POPC   C3B15849  40.296  25.928   7.945
  960POPC   C4B15850  40.464  26.034   7.490
  961POPC   NC315851  25.763  39.711   9.413
  961POPC   PO415852  25.106  39.869   9.435
  961POPC   GL115853  25.377  39.871   9.088
  961POPC   GL215854  25.480  39.564   9.000
  961POPC   C1A15855  25.441  39.955   8.649
  961POPC   D2A15856  25.315  40.343   8.439
  961POPC   C3A15857  25.271  40.386   7.998
  961POPC   C4A15858  25.060  40.072   7.751
  961POPC   C1B15859  25.115  39.524   8.675
  961POPC   C2B15860  24.981  39.553   8.214
  961POPC   C3B15861  25.098  39.546   7.761
  961POPC   C4B15862  25.515  39.677   7.685
  962POPC   NC315863  44.751  23.512   9.579
  962POPC   PO415864  44.645  24.241   9.513
  962POPC   GL115865  44.669  23.949   9.207
  962POPC   GL215866  44.387  24.031   9.017
  962POPC   C1A15867  44.861  23.889   8.781
  962POPC   D2A15868   0.039  23.948   8.320
  962POPC   C3A15869  44.804  23.808   7.919
  962POPC   C4A15870  44.728  23.536   7.536
  962POPC   C1B15871  44.292  23.700   8.717
  962POPC   C2B15872  44.186  23.683   8.269
  962POPC   C3B15873  44.311  23.599   7.839
  962POPC   C4B15874  44.349  23.874   7.475
  963POPC   NC315875   2.509   6.795   9.402
  963POPC   PO415876   3.103   6.509   9.390
  963POPC   GL115877   2.801   6.499   9.080
  963POPC   GL215878   2.423   6.381   9.133
  963POPC   C1A15879   2.931   6.604   8.660
  963POPC   D2A15880   2.783   6.742   8.270
  963POPC   C3A15881   2.897   6.449   7.947
  963POPC   C4A15882   2.921   6.386   7.503
  963POPC   C1B15883   2.438   6.529   8.712
  963POPC   C2B15884   2.498   6.307   8.337
  963POPC   C3B15885   2.396   6.439   7.896
  963POPC   C4B15886   2.572   6.873   7.824
  964POPC   NC315887   7.717  13.607   9.257
  964POPC   PO415888   7.118  13.631   9.505
  964POPC   GL115889   7.232  13.475   9.038
  964POPC   GL215890   7.571  13.394   8.842
  964POPC   C1A15891   7.185  13.458   8.568
  964POPC   D2A15892   7.555  13.474   8.277
  964POPC   C3A15893   7.388  13.501   7.883
  964POPC   C4A15894   7.155  13.845   7.818
  964POPC   C1B15895   7.630  13.815   8.652
  964POPC   C2B15896   7.884  13.913   8.299
  964POPC   C3B15897   7.695  13.894   7.922
  964POPC   C4B15898   7.782  13.589   7.584
  965POPC   NC315899  22.605  27.179   9.547
  965POPC   PO415900  22.161  26.678   9.560
  965POPC   GL115901  22.413  26.823   9.205
  965POPC   GL215902  22.044  26.880   9.093
  965POPC   C1A15903  22.401  26.999   8.775
  965POPC   D2A15904  22.101  26.918   8.510
  965POPC   C3A15905  22.181  27.015   8.120
  965POPC   C4A15906  22.264  26.849   7.742
  965POPC   C1B15907  21.781  26.643   8.802
  965POPC   C2B15908  21.641  26.769   8.373
  965POPC   C3B15909  21.833  26.641   7.975
  965POPC   C4B15910  21.859  26.715   7.495
  966POPC   NC315911  30.262  18.972   9.571
  966POPC   PO415912  30.933  18.791   9.626
  966POPC   GL115913  30.808  18.794   9.193
  966POPC   GL215914  30.574  19.027   9.158
  966POPC   C1A15915  30.861  18.955   8.747
  966POPC   D2A15916  30.880  19.059   8.327
  966POPC   C3A15917  30.891  18.769   7.981
  966POPC   C4A15918  31.034  19.049   7.712
  966POPC   C1B15919  30.368  19.046   8.775
  966POPC   C2B15920  30.392  19.214   8.382
  966POPC   C3B15921  30.517  19.121   7.977
  966POPC   C4B15922  30.403  18.748   7.776
  967POPC   NC315923   7.557   9.289   9.499
  967POPC   PO415924   7.101   8.786   9.490
  967POPC   GL115925   7.292   8.900   9.085
  967POPC   GL215926   7.609   8.994   9.093
  967POPC   C1A15927   7.450   9.070   8.629
  967POPC   D2A15928   7.282   8.921   8.250
  967POPC   C3A15929   7.361   9.165   7.864
  967POPC   C4A15930   7.245   9.002   7.436
  967POPC   C1B15931   7.700   8.688   8.832
  967POPC   C2B15932   7.660   8.561   8.444
  967POPC   C3B15933   7.510   8.464   8.075
  967POPC   C4B15934   7.563   8.728   7.750
  968POPC   NC315935  39.046  24.472   9.575
  968POPC   PO415936  38.359  24.494   9.597
  968POPC   GL115937  38.460  24.652   9.206
  968POPC   GL215938  38.796  24.843   9.215
  968POPC   C1A15939  38.280  24.454   8.839
  968POPC   D2A15940  38.152  24.333   8.421
  968POPC   C3A15941  38.418  24.261   8.067
  968POPC   C4A15942  38.299  24.479   7.671
  968POPC   C1B15943  38.816  24.581   8.836
  968POPC   C2B15944  38.641  24.567   8.442
  968POPC   C3B15945  38.582  24.756   8.046
  968POPC   C4B15946  38.830  24.580   7.730
  969POPC   NC315947   4.731  27.321   9.270
  969POPC   PO415948   5.248  27.740   9.615
  969POPC   GL115949   5.182  27.586   9.162
  969POPC   GL215950   4.910  27.672   8.929
  969POPC   C1A15951   5.322  27.461   8.738
  969POPC   D2A15952   5.311  27.652   8.307
  969POPC   C3A15953   5.249  27.399   7.927
  969POPC   C4A15954   5.133  27.471   7.468
  969POPC   C1B15955   4.784  27.477   8.599
  969POPC   C2B15956   4.816  27.485   8.181
  969POPC   C3B15957   4.728  27.532   7.793
  969POPC   C4B15958   4.753  27.855   7.488
  970POPC   NC315959  23.896   1.776   9.512
  970POPC   PO415960  23.251   2.022   9.548
  970POPC   GL115961  23.540   2.050   9.190
  970POPC   GL215962  23.624   1.701   9.092
  970POPC   C1A15963  23.766   2.250   8.836
  970POPC   D2A15964  24.016   2.168   8.450
  970POPC   C3A15965  23.740   2.160   8.063
  970POPC   C4A15966  23.716   2.350   7.631
  970POPC   C1B15967  23.906   1.749   8.764
  970POPC   C2B15968  23.855   1.685   8.343
  970POPC   C3B15969  23.755   1.665   7.927
  970POPC   C4B15970  23.573   1.854   7.601
  971POPC   NC315971  35.032  38.713   9.484
  971POPC   PO415972  34.374  38.538   9.534
  971POPC   GL115973  34.387  38.343   9.161
  971POPC   GL215974  34.745  38.389   9.158
  971POPC   C1A15975  34.444  38.443   8.737
  971POPC   D2A15976  34.305  38.754   8.482
  971POPC   C3A15977  34.461  38.605   8.135
  971POPC   C4A15978  34.242  38.502   7.795
  971POPC   C1B15979  34.931  38.318   8.785
  971POPC   C2B15980  34.973  38.537   8.431
  971POPC   C3B15981  34.969  38.383   8.014
  971POPC   C4B15982  34.738  38.569   7.703
  972POPC   NC315983  11.865  37.305   9.502
  972POPC   PO415984  12.231  36.658   9.377
  972POPC   GL115985  12.203  37.016   9.073
  972POPC   GL215986  12.520  37.236   9.105
  972POPC   C1A15987  11.981  36.909   8.660
  972POPC   D2A15988  11.957  36.467   8.438
  972POPC   C3A15989  11.918  36.563   7.991
  972POPC   C4A15990  11.883  36.964   7.759
  972POPC   C1B15991  12.377  37.275   8.658
  972POPC   C2B15992  12.223  37.182   8.230
  972POPC   C3B15993  12.357  37.255   7.786
  972POPC   C4B15994  12.187  37.128   7.368
  973POPC   NC315995  39.796  35.493   9.403
  973POPC   PO415996  40.431  35.149   9.538
  973POPC   GL115997  40.219  35.287   9.149
  973POPC   GL215998  40.335  35.598   9.188
  973POPC   C1A15999  40.068  35.457   8.696
  973POPC   D2A16000  39.908  35.805   8.380
  973POPC   C3A16001  39.752  35.584   8.010
  973POPC   C4A16002  39.945  35.231   7.832
  973POPC   C1B16003  40.532  35.602   8.801
  973POPC   C2B16004  40.418  35.729   8.368
  973POPC   C3B16005  40.347  35.503   7.954
  973POPC   C4B16006  40.262  35.427   7.491
  974POPC   NC316007  27.306   8.559   9.468
  974POPC   PO416008  27.959   8.495   9.555
  974POPC   GL116009  27.712   8.429   9.165
  974POPC   GL216010  27.489   8.161   9.159
  974POPC   C1A16011  27.752   8.376   8.705
  974POPC   D2A16012  27.887   8.052   8.404
  974POPC   C3A16013  27.657   7.989   8.020
  974POPC   C4A16014  27.603   8.287   7.695
  974POPC   C1B16015  27.469   7.951   8.765
  974POPC   C2B16016  27.309   8.021   8.385
  974POPC   C3B16017  27.149   7.939   7.960
  974POPC   C4B16018  27.307   7.936   7.490
  975POPC   NC316019   5.918   7.023   9.503
  975POPC   PO416020   5.664   7.589   9.745
  975POPC   GL116021   5.693   7.428   9.269
  975POPC   GL216022   5.503   7.111   9.223
  975POPC   C1A16023   5.675   7.537   8.795
  975POPC   D2A16024   5.581   7.526   8.344
  975POPC   C3A16025   5.868   7.513   8.015
  975POPC   C4A16026   5.857   7.745   7.676
  975POPC   C1B16027   5.680   6.998   8.813
  975POPC   C2B16028   5.738   7.056   8.372
  975POPC   C3B16029   5.749   7.027   7.920
  975POPC   C4B16030   5.848   7.206   7.491
  976POPC   NC316031   1.958   7.120   9.384
  976POPC   PO416032   2.323   7.754   9.384
  976POPC   GL116033   2.129   7.524   9.093
  976POPC   GL216034   2.201   7.195   8.936
  976POPC   C1A16035   2.052   7.684   8.728
  976POPC   D2A16036   2.245   7.745   8.326
  976POPC   C3A16037   2.102   7.519   7.975
  976POPC   C4A16038   1.947   7.563   7.572
  976POPC   C1B16039   1.814   7.247   8.651
  976POPC   C2B16040   1.708   7.220   8.195
  976POPC   C3B16041   1.598   7.207   7.744
  976POPC   C4B16042   1.843   7.107   7.352
  977POPC   NC316043  40.243   6.275   9.573
  977POPC   PO416044  40.195   5.493   9.538
  977POPC   GL116045  40.261   5.859   9.277
  977POPC   GL216046  39.921   5.961   9.195
  977POPC   C1A16047  40.260   5.952   8.822
  977POPC   D2A16048  40.164   6.170   8.425
  977POPC   C3A16049  40.106   5.899   8.063
  977POPC   C4A16050  40.074   5.761   7.650
  977POPC   C1B16051  39.759   6.110   8.762
  977POPC   C2B16052  39.654   6.064   8.294
  977POPC   C3B16053  39.650   6.016   7.839
  977POPC   C4B16054  39.588   5.695   7.519
  978POPC   NC316055  24.710  36.086   9.544
  978POPC   PO416056  24.112  35.869   9.577
  978POPC   GL116057  24.411  35.975   9.150
  978POPC   GL216058  24.754  36.235   9.079
  978POPC   C1A16059  24.583  35.953   8.714
  978POPC   D2A16060  24.733  35.789   8.346
  978POPC   C3A16061  24.572  35.949   7.969
  978POPC   C4A16062  24.268  36.228   7.780
  978POPC   C1B16063  24.865  36.431   8.706
  978POPC   C2B16064  24.945  36.254   8.289
  978POPC   C3B16065  24.765  36.431   7.917
  978POPC   C4B16066  24.913  36.756   7.735
  979POPC   NC316067  44.283  29.695   9.538
  979POPC   PO416068  44.775  30.084   9.557
  979POPC   GL116069  44.768  30.026   9.129
  979POPC   GL216070  44.636  29.677   9.163
  979POPC   C1A16071  44.807  30.211   8.705
  979POPC   D2A16072  44.889  30.263   8.262
  979POPC   C3A16073  44.867  29.959   7.893
  979POPC   C4A16074   0.163  30.048   7.509
  979POPC   C1B16075  44.531  29.763   8.747
  979POPC   C2B16076  44.758  29.762   8.378
  979POPC   C3B16077  44.841  29.453   8.063
  979POPC   C4B16078  44.635  29.449   7.706
  980POPC   NC316079  41.999   8.908   9.757
  980POPC   PO416080  42.603   8.702   9.522
  980POPC   GL116081  42.499   9.008   9.228
  980POPC   GL216082  42.168   8.923   9.124
  980POPC   C1A16083  42.617   9.003   8.806
  980POPC   D2A16084  42.578   8.764   8.380
  980POPC   C3A16085  42.500   9.003   7.980
  980POPC   C4A16086  42.462   9.255   7.607
  980POPC   C1B16087  42.154   8.869   8.681
  980POPC   C2B16088  42.022   8.926   8.258
  980POPC   C3B16089  41.885   8.716   7.852
  980POPC   C4B16090  42.142   8.805   7.480
  981POPC   NC316091  20.896  27.595   9.378
  981POPC   PO416092  21.534  27.449   9.446
  981POPC   GL116093  21.328  27.545   9.091
  981POPC   GL216094  21.110  27.244   9.065
  981POPC   C1A16095  21.473  27.597   8.688
  981POPC   D2A16096  21.252  27.661   8.318
  981POPC   C3A16097  21.508  27.570   7.976
  981POPC   C4A16098  21.491  27.409   7.548
  981POPC   C1B16099  20.953  27.490   8.717
  981POPC   C2B16100  20.844  27.352   8.281
  981POPC   C3B16101  21.024  27.460   7.866
  981POPC   C4B16102  21.019  27.550   7.423
  982POPC   NC316103  32.266  41.030   9.481
  982POPC   PO416104  31.861  40.547   9.582
  982POPC   GL116105  32.013  40.690   9.180
  982POPC   GL216106  32.383  40.611   9.180
  982POPC   C1A16107  32.119  40.897   8.795
  982POPC   D2A16108  31.997  41.061   8.398
  982POPC   C3A16109  32.202  40.991   7.992
  982POPC   C4A16110  32.035  40.778   7.660
  982POPC   C1B16111  32.344  40.439   8.765
  982POPC   C2B16112  32.395  40.663   8.372
  982POPC   C3B16113  32.492  40.557   7.953
  982POPC   C4B16114  32.455  40.560   7.505
  983POPC   NC316115  11.542  27.000   9.992
  983POPC   PO416116  11.082  26.707   9.581
  983POPC   GL116117  11.371  26.809   9.262
  983POPC   GL216118  11.619  27.065   9.325
  983POPC   C1A16119  11.448  26.670   8.869
  983POPC   D2A16120  11.456  26.509   8.480
  983POPC   C3A16121  11.332  26.733   8.152
  983POPC   C4A16122  11.248  26.640   7.754
  983POPC   C1B16123  11.629  27.159   8.875
  983POPC   C2B16124  11.541  27.138   8.436
  983POPC   C3B16125  11.509  27.181   7.975
  983POPC   C4B16126  11.290  27.130   7.578
  984POPC   NC316127   5.729  29.535   9.253
  984POPC   PO416128   5.706  30.108   9.521
  984POPC   GL116129   5.866  30.021   9.105
  984POPC   GL216130   6.152  29.780   9.098
  984POPC   C1A16131   5.920  29.976   8.655
  984POPC   D2A16132   5.944  30.290   8.334
  984POPC   C3A16133   5.659  30.169   8.057
  984POPC   C4A16134   5.684  29.962   7.640
  984POPC   C1B16135   6.328  29.629   8.730
  984POPC   C2B16136   6.166  29.525   8.358
  984POPC   C3B16137   5.943  29.704   8.029
  984POPC   C4B16138   6.168  29.788   7.659
  985POPC   NC316139  35.564  37.199   9.590
  985POPC   PO416140  35.385  36.614   9.385
  985POPC   GL116141  35.151  36.777   9.057
  985POPC   GL216142  35.287  37.102   9.134
  985POPC   C1A16143  35.228  36.712   8.619
  985POPC   D2A16144  35.638  36.706   8.424
  985POPC   C3A16145  35.614  36.821   8.026
  985POPC   C4A16146  35.299  36.762   7.739
  985POPC   C1B16147  35.195  37.247   8.721
  985POPC   C2B16148  35.278  37.144   8.299
  985POPC   C3B16149  35.228  37.253   7.872
  985POPC   C4B16150  35.624  37.213   7.686
  986POPC   NC316151  39.685  25.063   9.289
  986POPC   PO416152  39.856  24.499   9.612
  986POPC   GL116153  39.987  24.557   9.180
  986POPC   GL216154  40.125  24.889   9.060
  986POPC   C1A16155  40.202  24.412   8.792
  986POPC   D2A16156  40.095  24.211   8.407
  986POPC   C3A16157  40.167  24.400   8.028
  986POPC   C4A16158  40.012  24.366   7.625
  986POPC   C1B16159  39.819  24.754   8.726
  986POPC   C2B16160  39.799  24.621   8.308
  986POPC   C3B16161  39.861  24.802   7.898
  986POPC   C4B16162  39.813  24.808   7.444
  987POPC   NC316163   3.662  15.544   9.354
  987POPC   PO416164   4.304  15.342   9.624
  987POPC   GL116165   4.191  15.068   9.292
  987POPC   GL216166   3.881  15.107   9.236
  987POPC   C1A16167   4.241  14.920   8.856
  987POPC   D2A16168   4.188  15.157   8.450
  987POPC   C3A16169   4.302  15.032   8.083
  987POPC   C4A16170   4.196  15.097   7.682
  987POPC   C1B16171   4.022  15.388   8.865
  987POPC   C2B16172   3.823  15.506   8.474
  987POPC   C3B16173   4.076  15.516   8.088
  987POPC   C4B16174   3.944  15.559   7.687
  988POPC   NC316175  21.452  39.909   9.674
  988POPC   PO416176  21.182  40.343   9.223
  988POPC   GL116177  21.368  39.952   9.120
  988POPC   GL216178  21.622  40.023   8.942
  988POPC   C1A16179  21.302  39.716   8.721
  988POPC   D2A16180  21.105  39.806   8.321
  988POPC   C3A16181  21.313  40.035   7.988
  988POPC   C4A16182  21.234  40.025   7.513
  988POPC   C1B16183  21.348  40.197   8.615
  988POPC   C2B16184  21.584  40.432   8.384
  988POPC   C3B16185  21.610  40.529   7.984
  988POPC   C4B16186  21.642  40.269   7.653
  989POPC   NC316187  41.612  23.981   9.458
  989POPC   PO416188  41.320  23.456   9.366
  989POPC   GL116189  41.401  23.808   9.020
  989POPC   GL216190  41.760  23.946   8.985
  989POPC   C1A16191  41.563  23.843   8.555
  989POPC   D2A16192  41.701  23.565   8.287
  989POPC   C3A16193  41.343  23.537   7.974
  989POPC   C4A16194  41.424  23.651   7.560
  989POPC   C1B16195  41.762  24.302   8.695
  989POPC   C2B16196  41.541  24.317   8.315
  989POPC   C3B16197  41.576  24.007   8.006
  989POPC   C4B16198  41.847  24.077   7.678
  990POPC   NC316199  36.121  17.850   9.357
  990POPC   PO416200  36.227  17.192   9.438
  990POPC   GL116201  36.341  17.433   9.111
  990POPC   GL216202  36.073  17.207   8.943
  990POPC   C1A16203  36.252  17.626   8.727
  990POPC   D2A16204  36.253  17.354   8.375
  990POPC   C3A16205  36.361  17.558   8.015
  990POPC   C4A16206  36.112  17.703   7.699
  990POPC   C1B16207  35.784  17.370   8.647
  990POPC   C2B16208  35.750  17.326   8.205
  990POPC   C3B16209  35.964  17.225   7.878
  990POPC   C4B16210  35.823  17.004   7.549
  991POPC   NC316211  35.599  14.871   9.459
  991POPC   PO416212  35.036  15.201   9.425
  991POPC   GL116213  35.149  15.391   9.041
  991POPC   GL216214  35.469  15.235   9.109
  991POPC   C1A16215  35.287  15.299   8.618
  991POPC   D2A16216  35.217  14.922   8.349
  991POPC   C3A16217  35.174  15.080   7.926
  991POPC   C4A16218  35.340  15.471   7.782
  991POPC   C1B16219  35.591  14.922   8.782
  991POPC   C2B16220  35.739  15.089   8.376
  991POPC   C3B16221  35.689  15.089   7.938
  991POPC   C4B16222  35.487  14.728   7.739
  992POPC   NC316223  35.635  43.408   9.464
  992POPC   PO416224  35.304  42.797   9.446
  992POPC   GL116225  35.341  42.921   9.078
  992POPC   GL216226  35.341  43.255   9.057
  992POPC   C1A16227  35.537  42.953   8.700
  992POPC   D2A16228  35.582  42.699   8.387
  992POPC   C3A16229  35.448  42.827   8.022
  992POPC   C4A16230  35.286  43.163   7.772
  992POPC   C1B16231  35.069  43.211   8.731
  992POPC   C2B16232  35.275  43.202   8.314
  992POPC   C3B16233  35.460  43.510   8.101
  992POPC   C4B16234  35.552  43.646   7.720
  993POPC   NC316235  35.315   9.149   9.597
  993POPC   PO416236  35.916   8.889   9.544
  993POPC   GL116237  35.599   8.990   9.149
  993POPC   GL216238  35.210   9.036   9.112
  993POPC   C1A16239  35.486   9.002   8.684
  993POPC   D2A16240  35.479   8.806   8.268
  993POPC   C3A16241  35.438   8.954   7.845
  993POPC   C4A16242  35.527   8.712   7.489
  993POPC   C1B16243  35.029   8.712   8.864
  993POPC   C2B16244  34.984   8.753   8.429
  993POPC   C3B16245  35.019   8.701   7.986
  993POPC   C4B16246  35.029   8.718   7.544
  994POPC   NC316247   1.503  37.262   9.463
  994POPC   PO416248   2.210  36.964   9.465
  994POPC   GL116249   1.917  36.993   9.099
  994POPC   GL216250   1.682  37.266   8.982
  994POPC   C1A16251   1.842  36.910   8.644
  994POPC   D2A16252   1.810  36.540   8.362
  994POPC   C3A16253   1.989  36.579   7.941
  994POPC   C4A16254   1.948  36.779   7.537
  994POPC   C1B16255   2.112  37.341   8.786
  994POPC   C2B16256   2.301  37.265   8.419
  994POPC   C3B16257   2.060  37.050   8.122
  994POPC   C4B16258   2.293  37.093   7.755
  995POPC   NC316259  19.287  38.910   9.402
  995POPC   PO416260  18.816  38.736   9.839
  995POPC   GL116261  18.890  38.575   9.309
  995POPC   GL216262  19.130  38.329   9.139
  995POPC   C1A16263  19.034  38.744   8.827
  995POPC   D2A16264  19.065  38.818   8.370
  995POPC   C3A16265  18.960  38.552   7.996
  995POPC   C4A16266  18.926  38.581   7.550
  995POPC   C1B16267  19.318  38.336   8.719
  995POPC   C2B16268  19.206  38.243   8.326
  995POPC   C3B16269  19.398  38.233   7.943
  995POPC   C4B16270  19.199  38.166   7.616
  996POPC   NC316271  11.060  40.453   9.448
  996POPC   PO416272  11.538  40.838   9.662
  996POPC   GL116273  11.584  40.740   9.226
  996POPC   GL216274  11.531  41.054   9.045
  996POPC   C1A16275  11.443  40.598   8.805
  996POPC   D2A16276  11.475  40.490   8.360
  996POPC   C3A16277  11.335  40.792   8.041
  996POPC   C4A16278  11.392  40.675   7.624
  996POPC   C1B16279  11.160  41.045   8.733
  996POPC   C2B16280  10.937  41.183   8.343
  996POPC   C3B16281  10.987  41.117   7.866
  996POPC   C4B16282  11.118  41.094   7.421
  997POPC   NC316283  10.273   5.623   9.481
  997POPC   PO416284  10.778   6.017   9.643
  997POPC   GL116285  10.653   5.840   9.219
  997POPC   GL216286  10.319   6.001   9.146
  997POPC   C1A16287  10.853   5.708   8.836
  997POPC   D2A16288  10.678   5.767   8.414
  997POPC   C3A16289  10.887   5.593   8.050
  997POPC   C4A16290  10.912   5.793   7.691
  997POPC   C1B16291  10.128   6.066   8.749
  997POPC   C2B16292  10.187   6.002   8.324
  997POPC   C3B16293  10.131   6.115   7.885
  997POPC   C4B16294  10.423   5.952   7.540
  998POPC   NC316295  14.992   4.261   9.936
  998POPC   PO416296  15.449   4.568   9.608
  998POPC   GL116297  15.289   4.473   9.197
  998POPC   GL216298  14.980   4.311   9.205
  998POPC   C1A16299  15.305   4.496   8.745
  998POPC   D2A16300  15.477   4.756   8.398
  998POPC   C3A16301  15.519   4.465   8.045
  998POPC   C4A16302  15.565   4.057   7.885
  998POPC   C1B16303  14.795   4.472   8.804
  998POPC   C2B16304  14.850   4.261   8.402
  998POPC   C3B16305  15.059   4.205   8.027
  998POPC   C4B16306  15.034   4.485   7.742
  999POPC   NC316307   2.630  43.459   9.403
  999POPC   PO416308   3.071  42.991   9.517
  999POPC   GL116309   2.810  43.003   9.172
  999POPC   GL216310   2.976  43.301   9.075
  999POPC   C1A16311   2.628  42.993   8.771
  999POPC   D2A16312   2.756  42.976   8.364
  999POPC   C3A16313   2.527  43.050   7.991
  999POPC   C4A16314   2.636  43.047   7.537
  999POPC   C1B16315   2.889  43.401   8.657
  999POPC   C2B16316   2.715  43.484   8.231
  999POPC   C3B16317   2.836  43.418   7.794
  999POPC   C4B16318   2.628  43.534   7.350
 1000POPC   NC316319  34.866   8.553   9.493
 1000POPC   PO416320  34.772   9.211   9.581
 1000POPC   GL116321  34.698   8.956   9.203
 1000POPC   GL216322  34.519   8.653   9.101
 1000POPC   C1A16323  34.685   9.078   8.783
 1000POPC   D2A16324  34.476   9.105   8.406
 1000POPC   C3A16325  34.684   9.123   7.984
 1000POPC   C4A16326  34.758   9.142   7.521
 1000POPC   C1B16327  34.548   8.583   8.644
 1000POPC   C2B16328  34.548   8.616   8.187
 1000POPC   C3B16329  34.546   8.679   7.735
 1000POPC   C4B16330  34.594   8.754   7.256
 1001POPC   NC316331   4.475  30.705   9.842
 1001POPC   PO416332   4.170  30.263   9.501
 1001POPC   GL116333   4.441  30.508   9.201
 1001POPC   GL216334   4.324  30.816   9.014
 1001POPC   C1A16335   4.649  30.528   8.795
 1001POPC   D2A16336   4.412  30.773   8.512
 1001POPC   C3A16337   4.474  30.808   8.083
 1001POPC   C4A16338   4.343  30.484   7.787
 1001POPC   C1B16339   4.051  31.104   8.798
 1001POPC   C2B16340   4.050  31.108   8.358
 1001POPC   C3B16341   3.991  30.860   7.977
 1001POPC   C4B16342   4.286  30.959   7.635
 1002POPC   NC316343   0.870  15.933   9.499
 1002POPC   PO416344   1.527  15.653   9.563
 1002POPC   GL116345   1.347  15.838   9.153
 1002POPC   GL216346   1.090  16.123   9.048
 1002POPC   C1A16347   1.245  15.782   8.683
 1002POPC   D2A16348   1.387  15.786   8.213
 1002POPC   C3A16349   1.043  15.585   7.936
 1002POPC   C4A16350   0.888  15.411   7.527
 1002POPC   C1B16351   0.983  16.438   8.734
 1002POPC   C2B16352   0.893  16.380   8.288
 1002POPC   C3B16353   1.130  16.146   7.952
 1002POPC   C4B16354   1.614  16.161   7.866
 1003POPC   NC316355  26.936  19.793   9.498
 1003POPC   PO416356  27.393  19.457   9.118
 1003POPC   GL116357  26.978  19.665   8.988
 1003POPC   GL216358  26.925  20.049   9.071
 1003POPC   C1A16359  26.596  19.642   8.698
 1003POPC   D2A16360  26.464  19.931   8.356
 1003POPC   C3A16361  26.390  19.826   7.932
 1003POPC   C4A16362  26.539  19.581   7.564
 1003POPC   C1B16363  26.830  20.114   8.658
 1003POPC   C2B16364  26.999  19.932   8.304
 1003POPC   C3B16365  26.898  19.837   7.906
 1003POPC   C4B16366  27.005  19.986   7.536
 1004POPC   NC316367  22.174  19.272   9.785
 1004POPC   PO416368  22.269  19.939   9.588
 1004POPC   GL116369  22.268  19.807   9.191
 1004POPC   GL216370  22.537  19.640   9.075
 1004POPC   C1A16371  22.247  19.967   8.785
 1004POPC   D2A16372  21.972  20.022   8.436
 1004POPC   C3A16373  22.190  19.950   8.050
 1004POPC   C4A16374  22.472  19.916   7.701
 1004POPC   C1B16375  22.412  19.490   8.632
 1004POPC   C2B16376  22.084  19.400   8.289
 1004POPC   C3B16377  21.819  19.590   7.993
 1004POPC   C4B16378  21.930  19.781   7.621
 1005POPC   NC316379   1.732  11.624   9.450
 1005POPC   PO416380   1.842  10.980   9.464
 1005POPC   GL116381   1.999  11.211   9.101
 1005POPC   GL216382   2.080  11.558   9.088
 1005POPC   C1A16383   2.153  11.260   8.666
 1005POPC   D2A16384   1.910  11.444   8.319
 1005POPC   C3A16385   1.822  11.178   7.996
 1005POPC   C4A16386   1.971  10.973   7.695
 1005POPC   C1B16387   1.805  11.742   8.776
 1005POPC   C2B16388   1.541  11.782   8.367
 1005POPC   C3B16389   1.701  11.860   7.970
 1005POPC   C4B16390   2.052  11.612   7.836
 1006POPC   NC316391  37.123  26.720   9.824
 1006POPC   PO416392  36.792  27.237   9.620
 1006POPC   GL116393  36.924  26.947   9.231
 1006POPC   GL216394  37.231  27.026   9.058
 1006POPC   C1A16395  36.846  26.800   8.741
 1006POPC   D2A16396  36.851  26.955   8.248
 1006POPC   C3A16397  36.667  26.959   7.780
 1006POPC   C4A16398  36.560  26.797   7.334
 1006POPC   C1B16399  37.349  26.843   8.652
 1006POPC   C2B16400  37.372  26.941   8.215
 1006POPC   C3B16401  37.165  26.900   7.823
 1006POPC   C4B16402  37.073  26.863   7.382
 1007POPC   NC316403  13.766  19.145   9.627
 1007POPC   PO416404  13.227  19.094   9.226
 1007POPC   GL116405  13.629  18.999   9.116
 1007POPC   GL216406  13.798  19.326   9.141
 1007POPC   C1A16407  13.769  18.779   8.733
 1007POPC   D2A16408  13.637  18.874   8.283
 1007POPC   C3A16409  13.551  18.747   7.847
 1007POPC   C4A16410  13.805  18.926   7.520
 1007POPC   C1B16411  13.800  19.295   8.692
 1007POPC   C2B16412  14.073  19.085   8.407
 1007POPC   C3B16413  14.014  19.069   7.958
 1007POPC   C4B16414  13.975  19.409   7.654
 1008POPC   NC316415  34.929  35.327   9.378
 1008POPC   PO416416  34.300  35.146   9.295
 1008POPC   GL116417  34.520  35.508   9.073
 1008POPC   GL216418  34.867  35.573   8.937
 1008POPC   C1A16419  34.486  35.506   8.624
 1008POPC   D2A16420  34.587  35.637   8.228
 1008POPC   C3A16421  34.470  35.254   8.048
 1008POPC   C4A16422  34.250  35.128   7.711
 1008POPC   C1B16423  35.012  35.193   8.734
 1008POPC   C2B16424  35.015  35.036   8.313
 1008POPC   C3B16425  34.965  35.260   7.931
 1008POPC   C4B16426  34.755  35.305   7.561
 1009POPC   NC316427  43.514   3.832   9.653
 1009POPC   PO416428  43.018   3.433   9.546
 1009POPC   GL116429  43.229   3.643   9.270
 1009POPC   GL216430  43.048   3.889   9.088
 1009POPC   C1A16431  43.497   3.658   8.965
 1009POPC   D2A16432  43.469   3.448   8.591
 1009POPC   C3A16433  43.460   3.614   8.193
 1009POPC   C4A16434  43.272   3.337   7.869
 1009POPC   C1B16435  43.018   3.582   8.795
 1009POPC   C2B16436  42.998   3.708   8.391
 1009POPC   C3B16437  42.871   3.671   7.977
 1009POPC   C4B16438  42.952   3.598   7.539
 1010POPC   NC316439   8.785   5.383   9.518
 1010POPC   PO416440   8.624   6.036   9.428
 1010POPC   GL116441   8.885   5.869   9.098
 1010POPC   GL216442   8.977   5.511   9.082
 1010POPC   C1A16443   8.877   5.836   8.658
 1010POPC   D2A16444   8.870   5.786   8.227
 1010POPC   C3A16445   8.997   6.061   7.928
 1010POPC   C4A16446   8.739   5.880   7.665
 1010POPC   C1B16447   9.327   5.593   8.837
 1010POPC   C2B16448   9.241   5.483   8.427
 1010POPC   C3B16449   9.339   5.650   8.051
 1010POPC   C4B16450   9.175   5.631   7.692
 1011POPC   NC316451   2.318  20.311   9.508
 1011POPC   PO416452   1.928  20.874   9.437
 1011POPC   GL116453   2.072  20.747   9.052
 1011POPC   GL216454   2.108  20.411   9.038
 1011POPC   C1A16455   2.136  20.690   8.597
 1011POPC   D2A16456   2.012  20.624   8.190
 1011POPC   C3A16457   2.103  20.919   7.854
 1011POPC   C4A16458   2.163  21.039   7.400
 1011POPC   C1B16459   1.831  20.291   8.704
 1011POPC   C2B16460   1.943  20.124   8.314
 1011POPC   C3B16461   1.834  20.135   7.905
 1011POPC   C4B16462   1.977  20.461   7.709
 1012POPC   NC316463  11.425  15.408   9.532
 1012POPC   PO416464  11.112  14.890   9.456
 1012POPC   GL116465  11.347  15.085   9.115
 1012POPC   GL216466  11.672  15.073   9.228
 1012POPC   C1A16467  11.310  15.295   8.677
 1012POPC   D2A16468  11.549  15.507   8.325
 1012POPC   C3A16469  11.358  15.473   7.912
 1012POPC   C4A16470  11.113  15.110   7.809
 1012POPC   C1B16471  11.779  15.185   8.809
 1012POPC   C2B16472  11.855  15.104   8.373
 1012POPC   C3B16473  11.753  15.162   7.962
 1012POPC   C4B16474  11.589  15.065   7.572
 1013POPC   NC316475  18.859  19.794   9.369
 1013POPC   PO416476  19.537  20.105   9.543
 1013POPC   GL116477  19.347  19.902   9.179
 1013POPC   GL216478  19.116  20.156   9.103
 1013POPC   C1A16479  19.319  19.819   8.713
 1013POPC   D2A16480  19.077  19.583   8.366
 1013POPC   C3A16481  19.270  19.513   7.963
 1013POPC   C4A16482  19.186  19.648   7.488
 1013POPC   C1B16483  18.967  20.196   8.693
 1013POPC   C2B16484  19.136  20.094   8.297
 1013POPC   C3B16485  19.075  19.965   7.880
 1013POPC   C4B16486  19.172  20.167   7.497
 1014POPC   NC316487   7.568  31.779   9.350
 1014POPC   PO416488   7.020  31.344   9.500
 1014POPC   GL116489   7.191  31.440   9.117
 1014POPC   GL216490   7.549  31.355   9.061
 1014POPC   C1A16491   7.259  31.665   8.732
 1014POPC   D2A16492   7.433  31.577   8.381
 1014POPC   C3A16493   7.200  31.787   8.131
 1014POPC   C4A16494   7.474  31.661   7.835
 1014POPC   C1B16495   7.329  31.164   8.720
 1014POPC   C2B16496   7.438  31.061   8.322
 1014POPC   C3B16497   7.629  31.169   7.962
 1014POPC   C4B16498   7.400  31.178   7.613
 1015POPC   NC316499   3.469  36.508   9.652
 1015POPC   PO416500   3.814  35.954   9.389
 1015POPC   GL116501   3.814  35.673   9.033
 1015POPC   GL216502   3.588  35.909   8.904
 1015POPC   C1A16503   3.884  35.687   8.574
 1015POPC   D2A16504   3.562  35.959   8.369
 1015POPC   C3A16505   3.654  36.056   7.946
 1015POPC   C4A16506   3.773  36.431   7.763
 1015POPC   C1B16507   3.353  36.313   8.808
 1015POPC   C2B16508   3.276  36.459   8.427
 1015POPC   C3B16509   3.252  36.370   8.003
 1015POPC   C4B16510   3.307  36.349   7.558
 1016POPC   NC316511  12.189  28.780   9.550
 1016POPC   PO416512  11.840  29.399   9.574
 1016POPC   GL116513  12.101  29.368   9.187
 1016POPC   GL216514  12.012  29.025   9.128
 1016POPC   C1A16515  12.324  29.232   8.790
 1016POPC   D2A16516  12.205  29.120   8.397
 1016POPC   C3A16517  12.358  29.244   8.028
 1016POPC   C4A16518  12.077  29.252   7.715
 1016POPC   C1B16519  11.816  28.997   8.716
 1016POPC   C2B16520  11.819  28.788   8.321
 1016POPC   C3B16521  11.745  28.883   7.903
 1016POPC   C4B16522  11.944  28.817   7.494
 1017POPC   NC316523  39.156  19.676   9.560
 1017POPC   PO416524  39.279  20.352   9.467
 1017POPC   GL116525  39.375  20.010   9.170
 1017POPC   GL216526  39.411  19.619   9.092
 1017POPC   C1A16527  39.119  19.895   8.823
 1017POPC   D2A16528  39.147  19.558   8.515
 1017POPC   C3A16529  39.072  19.614   8.074
 1017POPC   C4A16530  39.062  19.729   7.632
 1017POPC   C1B16531  39.613  19.716   8.681
 1017POPC   C2B16532  39.614  19.712   8.219
 1017POPC   C3B16533  39.535  19.705   7.795
 1017POPC   C4B16534  39.485  19.486   7.408
 1018POPC   NC316535  12.576  41.167   9.551
 1018POPC   PO416536  13.207  41.231   9.404
 1018POPC   GL116537  12.848  41.204   9.098
 1018POPC   GL216538  12.557  40.991   9.082
 1018POPC   C1A16539  12.906  41.241   8.665
 1018POPC   D2A16540  13.179  41.234   8.279
 1018POPC   C3A16541  12.963  41.384   7.888
 1018POPC   C4A16542  12.662  41.743   7.969
 1018POPC   C1B16543  12.347  41.165   8.728
 1018POPC   C2B16544  12.506  41.416   8.386
 1018POPC   C3B16545  12.480  41.272   7.995
 1018POPC   C4B16546  12.408  41.370   7.599
 1019POPC   NC316547   2.429  42.068   9.449
 1019POPC   PO416548   1.804  41.934   9.484
 1019POPC   GL116549   2.033  42.150   9.157
 1019POPC   GL216550   1.916  42.460   9.052
 1019POPC   C1A16551   2.227  42.104   8.767
 1019POPC   D2A16552   1.970  42.347   8.495
 1019POPC   C3A16553   1.985  42.318   8.080
 1019POPC   C4A16554   1.982  42.140   7.707
 1019POPC   C1B16555   1.798  42.748   8.718
 1019POPC   C2B16556   1.629  42.656   8.253
 1019POPC   C3B16557   1.725  42.628   7.731
 1019POPC   C4B16558   1.824  42.849   7.287
 1020POPC   NC316559  44.171  34.524   9.307
 1020POPC   PO416560  43.593  34.250   9.583
 1020POPC   GL116561  43.689  34.430   9.143
 1020POPC   GL216562  43.814  34.781   9.075
 1020POPC   C1A16563  43.903  34.450   8.699
 1020POPC   D2A16564  44.068  34.167   8.412
 1020POPC   C3A16565  44.208  34.250   7.999
 1020POPC   C4A16566  44.005  34.573   7.785
 1020POPC   C1B16567  43.687  34.924   8.689
 1020POPC   C2B16568  43.579  34.749   8.295
 1020POPC   C3B16569  43.656  34.902   7.887
 1020POPC   C4B16570  43.747  35.075   7.454
 1021POPC   NC316571  20.048  38.863   9.490
 1021POPC   PO416572  19.534  38.343   9.448
 1021POPC   GL116573  19.795  38.566   9.164
 1021POPC   GL216574  19.532  38.698   9.013
 1021POPC   C1A16575  19.905  38.446   8.738
 1021POPC   D2A16576  19.718  38.192   8.397
 1021POPC   C3A16577  19.910  38.215   7.979
 1021POPC   C4A16578  19.862  38.612   7.777
 1021POPC   C1B16579  19.569  38.809   8.593
 1021POPC   C2B16580  19.523  38.651   8.191
 1021POPC   C3B16581  19.381  38.720   7.755
 1021POPC   C4B16582  19.595  38.644   7.313
 1022POPC   NC316583  32.404  34.867   9.653
 1022POPC   PO416584  32.382  34.201   9.522
 1022POPC   GL116585  32.400  34.461   9.149
 1022POPC   GL216586  32.091  34.663   9.218
 1022POPC   C1A16587  32.444  34.513   8.684
 1022POPC   D2A16588  32.140  34.384   8.338
 1022POPC   C3A16589  32.220  34.609   7.975
 1022POPC   C4A16590  32.658  34.524   7.908
 1022POPC   C1B16591  31.948  34.591   8.759
 1022POPC   C2B16592  31.827  34.828   8.366
 1022POPC   C3B16593  31.860  35.013   7.912
 1022POPC   C4B16594  31.924  34.849   7.516
 1023POPC   NC316595  20.103  42.973   9.559
 1023POPC   PO416596  19.620  43.383   9.332
 1023POPC   GL116597  20.005  43.202   9.112
 1023POPC   GL216598  20.054  42.819   9.084
 1023POPC   C1A16599  20.141  43.151   8.703
 1023POPC   D2A16600  19.915  43.066   8.348
 1023POPC   C3A16601  19.864  43.378   8.040
 1023POPC   C4A16602  20.044  43.336   7.640
 1023POPC   C1B16603  19.681  42.855   8.801
 1023POPC   C2B16604  19.635  42.630   8.400
 1023POPC   C3B16605  19.680  42.771   7.948
 1023POPC   C4B16606  20.011  42.826   7.599
 1024POPC   NC316607  44.358  36.081   9.399
 1024POPC   PO416608  43.772  36.290   9.454
 1024POPC   GL116609  43.960  36.121   9.096
 1024POPC   GL216610  44.054  35.774   9.130
 1024POPC   C1A16611  44.038  36.271   8.693
 1024POPC   D2A16612  43.915  36.118   8.316
 1024POPC   C3A16613  43.754  36.323   7.993
 1024POPC   C4A16614  44.017  36.552   7.745
 1024POPC   C1B16615  43.835  35.795   8.732
 1024POPC   C2B16616  43.767  35.651   8.325
 1024POPC   C3B16617  43.727  35.792   7.925
 1024POPC   C4B16618  43.967  35.998   7.601
 1025POPC   NC316619  16.402  14.510   9.581
 1025POPC   PO416620  15.873  14.348   9.545
 1025POPC   GL116621  15.906  14.495   9.111
 1025POPC   GL216622  16.262  14.525   9.059
 1025POPC   C1A16623  15.768  14.442   8.660
 1025POPC   D2A16624  15.784  14.153   8.310
 1025POPC   C3A16625  15.631  14.316   7.953
 1025POPC   C4A16626  15.724  14.612   7.656
 1025POPC   C1B16627  16.287  14.516   8.596
 1025POPC   C2B16628  16.303  14.225   8.250
 1025POPC   C3B16629  16.115  14.215   7.845
 1025POPC   C4B16630  16.227  14.361   7.474
 1026POPC   NC316631  42.503  11.557   9.100
 1026POPC   PO416632  42.358  11.044   9.511
 1026POPC   GL116633  42.147  11.184   9.113
 1026POPC   GL216634  42.007  11.559   9.065
 1026POPC   C1A16635  42.296  11.109   8.666
 1026POPC   D2A16636  42.367  11.401   8.296
 1026POPC   C3A16637  42.474  11.237   7.894
 1026POPC   C4A16638  42.243  11.131   7.501
 1026POPC   C1B16639  41.993  11.560   8.633
 1026POPC   C2B16640  41.760  11.425   8.296
 1026POPC   C3B16641  41.968  11.343   7.905
 1026POPC   C4B16642  42.256  11.630   7.682
 1027POPC   NC316643  24.855   0.274   9.344
 1027POPC   PO416644  25.460   0.658   9.520
 1027POPC   GL116645  25.585   0.458   9.159
 1027POPC   GL216646  25.395   0.138   9.152
 1027POPC   C1A16647  25.681   0.267   8.740
 1027POPC   D2A16648  25.512   0.158   8.344
 1027POPC   C3A16649  25.665   0.363   8.004
 1027POPC   C4A16650  25.481   0.486   7.636
 1027POPC   C1B16651  25.147   0.227   8.747
 1027POPC   C2B16652  25.001   0.167   8.312
 1027POPC   C3B16653  24.965   0.372   7.879
 1027POPC   C4B16654  24.678   0.164   7.553
 1028POPC   NC316655  39.894  16.557   9.813
 1028POPC   PO416656  39.667  17.165   9.636
 1028POPC   GL116657  39.811  16.946   9.224
 1028POPC   GL216658  40.133  16.711   9.153
 1028POPC   C1A16659  39.780  16.781   8.783
 1028POPC   D2A16660  39.757  16.865   8.336
 1028POPC   C3A16661  39.969  16.994   7.968
 1028POPC   C4A16662  39.680  17.030   7.646
 1028POPC   C1B16663  40.240  16.533   8.707
 1028POPC   C2B16664  40.148  16.559   8.238
 1028POPC   C3B16665  40.055  16.528   7.773
 1028POPC   C4B16666  40.162  16.332   7.355
 1029POPC   NC316667   0.347  38.061   9.431
 1029POPC   PO416668  44.914  38.522   9.621
 1029POPC   GL116669   0.098  38.499   9.245
 1029POPC   GL216670  44.932  38.215   9.147
 1029POPC   C1A16671   0.394  38.494   8.912
 1029POPC   D2A16672   0.271  38.596   8.541
 1029POPC   C3A16673   0.473  38.597   8.180
 1029POPC   C4A16674   0.450  38.499   7.769
 1029POPC   C1B16675   0.066  38.141   8.723
 1029POPC   C2B16676   0.324  38.119   8.361
 1029POPC   C3B16677   0.186  38.105   7.963
 1029POPC   C4B16678  44.917  38.402   7.792
 1030POPC   NC316679  37.437  39.216   9.787
 1030POPC   PO416680  37.891  39.507   9.478
 1030POPC   GL116681  37.688  39.246   9.188
 1030POPC   GL216682  38.022  39.213   9.055
 1030POPC   C1A16683  37.647  39.031   8.777
 1030POPC   D2A16684  37.789  38.896   8.366
 1030POPC   C3A16685  37.556  38.989   8.014
 1030POPC   C4A16686  37.587  39.294   7.724
 1030POPC   C1B16687  38.015  39.618   8.848
 1030POPC   C2B16688  38.083  39.680   8.427
 1030POPC   C3B16689  37.908  39.456   8.093
 1030POPC   C4B16690  38.077  39.230   7.754
 1031POPC   NC316691  17.835  18.164   9.519
 1031POPC   PO416692  18.422  18.443   9.439
 1031POPC   GL116693  18.144  18.333   9.141
 1031POPC   GL216694  18.056  17.972   9.103
 1031POPC   C1A16695  18.100  18.330   8.725
 1031POPC   D2A16696  18.356  18.477   8.433
 1031POPC   C3A16697  18.141  18.424   8.074
 1031POPC   C4A16698  18.172  18.280   7.644
 1031POPC   C1B16699  17.828  17.898   8.725
 1031POPC   C2B16700  17.736  18.167   8.372
 1031POPC   C3B16701  17.815  18.064   7.956
 1031POPC   C4B16702  17.982  17.794   7.637
 1032POPC   NC316703  34.351   9.408   9.550
 1032POPC   PO416704  34.483  10.103   9.562
 1032POPC   GL116705  34.468   9.797   9.204
 1032POPC   GL216706  34.668   9.469   9.153
 1032POPC   C1A16707  34.683   9.813   8.790
 1032POPC   D2A16708  34.720  10.046   8.427
 1032POPC   C3A16709  34.704   9.803   8.068
 1032POPC   C4A16710  34.666  10.008   7.689
 1032POPC   C1B16711  34.299   9.434   8.872
 1032POPC   C2B16712  34.247   9.689   8.498
 1032POPC   C3B16713  34.302   9.491   8.114
 1032POPC   C4B16714  34.461   9.524   7.692
 1033POPC   NC316715  11.235   7.562   9.980
 1033POPC   PO416716  11.543   7.442   9.341
 1033POPC   GL116717  11.223   7.432   9.035
 1033POPC   GL216718  11.525   7.426   8.823
 1033POPC   C1A16719  11.097   7.242   8.639
 1033POPC   D2A16720  11.414   7.354   8.322
 1033POPC   C3A16721  11.332   7.097   7.986
 1033POPC   C4A16722  11.322   7.125   7.584
 1033POPC   C1B16723  11.199   7.756   8.666
 1033POPC   C2B16724  10.988   7.710   8.292
 1033POPC   C3B16725  11.176   7.591   7.917
 1033POPC   C4B16726  11.076   7.572   7.506
 1034POPC   NC316727  15.530   6.627   9.909
 1034POPC   PO416728  15.014   6.685   9.496
 1034POPC   GL116729  15.122   6.958   9.129
 1034POPC   GL216730  15.496   6.906   9.142
 1034POPC   C1A16731  15.252   6.950   8.683
 1034POPC   D2A16732  15.411   6.771   8.312
 1034POPC   C3A16733  15.132   6.866   7.967
 1034POPC   C4A16734  14.992   6.556   7.754
 1034POPC   C1B16735  15.385   6.495   8.890
 1034POPC   C2B16736  15.239   6.315   8.477
 1034POPC   C3B16737  15.344   6.315   8.032
 1034POPC   C4B16738  15.563   6.646   7.799
 1035POPC   NC316739  23.321  41.964   9.530
 1035POPC   PO416740  23.801  42.513   9.455
 1035POPC   GL116741  23.492  42.328   9.208
 1035POPC   GL216742  23.484  42.590   9.034
 1035POPC   C1A16743  23.397  42.180   8.762
 1035POPC   D2A16744  23.478  42.416   8.400
 1035POPC   C3A16745  23.489  42.285   7.982
 1035POPC   C4A16746  23.424  41.917   7.723
 1035POPC   C1B16747  23.852  42.411   8.803
 1035POPC   C2B16748  23.986  42.284   8.411
 1035POPC   C3B16749  23.934  42.556   8.093
 1035POPC   C4B16750  23.788  42.600   7.691
 1036POPC   NC316751  30.422  30.603   9.451
 1036POPC   PO416752  31.035  30.662   9.625
 1036POPC   GL116753  30.875  30.682   9.220
 1036POPC   GL216754  30.906  31.001   9.124
 1036POPC   C1A16755  30.720  30.426   8.882
 1036POPC   D2A16756  30.888  30.435   8.464
 1036POPC   C3A16757  30.670  30.637   8.148
 1036POPC   C4A16758  30.690  30.448   7.753
 1036POPC   C1B16759  30.864  30.889   8.703
 1036POPC   C2B16760  31.077  30.920   8.293
 1036POPC   C3B16761  31.103  30.735   7.883
 1036POPC   C4B16762  30.949  30.789   7.469
 1037POPC   NC316763   2.345  14.674   9.384
 1037POPC   PO416764   2.961  14.297   9.490
 1037POPC   GL116765   2.645  14.306   9.160
 1037POPC   GL216766   2.810  14.607   9.034
 1037POPC   C1A16767   2.581  14.295   8.712
 1037POPC   D2A16768   2.832  14.621   8.462
 1037POPC   C3A16769   2.993  14.512   8.075
 1037POPC   C4A16770   2.778  14.446   7.707
 1037POPC   C1B16771   2.479  14.788   8.779
 1037POPC   C2B16772   2.413  15.008   8.374
 1037POPC   C3B16773   2.542  14.835   7.991
 1037POPC   C4B16774   2.342  14.698   7.591
 1038POPC   NC316775  28.631   4.201   9.536
 1038POPC   PO416776  28.012   4.274   9.588
 1038POPC   GL116777  28.153   4.435   9.170
 1038POPC   GL216778  28.509   4.519   9.137
 1038POPC   C1A16779  28.182   4.526   8.694
 1038POPC   D2A16780  27.986   4.576   8.269
 1038POPC   C3A16781  28.215   4.471   7.892
 1038POPC   C4A16782  28.292   4.462   7.455
 1038POPC   C1B16783  28.497   4.156   8.859
 1038POPC   C2B16784  28.570   3.978   8.456
 1038POPC   C3B16785  28.751   4.028   8.059
 1038POPC   C4B16786  28.557   4.072   7.685
 1039POPC   NC316787  19.592  25.297   9.374
 1039POPC   PO416788  18.918  25.411   9.506
 1039POPC   GL116789  19.126  25.276   9.167
 1039POPC   GL216790  18.892  25.326   8.968
 1039POPC   C1A16791  19.365  25.121   8.810
 1039POPC   D2A16792  19.404  25.134   8.405
 1039POPC   C3A16793  19.358  25.439   8.096
 1039POPC   C4A16794  19.066  25.305   7.820
 1039POPC   C1B16795  18.870  24.936   8.762
 1039POPC   C2B16796  18.986  24.799   8.351
 1039POPC   C3B16797  18.837  24.794   7.915
 1039POPC   C4B16798  18.880  24.969   7.472
 1040POPC   NC316799  24.372   7.992   9.413
 1040POPC   PO416800  24.958   8.359   9.260
 1040POPC   GL116801  24.649   8.205   9.032
 1040POPC   GL216802  24.788   7.892   8.956
 1040POPC   C1A16803  24.289   8.312   8.799
 1040POPC   D2A16804  24.158   8.174   8.410
 1040POPC   C3A16805  24.309   8.452   8.103
 1040POPC   C4A16806  24.141   8.473   7.685
 1040POPC   C1B16807  24.641   7.976   8.548
 1040POPC   C2B16808  24.384   7.727   8.270
 1040POPC   C3B16809  24.252   7.971   7.927
 1040POPC   C4B16810  24.631   8.194   7.811
 1041POPC   NC316811  20.492   2.887   9.522
 1041POPC   PO416812  21.134   2.495   9.530
 1041POPC   GL116813  20.853   2.592   9.185
 1041POPC   GL216814  20.735   2.894   9.100
 1041POPC   C1A16815  20.514   2.443   8.902
 1041POPC   D2A16816  20.266   2.335   8.517
 1041POPC   C3A16817  20.475   2.463   8.138
 1041POPC   C4A16818  20.323   2.717   7.808
 1041POPC   C1B16819  20.980   3.042   8.853
 1041POPC   C2B16820  20.864   2.853   8.523
 1041POPC   C3B16821  20.679   2.957   8.153
 1041POPC   C4B16822  20.797   2.873   7.762
 1042POPC   NC316823   2.999  20.306   9.381
 1042POPC   PO416824   2.720  20.870   9.598
 1042POPC   GL116825   2.549  20.732   9.213
 1042POPC   GL216826   2.605  20.377   9.088
 1042POPC   C1A16827   2.626  20.743   8.754
 1042POPC   D2A16828   2.583  20.490   8.386
 1042POPC   C3A16829   2.591  20.757   8.043
 1042POPC   C4A16830   2.582  20.968   7.685
 1042POPC   C1B16831   2.750  20.141   8.745
 1042POPC   C2B16832   2.946  20.110   8.333
 1042POPC   C3B16833   2.822  20.306   7.941
 1042POPC   C4B16834   2.855  20.557   7.551
 1043POPC   NC316835  11.776  42.988   9.636
 1043POPC   PO416836  11.944  42.297   9.733
 1043POPC   GL116837  11.908  42.324   9.260
 1043POPC   GL216838  11.677  42.602   9.199
 1043POPC   C1A16839  12.067  42.217   8.810
 1043POPC   D2A16840  12.224  42.432   8.404
 1043POPC   C3A16841  12.177  42.229   7.972
 1043POPC   C4A16842  12.371  41.997   7.627
 1043POPC   C1B16843  11.574  42.347   8.821
 1043POPC   C2B16844  11.736  42.280   8.397
 1043POPC   C3B16845  11.806  42.564   8.076
 1043POPC   C4B16846  11.750  42.469   7.666
 1044POPC   NC316847  12.734  38.623   9.496
 1044POPC   PO416848  12.422  38.021   9.410
 1044POPC   GL116849  12.673  38.264   9.113
 1044POPC   GL216850  13.002  38.480   9.093
 1044POPC   C1A16851  12.818  38.196   8.714
 1044POPC   D2A16852  13.032  38.319   8.358
 1044POPC   C3A16853  12.797  38.410   8.005
 1044POPC   C4A16854  12.637  38.247   7.659
 1044POPC   C1B16855  12.725  38.691   8.797
 1044POPC   C2B16856  12.627  38.936   8.433
 1044POPC   C3B16857  12.436  38.886   8.073
 1044POPC   C4B16858  12.604  38.743   7.680
 1045POPC   NC316859  37.015  30.378   9.389
 1045POPC   PO416860  36.666  30.990   9.459
 1045POPC   GL116861  36.795  30.825   9.059
 1045POPC   GL216862  37.122  30.896   9.093
 1045POPC   C1A16863  36.819  30.512   8.685
 1045POPC   D2A16864  36.534  30.384   8.333
 1045POPC   C3A16865  36.711  30.441   7.922
 1045POPC   C4A16866  36.719  30.793   7.742
 1045POPC   C1B16867  37.208  30.854   8.682
 1045POPC   C2B16868  36.985  30.891   8.296
 1045POPC   C3B16869  37.175  30.868   7.901
 1045POPC   C4B16870  37.173  30.472   7.670
 1046POPC   NC316871  18.186   1.033   9.546
 1046POPC   PO416872  18.654   1.490   9.352
 1046POPC   GL116873  18.562   1.130   9.099
 1046POPC   GL216874  18.227   1.082   9.054
 1046POPC   C1A16875  18.505   1.283   8.666
 1046POPC   D2A16876  18.534   1.579   8.315
 1046POPC   C3A16877  18.524   1.305   7.939
 1046POPC   C4A16878  18.315   0.927   7.794
 1046POPC   C1B16879  18.041   1.413   8.857
 1046POPC   C2B16880  18.020   1.526   8.458
 1046POPC   C3B16881  18.095   1.612   8.045
 1046POPC   C4B16882  17.931   1.284   7.799
 1047POPC   NC316883  29.453  39.714   9.446
 1047POPC   PO416884  28.903  40.008   9.544
 1047POPC   GL116885  29.024  40.165   9.123
 1047POPC   GL216886  29.366  40.031   9.056
 1047POPC   C1A16887  28.987  39.925   8.719
 1047POPC   D2A16888  28.753  39.774   8.351
 1047POPC   C3A16889  28.859  39.954   7.965
 1047POPC   C4A16890  29.058  39.830   7.581
 1047POPC   C1B16891  29.331  40.300   8.722
 1047POPC   C2B16892  29.134  40.229   8.328
 1047POPC   C3B16893  29.353  40.065   7.990
 1047POPC   C4B16894  29.377  40.213   7.585
 1048POPC   NC316895  17.036  34.372   9.601
 1048POPC   PO416896  16.816  34.913   9.258
 1048POPC   GL116897  16.617  34.577   9.064
 1048POPC   GL216898  16.581  34.263   9.251
 1048POPC   C1A16899  16.619  34.588   8.626
 1048POPC   D2A16900  16.719  34.859   8.291
 1048POPC   C3A16901  16.844  34.674   7.919
 1048POPC   C4A16902  16.520  34.652   7.535
 1048POPC   C1B16903  16.334  34.185   8.843
 1048POPC   C2B16904  16.516  34.133   8.424
 1048POPC   C3B16905  16.488  34.324   8.030
 1048POPC   C4B16906  16.142  34.531   7.845
 1049POPC   NC316907   4.934  38.785   9.362
 1049POPC   PO416908   5.282  38.169   9.460
 1049POPC   GL116909   5.202  38.417   9.119
 1049POPC   GL216910   4.886  38.320   9.069
 1049POPC   C1A16911   5.316  38.477   8.686
 1049POPC   D2A16912   5.489  38.319   8.289
 1049POPC   C3A16913   5.225  38.384   7.937
 1049POPC   C4A16914   5.267  38.521   7.519
 1049POPC   C1B16915   4.744  38.576   8.715
 1049POPC   C2B16916   4.555  38.696   8.294
 1049POPC   C3B16917   4.732  38.590   7.888
 1049POPC   C4B16918   4.855  38.813   7.506
 1050POPC   NC316919  42.824  17.666   9.333
 1050POPC   PO416920  43.188  18.171   9.624
 1050POPC   GL116921  43.028  18.126   9.203
 1050POPC   GL216922  42.926  18.425   9.117
 1050POPC   C1A16923  43.060  18.005   8.763
 1050POPC   D2A16924  43.287  18.184   8.417
 1050POPC   C3A16925  43.160  18.016   7.991
 1050POPC   C4A16926  42.768  17.928   7.779
 1050POPC   C1B16927  43.024  18.526   8.712
 1050POPC   C2B16928  42.886  18.448   8.275
 1050POPC   C3B16929  43.065  18.502   7.872
 1050POPC   C4B16930  42.983  18.775   7.512
 1051POPC   NC316931  31.806  11.417   9.275
 1051POPC   PO416932  31.403  11.043   9.545
 1051POPC   GL116933  31.307  11.258   9.139
 1051POPC   GL216934  31.359  11.627   9.088
 1051POPC   C1A16935  31.453  11.311   8.709
 1051POPC   D2A16936  31.356  11.472   8.339
 1051POPC   C3A16937  31.450  11.176   8.050
 1051POPC   C4A16938  31.694  11.165   7.716
 1051POPC   C1B16939  31.379  11.884   8.725
 1051POPC   C2B16940  31.158  11.943   8.338
 1051POPC   C3B16941  31.196  11.742   7.936
 1051POPC   C4B16942  31.275  11.412   7.637
 1052POPC   NC316943  20.479   3.766   9.358
 1052POPC   PO416944  20.859   3.227   9.553
 1052POPC   GL116945  20.682   3.391   9.112
 1052POPC   GL216946  20.593   3.722   8.878
 1052POPC   C1A16947  20.542   3.266   8.711
 1052POPC   D2A16948  20.301   3.493   8.437
 1052POPC   C3A16949  20.455   3.419   8.082
 1052POPC   C4A16950  20.377   3.212   7.730
 1052POPC   C1B16951  20.170   3.890   8.733
 1052POPC   C2B16952  20.017   3.911   8.297
 1052POPC   C3B16953  20.214   3.811   7.885
 1052POPC   C4B16954  20.355   3.688   7.452
 1053POPC   NC316955   6.487  24.760   9.458
 1053POPC   PO416956   6.802  25.444   9.434
 1053POPC   GL116957   6.712  25.187   9.086
 1053POPC   GL216958   6.746  24.826   9.009
 1053POPC   C1A16959   6.783  25.262   8.667
 1053POPC   D2A16960   6.670  25.526   8.310
 1053POPC   C3A16961   6.913  25.308   8.014
 1053POPC   C4A16962   7.052  25.503   7.655
 1053POPC   C1B16963   6.359  24.992   8.742
 1053POPC   C2B16964   6.234  25.260   8.374
 1053POPC   C3B16965   6.352  25.270   7.904
 1053POPC   C4B16966   6.297  25.058   7.494
 1054POPC   NC316967  13.503   3.695   9.675
 1054POPC   PO416968  13.949   4.090   9.450
 1054POPC   GL116969  13.786   3.742   9.176
 1054POPC   GL216970  13.438   3.638   9.173
 1054POPC   C1A16971  13.735   3.539   8.749
 1054POPC   D2A16972  13.518   3.535   8.335
 1054POPC   C3A16973  13.818   3.473   7.964
 1054POPC   C4A16974  13.932   3.651   7.550
 1054POPC   C1B16975  13.219   3.503   8.800
 1054POPC   C2B16976  13.025   3.366   8.434
 1054POPC   C3B16977  13.124   3.314   8.006
 1054POPC   C4B16978  13.425   3.292   7.696
 1055POPC   NC316979  20.352   8.444   9.509
 1055POPC   PO416980  20.709   7.844   9.602
 1055POPC   GL116981  20.689   8.160   9.282
 1055POPC   GL216982  20.401   8.080   9.150
 1055POPC   C1A16983  20.587   8.436   8.867
 1055POPC   D2A16984  20.576   8.153   8.473
 1055POPC   C3A16985  20.674   8.385   8.102
 1055POPC   C4A16986  20.619   8.507   7.664
 1055POPC   C1B16987  20.253   7.779   8.863
 1055POPC   C2B16988  20.285   7.699   8.423
 1055POPC   C3B16989  20.424   7.864   8.034
 1055POPC   C4B16990  20.432   7.736   7.618
 1056POPC   NC316991  22.597  25.587   9.471
 1056POPC   PO416992  22.055  25.191   9.496
 1056POPC   GL116993  22.333  25.259   9.188
 1056POPC   GL216994  22.447  25.003   9.009
 1056POPC   C1A16995  22.290  25.471   8.833
 1056POPC   D2A16996  22.331  25.495   8.395
 1056POPC   C3A16997  21.923  25.537   8.211
 1056POPC   C4A16998  21.907  25.526   7.769
 1056POPC   C1B16999  22.100  24.981   8.730
 1056POPC   C2B17000  22.074  24.927   8.316
 1056POPC   C3B17001  22.148  25.132   7.976
 1056POPC   C4B17002  22.242  24.993   7.611
 1057POPC   NC317003  39.477  18.512   9.562
 1057POPC   PO417004  38.857  18.300   9.631
 1057POPC   GL117005  39.005  18.357   9.184
 1057POPC   GL217006  39.327  18.503   9.077
 1057POPC   C1A17007  38.941  18.196   8.754
 1057POPC   D2A17008  39.110  18.131   8.343
 1057POPC   C3A17009  39.088  17.820   8.082
 1057POPC   C4A17010  39.418  17.955   7.828
 1057POPC   C1B17011  39.386  18.451   8.622
 1057POPC   C2B17012  39.399  18.731   8.261
 1057POPC   C3B17013  39.414  18.741   7.817
 1057POPC   C4B17014  39.174  18.756   7.452
 1058POPC   NC317015  14.432  28.809   9.588
 1058POPC   PO417016  14.158  29.301   9.399
 1058POPC   GL117017  14.426  29.133   9.147
 1058POPC   GL217018  14.214  28.860   9.126
 1058POPC   C1A17019  14.620  29.064   8.763
 1058POPC   D2A17020  14.829  29.209   8.381
 1058POPC   C3A17021  14.723  28.978   8.016
 1058POPC   C4A17022  14.476  29.124   7.694
 1058POPC   C1B17023  14.109  28.976   8.735
 1058POPC   C2B17024  14.301  29.058   8.348
 1058POPC   C3B17025  14.103  28.951   7.989
 1058POPC   C4B17026  14.050  28.909   7.539
 1059POPC   NC317027   9.478  33.402   9.503
 1059POPC   PO417028  10.152  33.295   9.456
 1059POPC   GL117029   9.855  33.111   9.198
 1059POPC   GL217030   9.801  33.484   9.114
 1059POPC   C1A17031   9.896  32.839   8.823
 1059POPC   D2A17032   9.720  32.629   8.477
 1059POPC   C3A17033   9.911  32.762   8.142
 1059POPC   C4A17034   9.679  32.951   7.845
 1059POPC   C1B17035   9.719  33.300   8.754
 1059POPC   C2B17036   9.771  33.156   8.408
 1059POPC   C3B17037   9.966  33.298   8.093
 1059POPC   C4B17038   9.779  33.436   7.696
 1060POPC   NC317039   5.049  39.462   9.531
 1060POPC   PO417040   5.371  38.965   9.401
 1060POPC   GL117041   5.122  39.143   9.059
 1060POPC   GL217042   4.923  39.439   9.038
 1060POPC   C1A17043   5.098  38.966   8.663
 1060POPC   D2A17044   5.058  38.712   8.302
 1060POPC   C3A17045   5.155  38.892   7.917
 1060POPC   C4A17046   5.516  38.956   7.694
 1060POPC   C1B17047   5.121  39.491   8.642
 1060POPC   C2B17048   5.301  39.271   8.280
 1060POPC   C3B17049   5.256  39.384   7.853
 1060POPC   C4B17050   5.081  39.669   7.556
 1061POPC   NC317051   4.541  19.146   9.473
 1061POPC   PO417052   4.770  18.521   9.334
 1061POPC   GL117053   4.371  18.757   9.143
 1061POPC   GL217054   4.095  19.034   9.204
 1061POPC   C1A17055   4.135  18.751   8.747
 1061POPC   D2A17056   4.267  18.695   8.315
 1061POPC   C3A17057   4.380  19.046   8.057
 1061POPC   C4A17058   4.350  19.049   7.630
 1061POPC   C1B17059   4.094  19.276   8.802
 1061POPC   C2B17060   3.972  19.126   8.377
 1061POPC   C3B17061   3.931  19.240   7.916
 1061POPC   C4B17062   3.898  19.157   7.450
 1062POPC   NC317063  12.621  23.533   9.535
 1062POPC   PO417064  13.169  23.478   9.253
 1062POPC   GL117065  12.806  23.656   9.090
 1062POPC   GL217066  12.519  23.438   9.069
 1062POPC   C1A17067  12.809  23.835   8.716
 1062POPC   D2A17068  13.122  23.665   8.500
 1062POPC   C3A17069  13.162  23.737   8.092
 1062POPC   C4A17070  13.247  23.511   7.735
 1062POPC   C1B17071  12.723  23.315   8.713
 1062POPC   C2B17072  12.662  23.485   8.333
 1062POPC   C3B17073  12.675  23.636   7.955
 1062POPC   C4B17074  12.666  24.053   7.852
 1063POPC   NC317075  43.686  33.766   9.645
 1063POPC   PO417076  44.057  34.095   9.210
 1063POPC   GL117077  43.696  33.878   9.153
 1063POPC   GL217078  43.811  33.523   9.217
 1063POPC   C1A17079  43.543  33.947   8.771
 1063POPC   D2A17080  43.709  33.767   8.383
 1063POPC   C3A17081  43.772  33.983   8.000
 1063POPC   C4A17082  43.809  33.748   7.654
 1063POPC   C1B17083  43.993  33.542   8.797
 1063POPC   C2B17084  44.244  33.701   8.441
 1063POPC   C3B17085  44.186  33.651   8.001
 1063POPC   C4B17086  44.110  33.344   7.657
 1064POPC   NC317087  40.758  14.015   9.526
 1064POPC   PO417088  40.539  14.614   9.543
 1064POPC   GL117089  40.719  14.533   9.132
 1064POPC   GL217090  40.814  14.201   9.033
 1064POPC   C1A17091  40.811  14.625   8.725
 1064POPC   D2A17092  40.874  14.395   8.369
 1064POPC   C3A17093  40.775  14.714   8.093
 1064POPC   C4A17094  40.830  14.752   7.713
 1064POPC   C1B17095  40.509  14.171   8.766
 1064POPC   C2B17096  40.512  13.999   8.377
 1064POPC   C3B17097  40.596  14.157   7.970
 1064POPC   C4B17098  40.255  14.091   7.685
 1065POPC   NC317099  42.911  21.597   9.785
 1065POPC   PO417100  43.224  22.248   9.661
 1065POPC   GL117101  43.123  22.334   9.230
 1065POPC   GL217102  43.437  22.500   9.174
 1065POPC   C1A17103  42.831  22.279   8.872
 1065POPC   D2A17104  42.869  22.381   8.432
 1065POPC   C3A17105  42.809  22.069   8.085
 1065POPC   C4A17106  43.115  22.007   7.739
 1065POPC   C1B17107  43.322  22.424   8.739
 1065POPC   C2B17108  43.361  22.528   8.307
 1065POPC   C3B17109  43.493  22.332   7.942
 1065POPC   C4B17110  43.302  22.474   7.572
 1066POPC   NC317111  15.891  31.270   9.524
 1066POPC   PO417112  15.541  31.754   9.814
 1066POPC   GL117113  15.736  31.687   9.312
 1066POPC   GL217114  16.080  31.747   9.228
 1066POPC   C1A17115  15.774  31.451   8.899
 1066POPC   D2A17116  15.773  31.202   8.524
 1066POPC   C3A17117  15.836  31.188   8.092
 1066POPC   C4A17118  15.750  31.367   7.697
 1066POPC   C1B17119  16.160  31.752   8.758
 1066POPC   C2B17120  16.194  31.481   8.369
 1066POPC   C3B17121  16.123  31.600   7.939
 1066POPC   C4B17122  16.093  31.629   7.442
 1067POPC   NC317123  23.299  38.771   9.318
 1067POPC   PO417124  22.906  38.222   9.568
 1067POPC   GL117125  23.013  38.364   9.156
 1067POPC   GL217126  22.787  38.184   8.985
 1067POPC   C1A17127  23.157  38.411   8.698
 1067POPC   D2A17128  23.076  38.178   8.295
 1067POPC   C3A17129  23.118  38.404   7.932
 1067POPC   C4A17130  23.321  38.679   7.674
 1067POPC   C1B17131  22.671  38.545   8.784
 1067POPC   C2B17132  22.734  38.585   8.390
 1067POPC   C3B17133  22.601  38.384   8.031
 1067POPC   C4B17134  22.727  38.413   7.619
 1068POPC   NC317135  43.529   6.693   9.552
 1068POPC   PO417136  42.958   6.991   9.692
 1068POPC   GL117137  42.999   6.712   9.274
 1068POPC   GL217138  43.282   6.551   9.146
 1068POPC   C1A17139  42.946   6.692   8.780
 1068POPC   D2A17140  42.984   6.425   8.400
 1068POPC   C3A17141  43.059   6.650   7.996
 1068POPC   C4A17142  42.960   6.821   7.566
 1068POPC   C1B17143  43.399   6.471   8.742
 1068POPC   C2B17144  43.424   6.682   8.355
 1068POPC   C3B17145  43.553   6.818   7.949
 1068POPC   C4B17146  43.424   6.591   7.587
 1069POPC   NC317147   1.297  19.943   9.528
 1069POPC   PO417148   1.261  19.359   9.630
 1069POPC   GL117149   1.182  19.522   9.198
 1069POPC   GL217150   0.965  19.267   9.066
 1069POPC   C1A17151   1.305  19.858   8.837
 1069POPC   D2A17152   1.447  20.028   8.413
 1069POPC   C3A17153   1.434  19.813   8.042
 1069POPC   C4A17154   1.526  19.822   7.610
 1069POPC   C1B17155   0.930  19.513   8.730
 1069POPC   C2B17156   1.102  19.611   8.390
 1069POPC   C3B17157   0.915  19.700   8.028
 1069POPC   C4B17158   1.058  19.623   7.678
 1070POPC   NC317159   9.726  34.132   9.686
 1070POPC   PO417160  10.299  34.053   9.400
 1070POPC   GL117161   9.974  34.032   9.083
 1070POPC   GL217162   9.604  33.972   9.151
 1070POPC   C1A17163   9.825  34.078   8.664
 1070POPC   D2A17164   9.844  33.694   8.448
 1070POPC   C3A17165   9.695  33.741   8.074
 1070POPC   C4A17166   9.831  33.945   7.741
 1070POPC   C1B17167   9.446  33.714   8.804
 1070POPC   C2B17168   9.370  33.480   8.426
 1070POPC   C3B17169   9.357  33.357   8.006
 1070POPC   C4B17170   9.288  33.630   7.686
 1071POPC   NC317171  27.298   0.142   9.501
 1071POPC   PO417172  27.984   0.288   9.503
 1071POPC   GL117173  27.646   0.452   9.250
 1071POPC   GL217174  27.602   0.130   9.071
 1071POPC   C1A17175  27.568   0.570   8.823
 1071POPC   D2A17176  27.599   0.305   8.493
 1071POPC   C3A17177  27.578   0.433   8.094
 1071POPC   C4A17178  27.821   0.715   7.891
 1071POPC   C1B17179  27.268   0.005   8.755
 1071POPC   C2B17180  27.145   0.179   8.324
 1071POPC   C3B17181  27.233   0.132   7.875
 1071POPC   C4B17182  27.363   0.564   7.640
 1072POPC   NC317183  23.396   6.428   9.297
 1072POPC   PO417184  23.928   6.859   9.504
 1072POPC   GL117185  23.703   6.779   9.100
 1072POPC   GL217186  23.994   6.677   8.950
 1072POPC   C1A17187  23.545   6.627   8.684
 1072POPC   D2A17188  23.494   6.510   8.267
 1072POPC   C3A17189  23.602   6.651   7.855
 1072POPC   C4A17190  23.503   6.369   7.471
 1072POPC   C1B17191  23.874   7.009   8.627
 1072POPC   C2B17192  23.864   7.000   8.186
 1072POPC   C3B17193  24.130   6.776   7.937
 1072POPC   C4B17194  24.086   6.537   7.593
 1073POPC   NC317195  11.846  20.142   9.523
 1073POPC   PO417196  12.133  19.509   9.650
 1073POPC   GL117197  12.061  19.753   9.234
 1073POPC   GL217198  12.236  20.097   9.200
 1073POPC   C1A17199  11.826  19.913   8.865
 1073POPC   D2A17200  11.744  20.122   8.460
 1073POPC   C3A17201  11.764  19.903   8.071
 1073POPC   C4A17202  11.935  19.728   7.663
 1073POPC   C1B17203  12.319  19.971   8.801
 1073POPC   C2B17204  12.317  20.152   8.428
 1073POPC   C3B17205  12.253  19.966   8.063
 1073POPC   C4B17206  12.335  20.043   7.629
 1074POPC   NC317207  40.221  30.556   9.412
 1074POPC   PO417208  39.781  31.008   9.423
 1074POPC   GL117209  39.802  30.721   9.088
 1074POPC   GL217210  40.125  30.861   8.997
 1074POPC   C1A17211  39.780  30.735   8.644
 1074POPC   D2A17212  40.011  30.977   8.349
 1074POPC   C3A17213  39.841  30.766   8.015
 1074POPC   C4A17214  39.928  30.622   7.608
 1074POPC   C1B17215  40.455  30.726   8.714
 1074POPC   C2B17216  40.567  30.700   8.294
 1074POPC   C3B17217  40.349  30.729   7.928
 1074POPC   C4B17218  40.323  30.971   7.550
 1075POPC   NC317219  21.674  29.420   9.479
 1075POPC   PO417220  21.149  29.039   9.465
 1075POPC   GL117221  21.361  29.229   9.104
 1075POPC   GL217222  21.721  29.093   9.097
 1075POPC   C1A17223  21.432  29.267   8.651
 1075POPC   D2A17224  21.362  29.235   8.194
 1075POPC   C3A17225  21.427  28.886   7.955
 1075POPC   C4A17226  21.324  28.871   7.539
 1075POPC   C1B17227  21.875  29.445   8.824
 1075POPC   C2B17228  21.809  29.477   8.353
 1075POPC   C3B17229  21.726  29.503   7.902
 1075POPC   C4B17230  21.789  29.524   7.402
 1076POPC   NC317231  32.787  12.375   9.403
 1076POPC   PO417232  33.179  12.767   9.763
 1076POPC   GL117233  33.113  12.848   9.311
 1076POPC   GL217234  33.286  12.557   9.249
 1076POPC   C1A17235  33.108  13.097   8.896
 1076POPC   D2A17236  33.149  12.979   8.491
 1076POPC   C3A17237  33.156  13.118   8.078
 1076POPC   C4A17238  32.984  13.021   7.657
 1076POPC   C1B17239  33.121  12.583   8.834
 1076POPC   C2B17240  32.990  12.489   8.410
 1076POPC   C3B17241  33.010  12.619   8.002
 1076POPC   C4B17242  33.168  12.416   7.653
 1077POPC   NC317243  20.511  20.854   9.533
 1077POPC   PO417244  20.395  20.264   9.234
 1077POPC   GL117245  20.699  20.273   9.024
 1077POPC   GL217246  20.748  20.616   9.090
 1077POPC   C1A17247  20.648  20.327   8.620
 1077POPC   D2A17248  20.679  20.559   8.276
 1077POPC   C3A17249  20.435  20.479   7.912
 1077POPC   C4A17250  20.716  20.668   7.650
 1077POPC   C1B17251  20.475  20.780   8.785
 1077POPC   C2B17252  20.247  20.776   8.376
 1077POPC   C3B17253  20.397  20.982   7.994
 1077POPC   C4B17254  20.352  21.021   7.553
 1078POPC   NC317255  29.381  20.939   9.414
 1078POPC   PO417256  28.907  20.363   9.523
 1078POPC   GL117257  28.940  20.551   9.153
 1078POPC   GL217258  29.251  20.534   9.157
 1078POPC   C1A17259  29.060  20.511   8.691
 1078POPC   D2A17260  28.908  20.662   8.316
 1078POPC   C3A17261  29.169  20.735   7.959
 1078POPC   C4A17262  29.121  20.673   7.551
 1078POPC   C1B17263  29.496  20.721   8.826
 1078POPC   C2B17264  29.435  20.736   8.402
 1078POPC   C3B17265  29.680  20.618   8.081
 1078POPC   C4B17266  29.626  20.787   7.685
 1079POPC   NC317267  40.762  19.430   9.368
 1079POPC   PO417268  40.817  20.136   9.574
 1079POPC   GL117269  40.969  20.096   9.185
 1079POPC   GL217270  41.069  19.800   9.117
 1079POPC   C1A17271  40.790  20.062   8.790
 1079POPC   D2A17272  40.604  19.858   8.453
 1079POPC   C3A17273  40.779  20.011   8.080
 1079POPC   C4A17274  40.750  19.952   7.656
 1079POPC   C1B17275  40.945  19.569   8.759
 1079POPC   C2B17276  41.003  19.562   8.374
 1079POPC   C3B17277  40.727  19.486   8.065
 1079POPC   C4B17278  40.771  19.447   7.650
 1080POPC   NC317279  16.090  36.460   9.518
 1080POPC   PO417280  15.759  35.876   9.427
 1080POPC   GL117281  16.000  35.979   9.086
 1080POPC   GL217282  15.968  36.309   9.047
 1080POPC   C1A17283  15.952  35.932   8.663
 1080POPC   D2A17284  16.055  36.167   8.319
 1080POPC   C3A17285  15.922  35.907   8.025
 1080POPC   C4A17286  16.032  35.944   7.632
 1080POPC   C1B17287  15.944  36.565   8.660
 1080POPC   C2B17288  15.748  36.576   8.267
 1080POPC   C3B17289  15.987  36.454   7.889
 1080POPC   C4B17290  16.242  36.448   7.525
 1081POPC   NC317291   0.402  10.851   9.466
 1081POPC   PO417292   0.201  11.496   9.439
 1081POPC   GL117293   0.318  11.221   9.118
 1081POPC   GL217294   0.041  10.982   9.078
 1081POPC   C1A17295   0.593  11.191   8.748
 1081POPC   D2A17296   0.576  11.023   8.322
 1081POPC   C3A17297   0.525  11.340   7.977
 1081POPC   C4A17298   0.498  11.231   7.515
 1081POPC   C1B17299   0.108  11.072   8.676
 1081POPC   C2B17300   0.168  11.348   8.402
 1081POPC   C3B17301   0.106  11.103   8.060
 1081POPC   C4B17302   0.014  11.243   7.678
 1082POPC   NC317303  41.411  43.538   9.885
 1082POPC   PO417304  41.974  43.837   9.644
 1082POPC   GL117305  41.708  43.796   9.239
 1082POPC   GL217306  41.397  43.735   9.394
 1082POPC   C1A17307  41.660  44.002   8.856
 1082POPC   D2A17308  41.815  44.004   8.437
 1082POPC   C3A17309  41.742  44.181   8.043
 1082POPC   C4A17310  41.760  43.957   7.651
 1082POPC   C1B17311  41.292  43.649   8.954
 1082POPC   C2B17312  41.389  43.737   8.506
 1082POPC   C3B17313  41.447  43.728   8.048
 1082POPC   C4B17314  41.287  43.773   7.598
 1083POPC   NC317315  42.899   4.979   9.501
 1083POPC   PO417316  43.552   5.146   9.489
 1083POPC   GL117317  43.255   4.981   9.110
 1083POPC   GL217318  42.923   4.751   9.063
 1083POPC   C1A17319  43.257   4.871   8.662
 1083POPC   D2A17320  43.198   4.871   8.200
 1083POPC   C3A17321  43.217   5.291   7.970
 1083POPC   C4A17322  43.340   5.278   7.548
 1083POPC   C1B17323  42.818   5.140   8.840
 1083POPC   C2B17324  42.818   5.199   8.399
 1083POPC   C3B17325  42.775   5.049   7.962
 1083POPC   C4B17326  43.008   4.849   7.614
 1084POPC   NC317327  17.697  28.854   9.415
 1084POPC   PO417328  17.144  29.245   9.533
 1084POPC   GL117329  17.323  29.134   9.158
 1084POPC   GL217330  17.608  29.358   9.103
 1084POPC   C1A17331  17.271  29.236   8.736
 1084POPC   D2A17332  17.464  29.389   8.395
 1084POPC   C3A17333  17.281  29.266   8.029
 1084POPC   C4A17334  17.364  29.438   7.616
 1084POPC   C1B17335  17.810  29.195   8.756
 1084POPC   C2B17336  17.956  29.210   8.343
 1084POPC   C3B17337  17.796  29.393   7.977
 1084POPC   C4B17338  17.648  29.037   7.746
 1085POPC   NC317339  32.171  41.775   9.408
 1085POPC   PO417340  31.820  41.192   9.502
 1085POPC   GL117341  31.977  41.296   9.086
 1085POPC   GL217342  32.297  41.461   9.035
 1085POPC   C1A17343  31.965  41.529   8.672
 1085POPC   D2A17344  32.085  41.795   8.303
 1085POPC   C3A17345  32.021  41.529   7.899
 1085POPC   C4A17346  31.930  41.741   7.499
 1085POPC   C1B17347  32.442  41.288   8.678
 1085POPC   C2B17348  32.358  41.388   8.274
 1085POPC   C3B17349  32.541  41.396   7.897
 1085POPC   C4B17350  32.815  41.090   7.796
 1086POPC   NC317351  29.842  27.196   9.399
 1086POPC   PO417352  29.956  27.858   9.381
 1086POPC   GL117353  29.768  27.866   8.997
 1086POPC   GL217354  29.727  27.523   9.023
 1086POPC   C1A17355  29.847  27.713   8.565
 1086POPC   D2A17356  29.743  27.766   8.126
 1086POPC   C3A17357  30.049  27.499   7.886
 1086POPC   C4A17358  30.191  27.511   7.420
 1086POPC   C1B17359  29.514  27.256   8.759
 1086POPC   C2B17360  29.646  27.279   8.326
 1086POPC   C3B17361  29.496  27.370   7.933
 1086POPC   C4B17362  29.706  27.395   7.541
 1087POPC   NC317363  30.609  34.706   9.668
 1087POPC   PO417364  31.184  34.797   9.327
 1087POPC   GL117365  30.778  34.674   9.194
 1087POPC   GL217366  30.521  34.953   9.208
 1087POPC   C1A17367  30.650  34.586   8.807
 1087POPC   D2A17368  30.916  34.397   8.524
 1087POPC   C3A17369  30.666  34.354   8.191
 1087POPC   C4A17370  30.662  34.455   7.761
 1087POPC   C1B17371  30.349  35.008   8.776
 1087POPC   C2B17372  30.456  34.822   8.365
 1087POPC   C3B17373  30.498  34.947   7.943
 1087POPC   C4B17374  30.372  34.843   7.514
 1088POPC   NC317375  11.838  11.422   9.476
 1088POPC   PO417376  12.426  11.756   9.358
 1088POPC   GL117377  12.254  11.452   9.099
 1088POPC   GL217378  12.300  11.131   9.217
 1088POPC   C1A17379  12.122  11.257   8.701
 1088POPC   D2A17380  11.820  11.461   8.434
 1088POPC   C3A17381  11.937  11.629   8.078
 1088POPC   C4A17382  12.160  11.473   7.748
 1088POPC   C1B17383  12.309  10.797   8.884
 1088POPC   C2B17384  12.317  10.850   8.443
 1088POPC   C3B17385  12.030  11.077   8.139
 1088POPC   C4B17386  12.137  10.956   7.725
 1089POPC   NC317387   4.916  26.603   9.632
 1089POPC   PO417388   5.107  27.182   9.513
 1089POPC   GL117389   5.055  26.891   9.186
 1089POPC   GL217390   4.777  26.688   9.152
 1089POPC   C1A17391   5.209  26.930   8.768
 1089POPC   D2A17392   5.133  27.143   8.390
 1089POPC   C3A17393   5.223  26.901   8.073
 1089POPC   C4A17394   5.467  26.621   7.907
 1089POPC   C1B17395   4.693  26.840   8.781
 1089POPC   C2B17396   4.807  26.717   8.394
 1089POPC   C3B17397   4.696  26.967   8.068
 1089POPC   C4B17398   4.907  27.070   7.708
 1090POPC   NC317399   9.389   7.157   9.398
 1090POPC   PO417400   9.924   7.491   9.542
 1090POPC   GL117401   9.940   7.515   9.110
 1090POPC   GL217402   9.590   7.526   9.114
 1090POPC   C1A17403   9.798   7.372   8.690
 1090POPC   D2A17404   9.969   7.333   8.300
 1090POPC   C3A17405   9.767   7.322   7.920
 1090POPC   C4A17406  10.107   7.476   7.667
 1090POPC   C1B17407   9.362   7.645   8.762
 1090POPC   C2B17408   9.500   7.637   8.360
 1090POPC   C3B17409   9.344   7.734   7.999
 1090POPC   C4B17410   9.594   7.710   7.654
 1091POPC   NC317411  17.004  20.318   9.564
 1091POPC   PO417412  16.617  20.932   9.485
 1091POPC   GL117413  16.548  20.752   9.114
 1091POPC   GL217414  16.906  20.660   9.119
 1091POPC   C1A17415  16.637  20.819   8.699
 1091POPC   D2A17416  16.851  20.697   8.347
 1091POPC   C3A17417  16.650  20.678   7.965
 1091POPC   C4A17418  16.646  20.776   7.540
 1091POPC   C1B17419  17.186  20.703   8.757
 1091POPC   C2B17420  17.278  20.419   8.390
 1091POPC   C3B17421  17.092  20.409   7.982
 1091POPC   C4B17422  17.131  20.679   7.658
 1092POPC   NC317423  18.431  22.241   9.419
 1092POPC   PO417424  19.002  22.192   9.515
 1092POPC   GL117425  18.862  22.183   9.130
 1092POPC   GL217426  18.645  21.915   9.076
 1092POPC   C1A17427  18.738  22.398   8.768
 1092POPC   D2A17428  18.990  22.373   8.383
 1092POPC   C3A17429  18.870  22.523   7.966
 1092POPC   C4A17430  19.125  22.426   7.567
 1092POPC   C1B17431  18.890  21.881   8.709
 1092POPC   C2B17432  18.736  21.903   8.302
 1092POPC   C3B17433  18.819  22.009   7.924
 1092POPC   C4B17434  19.222  22.156   7.976
 1093POPC   NC317435   7.502  37.352   9.498
 1093POPC   PO417436   6.915  37.712   9.532
 1093POPC   GL117437   7.144  37.637   9.143
 1093POPC   GL217438   7.482  37.604   9.079
 1093POPC   C1A17439   7.229  37.880   8.736
 1093POPC   D2A17440   7.291  38.028   8.301
 1093POPC   C3A17441   7.268  37.734   7.980
 1093POPC   C4A17442   7.416  37.719   7.569
 1093POPC   C1B17443   7.530  37.469   8.684
 1093POPC   C2B17444   7.686  37.594   8.320
 1093POPC   C3B17445   7.674  37.395   7.945
 1093POPC   C4B17446   7.317  37.254   7.723
 1094POPC   NC317447  25.129   7.929   9.328
 1094POPC   PO417448  25.442   8.448   9.626
 1094POPC   GL117449  25.509   8.359   9.139
 1094POPC   GL217450  25.566   7.991   9.035
 1094POPC   C1A17451  25.504   8.305   8.658
 1094POPC   D2A17452  25.168   8.108   8.421
 1094POPC   C3A17453  25.091   8.283   8.014
 1094POPC   C4A17454  25.374   8.593   7.811
 1094POPC   C1B17455  25.552   7.783   8.621
 1094POPC   C2B17456  25.704   7.956   8.219
 1094POPC   C3B17457  25.501   8.057   7.818
 1094POPC   C4B17458  25.579   8.297   7.426
 1095POPC   NC317459  43.271   9.927   9.899
 1095POPC   PO417460  42.945   9.526   9.577
 1095POPC   GL117461  43.001   9.798   9.226
 1095POPC   GL217462  42.638   9.721   9.179
 1095POPC   C1A17463  43.235   9.804   8.820
 1095POPC   D2A17464  43.095   9.827   8.395
 1095POPC   C3A17465  43.246   9.972   7.978
 1095POPC   C4A17466  43.183   9.730   7.588
 1095POPC   C1B17467  42.693   9.901   8.810
 1095POPC   C2B17468  42.603   9.735   8.424
 1095POPC   C3B17469  42.721   9.889   8.040
 1095POPC   C4B17470  42.665   9.721   7.662
 1096POPC   NC317471  40.424  15.716   9.403
 1096POPC   PO417472  40.184  16.337   9.523
 1096POPC   GL117473  40.215  16.113   9.118
 1096POPC   GL217474  39.996  15.796   9.092
 1096POPC   C1A17475  40.189  16.013   8.672
 1096POPC   D2A17476  40.290  16.060   8.246
 1096POPC   C3A17477  40.276  15.699   7.966
 1096POPC   C4A17478  40.103  15.720   7.558
 1096POPC   C1B17479  39.722  15.815   8.713
 1096POPC   C2B17480  39.803  15.833   8.257
 1096POPC   C3B17481  39.907  16.053   7.873
 1096POPC   C4B17482  39.743  16.080   7.436
 1097POPC   NC317483  30.029   8.551   9.425
 1097POPC   PO417484  29.904   7.856   9.513
 1097POPC   GL117485  29.913   8.118   9.145
 1097POPC   GL217486  30.156   7.889   8.995
 1097POPC   C1A17487  30.000   8.328   8.741
 1097POPC   D2A17488  30.042   8.637   8.391
 1097POPC   C3A17489  29.968   8.437   8.022
 1097POPC   C4A17490  30.179   8.392   7.636
 1097POPC   C1B17491  29.747   7.775   8.814
 1097POPC   C2B17492  29.623   7.883   8.414
 1097POPC   C3B17493  29.624   8.012   8.007
 1097POPC   C4B17494  29.772   7.890   7.616
 1098POPC   NC317495  41.595  16.474   9.453
 1098POPC   PO417496  41.660  15.788   9.552
 1098POPC   GL117497  41.687  15.997   9.188
 1098POPC   GL217498  41.358  16.136   9.132
 1098POPC   C1A17499  41.648  15.807   8.791
 1098POPC   D2A17500  41.696  15.630   8.414
 1098POPC   C3A17501  41.649  15.914   8.102
 1098POPC   C4A17502  41.644  15.840   7.677
 1098POPC   C1B17503  41.283  16.340   8.737
 1098POPC   C2B17504  41.182  16.219   8.301
 1098POPC   C3B17505  41.251  16.106   7.846
 1098POPC   C4B17506  41.372  16.260   7.421
 1099POPC   NC317507   4.323  32.347   9.732
 1099POPC   PO417508   4.356  32.879   9.261
 1099POPC   GL117509   4.098  32.943   8.948
 1099POPC   GL217510   4.057  32.624   8.814
 1099POPC   C1A17511   4.117  33.077   8.540
 1099POPC   D2A17512   4.253  32.847   8.196
 1099POPC   C3A17513   4.372  33.112   7.843
 1099POPC   C4A17514   4.217  33.486   7.750
 1099POPC   C1B17515   4.376  32.510   8.557
 1099POPC   C2B17516   4.669  32.490   8.245
 1099POPC   C3B17517   4.632  32.671   7.865
 1099POPC   C4B17518   4.186  32.671   7.738
 1100POPC   NC317519   5.723   6.189   9.420
 1100POPC   PO417520   6.123   6.701   9.752
 1100POPC   GL117521   6.119   6.608   9.272
 1100POPC   GL217522   5.790   6.644   9.174
 1100POPC   C1A17523   6.146   6.754   8.824
 1100POPC   D2A17524   6.214   6.919   8.420
 1100POPC   C3A17525   6.181   6.687   8.039
 1100POPC   C4A17526   6.243   6.928   7.673
 1100POPC   C1B17527   5.789   6.403   8.804
 1100POPC   C2B17528   5.833   6.545   8.403
 1100POPC   C3B17529   5.726   6.382   7.995
 1100POPC   C4B17530   5.912   6.179   7.670
 1101POPC   NC317531  17.853   8.073   9.553
 1101POPC   PO417532  18.503   8.151   9.600
 1101POPC   GL117533  18.331   8.111   9.168
 1101POPC   GL217534  18.002   8.277   9.120
 1101POPC   C1A17535  18.262   8.143   8.710
 1101POPC   D2A17536  18.365   8.050   8.303
 1101POPC   C3A17537  18.551   8.376   8.123
 1101POPC   C4A17538  18.496   8.411   7.701
 1101POPC   C1B17539  17.824   8.449   8.753
 1101POPC   C2B17540  18.056   8.479   8.370
 1101POPC   C3B17541  18.054   8.372   7.969
 1101POPC   C4B17542  17.701   8.576   7.847
 1102POPC   NC317543   5.946  35.356   9.650
 1102POPC   PO417544   5.447  34.902   9.465
 1102POPC   GL117545   5.782  35.085   9.230
 1102POPC   GL217546   5.795  35.421   9.171
 1102POPC   C1A17547   5.931  35.085   8.793
 1102POPC   D2A17548   5.712  35.054   8.399
 1102POPC   C3A17549   5.942  35.026   8.005
 1102POPC   C4A17550   5.626  35.035   7.680
 1102POPC   C1B17551   6.103  35.540   8.890
 1102POPC   C2B17552   5.971  35.492   8.471
 1102POPC   C3B17553   5.787  35.510   8.079
 1102POPC   C4B17554   5.905  35.464   7.658
 1103POPC   NC317555  19.696  10.160   9.375
 1103POPC   PO417556  20.080   9.599   9.500
 1103POPC   GL117557  19.977   9.581   9.097
 1103POPC   GL217558  19.677   9.755   9.070
 1103POPC   C1A17559  20.035   9.871   8.751
 1103POPC   D2A17560  20.090  10.052   8.352
 1103POPC   C3A17561  19.882   9.848   7.995
 1103POPC   C4A17562  20.064  10.002   7.606
 1103POPC   C1B17563  19.541   9.663   8.668
 1103POPC   C2B17564  19.633   9.468   8.286
 1103POPC   C3B17565  19.555   9.408   7.854
 1103POPC   C4B17566  19.621   9.711   7.548
 1104POPC   NC317567  25.653  12.572   9.310
 1104POPC   PO417568  26.124  12.648   9.792
 1104POPC   GL117569  26.166  12.814   9.331
 1104POPC   GL217570  26.473  12.928   9.164
 1104POPC   C1A17571  26.033  12.921   8.885
 1104POPC   D2A17572  25.947  12.670   8.514
 1104POPC   C3A17573  25.893  12.832   8.089
 1104POPC   C4A17574  25.739  12.675   7.717
 1104POPC   C1B17575  26.490  12.801   8.702
 1104POPC   C2B17576  26.378  12.867   8.284
 1104POPC   C3B17577  26.341  12.919   7.823
 1104POPC   C4B17578  26.410  13.167   7.425
 1105POPC   NC317579  14.357   3.877   9.449
 1105POPC   PO417580  14.433   3.217   9.506
 1105POPC   GL117581  14.519   3.462   9.152
 1105POPC   GL217582  14.265   3.678   8.997
 1105POPC   C1A17583  14.744   3.560   8.773
 1105POPC   D2A17584  14.675   3.723   8.347
 1105POPC   C3A17585  14.359   3.577   8.064
 1105POPC   C4A17586  14.440   3.611   7.650
 1105POPC   C1B17587  14.010   3.971   8.742
 1105POPC   C2B17588  13.980   3.800   8.326
 1105POPC   C3B17589  14.058   3.987   7.919
 1105POPC   C4B17590  14.227   4.069   7.512
 1106POPC   NC317591  32.366  13.874   9.733
 1106POPC   PO417592  32.485  13.265   9.467
 1106POPC   GL117593  32.346  13.665   9.262
 1106POPC   GL217594  32.014  13.670   9.166
 1106POPC   C1A17595  32.452  13.830   8.845
 1106POPC   D2A17596  32.559  13.833   8.399
 1106POPC   C3A17597  32.227  13.797   8.091
 1106POPC   C4A17598  32.208  13.504   7.774
 1106POPC   C1B17599  32.140  13.374   8.816
 1106POPC   C2B17600  32.109  13.363   8.334
 1106POPC   C3B17601  31.912  13.125   7.975
 1106POPC   C4B17602  32.003  13.096   7.536
 1107POPC   NC317603  17.595  37.064   9.555
 1107POPC   PO417604  17.174  36.453   9.549
 1107POPC   GL117605  17.431  36.665   9.229
 1107POPC   GL217606  17.272  36.931   9.191
 1107POPC   C1A17607  17.655  36.925   8.867
 1107POPC   D2A17608  17.816  36.830   8.410
 1107POPC   C3A17609  17.705  37.052   8.022
 1107POPC   C4A17610  17.515  36.866   7.608
 1107POPC   C1B17611  17.178  36.804   8.788
 1107POPC   C2B17612  17.336  36.994   8.431
 1107POPC   C3B17613  17.253  36.833   8.047
 1107POPC   C4B17614  16.991  36.861   7.730
 1108POPC   NC317615  12.033  34.211   9.410
 1108POPC   PO417616  12.286  33.591   9.372
 1108POPC   GL117617  12.251  33.900   9.047
 1108POPC   GL217618  12.460  34.225   9.112
 1108POPC   C1A17619  11.961  33.821   8.701
 1108POPC   D2A17620  11.994  33.571   8.358
 1108POPC   C3A17621  12.035  33.780   8.012
 1108POPC   C4A17622  12.108  33.529   7.716
 1108POPC   C1B17623  12.238  34.299   8.719
 1108POPC   C2B17624  12.211  34.458   8.322
 1108POPC   C3B17625  12.386  34.165   8.017
 1108POPC   C4B17626  12.264  34.124   7.596
 1109POPC   NC317627   1.922   1.519   9.426
 1109POPC   PO417628   2.381   0.964   9.441
 1109POPC   GL117629   2.035   1.085   9.141
 1109POPC   GL217630   2.113   1.420   8.978
 1109POPC   C1A17631   1.734   1.133   8.776
 1109POPC   D2A17632   1.861   1.406   8.428
 1109POPC   C3A17633   1.739   1.233   8.043
 1109POPC   C4A17634   1.974   0.944   7.818
 1109POPC   C1B17635   2.367   1.383   8.644
 1109POPC   C2B17636   2.342   1.636   8.298
 1109POPC   C3B17637   2.171   1.485   7.941
 1109POPC   C4B17638   2.369   1.608   7.605
 1110POPC   NC317639  39.432  23.204   9.373
 1110POPC   PO417640  39.049  22.622   9.439
 1110POPC   GL117641  39.351  22.748   9.111
 1110POPC   GL217642  39.129  23.004   9.034
 1110POPC   C1A17643  39.340  22.770   8.645
 1110POPC   D2A17644  38.931  22.767   8.409
 1110POPC   C3A17645  38.984  22.695   7.957
 1110POPC   C4A17646  39.002  23.005   7.678
 1110POPC   C1B17647  39.378  23.264   8.744
 1110POPC   C2B17648  39.251  23.182   8.373
 1110POPC   C3B17649  39.202  23.306   8.030
 1110POPC   C4B17650  39.505  23.226   7.740
 1111POPC   NC317651  31.961  23.538   9.311
 1111POPC   PO417652  32.592  23.296   9.224
 1111POPC   GL117653  32.332  23.456   8.965
 1111POPC   GL217654  32.217  23.770   8.915
 1111POPC   C1A17655  32.335  23.453   8.552
 1111POPC   D2A17656  32.238  23.792   8.333
 1111POPC   C3A17657  32.288  23.622   7.939
 1111POPC   C4A17658  32.238  23.912   7.660
 1111POPC   C1B17659  31.846  23.782   8.721
 1111POPC   C2B17660  31.610  23.817   8.407
 1111POPC   C3B17661  31.809  23.884   8.052
 1111POPC   C4B17662  31.818  23.651   7.726
 1112POPC   NC317663   4.003   4.937   9.482
 1112POPC   PO417664   4.653   5.220   9.531
 1112POPC   GL117665   4.373   5.118   9.173
 1112POPC   GL217666   4.196   5.362   9.029
 1112POPC   C1A17667   4.066   4.946   8.823
 1112POPC   D2A17668   4.043   5.201   8.449
 1112POPC   C3A17669   4.305   5.022   8.116
 1112POPC   C4A17670   4.131   4.786   7.756
 1112POPC   C1B17671   4.487   5.260   8.698
 1112POPC   C2B17672   4.743   5.390   8.358
 1112POPC   C3B17673   4.817   5.265   7.966
 1112POPC   C4B17674   4.671   4.847   7.790
 1113POPC   NC317675   5.659  31.412   9.391
 1113POPC   PO417676   6.125  30.938   9.318
 1113POPC   GL117677   5.991  31.275   9.012
 1113POPC   GL217678   5.944  31.673   9.054
 1113POPC   C1A17679   5.870  31.404   8.604
 1113POPC   D2A17680   5.553  31.477   8.336
 1113POPC   C3A17681   5.588  31.333   7.921
 1113POPC   C4A17682   5.558  31.662   7.602
 1113POPC   C1B17683   6.278  31.674   8.756
 1113POPC   C2B17684   6.376  31.292   8.506
 1113POPC   C3B17685   6.103  31.275   8.130
 1113POPC   C4B17686   6.079  31.468   7.702
 1114POPC   NC317687  18.874   1.118   9.521
 1114POPC   PO417688  19.473   0.915   9.337
 1114POPC   GL117689  19.126   1.018   9.069
 1114POPC   GL217690  19.027   1.325   9.028
 1114POPC   C1A17691  18.911   0.962   8.679
 1114POPC   D2A17692  18.943   1.263   8.329
 1114POPC   C3A17693  19.052   1.141   7.941
 1114POPC   C4A17694  18.812   1.010   7.604
 1114POPC   C1B17695  18.920   1.592   8.700
 1114POPC   C2B17696  19.201   1.757   8.363
 1114POPC   C3B17697  19.305   1.621   7.935
 1114POPC   C4B17698  19.087   1.484   7.560
 1115POPC   NC317699  24.689  11.610   9.378
 1115POPC   PO417700  24.643  11.102   9.725
 1115POPC   GL117701  24.440  11.185   9.259
 1115POPC   GL217702  24.240  11.472   9.152
 1115POPC   C1A17703  24.267  11.029   8.863
 1115POPC   D2A17704  24.174  11.175   8.434
 1115POPC   C3A17705  24.365  11.130   8.036
 1115POPC   C4A17706  24.405  11.299   7.641
 1115POPC   C1B17707  24.494  11.472   8.745
 1115POPC   C2B17708  24.639  11.484   8.304
 1115POPC   C3B17709  24.707  11.621   7.860
 1115POPC   C4B17710  24.782  11.633   7.381
 1116POPC   NC317711  17.933   8.852   9.413
 1116POPC   PO417712  18.518   9.120   9.353
 1116POPC   GL117713  18.158   9.147   9.087
 1116POPC   GL217714  17.890   9.386   9.012
 1116POPC   C1A17715  18.107   8.874   8.717
 1116POPC   D2A17716  18.432   8.822   8.378
 1116POPC   C3A17717  18.259   8.833   7.955
 1116POPC   C4A17718  18.392   9.004   7.578
 1116POPC   C1B17719  18.152   9.365   8.653
 1116POPC   C2B17720  18.094   9.197   8.279
 1116POPC   C3B17721  18.148   9.362   7.904
 1116POPC   C4B17722  18.215   9.459   7.485
 1117POPC   NC317723  30.637  12.358   9.471
 1117POPC   PO417724  31.122  11.959   9.395
 1117POPC   GL117725  30.936  12.032   9.014
 1117POPC   GL217726  30.576  12.095   9.039
 1117POPC   C1A17727  31.036  12.317   8.685
 1117POPC   D2A17728  31.060  12.554   8.311
 1117POPC   C3A17729  30.988  12.306   8.015
 1117POPC   C4A17730  30.910  12.192   7.664
 1117POPC   C1B17731  30.456  12.302   8.688
 1117POPC   C2B17732  30.650  12.134   8.362
 1117POPC   C3B17733  30.490  12.127   7.958
 1117POPC   C4B17734  30.330  12.452   7.727
 1118POPC   NC317735   7.317   4.397   9.545
 1118POPC   PO417736   7.831   4.378   9.172
 1118POPC   GL117737   7.454   4.422   9.044
 1118POPC   GL217738   7.298   4.131   9.092
 1118POPC   C1A17739   7.331   4.364   8.644
 1118POPC   D2A17740   7.510   4.557   8.341
 1118POPC   C3A17741   7.341   4.358   8.034
 1118POPC   C4A17742   7.308   4.413   7.617
 1118POPC   C1B17743   7.628   3.967   8.768
 1118POPC   C2B17744   7.670   3.981   8.343
 1118POPC   C3B17745   7.745   4.088   7.928
 1118POPC   C4B17746   7.539   3.954   7.551
 1119POPC   NC317747  21.902  26.305   9.585
 1119POPC   PO417748  22.379  25.951   9.646
 1119POPC   GL117749  22.236  26.007   9.227
 1119POPC   GL217750  22.187  26.345   9.168
 1119POPC   C1A17751  22.345  25.977   8.779
 1119POPC   D2A17752  22.466  26.060   8.351
 1119POPC   C3A17753  22.273  25.869   8.018
 1119POPC   C4A17754  21.986  26.008   7.744
 1119POPC   C1B17755  22.273  26.488   8.798
 1119POPC   C2B17756  22.070  26.413   8.411
 1119POPC   C3B17757  22.273  26.413   8.040
 1119POPC   C4B17758  22.364  26.315   7.660
 1120POPC   NC317759  18.812  40.190   9.603
 1120POPC   PO417760  19.093  39.620   9.826
 1120POPC   GL117761  18.999  39.629   9.336
 1120POPC   GL217762  19.290  39.712   9.092
 1120POPC   C1A17763  18.815  39.773   8.908
 1120POPC   D2A17764  18.969  39.846   8.457
 1120POPC   C3A17765  18.785  40.179   8.158
 1120POPC   C4A17766  18.669  40.393   7.753
 1120POPC   C1B17767  19.183  40.139   8.863
 1120POPC   C2B17768  19.221  40.326   8.435
 1120POPC   C3B17769  19.282  40.194   8.006
 1120POPC   C4B17770  19.160  40.348   7.612
 1121POPC   NC317771  11.715  32.265   9.519
 1121POPC   PO417772  11.062  32.429   9.686
 1121POPC   GL117773  11.207  32.346   9.221
 1121POPC   GL217774  11.487  32.124   9.082
 1121POPC   C1A17775  11.108  32.287   8.754
 1121POPC   D2A17776  10.802  32.008   8.506
 1121POPC   C3A17777  10.749  31.990   8.068
 1121POPC   C4A17778  11.107  32.200   7.867
 1121POPC   C1B17779  11.602  32.207   8.631
 1121POPC   C2B17780  11.543  32.241   8.174
 1121POPC   C3B17781  11.602  32.175   7.724
 1121POPC   C4B17782  11.879  32.139   7.319
 1122POPC   NC317783  33.212  33.341   9.577
 1122POPC   PO417784  32.899  32.757   9.612
 1122POPC   GL117785  33.145  32.967   9.253
 1122POPC   GL217786  32.847  32.967   9.100
 1122POPC   C1A17787  33.167  33.260   8.861
 1122POPC   D2A17788  33.208  33.109   8.435
 1122POPC   C3A17789  33.083  33.217   8.004
 1122POPC   C4A17790  33.050  33.075   7.537
 1122POPC   C1B17791  32.670  32.847   8.748
 1122POPC   C2B17792  32.720  32.947   8.323
 1122POPC   C3B17793  32.709  32.915   7.892
 1122POPC   C4B17794  32.575  32.751   7.526
 1123POPC   NC317795   2.177   0.554   9.495
 1123POPC   PO417796   1.698   0.251   9.283
 1123POPC   GL117797   1.996   0.334   9.080
 1123POPC   GL217798   2.255   0.105   9.214
 1123POPC   C1A17799   2.042   0.600   8.746
 1123POPC   D2A17800   2.026   0.307   8.415
 1123POPC   C3A17801   1.910   0.477   8.023
 1123POPC   C4A17802   1.869   0.478   7.587
 1123POPC   C1B17803   2.404   0.247   8.819
 1123POPC   C2B17804   2.523   0.160   8.437
 1123POPC   C3B17805   2.372   0.254   8.047
 1123POPC   C4B17806   2.543   0.182   7.675
 1124POPC   NC317807  37.801  17.334   9.469
 1124POPC   PO417808  37.397  17.845   9.301
 1124POPC   GL117809  37.573  17.798   8.892
 1124POPC   GL217810  37.692  17.476   8.977
 1124POPC   C1A17811  37.914  18.012   8.621
 1124POPC   D2A17812  38.183  17.907   8.227
 1124POPC   C3A17813  37.958  17.634   7.966
 1124POPC   C4A17814  37.613  17.712   7.700
 1124POPC   C1B17815  37.835  17.404   8.560
 1124POPC   C2B17816  37.762  17.163   8.174
 1124POPC   C3B17817  37.756  17.219   7.722
 1124POPC   C4B17818  37.658  17.378   7.315
 1125POPC   NC317819  17.886  24.881   9.482
 1125POPC   PO417820  17.296  25.201   9.543
 1125POPC   GL117821  17.414  25.270   9.126
 1125POPC   GL217822  17.743  25.180   9.092
 1125POPC   C1A17823  17.191  25.259   8.726
 1125POPC   D2A17824  17.134  24.943   8.383
 1125POPC   C3A17825  17.266  25.059   7.969
 1125POPC   C4A17826  17.292  25.418   7.719
 1125POPC   C1B17827  17.681  25.406   8.716
 1125POPC   C2B17828  17.563  25.255   8.337
 1125POPC   C3B17829  17.739  25.311   7.946
 1125POPC   C4B17830  17.762  25.726   7.741
 1126POPC   NC317831  12.313  15.028   9.564
 1126POPC   PO417832  11.859  15.546   9.564
 1126POPC   GL117833  12.128  15.351   9.222
 1126POPC   GL217834  12.146  14.963   9.086
 1126POPC   C1A17835  12.240  15.380   8.813
 1126POPC   D2A17836  12.047  15.555   8.475
 1126POPC   C3A17837  12.158  15.471   8.075
 1126POPC   C4A17838  12.189  15.252   7.701
 1126POPC   C1B17839  12.072  14.768   8.662
 1126POPC   C2B17840  12.157  14.749   8.175
 1126POPC   C3B17841  11.991  14.778   7.729
 1126POPC   C4B17842  12.259  14.757   7.350
 1127POPC   NC317843  42.021  23.072   9.536
 1127POPC   PO417844  42.705  22.831   9.510
 1127POPC   GL117845  42.385  22.914   9.213
 1127POPC   GL217846  42.095  22.684   9.190
 1127POPC   C1A17847  42.341  23.043   8.802
 1127POPC   D2A17848  42.413  23.178   8.392
 1127POPC   C3A17849  42.629  22.963   8.095
 1127POPC   C4A17850  42.633  23.068   7.699
 1127POPC   C1B17851  41.917  22.764   8.795
 1127POPC   C2B17852  41.913  23.075   8.468
 1127POPC   C3B17853  42.055  22.882   8.075
 1127POPC   C4B17854  42.099  23.032   7.661
 1128POPC   NC317855   3.173  27.193   9.657
 1128POPC   PO417856   2.754  26.684   9.572
 1128POPC   GL117857   2.628  26.952   9.281
 1128POPC   GL217858   2.974  26.990   9.206
 1128POPC   C1A17859   2.634  26.858   8.840
 1128POPC   D2A17860   2.801  26.607   8.515
 1128POPC   C3A17861   2.765  26.772   8.085
 1128POPC   C4A17862   2.896  26.614   7.659
 1128POPC   C1B17863   2.973  27.240   8.836
 1128POPC   C2B17864   2.936  27.101   8.440
 1128POPC   C3B17865   3.026  27.246   8.071
 1128POPC   C4B17866   2.834  27.126   7.720
 1129POPC   NC317867  38.484   5.583   9.979
 1129POPC   PO417868  37.979   5.887   9.635
 1129POPC   GL117869  38.218   5.889   9.193
 1129POPC   GL217870  38.480   6.182   9.138
 1129POPC   C1A17871  38.309   5.933   8.728
 1129POPC   D2A17872  38.578   5.951   8.357
 1129POPC   C3A17873  38.323   5.852   7.995
 1129POPC   C4A17874  38.215   5.497   7.738
 1129POPC   C1B17875  38.676   6.348   8.724
 1129POPC   C2B17876  38.658   6.454   8.260
 1129POPC   C3B17877  38.709   6.163   7.883
 1129POPC   C4B17878  38.891   6.191   7.452
 1130POPC   NC317879   8.760  33.978   9.894
 1130POPC   PO417880   9.335  33.857   9.582
 1130POPC   GL117881   9.081  33.671   9.230
 1130POPC   GL217882   9.047  33.961   8.985
 1130POPC   C1A17883   8.964  33.515   8.799
 1130POPC   D2A17884   9.001  33.834   8.475
 1130POPC   C3A17885   8.978  33.773   8.064
 1130POPC   C4A17886   8.774  33.749   7.671
 1130POPC   C1B17887   9.302  34.181   8.691
 1130POPC   C2B17888   9.398  34.078   8.275
 1130POPC   C3B17889   9.292  34.138   7.838
 1130POPC   C4B17890   9.256  34.038   7.390
 1131POPC   NC317891  28.396  43.265   9.496
 1131POPC   PO417892  28.515  42.613   9.325
 1131POPC   GL117893  28.411  42.933   9.100
 1131POPC   GL217894  28.649  43.252   9.052
 1131POPC   C1A17895  28.369  42.841   8.678
 1131POPC   D2A17896  28.596  42.790   8.301
 1131POPC   C3A17897  28.436  43.085   8.030
 1131POPC   C4A17898  28.335  42.982   7.629
 1131POPC   C1B17899  28.228  43.310   8.833
 1131POPC   C2B17900  28.087  43.372   8.399
 1131POPC   C3B17901  28.019  43.418   7.953
 1131POPC   C4B17902  28.341  43.476   7.643
 1132POPC   NC317903  30.714  39.459   9.485
 1132POPC   PO417904  30.329  38.943   9.580
 1132POPC   GL117905  30.625  38.910   9.202
 1132POPC   GL217906  30.662  39.214   9.050
 1132POPC   C1A17907  30.956  38.845   8.857
 1132POPC   D2A17908  30.962  39.080   8.491
 1132POPC   C3A17909  30.727  38.974   8.131
 1132POPC   C4A17910  30.832  38.902   7.739
 1132POPC   C1B17911  30.774  39.503   8.746
 1132POPC   C2B17912  30.625  39.450   8.327
 1132POPC   C3B17913  30.793  39.447   7.937
 1132POPC   C4B17914  30.703  39.356   7.507
 1133POPC   NC317915   1.072  24.374   9.519
 1133POPC   PO417916   1.637  24.645   9.414
 1133POPC   GL117917   1.307  24.688   9.080
 1133POPC   GL217918   0.928  24.657   9.087
 1133POPC   C1A17919   1.275  24.441   8.681
 1133POPC   D2A17920   1.514  24.177   8.345
 1133POPC   C3A17921   1.356  24.298   7.935
 1133POPC   C4A17922   1.147  24.708   7.907
 1133POPC   C1B17923   0.844  24.216   8.902
 1133POPC   C2B17924   1.070  23.980   8.577
 1133POPC   C3B17925   1.015  23.940   8.139
 1133POPC   C4B17926   0.923  23.995   7.698
 1134POPC   NC317927  37.107  32.064   9.363
 1134POPC   PO417928  36.414  31.957   9.425
 1134POPC   GL117929  36.643  32.220   9.124
 1134POPC   GL217930  36.962  32.394   9.036
 1134POPC   C1A17931  36.751  32.122   8.691
 1134POPC   D2A17932  36.795  32.346   8.320
 1134POPC   C3A17933  36.906  32.204   7.943
 1134POPC   C4A17934  36.683  32.378   7.585
 1134POPC   C1B17935  37.277  32.166   8.720
 1134POPC   C2B17936  37.525  32.288   8.358
 1134POPC   C3B17937  37.314  32.522   8.037
 1134POPC   C4B17938  37.179  32.503   7.614
 1135POPC   NC317939  41.593   9.404   9.363
 1135POPC   PO417940  41.714   8.698   9.468
 1135POPC   GL117941  41.657   8.973   9.122
 1135POPC   GL217942  41.315   9.111   9.064
 1135POPC   C1A17943  41.740   9.173   8.745
 1135POPC   D2A17944  41.465   9.324   8.440
 1135POPC   C3A17945  41.620   9.159   8.056
 1135POPC   C4A17946  42.005   9.205   7.819
 1135POPC   C1B17947  41.256   8.762   8.807
 1135POPC   C2B17948  41.254   8.834   8.372
 1135POPC   C3B17949  41.097   9.163   8.113
 1135POPC   C4B17950  41.273   9.198   7.704
 1136POPC   NC317951  14.208  37.772   9.453
 1136POPC   PO417952  14.563  37.193   9.500
 1136POPC   GL117953  14.494  37.497   9.124
 1136POPC   GL217954  14.455  37.867   9.012
 1136POPC   C1A17955  14.730  37.571   8.722
 1136POPC   D2A17956  14.813  37.633   8.326
 1136POPC   C3A17957  14.579  37.461   8.013
 1136POPC   C4A17958  14.342  37.619   7.692
 1136POPC   C1B17959  14.555  38.057   8.618
 1136POPC   C2B17960  14.550  38.033   8.148
 1136POPC   C3B17961  14.343  38.132   7.766
 1136POPC   C4B17962  14.223  37.991   7.358
 1137POPC   NC317963  19.801  30.377   9.379
 1137POPC   PO417964  19.335  30.890   9.356
 1137POPC   GL117965  19.579  30.719   9.012
 1137POPC   GL217966  19.617  30.343   8.915
 1137POPC   C1A17967  19.697  30.731   8.585
 1137POPC   D2A17968  19.640  30.418   8.262
 1137POPC   C3A17969  19.665  30.620   7.860
 1137POPC   C4A17970  19.705  31.074   7.764
 1137POPC   C1B17971  20.031  30.354   8.698
 1137POPC   C2B17972  20.139  30.609   8.326
 1137POPC   C3B17973  20.153  30.485   7.906
 1137POPC   C4B17974  20.027  30.073   7.845
 1138POPC   NC317975  26.344  35.297   9.431
 1138POPC   PO417976  25.789  35.530   9.271
 1138POPC   GL117977  26.047  35.258   9.001
 1138POPC   GL217978  26.327  34.977   9.037
 1138POPC   C1A17979  26.174  35.271   8.565
 1138POPC   D2A17980  25.969  35.265   8.147
 1138POPC   C3A17981  26.130  35.528   7.833
 1138POPC   C4A17982  26.152  35.460   7.369
 1138POPC   C1B17983  26.657  35.065   8.784
 1138POPC   C2B17984  26.655  35.230   8.395
 1138POPC   C3B17985  26.459  35.146   8.015
 1138POPC   C4B17986  26.151  35.020   7.702
 1139POPC   NC317987  13.752  27.249   9.368
 1139POPC   PO417988  13.342  27.835   9.484
 1139POPC   GL117989  13.446  27.698   9.089
 1139POPC   GL217990  13.739  27.728   9.156
 1139POPC   C1A17991  13.670  27.538   8.701
 1139POPC   D2A17992  13.566  27.632   8.294
 1139POPC   C3A17993  13.616  27.322   7.994
 1139POPC   C4A17994  13.665  27.573   7.668
 1139POPC   C1B17995  13.913  27.979   8.850
 1139POPC   C2B17996  13.906  28.041   8.392
 1139POPC   C3B17997  13.778  28.002   7.931
 1139POPC   C4B17998  13.994  28.036   7.511
 1140POPC   NC317999  20.359  21.830   9.377
 1140POPC   PO418000  20.620  21.317   9.610
 1140POPC   GL118001  20.447  21.232   9.204
 1140POPC   GL218002  20.791  21.119   9.160
 1140POPC   C1A18003  20.496  21.300   8.770
 1140POPC   D2A18004  20.485  21.596   8.463
 1140POPC   C3A18005  20.471  21.513   8.030
 1140POPC   C4A18006  20.719  21.722   7.730
 1140POPC   C1B18007  20.954  20.993   8.784
 1140POPC   C2B18008  20.761  21.050   8.399
 1140POPC   C3B18009  20.928  20.971   8.021
 1140POPC   C4B18010  20.797  21.212   7.704
 1141POPC   NC318011   1.529  21.115   9.517
 1141POPC   PO418012   0.871  21.335   9.556
 1141POPC   GL118013   1.139  21.230   9.192
 1141POPC   GL218014   1.386  21.480   9.080
 1141POPC   C1A18015   1.253  21.118   8.767
 1141POPC   D2A18016   1.269  21.281   8.369
 1141POPC   C3A18017   1.076  21.136   8.012
 1141POPC   C4A18018   0.898  21.471   7.765
 1141POPC   C1B18019   1.637  21.476   8.712
 1141POPC   C2B18020   1.620  21.641   8.305
 1141POPC   C3B18021   1.411  21.491   7.878
 1141POPC   C4B18022   1.502  21.657   7.427
 1142POPC   NC318023   5.440   9.041   9.576
 1142POPC   PO418024   4.833   9.123   9.677
 1142POPC   GL118025   5.031   8.975   9.252
 1142POPC   GL218026   5.282   9.230   9.116
 1142POPC   C1A18027   5.033   8.819   8.804
 1142POPC   D2A18028   4.885   8.654   8.391
 1142POPC   C3A18029   4.750   8.948   8.122
 1142POPC   C4A18030   5.108   8.958   7.890
 1142POPC   C1B18031   5.514   9.038   8.784
 1142POPC   C2B18032   5.407   9.008   8.351
 1142POPC   C3B18033   5.459   9.320   8.013
 1142POPC   C4B18034   5.236   9.394   7.652
 1143POPC   NC318035   1.313  27.528   9.563
 1143POPC   PO418036   0.827  28.060   9.447
 1143POPC   GL118037   1.143  27.799   9.149
 1143POPC   GL218038   1.227  27.397   9.082
 1143POPC   C1A18039   1.260  27.772   8.725
 1143POPC   D2A18040   1.466  27.906   8.370
 1143POPC   C3A18041   1.480  27.634   8.078
 1143POPC   C4A18042   1.262  27.583   7.716
 1143POPC   C1B18043   0.973  27.339   8.688
 1143POPC   C2B18044   1.000  27.447   8.230
 1143POPC   C3B18045   0.927  27.206   7.841
 1143POPC   C4B18046   1.086  27.157   7.410
 1144POPC   NC318047  28.935  34.831   9.576
 1144POPC   PO418048  29.437  34.330   9.442
 1144POPC   GL118049  29.098  34.437   9.157
 1144POPC   GL218050  28.756  34.642   9.156
 1144POPC   C1A18051  29.263  34.581   8.771
 1144POPC   D2A18052  29.573  34.555   8.462
 1144POPC   C3A18053  29.312  34.606   8.126
 1144POPC   C4A18054  29.399  34.678   7.714
 1144POPC   C1B18055  28.708  34.478   8.788
 1144POPC   C2B18056  28.878  34.601   8.430
 1144POPC   C3B18057  28.760  34.722   8.072
 1144POPC   C4B18058  28.942  34.493   7.785
 1145POPC   NC318059   1.887  36.472   9.421
 1145POPC   PO418060   2.286  35.885   9.444
 1145POPC   GL118061   2.001  36.099   9.075
 1145POPC   GL218062   1.963  36.485   8.928
 1145POPC   C1A18063   2.032  36.096   8.604
 1145POPC   D2A18064   2.273  36.269   8.254
 1145POPC   C3A18065   2.154  36.104   7.855
 1145POPC   C4A18066   1.977  36.266   7.476
 1145POPC   C1B18067   1.586  36.274   8.779
 1145POPC   C2B18068   1.542  36.084   8.388
 1145POPC   C3B18069   1.629  36.129   7.948
 1145POPC   C4B18070   1.553  36.468   7.714
 1146POPC   NC318071   0.972  36.765   9.599
 1146POPC   PO418072   1.591  36.817   9.460
 1146POPC   GL118073   1.477  36.710   9.063
 1146POPC   GL218074   1.164  36.887   9.101
 1146POPC   C1A18075   1.352  36.698   8.627
 1146POPC   D2A18076   1.030  36.835   8.352
 1146POPC   C3A18077   1.292  36.816   8.004
 1146POPC   C4A18078   1.491  36.957   7.647
 1146POPC   C1B18079   1.208  37.163   8.766
 1146POPC   C2B18080   1.444  37.173   8.403
 1146POPC   C3B18081   1.442  37.329   8.002
 1146POPC   C4B18082   1.082  37.236   7.746
 1147POPC   NC318083  22.555  26.389   9.556
 1147POPC   PO418084  22.873  25.879   9.255
 1147POPC   GL118085  22.699  26.219   9.094
 1147POPC   GL218086  22.986  26.409   9.141
 1147POPC   C1A18087  22.756  26.287   8.686
 1147POPC   D2A18088  22.947  26.365   8.305
 1147POPC   C3A18089  22.768  26.222   7.949
 1147POPC   C4A18090  22.680  25.878   7.720
 1147POPC   C1B18091  23.241  26.452   8.734
 1147POPC   C2B18092  23.385  26.596   8.285
 1147POPC   C3B18093  23.168  26.532   7.863
 1147POPC   C4B18094  23.122  26.467   7.377
 1148POPC   NC318095   9.858   9.811   9.468
 1148POPC   PO418096   9.367   9.293   9.438
 1148POPC   GL118097   9.548   9.537   9.159
 1148POPC   GL218098   9.440   9.875   9.168
 1148POPC   C1A18099   9.815   9.556   8.827
 1148POPC   D2A18100   9.667   9.592   8.439
 1148POPC   C3A18101   9.930   9.607   8.094
 1148POPC   C4A18102   9.828   9.519   7.673
 1148POPC   C1B18103   9.597  10.020   8.739
 1148POPC   C2B18104   9.704  10.072   8.279
 1148POPC   C3B18105   9.710   9.995   7.817
 1148POPC   C4B18106   9.808  10.003   7.379
 1149POPC   NC318107  40.360  17.402   9.572
 1149POPC   PO418108  40.895  17.039   9.568
 1149POPC   GL118109  40.871  17.372   9.227
 1149POPC   GL218110  41.188  17.603   9.213
 1149POPC   C1A18111  40.749  17.292   8.792
 1149POPC   D2A18112  40.632  16.997   8.433
 1149POPC   C3A18113  40.661  17.251   8.045
 1149POPC   C4A18114  40.944  17.407   7.706
 1149POPC   C1B18115  40.903  17.826   8.947
 1149POPC   C2B18116  40.846  17.743   8.521
 1149POPC   C3B18117  40.921  17.744   8.093
 1149POPC   C4B18118  40.926  17.894   7.674
 1150POPC   NC318119  10.471  21.143   9.476
 1150POPC   PO418120  10.615  20.530   9.712
 1150POPC   GL118121  10.612  20.616   9.249
 1150POPC   GL218122  10.797  20.886   9.124
 1150POPC   C1A18123  10.371  20.782   8.869
 1150POPC   D2A18124  10.140  20.751   8.469
 1150POPC   C3A18125  10.322  20.585   8.081
 1150POPC   C4A18126  10.473  20.262   7.802
 1150POPC   C1B18127  10.817  20.542   8.728
 1150POPC   C2B18128  10.932  20.435   8.258
 1150POPC   C3B18129  10.980  20.362   7.844
 1150POPC   C4B18130  10.738  20.712   7.797
 1151POPC   NC318131   0.617  14.318   9.475
 1151POPC   PO418132   0.090  14.589   9.710
 1151POPC   GL118133   0.157  14.423   9.248
 1151POPC   GL218134   0.329  14.213   9.054
 1151POPC   C1A18135   0.123  14.551   8.770
 1151POPC   D2A18136   0.349  14.330   8.459
 1151POPC   C3A18137   0.113  14.246   8.107
 1151POPC   C4A18138   0.253  14.265   7.680
 1151POPC   C1B18139   0.707  14.187   8.829
 1151POPC   C2B18140   0.774  13.963   8.439
 1151POPC   C3B18141   0.635  14.122   8.063
 1151POPC   C4B18142   0.756  14.197   7.679
 1152POPC   NC318143  31.764  10.012   9.464
 1152POPC   PO418144  31.228   9.634   9.432
 1152POPC   GL118145  31.369   9.465   9.066
 1152POPC   GL218146  31.739   9.580   9.064
 1152POPC   C1A18147  31.175   9.373   8.695
 1152POPC   D2A18148  31.067   9.583   8.320
 1152POPC   C3A18149  31.361   9.899   8.130
 1152POPC   C4A18150  31.303   9.712   7.700
 1152POPC   C1B18151  31.537   9.791   8.723
 1152POPC   C2B18152  31.588   9.527   8.392
 1152POPC   C3B18153  31.763   9.598   8.002
 1152POPC   C4B18154  31.716   9.963   7.741
 1153POPC   NC318155  15.722   6.490   9.453
 1153POPC   PO418156  16.353   6.739   9.671
 1153POPC   GL118157  16.067   6.694   9.218
 1153POPC   GL218158  16.057   6.305   9.131
 1153POPC   C1A18159  15.837   6.726   8.806
 1153POPC   D2A18160  16.122   6.766   8.485
 1153POPC   C3A18161  16.039   6.906   8.075
 1153POPC   C4A18162  16.060   6.685   7.712
 1153POPC   C1B18163  16.055   6.269   8.696
 1153POPC   C2B18164  15.780   6.366   8.348
 1153POPC   C3B18165  15.845   6.210   7.932
 1153POPC   C4B18166  15.587   6.185   7.554
 1154POPC   NC318167  29.502  23.222   9.459
 1154POPC   PO418168  29.870  22.694   9.616
 1154POPC   GL118169  30.132  22.835   9.279
 1154POPC   GL218170  29.954  23.118   9.210
 1154POPC   C1A18171  30.237  22.878   8.816
 1154POPC   D2A18172  30.327  22.912   8.353
 1154POPC   C3A18173  30.116  22.696   8.020
 1154POPC   C4A18174  30.074  22.850   7.626
 1154POPC   C1B18175  29.736  23.010   8.807
 1154POPC   C2B18176  29.803  23.003   8.331
 1154POPC   C3B18177  29.647  22.950   7.884
 1154POPC   C4B18178  29.586  22.981   7.416
 1155POPC   NC318179  22.902  21.739   9.553
 1155POPC   PO418180  22.799  21.094   9.319
 1155POPC   GL118181  22.887  21.311   8.949
 1155POPC   GL218182  23.136  21.474   9.135
 1155POPC   C1A18183  22.755  21.621   8.590
 1155POPC   D2A18184  22.711  21.712   8.114
 1155POPC   C3A18185  22.788  21.360   7.888
 1155POPC   C4A18186  23.152  21.113   7.822
 1155POPC   C1B18187  23.248  21.562   8.702
 1155POPC   C2B18188  23.265  21.405   8.290
 1155POPC   C3B18189  23.288  21.605   7.902
 1155POPC   C4B18190  22.999  21.761   7.648
 1156POPC   NC318191  31.218  31.095   9.531
 1156POPC   PO418192  31.505  31.783   9.560
 1156POPC   GL118193  31.559  31.623   9.188
 1156POPC   GL218194  31.682  31.284   9.140
 1156POPC   C1A18195  31.519  31.725   8.777
 1156POPC   D2A18196  31.643  31.599   8.416
 1156POPC   C3A18197  31.662  31.859   8.096
 1156POPC   C4A18198  31.668  31.517   7.846
 1156POPC   C1B18199  31.281  31.283   8.904
 1156POPC   C2B18200  31.142  31.402   8.507
 1156POPC   C3B18201  31.256  31.376   8.108
 1156POPC   C4B18202  31.236  31.228   7.707
 1157POPC   NC318203  19.657   3.688   9.485
 1157POPC   PO418204  20.223   3.281   9.416
 1157POPC   GL118205  20.171   3.451   9.038
 1157POPC   GL218206  19.879   3.611   9.047
 1157POPC   C1A18207  19.958   3.246   8.703
 1157POPC   D2A18208  19.695   3.302   8.367
 1157POPC   C3A18209  19.931   3.406   8.036
 1157POPC   C4A18210  19.937   3.465   7.620
 1157POPC   C1B18211  19.628   3.721   8.715
 1157POPC   C2B18212  19.502   3.814   8.306
 1157POPC   C3B18213  19.683   3.840   7.895
 1157POPC   C4B18214  19.906   3.974   7.524
 1158POPC   NC318215  20.625  18.229   9.489
 1158POPC   PO418216  20.273  18.747   9.285
 1158POPC   GL118217  20.480  18.452   9.033
 1158POPC   GL218218  20.420  18.088   9.045
 1158POPC   C1A18219  20.767  18.365   8.693
 1158POPC   D2A18220  20.691  18.250   8.265
 1158POPC   C3A18221  20.813  18.468   7.911
 1158POPC   C4A18222  20.610  18.478   7.500
 1158POPC   C1B18223  20.282  18.112   8.632
 1158POPC   C2B18224  20.290  17.976   8.207
 1158POPC   C3B18225  20.367  18.154   7.829
 1158POPC   C4B18226  20.745  18.029   7.633
 1159POPC   NC318227   2.667  10.603   9.510
 1159POPC   PO418228   3.333  10.541   9.559
 1159POPC   GL118229   3.065  10.626   9.188
 1159POPC   GL218230   2.761  10.807   9.058
 1159POPC   C1A18231   3.008  10.455   8.773
 1159POPC   D2A18232   2.870  10.281   8.385
 1159POPC   C3A18233   2.856  10.526   8.016
 1159POPC   C4A18234   2.942  10.303   7.649
 1159POPC   C1B18235   2.515  10.672   8.683
 1159POPC   C2B18236   2.376  10.552   8.245
 1159POPC   C3B18237   2.422  10.753   7.813
 1159POPC   C4B18238   2.523  10.894   7.354
 1160POPC   NC318239   4.474  18.156   9.346
 1160POPC   PO418240   3.967  18.583   9.452
 1160POPC   GL118241   4.091  18.344   9.082
 1160POPC   GL218242   4.012  18.016   9.060
 1160POPC   C1A18243   4.420  18.310   8.727
 1160POPC   D2A18244   4.720  18.483   8.444
 1160POPC   C3A18245   4.720  18.390   7.997
 1160POPC   C4A18246   4.740  18.287   7.548
 1160POPC   C1B18247   3.932  18.229   8.623
 1160POPC   C2B18248   4.178  18.174   8.288
 1160POPC   C3B18249   4.227  18.349   7.935
 1160POPC   C4B18250   4.003  18.730   7.837
 1161POPC   NC318251  41.248   4.708   9.509
 1161POPC   PO418252  41.528   4.162   9.493
 1161POPC   GL118253  41.654   4.421   9.138
 1161POPC   GL218254  41.366   4.565   8.998
 1161POPC   C1A18255  41.822   4.386   8.703
 1161POPC   D2A18256  41.563   4.664   8.437
 1161POPC   C3A18257  41.374   4.536   8.042
 1161POPC   C4A18258  41.524   4.246   7.750
 1161POPC   C1B18259  41.344   4.250   8.659
 1161POPC   C2B18260  41.581   4.119   8.270
 1161POPC   C3B18261  41.488   3.778   7.949
 1161POPC   C4B18262  41.656   3.787   7.536
 1162POPC   NC318263   7.898  38.265   9.401
 1162POPC   PO418264   8.542  38.174   9.531
 1162POPC   GL118265   8.319  38.406   9.158
 1162POPC   GL218266   8.002  38.623   9.053
 1162POPC   C1A18267   8.149  38.271   8.740
 1162POPC   D2A18268   8.259  38.450   8.354
 1162POPC   C3A18269   8.147  38.346   7.947
 1162POPC   C4A18270   8.075  38.425   7.487
 1162POPC   C1B18271   7.864  38.686   8.613
 1162POPC   C2B18272   7.925  38.791   8.162
 1162POPC   C3B18273   8.016  38.846   7.744
 1162POPC   C4B18274   7.963  38.886   7.274
 1163POPC   NC318275  21.053  11.596   9.325
 1163POPC   PO418276  21.337  10.989   9.462
 1163POPC   GL118277  21.388  11.162   9.056
 1163POPC   GL218278  21.490  11.518   9.031
 1163POPC   C1A18279  21.708  11.151   8.707
 1163POPC   D2A18280  21.544  10.981   8.316
 1163POPC   C3A18281  21.372  11.258   8.052
 1163POPC   C4A18282  21.200  11.177   7.653
 1163POPC   C1B18283  21.275  11.404   8.626
 1163POPC   C2B18284  21.073  11.603   8.303
 1163POPC   C3B18285  21.447  11.803   8.183
 1163POPC   C4B18286  21.672  11.687   7.825
 1164POPC   NC318287  23.035  39.655   9.503
 1164POPC   PO418288  23.009  40.299   9.385
 1164POPC   GL118289  23.034  40.125   9.037
 1164POPC   GL218290  22.813  39.902   9.102
 1164POPC   C1A18291  23.175  40.032   8.646
 1164POPC   D2A18292  23.228  40.277   8.268
 1164POPC   C3A18293  23.109  40.044   7.893
 1164POPC   C4A18294  22.855  40.161   7.511
 1164POPC   C1B18295  22.811  39.680   8.737
 1164POPC   C2B18296  23.044  39.583   8.384
 1164POPC   C3B18297  22.837  39.579   8.017
 1164POPC   C4B18298  22.889  39.682   7.605
 1165POPC   NC318299   9.848  32.025   9.357
 1165POPC   PO418300   9.703  31.433   9.594
 1165POPC   GL118301   9.908  31.230   9.235
 1165POPC   GL218302   9.791  31.553   9.064
 1165POPC   C1A18303   9.945  31.139   8.768
 1165POPC   D2A18304  10.020  31.532   8.500
 1165POPC   C3A18305   9.912  31.560   8.054
 1165POPC   C4A18306   9.962  31.146   7.890
 1165POPC   C1B18307   9.532  31.433   8.710
 1165POPC   C2B18308   9.625  31.235   8.327
 1165POPC   C3B18309   9.481  31.304   7.907
 1165POPC   C4B18310   9.505  31.437   7.452
 1166POPC   NC318311  40.276  10.916   9.368
 1166POPC   PO418312  39.774  10.409   9.449
 1166POPC   GL118313  39.905  10.518   9.039
 1166POPC   GL218314  40.180  10.769   8.892
 1166POPC   C1A18315  40.014  10.357   8.658
 1166POPC   D2A18316  40.012  10.608   8.321
 1166POPC   C3A18317  39.965  10.342   7.982
 1166POPC   C4A18318  39.848  10.294   7.563
 1166POPC   C1B18319  40.478  10.631   8.606
 1166POPC   C2B18320  40.461  10.868   8.274
 1166POPC   C3B18321  40.319  10.758   7.935
 1166POPC   C4B18322  40.237  10.582   7.634
 1167POPC   NC318323  24.721   4.522   9.374
 1167POPC   PO418324  24.222   4.057   9.469
 1167POPC   GL118325  24.504   4.080   9.151
 1167POPC   GL218326  24.374   3.841   8.958
 1167POPC   C1A18327  24.523   4.348   8.791
 1167POPC   D2A18328  24.562   4.689   8.499
 1167POPC   C3A18329  24.620   4.591   8.049
 1167POPC   C4A18330  24.501   4.477   7.612
 1167POPC   C1B18331  24.181   4.013   8.606
 1167POPC   C2B18332  24.367   4.226   8.294
 1167POPC   C3B18333  24.500   4.070   7.896
 1167POPC   C4B18334  24.204   4.065   7.533
 1168POPC   NC318335  32.041  37.210   9.331
 1168POPC   PO418336  32.523  36.788   9.569
 1168POPC   GL118337  32.350  36.790   9.110
 1168POPC   GL218338  32.027  36.841   9.005
 1168POPC   C1A18339  32.449  36.898   8.660
 1168POPC   D2A18340  32.365  37.117   8.251
 1168POPC   C3A18341  32.418  36.840   7.861
 1168POPC   C4A18342  32.589  36.771   7.380
 1168POPC   C1B18343  31.955  37.075   8.670
 1168POPC   C2B18344  31.739  37.119   8.310
 1168POPC   C3B18345  31.960  37.063   7.938
 1168POPC   C4B18346  32.190  37.349   7.686
 1169POPC   NC318347  31.024  10.769   9.502
 1169POPC   PO418348  30.502  10.319   9.488
 1169POPC   GL118349  30.618  10.406   9.134
 1169POPC   GL218350  30.638  10.717   9.173
 1169POPC   C1A18351  30.720  10.326   8.734
 1169POPC   D2A18352  30.915  10.419   8.344
 1169POPC   C3A18353  30.593  10.324   8.029
 1169POPC   C4A18354  30.872  10.432   7.724
 1169POPC   C1B18355  30.805  10.823   8.818
 1169POPC   C2B18356  30.592  10.788   8.432
 1169POPC   C3B18357  30.710  10.819   8.037
 1169POPC   C4B18358  30.519  10.828   7.637
 1170POPC   NC318359   4.594  15.713   9.548
 1170POPC   PO418360   5.172  15.331   9.392
 1170POPC   GL118361   4.898  15.177   9.105
 1170POPC   GL218362   4.601  15.351   9.174
 1170POPC   C1A18363   5.039  15.113   8.707
 1170POPC   D2A18364   5.299  15.314   8.409
 1170POPC   C3A18365   5.130  15.306   8.019
 1170POPC   C4A18366   5.057  14.993   7.722
 1170POPC   C1B18367   4.552  15.307   8.740
 1170POPC   C2B18368   4.700  15.342   8.296
 1170POPC   C3B18369   4.648  15.338   7.822
 1170POPC   C4B18370   4.736  15.191   7.389
 1171POPC   NC318371   7.423  26.526   9.442
 1171POPC   PO418372   7.208  27.173   9.520
 1171POPC   GL118373   7.173  26.920   9.192
 1171POPC   GL218374   7.534  26.907   9.119
 1171POPC   C1A18375   7.156  26.982   8.765
 1171POPC   D2A18376   7.440  27.113   8.457
 1171POPC   C3A18377   7.353  26.847   8.114
 1171POPC   C4A18378   7.201  26.875   7.698
 1171POPC   C1B18379   7.642  26.683   8.755
 1171POPC   C2B18380   7.656  26.360   8.429
 1171POPC   C3B18381   7.445  26.360   8.016
 1171POPC   C4B18382   7.629  26.637   7.707
 1172POPC   NC318383   8.900  32.602   9.338
 1172POPC   PO418384   9.392  32.127   9.462
 1172POPC   GL118385   9.068  32.151   9.120
 1172POPC   GL218386   8.771  31.938   9.240
 1172POPC   C1A18387   8.952  32.404   8.722
 1172POPC   D2A18388   8.925  32.616   8.302
 1172POPC   C3A18389   8.988  32.366   7.923
 1172POPC   C4A18390   9.324  32.183   7.682
 1172POPC   C1B18391   8.764  31.825   8.806
 1172POPC   C2B18392   8.859  32.017   8.397
 1172POPC   C3B18393   8.808  31.861   8.000
 1172POPC   C4B18394   8.765  32.013   7.603
 1173POPC   NC318395  31.645  39.259   9.579
 1173POPC   PO418396  30.992  38.987   9.552
 1173POPC   GL118397  31.373  38.973   9.184
 1173POPC   GL218398  31.649  39.266   9.084
 1173POPC   C1A18399  31.574  38.920   8.738
 1173POPC   D2A18400  31.596  39.192   8.372
 1173POPC   C3A18401  31.247  39.108   8.049
 1173POPC   C4A18402  31.176  39.264   7.616
 1173POPC   C1B18403  31.280  39.349   8.788
 1173POPC   C2B18404  31.171  39.513   8.357
 1173POPC   C3B18405  31.466  39.573   8.034
 1173POPC   C4B18406  31.803  39.277   7.877
 1174POPC   NC318407   9.598   5.508   9.492
 1174POPC   PO418408   9.907   5.981   9.457
 1174POPC   GL118409   9.879   5.727   9.122
 1174POPC   GL218410   9.667   6.002   8.983
 1174POPC   C1A18411   9.843   5.624   8.712
 1174POPC   D2A18412   9.638   5.823   8.419
 1174POPC   C3A18413   9.846   5.728   8.048
 1174POPC   C4A18414  10.018   5.666   7.648
 1174POPC   C1B18415   9.318   6.156   8.730
 1174POPC   C2B18416   9.273   6.263   8.299
 1174POPC   C3B18417   9.530   6.107   7.958
 1174POPC   C4B18418   9.576   5.898   7.583
 1175POPC   NC318419  27.519  31.820   9.505
 1175POPC   PO418420  27.259  31.318   9.234
 1175POPC   GL118421  27.635  31.396   9.015
 1175POPC   GL218422  27.666  31.745   9.029
 1175POPC   C1A18423  27.808  31.453   8.599
 1175POPC   D2A18424  27.791  31.273   8.180
 1175POPC   C3A18425  27.385  31.447   7.986
 1175POPC   C4A18426  27.205  31.340   7.598
 1175POPC   C1B18427  27.284  31.817   8.840
 1175POPC   C2B18428  27.333  31.842   8.435
 1175POPC   C3B18429  27.695  31.795   8.199
 1175POPC   C4B18430  27.828  31.662   7.799
 1176POPC   NC318431   5.064   5.450   9.528
 1176POPC   PO418432   4.697   5.981   9.535
 1176POPC   GL118433   4.879   6.017   9.095
 1176POPC   GL218434   5.162   5.815   9.151
 1176POPC   C1A18435   4.954   6.065   8.612
 1176POPC   D2A18436   5.136   5.762   8.320
 1176POPC   C3A18437   5.033   5.807   7.893
 1176POPC   C4A18438   4.886   5.845   7.460
 1176POPC   C1B18439   5.345   6.165   8.905
 1176POPC   C2B18440   5.462   6.167   8.466
 1176POPC   C3B18441   5.232   6.224   8.109
 1176POPC   C4B18442   5.330   6.201   7.672
 1177POPC   NC318443   2.656  32.164   9.553
 1177POPC   PO418444   3.064  32.669   9.725
 1177POPC   GL118445   3.050  32.488   9.275
 1177POPC   GL218446   3.160  32.674   9.012
 1177POPC   C1A18447   2.816  32.261   8.908
 1177POPC   D2A18448   2.555  32.113   8.527
 1177POPC   C3A18449   2.727  32.223   8.108
 1177POPC   C4A18450   2.636  32.069   7.666
 1177POPC   C1B18451   3.176  32.484   8.620
 1177POPC   C2B18452   3.318  32.619   8.237
 1177POPC   C3B18453   3.213  32.581   7.816
 1177POPC   C4B18454   2.865  32.499   7.545
 1178POPC   NC318455  37.978  38.844   9.398
 1178POPC   PO418456  38.481  39.159   9.697
 1178POPC   GL118457  38.554  39.199   9.246
 1178POPC   GL218458  38.442  38.913   9.123
 1178POPC   C1A18459  38.454  39.380   8.848
 1178POPC   D2A18460  38.584  39.495   8.456
 1178POPC   C3A18461  38.427  39.386   8.074
 1178POPC   C4A18462  38.566  39.351   7.648
 1178POPC   C1B18463  38.221  38.866   8.709
 1178POPC   C2B18464  38.288  38.918   8.257
 1178POPC   C3B18465  38.453  38.884   7.842
 1178POPC   C4B18466  38.344  38.957   7.411
 1179POPC   NC318467  22.397  36.943   9.413
 1179POPC   PO418468  21.890  37.064   9.695
 1179POPC   GL118469  22.051  37.289   9.236
 1179POPC   GL218470  22.420  37.347   9.063
 1179POPC   C1A18471  22.068  37.285   8.720
 1179POPC   D2A18472  22.162  36.946   8.391
 1179POPC   C3A18473  22.219  37.041   7.951
 1179POPC   C4A18474  21.898  37.154   7.653
 1179POPC   C1B18475  22.558  37.047   8.699
 1179POPC   C2B18476  22.660  36.869   8.258
 1179POPC   C3B18477  22.642  36.770   7.801
 1179POPC   C4B18478  22.713  36.886   7.349
 1180POPC   NC318479  25.603  43.698   9.343
 1180POPC   PO418480  26.056  43.942   9.821
 1180POPC   GL118481  25.995  44.101   9.391
 1180POPC   GL218482  26.111  43.796   9.275
 1180POPC   C1A18483  26.017  44.128   8.909
 1180POPC   D2A18484  25.892  43.945   8.503
 1180POPC   C3A18485  25.784  44.074   8.074
 1180POPC   C4A18486  25.793  43.927   7.650
 1180POPC   C1B18487  26.334  43.710   8.930
 1180POPC   C2B18488  26.304  43.650   8.491
 1180POPC   C3B18489  26.229  43.839   8.085
 1180POPC   C4B18490  26.269  43.745   7.631
 1181POPC   NC318491  10.563   0.626   9.533
 1181POPC   PO418492  10.890   0.060   9.569
 1181POPC   GL118493  10.590   0.160   9.156
 1181POPC   GL218494  10.416   0.505   9.055
 1181POPC   C1A18495  10.500   0.181   8.668
 1181POPC   D2A18496  10.319   0.459   8.327
 1181POPC   C3A18497  10.431   0.376   7.883
 1181POPC   C4A18498  10.776   0.282   7.593
 1181POPC   C1B18499  10.671   0.674   8.685
 1181POPC   C2B18500  10.793   0.715   8.210
 1181POPC   C3B18501  10.786   0.801   7.743
 1181POPC   C4B18502  10.655   0.711   7.314
 1182POPC   NC318503  42.320  29.262   9.472
 1182POPC   PO418504  41.867  28.861   9.653
 1182POPC   GL118505  42.030  28.820   9.160
 1182POPC   GL218506  42.378  28.928   9.058
 1182POPC   C1A18507  42.023  29.043   8.730
 1182POPC   D2A18508  42.347  29.106   8.450
 1182POPC   C3A18509  42.206  28.919   8.099
 1182POPC   C4A18510  42.328  29.019   7.709
 1182POPC   C1B18511  42.597  29.312   8.855
 1182POPC   C2B18512  42.791  29.422   8.463
 1182POPC   C3B18513  42.673  29.313   8.071
 1182POPC   C4B18514  42.533  29.474   7.695
 1183POPC   NC318515   8.941  37.959   9.424
 1183POPC   PO418516   8.643  37.446   9.543
 1183POPC   GL118517   8.750  37.584   9.117
 1183POPC   GL218518   9.123  37.622   9.055
 1183POPC   C1A18519   8.789  37.599   8.656
 1183POPC   D2A18520   8.965  37.493   8.267
 1183POPC   C3A18521   8.686  37.562   7.900
 1183POPC   C4A18522   8.850  37.393   7.537
 1183POPC   C1B18523   9.260  37.775   8.642
 1183POPC   C2B18524   8.991  37.983   8.337
 1183POPC   C3B18525   9.027  37.922   7.930
 1183POPC   C4B18526   9.252  37.537   7.818
 1184POPC   NC318527  39.987  44.869   9.428
 1184POPC   PO418528  40.306  44.263   9.364
 1184POPC   GL118529  40.018  44.446   9.053
 1184POPC   GL218530  39.753  44.732   9.013
 1184POPC   C1A18531  40.128  44.606   8.640
 1184POPC   D2A18532  40.423  44.575   8.288
 1184POPC   C3A18533  40.162  44.444   7.955
 1184POPC   C4A18534  40.050  44.661   7.604
 1184POPC   C1B18535  39.640  44.453   8.711
 1184POPC   C2B18536  39.721  44.351   8.291
 1184POPC   C3B18537  39.637  44.495   7.891
 1184POPC   C4B18538  39.601  44.438   7.454
 1185POPC   NC318539   6.921  36.538   9.477
 1185POPC   PO418540   7.573  36.098   9.432
 1185POPC   GL118541   7.293  36.319   9.144
 1185POPC   GL218542   7.408  36.629   9.062
 1185POPC   C1A18543   7.106  36.192   8.734
 1185POPC   D2A18544   7.083  35.824   8.476
 1185POPC   C3A18545   7.131  35.921   8.016
 1185POPC   C4A18546   7.361  36.156   7.640
 1185POPC   C1B18547   7.598  36.321   8.740
 1185POPC   C2B18548   7.488  36.169   8.344
 1185POPC   C3B18549   7.704  36.274   7.993
 1185POPC   C4B18550   7.810  36.523   7.626
 1186POPC   NC318551  24.065  31.909   9.616
 1186POPC   PO418552  24.540  32.460   9.611
 1186POPC   GL118553  24.417  32.179   9.289
 1186POPC   GL218554  24.697  32.005   9.184
 1186POPC   C1A18555  24.448  32.278   8.851
 1186POPC   D2A18556  24.702  32.450   8.525
 1186POPC   C3A18557  24.545  32.378   8.138
 1186POPC   C4A18558  24.556  32.586   7.761
 1186POPC   C1B18559  24.703  31.815   8.812
 1186POPC   C2B18560  24.544  31.934   8.465
 1186POPC   C3B18561  24.470  31.858   8.073
 1186POPC   C4B18562  24.523  32.075   7.708
 1187POPC   NC318563  10.044  43.226   9.594
 1187POPC   PO418564  10.630  42.879   9.543
 1187POPC   GL118565  10.370  42.978   9.198
 1187POPC   GL218566  10.239  43.317   9.142
 1187POPC   C1A18567  10.260  42.894   8.777
 1187POPC   D2A18568  10.157  43.040   8.358
 1187POPC   C3A18569  10.484  42.988   8.070
 1187POPC   C4A18570  10.474  42.854   7.653
 1187POPC   C1B18571  10.229  43.410   8.723
 1187POPC   C2B18572  10.272  43.692   8.387
 1187POPC   C3B18573  10.246  43.444   8.036
 1187POPC   C4B18574  10.523  43.364   7.714
 1188POPC   NC318575  10.297  36.117   9.793
 1188POPC   PO418576  10.763  36.407   9.464
 1188POPC   GL118577  10.508  36.281   9.175
 1188POPC   GL218578  10.419  35.937   9.259
 1188POPC   C1A18579  10.550  36.414   8.757
 1188POPC   D2A18580  10.238  36.323   8.455
 1188POPC   C3A18581  10.408  36.299   8.060
 1188POPC   C4A18582  10.345  36.366   7.600
 1188POPC   C1B18583  10.508  35.924   8.799
 1188POPC   C2B18584  10.735  36.045   8.421
 1188POPC   C3B18585  10.813  35.821   8.043
 1188POPC   C4B18586  10.494  35.912   7.754
 1189POPC   NC318587  22.082  16.068   9.628
 1189POPC   PO418588  22.766  16.147   9.516
 1189POPC   GL118589  22.411  15.984   9.202
 1189POPC   GL218590  22.026  15.942   9.157
 1189POPC   C1A18591  22.302  15.809   8.768
 1189POPC   D2A18592  22.391  15.987   8.377
 1189POPC   C3A18593  22.327  15.835   7.962
 1189POPC   C4A18594  21.960  15.814   7.746
 1189POPC   C1B18595  22.138  16.282   8.870
 1189POPC   C2B18596  22.107  16.414   8.486
 1189POPC   C3B18597  22.052  16.289   8.084
 1189POPC   C4B18598  22.190  16.294   7.706
 1190POPC   NC318599  37.319  21.331   9.712
 1190POPC   PO418600  36.700  21.540   9.628
 1190POPC   GL118601  36.837  21.280   9.313
 1190POPC   GL218602  36.573  21.101   9.154
 1190POPC   C1A18603  37.029  21.420   8.915
 1190POPC   D2A18604  37.144  21.336   8.477
 1190POPC   C3A18605  37.055  21.637   8.154
 1190POPC   C4A18606  37.035  21.488   7.720
 1190POPC   C1B18607  36.501  21.443   8.901
 1190POPC   C2B18608  36.581  21.343   8.479
 1190POPC   C3B18609  36.726  21.227   8.085
 1190POPC   C4B18610  36.550  21.251   7.682
 1191POPC   NC318611   9.058  11.806   9.532
 1191POPC   PO418612   9.063  12.465   9.459
 1191POPC   GL118613   8.945  12.178   9.117
 1191POPC   GL218614   8.639  12.276   8.962
 1191POPC   C1A18615   8.896  11.950   8.703
 1191POPC   D2A18616   9.037  12.118   8.329
 1191POPC   C3A18617   8.808  12.023   7.989
 1191POPC   C4A18618   9.000  12.044   7.579
 1191POPC   C1B18619   8.887  12.462   8.673
 1191POPC   C2B18620   8.981  12.643   8.293
 1191POPC   C3B18621   8.909  12.515   7.936
 1191POPC   C4B18622   8.643  12.384   7.644
 1192POPC   NC318623  26.553   1.736   9.554
 1192POPC   PO418624  27.050   2.112   9.581
 1192POPC   GL118625  26.865   2.169   9.197
 1192POPC   GL218626  26.741   1.864   9.058
 1192POPC   C1A18627  26.869   2.322   8.793
 1192POPC   D2A18628  26.976   2.055   8.444
 1192POPC   C3A18629  26.758   1.994   8.067
 1192POPC   C4A18630  26.887   2.017   7.644
 1192POPC   C1B18631  26.459   2.047   8.741
 1192POPC   C2B18632  26.312   1.980   8.319
 1192POPC   C3B18633  26.362   1.662   7.995
 1192POPC   C4B18634  26.501   1.639   7.566
 1193POPC   NC318635  19.456  18.020   9.488
 1193POPC   PO418636  20.140  18.129   9.494
 1193POPC   GL118637  19.956  18.285   9.069
 1193POPC   GL218638  19.809  18.615   8.994
 1193POPC   C1A18639  19.601  18.212   8.785
 1193POPC   D2A18640  19.515  18.103   8.362
 1193POPC   C3A18641  19.844  18.165   8.024
 1193POPC   C4A18642  19.837  18.061   7.567
 1193POPC   C1B18643  20.126  18.618   8.673
 1193POPC   C2B18644  20.204  18.491   8.277
 1193POPC   C3B18645  20.288  18.654   7.909
 1193POPC   C4B18646  20.106  18.502   7.543
 1194POPC   NC318647  11.892   7.101   9.488
 1194POPC   PO418648  11.879   6.504   9.250
 1194POPC   GL118649  11.828   6.898   9.033
 1194POPC   GL218650  12.181   6.952   9.047
 1194POPC   C1A18651  11.856   7.003   8.619
 1194POPC   D2A18652  11.860   6.662   8.341
 1194POPC   C3A18653  11.945   6.776   7.930
 1194POPC   C4A18654  12.133   6.806   7.547
 1194POPC   C1B18655  12.338   6.742   8.660
 1194POPC   C2B18656  12.353   6.717   8.213
 1194POPC   C3B18657  12.330   6.440   7.860
 1194POPC   C4B18658  12.521   6.495   7.464
 1195POPC   NC318659  26.348  41.186   9.404
 1195POPC   PO418660  26.127  41.762   9.509
 1195POPC   GL118661  26.086  41.577   9.162
 1195POPC   GL218662  26.431  41.579   9.104
 1195POPC   C1A18663  25.947  41.724   8.781
 1195POPC   D2A18664  25.842  41.485   8.431
 1195POPC   C3A18665  25.648  41.683   8.091
 1195POPC   C4A18666  25.752  41.612   7.672
 1195POPC   C1B18667  26.479  41.835   8.780
 1195POPC   C2B18668  26.330  41.674   8.432
 1195POPC   C3B18669  26.383  41.644   8.038
 1195POPC   C4B18670  26.249  41.588   7.667
 1196POPC   NC318671   4.243  37.302   9.327
 1196POPC   PO418672   4.214  37.947   9.517
 1196POPC   GL118673   4.224  37.763   9.111
 1196POPC   GL218674   3.889  37.619   9.124
 1196POPC   C1A18675   4.535  37.594   8.812
 1196POPC   D2A18676   4.742  37.646   8.415
 1196POPC   C3A18677   4.519  37.768   8.042
 1196POPC   C4A18678   4.802  38.082   7.882
 1196POPC   C1B18679   4.008  37.471   8.736
 1196POPC   C2B18680   4.249  37.476   8.396
 1196POPC   C3B18681   4.216  37.303   8.020
 1196POPC   C4B18682   3.992  37.397   7.688
 1197POPC   NC318683   3.587   3.468   9.650
 1197POPC   PO418684   4.114   3.763   9.356
 1197POPC   GL118685   3.667   3.697   9.179
 1197POPC   GL218686   3.535   3.345   9.155
 1197POPC   C1A18687   3.626   3.635   8.710
 1197POPC   D2A18688   3.474   3.842   8.320
 1197POPC   C3A18689   3.464   3.730   7.874
 1197POPC   C4A18690   3.778   3.572   7.614
 1197POPC   C1B18691   3.356   3.161   8.779
 1197POPC   C2B18692   3.368   3.325   8.347
 1197POPC   C3B18693   3.412   3.215   7.911
 1197POPC   C4B18694   3.181   3.273   7.534
 1198POPC   NC318695  28.084  27.054   9.603
 1198POPC   PO418696  28.544  26.608   9.659
 1198POPC   GL118697  28.477  26.862   9.295
 1198POPC   GL218698  28.717  27.110   9.176
 1198POPC   C1A18699  28.305  26.778   8.892
 1198POPC   D2A18700  28.216  26.929   8.443
 1198POPC   C3A18701  28.114  26.618   8.141
 1198POPC   C4A18702  28.169  26.517   7.706
 1198POPC   C1B18703  28.613  27.141   8.727
 1198POPC   C2B18704  28.706  27.025   8.296
 1198POPC   C3B18705  28.510  26.889   7.888
 1198POPC   C4B18706  28.448  26.955   7.418
 1199POPC   NC318707  25.729  26.541   9.587
 1199POPC   PO418708  26.327  26.926   9.489
 1199POPC   GL118709  26.013  27.042   9.155
 1199POPC   GL218710  25.837  26.715   9.052
 1199POPC   C1A18711  25.897  27.066   8.700
 1199POPC   D2A18712  26.002  26.827   8.342
 1199POPC   C3A18713  25.915  26.946   7.932
 1199POPC   C4A18714  26.005  26.789   7.572
 1199POPC   C1B18715  25.586  26.647   8.641
 1199POPC   C2B18716  25.608  26.572   8.170
 1199POPC   C3B18717  25.814  26.372   7.801
 1199POPC   C4B18718  25.789  26.441   7.304
 1200POPC   NC318719  10.958  39.471   9.291
 1200POPC   PO418720  10.428  38.924   9.471
 1200POPC   GL118721  10.458  39.132   9.061
 1200POPC   GL218722  10.782  39.143   8.940
 1200POPC   C1A18723  10.307  38.989   8.604
 1200POPC   D2A18724  10.150  38.862   8.179
 1200POPC   C3A18725  10.531  38.930   7.978
 1200POPC   C4A18726  10.616  39.252   7.696
 1200POPC   C1B18727  10.574  39.437   8.635
 1200POPC   C2B18728  10.565  39.466   8.167
 1200POPC   C3B18729  10.548  39.734   7.794
 1200POPC   C4B18730  10.912  39.766   7.536
 1201POPC   NC318731  30.497  22.490   9.425
 1201POPC   PO418732  30.919  22.018   9.600
 1201POPC   GL118733  31.036  22.086   9.148
 1201POPC   GL218734  30.907  22.379   9.068
 1201POPC   C1A18735  31.007  22.005   8.680
 1201POPC   D2A18736  30.957  22.332   8.312
 1201POPC   C3A18737  30.887  22.237   7.843
 1201POPC   C4A18738  31.145  22.016   7.527
 1201POPC   C1B18739  30.563  22.157   8.861
 1201POPC   C2B18740  30.480  22.121   8.414
 1201POPC   C3B18741  30.380  22.230   7.981
 1201POPC   C4B18742  30.455  22.104   7.526
 1202POPC   NC318743   2.871  33.116   9.771
 1202POPC   PO418744   2.601  32.619   9.443
 1202POPC   GL118745   2.648  32.783   9.106
 1202POPC   GL218746   2.822  33.053   9.191
 1202POPC   C1A18747   2.748  32.767   8.719
 1202POPC   D2A18748   2.618  33.002   8.389
 1202POPC   C3A18749   2.819  32.750   8.109
 1202POPC   C4A18750   2.826  32.955   7.736
 1202POPC   C1B18751   2.800  33.290   8.812
 1202POPC   C2B18752   2.881  33.489   8.386
 1202POPC   C3B18753   2.756  33.426   7.932
 1202POPC   C4B18754   2.790  33.379   7.432
 1203POPC   NC318755  24.643  13.381   9.433
 1203POPC   PO418756  24.022  13.727   9.520
 1203POPC   GL118757  24.212  13.502   9.204
 1203POPC   GL218758  24.426  13.757   9.119
 1203POPC   C1A18759  24.151  13.455   8.789
 1203POPC   D2A18760  24.019  13.685   8.452
 1203POPC   C3A18761  24.179  13.522   8.073
 1203POPC   C4A18762  24.508  13.523   7.765
 1203POPC   C1B18763  24.592  13.662   8.675
 1203POPC   C2B18764  24.643  13.733   8.217
 1203POPC   C3B18765  24.816  13.912   7.811
 1203POPC   C4B18766  24.696  13.947   7.356
 1204POPC   NC318767  19.613  43.838   9.454
 1204POPC   PO418768  20.021  44.322   9.299
 1204POPC   GL118769  19.765  44.052   9.029
 1204POPC   GL218770  19.880  43.698   9.015
 1204POPC   C1A18771  19.647  43.964   8.634
 1204POPC   D2A18772  19.937  43.793   8.374
 1204POPC   C3A18773  20.001  44.051   8.047
 1204POPC   C4A18774  20.169  43.829   7.724
 1204POPC   C1B18775  19.691  43.435   8.674
 1204POPC   C2B18776  19.470  43.590   8.318
 1204POPC   C3B18777  19.532  43.861   7.983
 1204POPC   C4B18778  19.651  43.667   7.636
 1205POPC   NC318779   4.018  34.675   9.507
 1205POPC   PO418780   4.571  34.327   9.571
 1205POPC   GL118781   4.401  34.546   9.186
 1205POPC   GL218782   4.674  34.728   9.049
 1205POPC   C1A18783   4.023  34.615   8.866
 1205POPC   D2A18784   3.942  34.399   8.484
 1205POPC   C3A18785   4.143  34.597   8.144
 1205POPC   C4A18786   4.117  34.444   7.726
 1205POPC   C1B18787   4.494  34.554   8.665
 1205POPC   C2B18788   4.571  34.251   8.336
 1205POPC   C3B18789   4.636  34.338   7.894
 1205POPC   C4B18790   4.536  34.773   7.832
 1206POPC   NC318791   5.333  35.352   9.399
 1206POPC   PO418792   4.687  35.077   9.467
 1206POPC   GL118793   4.969  35.154   9.124
 1206POPC   GL218794   5.351  35.112   8.969
 1206POPC   C1A18795   4.983  35.446   8.783
 1206POPC   D2A18796   4.936  35.304   8.367
 1206POPC   C3A18797   4.906  35.543   7.988
 1206POPC   C4A18798   4.908  35.490   7.544
 1206POPC   C1B18799   5.529  35.441   8.751
 1206POPC   C2B18800   5.386  35.556   8.398
 1206POPC   C3B18801   5.347  35.271   8.067
 1206POPC   C4B18802   5.383  35.513   7.730
 1207POPC   NC318803  38.064  12.860   9.445
 1207POPC   PO418804  37.385  12.995   9.510
 1207POPC   GL118805  37.651  12.888   9.132
 1207POPC   GL218806  37.943  12.651   9.010
 1207POPC   C1A18807  37.774  13.020   8.725
 1207POPC   D2A18808  37.551  12.875   8.355
 1207POPC   C3A18809  37.423  13.048   7.990
 1207POPC   C4A18810  37.691  13.225   7.771
 1207POPC   C1B18811  37.692  12.502   8.733
 1207POPC   C2B18812  37.666  12.380   8.333
 1207POPC   C3B18813  37.739  12.592   7.950
 1207POPC   C4B18814  37.571  12.320   7.715
 1208POPC   NC318815   1.036  18.979   9.479
 1208POPC   PO418816   1.689  18.738   9.368
 1208POPC   GL118817   1.400  18.963   9.096
 1208POPC   GL218818   1.079  18.780   9.019
 1208POPC   C1A18819   1.238  19.088   8.670
 1208POPC   D2A18820   0.927  18.941   8.398
 1208POPC   C3A18821   0.974  19.166   8.008
 1208POPC   C4A18822   1.280  19.166   7.676
 1208POPC   C1B18823   0.684  18.691   8.816
 1208POPC   C2B18824   0.594  18.526   8.399
 1208POPC   C3B18825   0.667  18.705   8.005
 1208POPC   C4B18826   1.072  18.720   7.750
 1209POPC   NC318827  37.426  35.632   9.507
 1209POPC   PO418828  37.871  35.244   9.771
 1209POPC   GL118829  37.843  35.383   9.311
 1209POPC   GL218830  37.520  35.310   9.141
 1209POPC   C1A18831  37.891  35.429   8.841
 1209POPC   D2A18832  37.877  35.691   8.483
 1209POPC   C3A18833  38.063  35.453   8.148
 1209POPC   C4A18834  37.838  35.310   7.795
 1209POPC   C1B18835  37.463  35.213   8.725
 1209POPC   C2B18836  37.638  35.256   8.388
 1209POPC   C3B18837  37.427  35.145   8.069
 1209POPC   C4B18838  37.342  35.013   7.699
 1210POPC   NC318839  13.402   2.296   9.662
 1210POPC   PO418840  13.317   1.775   9.492
 1210POPC   GL118841  13.397   2.138   9.162
 1210POPC   GL218842  13.238   2.472   9.188
 1210POPC   C1A18843  13.569   2.247   8.725
 1210POPC   D2A18844  13.540   2.135   8.272
 1210POPC   C3A18845  13.730   2.408   7.925
 1210POPC   C4A18846  13.957   2.497   7.537
 1210POPC   C1B18847  13.072   2.336   8.767
 1210POPC   C2B18848  13.022   2.451   8.325
 1210POPC   C3B18849  13.224   2.353   7.915
 1210POPC   C4B18850  13.448   1.970   7.786
 1211POPC   NC318851  30.201  34.116   9.373
 1211POPC   PO418852  29.733  33.583   9.484
 1211POPC   GL118853  29.981  33.693   9.132
 1211POPC   GL218854  30.355  33.661   9.140
 1211POPC   C1A18855  30.054  33.899   8.734
 1211POPC   D2A18856  30.100  33.720   8.344
 1211POPC   C3A18857  30.059  33.923   7.944
 1211POPC   C4A18858  29.686  33.873   7.718
 1211POPC   C1B18859  30.229  33.401   8.781
 1211POPC   C2B18860  30.399  33.272   8.387
 1211POPC   C3B18861  30.344  33.470   7.989
 1211POPC   C4B18862  29.931  33.420   7.799
 1212POPC   NC318863  16.709  38.297   9.620
 1212POPC   PO418864  17.267  38.192   9.291
 1212POPC   GL118865  16.894  38.354   9.117
 1212POPC   GL218866  16.630  38.573   9.208
 1212POPC   C1A18867  16.782  38.284   8.713
 1212POPC   D2A18868  16.995  38.224   8.363
 1212POPC   C3A18869  16.721  38.284   8.044
 1212POPC   C4A18870  16.590  38.218   7.665
 1212POPC   C1B18871  16.565  38.715   8.814
 1212POPC   C2B18872  16.798  38.709   8.396
 1212POPC   C3B18873  16.982  38.708   7.986
 1212POPC   C4B18874  16.631  38.720   7.737
 1213POPC   NC318875  10.814  39.114   9.641
 1213POPC   PO418876  11.408  39.368   9.404
 1213POPC   GL118877  11.300  39.181   9.055
 1213POPC   GL218878  11.317  38.862   9.143
 1213POPC   C1A18879  11.212  39.215   8.632
 1213POPC   D2A18880  11.301  39.490   8.283
 1213POPC   C3A18881  11.049  39.422   7.914
 1213POPC   C4A18882  11.216  39.342   7.510
 1213POPC   C1B18883  11.636  38.913   8.785
 1213POPC   C2B18884  11.636  39.084   8.365
 1213POPC   C3B18885  11.465  39.107   7.949
 1213POPC   C4B18886  11.666  39.045   7.567
 1214POPC   NC318887  28.561  35.709   9.277
 1214POPC   PO418888  28.513  36.331   9.573
 1214POPC   GL118889  28.363  36.253   9.172
 1214POPC   GL218890  28.133  35.999   9.282
 1214POPC   C1A18891  28.522  36.125   8.768
 1214POPC   D2A18892  28.377  36.249   8.413
 1214POPC   C3A18893  28.531  36.015   8.080
 1214POPC   C4A18894  28.473  36.272   7.761
 1214POPC   C1B18895  28.033  35.981   8.831
 1214POPC   C2B18896  27.859  36.116   8.427
 1214POPC   C3B18897  28.040  36.144   8.048
 1214POPC   C4B18898  28.127  35.905   7.709
 1215POPC   NC318899  35.065  19.425   9.308
 1215POPC   PO418900  35.521  18.949   9.447
 1215POPC   GL118901  35.290  18.995   9.081
 1215POPC   GL218902  35.463  19.273   8.999
 1215POPC   C1A18903  35.221  18.993   8.622
 1215POPC   D2A18904  34.928  18.804   8.308
 1215POPC   C3A18905  35.044  18.872   7.898
 1215POPC   C4A18906  35.212  19.288   7.804
 1215POPC   C1B18907  35.756  19.019   8.787
 1215POPC   C2B18908  35.669  18.784   8.439
 1215POPC   C3B18909  35.500  19.019   8.140
 1215POPC   C4B18910  35.743  19.232   7.839
 1216POPC   NC318911  25.682  11.505   9.315
 1216POPC   PO418912  25.018  11.189   9.308
 1216POPC   GL118913  25.340  11.264   9.034
 1216POPC   GL218914  25.281  11.611   9.018
 1216POPC   C1A18915  25.451  11.035   8.702
 1216POPC   D2A18916  25.311  10.909   8.303
 1216POPC   C3A18917  25.390  11.128   7.978
 1216POPC   C4A18918  25.120  10.897   7.743
 1216POPC   C1B18919  25.025  11.463   8.692
 1216POPC   C2B18920  25.261  11.407   8.376
 1216POPC   C3B18921  25.168  11.627   8.050
 1216POPC   C4B18922  25.108  11.892   7.683
 1217POPC   NC318923   9.263  11.128   9.348
 1217POPC   PO418924   8.897  11.148   9.937
 1217POPC   GL118925   8.812  11.392   9.399
 1217POPC   GL218926   8.916  11.628   9.106
 1217POPC   C1A18927   8.749  11.233   8.868
 1217POPC   D2A18928   8.640  11.260   8.433
 1217POPC   C3A18929   8.923  11.090   8.118
 1217POPC   C4A18930   8.989  11.097   7.659
 1217POPC   C1B18931   9.148  11.514   8.726
 1217POPC   C2B18932   9.008  11.604   8.291
 1217POPC   C3B18933   8.796  11.527   7.886
 1217POPC   C4B18934   8.798  11.539   7.433
 1218POPC   NC318935  17.736  32.918   9.511
 1218POPC   PO418936  17.274  33.306   9.562
 1218POPC   GL118937  17.357  33.123   9.165
 1218POPC   GL218938  17.410  33.434   9.041
 1218POPC   C1A18939  17.275  32.929   8.730
 1218POPC   D2A18940  17.117  32.767   8.312
 1218POPC   C3A18941  17.474  32.788   8.002
 1218POPC   C4A18942  17.773  33.000   7.713
 1218POPC   C1B18943  17.243  33.475   8.649
 1218POPC   C2B18944  17.374  33.370   8.229
 1218POPC   C3B18945  17.346  33.267   7.805
 1218POPC   C4B18946  17.470  33.329   7.366
 1219POPC   NC318947  38.220  44.955   9.908
 1219POPC   PO418948  38.755  44.498   9.692
 1219POPC   GL118949  38.535  44.606   9.286
 1219POPC   GL218950  38.803  44.551   9.133
 1219POPC   C1A18951  38.429  44.544   8.789
 1219POPC   D2A18952  38.233  44.760   8.426
 1219POPC   C3A18953  38.285  44.723   7.957
 1219POPC   C4A18954  38.216   0.042   7.632
 1219POPC   C1B18955  38.827  44.859   8.756
 1219POPC   C2B18956  39.009  44.998   8.348
 1219POPC   C3B18957  38.871  44.875   7.910
 1219POPC   C4B18958  38.649  44.754   7.527
 1220POPC   NC318959  18.049  41.110   9.629
 1220POPC   PO418960  18.476  40.514   9.609
 1220POPC   GL118961  18.255  40.550   9.187
 1220POPC   GL218962  18.206  40.889   9.146
 1220POPC   C1A18963  18.339  40.578   8.756
 1220POPC   D2A18964  18.113  40.681   8.402
 1220POPC   C3A18965  18.344  40.675   8.047
 1220POPC   C4A18966  18.228  40.649   7.639
 1220POPC   C1B18967  18.212  41.110   8.696
 1220POPC   C2B18968  18.217  41.148   8.237
 1220POPC   C3B18969  18.027  41.067   7.856
 1220POPC   C4B18970  18.041  41.089   7.424
 1221POPC   NC318971   7.906  30.283   9.534
 1221POPC   PO418972   8.478  30.636   9.389
 1221POPC   GL118973   8.317  30.703   9.059
 1221POPC   GL218974   8.005  30.594   9.140
 1221POPC   C1A18975   8.325  30.848   8.686
 1221POPC   D2A18976   8.418  30.575   8.373
 1221POPC   C3A18977   8.199  30.787   8.104
 1221POPC   C4A18978   8.130  31.069   7.810
 1221POPC   C1B18979   8.009  30.448   8.711
 1221POPC   C2B18980   7.981  30.273   8.306
 1221POPC   C3B18981   8.232  30.302   7.967
 1221POPC   C4B18982   8.153  30.589   7.632
 1222POPC   NC318983  41.098  39.554   9.369
 1222POPC   PO418984  40.943  40.200   9.650
 1222POPC   GL118985  40.914  40.225   9.201
 1222POPC   GL218986  40.564  40.311   9.186
 1222POPC   C1A18987  40.966  40.004   8.788
 1222POPC   D2A18988  40.960  39.731   8.408
 1222POPC   C3A18989  41.041  39.944   8.034
 1222POPC   C4A18990  40.713  40.036   7.737
 1222POPC   C1B18991  40.643  40.414   8.765
 1222POPC   C2B18992  40.663  40.175   8.386
 1222POPC   C3B18993  40.382  40.251   8.089
 1222POPC   C4B18994  40.396  40.567   7.794
 1223POPC   NC318995  20.218  29.636   9.465
 1223POPC   PO418996  19.608  29.955   9.443
 1223POPC   GL118997  19.850  29.926   9.099
 1223POPC   GL218998  20.187  30.078   9.125
 1223POPC   C1A18999  19.720  29.881   8.672
 1223POPC   D2A19000  19.857  29.560   8.374
 1223POPC   C3A19001  19.714  29.682   7.974
 1223POPC   C4A19002  19.501  30.097   7.864
 1223POPC   C1B19003  20.211  29.766   8.777
 1223POPC   C2B19004  20.364  29.615   8.391
 1223POPC   C3B19005  20.347  29.683   7.963
 1223POPC   C4B19006  20.102  29.588   7.605
 1224POPC   NC319007  15.890  10.867   9.787
 1224POPC   PO419008  16.204  10.385   9.393
 1224POPC   GL119009  16.165  10.594   9.015
 1224POPC   GL219010  15.917  10.323   8.980
 1224POPC   C1A19011  15.862  10.677   8.637
 1224POPC   D2A19012  15.781  10.905   8.292
 1224POPC   C3A19013  16.133  10.868   8.113
 1224POPC   C4A19014  16.205  10.598   7.801
 1224POPC   C1B19015  16.162  10.268   8.612
 1224POPC   C2B19016  15.991  10.365   8.195
 1224POPC   C3B19017  16.134  10.105   7.816
 1224POPC   C4B19018  16.211  10.243   7.376
 1225POPC   NC319019  43.543  30.722   9.462
 1225POPC   PO419020  44.045  30.235   9.397
 1225POPC   GL119021  43.855  30.462   9.090
 1225POPC   GL219022  43.522  30.431   9.064
 1225POPC   C1A19023  43.896  30.613   8.677
 1225POPC   D2A19024  44.114  30.520   8.298
 1225POPC   C3A19025  43.968  30.691   7.933
 1225POPC   C4A19026  44.050  31.118   7.852
 1225POPC   C1B19027  43.444  30.325   8.685
 1225POPC   C2B19028  43.588  30.437   8.262
 1225POPC   C3B19029  43.588  30.340   7.819
 1225POPC   C4B19030  43.684  30.337   7.347
 1226POPC   NC319031  14.865   3.332   9.589
 1226POPC   PO419032  15.429   3.572   9.517
 1226POPC   GL119033  15.134   3.574   9.169
 1226POPC   GL219034  14.871   3.814   9.241
 1226POPC   C1A19035  15.313   3.507   8.745
 1226POPC   D2A19036  15.657   3.437   8.421
 1226POPC   C3A19037  15.519   3.545   8.007
 1226POPC   C4A19038  15.331   3.294   7.659
 1226POPC   C1B19039  15.042   3.975   8.808
 1226POPC   C2B19040  15.174   3.828   8.356
 1226POPC   C3B19041  14.991   3.709   7.916
 1226POPC   C4B19042  14.951   3.618   7.468
 1227POPC   NC319043  39.631  27.375   9.492
 1227POPC   PO419044  40.334  27.709   9.419
 1227POPC   GL119045  40.105  27.420   9.200
 1227POPC   GL219046  39.856  27.685   9.161
 1227POPC   C1A19047  39.916  27.296   8.811
 1227POPC   D2A19048  39.942  27.446   8.395
 1227POPC   C3A19049  40.233  27.604   8.078
 1227POPC   C4A19050  40.054  27.442   7.689
 1227POPC   C1B19051  40.091  27.788   8.789
 1227POPC   C2B19052  39.930  27.955   8.431
 1227POPC   C3B19053  39.828  27.888   8.025
 1227POPC   C4B19054  40.018  27.954   7.618
 1228POPC   NC319055  35.344  38.616  10.070
 1228POPC   PO419056  35.083  38.256   9.536
 1228POPC   GL119057  35.272  38.427   9.167
 1228POPC   GL219058  35.620  38.416   9.110
 1228POPC   C1A19059  35.274  38.693   8.832
 1228POPC   D2A19060  35.532  38.602   8.539
 1228POPC   C3A19061  35.420  38.611   8.138
 1228POPC   C4A19062  35.694  38.527   7.774
 1228POPC   C1B19063  35.427  38.157   8.774
 1228POPC   C2B19064  35.281  38.146   8.395
 1228POPC   C3B19065  35.416  38.098   8.025
 1228POPC   C4B19066  35.328  38.183   7.651
 1229POPC   NC319067  18.820   7.943   9.334
 1229POPC   PO419068  19.252   7.402   9.491
 1229POPC   GL119069  19.208   7.602   9.124
 1229POPC   GL219070  18.878   7.496   9.090
 1229POPC   C1A19071  19.363   7.555   8.701
 1229POPC   D2A19072  19.108   7.427   8.341
 1229POPC   C3A19073  19.224   7.394   7.944
 1229POPC   C4A19074  19.159   7.166   7.571
 1229POPC   C1B19075  18.880   7.702   8.704
 1229POPC   C2B19076  18.624   7.605   8.346
 1229POPC   C3B19077  18.714   7.645   7.914
 1229POPC   C4B19078  18.692   7.388   7.557
 1230POPC   NC319079  30.542  24.720   9.453
 1230POPC   PO419080  30.843  25.352   9.496
 1230POPC   GL119081  30.580  25.169   9.211
 1230POPC   GL219082  30.857  25.017   9.102
 1230POPC   C1A19083  30.484  25.160   8.774
 1230POPC   D2A19084  30.524  25.332   8.332
 1230POPC   C3A19085  30.395  25.135   7.986
 1230POPC   C4A19086  30.576  25.034   7.632
 1230POPC   C1B19087  30.972  25.258   8.726
 1230POPC   C2B19088  30.973  25.058   8.317
 1230POPC   C3B19089  30.926  25.211   7.950
 1230POPC   C4B19090  31.062  25.352   7.542
 1231POPC   NC319091  43.651  37.830   9.633
 1231POPC   PO419092  44.058  37.228   9.650
 1231POPC   GL119093  43.738  37.437   9.284
 1231POPC   GL219094  43.816  37.765   9.141
 1231POPC   C1A19095  43.707  37.409   8.773
 1231POPC   D2A19096  43.574  37.294   8.326
 1231POPC   C3A19097  43.887  37.366   7.989
 1231POPC   C4A19098  43.956  37.651   7.589
 1231POPC   C1B19099  43.802  37.905   8.735
 1231POPC   C2B19100  43.904  37.772   8.341
 1231POPC   C3B19101  43.683  37.812   7.982
 1231POPC   C4B19102  43.584  37.994   7.631
 1232POPC   NC319103   2.539  35.419   9.618
 1232POPC   PO419104   3.069  35.579   9.367
 1232POPC   GL119105   2.810  35.421   9.066
 1232POPC   GL219106   2.513  35.279   9.139
 1232POPC   C1A19107   2.872  35.145   8.707
 1232POPC   D2A19108   3.061  35.358   8.335
 1232POPC   C3A19109   2.853  35.498   7.946
 1232POPC   C4A19110   2.756  35.550   7.518
 1232POPC   C1B19111   2.321  35.108   8.787
 1232POPC   C2B19112   2.398  34.959   8.351
 1232POPC   C3B19113   2.482  35.114   7.919
 1232POPC   C4B19114   2.407  35.178   7.454
 1233POPC   NC319115  39.566  24.195   9.383
 1233POPC   PO419116  39.284  24.867   9.464
 1233POPC   GL119117  39.382  24.638   9.131
 1233POPC   GL219118  39.186  24.326   9.072
 1233POPC   C1A19119  39.303  24.756   8.727
 1233POPC   D2A19120  39.309  24.549   8.367
 1233POPC   C3A19121  39.361  24.749   8.035
 1233POPC   C4A19122  39.350  24.688   7.665
 1233POPC   C1B19123  39.541  24.293   8.755
 1233POPC   C2B19124  39.586  24.091   8.366
 1233POPC   C3B19125  39.603  24.270   7.955
 1233POPC   C4B19126  39.508  24.245   7.515
 1234POPC   NC319127  24.678  32.574  10.044
 1234POPC   PO419128  25.237  32.365   9.694
 1234POPC   GL119129  25.048  32.381   9.281
 1234POPC   GL219130  25.377  32.468   9.182
 1234POPC   C1A19131  25.039  32.208   8.847
 1234POPC   D2A19132  25.172  32.309   8.427
 1234POPC   C3A19133  25.027  32.208   7.994
 1234POPC   C4A19134  25.314  32.167   7.640
 1234POPC   C1B19135  25.495  32.713   8.855
 1234POPC   C2B19136  25.598  32.631   8.449
 1234POPC   C3B19137  25.464  32.514   8.059
 1234POPC   C4B19138  25.538  32.684   7.687
 1235POPC   NC319139  34.976  41.381   9.376
 1235POPC   PO419140  34.271  41.428   9.352
 1235POPC   GL119141  34.542  41.447   9.030
 1235POPC   GL219142  34.650  41.761   9.116
 1235POPC   C1A19143  34.524  41.405   8.589
 1235POPC   D2A19144  34.615  41.434   8.160
 1235POPC   C3A19145  34.323  41.492   7.880
 1235POPC   C4A19146  34.100  41.819   7.689
 1235POPC   C1B19147  34.858  41.778   8.735
 1235POPC   C2B19148  34.752  41.925   8.294
 1235POPC   C3B19149  34.693  41.899   7.812
 1235POPC   C4B19150  34.968  41.858   7.406
 1236POPC   NC319151   7.275  29.508   9.503
 1236POPC   PO419152   7.787  29.195   9.493
 1236POPC   GL119153   7.416  29.095   9.199
 1236POPC   GL219154   7.275  28.755   9.164
 1236POPC   C1A19155   7.225  29.100   8.772
 1236POPC   D2A19156   7.155  29.265   8.349
 1236POPC   C3A19157   7.420  29.413   8.010
 1236POPC   C4A19158   7.347  29.218   7.634
 1236POPC   C1B19159   7.579  28.716   8.809
 1236POPC   C2B19160   7.444  28.830   8.375
 1236POPC   C3B19161   7.618  28.948   7.983
 1236POPC   C4B19162   7.776  28.879   7.538
 1237POPC   NC319163  16.609  18.598   9.553
 1237POPC   PO419164  17.069  18.904   9.377
 1237POPC   GL119165  16.701  19.089   9.171
 1237POPC   GL219166  16.458  18.805   9.102
 1237POPC   C1A19167  16.823  19.315   8.776
 1237POPC   D2A19168  16.755  19.121   8.366
 1237POPC   C3A19169  16.584  19.288   7.997
 1237POPC   C4A19170  16.974  19.253   7.788
 1237POPC   C1B19171  16.800  18.790   8.777
 1237POPC   C2B19172  17.024  18.681   8.400
 1237POPC   C3B19173  16.898  18.761   7.991
 1237POPC   C4B19174  16.885  18.613   7.585
 1238POPC   NC319175  21.994  37.490   9.820
 1238POPC   PO419176  22.589  37.335   9.540
 1238POPC   GL119177  22.307  37.689   9.429
 1238POPC   GL219178  22.457  37.969   9.300
 1238POPC   C1A19179  22.036  37.792   9.059
 1238POPC   D2A19180  22.034  37.914   8.593
 1238POPC   C3A19181  22.244  37.640   8.299
 1238POPC   C4A19182  22.170  37.570   7.851
 1238POPC   C1B19183  22.485  37.806   8.815
 1238POPC   C2B19184  22.606  38.008   8.435
 1238POPC   C3B19185  22.608  37.882   8.008
 1238POPC   C4B19186  22.617  37.689   7.626
 1239POPC   NC319187  38.035  40.512   9.416
 1239POPC   PO419188  38.505  40.809   9.795
 1239POPC   GL119189  38.403  40.828   9.259
 1239POPC   GL219190  38.662  40.694   9.010
 1239POPC   C1A19191  38.258  40.939   8.816
 1239POPC   D2A19192  38.248  41.019   8.347
 1239POPC   C3A19193  38.638  40.993   8.119
 1239POPC   C4A19194  38.766  40.704   7.790
 1239POPC   C1B19195  38.785  40.346   8.703
 1239POPC   C2B19196  38.714  40.469   8.281
 1239POPC   C3B19197  38.350  40.532   8.038
 1239POPC   C4B19198  38.220  40.247   7.738
 1240POPC   NC319199  44.879  11.837   9.534
 1240POPC   PO419200  44.580  12.331   9.708
 1240POPC   GL119201  44.526  12.168   9.300
 1240POPC   GL219202  44.745  12.456   9.206
 1240POPC   C1A19203  44.710  12.045   8.884
 1240POPC   D2A19204  44.674  12.246   8.490
 1240POPC   C3A19205  44.639  12.011   8.101
 1240POPC   C4A19206  44.273  12.019   7.826
 1240POPC   C1B19207  44.858  12.647   8.787
 1240POPC   C2B19208   0.042  12.572   8.362
 1240POPC   C3B19209  44.988  12.405   7.934
 1240POPC   C4B19210  44.707  12.213   7.636
 1241POPC   NC319211  33.104  11.719   9.757
 1241POPC   PO419212  32.909  11.069   9.614
 1241POPC   GL119213  33.157  11.222   9.262
 1241POPC   GL219214  33.178  11.581   9.202
 1241POPC   C1A19215  33.296  11.104   8.828
 1241POPC   D2A19216  33.064  11.061   8.415
 1241POPC   C3A19217  33.231  11.035   7.983
 1241POPC   C4A19218  32.959  11.010   7.593
 1241POPC   C1B19219  33.161  11.592   8.697
 1241POPC   C2B19220  33.145  11.636   8.195
 1241POPC   C3B19221  33.241  11.514   7.757
 1241POPC   C4B19222  33.318  11.582   7.274
 1242POPC   NC319223  38.807  32.237   9.588
 1242POPC   PO419224  38.201  31.953   9.394
 1242POPC   GL119225  38.483  32.108   9.052
 1242POPC   GL219226  38.826  32.041   9.104
 1242POPC   C1A19227  38.495  32.276   8.617
 1242POPC   D2A19228  38.533  32.423   8.212
 1242POPC   C3A19229  38.229  32.317   7.892
 1242POPC   C4A19230  38.302  32.245   7.473
 1242POPC   C1B19231  38.951  32.044   8.657
 1242POPC   C2B19232  38.769  31.977   8.259
 1242POPC   C3B19233  38.670  32.063   7.869
 1242POPC   C4B19234  38.766  32.018   7.455
 1243POPC   NC319235  23.734  19.996   9.478
 1243POPC   PO419236  23.905  19.397   9.257
 1243POPC   GL119237  23.896  19.745   9.068
 1243POPC   GL219238  23.542  19.725   9.071
 1243POPC   C1A19239  23.769  20.014   8.747
 1243POPC   D2A19240  23.860  19.751   8.417
 1243POPC   C3A19241  23.816  19.968   8.068
 1243POPC   C4A19242  23.966  19.911   7.679
 1243POPC   C1B19243  23.346  19.568   8.692
 1243POPC   C2B19244  23.412  19.557   8.245
 1243POPC   C3B19245  23.591  19.548   7.849
 1243POPC   C4B19246  23.303  19.608   7.537
 1244POPC   NC319247  13.165  35.691   9.263
 1244POPC   PO419248  12.603  35.302   9.525
 1244POPC   GL119249  12.552  35.334   9.063
 1244POPC   GL219250  12.890  35.372   8.871
 1244POPC   C1A19251  12.460  35.392   8.600
 1244POPC   D2A19252  12.785  35.270   8.284
 1244POPC   C3A19253  12.691  35.288   7.847
 1244POPC   C4A19254  12.610  35.545   7.479
 1244POPC   C1B19255  13.277  35.179   8.660
 1244POPC   C2B19256  13.441  35.128   8.228
 1244POPC   C3B19257  13.346  35.381   7.873
 1244POPC   C4B19258  13.045  35.679   7.715
 1245POPC   NC319259  14.530  28.079   9.531
 1245POPC   PO419260  14.034  28.554   9.548
 1245POPC   GL119261  14.253  28.365   9.196
 1245POPC   GL219262  14.381  28.069   9.062
 1245POPC   C1A19263  14.446  28.551   8.829
 1245POPC   D2A19264  14.238  28.556   8.427
 1245POPC   C3A19265  14.418  28.557   8.070
 1245POPC   C4A19266  14.505  28.618   7.664
 1245POPC   C1B19267  14.360  28.089   8.657
 1245POPC   C2B19268  14.443  28.092   8.291
 1245POPC   C3B19269  14.283  28.069   7.936
 1245POPC   C4B19270  14.478  28.107   7.553
 1246POPC   NC319271  38.655   7.859   9.448
 1246POPC   PO419272  38.410   8.464   9.297
 1246POPC   GL119273  38.392   8.063   9.053
 1246POPC   GL219274  38.122   7.921   9.012
 1246POPC   C1A19275  38.531   7.995   8.625
 1246POPC   D2A19276  38.514   8.356   8.349
 1246POPC   C3A19277  38.377   8.314   7.945
 1246POPC   C4A19278  38.448   7.985   7.637
 1246POPC   C1B19279  38.054   8.160   8.632
 1246POPC   C2B19280  38.038   8.035   8.170
 1246POPC   C3B19281  37.969   8.108   7.684
 1246POPC   C4B19282  38.133   8.097   7.243
 1247POPC   NC319283  34.733   7.562   9.475
 1247POPC   PO419284  34.521   8.255   9.428
 1247POPC   GL119285  34.834   8.220   9.111
 1247POPC   GL219286  34.524   8.153   8.916
 1247POPC   C1A19287  34.966   8.229   8.693
 1247POPC   D2A19288  34.699   8.105   8.351
 1247POPC   C3A19289  34.831   8.235   7.932
 1247POPC   C4A19290  34.757   8.300   7.470
 1247POPC   C1B19291  34.220   7.890   8.730
 1247POPC   C2B19292  34.263   7.760   8.307
 1247POPC   C3B19293  34.370   8.029   7.949
 1247POPC   C4B19294  34.297   8.076   7.513
 1248POPC   NC319295  27.743   4.655   9.614
 1248POPC   PO419296  27.451   5.196   9.528
 1248POPC   GL119297  27.452   5.273   9.104
 1248POPC   GL219298  27.752   5.511   9.006
 1248POPC   C1A19299  27.375   5.107   8.685
 1248POPC   D2A19300  27.316   4.960   8.258
 1248POPC   C3A19301  27.632   4.973   7.924
 1248POPC   C4A19302  27.552   4.948   7.499
 1248POPC   C1B19303  27.390   5.626   8.759
 1248POPC   C2B19304  27.284   5.573   8.316
 1248POPC   C3B19305  27.453   5.471   7.910
 1248POPC   C4B19306  27.619   5.441   7.489
 1249POPC   NC319307  42.580  31.663   9.461
 1249POPC   PO419308  42.282  31.036   9.347
 1249POPC   GL119309  42.135  31.433   9.121
 1249POPC   GL219310  42.350  31.714   9.033
 1249POPC   C1A19311  42.124  31.469   8.659
 1249POPC   D2A19312  42.461  31.399   8.385
 1249POPC   C3A19313  42.279  31.492   7.995
 1249POPC   C4A19314  41.897  31.397   7.766
 1249POPC   C1B19315  42.728  31.672   8.767
 1249POPC   C2B19316  42.942  31.623   8.355
 1249POPC   C3B19317  42.772  31.660   7.927
 1249POPC   C4B19318  42.678  31.727   7.474
 1250POPC   NC319319  40.730  12.333   9.463
 1250POPC   PO419320  41.162  11.719   9.440
 1250POPC   GL119321  41.010  12.008   9.125
 1250POPC   GL219322  40.649  11.982   9.055
 1250POPC   C1A19323  40.976  12.018   8.669
 1250POPC   D2A19324  40.794  12.006   8.260
 1250POPC   C3A19325  40.993  11.779   7.917
 1250POPC   C4A19326  40.931  11.814   7.459
 1250POPC   C1B19327  40.547  12.334   8.795
 1250POPC   C2B19328  40.380  12.511   8.447
 1250POPC   C3B19329  40.510  12.420   8.034
 1250POPC   C4B19330  40.640  12.099   7.760
 1251POPC   NC319331  30.416  25.609   9.516
 1251POPC   PO419332  30.153  24.967   9.505
 1251POPC   GL119333  30.081  25.197   9.082
 1251POPC   GL219334  30.219  25.546   9.058
 1251POPC   C1A19335  30.044  24.988   8.630
 1251POPC   D2A19336  29.758  24.755   8.376
 1251POPC   C3A19337  29.658  24.810   7.941
 1251POPC   C4A19338  29.890  25.107   7.749
 1251POPC   C1B19339  30.125  25.518   8.636
 1251POPC   C2B19340  30.008  25.371   8.237
 1251POPC   C3B19341  30.118  25.543   7.846
 1251POPC   C4B19342  30.219  25.324   7.443
 1252POPC   NC319343  35.145  13.974   9.467
 1252POPC   PO419344  35.665  14.417   9.477
 1252POPC   GL119345  35.421  14.314   9.155
 1252POPC   GL219346  35.257  14.648   9.094
 1252POPC   C1A19347  35.443  14.152   8.754
 1252POPC   D2A19348  35.384  14.399   8.384
 1252POPC   C3A19349  35.501  14.233   7.966
 1252POPC   C4A19350  35.661  14.289   7.510
 1252POPC   C1B19351  34.991  14.378   8.819
 1252POPC   C2B19352  34.875  14.456   8.395
 1252POPC   C3B19353  35.070  14.555   8.015
 1252POPC   C4B19354  35.104  14.385   7.657
 1253POPC   NC319355  20.735  27.237   9.842
 1253POPC   PO419356  20.617  27.795   9.680
 1253POPC   GL119357  20.400  27.749   9.249
 1253POPC   GL219358  20.602  27.974   9.167
 1253POPC   C1A19359  20.446  27.579   8.791
 1253POPC   D2A19360  20.341  27.543   8.317
 1253POPC   C3A19361  20.431  27.273   7.983
 1253POPC   C4A19362  20.571  27.457   7.632
 1253POPC   C1B19363  20.663  28.056   8.768
 1253POPC   C2B19364  20.756  27.844   8.407
 1253POPC   C3B19365  20.660  27.796   8.004
 1253POPC   C4B19366  20.831  27.949   7.647
 1254POPC   NC319367  41.877  10.280   9.450
 1254POPC   PO419368  41.437  10.762   9.526
 1254POPC   GL119369  41.622  10.711   9.142
 1254POPC   GL219370  41.525  10.390   9.121
 1254POPC   C1A19371  41.480  10.704   8.714
 1254POPC   D2A19372  41.608  10.527   8.363
 1254POPC   C3A19373  41.360  10.536   7.998
 1254POPC   C4A19374  41.193  10.797   7.674
 1254POPC   C1B19375  41.754  10.219   8.770
 1254POPC   C2B19376  41.755  10.043   8.354
 1254POPC   C3B19377  41.571  10.066   7.931
 1254POPC   C4B19378  41.843  10.113   7.586
 1255POPC   NC319379   0.281  43.241   9.479
 1255POPC   PO419380   0.885  43.192   9.169
 1255POPC   GL119381   0.597  43.009   8.949
 1255POPC   GL219382   0.326  43.241   8.962
 1255POPC   C1A19383   0.571  43.053   8.515
 1255POPC   D2A19384   0.364  43.343   8.241
 1255POPC   C3A19385   0.653  43.369   7.906
 1255POPC   C4A19386   0.851  43.003   7.722
 1255POPC   C1B19387   0.067  42.999   8.668
 1255POPC   C2B19388   0.189  42.805   8.280
 1255POPC   C3B19389   0.372  42.897   7.897
 1255POPC   C4B19390   0.152  42.784   7.481
 1256POPC   NC319391  36.583  29.481   9.480
 1256POPC   PO419392  37.125  29.934   9.495
 1256POPC   GL119393  36.896  29.819   9.188
 1256POPC   GL219394  36.580  29.970   9.219
 1256POPC   C1A19395  36.989  29.963   8.802
 1256POPC   D2A19396  37.197  29.905   8.459
 1256POPC   C3A19397  37.034  30.165   8.178
 1256POPC   C4A19398  36.989  29.998   7.768
 1256POPC   C1B19399  36.528  29.762   8.804
 1256POPC   C2B19400  36.663  29.897   8.386
 1256POPC   C3B19401  36.509  29.958   7.958
 1256POPC   C4B19402  36.593  29.809   7.527
 1257POPC   NC319403   4.682  33.202   9.469
 1257POPC   PO419404   5.434  33.238   9.517
 1257POPC   GL119405   5.221  33.018   9.126
 1257POPC   GL219406   4.844  32.958   9.071
 1257POPC   C1A19407   5.110  33.117   8.671
 1257POPC   D2A19408   4.993  32.861   8.320
 1257POPC   C3A19409   5.229  32.923   7.974
 1257POPC   C4A19410   5.284  33.346   7.813
 1257POPC   C1B19411   4.618  32.944   8.667
 1257POPC   C2B19412   4.609  33.210   8.292
 1257POPC   C3B19413   4.754  33.431   7.895
 1257POPC   C4B19414   4.629  33.360   7.443
 1258POPC   NC319415  13.832  10.222   9.675
 1258POPC   PO419416  13.589  10.762   9.605
 1258POPC   GL119417  13.469  10.535   9.234
 1258POPC   GL219418  13.781  10.543   9.103
 1258POPC   C1A19419  13.355  10.501   8.791
 1258POPC   D2A19420  13.600  10.611   8.439
 1258POPC   C3A19421  13.461  10.433   8.067
 1258POPC   C4A19422  13.397  10.616   7.696
 1258POPC   C1B19423  13.880  10.293   8.729
 1258POPC   C2B19424  13.841  10.162   8.264
 1258POPC   C3B19425  13.895  10.300   7.813
 1258POPC   C4B19426  13.959  10.147   7.365
 1259POPC   NC319427  22.643  39.073   9.566
 1259POPC   PO419428  22.512  39.711   9.449
 1259POPC   GL119429  22.706  39.368   9.118
 1259POPC   GL219430  22.712  38.962   9.091
 1259POPC   C1A19431  23.037  39.207   8.776
 1259POPC   D2A19432  23.304  38.936   8.497
 1259POPC   C3A19433  23.280  39.027   8.046
 1259POPC   C4A19434  23.022  39.204   7.704
 1259POPC   C1B19435  22.584  39.037   8.673
 1259POPC   C2B19436  22.816  39.104   8.303
 1259POPC   C3B19437  22.816  38.836   7.959
 1259POPC   C4B19438  22.542  38.911   7.682
 1260POPC   NC319439   2.508  33.996   9.465
 1260POPC   PO419440   2.590  33.464   9.827
 1260POPC   GL119441   2.673  33.526   9.316
 1260POPC   GL219442   2.909  33.797   9.212
 1260POPC   C1A19443   2.540  33.726   8.869
 1260POPC   D2A19444   2.483  34.080   8.576
 1260POPC   C3A19445   2.619  33.945   8.168
 1260POPC   C4A19446   2.680  33.898   7.736
 1260POPC   C1B19447   2.939  34.072   8.838
 1260POPC   C2B19448   3.063  34.045   8.413
 1260POPC   C3B19449   3.061  34.272   8.024
 1260POPC   C4B19450   3.125  34.141   7.634
 1261POPC   NC319451  36.437  39.204   9.763
 1261POPC   PO419452  37.071  39.455   9.571
 1261POPC   GL119453  36.865  39.201   9.234
 1261POPC   GL219454  37.195  39.082   9.104
 1261POPC   C1A19455  36.770  39.201   8.780
 1261POPC   D2A19456  36.916  39.419   8.409
 1261POPC   C3A19457  36.738  39.448   7.991
 1261POPC   C4A19458  36.605  39.082   7.801
 1261POPC   C1B19459  37.304  39.415   8.821
 1261POPC   C2B19460  37.343  39.705   8.459
 1261POPC   C3B19461  37.266  39.538   8.036
 1261POPC   C4B19462  37.223  39.626   7.581
 1262POPC   NC319463  31.979  19.326   9.370
 1262POPC   PO419464  32.069  19.985   9.584
 1262POPC   GL119465  32.172  20.026   9.147
 1262POPC   GL219466  32.233  19.693   9.123
 1262POPC   C1A19467  32.314  19.940   8.700
 1262POPC   D2A19468  32.479  19.920   8.293
 1262POPC   C3A19469  32.216  20.000   7.937
 1262POPC   C4A19470  32.460  19.811   7.622
 1262POPC   C1B19471  32.126  19.411   8.746
 1262POPC   C2B19472  32.324  19.268   8.371
 1262POPC   C3B19473  32.381  19.443   7.970
 1262POPC   C4B19474  32.045  19.547   7.709
 1263POPC   NC319475  20.746  20.089   9.512
 1263POPC   PO419476  20.737  19.420   9.648
 1263POPC   GL119477  20.602  19.672   9.253
 1263POPC   GL219478  20.911  19.749   9.104
 1263POPC   C1A19479  20.523  19.836   8.777
 1263POPC   D2A19480  20.652  19.882   8.345
 1263POPC   C3A19481  20.406  19.955   7.986
 1263POPC   C4A19482  20.193  19.676   7.711
 1263POPC   C1B19483  21.042  19.984   8.771
 1263POPC   C2B19484  21.050  20.183   8.366
 1263POPC   C3B19485  20.866  20.227   7.950
 1263POPC   C4B19486  21.097  20.196   7.597
 1264POPC   NC319487  13.995  22.533   9.493
 1264POPC   PO419488  14.386  23.075   9.497
 1264POPC   GL119489  14.434  22.988   9.098
 1264POPC   GL219490  14.100  22.800   9.060
 1264POPC   C1A19491  14.634  23.187   8.744
 1264POPC   D2A19492  14.366  23.278   8.415
 1264POPC   C3A19493  14.457  23.231   8.020
 1264POPC   C4A19494  14.769  23.051   7.816
 1264POPC   C1B19495  14.333  22.718   8.683
 1264POPC   C2B19496  14.329  22.767   8.281
 1264POPC   C3B19497  14.471  22.607   7.934
 1264POPC   C4B19498  14.267  22.855   7.705
 1265POPC   NC319499  43.168  41.834   9.432
 1265POPC   PO419500  43.146  41.176   9.499
 1265POPC   GL119501  43.206  41.405   9.121
 1265POPC   GL219502  42.841  41.490   9.153
 1265POPC   C1A19503  43.102  41.721   8.783
 1265POPC   D2A19504  42.949  41.874   8.393
 1265POPC   C3A19505  43.108  41.983   7.955
 1265POPC   C4A19506  43.228  42.195   7.558
 1265POPC   C1B19507  42.870  41.240   8.770
 1265POPC   C2B19508  43.149  41.306   8.450
 1265POPC   C3B19509  43.116  41.508   8.091
 1265POPC   C4B19510  43.257  41.561   7.692
 1266POPC   NC319511  22.180  13.181   9.410
 1266POPC   PO419512  21.983  12.516   9.624
 1266POPC   GL119513  22.079  12.501   9.145
 1266POPC   GL219514  22.300  12.803   9.085
 1266POPC   C1A19515  22.287  12.459   8.714
 1266POPC   D2A19516  22.410  12.671   8.323
 1266POPC   C3A19517  22.150  12.688   7.911
 1266POPC   C4A19518  22.054  12.893   7.498
 1266POPC   C1B19519  22.205  12.999   8.692
 1266POPC   C2B19520  21.970  12.941   8.319
 1266POPC   C3B19521  21.883  13.169   7.981
 1266POPC   C4B19522  21.812  13.324   7.615
 1267POPC   NC319523  21.855  41.238   9.526
 1267POPC   PO419524  22.335  40.695   9.412
 1267POPC   GL119525  22.376  40.994   9.085
 1267POPC   GL219526  22.030  41.112   9.038
 1267POPC   C1A19527  22.518  40.894   8.684
 1267POPC   D2A19528  22.403  40.536   8.501
 1267POPC   C3A19529  22.387  40.554   8.102
 1267POPC   C4A19530  22.530  40.865   7.810
 1267POPC   C1B19531  21.979  40.794   8.720
 1267POPC   C2B19532  21.950  40.780   8.271
 1267POPC   C3B19533  22.013  40.779   7.817
 1267POPC   C4B19534  21.790  40.704   7.442
 1268POPC   NC319535  37.375  16.763   9.450
 1268POPC   PO419536  37.950  16.530   9.732
 1268POPC   GL119537  37.790  16.616   9.231
 1268POPC   GL219538  37.718  16.947   9.068
 1268POPC   C1A19539  37.682  16.509   8.785
 1268POPC   D2A19540  37.687  16.613   8.340
 1268POPC   C3A19541  37.910  16.331   8.086
 1268POPC   C4A19542  37.542  16.322   7.849
 1268POPC   C1B19543  37.491  17.019   8.684
 1268POPC   C2B19544  37.282  16.926   8.280
 1268POPC   C3B19545  37.470  16.814   7.884
 1268POPC   C4B19546  37.492  16.905   7.424
 1269POPC   NC319547  12.206  41.978   9.919
 1269POPC   PO419548  12.131  41.302   9.621
 1269POPC   GL119549  12.225  41.437   9.191
 1269POPC   GL219550  11.879  41.479   9.103
 1269POPC   C1A19551  12.216  41.669   8.768
 1269POPC   D2A19552  12.166  41.907   8.389
 1269POPC   C3A19553  12.152  41.703   7.987
 1269POPC   C4A19554  11.945  41.644   7.611
 1269POPC   C1B19555  11.825  41.339   8.696
 1269POPC   C2B19556  12.016  41.355   8.324
 1269POPC   C3B19557  11.944  41.231   7.912
 1269POPC   C4B19558  11.591  41.133   7.697
 1270POPC   NC319559  27.435  42.425   9.460
 1270POPC   PO419560  27.875  42.966   9.357
 1270POPC   GL119561  27.783  42.577   9.064
 1270POPC   GL219562  27.669  42.239   9.064
 1270POPC   C1A19563  27.697  42.494   8.622
 1270POPC   D2A19564  27.561  42.758   8.293
 1270POPC   C3A19565  27.713  42.473   7.984
 1270POPC   C4A19566  27.527  42.368   7.582
 1270POPC   C1B19567  27.306  42.223   8.804
 1270POPC   C2B19568  27.217  42.395   8.401
 1270POPC   C3B19569  27.253  42.243   7.992
 1270POPC   C4B19570  27.074  42.027   7.673
 1271POPC   NC319571   2.242  28.453   9.468
 1271POPC   PO419572   1.650  28.120   9.544
 1271POPC   GL119573   1.905  28.170   9.167
 1271POPC   GL219574   2.264  28.072   9.158
 1271POPC   C1A19575   2.029  28.445   8.820
 1271POPC   D2A19576   1.901  28.576   8.394
 1271POPC   C3A19577   2.137  28.521   8.013
 1271POPC   C4A19578   1.791  28.487   7.721
 1271POPC   C1B19579   2.489  28.195   8.814
 1271POPC   C2B19580   2.356  28.285   8.419
 1271POPC   C3B19581   2.447  28.125   8.023
 1271POPC   C4B19582   2.177  28.103   7.680
 1272POPC   NC319583  11.901   5.296   9.213
 1272POPC   PO419584  11.461   5.103   9.688
 1272POPC   GL119585  11.139   5.144   9.348
 1272POPC   GL219586  10.848   4.895   9.300
 1272POPC   C1A19587  11.119   5.254   8.910
 1272POPC   D2A19588  11.029   5.364   8.483
 1272POPC   C3A19589  11.326   5.319   8.119
 1272POPC   C4A19590  11.323   5.090   7.702
 1272POPC   C1B19591  10.923   4.753   8.895
 1272POPC   C2B19592  11.191   4.854   8.552
 1272POPC   C3B19593  11.209   4.806   8.121
 1272POPC   C4B19594  10.873   4.816   7.797
 1273POPC   NC319595  23.179  25.579   9.429
 1273POPC   PO419596  22.749  25.040   9.465
 1273POPC   GL119597  22.859  25.312   9.112
 1273POPC   GL219598  23.207  25.353   8.974
 1273POPC   C1A19599  22.772  25.388   8.678
 1273POPC   D2A19600  22.946  25.326   8.256
 1273POPC   C3A19601  22.658  25.190   7.931
 1273POPC   C4A19602  22.496  25.426   7.600
 1273POPC   C1B19603  23.168  25.733   8.717
 1273POPC   C2B19604  22.929  25.852   8.373
 1273POPC   C3B19605  23.120  25.834   7.986
 1273POPC   C4B19606  23.034  25.503   7.687
 1274POPC   NC319607  32.788  24.752   9.467
 1274POPC   PO419608  32.894  24.065   9.542
 1274POPC   GL119609  32.928  24.327   9.222
 1274POPC   GL219610  33.246  24.308   9.068
 1274POPC   C1A19611  32.821  24.311   8.810
 1274POPC   D2A19612  32.810  24.470   8.422
 1274POPC   C3A19613  33.059  24.303   8.100
 1274POPC   C4A19614  32.820  24.464   7.779
 1274POPC   C1B19615  33.298  24.334   8.607
 1274POPC   C2B19616  33.275  24.700   8.326
 1274POPC   C3B19617  33.195  24.843   7.919
 1274POPC   C4B19618  33.243  24.629   7.532
 1275POPC   NC319619  39.862  36.305   9.616
 1275POPC   PO419620  40.261  35.827   9.639
 1275POPC   GL119621  40.166  36.066   9.263
 1275POPC   GL219622  39.807  36.051   9.165
 1275POPC   C1A19623  40.164  35.967   8.816
 1275POPC   D2A19624  40.203  36.274   8.490
 1275POPC   C3A19625  40.187  36.191   8.070
 1275POPC   C4A19626  40.102  35.878   7.724
 1275POPC   C1B19627  39.782  36.331   8.813
 1275POPC   C2B19628  39.658  36.280   8.373
 1275POPC   C3B19629  39.710  36.100   7.967
 1275POPC   C4B19630  39.922  36.366   7.658
 1276POPC   NC319631  29.355  33.862   9.483
 1276POPC   PO419632  28.735  33.631   9.443
 1276POPC   GL119633  28.957  33.929   9.158
 1276POPC   GL219634  29.286  33.735   8.998
 1276POPC   C1A19635  29.062  34.109   8.755
 1276POPC   D2A19636  29.178  33.891   8.396
 1276POPC   C3A19637  29.220  34.040   7.967
 1276POPC   C4A19638  29.224  33.720   7.611
 1276POPC   C1B19639  28.901  33.583   8.797
 1276POPC   C2B19640  28.678  33.592   8.430
 1276POPC   C3B19641  28.839  33.672   8.035
 1276POPC   C4B19642  28.804  33.431   7.663
 1277POPC   NC319643   3.703   8.500   9.512
 1277POPC   PO419644   3.196   7.968   9.498
 1277POPC   GL119645   3.354   8.279   9.222
 1277POPC   GL219646   3.110   8.357   9.006
 1277POPC   C1A19647   3.607   8.383   8.855
 1277POPC   D2A19648   3.589   8.222   8.432
 1277POPC   C3A19649   3.685   8.454   8.060
 1277POPC   C4A19650   3.461   8.490   7.691
 1277POPC   C1B19651   3.339   7.938   8.821
 1277POPC   C2B19652   3.316   7.773   8.365
 1277POPC   C3B19653   3.563   7.937   7.996
 1277POPC   C4B19654   3.716   8.042   7.593
 1278POPC   NC319655  38.435  41.980   9.678
 1278POPC   PO419656  38.603  42.580   9.448
 1278POPC   GL119657  38.624  42.452   9.053
 1278POPC   GL219658  38.672  42.117   9.185
 1278POPC   C1A19659  38.330  42.474   8.703
 1278POPC   D2A19660  38.347  42.342   8.284
 1278POPC   C3A19661  38.137  42.111   7.961
 1278POPC   C4A19662  38.336  42.346   7.630
 1278POPC   C1B19663  38.518  42.018   8.759
 1278POPC   C2B19664  38.666  41.947   8.302
 1278POPC   C3B19665  38.652  42.024   7.847
 1278POPC   C4B19666  38.704  42.122   7.362
 1279POPC   NC319667  15.060  17.212   9.567
 1279POPC   PO419668  15.410  17.817   9.658
 1279POPC   GL119669  15.359  17.715   9.194
 1279POPC   GL219670  15.359  17.371   9.194
 1279POPC   C1A19671  15.173  17.704   8.741
 1279POPC   D2A19672  14.874  17.523   8.406
 1279POPC   C3A19673  14.989  17.471   7.985
 1279POPC   C4A19674  15.293  17.736   7.743
 1279POPC   C1B19675  15.295  17.220   8.861
 1279POPC   C2B19676  15.297  17.189   8.457
 1279POPC   C3B19677  15.379  17.091   8.052
 1279POPC   C4B19678  15.301  17.245   7.648
 1280POPC   NC319679  31.289  24.527  10.322
 1280POPC   PO419680  31.468  24.590   9.671
 1280POPC   GL119681  31.413  24.544   9.220
 1280POPC   GL219682  31.666  24.738   9.047
 1280POPC   C1A19683  31.205  24.461   8.823
 1280POPC   D2A19684  31.421  24.486   8.434
 1280POPC   C3A19685  31.173  24.561   8.099
 1280POPC   C4A19686  31.413  24.476   7.714
 1280POPC   C1B19687  31.701  24.316   8.843
 1280POPC   C2B19688  31.885  24.237   8.452
 1280POPC   C3B19689  31.778  24.398   8.061
 1280POPC   C4B19690  31.835  24.202   7.656
 1281POPC   NC319691  10.347  40.900   9.988
 1281POPC   PO419692  10.598  40.507   9.522
 1281POPC   GL119693  10.669  40.768   9.186
 1281POPC   GL219694  10.601  40.472   8.997
 1281POPC   C1A19695  10.637  40.973   8.775
 1281POPC   D2A19696  10.492  40.818   8.395
 1281POPC   C3A19697  10.514  41.076   8.068
 1281POPC   C4A19698  10.527  41.011   7.667
 1281POPC   C1B19699  10.933  40.538   8.770
 1281POPC   C2B19700  10.987  40.678   8.389
 1281POPC   C3B19701  10.801  40.657   7.992
 1281POPC   C4B19702  10.879  40.659   7.558
 1282POPC   NC319703  10.843  11.245   9.773
 1282POPC   PO419704  10.417  11.413   9.273
 1282POPC   GL119705  10.490  11.281   8.907
 1282POPC   GL219706  10.173  11.174   8.849
 1282POPC   C1A19707  10.574  11.219   8.503
 1282POPC   D2A19708  10.217  11.254   8.314
 1282POPC   C3A19709  10.328  11.112   7.960
 1282POPC   C4A19710  10.701  11.307   7.789
 1282POPC   C1B19711  10.123  11.611   8.678
 1282POPC   C2B19712  10.000  11.719   8.241
 1282POPC   C3B19713  10.201  11.585   7.831
 1282POPC   C4B19714  10.368  11.537   7.426
 1283POPC   NC319715  41.629  44.213   9.504
 1283POPC   PO419716  41.969  44.785   9.604
 1283POPC   GL119717  41.560  44.783   9.287
 1283POPC   GL219718  41.596  44.472   9.093
 1283POPC   C1A19719  41.372  44.767   8.801
 1283POPC   D2A19720  41.596  44.577   8.435
 1283POPC   C3A19721  41.480  44.627   7.982
 1283POPC   C4A19722  41.522  44.415   7.570
 1283POPC   C1B19723  41.871  44.853   8.902
 1283POPC   C2B19724  41.993  44.909   8.486
 1283POPC   C3B19725  41.875   0.017   8.070
 1283POPC   C4B19726  41.823  44.817   7.642
 1284POPC   NC319727  11.618   6.144   9.395
 1284POPC   PO419728  12.175   5.868   9.578
 1284POPC   GL119729  12.048   5.924   9.137
 1284POPC   GL219730  12.223   5.658   9.037
 1284POPC   C1A19731  11.904   5.876   8.681
 1284POPC   D2A19732  12.048   5.870   8.212
 1284POPC   C3A19733  11.913   5.963   7.761
 1284POPC   C4A19734  11.699   5.897   7.342
 1284POPC   C1B19735  12.276   5.479   8.640
 1284POPC   C2B19736  12.464   5.597   8.284
 1284POPC   C3B19737  12.333   5.568   7.854
 1284POPC   C4B19738  12.025   5.516   7.510
 1285POPC   NC319739  14.860   7.963   9.597
 1285POPC   PO419740  15.339   8.421   9.523
 1285POPC   GL119741  15.441   8.234   9.139
 1285POPC   GL219742  15.127   8.037   9.125
 1285POPC   C1A19743  15.331   8.274   8.695
 1285POPC   D2A19744  15.177   7.931   8.396
 1285POPC   C3A19745  15.351   7.932   7.974
 1285POPC   C4A19746  15.479   8.306   7.762
 1285POPC   C1B19747  14.853   8.106   8.752
 1285POPC   C2B19748  14.766   8.287   8.354
 1285POPC   C3B19749  14.978   8.302   7.964
 1285POPC   C4B19750  14.809   8.427   7.583
 1286POPC   NC319751   8.840  24.238   9.448
 1286POPC   PO419752   9.426  24.430   9.589
 1286POPC   GL119753   9.192  24.471   9.169
 1286POPC   GL219754   8.904  24.717   9.154
 1286POPC   C1A19755   8.957  24.295   8.789
 1286POPC   D2A19756   8.964  24.087   8.387
 1286POPC   C3A19757   9.142  24.322   8.041
 1286POPC   C4A19758   9.063  24.320   7.643
 1286POPC   C1B19759   8.694  24.732   8.728
 1286POPC   C2B19760   8.791  24.585   8.330
 1286POPC   C3B19761   8.643  24.442   7.943
 1286POPC   C4B19762   8.673  24.588   7.477
 1287POPC   NC319763  32.004  21.141   9.439
 1287POPC   PO419764  32.409  21.632   9.685
 1287POPC   GL119765  32.154  21.593   9.260
 1287POPC   GL219766  32.326  21.364   9.058
 1287POPC   C1A19767  31.869  21.590   8.894
 1287POPC   D2A19768  32.042  21.386   8.532
 1287POPC   C3A19769  31.923  21.268   8.113
 1287POPC   C4A19770  32.181  21.391   7.785
 1287POPC   C1B19771  32.485  21.188   8.673
 1287POPC   C2B19772  32.454  21.258   8.231
 1287POPC   C3B19773  32.460  20.965   7.929
 1287POPC   C4B19774  32.452  21.083   7.507
 1288POPC   NC319775  31.167  22.423   9.521
 1288POPC   PO419776  31.592  21.919   9.435
 1288POPC   GL119777  31.520  22.273   9.145
 1288POPC   GL219778  31.501  21.982   8.925
 1288POPC   C1A19779  31.360  22.409   8.722
 1288POPC   D2A19780  31.429  22.082   8.401
 1288POPC   C3A19781  31.385  22.089   7.969
 1288POPC   C4A19782  31.340  22.461   7.693
 1288POPC   C1B19783  31.862  22.087   8.669
 1288POPC   C2B19784  32.071  21.885   8.333
 1288POPC   C3B19785  31.864  21.782   7.947
 1288POPC   C4B19786  31.619  21.835   7.570
 1289POPC   NC319787  29.793  12.337   9.496
 1289POPC   PO419788  30.332  11.984   9.471
 1289POPC   GL119789  30.039  12.120   9.101
 1289POPC   GL219790  29.630  12.115   9.085
 1289POPC   C1A19791  29.963  12.151   8.659
 1289POPC   D2A19792  30.132  11.977   8.288
 1289POPC   C3A19793  29.955  12.104   7.875
 1289POPC   C4A19794  30.000  11.966   7.454
 1289POPC   C1B19795  29.504  11.948   8.707
 1289POPC   C2B19796  29.584  12.090   8.267
 1289POPC   C3B19797  29.462  12.289   7.849
 1289POPC   C4B19798  29.703  12.388   7.433
 1290POPC   NC319799  38.706  21.324   9.426
 1290POPC   PO419800  38.096  21.452   9.579
 1290POPC   GL119801  38.309  21.544   9.190
 1290POPC   GL219802  38.352  21.180   9.094
 1290POPC   C1A19803  38.521  21.583   8.776
 1290POPC   D2A19804  38.376  21.388   8.392
 1290POPC   C3A19805  38.344  21.594   7.991
 1290POPC   C4A19806  38.246  21.347   7.608
 1290POPC   C1B19807  38.640  21.077   8.770
 1290POPC   C2B19808  38.718  20.991   8.352
 1290POPC   C3B19809  38.667  21.196   7.960
 1290POPC   C4B19810  38.653  21.026   7.576
 1291POPC   NC319811  37.425  19.742   9.306
 1291POPC   PO419812  36.876  19.869   9.721
 1291POPC   GL119813  36.902  19.781   9.220
 1291POPC   GL219814  36.834  19.452   9.087
 1291POPC   C1A19815  36.785  19.802   8.712
 1291POPC   D2A19816  36.556  19.721   8.276
 1291POPC   C3A19817  36.740  19.907   7.928
 1291POPC   C4A19818  37.091  20.189   7.807
 1291POPC   C1B19819  37.216  19.453   8.780
 1291POPC   C2B19820  37.359  19.512   8.341
 1291POPC   C3B19821  37.217  19.668   7.935
 1291POPC   C4B19822  37.283  19.529   7.507
 1292POPC   NC319823  44.047  27.100   9.564
 1292POPC   PO419824  43.772  26.526   9.557
 1292POPC   GL119825  43.834  26.808   9.195
 1292POPC   GL219826  44.131  26.642   9.124
 1292POPC   C1A19827  43.973  26.972   8.762
 1292POPC   D2A19828  44.230  27.044   8.376
 1292POPC   C3A19829  43.996  27.016   8.020
 1292POPC   C4A19830  43.954  27.158   7.621
 1292POPC   C1B19831  44.074  26.474   8.752
 1292POPC   C2B19832  43.916  26.593   8.355
 1292POPC   C3B19833  44.065  26.527   7.952
 1292POPC   C4B19834  44.091  26.688   7.512
 1293POPC   NC319835  41.732  25.518   9.575
 1293POPC   PO419836  41.193  25.149   9.480
 1293POPC   GL119837  41.390  25.055   9.117
 1293POPC   GL219838  41.726  25.143   9.129
 1293POPC   C1A19839  41.402  25.287   8.740
 1293POPC   D2A19840  41.213  25.464   8.383
 1293POPC   C3A19841  41.392  25.304   8.013
 1293POPC   C4A19842  41.275  25.025   7.713
 1293POPC   C1B19843  41.931  25.206   8.719
 1293POPC   C2B19844  41.814  25.129   8.285
 1293POPC   C3B19845  41.856  25.126   7.817
 1293POPC   C4B19846  41.987  25.118   7.370
 1294POPC   NC319847  31.916  17.276   9.346
 1294POPC   PO419848  32.183  17.891   9.512
 1294POPC   GL119849  32.221  17.687   9.169
 1294POPC   GL219850  32.406  17.388   9.253
 1294POPC   C1A19851  32.259  17.813   8.746
 1294POPC   D2A19852  32.352  17.565   8.375
 1294POPC   C3A19853  32.217  17.579   7.966
 1294POPC   C4A19854  32.381  17.541   7.565
 1294POPC   C1B19855  32.305  17.291   8.836
 1294POPC   C2B19856  32.312  17.055   8.488
 1294POPC   C3B19857  32.461  17.126   8.127
 1294POPC   C4B19858  32.261  17.106   7.769
 1295POPC   NC319859  44.494  37.071   9.440
 1295POPC   PO419860   0.174  36.980   9.531
 1295POPC   GL119861  44.959  37.153   9.176
 1295POPC   GL219862  44.826  36.795   9.097
 1295POPC   C1A19863  44.708  37.224   8.780
 1295POPC   D2A19864  44.588  37.017   8.381
 1295POPC   C3A19865  44.642  37.270   7.991
 1295POPC   C4A19866  44.868  37.284   7.624
 1295POPC   C1B19867  44.929  36.447   8.766
 1295POPC   C2B19868   0.052  36.485   8.295
 1295POPC   C3B19869  44.915  36.647   7.845
 1295POPC   C4B19870  44.936  36.836   7.392
 1296POPC   NC319871  34.987   3.123   9.588
 1296POPC   PO419872  34.887   2.502   9.415
 1296POPC   GL119873  34.766   2.686   9.051
 1296POPC   GL219874  34.446   2.722   9.145
 1296POPC   C1A19875  34.786   2.903   8.632
 1296POPC   D2A19876  35.019   3.054   8.305
 1296POPC   C3A19877  34.823   2.925   7.946
 1296POPC   C4A19878  34.770   2.541   7.802
 1296POPC   C1B19879  34.394   2.604   8.701
 1296POPC   C2B19880  34.514   2.583   8.264
 1296POPC   C3B19881  34.321   2.737   7.875
 1296POPC   C4B19882  34.125   3.004   7.546
 1297POPC   NC319883  40.814  43.333   9.651
 1297POPC   PO419884  41.161  42.818   9.690
 1297POPC   GL119885  40.966  42.835   9.291
 1297POPC   GL219886  41.024  43.169   9.207
 1297POPC   C1A19887  40.647  42.912   8.962
 1297POPC   D2A19888  40.682  42.923   8.489
 1297POPC   C3A19889  40.616  43.268   8.231
 1297POPC   C4A19890  40.571  43.202   7.803
 1297POPC   C1B19891  41.102  42.999   8.770
 1297POPC   C2B19892  41.180  42.780   8.354
 1297POPC   C3B19893  41.022  42.975   7.984
 1297POPC   C4B19894  41.067  43.385   7.836
 1298POPC   NC319895  41.203  20.423   9.491
 1298POPC   PO419896  41.784  20.723   9.622
 1298POPC   GL119897  41.551  20.584   9.171
 1298POPC   GL219898  41.744  20.328   9.031
 1298POPC   C1A19899  41.343  20.778   8.770
 1298POPC   D2A19900  41.151  20.771   8.333
 1298POPC   C3A19901  41.498  20.720   7.999
 1298POPC   C4A19902  41.544  20.544   7.556
 1298POPC   C1B19903  41.283  20.279   8.838
 1298POPC   C2B19904  41.073  20.268   8.432
 1298POPC   C3B19905  41.234  20.255   8.036
 1298POPC   C4B19906  41.073  20.406   7.674
 1299POPC   NC319907  10.362   7.330   9.550
 1299POPC   PO419908  11.055   7.383   9.557
 1299POPC   GL119909  10.746   7.307   9.195
 1299POPC   GL219910  10.490   7.563   9.101
 1299POPC   C1A19911  10.606   7.068   8.809
 1299POPC   D2A19912  10.359   7.013   8.398
 1299POPC   C3A19913  10.451   7.182   7.971
 1299POPC   C4A19914  10.864   7.198   7.811
 1299POPC   C1B19915  10.311   7.472   8.695
 1299POPC   C2B19916  10.413   7.606   8.262
 1299POPC   C3B19917  10.654   7.677   7.890
 1299POPC   C4B19918  10.582   7.484   7.487
 1300POPC   NC319919   6.234  19.974   9.450
 1300POPC   PO419920   6.272  20.574   9.279
 1300POPC   GL119921   6.549  20.175   9.098
 1300POPC   GL219922   6.478  19.830   9.021
 1300POPC   C1A19923   6.781  20.062   8.679
 1300POPC   D2A19924   6.600  20.039   8.269
 1300POPC   C3A19925   6.755  19.793   7.950
 1300POPC   C4A19926   7.096  19.567   7.743
 1300POPC   C1B19927   6.277  20.096   8.693
 1300POPC   C2B19928   6.079  20.064   8.298
 1300POPC   C3B19929   6.156  20.264   7.950
 1300POPC   C4B19930   6.431  20.142   7.652
 1301POPC   NC319931   1.837  13.966   9.516
 1301POPC   PO419932   2.339  13.514   9.477
 1301POPC   GL119933   2.068  13.484   9.132
 1301POPC   GL219934   1.791  13.741   9.065
 1301POPC   C1A19935   2.163  13.563   8.724
 1301POPC   D2A19936   2.061  13.406   8.333
 1301POPC   C3A19937   2.052  13.689   8.013
 1301POPC   C4A19938   2.095  13.513   7.630
 1301POPC   C1B19939   1.662  13.508   8.694
 1301POPC   C2B19940   1.552  13.460   8.271
 1301POPC   C3B19941   1.564  13.672   7.860
 1301POPC   C4B19942   1.813  13.916   7.549
 1302POPC   NC319943  39.056  12.930   9.341
 1302POPC   PO419944  39.467  12.422   9.497
 1302POPC   GL119945  39.413  12.639   9.116
 1302POPC   GL219946  39.106  12.598   8.969
 1302POPC   C1A19947  39.543  12.848   8.725
 1302POPC   D2A19948  39.427  12.910   8.282
 1302POPC   C3A19949  39.460  13.051   7.875
 1302POPC   C4A19950  39.781  12.760   7.785
 1302POPC   C1B19951  39.048  12.877   8.616
 1302POPC   C2B19952  39.048  12.568   8.303
 1302POPC   C3B19953  39.190  12.620   7.922
 1302POPC   C4B19954  38.964  13.022   7.971
 1303POPC   NC319955  35.681   6.067   9.478
 1303POPC   PO419956  36.345   5.773   9.568
 1303POPC   GL119957  36.197   5.861   9.187
 1303POPC   GL219958  35.898   5.736   9.159
 1303POPC   C1A19959  36.213   6.032   8.786
 1303POPC   D2A19960  36.161   6.331   8.464
 1303POPC   C3A19961  36.271   6.129   8.095
 1303POPC   C4A19962  36.270   5.891   7.739
 1303POPC   C1B19963  35.935   5.583   8.759
 1303POPC   C2B19964  35.936   5.820   8.392
 1303POPC   C3B19965  35.839   5.865   7.996
 1303POPC   C4B19966  35.764   5.572   7.686
 1304POPC   NC319967  28.959  29.141   9.522
 1304POPC   PO419968  29.553  29.450   9.523
 1304POPC   GL119969  29.384  29.160   9.211
 1304POPC   GL219970  29.012  29.144   9.028
 1304POPC   C1A19971  29.440  29.008   8.820
 1304POPC   D2A19972  29.157  29.112   8.468
 1304POPC   C3A19973  29.306  29.128   8.064
 1304POPC   C4A19974  29.023  29.228   7.791
 1304POPC   C1B19975  28.797  29.486   8.802
 1304POPC   C2B19976  28.860  29.630   8.354
 1304POPC   C3B19977  28.657  29.531   7.948
 1304POPC   C4B19978  28.719  29.471   7.462
 1305POPC   NC319979  39.138  34.634   9.653
 1305POPC   PO419980  39.513  35.163   9.612
 1305POPC   GL119981  39.301  34.857   9.244
 1305POPC   GL219982  39.509  34.534   9.141
 1305POPC   C1A19983  39.123  34.699   8.844
 1305POPC   D2A19984  39.269  34.639   8.412
 1305POPC   C3A19985  39.041  34.860   8.102
 1305POPC   C4A19986  39.069  34.859   7.659
 1305POPC   C1B19987  39.423  34.268   8.748
 1305POPC   C2B19988  39.174  34.124   8.405
 1305POPC   C3B19989  39.100  34.312   8.007
 1305POPC   C4B19990  39.431  34.554   7.883
 1306POPC   NC319991  40.546  39.954   9.559
 1306POPC   PO419992  39.857  39.908   9.507
 1306POPC   GL119993  39.761  40.021   9.106
 1306POPC   GL219994  40.057  40.235   9.062
 1306POPC   C1A19995  39.714  40.133   8.689
 1306POPC   D2A19996  39.871  40.134   8.281
 1306POPC   C3A19997  39.616  40.200   7.960
 1306POPC   C4A19998  39.639  39.903   7.672
 1306POPC   C1B19999  40.223  40.155   8.651
 1306POPC   C2B20000  40.276  39.804   8.354
 1306POPC   C3B20001  40.139  39.793   7.927
 1306POPC   C4B20002  40.067  40.180   7.692
 1307POPC   NC320003  19.963  25.337   9.846
 1307POPC   PO420004  19.728  24.845   9.404
 1307POPC   GL120005  20.003  25.137   9.112
 1307POPC   GL220006  20.059  25.510   9.213
 1307POPC   C1A20007  20.123  25.261   8.675
 1307POPC   D2A20008  20.178  25.086   8.228
 1307POPC   C3A20009  19.773  25.105   7.995
 1307POPC   C4A20010  19.363  24.917   7.957
 1307POPC   C1B20011  19.780  25.596   8.852
 1307POPC   C2B20012  19.686  25.638   8.437
 1307POPC   C3B20013  19.843  25.684   8.023
 1307POPC   C4B20014  20.087  25.445   7.772
 1308POPC   NC320015   1.825  31.618   9.442
 1308POPC   PO420016   2.084  31.081   9.631
 1308POPC   GL120017   2.145  31.342   9.159
 1308POPC   GL220018   1.854  31.451   8.971
 1308POPC   C1A20019   2.246  31.256   8.725
 1308POPC   D2A20020   2.023  31.146   8.356
 1308POPC   C3A20021   2.175  31.317   7.971
 1308POPC   C4A20022   1.954  31.413   7.594
 1308POPC   C1B20023   1.764  31.779   8.677
 1308POPC   C2B20024   1.536  31.874   8.300
 1308POPC   C3B20025   1.836  31.712   8.025
 1308POPC   C4B20026   2.007  31.899   7.697
 1309POPC   NC320027  35.876   9.976   9.560
 1309POPC   PO420028  36.347   9.514   9.484
 1309POPC   GL120029  36.188   9.736   9.131
 1309POPC   GL220030  35.841   9.749   9.093
 1309POPC   C1A20031  36.162   9.930   8.717
 1309POPC   D2A20032  36.103  10.115   8.281
 1309POPC   C3A20033  36.388   9.982   7.923
 1309POPC   C4A20034  36.257   9.879   7.481
 1309POPC   C1B20035  35.907   9.467   8.730
 1309POPC   C2B20036  36.215   9.310   8.442
 1309POPC   C3B20037  36.214   9.519   8.057
 1309POPC   C4B20038  35.905   9.600   7.739
 1310POPC   NC320039  44.697  17.082   9.597
 1310POPC   PO420040   0.006  17.708   9.607
 1310POPC   GL120041  44.775  17.546   9.216
 1310POPC   GL220042  44.484  17.282   9.188
 1310POPC   C1A20043  44.491  17.685   8.871
 1310POPC   D2A20044  44.345  17.506   8.489
 1310POPC   C3A20045  44.549  17.607   8.126
 1310POPC   C4A20046  44.521  17.499   7.695
 1310POPC   C1B20047  44.669  17.193   8.795
 1310POPC   C2B20048  44.680  17.140   8.371
 1310POPC   C3B20049  44.858  17.220   7.989
 1310POPC   C4B20050  44.709  16.954   7.723
 1311POPC   NC320051  23.817  21.352   9.739
 1311POPC   PO420052  23.264  21.296   9.621
 1311POPC   GL120053  23.557  21.223   9.286
 1311POPC   GL220054  23.879  21.036   9.265
 1311POPC   C1A20055  23.639  21.286   8.853
 1311POPC   D2A20056  23.702  21.122   8.431
 1311POPC   C3A20057  23.750  21.410   8.075
 1311POPC   C4A20058  23.707  21.433   7.633
 1311POPC   C1B20059  24.060  21.009   8.813
 1311POPC   C2B20060  24.241  21.041   8.370
 1311POPC   C3B20061  24.130  21.078   7.925
 1311POPC   C4B20062  24.220  21.450   7.654
 1312POPC   NC320063  24.906  18.131   9.256
 1312POPC   PO420064  24.534  18.659   9.384
 1312POPC   GL120065  24.403  18.293   9.175
 1312POPC   GL220066  24.329  18.543   8.926
 1312POPC   C1A20067  24.465  18.050   8.789
 1312POPC   D2A20068  24.336  18.158   8.405
 1312POPC   C3A20069  24.474  18.050   8.017
 1312POPC   C4A20070  24.599  18.427   7.832
 1312POPC   C1B20071  24.015  18.303   8.791
 1312POPC   C2B20072  23.845  18.277   8.370
 1312POPC   C3B20073  24.049  18.325   7.966
 1312POPC   C4B20074  24.146  18.547   7.569
 1313POPC   NC320075  29.641  34.739   9.420
 1313POPC   PO420076  30.219  34.569   9.459
 1313POPC   GL120077  30.035  34.703   9.071
 1313POPC   GL220078  29.716  34.516   8.984
 1313POPC   C1A20079  30.115  34.530   8.662
 1313POPC   D2A20080  30.176  34.245   8.328
 1313POPC   C3A20081  30.197  34.494   7.961
 1313POPC   C4A20082  29.913  34.749   7.701
 1313POPC   C1B20083  29.588  34.132   8.769
 1313POPC   C2B20084  29.676  34.044   8.325
 1313POPC   C3B20085  29.710  34.321   7.967
 1313POPC   C4B20086  29.703  34.334   7.514
 1314POPC   NC320087  17.630  20.024   9.553
 1314POPC   PO420088  17.927  19.312   9.467
 1314POPC   GL120089  17.807  19.690   9.174
 1314POPC   GL220090  17.466  19.897   9.106
 1314POPC   C1A20091  17.793  19.865   8.743
 1314POPC   D2A20092  17.619  19.704   8.366
 1314POPC   C3A20093  17.775  19.839   7.960
 1314POPC   C4A20094  17.652  19.807   7.502
 1314POPC   C1B20095  17.299  19.613   8.809
 1314POPC   C2B20096  17.116  19.823   8.455
 1314POPC   C3B20097  17.283  19.964   8.099
 1314POPC   C4B20098  17.331  19.608   7.863
 1315POPC   NC320099  22.751  17.335   9.613
 1315POPC   PO420100  23.271  17.735   9.401
 1315POPC   GL120101  23.091  17.384   9.149
 1315POPC   GL220102  22.722  17.377   9.120
 1315POPC   C1A20103  22.991  17.436   8.701
 1315POPC   D2A20104  23.214  17.436   8.348
 1315POPC   C3A20105  22.944  17.430   8.025
 1315POPC   C4A20106  23.136  17.403   7.664
 1315POPC   C1B20107  22.469  17.214   8.800
 1315POPC   C2B20108  22.468  17.368   8.370
 1315POPC   C3B20109  22.477  17.194   7.978
 1315POPC   C4B20110  22.725  17.083   7.648
 1316POPC   NC320111  43.585  10.055   9.331
 1316POPC   PO420112  43.841   9.566   9.647
 1316POPC   GL120113  43.980   9.717   9.236
 1316POPC   GL220114  44.324   9.555   9.240
 1316POPC   C1A20115  43.792   9.675   8.788
 1316POPC   D2A20116  43.612   9.903   8.393
 1316POPC   C3A20117  43.753   9.826   7.944
 1316POPC   C4A20118  43.679   9.816   7.486
 1316POPC   C1B20119  44.293   9.806   8.846
 1316POPC   C2B20120  44.132   9.729   8.419
 1316POPC   C3B20121  44.268   9.818   8.020
 1316POPC   C4B20122  44.170   9.557   7.723
 1317POPC   NC320123   4.899  23.952   9.248
 1317POPC   PO420124   5.357  23.458   9.444
 1317POPC   GL120125   5.132  23.480   9.083
 1317POPC   GL220126   5.296  23.779   8.982
 1317POPC   C1A20127   4.912  23.609   8.686
 1317POPC   D2A20128   4.918  23.902   8.318
 1317POPC   C3A20129   5.050  23.634   8.000
 1317POPC   C4A20130   4.897  23.353   7.693
 1317POPC   C1B20131   5.253  24.090   8.663
 1317POPC   C2B20132   5.382  24.202   8.243
 1317POPC   C3B20133   5.309  24.078   7.824
 1317POPC   C4B20134   5.223  24.062   7.374
 1318POPC   NC320135  37.318  19.673   9.805
 1318POPC   PO420136  37.842  19.940   9.472
 1318POPC   GL120137  37.807  19.946   9.062
 1318POPC   GL220138  37.904  19.616   9.048
 1318POPC   C1A20139  37.606  19.945   8.683
 1318POPC   D2A20140  37.728  19.885   8.304
 1318POPC   C3A20141  37.610  20.162   8.009
 1318POPC   C4A20142  37.537  19.970   7.639
 1318POPC   C1B20143  37.787  19.462   8.658
 1318POPC   C2B20144  37.906  19.413   8.250
 1318POPC   C3B20145  37.705  19.516   7.868
 1318POPC   C4B20146  37.789  19.382   7.452
 1319POPC   NC320147  20.228  17.641   9.628
 1319POPC   PO420148  19.548  17.562   9.708
 1319POPC   GL120149  19.783  17.638   9.300
 1319POPC   GL220150  19.751  17.377   9.022
 1319POPC   C1A20151  19.925  17.822   8.885
 1319POPC   D2A20152  19.905  17.777   8.447
 1319POPC   C3A20153  19.936  17.671   8.012
 1319POPC   C4A20154  19.635  17.526   7.816
 1319POPC   C1B20155  19.757  17.139   8.644
 1319POPC   C2B20156  19.788  17.250   8.267
 1319POPC   C3B20157  19.633  17.039   7.919
 1319POPC   C4B20158  19.865  17.137   7.552
 1320POPC   NC320159  33.961   0.943   9.466
 1320POPC   PO420160  33.545   1.415   9.628
 1320POPC   GL120161  33.640   1.234   9.200
 1320POPC   GL220162  33.328   1.245   9.070
 1320POPC   C1A20163  33.931   1.145   8.804
 1320POPC   D2A20164  34.139   1.207   8.366
 1320POPC   C3A20165  33.912   1.093   8.005
 1320POPC   C4A20166  33.756   1.319   7.650
 1320POPC   C1B20167  33.478   0.876   8.833
 1320POPC   C2B20168  33.626   0.961   8.402
 1320POPC   C3B20169  33.431   0.950   7.926
 1320POPC   C4B20170  33.433   0.990   7.430
 1321POPC   NC320171   1.609  16.303   9.198
 1321POPC   PO420172   2.071  16.485   9.670
 1321POPC   GL120173   2.097  16.626   9.183
 1321POPC   GL220174   1.820  16.788   9.114
 1321POPC   C1A20175   2.033  16.502   8.709
 1321POPC   D2A20176   1.751  16.618   8.369
 1321POPC   C3A20177   1.968  16.541   7.976
 1321POPC   C4A20178   2.292  16.501   7.675
 1321POPC   C1B20179   1.879  17.003   8.719
 1321POPC   C2B20180   1.681  17.192   8.400
 1321POPC   C3B20181   1.708  16.989   8.010
 1321POPC   C4B20182   2.035  17.005   7.698
 1322POPC   NC320183  12.037  25.599   9.473
 1322POPC   PO420184  12.121  26.191   9.398
 1322POPC   GL120185  12.256  25.889   9.073
 1322POPC   GL220186  11.939  25.804   9.013
 1322POPC   C1A20187  12.318  25.652   8.655
 1322POPC   D2A20188  12.048  25.575   8.254
 1322POPC   C3A20189  12.026  25.938   7.987
 1322POPC   C4A20190  12.317  26.239   7.868
 1322POPC   C1B20191  11.772  26.196   8.812
 1322POPC   C2B20192  11.755  26.112   8.393
 1322POPC   C3B20193  11.695  26.356   8.044
 1322POPC   C4B20194  11.649  26.195   7.671
 1323POPC   NC320195  29.001  39.507   9.662
 1323POPC   PO420196  29.390  39.125   9.291
 1323POPC   GL120197  29.018  39.279   9.177
 1323POPC   GL220198  29.009  39.637   9.160
 1323POPC   C1A20199  28.927  39.121   8.781
 1323POPC   D2A20200  29.166  39.130   8.416
 1323POPC   C3A20201  28.962  38.942   8.105
 1323POPC   C4A20202  29.164  39.012   7.769
 1323POPC   C1B20203  29.285  39.532   8.789
 1323POPC   C2B20204  29.291  39.666   8.352
 1323POPC   C3B20205  29.123  39.496   7.969
 1323POPC   C4B20206  29.365  39.427   7.579
 1324POPC   NC320207  11.113  21.504   9.728
 1324POPC   PO420208  10.486  21.525   9.735
 1324POPC   GL120209  10.456  21.596   9.227
 1324POPC   GL220210  10.383  21.289   9.013
 1324POPC   C1A20211  10.569  21.685   8.771
 1324POPC   D2A20212  10.467  21.498   8.357
 1324POPC   C3A20213  10.562  21.676   7.952
 1324POPC   C4A20214  10.546  21.565   7.497
 1324POPC   C1B20215  10.693  21.153   8.679
 1324POPC   C2B20216  10.622  21.026   8.224
 1324POPC   C3B20217  10.768  21.223   7.832
 1324POPC   C4B20218  10.802  21.059   7.419
 1325POPC   NC320219   5.527  27.374   9.453
 1325POPC   PO420220   6.107  26.903   9.609
 1325POPC   GL120221   5.862  26.756   9.247
 1325POPC   GL220222   5.572  26.960   9.158
 1325POPC   C1A20223   5.799  26.611   8.819
 1325POPC   D2A20224   5.646  26.724   8.390
 1325POPC   C3A20225   5.935  26.593   8.045
 1325POPC   C4A20226   5.876  26.652   7.601
 1325POPC   C1B20227   5.704  27.107   8.757
 1325POPC   C2B20228   5.665  27.251   8.343
 1325POPC   C3B20229   5.734  27.091   7.935
 1325POPC   C4B20230   5.430  27.041   7.608
 1326POPC   NC320231  26.728  18.149   9.751
 1326POPC   PO420232  27.024  18.589   9.451
 1326POPC   GL120233  26.904  18.648   9.050
 1326POPC   GL220234  26.584  18.494   9.098
 1326POPC   C1A20235  27.051  18.594   8.613
 1326POPC   D2A20236  27.049  18.202   8.372
 1326POPC   C3A20237  26.940  18.203   7.929
 1326POPC   C4A20238  27.119  18.357   7.558
 1326POPC   C1B20239  26.617  18.309   8.698
 1326POPC   C2B20240  26.600  18.463   8.282
 1326POPC   C3B20241  26.472  18.383   7.887
 1326POPC   C4B20242  26.420  17.964   7.713
 1327POPC   NC320243  27.387  18.905   9.407
 1327POPC   PO420244  28.012  18.738   9.433
 1327POPC   GL120245  27.796  18.912   9.060
 1327POPC   GL220246  27.872  19.235   9.082
 1327POPC   C1A20247  27.586  19.069   8.641
 1327POPC   D2A20248  27.280  19.016   8.321
 1327POPC   C3A20249  27.253  19.157   7.903
 1327POPC   C4A20250  27.238  18.844   7.568
 1327POPC   C1B20251  28.080  19.085   8.664
 1327POPC   C2B20252  27.950  18.985   8.235
 1327POPC   C3B20253  27.710  18.933   7.838
 1327POPC   C4B20254  27.600  19.167   7.457
 1328POPC   NC320255   4.529   8.638   9.605
 1328POPC   PO420256   3.939   8.849   9.324
 1328POPC   GL120257   4.165   8.796   9.006
 1328POPC   GL220258   4.533   8.810   9.128
 1328POPC   C1A20259   4.178   9.102   8.704
 1328POPC   D2A20260   4.426   9.252   8.394
 1328POPC   C3A20261   4.230   9.129   8.019
 1328POPC   C4A20262   4.205   8.865   7.681
 1328POPC   C1B20263   4.550   8.600   8.754
 1328POPC   C2B20264   4.346   8.702   8.366
 1328POPC   C3B20265   4.455   8.517   7.967
 1328POPC   C4B20266   4.708   8.747   7.655
 1329POPC   NC320267  37.575  29.855   9.520
 1329POPC   PO420268  38.149  29.987   9.365
 1329POPC   GL120269  37.843  29.728   9.116
 1329POPC   GL220270  37.443  29.802   9.035
 1329POPC   C1A20271  37.841  29.838   8.722
 1329POPC   D2A20272  37.683  29.843   8.375
 1329POPC   C3A20273  37.919  29.825   8.074
 1329POPC   C4A20274  37.746  29.746   7.691
 1329POPC   C1B20275  37.465  30.208   8.786
 1329POPC   C2B20276  37.510  30.315   8.333
 1329POPC   C3B20277  37.460  30.072   7.942
 1329POPC   C4B20278  37.411  30.072   7.465
 1330POPC   NC320279   4.467   3.479   9.282
 1330POPC   PO420280   4.014   3.335   9.755
 1330POPC   GL120281   4.028   3.230   9.226
 1330POPC   GL220282   4.072   3.519   8.934
 1330POPC   C1A20283   4.197   3.086   8.761
 1330POPC   D2A20284   4.235   3.452   8.439
 1330POPC   C3A20285   4.205   3.440   7.984
 1330POPC   C4A20286   4.583   3.278   7.767
 1330POPC   C1B20287   4.086   3.910   8.657
 1330POPC   C2B20288   4.000   3.914   8.205
 1330POPC   C3B20289   4.118   3.943   7.780
 1330POPC   C4B20290   4.310   3.631   7.522
 1331POPC   NC320291   2.739  35.897   9.347
 1331POPC   PO420292   3.033  36.571   9.485
 1331POPC   GL120293   2.951  36.312   9.119
 1331POPC   GL220294   3.118  35.968   9.053
 1331POPC   C1A20295   2.848  36.227   8.682
 1331POPC   D2A20296   2.778  36.447   8.313
 1331POPC   C3A20297   2.682  36.255   7.925
 1331POPC   C4A20298   2.567  36.010   7.575
 1331POPC   C1B20299   3.145  35.802   8.633
 1331POPC   C2B20300   3.025  35.959   8.218
 1331POPC   C3B20301   3.053  35.955   7.751
 1331POPC   C4B20302   3.027  35.936   7.285
 1332POPC   NC320303  21.151  28.558   9.464
 1332POPC   PO420304  21.792  28.323   9.414
 1332POPC   GL120305  21.421  28.245   9.149
 1332POPC   GL220306  21.112  28.056   9.250
 1332POPC   C1A20307  21.228  28.511   8.825
 1332POPC   D2A20308  21.428  28.749   8.484
 1332POPC   C3A20309  21.467  28.433   8.172
 1332POPC   C4A20310  21.411  28.402   7.744
 1332POPC   C1B20311  21.154  27.990   8.793
 1332POPC   C2B20312  21.051  28.249   8.420
 1332POPC   C3B20313  21.129  28.061   8.026
 1332POPC   C4B20314  21.341  27.901   7.638
 1333POPC   NC320315  21.788  11.110   9.372
 1333POPC   PO420316  22.399  11.330   9.619
 1333POPC   GL120317  22.363  11.212   9.190
 1333POPC   GL220318  22.320  11.573   9.169
 1333POPC   C1A20319  22.265  11.013   8.757
 1333POPC   D2A20320  21.992  10.779   8.459
 1333POPC   C3A20321  21.983  10.973   8.030
 1333POPC   C4A20322  22.360  10.902   7.759
 1333POPC   C1B20323  22.140  11.524   8.801
 1333POPC   C2B20324  22.350  11.468   8.448
 1333POPC   C3B20325  22.375  11.307   8.082
 1333POPC   C4B20326  22.164  11.375   7.748
 1334POPC   NC320327   9.496  36.985   9.443
 1334POPC   PO420328   8.891  36.784   9.416
 1334POPC   GL120329   8.894  37.090   9.098
 1334POPC   GL220330   9.082  36.867   8.927
 1334POPC   C1A20331   8.714  37.101   8.662
 1334POPC   D2A20332   8.530  37.236   8.265
 1334POPC   C3A20333   8.854  37.081   7.965
 1334POPC   C4A20334   8.933  36.869   7.570
 1334POPC   C1B20335   9.220  37.220   8.669
 1334POPC   C2B20336   9.323  37.136   8.245
 1334POPC   C3B20337   9.372  37.046   7.816
 1334POPC   C4B20338   9.434  36.758   7.531
 1335POPC   NC320339  39.428  21.487   9.420
 1335POPC   PO420340  38.821  21.777   9.381
 1335POPC   GL120341  39.051  21.477   9.080
 1335POPC   GL220342  39.418  21.561   8.927
 1335POPC   C1A20343  39.043  21.347   8.686
 1335POPC   D2A20344  38.870  21.486   8.332
 1335POPC   C3A20345  39.134  21.421   7.987
 1335POPC   C4A20346  39.013  21.372   7.565
 1335POPC   C1B20347  39.584  21.218   8.748
 1335POPC   C2B20348  39.818  21.115   8.385
 1335POPC   C3B20349  39.656  20.940   8.013
 1335POPC   C4B20350  39.412  21.106   7.700
 1336POPC   NC320351  44.485  42.450  10.007
 1336POPC   PO420352  44.781  42.246   9.402
 1336POPC   GL120353  44.592  42.308   8.989
 1336POPC   GL220354  44.353  42.584   8.992
 1336POPC   C1A20355  44.697  42.190   8.579
 1336POPC   D2A20356   0.073  42.299   8.357
 1336POPC   C3A20357   0.088  42.055   7.994
 1336POPC   C4A20358  44.812  42.065   7.637
 1336POPC   C1B20359  44.169  42.553   8.612
 1336POPC   C2B20360  44.300  42.342   8.273
 1336POPC   C3B20361  44.535  42.411   7.916
 1336POPC   C4B20362  44.956  42.542   7.879
 1337POPC   NC320363  35.310   6.747   9.414
 1337POPC   PO420364  35.159   6.039   9.504
 1337POPC   GL120365  35.354   6.308   9.160
 1337POPC   GL220366  35.659   6.242   8.972
 1337POPC   C1A20367  35.443   6.662   8.795
 1337POPC   D2A20368  35.214   6.741   8.414
 1337POPC   C3A20369  35.420   6.933   8.065
 1337POPC   C4A20370  35.507   6.716   7.710
 1337POPC   C1B20371  35.201   6.241   8.711
 1337POPC   C2B20372  35.025   6.271   8.320
 1337POPC   C3B20373  35.154   6.389   7.911
 1337POPC   C4B20374  34.864   6.410   7.582
 1338POPC   NC320375  28.442  40.032   9.616
 1338POPC   PO420376  28.006  40.378   9.302
 1338POPC   GL120377  28.236  40.020   9.126
 1338POPC   GL220378  28.573  39.925   9.131
 1338POPC   C1A20379  28.152  39.808   8.748
 1338POPC   D2A20380  28.128  40.063   8.389
 1338POPC   C3A20381  28.344  39.936   8.037
 1338POPC   C4A20382  28.268  40.099   7.626
 1338POPC   C1B20383  28.539  40.123   8.709
 1338POPC   C2B20384  28.614  40.284   8.317
 1338POPC   C3B20385  28.703  40.451   7.926
 1338POPC   C4B20386  28.737  40.238   7.537
 1339POPC   NC320387  10.639  44.135   9.531
 1339POPC   PO420388  10.342  43.584   9.603
 1339POPC   GL120389  10.369  43.805   9.212
 1339POPC   GL220390  10.235  44.107   9.226
 1339POPC   C1A20391  10.587  43.751   8.804
 1339POPC   D2A20392  10.715  43.470   8.432
 1339POPC   C3A20393  10.692  43.743   8.044
 1339POPC   C4A20394  10.840  44.081   7.733
 1339POPC   C1B20395  10.455  44.244   8.830
 1339POPC   C2B20396  10.496  44.158   8.366
 1339POPC   C3B20397  10.398  44.364   7.967
 1339POPC   C4B20398  10.415  44.260   7.534
 1340POPC   NC320399  27.157  44.160   9.420
 1340POPC   PO420400  26.617  44.654   9.532
 1340POPC   GL120401  26.747  44.398   9.207
 1340POPC   GL220402  26.510  44.128   9.247
 1340POPC   C1A20403  26.962  44.473   8.803
 1340POPC   D2A20404  26.954  44.743   8.438
 1340POPC   C3A20405  26.982  44.649   7.980
 1340POPC   C4A20406  26.791  44.828   7.581
 1340POPC   C1B20407  26.537  44.152   8.769
 1340POPC   C2B20408  26.679  44.326   8.377
 1340POPC   C3B20409  26.596  44.191   7.969
 1340POPC   C4B20410  26.647  44.357   7.587
 1341POPC   NC320411  20.464   1.313   9.478
 1341POPC   PO420412  21.041   1.524   9.307
 1341POPC   GL120413  20.765   1.250   9.048
 1341POPC   GL220414  20.394   1.138   9.018
 1341POPC   C1A20415  20.612   1.289   8.601
 1341POPC   D2A20416  20.522   1.526   8.272
 1341POPC   C3A20417  20.575   1.324   7.908
 1341POPC   C4A20418  20.835   1.142   7.629
 1341POPC   C1B20419  20.238   0.842   8.700
 1341POPC   C2B20420  20.312   0.629   8.299
 1341POPC   C3B20421  20.417   0.808   7.929
 1341POPC   C4B20422  20.312   0.920   7.532
 1342POPC   NC320423  43.216  12.225   9.553
 1342POPC   PO420424  42.820  11.750   9.358
 1342POPC   GL120425  43.189  11.994   9.111
 1342POPC   GL220426  43.507  12.242   9.150
 1342POPC   C1A20427  43.215  12.308   8.755
 1342POPC   D2A20428  43.114  12.294   8.343
 1342POPC   C3A20429  43.098  11.943   8.062
 1342POPC   C4A20430  43.082  12.143   7.669
 1342POPC   C1B20431  43.581  11.940   8.806
 1342POPC   C2B20432  43.518  11.962   8.354
 1342POPC   C3B20433  43.561  12.052   7.885
 1342POPC   C4B20434  43.592  11.959   7.396
 1343POPC   NC320435   5.391   7.929   9.574
 1343POPC   PO420436   4.871   8.322   9.505
 1343POPC   GL120437   5.064   8.410   9.129
 1343POPC   GL220438   5.213   8.085   9.127
 1343POPC   C1A20439   4.994   8.264   8.704
 1343POPC   D2A20440   4.866   8.095   8.309
 1343POPC   C3A20441   4.955   8.383   7.951
 1343POPC   C4A20442   4.746   8.269   7.556
 1343POPC   C1B20443   5.489   8.020   8.774
 1343POPC   C2B20444   5.379   8.041   8.380
 1343POPC   C3B20445   5.553   8.004   8.011
 1343POPC   C4B20446   5.484   8.099   7.588
 1344POPC   NC320447  26.554   2.481   9.462
 1344POPC   PO420448  27.192   2.820   9.426
 1344POPC   GL120449  26.938   2.755   9.084
 1344POPC   GL220450  26.716   2.989   9.143
 1344POPC   C1A20451  26.952   2.994   8.667
 1344POPC   D2A20452  26.902   3.180   8.240
 1344POPC   C3A20453  26.958   2.860   7.925
 1344POPC   C4A20454  26.675   2.477   7.901
 1344POPC   C1B20455  26.467   2.846   8.823
 1344POPC   C2B20456  26.447   2.994   8.395
 1344POPC   C3B20457  26.453   2.931   7.975
 1344POPC   C4B20458  26.574   2.861   7.554
 1345POPC   NC320459  10.406  23.543   9.652
 1345POPC   PO420460  10.881  23.962   9.598
 1345POPC   GL120461  10.649  23.809   9.225
 1345POPC   GL220462  10.702  23.432   9.222
 1345POPC   C1A20463  10.369  23.712   8.829
 1345POPC   D2A20464  10.440  23.507   8.400
 1345POPC   C3A20465  10.257  23.525   7.940
 1345POPC   C4A20466  10.240  23.870   7.591
 1345POPC   C1B20467  10.878  23.574   8.817
 1345POPC   C2B20468  10.873  23.798   8.408
 1345POPC   C3B20469  10.842  23.564   8.010
 1345POPC   C4B20470  11.002  23.493   7.559
 1346POPC   NC320471   6.018  21.382   9.536
 1346POPC   PO420472   5.468  21.785   9.508
 1346POPC   GL120473   5.640  21.718   9.099
 1346POPC   GL220474   5.791  21.396   9.072
 1346POPC   C1A20475   5.809  21.709   8.661
 1346POPC   D2A20476   6.188  21.730   8.400
 1346POPC   C3A20477   5.999  21.756   8.019
 1346POPC   C4A20478   5.654  21.522   7.888
 1346POPC   C1B20479   5.614  21.212   8.688
 1346POPC   C2B20480   5.653  21.154   8.238
 1346POPC   C3B20481   6.048  21.255   8.010
 1346POPC   C4B20482   6.230  21.155   7.609
 1347POPC   NC320483  43.481  42.473   9.514
 1347POPC   PO420484  42.797  42.162   9.468
 1347POPC   GL120485  43.039  42.227   9.101
 1347POPC   GL220486  43.304  42.449   9.063
 1347POPC   C1A20487  42.960  42.427   8.695
 1347POPC   D2A20488  42.825  42.366   8.287
 1347POPC   C3A20489  43.132  42.485   7.992
 1347POPC   C4A20490  43.451  42.668   7.828
 1347POPC   C1B20491  43.411  42.141   8.763
 1347POPC   C2B20492  43.340  42.210   8.354
 1347POPC   C3B20493  43.565  42.199   7.960
 1347POPC   C4B20494  43.751  42.342   7.542
 1348POPC   NC320495   0.015   6.871   9.529
 1348POPC   PO420496  44.653   7.440   9.674
 1348POPC   GL120497  44.606   7.447   9.243
 1348POPC   GL220498  44.627   7.081   9.220
 1348POPC   C1A20499  44.729   7.580   8.828
 1348POPC   D2A20500  44.795   7.792   8.445
 1348POPC   C3A20501  44.717   7.645   8.059
 1348POPC   C4A20502  44.721   7.851   7.678
 1348POPC   C1B20503  44.885   7.083   8.866
 1348POPC   C2B20504  44.929   7.256   8.432
 1348POPC   C3B20505  44.846   7.155   7.976
 1348POPC   C4B20506   0.049   7.026   7.561
 1349POPC   NC320507  35.632  27.478   9.597
 1349POPC   PO420508  35.230  27.254   9.323
 1349POPC   GL120509  35.570  27.425   9.056
 1349POPC   GL220510  35.595  27.774   9.137
 1349POPC   C1A20511  35.575  27.449   8.583
 1349POPC   D2A20512  35.175  27.590   8.381
 1349POPC   C3A20513  35.174  27.617   7.940
 1349POPC   C4A20514  35.514  27.506   7.705
 1349POPC   C1B20515  35.595  27.936   8.686
 1349POPC   C2B20516  35.564  27.884   8.212
 1349POPC   C3B20517  35.791  27.951   7.804
 1349POPC   C4B20518  35.856  28.240   7.448
 1350POPC   NC320519  17.454  29.613   9.579
 1350POPC   PO420520  17.695  30.154   9.787
 1350POPC   GL120521  17.452  29.997   9.265
 1350POPC   GL220522  17.225  29.678   9.118
 1350POPC   C1A20523  17.612  29.811   8.828
 1350POPC   D2A20524  17.833  29.733   8.448
 1350POPC   C3A20525  17.699  29.962   8.104
 1350POPC   C4A20526  17.682  29.837   7.716
 1350POPC   C1B20527  17.106  29.911   8.774
 1350POPC   C2B20528  17.246  29.847   8.374
 1350POPC   C3B20529  17.233  29.814   7.944
 1350POPC   C4B20530  17.291  30.231   7.702
 1351POPC   NC320531  17.423  19.209   9.435
 1351POPC   PO420532  17.749  18.607   9.408
 1351POPC   GL120533  17.534  18.847   9.080
 1351POPC   GL220534  17.719  19.173   9.024
 1351POPC   C1A20535  17.281  19.046   8.736
 1351POPC   D2A20536  17.256  19.321   8.367
 1351POPC   C3A20537  17.507  19.147   8.035
 1351POPC   C4A20538  17.349  18.881   7.724
 1351POPC   C1B20539  17.771  19.274   8.604
 1351POPC   C2B20540  17.968  19.368   8.210
 1351POPC   C3B20541  17.901  19.373   7.774
 1351POPC   C4B20542  17.826  19.002   7.536
 1352POPC   NC320543  19.048   6.112   9.556
 1352POPC   PO420544  18.703   5.601   9.266
 1352POPC   GL120545  18.837   5.907   9.057
 1352POPC   GL220546  19.165   5.907   9.112
 1352POPC   C1A20547  18.865   5.973   8.637
 1352POPC   D2A20548  18.880   5.995   8.192
 1352POPC   C3A20549  18.875   5.651   7.939
 1352POPC   C4A20550  18.932   5.760   7.536
 1352POPC   C1B20551  19.378   6.055   8.730
 1352POPC   C2B20552  19.409   6.047   8.279
 1352POPC   C3B20553  19.400   5.775   7.942
 1352POPC   C4B20554  19.450   5.829   7.488
 1353POPC   NC320555  30.820  32.698   9.924
 1353POPC   PO420556  30.469  33.016   9.473
 1353POPC   GL120557  30.530  33.130   9.109
 1353POPC   GL220558  30.775  33.346   9.178
 1353POPC   C1A20559  30.732  32.899   8.806
 1353POPC   D2A20560  30.772  32.887   8.415
 1353POPC   C3A20561  30.492  32.625   8.169
 1353POPC   C4A20562  30.461  32.685   7.732
 1353POPC   C1B20563  30.784  33.414   8.724
 1353POPC   C2B20564  30.897  33.375   8.267
 1353POPC   C3B20565  30.698  33.087   7.968
 1353POPC   C4B20566  30.863  32.981   7.599
 1354POPC   NC320567  31.527   7.938   9.503
 1354POPC   PO420568  31.308   8.541   9.318
 1354POPC   GL120569  31.545   8.271   9.063
 1354POPC   GL220570  31.819   7.998   9.072
 1354POPC   C1A20571  31.441   8.387   8.653
 1354POPC   D2A20572  31.486   8.160   8.292
 1354POPC   C3A20573  31.311   8.232   7.953
 1354POPC   C4A20574  31.164   8.327   7.562
 1354POPC   C1B20575  31.907   8.184   8.680
 1354POPC   C2B20576  31.973   8.021   8.273
 1354POPC   C3B20577  31.850   8.269   7.944
 1354POPC   C4B20578  31.669   8.205   7.560
 1355POPC   NC320579   7.287   5.380   9.363
 1355POPC   PO420580   7.642   4.848   9.570
 1355POPC   GL120581   7.660   5.064   9.151
 1355POPC   GL220582   7.814   4.821   8.908
 1355POPC   C1A20583   7.478   5.360   8.776
 1355POPC   D2A20584   7.182   5.456   8.477
 1355POPC   C3A20585   7.365   5.381   8.114
 1355POPC   C4A20586   7.176   5.335   7.745
 1355POPC   C1B20587   7.363   4.863   8.780
 1355POPC   C2B20588   7.149   4.924   8.369
 1355POPC   C3B20589   7.289   4.873   7.946
 1355POPC   C4B20590   7.178   4.893   7.496
 1356POPC   NC320591   1.100   7.572   9.557
 1356POPC   PO420592   1.121   6.925   9.670
 1356POPC   GL120593   1.170   7.225   9.212
 1356POPC   GL220594   1.158   7.594   9.065
 1356POPC   C1A20595   1.265   7.222   8.752
 1356POPC   D2A20596   1.250   7.062   8.360
 1356POPC   C3A20597   1.204   7.380   8.071
 1356POPC   C4A20598   1.212   7.547   7.653
 1356POPC   C1B20599   1.521   7.732   8.793
 1356POPC   C2B20600   1.710   7.719   8.366
 1356POPC   C3B20601   1.603   7.684   7.953
 1356POPC   C4B20602   1.570   7.935   7.588
 1357POPC   NC320603  24.246  17.468   9.608
 1357POPC   PO420604  24.853  17.713   9.436
 1357POPC   GL120605  24.577  17.443   9.222
 1357POPC   GL220606  24.290  17.702   9.147
 1357POPC   C1A20607  24.380  17.311   8.843
 1357POPC   D2A20608  24.394  17.495   8.428
 1357POPC   C3A20609  24.548  17.278   8.067
 1357POPC   C4A20610  24.565  17.382   7.617
 1357POPC   C1B20611  24.048  17.737   8.742
 1357POPC   C2B20612  24.003  17.799   8.293
 1357POPC   C3B20613  24.168  17.613   7.941
 1357POPC   C4B20614  24.165  17.665   7.517
 1358POPC   NC320615  22.340  18.159   9.687
 1358POPC   PO420616  21.936  18.425   9.241
 1358POPC   GL120617  22.148  18.103   9.101
 1358POPC   GL220618  22.429  18.260   9.200
 1358POPC   C1A20619  22.066  18.124   8.651
 1358POPC   D2A20620  21.765  18.269   8.357
 1358POPC   C3A20621  21.960  18.235   7.958
 1358POPC   C4A20622  22.092  18.554   7.674
 1358POPC   C1B20623  22.469  18.416   8.774
 1358POPC   C2B20624  22.363  18.496   8.297
 1358POPC   C3B20625  22.474  18.248   7.902
 1358POPC   C4B20626  22.469  18.015   7.493
 1359POPC   NC320627   1.137  38.675   9.317
 1359POPC   PO420628   0.779  38.202   9.365
 1359POPC   GL120629   1.029  38.130   9.020
 1359POPC   GL220630   1.353  38.151   9.228
 1359POPC   C1A20631   0.903  38.414   8.659
 1359POPC   D2A20632   0.909  38.779   8.377
 1359POPC   C3A20633   0.952  38.609   7.967
 1359POPC   C4A20634   1.084  38.258   7.713
 1359POPC   C1B20635   1.524  38.083   8.865
 1359POPC   C2B20636   1.489  38.275   8.497
 1359POPC   C3B20637   1.442  38.269   8.064
 1359POPC   C4B20638   1.545  38.444   7.666
 1360POPC   NC320639  39.743   5.418   9.449
 1360POPC   PO420640  39.903   4.841   9.449
 1360POPC   GL120641  40.047   5.094   9.081
 1360POPC   GL220642  40.116   5.443   9.042
 1360POPC   C1A20643  40.130   5.158   8.615
 1360POPC   D2A20644  40.158   5.062   8.161
 1360POPC   C3A20645  39.888   5.298   7.831
 1360POPC   C4A20646  39.476   5.203   7.633
 1360POPC   C1B20647  40.493   5.504   8.764
 1360POPC   C2B20648  40.371   5.531   8.328
 1360POPC   C3B20649  40.379   5.414   7.881
 1360POPC   C4B20650  40.328   5.374   7.420
 1361POPC   NC320651  32.740  32.317   9.526
 1361POPC   PO420652  32.121  32.134   9.524
 1361POPC   GL120653  32.187  32.394   9.169
 1361POPC   GL220654  32.489  32.603   9.192
 1361POPC   C1A20655  32.103  32.459   8.746
 1361POPC   D2A20656  31.904  32.217   8.427
 1361POPC   C3A20657  32.164  32.239   8.095
 1361POPC   C4A20658  32.114  32.244   7.684
 1361POPC   C1B20659  32.599  32.337   8.836
 1361POPC   C2B20660  32.500  32.480   8.423
 1361POPC   C3B20661  32.685  32.439   8.052
 1361POPC   C4B20662  32.611  32.272   7.712
 1362POPC   NC320663   6.328  35.918   9.660
 1362POPC   PO420664   6.863  36.102   9.334
 1362POPC   GL120665   6.629  36.412   9.093
 1362POPC   GL220666   6.278  36.408   9.157
 1362POPC   C1A20667   6.538  36.417   8.674
 1362POPC   D2A20668   6.744  36.191   8.360
 1362POPC   C3A20669   6.491  36.065   8.053
 1362POPC   C4A20670   6.728  36.014   7.726
 1362POPC   C1B20671   6.367  35.991   8.927
 1362POPC   C2B20672   6.411  35.772   8.513
 1362POPC   C3B20673   6.273  35.606   8.085
 1362POPC   C4B20674   6.358  35.682   7.653
 1363POPC   NC320675  37.645  38.188   9.341
 1363POPC   PO420676  37.474  38.856   9.501
 1363POPC   GL120677  37.587  38.675   9.129
 1363POPC   GL220678  37.334  38.492   9.063
 1363POPC   C1A20679  37.694  38.521   8.716
 1363POPC   D2A20680  37.427  38.528   8.340
 1363POPC   C3A20681  37.685  38.489   7.981
 1363POPC   C4A20682  37.951  38.751   7.765
 1363POPC   C1B20683  37.342  38.154   8.714
 1363POPC   C2B20684  37.610  38.055   8.339
 1363POPC   C3B20685  37.469  38.032   7.900
 1363POPC   C4B20686  37.691  38.269   7.518
 1364POPC   NC320687  44.569   7.881   9.587
 1364POPC   PO420688  44.987   8.414   9.398
 1364POPC   GL120689  44.790   8.113   9.153
 1364POPC   GL220690  44.466   7.936   9.089
 1364POPC   C1A20691  44.700   8.230   8.741
 1364POPC   D2A20692  44.445   8.192   8.416
 1364POPC   C3A20693  44.656   8.161   8.081
 1364POPC   C4A20694  44.592   8.384   7.747
 1364POPC   C1B20695  44.234   7.839   8.725
 1364POPC   C2B20696  44.085   7.862   8.282
 1364POPC   C3B20697  44.240   7.923   7.832
 1364POPC   C4B20698  44.322   7.749   7.373
 1365POPC   NC320699  31.180  24.961   9.491
 1365POPC   PO420700  31.581  25.546   9.400
 1365POPC   GL120701  31.685  25.269   9.072
 1365POPC   GL220702  31.357  25.163   9.047
 1365POPC   C1A20703  31.714  25.254   8.620
 1365POPC   D2A20704  31.336  25.413   8.370
 1365POPC   C3A20705  31.401  25.453   7.917
 1365POPC   C4A20706  31.590  25.267   7.494
 1365POPC   C1B20707  31.344  24.925   8.664
 1365POPC   C2B20708  31.487  24.962   8.222
 1365POPC   C3B20709  31.353  24.961   7.821
 1365POPC   C4B20710  30.997  24.777   7.661
 1366POPC   NC320711   6.711  31.717   9.417
 1366POPC   PO420712   6.619  32.404   9.598
 1366POPC   GL120713   6.549  32.266   9.192
 1366POPC   GL220714   6.485  32.553   9.047
 1366POPC   C1A20715   6.650  32.048   8.835
 1366POPC   D2A20716   6.974  32.074   8.562
 1366POPC   C3A20717   6.788  32.216   8.158
 1366POPC   C4A20718   6.984  32.066   7.774
 1366POPC   C1B20719   6.300  32.393   8.672
 1366POPC   C2B20720   6.223  32.287   8.252
 1366POPC   C3B20721   6.301  32.514   7.895
 1366POPC   C4B20722   6.699  32.510   7.709
 1367POPC   NC320723  22.572  42.711   9.326
 1367POPC   PO420724  22.908  42.173   9.485
 1367POPC   GL120725  22.983  42.362   9.056
 1367POPC   GL220726  22.640  42.349   8.952
 1367POPC   C1A20727  22.966  42.350   8.572
 1367POPC   D2A20728  22.724  42.224   8.266
 1367POPC   C3A20729  22.981  42.216   7.930
 1367POPC   C4A20730  22.873  42.334   7.530
 1367POPC   C1B20731  22.705  42.750   8.697
 1367POPC   C2B20732  22.571  42.830   8.287
 1367POPC   C3B20733  22.619  42.625   7.899
 1367POPC   C4B20734  22.470  42.198   7.806
 1368POPC   NC320735  15.417  32.550   9.418
 1368POPC   PO420736  15.301  33.254   9.478
 1368POPC   GL120737  15.428  33.019   9.148
 1368POPC   GL220738  15.114  32.823   9.103
 1368POPC   C1A20739  15.412  32.935   8.711
 1368POPC   D2A20740  15.412  33.164   8.339
 1368POPC   C3A20741  15.387  32.986   7.933
 1368POPC   C4A20742  15.006  33.151   7.862
 1368POPC   C1B20743  14.812  32.909   8.739
 1368POPC   C2B20744  14.711  32.964   8.286
 1368POPC   C3B20745  14.723  32.719   7.912
 1368POPC   C4B20746  14.784  32.826   7.491
 1369POPC   NC320747   6.489  38.760   9.368
 1369POPC   PO420748   6.804  38.311   9.638
 1369POPC   GL120749   6.685  38.268   9.189
 1369POPC   GL220750   6.974  38.111   9.121
 1369POPC   C1A20751   6.443  38.338   8.787
 1369POPC   D2A20752   6.534  38.567   8.401
 1369POPC   C3A20753   6.402  38.463   7.963
 1369POPC   C4A20754   6.258  38.609   7.512
 1369POPC   C1B20755   6.991  38.368   8.757
 1369POPC   C2B20756   7.049  38.506   8.340
 1369POPC   C3B20757   6.983  38.379   7.922
 1369POPC   C4B20758   6.700  38.405   7.551
 1370POPC   NC320759  23.595  27.269   9.661
 1370POPC   PO420760  24.035  27.698   9.392
 1370POPC   GL120761  23.867  27.403   9.185
 1370POPC   GL220762  23.528  27.471   9.204
 1370POPC   C1A20763  24.018  27.457   8.767
 1370POPC   D2A20764  23.890  27.717   8.435
 1370POPC   C3A20765  23.998  27.424   8.147
 1370POPC   C4A20766  23.937  27.455   7.735
 1370POPC   C1B20767  23.522  27.636   8.809
 1370POPC   C2B20768  23.444  27.462   8.409
 1370POPC   C3B20769  23.551  27.614   8.018
 1370POPC   C4B20770  23.422  27.475   7.632
 1371POPC   NC320771  22.277   4.179   9.533
 1371POPC   PO420772  21.722   4.466   9.440
 1371POPC   GL120773  22.017   4.389   9.147
 1371POPC   GL220774  21.985   3.997   9.137
 1371POPC   C1A20775  22.375   4.585   8.894
 1371POPC   D2A20776  22.697   4.527   8.570
 1371POPC   C3A20777  22.501   4.547   8.180
 1371POPC   C4A20778  22.201   4.312   7.921
 1371POPC   C1B20779  22.177   4.135   8.752
 1371POPC   C2B20780  22.348   4.085   8.378
 1371POPC   C3B20781  22.196   3.821   8.041
 1371POPC   C4B20782  22.025   3.906   7.646
 1372POPC   NC320783  40.937  26.366   9.291
 1372POPC   PO420784  40.621  26.874   9.636
 1372POPC   GL120785  40.740  26.827   9.154
 1372POPC   GL220786  40.714  26.531   8.883
 1372POPC   C1A20787  40.895  26.994   8.739
 1372POPC   D2A20788  40.861  27.076   8.314
 1372POPC   C3A20789  40.810  26.769   8.003
 1372POPC   C4A20790  40.586  26.738   7.582
 1372POPC   C1B20791  41.165  26.547   8.736
 1372POPC   C2B20792  41.402  26.515   8.381
 1372POPC   C3B20793  41.210  26.451   7.992
 1372POPC   C4B20794  41.066  26.616   7.593
 1373POPC   NC320795   8.670  33.293   9.373
 1373POPC   PO420796   9.226  32.920   9.496
 1373POPC   GL120797   9.049  33.041   9.112
 1373POPC   GL220798   9.320  33.233   9.044
 1373POPC   C1A20799   8.888  33.014   8.671
 1373POPC   D2A20800   8.902  33.325   8.319
 1373POPC   C3A20801   8.834  33.283   7.886
 1373POPC   C4A20802   8.742  32.951   7.608
 1373POPC   C1B20803   9.379  32.913   8.727
 1373POPC   C2B20804   9.321  32.941   8.296
 1373POPC   C3B20805   9.168  32.878   7.879
 1373POPC   C4B20806   9.384  32.661   7.543
 1374POPC   NC320807  36.633  13.284   9.405
 1374POPC   PO420808  37.066  13.802   9.370
 1374POPC   GL120809  37.071  13.693   9.007
 1374POPC   GL220810  36.699  13.635   9.011
 1374POPC   C1A20811  37.027  13.702   8.599
 1374POPC   D2A20812  36.639  13.714   8.420
 1374POPC   C3A20813  36.720  13.848   8.048
 1374POPC   C4A20814  36.777  13.668   7.682
 1374POPC   C1B20815  36.403  13.389   8.769
 1374POPC   C2B20816  36.245  13.382   8.372
 1374POPC   C3B20817  36.502  13.376   8.021
 1374POPC   C4B20818  36.444  13.286   7.625
 1375POPC   NC320819  22.228  22.235   9.634
 1375POPC   PO420820  22.140  21.821   9.090
 1375POPC   GL120821  22.034  22.270   9.069
 1375POPC   GL220822  22.313  22.487   8.904
 1375POPC   C1A20823  21.848  22.408   8.698
 1375POPC   D2A20824  22.037  22.537   8.301
 1375POPC   C3A20825  21.911  22.377   7.906
 1375POPC   C4A20826  22.135  22.166   7.553
 1375POPC   C1B20827  22.326  22.219   8.580
 1375POPC   C2B20828  22.285  21.839   8.384
 1375POPC   C3B20829  22.229  21.891   7.961
 1375POPC   C4B20830  22.482  21.772   7.634
 1376POPC   NC320831  34.709   6.227   9.646
 1376POPC   PO420832  34.943   6.841   9.682
 1376POPC   GL120833  34.775   6.761   9.256
 1376POPC   GL220834  34.969   6.596   9.019
 1376POPC   C1A20835  34.460   6.606   8.948
 1376POPC   D2A20836  34.276   6.489   8.529
 1376POPC   C3A20837  34.290   6.738   8.148
 1376POPC   C4A20838  34.476   6.754   7.728
 1376POPC   C1B20839  34.866   6.948   8.757
 1376POPC   C2B20840  34.757   7.007   8.345
 1376POPC   C3B20841  34.794   6.679   8.103
 1376POPC   C4B20842  34.996   6.853   7.778
 1377POPC   NC320843  19.947  38.139   9.438
 1377POPC   PO420844  19.631  37.637   9.625
 1377POPC   GL120845  19.720  37.746   9.170
 1377POPC   GL220846  19.635  38.091   9.037
 1377POPC   C1A20847  19.814  37.778   8.688
 1377POPC   D2A20848  20.048  37.772   8.272
 1377POPC   C3A20849  19.990  37.593   7.840
 1377POPC   C4A20850  20.231  37.494   7.423
 1377POPC   C1B20851  19.317  37.858   8.897
 1377POPC   C2B20852  19.330  37.771   8.486
 1377POPC   C3B20853  19.558  37.786   8.132
 1377POPC   C4B20854  19.485  37.756   7.739
 1378POPC   NC320855  27.468  29.637   9.588
 1378POPC   PO420856  27.545  28.972   9.478
 1378POPC   GL120857  27.493  29.122   9.094
 1378POPC   GL220858  27.426  29.478   9.091
 1378POPC   C1A20859  27.448  28.957   8.726
 1378POPC   D2A20860  27.651  29.075   8.356
 1378POPC   C3A20861  27.475  28.929   7.995
 1378POPC   C4A20862  27.768  29.010   7.701
 1378POPC   C1B20863  27.749  29.437   8.758
 1378POPC   C2B20864  27.770  29.588   8.326
 1378POPC   C3B20865  27.652  29.488   7.902
 1378POPC   C4B20866  27.828  29.442   7.471
 1379POPC   NC320867  43.370   1.437   9.613
 1379POPC   PO420868  42.720   1.151   9.513
 1379POPC   GL120869  42.953   1.434   9.254
 1379POPC   GL220870  43.228   1.261   9.155
 1379POPC   C1A20871  42.974   1.525   8.803
 1379POPC   D2A20872  43.091   1.327   8.421
 1379POPC   C3A20873  43.071   1.491   8.001
 1379POPC   C4A20874  43.092   1.291   7.606
 1379POPC   C1B20875  43.037   0.971   8.839
 1379POPC   C2B20876  42.932   0.839   8.413
 1379POPC   C3B20877  43.096   0.973   8.040
 1379POPC   C4B20878  42.944   0.821   7.695
 1380POPC   NC320879   1.884  43.785   9.428
 1380POPC   PO420880   2.385  44.295   9.474
 1380POPC   GL120881   2.135  44.073   9.093
 1380POPC   GL220882   2.246  43.743   9.016
 1380POPC   C1A20883   2.026  44.020   8.630
 1380POPC   D2A20884   2.264  43.808   8.289
 1380POPC   C3A20885   2.021  43.833   7.907
 1380POPC   C4A20886   1.926  44.151   7.631
 1380POPC   C1B20887   1.855  43.563   8.801
 1380POPC   C2B20888   1.776  43.623   8.358
 1380POPC   C3B20889   2.067  43.356   8.111
 1380POPC   C4B20890   2.296  43.418   7.728
 1381POPC   NC320891  42.718  14.835   9.406
 1381POPC   PO420892  43.412  14.832   9.175
 1381POPC   GL120893  43.218  15.165   8.994
 1381POPC   GL220894  42.923  15.225   9.126
 1381POPC   C1A20895  43.116  15.436   8.672
 1381POPC   D2A20896  43.046  15.195   8.331
 1381POPC   C3A20897  43.292  15.249   8.029
 1381POPC   C4A20898  43.162  15.496   7.699
 1381POPC   C1B20899  42.717  15.107   8.719
 1381POPC   C2B20900  42.554  15.284   8.291
 1381POPC   C3B20901  42.697  15.030   7.921
 1381POPC   C4B20902  43.073  14.967   7.676
 1382POPC   NC320903   1.500   9.516   9.471
 1382POPC   PO420904   0.894   9.707   9.197
 1382POPC   GL120905   1.335   9.726   9.042
 1382POPC   GL220906   1.460  10.089   8.987
 1382POPC   C1A20907   1.516   9.378   8.789
 1382POPC   D2A20908   1.401   9.264   8.360
 1382POPC   C3A20909   1.236   9.640   8.173
 1382POPC   C4A20910   1.403   9.798   7.800
 1382POPC   C1B20911   1.310   9.949   8.586
 1382POPC   C2B20912   0.936  10.035   8.346
 1382POPC   C3B20913   0.970  10.041   7.901
 1382POPC   C4B20914   1.139  10.057   7.471
 1383POPC   NC320915   6.026   4.289   9.906
 1383POPC   PO420916   5.956   4.489   9.278
 1383POPC   GL120917   6.052   4.276   8.971
 1383POPC   GL220918   5.886   4.005   9.117
 1383POPC   C1A20919   5.931   4.438   8.598
 1383POPC   D2A20920   5.678   4.606   8.305
 1383POPC   C3A20921   5.903   4.412   7.985
 1383POPC   C4A20922   5.921   4.020   7.823
 1383POPC   C1B20923   5.685   3.957   8.743
 1383POPC   C2B20924   5.615   4.074   8.327
 1383POPC   C3B20925   5.384   4.277   8.046
 1383POPC   C4B20926   5.464   4.227   7.661
 1384POPC   NC320927  28.542  44.020   9.530
 1384POPC   PO420928  27.951  43.683   9.456
 1384POPC   GL120929  28.306  43.714   9.153
 1384POPC   GL220930  28.332  44.061   9.072
 1384POPC   C1A20931  28.215  43.785   8.680
 1384POPC   D2A20932  28.275  44.031   8.357
 1384POPC   C3A20933  28.321  43.805   8.048
 1384POPC   C4A20934  28.411  43.984   7.709
 1384POPC   C1B20935  28.650  44.035   8.728
 1384POPC   C2B20936  28.720  43.752   8.387
 1384POPC   C3B20937  28.824  43.895   7.980
 1384POPC   C4B20938  28.931  44.309   7.854
 1385POPC   NC320939  21.283   8.810   9.527
 1385POPC   PO420940  21.466   9.364   9.253
 1385POPC   GL120941  21.480   9.107   8.921
 1385POPC   GL220942  21.440   8.775   9.034
 1385POPC   C1A20943  21.230   9.016   8.581
 1385POPC   D2A20944  21.040   9.228   8.250
 1385POPC   C3A20945  21.343   9.367   7.948
 1385POPC   C4A20946  21.539   9.017   7.707
 1385POPC   C1B20947  21.330   8.522   8.680
 1385POPC   C2B20948  21.260   8.595   8.241
 1385POPC   C3B20949  21.089   8.612   7.824
 1385POPC   C4B20950  21.294   8.676   7.412
 1386POPC   NC320951   1.539  26.625   9.570
 1386POPC   PO420952   1.110  27.107   9.551
 1386POPC   GL120953   1.209  26.858   9.196
 1386POPC   GL220954   1.050  26.518   9.259
 1386POPC   C1A20955   1.401  26.958   8.785
 1386POPC   D2A20956   1.451  27.264   8.444
 1386POPC   C3A20957   1.401  27.132   8.012
 1386POPC   C4A20958   1.248  26.804   7.749
 1386POPC   C1B20959   1.269  26.451   8.894
 1386POPC   C2B20960   1.286  26.495   8.475
 1386POPC   C3B20961   1.128  26.407   8.070
 1386POPC   C4B20962   1.112  26.277   7.665
 1387POPC   NC320963  43.473  31.571   9.483
 1387POPC   PO420964  42.908  31.332   9.504
 1387POPC   GL120965  43.041  31.596   9.168
 1387POPC   GL220966  43.224  31.912   9.217
 1387POPC   C1A20967  43.239  31.511   8.774
 1387POPC   D2A20968  43.383  31.316   8.376
 1387POPC   C3A20969  43.151  31.283   7.970
 1387POPC   C4A20970  42.882  31.284   7.588
 1387POPC   C1B20971  43.318  32.017   8.812
 1387POPC   C2B20972  43.427  31.835   8.414
 1387POPC   C3B20973  43.275  31.824   8.012
 1387POPC   C4B20974  43.311  31.627   7.629
 1388POPC   NC320975  21.863   5.715   9.526
 1388POPC   PO420976  22.471   5.490   9.780
 1388POPC   GL120977  22.338   5.805   9.302
 1388POPC   GL220978  22.011   5.832   9.065
 1388POPC   C1A20979  22.386   6.012   8.817
 1388POPC   D2A20980  22.061   5.942   8.443
 1388POPC   C3A20981  22.142   6.064   7.999
 1388POPC   C4A20982  22.523   6.136   7.751
 1388POPC   C1B20983  22.165   5.541   8.742
 1388POPC   C2B20984  22.138   5.434   8.315
 1388POPC   C3B20985  22.129   5.547   7.877
 1388POPC   C4B20986  22.017   5.578   7.437
 1389POPC   NC320987  42.673  16.538   9.486
 1389POPC   PO420988  43.153  16.997   9.626
 1389POPC   GL120989  43.062  16.777   9.220
 1389POPC   GL220990  43.370  16.853   9.063
 1389POPC   C1A20991  43.065  16.405   8.937
 1389POPC   D2A20992  43.332  16.319   8.591
 1389POPC   C3A20993  43.098  16.376   8.211
 1389POPC   C4A20994  43.118  16.512   7.811
 1389POPC   C1B20995  43.206  16.833   8.668
 1389POPC   C2B20996  42.997  16.934   8.313
 1389POPC   C3B20997  43.176  17.010   7.904
 1389POPC   C4B20998  43.381  17.139   7.525
 1390POPC   NC320999  34.638  15.465   9.488
 1390POPC   PO421000  34.438  14.809   9.563
 1390POPC   GL121001  34.361  15.097   9.226
 1390POPC   GL221002  34.669  15.182   9.082
 1390POPC   C1A21003  34.285  15.213   8.777
 1390POPC   D2A21004  34.371  15.369   8.365
 1390POPC   C3A21005  34.251  15.065   8.047
 1390POPC   C4A21006  34.430  15.154   7.645
 1390POPC   C1B21007  34.772  15.359   8.694
 1390POPC   C2B21008  34.878  15.315   8.268
 1390POPC   C3B21009  34.805  15.450   7.853
 1390POPC   C4B21010  34.841  15.350   7.400
 1391POPC   NC321011  15.388  39.607   9.402
 1391POPC   PO421012  15.103  40.151   9.586
 1391POPC   GL121013  15.224  40.046   9.167
 1391POPC   GL221014  15.049  39.737   9.046
 1391POPC   C1A21015  15.112  40.179   8.758
 1391POPC   D2A21016  15.116  40.002   8.361
 1391POPC   C3A21017  14.925  40.122   7.984
 1391POPC   C4A21018  15.147  40.127   7.616
 1391POPC   C1B21019  15.394  39.750   8.742
 1391POPC   C2B21020  15.406  39.576   8.309
 1391POPC   C3B21021  15.338  39.728   7.900
 1391POPC   C4B21022  15.019  39.657   7.581
 1392POPC   NC321023  10.502  24.256   9.480
 1392POPC   PO421024  10.954  24.686   9.573
 1392POPC   GL121025  10.731  24.715   9.127
 1392POPC   GL221026  10.477  24.442   9.026
 1392POPC   C1A21027  10.608  24.751   8.656
 1392POPC   D2A21028  10.683  24.876   8.239
 1392POPC   C3A21029  10.425  24.755   7.914
 1392POPC   C4A21030  10.394  24.365   7.731
 1392POPC   C1B21031  10.351  24.245   8.654
 1392POPC   C2B21032  10.229  24.287   8.230
 1392POPC   C3B21033  10.453  23.966   8.053
 1392POPC   C4B21034  10.752  23.983   7.733
 1393POPC   NC321035  18.228   2.914   9.491
 1393POPC   PO421036  18.517   2.355   9.735
 1393POPC   GL121037  18.357   2.468   9.257
 1393POPC   GL221038  18.486   2.264   9.015
 1393POPC   C1A21039  18.172   2.711   8.825
 1393POPC   D2A21040  18.225   3.039   8.446
 1393POPC   C3A21041  18.118   2.978   8.012
 1393POPC   C4A21042  18.457   2.848   7.737
 1393POPC   C1B21043  18.460   2.359   8.583
 1393POPC   C2B21044  18.299   2.556   8.220
 1393POPC   C3B21045  18.121   2.496   7.808
 1393POPC   C4B21046  18.256   2.532   7.374
 1394POPC   NC321047  44.216  37.583   9.390
 1394POPC   PO421048  44.898  37.753   9.511
 1394POPC   GL121049  44.652  37.575   9.156
 1394POPC   GL221050  44.559  37.874   9.119
 1394POPC   C1A21051  44.293  37.672   8.754
 1394POPC   D2A21052  44.360  37.497   8.360
 1394POPC   C3A21053  44.298  37.693   7.973
 1394POPC   C4A21054  44.470  37.636   7.566
 1394POPC   C1B21055  44.785  37.727   8.701
 1394POPC   C2B21056  44.821  37.880   8.298
 1394POPC   C3B21057  44.823  37.762   7.889
 1394POPC   C4B21058  44.789  38.012   7.497
 1395POPC   NC321059  35.259  22.615   9.423
 1395POPC   PO421060  35.225  23.262   9.520
 1395POPC   GL121061  35.335  23.069   9.128
 1395POPC   GL221062  35.073  22.839   8.996
 1395POPC   C1A21063  35.604  23.095   8.771
 1395POPC   D2A21064  35.526  22.926   8.415
 1395POPC   C3A21065  35.639  23.121   8.102
 1395POPC   C4A21066  35.353  23.099   7.795
 1395POPC   C1B21067  35.351  22.569   8.749
 1395POPC   C2B21068  35.518  22.423   8.348
 1395POPC   C3B21069  35.548  22.629   7.949
 1395POPC   C4B21070  35.121  22.629   7.819
 1396POPC   NC321071  11.494  21.488   9.373
 1396POPC   PO421072  10.869  21.354   9.358
 1396POPC   GL121073  11.157  21.340   9.021
 1396POPC   GL221074  11.359  21.660   8.935
 1396POPC   C1A21075  11.200  21.334   8.587
 1396POPC   D2A21076  10.962  21.439   8.269
 1396POPC   C3A21077  11.256  21.395   7.989
 1396POPC   C4A21078  11.243  21.251   7.603
 1396POPC   C1B21079  11.066  21.809   8.649
 1396POPC   C2B21080  11.304  21.840   8.265
 1396POPC   C3B21081  11.361  21.857   7.819
 1396POPC   C4B21082  10.993  21.729   7.692
 1397POPC   NC321083  40.067   6.958   9.334
 1397POPC   PO421084  40.517   6.667   9.710
 1397POPC   GL121085  40.488   6.585   9.235
 1397POPC   GL221086  40.210   6.385   9.082
 1397POPC   C1A21087  40.422   6.746   8.801
 1397POPC   D2A21088  40.485   6.567   8.402
 1397POPC   C3A21089  40.137   6.622   8.121
 1397POPC   C4A21090  40.186   6.867   7.767
 1397POPC   C1B21091  39.912   6.599   8.786
 1397POPC   C2B21092  39.656   6.543   8.432
 1397POPC   C3B21093  39.591   6.644   8.010
 1397POPC   C4B21094  39.819   6.472   7.678
 1398POPC   NC321095  26.960  10.947   9.871
 1398POPC   PO421096  26.577  10.512   9.450
 1398POPC   GL121097  26.868  10.355   9.162
 1398POPC   GL221098  26.643  10.133   9.006
 1398POPC   C1A21099  27.033  10.581   8.810
 1398POPC   D2A21100  26.760  10.708   8.535
 1398POPC   C3A21101  26.932  10.554   8.188
 1398POPC   C4A21102  27.054  10.714   7.821
 1398POPC   C1B21103  26.353  10.180   8.668
 1398POPC   C2B21104  26.403  10.419   8.304
 1398POPC   C3B21105  26.560  10.320   7.891
 1398POPC   C4B21106  26.789  10.366   7.516
 1399POPC   NC321107  30.319  13.074   9.401
 1399POPC   PO421108  30.961  12.743   9.399
 1399POPC   GL121109  30.767  12.593   9.027
 1399POPC   GL221110  30.404  12.615   9.094
 1399POPC   C1A21111  30.700  12.738   8.601
 1399POPC   D2A21112  30.557  12.590   8.186
 1399POPC   C3A21113  30.783  12.753   7.853
 1399POPC   C4A21114  30.879  13.205   7.824
 1399POPC   C1B21115  30.266  12.923   8.781
 1399POPC   C2B21116  30.239  12.963   8.334
 1399POPC   C3B21117  30.302  12.948   7.883
 1399POPC   C4B21118  30.515  13.016   7.471
 1400POPC   NC321119  21.087   1.949   9.515
 1400POPC   PO421120  20.441   1.777   9.585
 1400POPC   GL121121  20.624   1.778   9.171
 1400POPC   GL221122  20.829   2.083   9.107
 1400POPC   C1A21123  20.726   1.768   8.735
 1400POPC   D2A21124  20.674   2.014   8.374
 1400POPC   C3A21125  20.761   1.841   7.975
 1400POPC   C4A21126  20.563   2.130   7.728
 1400POPC   C1B21127  20.972   2.255   8.705
 1400POPC   C2B21128  21.152   2.094   8.269
 1400POPC   C3B21129  21.063   2.209   7.812
 1400POPC   C4B21130  21.287   2.290   7.423
 1401POPC   NC321131  35.428  43.997   9.726
 1401POPC   PO421132  35.141  43.453   9.460
 1401POPC   GL121133  35.308  43.768   9.185
 1401POPC   GL221134  35.622  43.680   8.992
 1401POPC   C1A21135  35.282  44.054   8.834
 1401POPC   D2A21136  35.206  44.180   8.409
 1401POPC   C3A21137  35.451  44.023   8.066
 1401POPC   C4A21138  35.339  44.080   7.628
 1401POPC   C1B21139  35.421  43.581   8.629
 1401POPC   C2B21140  35.049  43.661   8.381
 1401POPC   C3B21141  34.995  43.780   7.942
 1401POPC   C4B21142  35.090  43.587   7.526
 1402POPC   NC321143   0.261   8.721   9.605
 1402POPC   PO421144   0.788   8.528   9.208
 1402POPC   GL121145   0.430   8.828   9.127
 1402POPC   GL221146   0.671   9.064   9.053
 1402POPC   C1A21147   0.278   9.091   8.752
 1402POPC   D2A21148   0.474   9.123   8.314
 1402POPC   C3A21149   0.273   9.003   7.959
 1402POPC   C4A21150   0.307   8.685   7.650
 1402POPC   C1B21151   0.644   8.762   8.650
 1402POPC   C2B21152   0.594   8.572   8.251
 1402POPC   C3B21153   0.737   8.749   7.904
 1402POPC   C4B21154   0.904   8.977   7.575
 1403POPC   NC321155   0.986  25.691   9.497
 1403POPC   PO421156   1.346  26.209   9.523
 1403POPC   GL121157   1.393  25.997   9.118
 1403POPC   GL221158   1.068  25.979   9.100
 1403POPC   C1A21159   1.307  26.007   8.642
 1403POPC   D2A21160   1.470  26.063   8.201
 1403POPC   C3A21161   1.494  25.957   7.750
 1403POPC   C4A21162   1.458  26.051   7.302
 1403POPC   C1B21163   0.906  25.717   8.781
 1403POPC   C2B21164   0.861  25.902   8.380
 1403POPC   C3B21165   1.026  25.886   7.986
 1403POPC   C4B21166   0.845  25.743   7.613
 1404POPC   NC321167  12.552  26.037   9.473
 1404POPC   PO421168  13.199  25.861   9.476
 1404POPC   GL121169  12.962  26.000   9.159
 1404POPC   GL221170  12.751  25.734   9.123
 1404POPC   C1A21171  12.830  26.183   8.782
 1404POPC   D2A21172  12.634  26.104   8.375
 1404POPC   C3A21173  12.843  26.167   7.975
 1404POPC   C4A21174  12.629  26.055   7.528
 1404POPC   C1B21175  12.868  25.643   8.730
 1404POPC   C2B21176  12.753  25.590   8.330
 1404POPC   C3B21177  12.551  25.754   7.982
 1404POPC   C4B21178  12.927  25.740   7.733
 1405POPC   NC321179  36.811  14.177   9.276
 1405POPC   PO421180  36.940  14.686   9.654
 1405POPC   GL121181  37.017  14.614   9.183
 1405POPC   GL221182  37.297  14.336   9.128
 1405POPC   C1A21183  36.919  14.716   8.741
 1405POPC   D2A21184  37.082  14.558   8.342
 1405POPC   C3A21185  36.885  14.440   7.985
 1405POPC   C4A21186  36.965  14.638   7.617
 1405POPC   C1B21187  37.217  14.200   8.688
 1405POPC   C2B21188  37.201  14.043   8.223
 1405POPC   C3B21189  37.115  14.028   7.778
 1405POPC   C4B21190  36.753  14.180   7.530
 1406POPC   NC321191  13.418   5.258   9.497
 1406POPC   PO421192  14.044   4.972   9.514
 1406POPC   GL121193  13.719   4.983   9.195
 1406POPC   GL221194  13.630   5.337   9.046
 1406POPC   C1A21195  13.666   4.924   8.768
 1406POPC   D2A21196  13.813   5.303   8.550
 1406POPC   C3A21197  14.096   5.162   8.280
 1406POPC   C4A21198  13.972   4.859   7.963
 1406POPC   C1B21199  13.308   5.290   8.722
 1406POPC   C2B21200  13.352   5.006   8.362
 1406POPC   C3B21201  13.267   5.138   7.956
 1406POPC   C4B21202  13.304   5.427   7.641
 1407POPC   NC321203  20.385  44.212   9.558
 1407POPC   PO421204  20.395  43.645   9.906
 1407POPC   GL121205  20.397  43.733   9.359
 1407POPC   GL221206  20.727  43.780   9.140
 1407POPC   C1A21207  20.315  43.938   8.897
 1407POPC   D2A21208  20.652  43.959   8.572
 1407POPC   C3A21209  20.514  43.943   8.144
 1407POPC   C4A21210  20.409  44.282   7.854
 1407POPC   C1B21211  20.514  43.505   8.794
 1407POPC   C2B21212  20.349  43.476   8.345
 1407POPC   C3B21213  20.504  43.480   7.899
 1407POPC   C4B21214  20.451  43.499   7.399
 1408POPC   NC321215  29.317  10.041   9.537
 1408POPC   PO421216  29.066  10.718   9.366
 1408POPC   GL121217  29.204  10.406   9.072
 1408POPC   GL221218  29.514  10.174   9.077
 1408POPC   C1A21219  29.334  10.594   8.675
 1408POPC   D2A21220  29.644  10.828   8.431
 1408POPC   C3A21221  29.356  10.880   8.081
 1408POPC   C4A21222  29.177  10.518   7.804
 1408POPC   C1B21223  29.314  10.091   8.680
 1408POPC   C2B21224  29.257  10.249   8.277
 1408POPC   C3B21225  29.400  10.081   7.950
 1408POPC   C4B21226  29.249   9.902   7.627
 1409POPC   NC321227  27.200  38.544   9.516
 1409POPC   PO421228  27.858  38.707   9.570
 1409POPC   GL121229  27.612  38.546   9.204
 1409POPC   GL221230  27.398  38.795   9.112
 1409POPC   C1A21231  27.632  38.523   8.721
 1409POPC   D2A21232  27.704  38.743   8.280
 1409POPC   C3A21233  27.523  38.460   7.952
 1409POPC   C4A21234  27.708  38.064   7.821
 1409POPC   C1B21235  27.185  38.828   8.724
 1409POPC   C2B21236  27.204  38.690   8.315
 1409POPC   C3B21237  27.266  38.900   7.914
 1409POPC   C4B21238  27.471  38.830   7.444
 1410POPC   NC321239  23.481  40.281   9.758
 1410POPC   PO421240  23.870  40.808   9.394
 1410POPC   GL121241  23.592  40.788   9.037
 1410POPC   GL221242  23.514  41.102   8.903
 1410POPC   C1A21243  23.412  40.682   8.626
 1410POPC   D2A21244  23.659  40.872   8.294
 1410POPC   C3A21245  23.854  40.634   7.962
 1410POPC   C4A21246  23.493  40.704   7.720
 1410POPC   C1B21247  23.946  40.982   8.730
 1410POPC   C2B21248  24.165  40.937   8.347
 1410POPC   C3B21249  24.022  41.119   7.976
 1410POPC   C4B21250  23.865  41.025   7.560
 1411POPC   NC321251  29.368  12.836   9.597
 1411POPC   PO421252  29.999  12.759   9.470
 1411POPC   GL121253  29.891  12.619   9.063
 1411POPC   GL221254  29.577  12.659   9.139
 1411POPC   C1A21255  29.897  12.639   8.615
 1411POPC   D2A21256  30.054  12.478   8.233
 1411POPC   C3A21257  29.870  12.619   7.861
 1411POPC   C4A21258  30.035  12.791   7.476
 1411POPC   C1B21259  29.532  12.957   8.790
 1411POPC   C2B21260  29.736  13.062   8.370
 1411POPC   C3B21261  29.799  13.115   7.906
 1411POPC   C4B21262  29.896  13.280   7.474
 1412POPC   NC321263  17.319  41.317   9.579
 1412POPC   PO421264  17.933  41.585   9.491
 1412POPC   GL121265  17.632  41.530   9.206
 1412POPC   GL221266  17.721  41.198   9.209
 1412POPC   C1A21267  17.515  41.748   8.814
 1412POPC   D2A21268  17.643  41.761   8.379
 1412POPC   C3A21269  17.320  41.787   8.071
 1412POPC   C4A21270  17.241  41.630   7.667
 1412POPC   C1B21271  17.512  41.233   8.822
 1412POPC   C2B21272  17.318  41.366   8.454
 1412POPC   C3B21273  17.536  41.327   8.061
 1412POPC   C4B21274  17.421  41.078   7.722
 1413POPC   NC321275   1.742   8.963   9.766
 1413POPC   PO421276   1.116   9.202   9.611
 1413POPC   GL121277   1.156   9.238   9.169
 1413POPC   GL221278   1.370   8.965   9.105
 1413POPC   C1A21279   1.051   9.110   8.729
 1413POPC   D2A21280   1.042   8.858   8.346
 1413POPC   C3A21281   0.978   9.159   8.069
 1413POPC   C4A21282   1.300   9.294   7.825
 1413POPC   C1B21283   1.475   8.833   8.663
 1413POPC   C2B21284   1.768   8.677   8.354
 1413POPC   C3B21285   1.666   8.934   8.015
 1413POPC   C4B21286   1.276   8.787   7.833
 1414POPC   NC321287  39.639  28.208   9.728
 1414POPC   PO421288  39.009  28.530   9.716
 1414POPC   GL121289  39.242  28.506   9.309
 1414POPC   GL221290  39.519  28.747   9.368
 1414POPC   C1A21291  39.190  28.279   8.879
 1414POPC   D2A21292  39.122  27.993   8.496
 1414POPC   C3A21293  39.325  28.018   8.072
 1414POPC   C4A21294  39.128  28.261   7.726
 1414POPC   C1B21295  39.486  28.756   8.914
 1414POPC   C2B21296  39.230  28.671   8.547
 1414POPC   C3B21297  39.302  28.522   8.148
 1414POPC   C4B21298  39.367  28.694   7.768
 1415POPC   NC321299  39.440  10.840   9.492
 1415POPC   PO421300  39.139  10.322   9.791
 1415POPC   GL121301  39.127  10.469   9.285
 1415POPC   GL221302  39.322  10.720   9.033
 1415POPC   C1A21303  38.944  10.463   8.824
 1415POPC   D2A21304  39.102  10.419   8.388
 1415POPC   C3A21305  38.860  10.461   8.017
 1415POPC   C4A21306  38.924  10.766   7.702
 1415POPC   C1B21307  39.470  10.372   8.779
 1415POPC   C2B21308  39.599  10.294   8.349
 1415POPC   C3B21309  39.448  10.369   7.918
 1415POPC   C4B21310  39.446  10.617   7.531
 1416POPC   NC321311  37.610  41.871   9.488
 1416POPC   PO421312  38.148  41.641   9.597
 1416POPC   GL121313  37.924  41.433   9.248
 1416POPC   GL221314  37.531  41.431   9.200
 1416POPC   C1A21315  37.865  41.249   8.851
 1416POPC   D2A21316  37.924  41.446   8.451
 1416POPC   C3A21317  37.786  41.249   8.114
 1416POPC   C4A21318  37.793  41.329   7.690
 1416POPC   C1B21319  37.634  41.702   8.833
 1416POPC   C2B21320  37.572  41.855   8.413
 1416POPC   C3B21321  37.664  41.742   8.006
 1416POPC   C4B21322  37.349  41.638   7.693
 1417POPC   NC321323   0.172  21.956   9.386
 1417POPC   PO421324   0.623  22.428   9.649
 1417POPC   GL121325   0.718  22.421   9.180
 1417POPC   GL221326   0.423  22.259   9.024
 1417POPC   C1A21327   0.866  22.202   8.785
 1417POPC   D2A21328   0.672  21.918   8.469
 1417POPC   C3A21329   0.714  21.899   7.997
 1417POPC   C4A21330   0.668  22.111   7.568
 1417POPC   C1B21331   0.194  22.009   8.697
 1417POPC   C2B21332   0.199  21.791   8.296
 1417POPC   C3B21333   0.197  21.951   7.898
 1417POPC   C4B21334   0.126  22.014   7.436
 1418POPC   NC321335   3.604   2.080   9.553
 1418POPC   PO421336   3.519   2.780   9.549
 1418POPC   GL121337   3.679   2.834   9.163
 1418POPC   GL221338   3.527   2.525   9.098
 1418POPC   C1A21339   3.772   2.801   8.727
 1418POPC   D2A21340   3.549   2.821   8.340
 1418POPC   C3A21341   3.832   2.897   7.996
 1418POPC   C4A21342   3.676   2.861   7.597
 1418POPC   C1B21343   3.361   2.482   8.703
 1418POPC   C2B21344   3.497   2.265   8.299
 1418POPC   C3B21345   3.513   2.489   7.925
 1418POPC   C4B21346   3.315   2.460   7.515
 1419POPC   NC321347  13.500   8.546   9.516
 1419POPC   PO421348  13.752   7.987   9.369
 1419POPC   GL121349  13.624   8.287   9.098
 1419POPC   GL221350  13.984   8.384   9.061
 1419POPC   C1A21351  13.454   8.338   8.695
 1419POPC   D2A21352  13.300   8.286   8.297
 1419POPC   C3A21353  13.541   8.287   7.955
 1419POPC   C4A21354  13.332   8.012   7.700
 1419POPC   C1B21355  13.890   8.043   8.741
 1419POPC   C2B21356  13.864   8.240   8.365
 1419POPC   C3B21357  14.036   8.444   8.037
 1419POPC   C4B21358  13.958   8.153   7.690
 1420POPC   NC321359  22.214   0.717   9.449
 1420POPC   PO421360  21.879   0.042   9.484
 1420POPC   GL121361  22.056   0.099   9.072
 1420POPC   GL221362  22.298   0.351   9.105
 1420POPC   C1A21363  22.065   0.298   8.624
 1420POPC   D2A21364  21.907   0.538   8.253
 1420POPC   C3A21365  21.957   0.326   7.856
 1420POPC   C4A21366  22.111  44.945   7.688
 1420POPC   C1B21367  22.420   0.649   8.780
 1420POPC   C2B21368  22.441   0.539   8.326
 1420POPC   C3B21369  22.417   0.576   7.878
 1420POPC   C4B21370  22.503   0.348   7.486
 1421POPC   NC321371  15.126  19.120   9.502
 1421POPC   PO421372  14.519  19.051   9.320
 1421POPC   GL121373  14.829  19.122   9.047
 1421POPC   GL221374  15.173  18.932   9.050
 1421POPC   C1A21375  15.032  19.313   8.715
 1421POPC   D2A21376  15.311  19.138   8.453
 1421POPC   C3A21377  15.277  19.200   8.037
 1421POPC   C4A21378  14.972  19.008   7.776
 1421POPC   C1B21379  15.409  18.717   8.758
 1421POPC   C2B21380  15.366  18.531   8.354
 1421POPC   C3B21381  15.343  18.696   7.966
 1421POPC   C4B21382  15.560  18.972   7.677
 1422POPC   NC321383  14.033  20.108   9.652
 1422POPC   PO421384  14.627  19.692   9.592
 1422POPC   GL121385  14.643  19.683   9.155
 1422POPC   GL221386  14.498  20.004   9.188
 1422POPC   C1A21387  14.390  19.683   8.778
 1422POPC   D2A21388  14.144  19.582   8.400
 1422POPC   C3A21389  14.305  19.679   8.004
 1422POPC   C4A21390  14.218  19.924   7.649
 1422POPC   C1B21391  14.421  20.203   8.818
 1422POPC   C2B21392  14.432  20.033   8.397
 1422POPC   C3B21393  14.336  20.229   8.028
 1422POPC   C4B21394  14.457  20.377   7.628
 1423POPC   NC321395  38.005  30.667   9.521
 1423POPC   PO421396  37.391  30.636   9.436
 1423POPC   GL121397  37.593  30.648   9.048
 1423POPC   GL221398  37.919  30.783   9.047
 1423POPC   C1A21399  37.690  30.704   8.608
 1423POPC   D2A21400  37.541  30.925   8.253
 1423POPC   C3A21401  37.606  30.601   7.912
 1423POPC   C4A21402  37.907  30.241   7.799
 1423POPC   C1B21403  37.997  31.080   8.737
 1423POPC   C2B21404  38.165  31.022   8.334
 1423POPC   C3B21405  37.953  31.047   7.974
 1423POPC   C4B21406  38.083  30.714   7.824
 1424POPC   NC321407  13.389  34.158   9.597
 1424POPC   PO421408  13.682  34.747   9.736
 1424POPC   GL121409  13.692  34.488   9.307
 1424POPC   GL221410  13.462  34.230   9.096
 1424POPC   C1A21411  13.721  34.595   8.851
 1424POPC   D2A21412  13.652  34.372   8.478
 1424POPC   C3A21413  13.585  34.626   8.125
 1424POPC   C4A21414  13.775  34.641   7.739
 1424POPC   C1B21415  13.208  34.140   8.703
 1424POPC   C2B21416  13.169  34.341   8.281
 1424POPC   C3B21417  13.212  34.436   7.823
 1424POPC   C4B21418  13.122  34.209   7.463
 1425POPC   NC321419  17.007  21.198   9.448
 1425POPC   PO421420  16.657  21.835   9.480
 1425POPC   GL121421  16.830  21.577   9.148
 1425POPC   GL221422  16.566  21.348   9.131
 1425POPC   C1A21423  16.868  21.280   8.740
 1425POPC   D2A21424  16.992  21.405   8.326
 1425POPC   C3A21425  16.701  21.335   8.005
 1425POPC   C4A21426  16.659  21.280   7.588
 1425POPC   C1B21427  16.340  21.249   8.700
 1425POPC   C2B21428  16.395  21.018   8.288
 1425POPC   C3B21429  16.293  21.017   7.828
 1425POPC   C4B21430  16.298  21.052   7.311
 1426POPC   NC321431   9.585  24.047   9.381
 1426POPC   PO421432   9.962  23.570   9.618
 1426POPC   GL121433   9.704  23.545   9.228
 1426POPC   GL221434   9.448  23.224   9.254
 1426POPC   C1A21435   9.780  23.756   8.777
 1426POPC   D2A21436  10.043  23.827   8.378
 1426POPC   C3A21437   9.881  23.896   7.949
 1426POPC   C4A21438   9.473  23.957   7.742
 1426POPC   C1B21439   9.595  23.265   8.828
 1426POPC   C2B21440   9.919  23.325   8.501
 1426POPC   C3B21441   9.789  23.396   8.102
 1426POPC   C4B21442   9.398  23.415   7.842
 1427POPC   NC321443  34.775  37.179   9.508
 1427POPC   PO421444  34.474  36.622   9.443
 1427POPC   GL121445  34.633  36.874   9.114
 1427POPC   GL221446  34.429  37.137   9.154
 1427POPC   C1A21447  34.777  36.951   8.685
 1427POPC   D2A21448  34.798  36.996   8.228
 1427POPC   C3A21449  34.522  36.702   7.953
 1427POPC   C4A21450  34.801  36.860   7.672
 1427POPC   C1B21451  34.282  37.057   8.772
 1427POPC   C2B21452  34.327  36.892   8.386
 1427POPC   C3B21453  34.380  37.174   8.011
 1427POPC   C4B21454  34.298  37.088   7.606
 1428POPC   NC321455  36.271  37.353   9.244
 1428POPC   PO421456  35.947  37.970   9.434
 1428POPC   GL121457  36.088  37.842   9.069
 1428POPC   GL221458  36.460  37.844   9.124
 1428POPC   C1A21459  36.057  37.617   8.690
 1428POPC   D2A21460  36.294  37.428   8.381
 1428POPC   C3A21461  36.086  37.626   8.088
 1428POPC   C4A21462  36.022  37.531   7.695
 1428POPC   C1B21463  36.394  38.044   8.725
 1428POPC   C2B21464  36.241  38.049   8.323
 1428POPC   C3B21465  36.416  38.067   7.903
 1428POPC   C4B21466  36.295  37.924   7.526
 1429POPC   NC321467  23.210   6.510   9.772
 1429POPC   PO421468  22.815   6.293   9.294
 1429POPC   GL121469  23.063   6.381   8.914
 1429POPC   GL221470  23.143   6.726   8.995
 1429POPC   C1A21471  23.031   6.643   8.515
 1429POPC   D2A21472  22.688   6.770   8.274
 1429POPC   C3A21473  22.789   6.510   7.935
 1429POPC   C4A21474  23.190   6.337   7.902
 1429POPC   C1B21475  23.266   7.048   8.730
 1429POPC   C2B21476  23.373   7.023   8.325
 1429POPC   C3B21477  23.134   6.877   7.987
 1429POPC   C4B21478  22.696   7.003   7.826
 1430POPC   NC321479  41.119  23.033   9.421
 1430POPC   PO421480  41.715  22.701   9.566
 1430POPC   GL121481  41.596  22.936   9.200
 1430POPC   GL221482  41.839  23.178   9.068
 1430POPC   C1A21483  41.403  22.850   8.799
 1430POPC   D2A21484  41.576  22.707   8.414
 1430POPC   C3A21485  41.479  22.628   8.041
 1430POPC   C4A21486  41.678  22.725   7.676
 1430POPC   C1B21487  41.552  23.355   8.761
 1430POPC   C2B21488  41.374  23.192   8.395
 1430POPC   C3B21489  41.594  23.109   8.014
 1430POPC   C4B21490  41.448  23.146   7.569
 1431POPC   NC321491  20.376  28.792   9.468
 1431POPC   PO421492  20.524  29.391   9.212
 1431POPC   GL121493  20.490  29.018   9.028
 1431POPC   GL221494  20.801  28.872   9.123
 1431POPC   C1A21495  20.543  29.025   8.625
 1431POPC   D2A21496  20.609  29.195   8.250
 1431POPC   C3A21497  20.470  28.941   7.939
 1431POPC   C4A21498  20.514  29.274   7.690
 1431POPC   C1B21499  21.024  28.969   8.740
 1431POPC   C2B21500  20.977  28.846   8.283
 1431POPC   C3B21501  20.960  29.064   7.876
 1431POPC   C4B21502  20.815  28.875   7.510
 1432POPC   NC321503  19.639   4.481   9.536
 1432POPC   PO421504  20.047   3.923   9.420
 1432POPC   GL121505  19.794   4.156   9.129
 1432POPC   GL221506  19.928   4.519   9.133
 1432POPC   C1A21507  19.747   4.226   8.682
 1432POPC   D2A21508  19.928   4.421   8.319
 1432POPC   C3A21509  19.794   4.340   7.887
 1432POPC   C4A21510  19.920   4.495   7.486
 1432POPC   C1B21511  19.616   4.692   8.876
 1432POPC   C2B21512  19.644   4.814   8.452
 1432POPC   C3B21513  19.497   4.728   8.043
 1432POPC   C4B21514  19.370   4.645   7.621
 1433POPC   NC321515  44.725  18.080   9.548
 1433POPC   PO421516  44.556  18.803   9.456
 1433POPC   GL121517  44.783  18.497   9.146
 1433POPC   GL221518  44.963  18.139   9.114
 1433POPC   C1A21519  44.802  18.452   8.708
 1433POPC   D2A21520  44.470  18.500   8.435
 1433POPC   C3A21521  44.660  18.503   8.047
 1433POPC   C4A21522  44.404  18.519   7.714
 1433POPC   C1B21523  44.921  17.938   8.724
 1433POPC   C2B21524  44.756  18.049   8.318
 1433POPC   C3B21525  44.713  18.020   7.870
 1433POPC   C4B21526  44.985  18.127   7.561
 1434POPC   NC321527   3.179  28.480   9.575
 1434POPC   PO421528   3.524  27.991   9.427
 1434POPC   GL121529   3.392  28.333   9.132
 1434POPC   GL221530   3.522  28.686   9.132
 1434POPC   C1A21531   3.524  28.308   8.720
 1434POPC   D2A21532   3.400  27.999   8.445
 1434POPC   C3A21533   3.524  28.127   8.045
 1434POPC   C4A21534   3.318  28.096   7.645
 1434POPC   C1B21535   3.215  28.715   8.790
 1434POPC   C2B21536   3.093  28.562   8.358
 1434POPC   C3B21537   3.269  28.552   7.929
 1434POPC   C4B21538   3.729  28.630   7.969
 1435POPC   NC321539   6.884   8.394   9.324
 1435POPC   PO421540   6.513   7.901   9.571
 1435POPC   GL121541   6.655   7.964   9.167
 1435POPC   GL221542   6.408   8.209   9.123
 1435POPC   C1A21543   6.736   8.064   8.734
 1435POPC   D2A21544   6.488   8.009   8.370
 1435POPC   C3A21545   6.721   7.998   7.964
 1435POPC   C4A21546   7.015   7.931   7.596
 1435POPC   C1B21547   6.399   8.455   8.744
 1435POPC   C2B21548   6.167   8.415   8.353
 1435POPC   C3B21549   6.399   8.389   7.979
 1435POPC   C4B21550   6.306   8.563   7.607
 1436POPC   NC321551  34.383  36.178   9.368
 1436POPC   PO421552  34.875  35.813   9.398
 1436POPC   GL121553  34.730  36.043   9.045
 1436POPC   GL221554  34.799  36.382   9.104
 1436POPC   C1A21555  34.559  36.011   8.637
 1436POPC   D2A21556  34.337  36.247   8.313
 1436POPC   C3A21557  34.502  36.102   7.942
 1436POPC   C4A21558  34.412  35.671   7.737
 1436POPC   C1B21559  34.548  36.502   8.760
 1436POPC   C2B21560  34.765  36.518   8.381
 1436POPC   C3B21561  34.950  36.452   7.976
 1436POPC   C4B21562  34.741  36.353   7.572
 1437POPC   NC321563  31.425   0.615   9.331
 1437POPC   PO421564  31.623  44.903   9.376
 1437POPC   GL121565  31.528   0.185   9.073
 1437POPC   GL221566  31.199   0.236   9.002
 1437POPC   C1A21567  31.617   0.305   8.663
 1437POPC   D2A21568  31.583   0.076   8.257
 1437POPC   C3A21569  31.545   0.333   7.890
 1437POPC   C4A21570  31.668   0.687   7.636
 1437POPC   C1B21571  31.161   0.087   8.583
 1437POPC   C2B21572  31.213   0.447   8.275
 1437POPC   C3B21573  31.181   0.671   7.859
 1437POPC   C4B21574  31.247   0.428   7.473
 1438POPC   NC321575  40.770  32.414   9.304
 1438POPC   PO421576  41.205  32.019   9.583
 1438POPC   GL121577  40.977  31.951   9.138
 1438POPC   GL221578  40.659  32.046   8.966
 1438POPC   C1A21579  41.027  32.302   8.747
 1438POPC   D2A21580  40.912  32.387   8.339
 1438POPC   C3A21581  41.039  32.097   8.031
 1438POPC   C4A21582  40.983  32.362   7.663
 1438POPC   C1B21583  40.533  31.773   8.635
 1438POPC   C2B21584  40.587  31.938   8.227
 1438POPC   C3B21585  40.540  32.286   7.950
 1438POPC   C4B21586  40.484  32.323   7.509
 1439POPC   NC321587   9.436  42.856   9.650
 1439POPC   PO421588   9.649  43.506   9.688
 1439POPC   GL121589   9.668  43.292   9.257
 1439POPC   GL221590   9.851  42.984   9.147
 1439POPC   C1A21591   9.727  43.438   8.822
 1439POPC   D2A21592   9.841  43.452   8.363
 1439POPC   C3A21593   9.752  43.327   7.931
 1439POPC   C4A21594  10.026  43.008   7.796
 1439POPC   C1B21595   9.765  42.939   8.701
 1439POPC   C2B21596   9.619  42.991   8.286
 1439POPC   C3B21597   9.566  42.813   7.873
 1439POPC   C4B21598   9.389  42.749   7.480
 1440POPC   NC321599  38.678  30.999   9.589
 1440POPC   PO421600  38.321  30.437   9.746
 1440POPC   GL121601  38.336  30.484   9.191
 1440POPC   GL221602  38.692  30.627   9.189
 1440POPC   C1A21603  38.345  30.662   8.729
 1440POPC   D2A21604  38.571  30.459   8.354
 1440POPC   C3A21605  38.556  30.541   7.881
 1440POPC   C4A21606  38.288  30.397   7.500
 1440POPC   C1B21607  38.831  30.853   8.825
 1440POPC   C2B21608  38.723  30.945   8.390
 1440POPC   C3B21609  38.720  31.037   7.952
 1440POPC   C4B21610  38.622  30.893   7.493
 1441POPC   NC321611  16.483  30.897   9.501
 1441POPC   PO421612  17.131  30.762   9.486
 1441POPC   GL121613  16.809  30.733   9.135
 1441POPC   GL221614  16.684  31.061   9.064
 1441POPC   C1A21615  16.448  30.676   8.809
 1441POPC   D2A21616  16.638  30.568   8.396
 1441POPC   C3A21617  16.472  30.489   7.998
 1441POPC   C4A21618  16.764  30.450   7.622
 1441POPC   C1B21619  16.844  30.978   8.670
 1441POPC   C2B21620  16.721  31.061   8.264
 1441POPC   C3B21621  16.804  30.881   7.883
 1441POPC   C4B21622  16.728  30.964   7.437
 1442POPC   NC321623   9.139   1.527   9.382
 1442POPC   PO421624   8.576   1.246   9.442
 1442POPC   GL121625   8.880   1.140   9.077
 1442POPC   GL221626   9.121   0.828   9.047
 1442POPC   C1A21627   9.076   1.417   8.744
 1442POPC   D2A21628   9.299   1.455   8.340
 1442POPC   C3A21629   9.017   1.370   7.976
 1442POPC   C4A21630   9.002   1.036   7.668
 1442POPC   C1B21631   9.106   0.943   8.590
 1442POPC   C2B21632   8.779   1.192   8.388
 1442POPC   C3B21633   8.463   1.067   8.102
 1442POPC   C4B21634   8.551   0.732   7.824
 1443POPC   NC321635  13.519  33.511   9.529
 1443POPC   PO421636  13.905  33.992   9.482
 1443POPC   GL121637  13.764  33.783   9.143
 1443POPC   GL221638  13.875  33.433   9.163
 1443POPC   C1A21639  13.655  33.857   8.729
 1443POPC   D2A21640  13.458  33.786   8.338
 1443POPC   C3A21641  13.533  34.103   8.033
 1443POPC   C4A21642  13.671  34.189   7.593
 1443POPC   C1B21643  13.753  33.342   8.743
 1443POPC   C2B21644  13.878  33.455   8.327
 1443POPC   C3B21645  13.833  33.708   7.952
 1443POPC   C4B21646  13.873  33.750   7.487
 1444POPC   NC321647  37.906  33.645   9.597
 1444POPC   PO421648  38.245  34.123   9.246
 1444POPC   GL121649  38.014  33.789   9.122
 1444POPC   GL221650  37.713  33.969   9.199
 1444POPC   C1A21651  37.756  33.653   8.789
 1444POPC   D2A21652  37.507  33.659   8.411
 1444POPC   C3A21653  37.742  33.464   8.073
 1444POPC   C4A21654  37.977  33.164   7.824
 1444POPC   C1B21655  37.458  34.060   8.822
 1444POPC   C2B21656  37.483  34.199   8.377
 1444POPC   C3B21657  37.734  33.985   8.070
 1444POPC   C4B21658  37.578  33.824   7.684
 1445POPC   NC321659  13.365   7.744   9.335
 1445POPC   PO421660  13.338   7.087   9.506
 1445POPC   GL121661  13.529   7.213   9.142
 1445POPC   GL221662  13.814   7.477   9.170
 1445POPC   C1A21663  13.386   7.064   8.755
 1445POPC   D2A21664  13.227   7.169   8.368
 1445POPC   C3A21665  13.535   7.346   8.181
 1445POPC   C4A21666  13.696   7.102   7.882
 1445POPC   C1B21667  13.584   7.554   8.748
 1445POPC   C2B21668  13.552   7.833   8.395
 1445POPC   C3B21669  13.747   7.807   8.004
 1445POPC   C4B21670  13.534   7.553   7.712
 1446POPC   NC321671  13.057  22.542   9.367
 1446POPC   PO421672  12.799  23.103   9.656
 1446POPC   GL121673  12.775  22.978   9.176
 1446POPC   GL221674  12.616  22.630   9.098
 1446POPC   C1A21675  12.963  22.788   8.763
 1446POPC   D2A21676  12.900  22.619   8.359
 1446POPC   C3A21677  12.965  22.825   7.969
 1446POPC   C4A21678  12.846  23.208   7.729
 1446POPC   C1B21679  12.465  22.883   8.719
 1446POPC   C2B21680  12.543  23.001   8.283
 1446POPC   C3B21681  12.479  22.885   7.847
 1446POPC   C4B21682  12.535  22.960   7.383
 1447POPC   NC321683  39.313  31.638   9.748
 1447POPC   PO421684  39.360  32.325   9.715
 1447POPC   GL121685  39.282  32.157   9.368
 1447POPC   GL221686  39.128  32.458   9.235
 1447POPC   C1A21687  39.350  32.117   8.945
 1447POPC   D2A21688  39.378  32.328   8.570
 1447POPC   C3A21689  39.246  32.152   8.214
 1447POPC   C4A21690  39.175  32.133   7.781
 1447POPC   C1B21691  38.865  32.502   8.886
 1447POPC   C2B21692  38.959  32.578   8.455
 1447POPC   C3B21693  38.992  32.554   8.016
 1447POPC   C4B21694  38.665  32.536   7.708
 1448POPC   NC321695  38.299  35.396   9.634
 1448POPC   PO421696  37.985  34.902   9.334
 1448POPC   GL121697  38.269  35.178   9.085
 1448POPC   GL221698  38.503  35.473   9.168
 1448POPC   C1A21699  38.438  35.275   8.680
 1448POPC   D2A21700  38.759  35.404   8.385
 1448POPC   C3A21701  38.566  35.350   7.969
 1448POPC   C4A21702  38.636  35.128   7.597
 1448POPC   C1B21703  38.276  35.720   8.873
 1448POPC   C2B21704  38.389  35.770   8.442
 1448POPC   C3B21705  38.389  35.854   8.013
 1448POPC   C4B21706  38.308  35.643   7.599
 1449POPC   NC321707  39.602   9.281   9.391
 1449POPC   PO421708  40.262   9.155   9.356
 1449POPC   GL121709  39.986   9.047   9.094
 1449POPC   GL221710  40.036   8.688   9.128
 1449POPC   C1A21711  40.059   8.939   8.697
 1449POPC   D2A21712  40.225   8.846   8.356
 1449POPC   C3A21713  39.936   9.009   8.100
 1449POPC   C4A21714  39.985   8.951   7.695
 1449POPC   C1B21715  39.666   8.644   8.878
 1449POPC   C2B21716  39.591   8.870   8.532
 1449POPC   C3B21717  39.448   8.858   8.128
 1449POPC   C4B21718  39.619   8.610   7.763
 1450POPC   NC321719  33.473  22.493   9.582
 1450POPC   PO421720  33.994  23.057   9.526
 1450POPC   GL121721  33.831  22.840   9.199
 1450POPC   GL221722  34.019  22.550   9.055
 1450POPC   C1A21723  33.892  22.949   8.781
 1450POPC   D2A21724  34.017  22.986   8.389
 1450POPC   C3A21725  33.677  23.064   8.161
 1450POPC   C4A21726  33.766  23.160   7.743
 1450POPC   C1B21727  34.069  22.352   8.677
 1450POPC   C2B21728  33.976  22.475   8.273
 1450POPC   C3B21729  33.988  22.732   7.920
 1450POPC   C4B21730  33.803  22.730   7.484
 1451POPC   NC321731   3.323  14.633   9.590
 1451POPC   PO421732   3.349  15.209   9.358
 1451POPC   GL121733   3.468  15.291   8.967
 1451POPC   GL221734   3.225  15.618   9.072
 1451POPC   C1A21735   3.744  14.964   8.766
 1451POPC   D2A21736   3.899  14.757   8.404
 1451POPC   C3A21737   3.795  15.080   8.103
 1451POPC   C4A21738   3.663  15.138   7.691
 1451POPC   C1B21739   3.107  15.493   8.702
 1451POPC   C2B21740   3.326  15.631   8.361
 1451POPC   C3B21741   3.182  15.711   7.962
 1451POPC   C4B21742   3.226  15.442   7.624
 1452POPC   NC321743  27.631   2.992   9.447
 1452POPC   PO421744  27.311   3.621   9.500
 1452POPC   GL121745  27.453   3.742   9.098
 1452POPC   GL221746  27.595   3.416   9.047
 1452POPC   C1A21747  27.569   3.800   8.635
 1452POPC   D2A21748  27.804   3.629   8.273
 1452POPC   C3A21749  27.680   3.670   7.830
 1452POPC   C4A21750  27.523   4.025   7.573
 1452POPC   C1B21751  27.396   3.307   8.648
 1452POPC   C2B21752  27.306   3.484   8.248
 1452POPC   C3B21753  27.315   3.245   7.855
 1452POPC   C4B21754  27.110   3.094   7.476
 1453POPC   NC321755  15.594   4.894   9.314
 1453POPC   PO421756  16.220   4.964   9.585
 1453POPC   GL121757  16.050   5.077   9.157
 1453POPC   GL221758  15.787   5.324   9.136
 1453POPC   C1A21759  16.184   5.209   8.723
 1453POPC   D2A21760  16.412   5.140   8.346
 1453POPC   C3A21761  16.203   5.338   8.057
 1453POPC   C4A21762  16.014   5.277   7.665
 1453POPC   C1B21763  15.678   5.131   8.736
 1453POPC   C2B21764  15.782   5.311   8.375
 1453POPC   C3B21765  15.650   5.218   8.013
 1453POPC   C4B21766  15.508   5.337   7.635
 1454POPC   NC321767   5.395  33.679   9.375
 1454POPC   PO421768   6.036  34.032   9.437
 1454POPC   GL121769   5.805  33.887   9.096
 1454POPC   GL221770   5.795  33.514   9.116
 1454POPC   C1A21771   5.713  33.799   8.660
 1454POPC   D2A21772   5.858  33.595   8.298
 1454POPC   C3A21773   6.087  33.778   7.966
 1454POPC   C4A21774   5.901  33.906   7.555
 1454POPC   C1B21775   6.114  33.542   8.808
 1454POPC   C2B21776   6.207  33.266   8.508
 1454POPC   C3B21777   6.209  33.272   8.109
 1454POPC   C4B21778   6.304  33.335   7.724
 1455POPC   NC321779  13.555  20.975   9.540
 1455POPC   PO421780  13.605  21.598   9.497
 1455POPC   GL121781  13.730  21.585   9.134
 1455POPC   GL221782  13.670  21.236   9.104
 1455POPC   C1A21783  13.876  21.530   8.740
 1455POPC   D2A21784  13.631  21.615   8.412
 1455POPC   C3A21785  13.735  21.531   7.999
 1455POPC   C4A21786  13.441  21.368   7.724
 1455POPC   C1B21787  13.562  21.120   8.680
 1455POPC   C2B21788  13.539  21.124   8.229
 1455POPC   C3B21789  13.808  21.036   7.869
 1455POPC   C4B21790  13.838  21.173   7.417
 1456POPC   NC321791  23.168  14.540   9.305
 1456POPC   PO421792  22.964  15.168   9.561
 1456POPC   GL121793  22.750  15.278   9.144
 1456POPC   GL221794  22.909  14.970   9.055
 1456POPC   C1A21795  22.728  15.217   8.658
 1456POPC   D2A21796  22.977  14.968   8.361
 1456POPC   C3A21797  22.853  14.989   7.928
 1456POPC   C4A21798  22.583  15.376   7.856
 1456POPC   C1B21799  23.166  15.373   8.871
 1456POPC   C2B21800  23.142  15.503   8.461
 1456POPC   C3B21801  23.216  15.365   8.075
 1456POPC   C4B21802  23.054  15.401   7.693
 1457POPC   NC321803  19.572   8.595   9.425
 1457POPC   PO421804  20.015   8.030   9.481
 1457POPC   GL121805  19.908   8.118   9.101
 1457POPC   GL221806  19.982   8.475   9.110
 1457POPC   C1A21807  20.129   8.245   8.698
 1457POPC   D2A21808  20.070   8.162   8.288
 1457POPC   C3A21809  20.179   8.281   7.890
 1457POPC   C4A21810  20.003   8.007   7.600
 1457POPC   C1B21811  19.645   8.367   8.778
 1457POPC   C2B21812  19.515   8.242   8.360
 1457POPC   C3B21813  19.673   8.161   7.967
 1457POPC   C4B21814  19.746   8.448   7.624
 1458POPC   NC321815   3.136   6.034   9.569
 1458POPC   PO421816   2.564   5.884   9.846
 1458POPC   GL121817   2.681   5.977   9.331
 1458POPC   GL221818   2.753   5.696   9.120
 1458POPC   C1A21819   2.730   6.080   8.820
 1458POPC   D2A21820   2.667   5.810   8.458
 1458POPC   C3A21821   2.739   5.954   8.089
 1458POPC   C4A21822   2.651   5.997   7.715
 1458POPC   C1B21823   3.016   5.599   8.778
 1458POPC   C2B21824   3.161   5.679   8.369
 1458POPC   C3B21825   3.015   5.535   7.996
 1458POPC   C4B21826   2.842   5.515   7.603
 1459POPC   NC321827  11.944  36.262   9.444
 1459POPC   PO421828  12.456  36.213   9.909
 1459POPC   GL121829  12.417  36.183   9.353
 1459POPC   GL221830  12.218  35.916   9.141
 1459POPC   C1A21831  12.384  36.267   8.845
 1459POPC   D2A21832  12.299  35.937   8.486
 1459POPC   C3A21833  12.217  36.136   8.099
 1459POPC   C4A21834  12.162  36.248   7.653
 1459POPC   C1B21835  11.910  36.076   8.783
 1459POPC   C2B21836  11.744  35.952   8.364
 1459POPC   C3B21837  11.728  36.045   7.932
 1459POPC   C4B21838  11.658  36.316   7.602
 1460POPC   NC321839  25.866   0.854   9.378
 1460POPC   PO421840  26.294   1.354   9.448
 1460POPC   GL121841  25.991   1.275   9.122
 1460POPC   GL221842  26.189   0.973   8.992
 1460POPC   C1A21843  25.847   1.235   8.697
 1460POPC   D2A21844  26.078   1.073   8.302
 1460POPC   C3A21845  25.993   1.319   7.896
 1460POPC   C4A21846  26.146   1.276   7.474
 1460POPC   C1B21847  25.867   0.739   8.741
 1460POPC   C2B21848  25.677   0.749   8.343
 1460POPC   C3B21849  25.765   0.859   7.895
 1460POPC   C4B21850  25.789   0.881   7.437
 1461POPC   NC321851  37.592  32.775   9.347
 1461POPC   PO421852  38.023  33.204   9.526
 1461POPC   GL121853  37.793  33.269   9.135
 1461POPC   GL221854  37.413  33.250   9.183
 1461POPC   C1A21855  37.659  33.172   8.688
 1461POPC   D2A21856  37.552  32.820   8.430
 1461POPC   C3A21857  37.505  32.998   8.022
 1461POPC   C4A21858  37.577  32.814   7.607
 1461POPC   C1B21859  37.209  33.439   8.809
 1461POPC   C2B21860  37.055  33.391   8.379
 1461POPC   C3B21861  37.241  33.498   7.964
 1461POPC   C4B21862  37.534  33.333   7.622
 1462POPC   NC321863  33.978  13.521   9.557
 1462POPC   PO421864  33.340  13.654   9.330
 1462POPC   GL121865  33.725  13.685   9.124
 1462POPC   GL221866  33.814  13.304   9.129
 1462POPC   C1A21867  33.897  13.818   8.726
 1462POPC   D2A21868  33.817  13.603   8.356
 1462POPC   C3A21869  33.929  13.768   7.976
 1462POPC   C4A21870  33.621  13.883   7.688
 1462POPC   C1B21871  33.562  13.360   8.743
 1462POPC   C2B21872  33.622  13.126   8.357
 1462POPC   C3B21873  33.723  13.279   7.975
 1462POPC   C4B21874  33.794  13.424   7.576
 1463POPC   NC321875  18.918  10.168   9.527
 1463POPC   PO421876  19.408  10.589   9.463
 1463POPC   GL121877  19.250  10.332   9.139
 1463POPC   GL221878  18.936  10.471   9.110
 1463POPC   C1A21879  19.258  10.440   8.695
 1463POPC   D2A21880  19.348  10.655   8.300
 1463POPC   C3A21881  19.185  10.464   7.909
 1463POPC   C4A21882  18.951  10.410   7.465
 1463POPC   C1B21883  18.813  10.674   8.741
 1463POPC   C2B21884  18.699  10.506   8.314
 1463POPC   C3B21885  18.705  10.615   7.868
 1463POPC   C4B21886  18.551  10.714   7.456
 1464POPC   NC321887  16.851  33.393   9.696
 1464POPC   PO421888  16.290  33.127   9.553
 1464POPC   GL121889  16.511  33.080   9.160
 1464POPC   GL221890  16.857  33.255   9.195
 1464POPC   C1A21891  16.388  32.925   8.732
 1464POPC   D2A21892  16.601  32.873   8.319
 1464POPC   C3A21893  16.466  32.846   7.880
 1464POPC   C4A21894  16.863  32.783   7.557
 1464POPC   C1B21895  16.827  33.176   8.757
 1464POPC   C2B21896  16.884  33.279   8.343
 1464POPC   C3B21897  16.871  33.144   7.926
 1464POPC   C4B21898  16.934  33.357   7.518
 1465POPC   NC321899  27.006   3.998   9.455
 1465POPC   PO421900  26.694   4.603   9.256
 1465POPC   GL121901  26.761   4.194   9.074
 1465POPC   GL221902  27.131   4.137   8.987
 1465POPC   C1A21903  26.636   3.953   8.758
 1465POPC   D2A21904  26.682   4.294   8.484
 1465POPC   C3A21905  26.618   4.300   8.055
 1465POPC   C4A21906  26.676   3.987   7.741
 1465POPC   C1B21907  27.134   4.479   8.702
 1465POPC   C2B21908  27.104   4.486   8.253
 1465POPC   C3B21909  27.085   4.315   7.843
 1465POPC   C4B21910  27.292   4.472   7.493
 1466POPC   NC321911  10.259  36.674   9.469
 1466POPC   PO421912  10.582  37.271   9.628
 1466POPC   GL121913  10.429  37.087   9.223
 1466POPC   GL221914  10.671  36.805   9.125
 1466POPC   C1A21915  10.261  36.814   8.840
 1466POPC   D2A21916  10.441  36.809   8.435
 1466POPC   C3A21917  10.177  36.744   8.113
 1466POPC   C4A21918  10.456  36.827   7.783
 1466POPC   C1B21919  10.623  37.156   8.772
 1466POPC   C2B21920  10.781  37.263   8.370
 1466POPC   C3B21921  10.860  37.128   7.957
 1466POPC   C4B21922  10.765  37.124   7.495
 1467POPC   NC321923   8.191   9.522   9.352
 1467POPC   PO421924   7.867   8.930   9.508
 1467POPC   GL121925   8.118   9.058   9.142
 1467POPC   GL221926   8.454   8.918   9.016
 1467POPC   C1A21927   8.026   9.080   8.737
 1467POPC   D2A21928   8.125   8.873   8.379
 1467POPC   C3A21929   7.792   8.955   8.153
 1467POPC   C4A21930   7.875   9.170   7.835
 1467POPC   C1B21931   8.548   9.158   8.625
 1467POPC   C2B21932   8.553   9.212   8.175
 1467POPC   C3B21933   8.363   8.950   7.890
 1467POPC   C4B21934   8.452   8.518   7.782
 1468POPC   NC321935  11.460  22.437   9.630
 1468POPC   PO421936  11.450  21.802   9.712
 1468POPC   GL121937  11.474  22.027   9.290
 1468POPC   GL221938  11.779  22.218   9.248
 1468POPC   C1A21939  11.307  22.188   8.869
 1468POPC   D2A21940  11.084  22.395   8.504
 1468POPC   C3A21941  11.150  22.293   8.075
 1468POPC   C4A21942  11.139  22.297   7.632
 1468POPC   C1B21943  11.806  22.219   8.800
 1468POPC   C2B21944  11.573  22.253   8.391
 1468POPC   C3B21945  11.661  22.241   7.931
 1468POPC   C4B21946  11.625  22.282   7.421
 1469POPC   NC321947   2.958  17.123   9.559
 1469POPC   PO421948   3.552  16.732   9.581
 1469POPC   GL121949   3.364  16.628   9.193
 1469POPC   GL221950   3.551  16.876   9.064
 1469POPC   C1A21951   3.424  16.444   8.749
 1469POPC   D2A21952   3.318  16.724   8.415
 1469POPC   C3A21953   3.451  16.658   8.016
 1469POPC   C4A21954   3.660  16.324   7.857
 1469POPC   C1B21955   3.598  17.079   8.658
 1469POPC   C2B21956   3.820  17.078   8.313
 1469POPC   C3B21957   3.861  17.281   7.943
 1469POPC   C4B21958   3.674  16.998   7.707
 1470POPC   NC321959  14.064  21.818   9.525
 1470POPC   PO421960  14.603  21.410   9.540
 1470POPC   GL121961  14.473  21.452   9.154
 1470POPC   GL221962  14.161  21.349   9.223
 1470POPC   C1A21963  14.389  21.516   8.725
 1470POPC   D2A21964  14.169  21.556   8.317
 1470POPC   C3A21965  14.477  21.717   8.066
 1470POPC   C4A21966  14.709  21.500   7.784
 1470POPC   C1B21967  14.091  21.084   8.857
 1470POPC   C2B21968  14.331  21.056   8.467
 1470POPC   C3B21969  14.439  21.160   8.059
 1470POPC   C4B21970  14.171  21.386   7.786
 1471POPC   NC321971  12.955  15.788   9.562
 1471POPC   PO421972  12.535  16.292   9.599
 1471POPC   GL121973  12.758  16.238   9.219
 1471POPC   GL221974  12.925  15.904   9.072
 1471POPC   C1A21975  12.657  16.223   8.784
 1471POPC   D2A21976  12.761  15.861   8.547
 1471POPC   C3A21977  12.733  15.927   8.117
 1471POPC   C4A21978  12.628  16.041   7.728
 1471POPC   C1B21979  13.212  15.545   8.938
 1471POPC   C2B21980  13.222  15.351   8.532
 1471POPC   C3B21981  12.988  15.507   8.181
 1471POPC   C4B21982  13.076  15.712   7.765
 1472POPC   NC321983  14.932  30.141   9.547
 1472POPC   PO421984  15.369  29.614   9.373
 1472POPC   GL121985  15.035  29.826   9.137
 1472POPC   GL221986  15.044  30.185   9.062
 1472POPC   C1A21987  14.982  29.787   8.698
 1472POPC   D2A21988  15.191  30.015   8.350
 1472POPC   C3A21989  15.214  29.776   7.960
 1472POPC   C4A21990  15.520  29.520   7.716
 1472POPC   C1B21991  14.836  30.277   8.657
 1472POPC   C2B21992  14.729  30.186   8.210
 1472POPC   C3B21993  14.943  30.325   7.815
 1472POPC   C4B21994  15.120  30.242   7.399
 1473POPC   NC321995  16.354  27.041   9.500
 1473POPC   PO421996  17.052  26.724   9.489
 1473POPC   GL121997  16.841  26.696   9.102
 1473POPC   GL221998  16.469  26.691   9.120
 1473POPC   C1A21999  16.741  26.990   8.794
 1473POPC   D2A22000  16.864  27.281   8.492
 1473POPC   C3A22001  16.793  27.158   8.081
 1473POPC   C4A22002  17.001  27.092   7.731
 1473POPC   C1B22003  16.231  26.843   8.766
 1473POPC   C2B22004  16.434  26.932   8.376
 1473POPC   C3B22005  16.644  26.645   8.090
 1473POPC   C4B22006  16.670  26.703   7.654
 1474POPC   NC322007  41.380  37.036   9.312
 1474POPC   PO422008  41.979  36.747   9.229
 1474POPC   GL122009  41.724  36.952   8.952
 1474POPC   GL222010  41.437  36.753   8.913
 1474POPC   C1A22011  41.633  37.100   8.539
 1474POPC   D2A22012  41.519  36.771   8.265
 1474POPC   C3A22013  41.675  36.819   7.835
 1474POPC   C4A22014  41.972  36.622   7.579
 1474POPC   C1B22015  41.176  36.927   8.645
 1474POPC   C2B22016  41.013  36.996   8.256
 1474POPC   C3B22017  41.162  36.865   7.893
 1474POPC   C4B22018  41.205  37.033   7.521
 1475POPC   NC322019   8.156  44.843   9.607
 1475POPC   PO422020   8.169   0.485   9.774
 1475POPC   GL122021   8.038   0.228   9.330
 1475POPC   GL222022   8.391   0.127   9.233
 1475POPC   C1A22023   8.057   0.229   8.847
 1475POPC   D2A22024   8.302   0.421   8.497
 1475POPC   C3A22025   8.151   0.373   8.056
 1475POPC   C4A22026   7.923   0.674   7.830
 1475POPC   C1B22027   8.552   0.076   8.801
 1475POPC   C2B22028   8.534  44.980   8.364
 1475POPC   C3B22029   8.646   0.277   8.045
 1475POPC   C4B22030   8.599   0.256   7.581
 1476POPC   NC322031  28.491   6.065   9.538
 1476POPC   PO422032  27.854   6.007   9.445
 1476POPC   GL122033  28.136   6.063   9.157
 1476POPC   GL222034  28.263   5.752   9.134
 1476POPC   C1A22035  28.092   6.054   8.727
 1476POPC   D2A22036  28.314   5.832   8.418
 1476POPC   C3A22037  28.390   6.096   8.066
 1476POPC   C4A22038  28.322   5.994   7.664
 1476POPC   C1B22039  28.577   6.015   8.884
 1476POPC   C2B22040  28.793   5.987   8.490
 1476POPC   C3B22041  28.755   5.744   8.110
 1476POPC   C4B22042  28.819   5.908   7.712
 1477POPC   NC322043  32.028  21.922   9.607
 1477POPC   PO422044  32.531  22.343   9.521
 1477POPC   GL122045  32.383  22.045   9.215
 1477POPC   GL222046  32.036  22.128   9.138
 1477POPC   C1A22047  32.307  21.819   8.799
 1477POPC   D2A22048  32.608  21.662   8.479
 1477POPC   C3A22049  32.493  21.760   8.039
 1477POPC   C4A22050  32.250  22.121   7.893
 1477POPC   C1B22051  32.296  22.358   8.807
 1477POPC   C2B22052  32.166  22.406   8.371
 1477POPC   C3B22053  31.822  22.311   8.118
 1477POPC   C4B22054  31.834  22.277   7.671
 1478POPC   NC322055  22.404  31.349   9.464
 1478POPC   PO422056  21.979  31.818   9.685
 1478POPC   GL122057  22.025  31.554   9.216
 1478POPC   GL222058  21.881  31.684   8.927
 1478POPC   C1A22059  22.269  31.347   8.803
 1478POPC   D2A22060  22.375  31.306   8.326
 1478POPC   C3A22061  22.416  31.062   7.925
 1478POPC   C4A22062  22.237  31.308   7.574
 1478POPC   C1B22063  21.784  31.212   8.832
 1478POPC   C2B22064  21.858  31.024   8.415
 1478POPC   C3B22065  21.920  31.195   7.985
 1478POPC   C4B22066  21.713  31.173   7.575
 1479POPC   NC322067   4.217  28.238   9.468
 1479POPC   PO422068   4.731  27.779   9.365
 1479POPC   GL122069   4.634  28.237   9.137
 1479POPC   GL222070   4.275  28.338   8.968
 1479POPC   C1A22071   4.676  28.431   8.683
 1479POPC   D2A22072   4.289  28.303   8.413
 1479POPC   C3A22073   4.214  28.394   7.946
 1479POPC   C4A22074   4.256  28.584   7.511
 1479POPC   C1B22075   3.989  27.993   8.742
 1479POPC   C2B22076   3.903  27.748   8.340
 1479POPC   C3B22077   3.959  27.920   7.900
 1479POPC   C4B22078   3.816  28.267   7.626
 1480POPC   NC322079   3.207  19.590   9.421
 1480POPC   PO422080   2.642  19.978   9.441
 1480POPC   GL122081   2.901  19.856   9.117
 1480POPC   GL222082   2.797  19.530   9.128
 1480POPC   C1A22083   3.057  19.713   8.697
 1480POPC   D2A22084   3.128  19.629   8.274
 1480POPC   C3A22085   2.899  19.806   7.902
 1480POPC   C4A22086   2.887  20.027   7.466
 1480POPC   C1B22087   2.564  19.621   8.765
 1480POPC   C2B22088   2.630  19.501   8.342
 1480POPC   C3B22089   2.486  19.498   7.948
 1480POPC   C4B22090   2.505  19.693   7.563
 1481POPC   NC322091  16.152  25.291   9.428
 1481POPC   PO422092  15.699  24.865   9.433
 1481POPC   GL122093  15.784  25.067   9.032
 1481POPC   GL222094  15.961  25.383   8.959
 1481POPC   C1A22095  15.756  25.108   8.585
 1481POPC   D2A22096  15.858  25.142   8.171
 1481POPC   C3A22097  16.146  25.480   8.028
 1481POPC   C4A22098  16.314  25.691   7.659
 1481POPC   C1B22099  16.233  25.000   8.801
 1481POPC   C2B22100  16.218  24.830   8.379
 1481POPC   C3B22101  16.244  24.945   7.919
 1481POPC   C4B22102  16.374  25.130   7.539
 1482POPC   NC322103  10.550  38.385   9.469
 1482POPC   PO422104  11.067  38.725   9.625
 1482POPC   GL122105  10.840  38.711   9.218
 1482POPC   GL222106  10.982  38.379   9.153
 1482POPC   C1A22107  10.495  38.626   8.889
 1482POPC   D2A22108  10.350  38.481   8.481
 1482POPC   C3A22109  10.398  38.399   8.046
 1482POPC   C4A22110  10.503  38.574   7.619
 1482POPC   C1B22111  10.909  38.416   8.706
 1482POPC   C2B22112  10.812  38.237   8.313
 1482POPC   C3B22113  10.878  38.459   7.912
 1482POPC   C4B22114  10.935  38.388   7.445
 1483POPC   NC322115   7.819  20.401   9.477
 1483POPC   PO422116   8.442  20.411   9.448
 1483POPC   GL122117   8.172  20.674   9.149
 1483POPC   GL222118   7.968  20.446   8.980
 1483POPC   C1A22119   8.014  20.920   8.767
 1483POPC   D2A22120   7.950  20.684   8.344
 1483POPC   C3A22121   8.076  20.833   7.882
 1483POPC   C4A22122   8.038  21.016   7.426
 1483POPC   C1B22123   8.343  20.528   8.696
 1483POPC   C2B22124   8.467  20.466   8.277
 1483POPC   C3B22125   8.578  20.682   7.914
 1483POPC   C4B22126   8.752  20.543   7.523
 1484POPC   NC322127  19.975  44.775   9.383
 1484POPC   PO422128  19.429  44.266   9.396
 1484POPC   GL122129  19.601  44.528   9.075
 1484POPC   GL222130  19.712  44.876   8.981
 1484POPC   C1A22131  19.742  44.471   8.673
 1484POPC   D2A22132  19.733  44.738   8.338
 1484POPC   C3A22133  19.684  44.522   7.951
 1484POPC   C4A22134  19.744  44.849   7.660
 1484POPC   C1B22135  20.092  44.867   8.744
 1484POPC   C2B22136  20.234  44.615   8.398
 1484POPC   C3B22137  20.171  44.722   7.952
 1484POPC   C4B22138  20.237  44.967   7.584
 1485POPC   NC322139  26.751  33.766   9.521
 1485POPC   PO422140  27.375  33.699   9.554
 1485POPC   GL122141  27.160  33.903   9.174
 1485POPC   GL222142  26.820  34.027   9.100
 1485POPC   C1A22143  27.126  33.785   8.757
 1485POPC   D2A22144  26.928  33.663   8.401
 1485POPC   C3A22145  27.066  33.755   8.007
 1485POPC   C4A22146  26.756  33.588   7.764
 1485POPC   C1B22147  26.541  34.040   8.780
 1485POPC   C2B22148  26.685  34.111   8.400
 1485POPC   C3B22149  26.558  33.984   8.032
 1485POPC   C4B22150  26.568  34.170   7.634
 1486POPC   NC322151  20.104   2.111   9.596
 1486POPC   PO422152  19.507   1.826   9.749
 1486POPC   GL122153  19.697   1.769   9.293
 1486POPC   GL222154  19.811   2.119   9.159
 1486POPC   C1A22155  19.800   1.725   8.829
 1486POPC   D2A22156  19.803   2.062   8.517
 1486POPC   C3A22157  19.696   1.920   8.119
 1486POPC   C4A22158  19.544   2.165   7.801
 1486POPC   C1B22159  20.209   2.018   8.939
 1486POPC   C2B22160  20.244   1.825   8.559
 1486POPC   C3B22161  20.231   1.954   8.132
 1486POPC   C4B22162  20.254   1.728   7.778
 1487POPC   NC322163  30.536  41.191   9.365
 1487POPC   PO422164  31.083  40.986   9.685
 1487POPC   GL122165  30.982  41.000   9.170
 1487POPC   GL222166  30.652  40.797   9.072
 1487POPC   C1A22167  30.976  40.786   8.694
 1487POPC   D2A22168  30.729  40.856   8.286
 1487POPC   C3A22169  30.952  40.769   7.865
 1487POPC   C4A22170  31.032  40.924   7.404
 1487POPC   C1B22171  30.554  41.120   8.734
 1487POPC   C2B22172  30.324  41.241   8.361
 1487POPC   C3B22173  30.474  41.174   7.962
 1487POPC   C4B22174  30.526  40.913   7.640
 1488POPC   NC322175  30.238  17.973   9.578
 1488POPC   PO422176  29.622  18.030   9.610
 1488POPC   GL122177  29.913  18.164   9.231
 1488POPC   GL222178  30.071  17.888   9.092
 1488POPC   C1A22179  30.093  18.329   8.822
 1488POPC   D2A22180  29.900  18.421   8.423
 1488POPC   C3A22181  30.060  18.478   8.015
 1488POPC   C4A22182  29.952  18.465   7.559
 1488POPC   C1B22183  30.032  17.850   8.643
 1488POPC   C2B22184  30.147  18.011   8.243
 1488POPC   C3B22185  30.152  18.020   7.808
 1488POPC   C4B22186  30.293  18.101   7.412
 1489POPC   NC322187  34.895  11.360   9.558
 1489POPC   PO422188  34.196  11.261   9.685
 1489POPC   GL122189  34.462  11.458   9.287
 1489POPC   GL222190  34.688  11.271   9.082
 1489POPC   C1A22191  34.409  11.570   8.802
 1489POPC   D2A22192  34.407  11.324   8.382
 1489POPC   C3A22193  34.207  11.400   7.989
 1489POPC   C4A22194  34.592  11.389   7.783
 1489POPC   C1B22195  34.812  11.059   8.652
 1489POPC   C2B22196  34.840  11.060   8.188
 1489POPC   C3B22197  34.961  11.048   7.746
 1489POPC   C4B22198  35.190  11.159   7.346
 1490POPC   NC322199  17.281  37.807   9.531
 1490POPC   PO422200  17.795  37.476   9.469
 1490POPC   GL122201  17.596  37.715   9.144
 1490POPC   GL222202  17.446  37.393   9.106
 1490POPC   C1A22203  17.315  37.757   8.760
 1490POPC   D2A22204  17.089  37.685   8.364
 1490POPC   C3A22205  17.335  37.694   7.959
 1490POPC   C4A22206  17.475  37.358   7.689
 1490POPC   C1B22207  17.727  37.413   8.749
 1490POPC   C2B22208  17.599  37.466   8.337
 1490POPC   C3B22209  17.836  37.578   7.975
 1490POPC   C4B22210  17.878  37.668   7.553
 1491POPC   NC322211   0.002  26.962   9.516
 1491POPC   PO422212  44.380  26.777   9.524
 1491POPC   GL122213  44.641  26.780   9.150
 1491POPC   GL222214  44.947  26.957   9.004
 1491POPC   C1A22215  44.460  26.824   8.764
 1491POPC   D2A22216  44.427  26.558   8.385
 1491POPC   C3A22217  44.537  26.696   7.969
 1491POPC   C4A22218  44.426  27.039   7.715
 1491POPC   C1B22219  44.916  26.690   8.644
 1491POPC   C2B22220  44.772  26.983   8.323
 1491POPC   C3B22221  44.911  27.038   7.884
 1491POPC   C4B22222  44.812  26.776   7.502
 1492POPC   NC322223  31.828  20.353   9.399
 1492POPC   PO422224  31.178  20.404   9.496
 1492POPC   GL122225  31.313  20.638   9.145
 1492POPC   GL222226  31.643  20.806   9.166
 1492POPC   C1A22227  31.157  20.517   8.761
 1492POPC   D2A22228  31.124  20.674   8.371
 1492POPC   C3A22229  31.338  20.473   8.072
 1492POPC   C4A22230  31.219  20.597   7.693
 1492POPC   C1B22231  31.674  20.635   8.745
 1492POPC   C2B22232  31.637  20.847   8.346
 1492POPC   C3B22233  31.562  20.930   7.917
 1492POPC   C4B22234  31.609  20.808   7.464
 1493POPC   NC322235  12.623  17.573   9.461
 1493POPC   PO422236  13.169  17.428   9.770
 1493POPC   GL122237  13.116  17.315   9.300
 1493POPC   GL222238  13.095  17.629   9.118
 1493POPC   C1A22239  12.933  17.222   8.844
 1493POPC   D2A22240  12.713  17.185   8.413
 1493POPC   C3A22241  12.808  17.499   8.068
 1493POPC   C4A22242  12.922  17.536   7.620
 1493POPC   C1B22243  13.203  17.876   8.749
 1493POPC   C2B22244  12.995  17.914   8.351
 1493POPC   C3B22245  13.111  17.909   7.946
 1493POPC   C4B22246  13.389  17.749   7.619
 1494POPC   NC322247  30.485   0.446   9.628
 1494POPC   PO422248  31.087   0.362   9.483
 1494POPC   GL122249  30.733   0.228   9.216
 1494POPC   GL222250  30.346   0.284   9.165
 1494POPC   C1A22251  30.722   0.330   8.800
 1494POPC   D2A22252  30.737   0.289   8.384
 1494POPC   C3A22253  30.731   0.654   8.131
 1494POPC   C4A22254  30.704   0.648   7.680
 1494POPC   C1B22255  30.267   0.103   8.760
 1494POPC   C2B22256  30.292   0.076   8.327
 1494POPC   C3B22257  30.440   0.284   7.958
 1494POPC   C4B22258  30.364   0.149   7.573
 1495POPC   NC322259  33.521  18.436   9.385
 1495POPC   PO422260  34.005  17.992   9.301
 1495POPC   GL122261  33.790  18.196   9.031
 1495POPC   GL222262  33.943  18.500   9.107
 1495POPC   C1A22263  33.603  18.144   8.663
 1495POPC   D2A22264  33.810  18.062   8.316
 1495POPC   C3A22265  33.643  18.335   8.012
 1495POPC   C4A22266  33.380  18.259   7.671
 1495POPC   C1B22267  33.802  18.634   8.756
 1495POPC   C2B22268  33.963  18.545   8.353
 1495POPC   C3B22269  34.041  18.719   7.983
 1495POPC   C4B22270  33.847  18.587   7.612
 1496POPC   NC322271   8.527  28.390   9.127
 1496POPC   PO422272   7.930  28.470   9.422
 1496POPC   GL122273   8.060  28.626   9.017
 1496POPC   GL222274   8.364  28.783   8.846
 1496POPC   C1A22275   8.014  28.397   8.641
 1496POPC   D2A22276   7.709  28.397   8.331
 1496POPC   C3A22277   7.868  28.493   7.945
 1496POPC   C4A22278   8.168  28.482   7.611
 1496POPC   C1B22279   8.479  28.560   8.447
 1496POPC   C2B22280   8.279  28.253   8.165
 1496POPC   C3B22281   8.334  28.032   7.761
 1496POPC   C4B22282   8.480  28.037   7.355
 1497POPC   NC322283  44.590   4.490   9.479
 1497POPC   PO422284   0.055   4.036   9.327
 1497POPC   GL122285  44.938   4.342   9.056
 1497POPC   GL222286  44.587   4.394   8.985
 1497POPC   C1A22287  44.989   4.477   8.644
 1497POPC   D2A22288  44.681   4.492   8.328
 1497POPC   C3A22289  44.752   4.309   7.937
 1497POPC   C4A22290  44.681   4.183   7.514
 1497POPC   C1B22291  44.325   4.647   8.718
 1497POPC   C2B22292  44.336   4.875   8.348
 1497POPC   C3B22293  44.487   4.769   7.929
 1497POPC   C4B22294  44.350   4.537   7.588
 1498POPC   NC322295  31.820  10.752   9.535
 1498POPC   PO422296  31.288  10.354   9.472
 1498POPC   GL122297  31.130  10.462   9.091
 1498POPC   GL222298  31.359  10.740   9.113
 1498POPC   C1A22299  31.243  10.260   8.711
 1498POPC   D2A22300  31.476  10.401   8.352
 1498POPC   C3A22301  31.254  10.678   8.055
 1498POPC   C4A22302  31.376  10.346   7.785
 1498POPC   C1B22303  31.305  10.793   8.689
 1498POPC   C2B22304  31.627  10.885   8.418
 1498POPC   C3B22305  31.763  10.750   8.016
 1498POPC   C4B22306  31.668  10.700   7.561
 1499POPC   NC322307   7.713  19.488   9.770
 1499POPC   PO422308   7.518  20.035   9.517
 1499POPC   GL122309   7.399  20.276   9.126
 1499POPC   GL222310   7.081  20.110   9.064
 1499POPC   C1A22311   7.368  20.202   8.641
 1499POPC   D2A22312   7.129  19.974   8.299
 1499POPC   C3A22313   7.217  20.054   7.881
 1499POPC   C4A22314   7.491  19.886   7.572
 1499POPC   C1B22315   7.194  19.740   8.769
 1499POPC   C2B22316   7.470  19.596   8.395
 1499POPC   C3B22317   7.567  19.510   7.939
 1499POPC   C4B22318   7.524  19.375   7.502
 1500POPC   NC322319   8.318  37.750   9.647
 1500POPC   PO422320   7.665  37.873   9.529
 1500POPC   GL122321   7.942  37.683   9.278
 1500POPC   GL222322   8.201  37.900   9.163
 1500POPC   C1A22323   8.003  37.447   8.917
 1500POPC   D2A22324   8.285  37.545   8.607
 1500POPC   C3A22325   8.190  37.667   8.194
 1500POPC   C4A22326   8.197  37.406   7.862
 1500POPC   C1B22327   8.539  37.981   8.887
 1500POPC   C2B22328   8.497  37.997   8.464
 1500POPC   C3B22329   8.547  38.049   8.048
 1500POPC   C4B22330   8.281  37.901   7.721
 1501POPC   NC322331  35.906  20.562   9.589
 1501POPC   PO422332  36.557  20.804   9.562
 1501POPC   GL122333  36.268  20.682   9.201
 1501POPC   GL222334  35.901  20.770   9.143
 1501POPC   C1A22335  36.436  20.589   8.779
 1501POPC   D2A22336  36.523  20.818   8.381
 1501POPC   C3A22337  36.289  20.814   7.984
 1501POPC   C4A22338  36.072  20.515   7.689
 1501POPC   C1B22339  35.925  20.550   8.783
 1501POPC   C2B22340  36.072  20.536   8.379
 1501POPC   C3B22341  35.768  20.620   8.084
 1501POPC   C4B22342  35.641  20.804   7.704
 1502POPC   NC322343  31.757   8.639   9.402
 1502POPC   PO422344  31.210   9.014   9.534
 1502POPC   GL122345  31.464   8.968   9.091
 1502POPC   GL222346  31.805   9.043   9.080
 1502POPC   C1A22347  31.560   9.051   8.614
 1502POPC   D2A22348  31.636   9.090   8.147
 1502POPC   C3A22349  31.397   9.235   7.821
 1502POPC   C4A22350  31.301   9.296   7.375
 1502POPC   C1B22351  31.912   8.715   8.743
 1502POPC   C2B22352  31.722   8.613   8.312
 1502POPC   C3B22353  31.540   8.675   7.877
 1502POPC   C4B22354  31.712   8.921   7.544
 1503POPC   NC322355  44.243  14.415   9.437
 1503POPC   PO422356  43.607  14.154   9.592
 1503POPC   GL122357  43.772  14.392   9.238
 1503POPC   GL222358  43.927  14.117   9.119
 1503POPC   C1A22359  43.947  14.590   8.849
 1503POPC   D2A22360  44.074  14.707   8.420
 1503POPC   C3A22361  43.809  14.507   8.113
 1503POPC   C4A22362  43.833  14.451   7.698
 1503POPC   C1B22363  43.784  14.139   8.697
 1503POPC   C2B22364  44.086  14.182   8.366
 1503POPC   C3B22365  44.027  14.035   7.930
 1503POPC   C4B22366  44.145  14.086   7.478
 1504POPC   NC322367  42.761  37.905   9.728
 1504POPC   PO422368  42.228  37.440   9.545
 1504POPC   GL122369  42.216  37.645   9.152
 1504POPC   GL222370  42.536  37.495   9.101
 1504POPC   C1A22371  42.082  37.844   8.751
 1504POPC   D2A22372  42.311  37.843   8.375
 1504POPC   C3A22373  42.485  37.425   8.221
 1504POPC   C4A22374  42.452  37.362   7.772
 1504POPC   C1B22375  42.654  37.753   8.770
 1504POPC   C2B22376  42.832  37.826   8.361
 1504POPC   C3B22377  42.621  37.835   7.965
 1504POPC   C4B22378  42.663  37.822   7.551
 1505POPC   NC322379   9.007  28.673   9.491
 1505POPC   PO422380   8.816  28.044   9.241
 1505POPC   GL122381   9.062  28.364   9.079
 1505POPC   GL222382   9.234  28.111   8.906
 1505POPC   C1A22383   9.151  28.616   8.702
 1505POPC   D2A22384   8.973  28.650   8.255
 1505POPC   C3A22385   9.134  28.573   7.824
 1505POPC   C4A22386   9.151  28.154   7.607
 1505POPC   C1B22387   8.890  28.203   8.600
 1505POPC   C2B22388   8.814  28.015   8.236
 1505POPC   C3B22389   8.747  28.266   7.936
 1505POPC   C4B22390   8.721  28.426   7.544
 1506POPC   NC322391  21.156   5.329   9.328
 1506POPC   PO422392  21.217   5.911   9.618
 1506POPC   GL122393  21.409   5.910   9.214
 1506POPC   GL222394  21.543   5.608   9.138
 1506POPC   C1A22395  21.272   6.018   8.806
 1506POPC   D2A22396  21.442   6.008   8.401
 1506POPC   C3A22397  21.229   5.805   8.082
 1506POPC   C4A22398  21.246   5.967   7.679
 1506POPC   C1B22399  21.655   5.678   8.742
 1506POPC   C2B22400  21.549   5.471   8.395
 1506POPC   C3B22401  21.723   5.700   8.114
 1506POPC   C4B22402  21.752   5.865   7.753
 1507POPC   NC322403  32.953   6.873   9.467
 1507POPC   PO422404  33.256   6.316   9.550
 1507POPC   GL122405  33.264   6.579   9.173
 1507POPC   GL222406  33.529   6.779   9.133
 1507POPC   C1A22407  33.072   6.648   8.756
 1507POPC   D2A22408  32.908   6.822   8.342
 1507POPC   C3A22409  32.871   6.712   7.874
 1507POPC   C4A22410  32.659   6.831   7.479
 1507POPC   C1B22411  33.494   6.916   8.741
 1507POPC   C2B22412  33.378   7.012   8.350
 1507POPC   C3B22413  33.347   6.754   8.038
 1507POPC   C4B22414  33.519   6.615   7.679
 1508POPC   NC322415  32.515  39.296   9.451
 1508POPC   PO422416  31.944  38.915   9.518
 1508POPC   GL122417  32.196  38.980   9.169
 1508POPC   GL222418  32.203  39.345   9.051
 1508POPC   C1A22419  32.095  38.945   8.759
 1508POPC   D2A22420  32.201  39.237   8.475
 1508POPC   C3A22421  32.161  39.003   8.120
 1508POPC   C4A22422  32.258  39.043   7.702
 1508POPC   C1B22423  32.530  39.551   8.798
 1508POPC   C2B22424  32.490  39.672   8.375
 1508POPC   C3B22425  32.373  39.459   8.012
 1508POPC   C4B22426  32.656  39.517   7.685
 1509POPC   NC322427  41.087  40.625   9.513
 1509POPC   PO422428  40.727  41.165   9.506
 1509POPC   GL122429  40.687  41.078   9.098
 1509POPC   GL222430  40.827  40.750   9.105
 1509POPC   C1A22431  40.807  40.993   8.682
 1509POPC   D2A22432  40.744  40.729   8.380
 1509POPC   C3A22433  40.896  40.945   8.073
 1509POPC   C4A22434  40.760  40.959   7.719
 1509POPC   C1B22435  41.134  40.534   8.824
 1509POPC   C2B22436  41.127  40.375   8.390
 1509POPC   C3B22437  40.888  40.441   7.991
 1509POPC   C4B22438  40.876  40.517   7.552
 1510POPC   NC322439  12.218  15.873   9.563
 1510POPC   PO422440  11.883  16.436   9.434
 1510POPC   GL122441  12.220  16.201   9.163
 1510POPC   GL222442  12.391  15.838   9.085
 1510POPC   C1A22443  12.173  16.200   8.706
 1510POPC   D2A22444  12.286  15.981   8.345
 1510POPC   C3A22445  12.238  16.250   8.017
 1510POPC   C4A22446  11.858  16.341   7.817
 1510POPC   C1B22447  11.944  15.798   8.920
 1510POPC   C2B22448  11.753  15.955   8.506
 1510POPC   C3B22449  11.831  15.875   8.049
 1510POPC   C4B22450  12.159  15.833   7.715
 1511POPC   NC322451   1.938  38.084   9.514
 1511POPC   PO422452   1.562  38.558   9.437
 1511POPC   GL122453   1.827  38.410   9.101
 1511POPC   GL222454   1.989  38.706   9.105
 1511POPC   C1A22455   1.982  38.247   8.663
 1511POPC   D2A22456   1.890  38.024   8.263
 1511POPC   C3A22457   1.915  38.217   7.881
 1511POPC   C4A22458   2.185  38.446   7.645
 1511POPC   C1B22459   1.812  38.711   8.674
 1511POPC   C2B22460   1.882  38.559   8.257
 1511POPC   C3B22461   1.895  38.786   7.865
 1511POPC   C4B22462   1.669  38.874   7.453
 1512POPC   NC322463   1.047   3.798   9.455
 1512POPC   PO422464   1.655   3.542   9.460
 1512POPC   GL122465   1.463   3.382   9.122
 1512POPC   GL222466   1.100   3.377   9.171
 1512POPC   C1A22467   1.609   3.211   8.724
 1512POPC   D2A22468   1.548   3.073   8.278
 1512POPC   C3A22469   1.450   3.398   7.955
 1512POPC   C4A22470   1.174   3.799   7.925
 1512POPC   C1B22471   1.104   3.220   8.791
 1512POPC   C2B22472   1.197   3.439   8.415
 1512POPC   C3B22473   0.936   3.369   8.071
 1512POPC   C4B22474   0.888   3.489   7.647
 1513POPC   NC322475  28.775  40.448   9.505
 1513POPC   PO422476  29.213  40.950   9.419
 1513POPC   GL122477  28.983  40.733   9.102
 1513POPC   GL222478  29.307  40.774   8.925
 1513POPC   C1A22479  28.881  40.560   8.683
 1513POPC   D2A22480  29.006  40.757   8.285
 1513POPC   C3A22481  29.201  40.581   7.920
 1513POPC   C4A22482  29.086  40.621   7.479
 1513POPC   C1B22483  29.465  41.008   8.556
 1513POPC   C2B22484  29.489  40.998   8.102
 1513POPC   C3B22485  29.363  41.054   7.687
 1513POPC   C4B22486  29.361  41.009   7.250
 1514POPC   NC322487  18.336  41.800   9.382
 1514POPC   PO422488  18.492  41.296   9.735
 1514POPC   GL122489  18.512  41.307   9.261
 1514POPC   GL222490  18.193  41.382   9.128
 1514POPC   C1A22491  18.548  41.513   8.800
 1514POPC   D2A22492  18.626  41.405   8.378
 1514POPC   C3A22493  18.487  41.470   7.938
 1514POPC   C4A22494  18.648  41.793   7.683
 1514POPC   C1B22495  17.984  41.553   8.790
 1514POPC   C2B22496  18.144  41.636   8.392
 1514POPC   C3B22497  17.991  41.548   7.991
 1514POPC   C4B22498  17.731  41.438   7.592
 1515POPC   NC322499  36.195  38.235   9.710
 1515POPC   PO422500  36.471  38.811   9.515
 1515POPC   GL122501  36.421  38.469   9.187
 1515POPC   GL222502  36.124  38.366   9.103
 1515POPC   C1A22503  36.393  38.544   8.689
 1515POPC   D2A22504  36.157  38.708   8.283
 1515POPC   C3A22505  36.230  38.556   7.823
 1515POPC   C4A22506  36.468  38.756   7.444
 1515POPC   C1B22507  35.925  38.276   8.690
 1515POPC   C2B22508  35.827  38.313   8.241
 1515POPC   C3B22509  35.900  38.056   7.872
 1515POPC   C4B22510  35.799  38.147   7.452
 1516POPC   NC322511   5.524  22.206   9.259
 1516POPC   PO422512   5.010  22.142   9.696
 1516POPC   GL122513   4.922  22.174   9.243
 1516POPC   GL222514   4.622  21.950   9.254
 1516POPC   C1A22515   5.051  22.110   8.778
 1516POPC   D2A22516   5.272  22.083   8.362
 1516POPC   C3A22517   5.085  22.247   7.974
 1516POPC   C4A22518   5.286  22.234   7.569
 1516POPC   C1B22519   4.671  21.753   8.851
 1516POPC   C2B22520   4.857  21.756   8.437
 1516POPC   C3B22521   4.736  21.857   8.007
 1516POPC   C4B22522   4.876  21.926   7.560
 1517POPC   NC322523  44.922  16.120   9.756
 1517POPC   PO422524  44.525  16.315   9.281
 1517POPC   GL122525  44.680  15.998   9.071
 1517POPC   GL222526  44.944  15.810   9.048
 1517POPC   C1A22527  44.576  15.949   8.658
 1517POPC   D2A22528  44.542  16.206   8.304
 1517POPC   C3A22529  44.528  16.005   7.919
 1517POPC   C4A22530  44.294  16.121   7.564
 1517POPC   C1B22531   0.081  15.757   8.658
 1517POPC   C2B22532  44.823  15.713   8.278
 1517POPC   C3B22533  44.981  15.773   7.849
 1517POPC   C4B22534   0.104  15.725   7.432
 1518POPC   NC322535  37.163  15.077   9.533
 1518POPC   PO422536  36.721  15.609   9.338
 1518POPC   GL122537  37.044  15.416   9.149
 1518POPC   GL222538  36.874  15.096   9.124
 1518POPC   C1A22539  37.218  15.266   8.779
 1518POPC   D2A22540  37.178  15.077   8.383
 1518POPC   C3A22541  36.982  15.288   8.059
 1518POPC   C4A22542  36.768  15.086   7.740
 1518POPC   C1B22543  36.645  15.214   8.776
 1518POPC   C2B22544  36.717  15.483   8.438
 1518POPC   C3B22545  36.509  15.465   8.014
 1518POPC   C4B22546  36.621  15.536   7.563
 1519POPC   NC322547  17.921  30.525   9.602
 1519POPC   PO422548  18.439  31.006   9.477
 1519POPC   GL122549  18.111  30.831   9.205
 1519POPC   GL222550  18.250  31.038   8.979
 1519POPC   C1A22551  18.022  30.599   8.793
 1519POPC   D2A22552  18.229  30.502   8.386
 1519POPC   C3A22553  18.209  30.681   7.969
 1519POPC   C4A22554  18.277  30.531   7.563
 1519POPC   C1B22555  18.521  30.763   8.739
 1519POPC   C2B22556  18.495  30.925   8.326
 1519POPC   C3B22557  18.715  31.054   7.963
 1519POPC   C4B22558  18.809  31.056   7.552
 1520POPC   NC322559  18.187  43.417   9.603
 1520POPC   PO422560  18.271  44.058   9.622
 1520POPC   GL122561  18.413  43.848   9.270
 1520POPC   GL222562  18.723  43.719   9.388
 1520POPC   C1A22563  18.285  43.872   8.823
 1520POPC   D2A22564  18.210  44.052   8.398
 1520POPC   C3A22565  18.194  43.871   7.956
 1520POPC   C4A22566  18.259  44.106   7.548
 1520POPC   C1B22567  18.754  43.719   8.917
 1520POPC   C2B22568  18.744  44.013   8.579
 1520POPC   C3B22569  18.669  43.973   8.134
 1520POPC   C4B22570  18.628  43.766   7.711
 1521POPC   NC322571   1.793   3.969   9.445
 1521POPC   PO422572   1.975   4.496   9.591
 1521POPC   GL122573   2.074   4.540   9.159
 1521POPC   GL222574   2.093   4.197   9.084
 1521POPC   C1A22575   1.961   4.583   8.721
 1521POPC   D2A22576   1.971   4.420   8.303
 1521POPC   C3A22577   1.993   4.639   7.891
 1521POPC   C4A22578   1.927   4.496   7.461
 1521POPC   C1B22579   2.027   4.029   8.654
 1521POPC   C2B22580   2.077   3.929   8.212
 1521POPC   C3B22581   2.039   4.117   7.789
 1521POPC   C4B22582   2.186   4.018   7.414
 1522POPC   NC322583  23.720  44.825   9.410
 1522POPC   PO422584  23.419   0.458   9.523
 1522POPC   GL122585  23.689   0.565   9.219
 1522POPC   GL222586  23.899   0.278   9.241
 1522POPC   C1A22587  23.717   0.741   8.814
 1522POPC   D2A22588  23.653   0.546   8.416
 1522POPC   C3A22589  23.627   0.820   8.070
 1522POPC   C4A22590  23.659   0.698   7.688
 1522POPC   C1B22591  24.006   0.319   8.793
 1522POPC   C2B22592  24.142   0.497   8.388
 1522POPC   C3B22593  23.960   0.408   7.981
 1522POPC   C4B22594  24.131   0.470   7.548
 1523POPC   NC322595  24.792  38.919   9.410
 1523POPC   PO422596  24.660  39.479   9.648
 1523POPC   GL122597  24.501  39.365   9.234
 1523POPC   GL222598  24.221  39.121   9.237
 1523POPC   C1A22599  24.550  39.357   8.778
 1523POPC   D2A22600  24.312  39.264   8.414
 1523POPC   C3A22601  24.526  39.397   8.045
 1523POPC   C4A22602  24.644  39.370   7.605
 1523POPC   C1B22603  24.276  38.895   8.851
 1523POPC   C2B22604  24.400  38.764   8.451
 1523POPC   C3B22605  24.521  38.886   8.021
 1523POPC   C4B22606  24.792  38.587   7.827
 1524POPC   NC322607   7.902  32.656   9.308
 1524POPC   PO422608   8.516  32.854   9.285
 1524POPC   GL122609   8.154  33.008   9.036
 1524POPC   GL222610   7.999  33.344   9.157
 1524POPC   C1A22611   7.967  32.802   8.645
 1524POPC   D2A22612   7.988  32.954   8.214
 1524POPC   C3A22613   8.295  32.872   7.899
 1524POPC   C4A22614   8.338  33.238   7.655
 1524POPC   C1B22615   7.871  33.292   8.718
 1524POPC   C2B22616   7.688  33.358   8.314
 1524POPC   C3B22617   7.856  33.353   7.880
 1524POPC   C4B22618   7.903  33.359   7.402
 1525POPC   NC322619  38.152  42.703   9.371
 1525POPC   PO422620  37.638  42.344   9.562
 1525POPC   GL122621  37.679  42.396   9.176
 1525POPC   GL222622  38.024  42.295   9.081
 1525POPC   C1A22623  37.590  42.221   8.795
 1525POPC   D2A22624  37.880  42.254   8.461
 1525POPC   C3A22625  37.658  42.275   8.099
 1525POPC   C4A22626  37.518  42.131   7.710
 1525POPC   C1B22627  37.880  42.648   8.797
 1525POPC   C2B22628  38.004  42.748   8.385
 1525POPC   C3B22629  38.048  42.616   7.997
 1525POPC   C4B22630  37.867  42.501   7.683
 1526POPC   NC322631  34.481  21.057   9.669
 1526POPC   PO422632  35.057  21.403   9.598
 1526POPC   GL122633  34.754  21.402   9.230
 1526POPC   GL222634  34.568  21.708   9.148
 1526POPC   C1A22635  34.583  21.316   8.789
 1526POPC   D2A22636  34.743  21.100   8.424
 1526POPC   C3A22637  34.835  21.179   7.980
 1526POPC   C4A22638  34.518  21.417   7.744
 1526POPC   C1B22639  34.912  21.713   8.825
 1526POPC   C2B22640  34.828  21.848   8.387
 1526POPC   C3B22641  34.917  21.686   7.986
 1526POPC   C4B22642  34.904  21.737   7.547
 1527POPC   NC322643  44.657   5.402   9.401
 1527POPC   PO422644  44.931   4.796   9.569
 1527POPC   GL122645  44.772   4.874   9.123
 1527POPC   GL222646  44.503   5.121   9.021
 1527POPC   C1A22647  44.753   4.921   8.650
 1527POPC   D2A22648  44.803   5.100   8.245
 1527POPC   C3A22649   0.014   4.789   7.989
 1527POPC   C4A22650  44.899   4.654   7.580
 1527POPC   C1B22651  44.200   5.366   8.736
 1527POPC   C2B22652  44.041   5.299   8.322
 1527POPC   C3B22653  44.262   5.220   7.972
 1527POPC   C4B22654  44.261   5.383   7.588
 1528POPC   NC322655   2.064  27.909   9.602
 1528POPC   PO422656   1.751  27.336   9.539
 1528POPC   GL122657   1.702  27.652   9.196
 1528POPC   GL222658   2.055  27.604   9.165
 1528POPC   C1A22659   1.756  27.586   8.719
 1528POPC   D2A22660   2.001  27.308   8.391
 1528POPC   C3A22661   1.875  27.331   7.940
 1528POPC   C4A22662   1.808  27.727   7.687
 1528POPC   C1B22663   2.245  27.735   8.788
 1528POPC   C2B22664   2.377  27.767   8.379
 1528POPC   C3B22665   2.248  27.666   7.962
 1528POPC   C4B22666   2.455  27.699   7.556
 1529POPC   NC322667  33.436  32.648   9.560
 1529POPC   PO422668  33.115  32.034   9.579
 1529POPC   GL122669  33.261  32.180   9.204
 1529POPC   GL222670  33.066  32.479   9.160
 1529POPC   C1A22671  33.085  32.144   8.784
 1529POPC   D2A22672  33.031  32.339   8.411
 1529POPC   C3A22673  33.305  32.198   8.070
 1529POPC   C4A22674  33.105  32.063   7.699
 1529POPC   C1B22675  33.198  32.694   8.764
 1529POPC   C2B22676  33.453  32.662   8.340
 1529POPC   C3B22677  33.424  32.668   7.862
 1529POPC   C4B22678  33.039  32.570   7.645
 1530POPC   NC322679  32.520  33.040   9.475
 1530POPC   PO422680  31.934  32.808   9.355
 1530POPC   GL122681  32.138  32.912   8.980
 1530POPC   GL222682  32.343  33.161   9.033
 1530POPC   C1A22683  32.246  33.071   8.553
 1530POPC   D2A22684  32.274  33.123   8.121
 1530POPC   C3A22685  32.240  32.735   7.980
 1530POPC   C4A22686  32.064  32.740   7.627
 1530POPC   C1B22687  32.635  33.388   8.775
 1530POPC   C2B22688  32.789  33.471   8.360
 1530POPC   C3B22689  32.634  33.493   7.944
 1530POPC   C4B22690  32.420  33.233   7.627
 1531POPC   NC322691  27.233  36.689   9.224
 1531POPC   PO422692  26.847  37.190   9.560
 1531POPC   GL122693  26.851  37.232   9.132
 1531POPC   GL222694  27.192  37.262   9.115
 1531POPC   C1A22695  26.654  37.095   8.730
 1531POPC   D2A22696  26.437  36.996   8.333
 1531POPC   C3A22697  26.628  36.908   7.947
 1531POPC   C4A22698  26.806  36.525   7.882
 1531POPC   C1B22699  27.166  37.105   8.716
 1531POPC   C2B22700  27.000  36.913   8.365
 1531POPC   C3B22701  27.178  36.918   7.990
 1531POPC   C4B22702  27.007  36.941   7.590
 1532POPC   NC322703   1.223  39.801   9.652
 1532POPC   PO422704   1.135  39.134   9.443
 1532POPC   GL122705   1.306  39.163   9.070
 1532POPC   GL222706   1.518  38.897   9.050
 1532POPC   C1A22707   1.104  39.191   8.678
 1532POPC   D2A22708   1.315  39.214   8.302
 1532POPC   C3A22709   1.004  39.153   8.014
 1532POPC   C4A22710   0.814  39.402   7.718
 1532POPC   C1B22711   1.315  38.731   8.697
 1532POPC   C2B22712   1.409  38.727   8.277
 1532POPC   C3B22713   1.379  38.852   7.885
 1532POPC   C4B22714   1.274  39.177   7.583
 1533POPC   NC322715  10.796  41.704   9.593
 1533POPC   PO422716  10.543  41.120   9.647
 1533POPC   GL122717  10.584  41.350   9.210
 1533POPC   GL222718  10.595  41.719   9.129
 1533POPC   C1A22719  10.352  41.413   8.804
 1533POPC   D2A22720  10.473  41.462   8.388
 1533POPC   C3A22721  10.425  41.848   8.111
 1533POPC   C4A22722  10.368  41.509   7.833
 1533POPC   C1B22723  10.844  41.607   8.788
 1533POPC   C2B22724  10.847  41.800   8.404
 1533POPC   C3B22725  10.851  41.585   8.034
 1533POPC   C4B22726  10.760  41.835   7.709
 1534POPC   NC322727  13.987   6.074   9.362
 1534POPC   PO422728  14.585   5.812   9.484
 1534POPC   GL122729  14.364   5.796   9.134
 1534POPC   GL222730  14.663   5.743   8.962
 1534POPC   C1A22731  14.146   5.941   8.748
 1534POPC   D2A22732  14.023   6.084   8.332
 1534POPC   C3A22733  14.041   5.782   8.030
 1534POPC   C4A22734  14.249   5.803   7.622
 1534POPC   C1B22735  14.606   6.166   8.853
 1534POPC   C2B22736  14.496   6.269   8.459
 1534POPC   C3B22737  14.450   6.087   8.066
 1534POPC   C4B22738  14.612   6.212   7.710
 1535POPC   NC322739   2.489  31.246   9.492
 1535POPC   PO422740   3.018  31.755   9.526
 1535POPC   GL122741   2.799  31.584   9.173
 1535POPC   GL222742   2.476  31.729   9.234
 1535POPC   C1A22743   2.708  31.590   8.709
 1535POPC   D2A22744   2.837  31.728   8.277
 1535POPC   C3A22745   2.721  31.384   7.972
 1535POPC   C4A22746   2.807  31.228   7.533
 1535POPC   C1B22747   2.251  31.775   8.840
 1535POPC   C2B22748   2.277  31.640   8.400
 1535POPC   C3B22749   2.394  31.785   8.014
 1535POPC   C4B22750   2.448  31.601   7.606
 1536POPC   NC322751  18.772  28.782   9.830
 1536POPC   PO422752  19.224  29.189   9.669
 1536POPC   GL122753  19.086  29.228   9.211
 1536POPC   GL222754  19.158  28.876   9.188
 1536POPC   C1A22755  18.809  29.162   8.766
 1536POPC   D2A22756  18.748  29.316   8.342
 1536POPC   C3A22757  18.731  29.067   7.970
 1536POPC   C4A22758  18.698  29.286   7.621
 1536POPC   C1B22759  19.285  29.024   8.800
 1536POPC   C2B22760  19.169  29.055   8.409
 1536POPC   C3B22761  19.204  29.226   8.018
 1536POPC   C4B22762  19.158  29.061   7.611
 1537POPC   NC322763   3.332  43.387   9.525
 1537POPC   PO422764   3.956  43.437   9.654
 1537POPC   GL122765   3.699  43.312   9.189
 1537POPC   GL222766   3.423  43.035   9.150
 1537POPC   C1A22767   3.400  43.387   8.778
 1537POPC   D2A22768   3.244  43.300   8.308
 1537POPC   C3A22769   3.549  43.058   8.037
 1537POPC   C4A22770   3.691  42.895   7.645
 1537POPC   C1B22771   3.158  42.929   8.772
 1537POPC   C2B22772   3.214  42.789   8.339
 1537POPC   C3B22773   3.055  42.950   7.940
 1537POPC   C4B22774   3.178  42.885   7.536
 1538POPC   NC322775  21.116   7.081   9.493
 1538POPC   PO422776  21.571   7.643   9.378
 1538POPC   GL122777  21.463   7.297   9.138
 1538POPC   GL222778  21.097   7.387   9.095
 1538POPC   C1A22779  21.330   7.103   8.765
 1538POPC   D2A22780  21.095   7.311   8.471
 1538POPC   C3A22781  21.199   7.211   8.100
 1538POPC   C4A22782  21.455   7.194   7.778
 1538POPC   C1B22783  21.242   7.675   8.785
 1538POPC   C2B22784  21.375   7.721   8.349
 1538POPC   C3B22785  21.286   7.671   7.904
 1538POPC   C4B22786  21.312   7.940   7.569
 1539POPC   NC322787   7.300   3.229   9.487
 1539POPC   PO422788   7.368   3.900   9.539
 1539POPC   GL122789   7.524   3.660   9.189
 1539POPC   GL222790   7.189   3.627   9.098
 1539POPC   C1A22791   7.532   3.485   8.751
 1539POPC   D2A22792   7.791   3.384   8.375
 1539POPC   C3A22793   7.730   3.584   8.000
 1539POPC   C4A22794   7.697   3.462   7.583
 1539POPC   C1B22795   7.149   3.849   8.682
 1539POPC   C2B22796   7.274   3.678   8.275
 1539POPC   C3B22797   7.236   3.604   7.829
 1539POPC   C4B22798   6.968   3.229   7.779
 1540POPC   NC322799  23.362   0.937   9.407
 1540POPC   PO422800  23.946   1.304   9.453
 1540POPC   GL122801  23.708   1.186   9.101
 1540POPC   GL222802  23.341   1.263   9.004
 1540POPC   C1A22803  23.930   1.225   8.749
 1540POPC   D2A22804  23.913   1.013   8.425
 1540POPC   C3A22805  23.995   1.253   8.096
 1540POPC   C4A22806  23.755   1.204   7.726
 1540POPC   C1B22807  23.472   1.434   8.628
 1540POPC   C2B22808  23.514   1.305   8.217
 1540POPC   C3B22809  23.307   1.408   7.845
 1540POPC   C4B22810  23.377   1.425   7.401
 1541POPC   NC322811  18.394  36.549   9.865
 1541POPC   PO422812  18.044  37.006   9.715
 1541POPC   GL122813  18.055  37.107   9.235
 1541POPC   GL222814  18.405  37.214   9.166
 1541POPC   C1A22815  18.140  36.993   8.770
 1541POPC   D2A22816  18.339  36.840   8.349
 1541POPC   C3A22817  18.129  36.796   7.923
 1541POPC   C4A22818  17.958  36.646   7.498
 1541POPC   C1B22819  18.621  37.149   8.748
 1541POPC   C2B22820  18.640  37.248   8.304
 1541POPC   C3B22821  18.699  37.032   7.898
 1541POPC   C4B22822  18.863  37.116   7.472
 1542POPC   NC322823  20.661  23.160   9.404
 1542POPC   PO422824  20.120  22.897   9.682
 1542POPC   GL122825  20.381  22.733   9.282
 1542POPC   GL222826  20.785  22.703   9.209
 1542POPC   C1A22827  20.462  22.671   8.827
 1542POPC   D2A22828  20.666  22.776   8.443
 1542POPC   C3A22829  20.608  22.569   8.079
 1542POPC   C4A22830  20.581  22.784   7.689
 1542POPC   C1B22831  20.906  22.989   8.838
 1542POPC   C2B22832  21.077  23.070   8.402
 1542POPC   C3B22833  20.991  22.938   7.969
 1542POPC   C4B22834  21.035  22.998   7.528
 1543POPC   NC322835   7.200  33.520   9.470
 1543POPC   PO422836   7.492  32.842   9.383
 1543POPC   GL122837   7.600  33.013   9.034
 1543POPC   GL222838   7.362  33.258   9.046
 1543POPC   C1A22839   7.464  32.973   8.614
 1543POPC   D2A22840   7.554  32.711   8.280
 1543POPC   C3A22841   7.534  32.963   7.940
 1543POPC   C4A22842   7.833  32.887   7.647
 1543POPC   C1B22843   7.132  33.556   8.810
 1543POPC   C2B22844   7.184  33.463   8.388
 1543POPC   C3B22845   7.353  33.547   7.983
 1543POPC   C4B22846   7.387  33.356   7.596
 1544POPC   NC322847  26.616  12.541   9.577
 1544POPC   PO422848  26.964  12.976   9.360
 1544POPC   GL122849  26.936  12.751   9.001
 1544POPC   GL222850  26.705  12.491   9.038
 1544POPC   C1A22851  26.980  12.946   8.610
 1544POPC   D2A22852  26.817  13.117   8.245
 1544POPC   C3A22853  26.906  12.919   7.848
 1544POPC   C4A22854  26.895  12.996   7.401
 1544POPC   C1B22855  26.843  12.455   8.592
 1544POPC   C2B22856  26.748  12.512   8.166
 1544POPC   C3B22857  27.040  12.435   7.845
 1544POPC   C4B22858  27.121  12.532   7.406
 1545POPC   NC322859  16.954  39.722   9.535
 1545POPC   PO422860  16.730  40.404   9.468
 1545POPC   GL122861  16.819  40.104   9.178
 1545POPC   GL222862  16.550  39.875   9.218
 1545POPC   C1A22863  16.985  40.073   8.771
 1545POPC   D2A22864  16.836  40.037   8.331
 1545POPC   C3A22865  17.058  40.022   7.923
 1545POPC   C4A22866  16.924  40.270   7.552
 1545POPC   C1B22867  16.464  39.992   8.786
 1545POPC   C2B22868  16.352  39.838   8.356
 1545POPC   C3B22869  16.544  39.941   7.904
 1545POPC   C4B22870  16.606  39.895   7.412
 1546POPC   NC322871   2.818  29.011   9.312
 1546POPC   PO422872   2.704  28.390   9.522
 1546POPC   GL122873   2.859  28.499   9.143
 1546POPC   GL222874   2.910  28.154   9.115
 1546POPC   C1A22875   2.713  28.654   8.736
 1546POPC   D2A22876   2.582  28.719   8.334
 1546POPC   C3A22877   2.739  28.534   7.986
 1546POPC   C4A22878   2.521  28.509   7.618
 1546POPC   C1B22879   3.020  28.210   8.742
 1546POPC   C2B22880   2.833  28.111   8.398
 1546POPC   C3B22881   3.008  28.109   8.044
 1546POPC   C4B22882   2.802  28.073   7.669
 1547POPC   NC322883  16.999  25.487   9.736
 1547POPC   PO422884  16.586  25.014   9.530
 1547POPC   GL122885  16.886  25.135   9.183
 1547POPC   GL222886  16.966  25.510   9.186
 1547POPC   C1A22887  16.813  24.934   8.791
 1547POPC   D2A22888  16.643  25.133   8.451
 1547POPC   C3A22889  16.740  24.966   8.061
 1547POPC   C4A22890  16.832  25.197   7.710
 1547POPC   C1B22891  16.838  25.633   8.719
 1547POPC   C2B22892  16.859  25.590   8.217
 1547POPC   C3B22893  16.833  25.705   7.740
 1547POPC   C4B22894  17.066  25.656   7.335
 1548POPC   NC322895  12.271  16.689   9.464
 1548POPC   PO422896  11.671  17.055   9.618
 1548POPC   GL122897  11.827  16.894   9.169
 1548POPC   GL222898  12.102  16.666   9.000
 1548POPC   C1A22899  11.846  16.926   8.681
 1548POPC   D2A22900  11.990  16.622   8.336
 1548POPC   C3A22901  11.906  16.822   7.918
 1548POPC   C4A22902  11.979  16.770   7.475
 1548POPC   C1B22903  12.350  16.832   8.632
 1548POPC   C2B22904  12.342  16.936   8.168
 1548POPC   C3B22905  12.386  16.693   7.788
 1548POPC   C4B22906  12.455  16.848   7.366
 1549POPC   NC322907  25.152  39.455   9.650
 1549POPC   PO422908  25.218  38.779   9.517
 1549POPC   GL122909  25.295  39.103   9.232
 1549POPC   GL222910  25.024  39.339   9.157
 1549POPC   C1A22911  25.452  39.103   8.824
 1549POPC   D2A22912  25.327  39.080   8.413
 1549POPC   C3A22913  25.439  39.338   8.099
 1549POPC   C4A22914  25.485  39.181   7.726
 1549POPC   C1B22915  24.945  39.032   8.795
 1549POPC   C2B22916  24.818  39.089   8.379
 1549POPC   C3B22917  25.010  39.063   7.957
 1549POPC   C4B22918  25.051  39.060   7.496
 1550POPC   NC322919  35.803  30.107   9.466
 1550POPC   PO422920  36.170  29.658   9.390
 1550POPC   GL122921  36.096  29.978   9.044
 1550POPC   GL222922  36.141  30.323   9.107
 1550POPC   C1A22923  36.179  30.093   8.603
 1550POPC   D2A22924  36.200  29.714   8.353
 1550POPC   C3A22925  36.047  29.701   7.952
 1550POPC   C4A22926  36.092  29.916   7.596
 1550POPC   C1B22927  35.758  30.302   8.826
 1550POPC   C2B22928  35.658  30.249   8.379
 1550POPC   C3B22929  35.766  30.163   7.933
 1550POPC   C4B22930  35.856  30.353   7.509
 1551POPC   NC322931  12.685  36.566   9.524
 1551POPC   PO422932  13.017  37.218   9.457
 1551POPC   GL122933  12.999  36.914   9.112
 1551POPC   GL222934  12.677  36.731   9.053
 1551POPC   C1A22935  12.993  36.893   8.652
 1551POPC   D2A22936  12.726  37.069   8.323
 1551POPC   C3A22937  12.781  36.932   7.898
 1551POPC   C4A22938  13.091  36.853   7.578
 1551POPC   C1B22939  12.473  36.758   8.680
 1551POPC   C2B22940  12.397  36.653   8.274
 1551POPC   C3B22941  12.553  36.475   7.927
 1551POPC   C4B22942  12.336  36.740   7.701
 1552POPC   NC322943  36.171  32.320   9.604
 1552POPC   PO422944  35.567  32.469   9.280
 1552POPC   GL122945  35.929  32.273   9.150
 1552POPC   GL222946  36.182  32.560   9.154
 1552POPC   C1A22947  35.895  32.042   8.755
 1552POPC   D2A22948  35.878  32.299   8.384
 1552POPC   C3A22949  35.904  32.126   8.006
 1552POPC   C4A22950  35.935  32.479   7.737
 1552POPC   C1B22951  36.296  32.348   8.787
 1552POPC   C2B22952  36.333  32.075   8.418
 1552POPC   C3B22953  36.403  32.211   8.003
 1552POPC   C4B22954  36.242  32.126   7.608
 1553POPC   NC322955   6.330  22.415   9.338
 1553POPC   PO422956   6.969  22.171   9.542
 1553POPC   GL122957   6.835  22.078   9.171
 1553POPC   GL222958   6.780  22.428   9.123
 1553POPC   C1A22959   6.723  22.057   8.740
 1553POPC   D2A22960   6.709  21.891   8.333
 1553POPC   C3A22961   6.402  22.056   8.050
 1553POPC   C4A22962   6.568  22.010   7.663
 1553POPC   C1B22963   6.768  22.590   8.732
 1553POPC   C2B22964   6.653  22.419   8.352
 1553POPC   C3B22965   6.833  22.303   7.995
 1553POPC   C4B22966   6.768  22.523   7.661
 1554POPC   NC322967   3.935  12.551   9.500
 1554POPC   PO422968   3.396  12.933   9.594
 1554POPC   GL122969   3.548  12.943   9.178
 1554POPC   GL222970   3.566  12.597   9.139
 1554POPC   C1A22971   3.335  12.909   8.788
 1554POPC   D2A22972   3.375  12.811   8.374
 1554POPC   C3A22973   3.738  12.766   8.097
 1554POPC   C4A22974   3.627  12.878   7.652
 1554POPC   C1B22975   3.549  12.430   8.732
 1554POPC   C2B22976   3.528  12.328   8.313
 1554POPC   C3B22977   3.275  12.503   7.964
 1554POPC   C4B22978   3.268  12.561   7.502
 1555POPC   NC322979  20.884  44.594   9.436
 1555POPC   PO422980  20.302  44.642   9.697
 1555POPC   GL122981  20.428  44.627   9.220
 1555POPC   GL222982  20.590  44.311   9.105
 1555POPC   C1A22983  20.607  44.854   8.862
 1555POPC   D2A22984  20.900  44.826   8.509
 1555POPC   C3A22985  20.676  44.684   8.151
 1555POPC   C4A22986  20.683  44.777   7.742
 1555POPC   C1B22987  20.901  44.405   8.800
 1555POPC   C2B22988  21.036  44.333   8.371
 1555POPC   C3B22989  20.900  44.247   7.969
 1555POPC   C4B22990  20.822  44.344   7.542
 1556POPC   NC322991  44.541  19.490   9.609
 1556POPC   PO422992   0.074  19.883   9.703
 1556POPC   GL122993  44.871  19.790   9.285
 1556POPC   GL222994  44.537  19.960   9.231
 1556POPC   C1A22995  44.915  19.917   8.834
 1556POPC   D2A22996   0.060  19.867   8.397
 1556POPC   C3A22997  44.888  19.965   7.992
 1556POPC   C4A22998  44.750  19.885   7.582
 1556POPC   C1B22999  44.457  20.146   8.795
 1556POPC   C2B23000  44.515  19.970   8.352
 1556POPC   C3B23001  44.353  19.985   7.909
 1556POPC   C4B23002  44.315  20.138   7.450
 1557POPC   NC323003  20.362   9.201   9.510
 1557POPC   PO423004  20.789   8.663   9.510
 1557POPC   GL123005  20.708   8.950   9.190
 1557POPC   GL223006  20.361   8.867   9.104
 1557POPC   C1A23007  20.689   9.051   8.745
 1557POPC   D2A23008  20.455   9.109   8.383
 1557POPC   C3A23009  20.656   8.925   8.034
 1557POPC   C4A23010  20.573   9.172   7.703
 1557POPC   C1B23011  20.154   8.777   8.707
 1557POPC   C2B23012  20.239   8.651   8.257
 1557POPC   C3B23013  20.215   8.777   7.798
 1557POPC   C4B23014  20.376   8.868   7.366
 1558POPC   NC323015  33.258  14.107   9.415
 1558POPC   PO423016  32.885  14.767   9.390
 1558POPC   GL123017  32.997  14.488   9.080
 1558POPC   GL223018  33.337  14.432   9.023
 1558POPC   C1A23019  32.922  14.213   8.757
 1558POPC   D2A23020  33.108  14.369   8.401
 1558POPC   C3A23021  32.841  14.265   8.084
 1558POPC   C4A23022  32.808  14.444   7.694
 1558POPC   C1B23023  33.437  14.067   8.762
 1558POPC   C2B23024  33.562  14.053   8.337
 1558POPC   C3B23025  33.318  14.151   7.975
 1558POPC   C4B23026  33.062  13.911   7.729
 1559POPC   NC323027  14.195  12.842   9.496
 1559POPC   PO423028  13.512  12.937   9.513
 1559POPC   GL123029  13.536  12.686   9.157
 1559POPC   GL223030  13.839  12.517   9.261
 1559POPC   C1A23031  13.560  12.812   8.743
 1559POPC   D2A23032  13.363  12.734   8.320
 1559POPC   C3A23033  13.516  12.890   7.910
 1559POPC   C4A23034  13.476  13.049   7.429
 1559POPC   C1B23035  13.975  12.514   8.823
 1559POPC   C2B23036  13.880  12.673   8.386
 1559POPC   C3B23037  13.993  12.673   7.954
 1559POPC   C4B23038  13.817  12.657   7.551
 1560POPC   NC323039  40.028  43.873   9.349
 1560POPC   PO423040  39.700  43.289   9.340
 1560POPC   GL123041  39.890  43.567   8.974
 1560POPC   GL223042  40.286  43.641   8.976
 1560POPC   C1A23043  39.912  43.972   8.711
 1560POPC   D2A23044  40.159  44.107   8.354
 1560POPC   C3A23045  39.976  43.957   7.948
 1560POPC   C4A23046  39.775  43.981   7.561
 1560POPC   C1B23047  40.266  43.352   8.658
 1560POPC   C2B23048  40.114  43.589   8.365
 1560POPC   C3B23049  40.399  43.714   8.083
 1560POPC   C4B23050  40.360  43.651   7.679
 1561POPC   NC323051  14.773  12.967   9.682
 1561POPC   PO423052  14.514  12.555   9.291
 1561POPC   GL123053  14.304  12.846   9.006
 1561POPC   GL223054  13.950  13.004   9.081
 1561POPC   C1A23055  14.416  12.738   8.596
 1561POPC   D2A23056  14.708  12.882   8.253
 1561POPC   C3A23057  14.612  12.794   7.823
 1561POPC   C4A23058  14.300  12.767   7.508
 1561POPC   C1B23059  14.035  13.093   8.649
 1561POPC   C2B23060  14.210  13.017   8.246
 1561POPC   C3B23061  14.247  13.162   7.870
 1561POPC   C4B23062  13.897  13.144   7.687
 1562POPC   NC323063  20.630  11.042   9.891
 1562POPC   PO423064  20.621  11.625   9.536
 1562POPC   GL123065  20.602  11.411   9.143
 1562POPC   GL223066  20.835  11.128   9.125
 1562POPC   C1A23067  20.789  11.469   8.721
 1562POPC   D2A23068  20.874  11.126   8.404
 1562POPC   C3A23069  20.821  11.261   7.985
 1562POPC   C4A23070  20.696  11.073   7.614
 1562POPC   C1B23071  20.507  11.055   8.768
 1562POPC   C2B23072  20.331  11.006   8.324
 1562POPC   C3B23073  20.307  10.840   7.898
 1562POPC   C4B23074  20.208  10.947   7.468
 1563POPC   NC323075  20.291   7.644   9.543
 1563POPC   PO423076  20.686   7.187   9.380
 1563POPC   GL123077  20.502   7.390   9.109
 1563POPC   GL223078  20.688   7.672   9.120
 1563POPC   C1A23079  20.345   7.281   8.732
 1563POPC   D2A23080  20.131   7.156   8.355
 1563POPC   C3A23081  20.428   6.932   8.085
 1563POPC   C4A23082  20.456   6.980   7.642
 1563POPC   C1B23083  20.737   7.641   8.678
 1563POPC   C2B23084  20.863   7.709   8.240
 1563POPC   C3B23085  20.828   7.510   7.821
 1563POPC   C4B23086  20.891   7.719   7.385
 1564POPC   NC323087   3.736   0.861   9.462
 1564POPC   PO423088   3.274   1.318   9.722
 1564POPC   GL123089   3.459   1.262   9.275
 1564POPC   GL223090   3.770   1.396   9.167
 1564POPC   C1A23091   3.432   1.318   8.797
 1564POPC   D2A23092   3.249   1.198   8.410
 1564POPC   C3A23093   3.476   1.243   8.051
 1564POPC   C4A23094   3.402   1.380   7.630
 1564POPC   C1B23095   3.883   1.066   8.836
 1564POPC   C2B23096   3.728   0.893   8.422
 1564POPC   C3B23097   3.807   0.821   7.968
 1564POPC   C4B23098   3.804   1.080   7.595
 1565POPC   NC323099  38.442  39.608   9.551
 1565POPC   PO423100  38.450  40.315   9.345
 1565POPC   GL123101  38.366  39.925   9.138
 1565POPC   GL223102  38.680  39.729   9.123
 1565POPC   C1A23103  38.433  39.910   8.718
 1565POPC   D2A23104  38.344  40.138   8.386
 1565POPC   C3A23105  38.403  39.898   8.052
 1565POPC   C4A23106  38.172  39.728   7.722
 1565POPC   C1B23107  38.920  39.794   8.754
 1565POPC   C2B23108  38.833  39.918   8.342
 1565POPC   C3B23109  38.845  39.675   7.947
 1565POPC   C4B23110  38.859  39.710   7.455
 1566POPC   NC323111   0.030  18.839   9.446
 1566POPC   PO423112   0.623  19.158   9.433
 1566POPC   GL123113   0.391  18.992   9.149
 1566POPC   GL223114   0.248  19.307   9.061
 1566POPC   C1A23115   0.138  18.862   8.794
 1566POPC   D2A23116   0.273  18.901   8.380
 1566POPC   C3A23117   0.039  18.887   8.003
 1566POPC   C4A23118   0.149  19.060   7.606
 1566POPC   C1B23119   0.549  19.185   8.731
 1566POPC   C2B23120   0.594  19.317   8.350
 1566POPC   C3B23121   0.453  19.196   7.996
 1566POPC   C4B23122   0.609  19.397   7.715
 1567POPC   NC323123  16.453   3.056   9.631
 1567POPC   PO423124  17.042   2.862   9.408
 1567POPC   GL123125  16.678   2.798   9.200
 1567POPC   GL223126  16.604   3.091   9.153
 1567POPC   C1A23127  16.489   2.751   8.784
 1567POPC   D2A23128  16.649   2.720   8.378
 1567POPC   C3A23129  16.459   2.723   7.989
 1567POPC   C4A23130  16.662   2.544   7.651
 1567POPC   C1B23131  16.572   3.258   8.757
 1567POPC   C2B23132  16.719   3.229   8.360
 1567POPC   C3B23133  16.791   3.109   7.972
 1567POPC   C4B23134  16.627   3.054   7.566
 1568POPC   NC323135  44.570  38.217   9.550
 1568POPC   PO423136  44.382  38.869   9.415
 1568POPC   GL123137  44.586  38.587   9.184
 1568POPC   GL223138  44.372  38.348   9.100
 1568POPC   C1A23139  44.822  38.581   8.794
 1568POPC   D2A23140  44.834  38.406   8.340
 1568POPC   C3A23141  44.590  38.685   8.085
 1568POPC   C4A23142  44.641  38.869   7.693
 1568POPC   C1B23143  44.516  38.171   8.719
 1568POPC   C2B23144  44.344  38.080   8.335
 1568POPC   C3B23145  44.485  38.174   7.935
 1568POPC   C4B23146  44.244  38.103   7.602
 1569POPC   NC323147  36.655  35.002   9.413
 1569POPC   PO423148  36.666  34.296   9.525
 1569POPC   GL123149  36.833  34.527   9.181
 1569POPC   GL223150  37.151  34.702   9.290
 1569POPC   C1A23151  36.761  34.611   8.739
 1569POPC   D2A23152  36.923  34.499   8.343
 1569POPC   C3A23153  36.627  34.551   8.025
 1569POPC   C4A23154  36.772  34.236   7.763
 1569POPC   C1B23155  37.089  34.944   8.898
 1569POPC   C2B23156  37.087  34.977   8.438
 1569POPC   C3B23157  36.947  34.943   8.013
 1569POPC   C4B23158  36.840  35.095   7.610
 1570POPC   NC323159  11.039  31.248   9.482
 1570POPC   PO423160  11.503  31.831   9.535
 1570POPC   GL123161  11.287  31.657   9.192
 1570POPC   GL223162  11.514  31.378   9.234
 1570POPC   C1A23163  11.191  31.779   8.742
 1570POPC   D2A23164  11.060  31.635   8.276
 1570POPC   C3A23165  11.242  31.679   7.807
 1570POPC   C4A23166  11.620  31.740   7.488
 1570POPC   C1B23167  11.417  31.334   8.810
 1570POPC   C2B23168  11.379  31.257   8.391
 1570POPC   C3B23169  11.588  31.159   8.041
 1570POPC   C4B23170  11.534  31.257   7.624
 1571POPC   NC323171  33.402  39.357   9.655
 1571POPC   PO423172  33.975  39.311   9.361
 1571POPC   GL123173  33.757  39.096   9.135
 1571POPC   GL223174  33.429  39.244   9.164
 1571POPC   C1A23175  33.967  39.030   8.752
 1571POPC   D2A23176  34.041  39.203   8.366
 1571POPC   C3A23177  34.088  38.956   8.021
 1571POPC   C4A23178  33.883  38.908   7.657
 1571POPC   C1B23179  33.545  39.334   8.739
 1571POPC   C2B23180  33.496  39.169   8.343
 1571POPC   C3B23181  33.645  39.278   7.948
 1571POPC   C4B23182  33.572  39.252   7.491
 1572POPC   NC323183  10.100  39.278   9.504
 1572POPC   PO423184   9.525  38.963   9.672
 1572POPC   GL123185   9.660  39.149   9.275
 1572POPC   GL223186   9.970  38.977   9.110
 1572POPC   C1A23187   9.561  39.101   8.858
 1572POPC   D2A23188   9.800  39.032   8.513
 1572POPC   C3A23189   9.644  39.221   8.144
 1572POPC   C4A23190   9.721  39.137   7.738
 1572POPC   C1B23191  10.053  39.353   8.819
 1572POPC   C2B23192  10.101  39.404   8.354
 1572POPC   C3B23193  10.103  39.460   7.896
 1572POPC   C4B23194   9.859  39.701   7.577
 1573POPC   NC323195   4.670  44.361   9.672
 1573POPC   PO423196   4.276  44.812   9.760
 1573POPC   GL123197   4.157  44.977   9.318
 1573POPC   GL223198   3.976  44.691   9.226
 1573POPC   C1A23199   4.240   0.022   8.835
 1573POPC   D2A23200   4.286   0.147   8.400
 1573POPC   C3A23201   4.381  44.844   8.075
 1573POPC   C4A23202   4.265  44.962   7.689
 1573POPC   C1B23203   3.947  44.585   8.774
 1573POPC   C2B23204   4.020  44.563   8.302
 1573POPC   C3B23205   3.995  44.527   7.835
 1573POPC   C4B23206   3.865  44.255   7.453
 1574POPC   NC323207  18.137  32.132   9.558
 1574POPC   PO423208  18.629  31.958   9.237
 1574POPC   GL123209  18.224  31.977   9.085
 1574POPC   GL223210  18.104  32.316   9.089
 1574POPC   C1A23211  18.024  31.899   8.716
 1574POPC   D2A23212  17.828  31.955   8.310
 1574POPC   C3A23213  18.103  32.052   7.922
 1574POPC   C4A23214  18.562  32.033   7.798
 1574POPC   C1B23215  17.918  32.420   8.704
 1574POPC   C2B23216  18.022  32.443   8.268
 1574POPC   C3B23217  18.053  32.594   7.840
 1574POPC   C4B23218  18.160  32.813   7.434
 1575POPC   NC323219  11.298   7.053   9.333
 1575POPC   PO423220  11.296   6.457   9.560
 1575POPC   GL123221  11.162   6.573   9.180
 1575POPC   GL223222  10.871   6.807   9.210
 1575POPC   C1A23223  11.384   6.646   8.794
 1575POPC   D2A23224  11.371   6.835   8.404
 1575POPC   C3A23225  11.470   6.603   7.998
 1575POPC   C4A23226  11.633   6.681   7.553
 1575POPC   C1B23227  10.856   6.626   8.776
 1575POPC   C2B23228  10.830   6.794   8.363
 1575POPC   C3B23229  10.973   6.693   7.957
 1575POPC   C4B23230  11.126   6.667   7.546
 1576POPC   NC323231  36.179   0.142   9.389
 1576POPC   PO423232  36.773  44.988   9.468
 1576POPC   GL123233  36.838   0.219   9.105
 1576POPC   GL223234  36.521   0.334   9.053
 1576POPC   C1A23235  36.915   0.423   8.696
 1576POPC   D2A23236  36.717   0.342   8.280
 1576POPC   C3A23237  36.961   0.412   7.911
 1576POPC   C4A23238  36.925   0.493   7.443
 1576POPC   C1B23239  36.505   0.106   8.676
 1576POPC   C2B23240  36.312  44.966   8.292
 1576POPC   C3B23241  36.530  44.981   7.911
 1576POPC   C4B23242  36.844   0.016   7.625
 1577POPC   NC323243  30.388   7.756   9.440
 1577POPC   PO423244  31.099   7.702   9.516
 1577POPC   GL123245  30.816   7.597   9.191
 1577POPC   GL223246  30.994   7.380   8.991
 1577POPC   C1A23247  30.530   7.544   8.807
 1577POPC   D2A23248  30.734   7.392   8.418
 1577POPC   C3A23249  30.647   7.468   7.962
 1577POPC   C4A23250  30.378   7.381   7.589
 1577POPC   C1B23251  30.985   7.756   8.721
 1577POPC   C2B23252  31.114   7.807   8.315
 1577POPC   C3B23253  30.927   7.904   7.918
 1577POPC   C4B23254  30.820   7.697   7.513
 1578POPC   NC323255  32.164  38.511   9.438
 1578POPC   PO423256  32.797  38.169   9.439
 1578POPC   GL123257  32.455  38.200   9.116
 1578POPC   GL223258  32.088  38.170   9.079
 1578POPC   C1A23259  32.448  38.468   8.727
 1578POPC   D2A23260  32.572  38.384   8.281
 1578POPC   C3A23261  32.516  38.677   7.940
 1578POPC   C4A23262  32.374  38.601   7.485
 1578POPC   C1B23263  31.906  38.464   8.777
 1578POPC   C2B23264  32.066  38.567   8.378
 1578POPC   C3B23265  32.092  38.426   7.968
 1578POPC   C4B23266  31.909  38.626   7.629
 1579POPC   NC323267  19.751  40.443   9.495
 1579POPC   PO423268  19.878  41.039   9.343
 1579POPC   GL123269  19.896  40.699   9.066
 1579POPC   GL223270  19.545  40.653   9.070
 1579POPC   C1A23271  20.029  40.583   8.647
 1579POPC   D2A23272  20.170  40.857   8.307
 1579POPC   C3A23273  20.063  40.720   7.911
 1579POPC   C4A23274  19.852  41.040   7.717
 1579POPC   C1B23275  19.521  40.694   8.643
 1579POPC   C2B23276  19.605  40.629   8.191
 1579POPC   C3B23277  19.584  40.602   7.719
 1579POPC   C4B23278  19.506  40.477   7.255
 1580POPC   NC323279  30.557  42.752   9.548
 1580POPC   PO423280  30.980  43.350   9.517
 1580POPC   GL123281  30.751  43.114   9.178
 1580POPC   GL223282  30.381  43.111   9.155
 1580POPC   C1A23283  30.700  43.207   8.730
 1580POPC   D2A23284  30.691  43.018   8.310
 1580POPC   C3A23285  30.903  43.140   7.894
 1580POPC   C4A23286  30.851  43.065   7.438
 1580POPC   C1B23287  30.223  43.407   8.827
 1580POPC   C2B23288  30.404  43.493   8.415
 1580POPC   C3B23289  30.387  43.309   8.016
 1580POPC   C4B23290  30.415  43.386   7.584
 1581POPC   NC323291  21.093  13.876   9.823
 1581POPC   PO423292  21.404  13.330   9.661
 1581POPC   GL123293  21.387  13.265   9.201
 1581POPC   GL223294  21.078  13.093   9.156
 1581POPC   C1A23295  21.634  13.412   8.788
 1581POPC   D2A23296  21.606  13.760   8.452
 1581POPC   C3A23297  21.701  13.668   8.028
 1581POPC   C4A23298  21.566  13.769   7.631
 1581POPC   C1B23299  21.193  13.183   8.712
 1581POPC   C2B23300  21.459  13.276   8.297
 1581POPC   C3B23301  21.283  13.395   7.874
 1581POPC   C4B23302  20.912  13.307   7.564
 1582POPC   NC323303   1.245  13.076   9.585
 1582POPC   PO423304   0.838  13.236   9.103
 1582POPC   GL123305   1.245  12.994   9.080
 1582POPC   GL223306   1.401  12.649   9.114
 1582POPC   C1A23307   1.503  13.024   8.728
 1582POPC   D2A23308   1.251  12.956   8.325
 1582POPC   C3A23309   1.400  12.805   7.948
 1582POPC   C4A23310   1.477  12.934   7.516
 1582POPC   C1B23311   1.289  12.585   8.693
 1582POPC   C2B23312   1.038  12.446   8.358
 1582POPC   C3B23313   0.895  12.503   7.953
 1582POPC   C4B23314   1.129  12.557   7.584
 1583POPC   NC323315  14.917  17.970   9.564
 1583POPC   PO423316  15.079  18.597   9.482
 1583POPC   GL123317  15.030  18.381   9.125
 1583POPC   GL223318  14.787  18.587   9.008
 1583POPC   C1A23319  15.145  18.238   8.713
 1583POPC   D2A23320  15.064  17.996   8.320
 1583POPC   C3A23321  15.206  18.193   7.962
 1583POPC   C4A23322  15.633  18.125   7.862
 1583POPC   C1B23323  14.901  18.790   8.653
 1583POPC   C2B23324  14.930  18.832   8.262
 1583POPC   C3B23325  14.749  18.591   7.953
 1583POPC   C4B23326  14.977  18.512   7.623
 1584POPC   NC323327  25.334  10.848   9.318
 1584POPC   PO423328  25.200  10.166   9.202
 1584POPC   GL123329  25.322  10.412   8.924
 1584POPC   GL223330  25.107  10.659   8.921
 1584POPC   C1A23331  25.441  10.517   8.558
 1584POPC   D2A23332  25.536  10.378   8.180
 1584POPC   C3A23333  25.562  10.640   7.873
 1584POPC   C4A23334  25.407  10.447   7.489
 1584POPC   C1B23335  24.913  10.384   8.633
 1584POPC   C2B23336  24.990  10.509   8.266
 1584POPC   C3B23337  25.105  10.396   7.902
 1584POPC   C4B23338  24.900  10.485   7.546
 1585POPC   NC323339  43.104   0.865   9.486
 1585POPC   PO423340  43.146   0.323   9.934
 1585POPC   GL123341  43.184   0.335   9.445
 1585POPC   GL223342  43.484   0.535   9.304
 1585POPC   C1A23343  42.992   0.281   9.019
 1585POPC   D2A23344  43.064   0.371   8.566
 1585POPC   C3A23345  42.768   0.349   8.256
 1585POPC   C4A23346  42.842   0.328   7.810
 1585POPC   C1B23347  43.391   0.602   8.871
 1585POPC   C2B23348  43.420   0.757   8.435
 1585POPC   C3B23349  43.297   0.504   8.052
 1585POPC   C4B23350  43.283   0.476   7.583
 1586POPC   NC323351   9.585  13.394   9.453
 1586POPC   PO423352  10.014  13.892   9.443
 1586POPC   GL123353   9.950  13.711   9.032
 1586POPC   GL223354   9.951  13.346   9.085
 1586POPC   C1A23355   9.931  13.753   8.562
 1586POPC   D2A23356   9.747  14.034   8.242
 1586POPC   C3A23357   9.725  13.800   7.867
 1586POPC   C4A23358   9.990  13.503   8.087
 1586POPC   C1B23359   9.564  13.483   8.795
 1586POPC   C2B23360   9.455  13.624   8.356
 1586POPC   C3B23361   9.385  13.394   7.969
 1586POPC   C4B23362   9.433  13.493   7.539
 1587POPC   NC323363  40.282  38.302   9.528
 1587POPC   PO423364  40.104  38.938   9.490
 1587POPC   GL123365  40.231  38.673   9.164
 1587POPC   GL223366  39.987  38.393   9.119
 1587POPC   C1A23367  40.173  38.618   8.719
 1587POPC   D2A23368  40.204  38.352   8.375
 1587POPC   C3A23369  40.148  38.538   7.947
 1587POPC   C4A23370  39.710  38.595   7.793
 1587POPC   C1B23371  39.834  38.196   8.751
 1587POPC   C2B23372  39.642  38.368   8.399
 1587POPC   C3B23373  39.819  38.178   8.071
 1587POPC   C4B23374  39.711  38.061   7.701
 1588POPC   NC323375  34.793  17.127   9.831
 1588POPC   PO423376  34.391  16.762   9.409
 1588POPC   GL123377  34.480  16.549   9.055
 1588POPC   GL223378  34.830  16.547   9.160
 1588POPC   C1A23379  34.539  16.731   8.649
 1588POPC   D2A23380  34.435  17.011   8.284
 1588POPC   C3A23381  34.418  16.749   7.908
 1588POPC   C4A23382  34.250  16.319   7.820
 1588POPC   C1B23383  35.043  16.719   8.770
 1588POPC   C2B23384  34.952  16.946   8.395
 1588POPC   C3B23385  35.009  16.768   7.996
 1588POPC   C4B23386  34.886  16.592   7.582
 1589POPC   NC323387  42.926  35.474   9.441
 1589POPC   PO423388  43.532  35.245   9.503
 1589POPC   GL123389  43.234  35.268   9.118
 1589POPC   GL223390  42.899  35.051   9.159
 1589POPC   C1A23391  43.026  35.510   8.759
 1589POPC   D2A23392  43.162  35.606   8.295
 1589POPC   C3A23393  42.823  35.558   7.942
 1589POPC   C4A23394  42.856  35.585   7.423
 1589POPC   C1B23395  43.051  34.997   8.742
 1589POPC   C2B23396  42.871  35.147   8.414
 1589POPC   C3B23397  43.072  35.143   8.066
 1589POPC   C4B23398  42.928  35.139   7.661
 1590POPC   NC323399  26.406   0.050   9.422
 1590POPC   PO423400  26.958   0.455   9.508
 1590POPC   GL123401  26.874   0.195   9.169
 1590POPC   GL223402  27.151   0.382   9.048
 1590POPC   C1A23403  26.733   0.147   8.734
 1590POPC   D2A23404  26.670   0.392   8.352
 1590POPC   C3A23405  26.721   0.145   7.993
 1590POPC   C4A23406  26.423   0.159   7.666
 1590POPC   C1B23407  27.051   0.564   8.689
 1590POPC   C2B23408  27.215   0.722   8.340
 1590POPC   C3B23409  27.025   0.566   7.997
 1590POPC   C4B23410  26.652   0.613   7.788
 1591POPC   NC323411  41.159  31.509   9.475
 1591POPC   PO423412  41.811  31.395   9.548
 1591POPC   GL123413  41.584  31.479   9.167
 1591POPC   GL223414  41.479  31.772   9.188
 1591POPC   C1A23415  41.545  31.439   8.717
 1591POPC   D2A23416  41.711  31.440   8.281
 1591POPC   C3A23417  41.418  31.471   7.920
 1591POPC   C4A23418  41.447  31.490   7.456
 1591POPC   C1B23419  41.853  31.821   8.907
 1591POPC   C2B23420  41.841  31.924   8.475
 1591POPC   C3B23421  41.543  31.933   8.134
 1591POPC   C4B23422  41.700  31.871   7.750
 1592POPC   NC323423  43.432   3.105   9.508
 1592POPC   PO423424  43.330   2.552   9.191
 1592POPC   GL123425  43.353   2.799   8.908
 1592POPC   GL223426  43.349   3.160   9.017
 1592POPC   C1A23427  43.349   2.745   8.479
 1592POPC   D2A23428  43.034   2.715   8.173
 1592POPC   C3A23429  43.183   2.826   7.780
 1592POPC   C4A23430  43.366   2.693   7.410
 1592POPC   C1B23431  43.033   3.095   8.704
 1592POPC   C2B23432  43.089   3.208   8.332
 1592POPC   C3B23433  42.786   3.178   8.090
 1592POPC   C4B23434  42.802   3.131   7.700
 1593POPC   NC323435   0.066  31.111   9.385
 1593POPC   PO423436  44.636  31.652   9.591
 1593POPC   GL123437  44.766  31.527   9.144
 1593POPC   GL223438  44.482  31.370   8.936
 1593POPC   C1A23439  44.823  31.660   8.696
 1593POPC   D2A23440  44.518  31.543   8.415
 1593POPC   C3A23441  44.653  31.625   8.040
 1593POPC   C4A23442  44.492  31.328   7.749
 1593POPC   C1B23443  44.789  31.134   8.678
 1593POPC   C2B23444  44.857  31.157   8.250
 1593POPC   C3B23445   0.042  31.313   7.890
 1593POPC   C4B23446   0.187  31.705   7.916
 1594POPC   NC323447   1.951  15.407   9.481
 1594POPC   PO423448   1.878  14.727   9.403
 1594POPC   GL123449   1.996  15.008   9.120
 1594POPC   GL223450   2.192  15.296   9.054
 1594POPC   C1A23451   2.017  14.938   8.701
 1594POPC   D2A23452   1.793  14.976   8.368
 1594POPC   C3A23453   2.025  15.162   8.084
 1594POPC   C4A23454   2.084  15.136   7.697
 1594POPC   C1B23455   2.172  15.432   8.653
 1594POPC   C2B23456   2.387  15.519   8.283
 1594POPC   C3B23457   2.336  15.537   7.844
 1594POPC   C4B23458   2.392  15.553   7.327
 1595POPC   NC323459  16.017   2.260   9.622
 1595POPC   PO423460  16.166   1.722   9.512
 1595POPC   GL123461  16.229   2.078   9.190
 1595POPC   GL223462  15.928   2.286   9.118
 1595POPC   C1A23463  16.270   2.204   8.747
 1595POPC   D2A23464  16.098   1.988   8.384
 1595POPC   C3A23465  16.138   2.139   7.953
 1595POPC   C4A23466  16.089   2.009   7.505
 1595POPC   C1B23467  15.745   2.220   8.698
 1595POPC   C2B23468  15.700   2.283   8.261
 1595POPC   C3B23469  15.628   2.124   7.864
 1595POPC   C4B23470  15.669   2.348   7.489
 1596POPC   NC323471  20.445  19.137   9.449
 1596POPC   PO423472  20.999  18.640   9.463
 1596POPC   GL123473  20.798  18.893   9.149
 1596POPC   GL223474  20.880  19.232   9.203
 1596POPC   C1A23475  20.636  18.869   8.738
 1596POPC   D2A23476  20.807  18.772   8.357
 1596POPC   C3A23477  20.693  18.960   7.972
 1596POPC   C4A23478  20.896  18.878   7.567
 1596POPC   C1B23479  20.653  19.359   8.849
 1596POPC   C2B23480  20.735  19.319   8.416
 1596POPC   C3B23481  20.555  19.459   8.050
 1596POPC   C4B23482  20.252  19.202   7.885
 1597POPC   NC323483  23.012   0.114   9.466
 1597POPC   PO423484  22.675   0.646   9.527
 1597POPC   GL123485  22.804   0.487   9.121
 1597POPC   GL223486  23.149   0.571   9.102
 1597POPC   C1A23487  22.884   0.449   8.656
 1597POPC   D2A23488  23.176   0.678   8.403
 1597POPC   C3A23489  23.225   0.525   7.994
 1597POPC   C4A23490  22.901   0.573   7.709
 1597POPC   C1B23491  23.397   0.324   8.831
 1597POPC   C2B23492  23.302   0.163   8.435
 1597POPC   C3B23493  23.406   0.019   8.060
 1597POPC   C4B23494  23.502   0.216   7.674
 1598POPC   NC323495  15.348   9.480   9.371
 1598POPC   PO423496  14.914   9.932   9.468
 1598POPC   GL123497  15.145   9.869   9.124
 1598POPC   GL223498  14.991   9.532   9.000
 1598POPC   C1A23499  15.304   9.820   8.742
 1598POPC   D2A23500  15.015   9.787   8.447
 1598POPC   C3A23501  15.232   9.786   8.102
 1598POPC   C4A23502  15.266   9.746   7.681
 1598POPC   C1B23503  15.155   9.320   8.655
 1598POPC   C2B23504  15.201   9.268   8.237
 1598POPC   C3B23505  14.972   9.396   7.910
 1598POPC   C4B23506  14.990   9.380   7.444
 1599POPC   NC323507   2.518  34.820   9.379
 1599POPC   PO423508   2.972  34.309   9.454
 1599POPC   GL123509   2.873  34.523   9.107
 1599POPC   GL223510   2.558  34.340   9.060
 1599POPC   C1A23511   3.037  34.582   8.694
 1599POPC   D2A23512   3.147  34.849   8.330
 1599POPC   C3A23513   2.905  34.766   7.940
 1599POPC   C4A23514   2.908  34.559   7.510
 1599POPC   C1B23515   2.518  34.600   8.717
 1599POPC   C2B23516   2.685  34.479   8.312
 1599POPC   C3B23517   2.576  34.374   7.883
 1599POPC   C4B23518   2.461  34.709   7.626
 1600POPC   NC323519   0.242   6.197   9.244
 1600POPC   PO423520  44.605   6.554   9.377
 1600POPC   GL123521  44.525   6.651   8.954
 1600POPC   GL223522  44.639   6.334   8.895
 1600POPC   C1A23523  44.697   6.738   8.525
 1600POPC   D2A23524  44.973   6.522   8.221
 1600POPC   C3A23525  44.872   6.640   7.853
 1600POPC   C4A23526  44.516   6.848   7.742
 1600POPC   C1B23527  44.344   6.360   8.548
 1600POPC   C2B23528  44.423   6.495   8.126
 1600POPC   C3B23529  44.413   6.354   7.703
 1600POPC   C4B23530  44.381   6.161   7.264
 1601POPC   NC323531  10.918  16.990   9.478
 1601POPC   PO423532  10.997  16.415   9.741
 1601POPC   GL123533  10.956  16.509   9.268
 1601POPC   GL223534  10.607  16.619   9.183
 1601POPC   C1A23535  10.913  16.591   8.785
 1601POPC   D2A23536  10.791  16.520   8.310
 1601POPC   C3A23537  10.842  16.815   7.935
 1601POPC   C4A23538  10.552  17.038   7.646
 1601POPC   C1B23539  10.412  16.474   8.751
 1601POPC   C2B23540  10.276  16.420   8.294
 1601POPC   C3B23541  10.383  16.570   7.882
 1601POPC   C4B23542  10.586  16.565   7.487
 1602POPC   NC323543  41.424  13.710   9.446
 1602POPC   PO423544  41.948  14.018   9.669
 1602POPC   GL123545  41.466  14.080   9.101
 1602POPC   GL223546  41.238  13.913   9.010
 1602POPC   C1A23547  41.586  13.901   8.628
 1602POPC   D2A23548  41.896  13.606   8.395
 1602POPC   C3A23549  41.679  13.628   7.995
 1602POPC   C4A23550  41.222  13.812   8.070
 1602POPC   C1B23551  41.333  13.506   8.826
 1602POPC   C2B23552  41.472  13.327   8.437
 1602POPC   C3B23553  41.286  13.296   8.043
 1602POPC   C4B23554  41.159  13.495   7.686
 1603POPC   NC323555  34.663  30.588   9.674
 1603POPC   PO423556  34.244  31.010   9.540
 1603POPC   GL123557  34.575  30.892   9.210
 1603POPC   GL223558  34.484  30.551   9.140
 1603POPC   C1A23559  34.811  30.727   8.800
 1603POPC   D2A23560  34.585  30.851   8.400
 1603POPC   C3A23561  34.805  30.754   8.035
 1603POPC   C4A23562  34.627  30.672   7.659
 1603POPC   C1B23563  34.407  30.439   8.661
 1603POPC   C2B23564  34.492  30.357   8.190
 1603POPC   C3B23565  34.273  30.332   7.755
 1603POPC   C4B23566  34.324  30.410   7.270
 1604POPC   NC323567   2.142   8.806   9.341
 1604POPC   PO423568   1.896   9.374   9.666
 1604POPC   GL123569   1.835   9.222   9.204
 1604POPC   GL223570   1.863   8.911   8.955
 1604POPC   C1A23571   2.029   9.364   8.800
 1604POPC   D2A23572   1.898   9.166   8.445
 1604POPC   C3A23573   2.154   9.105   8.102
 1604POPC   C4A23574   2.088   9.173   7.686
 1604POPC   C1B23575   2.150   8.606   8.723
 1604POPC   C2B23576   2.302   8.652   8.310
 1604POPC   C3B23577   2.117   8.614   7.890
 1604POPC   C4B23578   2.213   8.739   7.446
 1605POPC   NC323579  18.112  10.287   9.466
 1605POPC   PO423580  18.712  10.594   9.554
 1605POPC   GL123581  18.415  10.558   9.134
 1605POPC   GL223582  18.058  10.399   8.988
 1605POPC   C1A23583  18.316  10.680   8.668
 1605POPC   D2A23584  18.120  10.649   8.263
 1605POPC   C3A23585  18.255  10.887   7.878
 1605POPC   C4A23586  18.041  11.282   7.718
 1605POPC   C1B23587  18.329  10.178   8.816
 1605POPC   C2B23588  18.305  10.187   8.412
 1605POPC   C3B23589  18.349  10.290   7.991
 1605POPC   C4B23590  18.416  10.256   7.587
 1606POPC   NC323591  36.472  23.671   9.586
 1606POPC   PO423592  35.823  23.867   9.371
 1606POPC   GL123593  36.207  23.842   9.152
 1606POPC   GL223594  35.978  23.695   8.924
 1606POPC   C1A23595  36.326  23.995   8.729
 1606POPC   D2A23596  36.235  23.751   8.387
 1606POPC   C3A23597  36.249  23.891   7.971
 1606POPC   C4A23598  36.122  23.695   7.590
 1606POPC   C1B23599  35.684  23.589   8.656
 1606POPC   C2B23600  35.760  23.627   8.251
 1606POPC   C3B23601  35.704  23.556   7.853
 1606POPC   C4B23602  35.594  23.722   7.517
 1607POPC   NC323603   4.850  29.085   9.411
 1607POPC   PO423604   5.496  29.295   9.564
 1607POPC   GL123605   5.269  29.297   9.204
 1607POPC   GL223606   5.243  28.935   9.097
 1607POPC   C1A23607   5.210  29.342   8.787
 1607POPC   D2A23608   5.248  29.071   8.430
 1607POPC   C3A23609   5.169  29.262   8.061
 1607POPC   C4A23610   5.192  29.170   7.656
 1607POPC   C1B23611   4.897  28.916   8.758
 1607POPC   C2B23612   4.766  28.921   8.294
 1607POPC   C3B23613   4.945  28.773   7.879
 1607POPC   C4B23614   4.723  28.759   7.480
 1608POPC   NC323615  14.742   6.293   9.498
 1608POPC   PO423616  14.293   6.768   9.460
 1608POPC   GL123617  14.414   6.880   9.065
 1608POPC   GL223618  14.676   6.659   9.102
 1608POPC   C1A23619  14.381   6.723   8.660
 1608POPC   D2A23620  14.106   6.626   8.348
 1608POPC   C3A23621  14.170   6.867   7.975
 1608POPC   C4A23622  14.208   6.492   7.713
 1608POPC   C1B23623  14.899   6.579   8.775
 1608POPC   C2B23624  14.880   6.673   8.374
 1608POPC   C3B23625  14.594   6.601   8.071
 1608POPC   C4B23626  14.599   6.849   7.713
 1609POPC   NC323627  13.269  11.785   9.338
 1609POPC   PO423628  12.800  12.234   9.609
 1609POPC   GL123629  12.829  12.006   9.194
 1609POPC   GL223630  13.003  12.143   8.956
 1609POPC   C1A23631  12.738  11.770   8.772
 1609POPC   D2A23632  12.653  11.981   8.398
 1609POPC   C3A23633  12.851  11.990   7.997
 1609POPC   C4A23634  12.631  12.300   7.737
 1609POPC   C1B23635  13.224  11.954   8.674
 1609POPC   C2B23636  13.276  12.089   8.263
 1609POPC   C3B23637  13.367  11.888   7.920
 1609POPC   C4B23638  13.115  11.678   7.593
 1610POPC   NC323639   4.713  20.706   9.482
 1610POPC   PO423640   5.369  20.958   9.472
 1610POPC   GL123641   5.079  20.956   9.179
 1610POPC   GL223642   5.072  20.603   9.131
 1610POPC   C1A23643   5.216  20.904   8.770
 1610POPC   D2A23644   5.078  20.678   8.427
 1610POPC   C3A23645   5.245  20.842   8.057
 1610POPC   C4A23646   4.948  20.684   7.777
 1610POPC   C1B23647   5.375  20.432   8.843
 1610POPC   C2B23648   5.352  20.254   8.416
 1610POPC   C3B23649   5.277  20.330   7.984
 1610POPC   C4B23650   5.429  20.134   7.593
 1611POPC   NC323651  24.054  29.698   9.497
 1611POPC   PO423652  23.776  30.274   9.591
 1611POPC   GL123653  23.926  30.084   9.206
 1611POPC   GL223654  23.673  30.168   8.984
 1611POPC   C1A23655  23.994  29.814   8.832
 1611POPC   D2A23656  23.753  29.890   8.464
 1611POPC   C3A23657  23.907  29.833   8.054
 1611POPC   C4A23658  24.038  30.062   7.715
 1611POPC   C1B23659  23.465  29.799   8.875
 1611POPC   C2B23660  23.293  29.680   8.465
 1611POPC   C3B23661  23.411  29.912   8.079
 1611POPC   C4B23662  23.556  29.812   7.676
 1612POPC   NC323663   6.968  22.609   9.686
 1612POPC   PO423664   6.418  22.887   9.402
 1612POPC   GL123665   6.686  22.935   9.114
 1612POPC   GL223666   6.988  22.941   9.299
 1612POPC   C1A23667   6.604  23.074   8.707
 1612POPC   D2A23668   6.674  22.951   8.319
 1612POPC   C3A23669   6.699  23.263   8.010
 1612POPC   C4A23670   6.485  22.945   7.780
 1612POPC   C1B23671   7.138  22.954   8.891
 1612POPC   C2B23672   7.155  22.874   8.486
 1612POPC   C3B23673   7.079  22.753   8.071
 1612POPC   C4B23674   6.986  22.992   7.681
 1613POPC   NC323675  38.421  31.577   9.530
 1613POPC   PO423676  38.306  30.959   9.333
 1613POPC   GL123677  38.559  31.203   9.103
 1613POPC   GL223678  38.558  31.590   9.060
 1613POPC   C1A23679  38.460  31.248   8.694
 1613POPC   D2A23680  38.147  31.506   8.464
 1613POPC   C3A23681  38.230  31.493   8.045
 1613POPC   C4A23682  38.332  31.245   7.694
 1613POPC   C1B23683  38.558  31.736   8.655
 1613POPC   C2B23684  38.696  31.472   8.288
 1613POPC   C3B23685  38.718  31.561   7.864
 1613POPC   C4B23686  38.343  31.753   7.618
 1614POPC   NC323687  34.004  14.716   9.679
 1614POPC   PO423688  33.820  14.029   9.509
 1614POPC   GL123689  33.825  14.275   9.131
 1614POPC   GL223690  33.765  14.639   9.231
 1614POPC   C1A23691  33.906  14.335   8.683
 1614POPC   D2A23692  34.072  14.156   8.295
 1614POPC   C3A23693  33.808  14.287   7.944
 1614POPC   C4A23694  33.460  14.605   7.804
 1614POPC   C1B23695  34.106  14.734   8.956
 1614POPC   C2B23696  34.113  14.813   8.521
 1614POPC   C3B23697  33.876  14.740   8.162
 1614POPC   C4B23698  33.964  14.724   7.724
 1615POPC   NC323699  21.188  41.427   9.386
 1615POPC   PO423700  21.401  42.001   9.538
 1615POPC   GL123701  21.459  41.777   9.134
 1615POPC   GL223702  21.640  41.472   9.151
 1615POPC   C1A23703  21.381  41.594   8.739
 1615POPC   D2A23704  21.477  41.730   8.326
 1615POPC   C3A23705  21.355  41.555   7.937
 1615POPC   C4A23706  21.015  41.724   7.708
 1615POPC   C1B23707  21.910  41.570   8.839
 1615POPC   C2B23708  21.980  41.726   8.476
 1615POPC   C3B23709  21.904  41.683   8.055
 1615POPC   C4B23710  21.806  41.474   7.709
 1616POPC   NC323711  36.705  44.533   9.441
 1616POPC   PO423712  37.286  44.194   9.269
 1616POPC   GL123713  36.980  44.395   9.028
 1616POPC   GL223714  37.082  44.720   9.121
 1616POPC   C1A23715  36.821  44.530   8.632
 1616POPC   D2A23716  36.799  44.820   8.320
 1616POPC   C3A23717  36.953  44.652   7.948
 1616POPC   C4A23718  36.759  44.466   7.596
 1616POPC   C1B23719  37.077  44.949   8.741
 1616POPC   C2B23720  37.201   0.144   8.346
 1616POPC   C3B23721  37.323   0.020   7.937
 1616POPC   C4B23722  37.333   0.194   7.531
 1617POPC   NC323723   6.713  34.987   9.486
 1617POPC   PO423724   6.335  35.473   9.904
 1617POPC   GL123725   6.377  35.472   9.398
 1617POPC   GL223726   6.284  35.167   9.223
 1617POPC   C1A23727   6.611  35.524   8.986
 1617POPC   D2A23728   6.752  35.376   8.565
 1617POPC   C3A23729   6.756  35.605   8.160
 1617POPC   C4A23730   6.850  35.505   7.749
 1617POPC   C1B23731   6.441  35.049   8.804
 1617POPC   C2B23732   6.336  35.142   8.345
 1617POPC   C3B23733   6.447  35.179   7.873
 1617POPC   C4B23734   6.307  35.201   7.422
 1618POPC   NC323735   9.074  12.953   9.478
 1618POPC   PO423736   9.778  12.969   9.446
 1618POPC   GL123737   9.540  12.996   9.110
 1618POPC   GL223738   9.590  12.654   9.047
 1618POPC   C1A23739   9.750  13.028   8.734
 1618POPC   D2A23740   9.633  13.165   8.366
 1618POPC   C3A23741   9.766  13.053   7.990
 1618POPC   C4A23742   9.906  12.718   7.877
 1618POPC   C1B23743   9.794  12.538   8.673
 1618POPC   C2B23744   9.982  12.416   8.282
 1618POPC   C3B23745   9.763  12.233   7.930
 1618POPC   C4B23746   9.328  12.237   7.913
 1619POPC   NC323747  38.912  39.019   9.611
 1619POPC   PO423748  39.576  39.115   9.478
 1619POPC   GL123749  39.200  39.163   9.210
 1619POPC   GL223750  38.972  38.886   9.101
 1619POPC   C1A23751  39.098  39.320   8.817
 1619POPC   D2A23752  39.086  39.453   8.391
 1619POPC   C3A23753  39.339  39.232   8.114
 1619POPC   C4A23754  39.448  39.062   7.700
 1619POPC   C1B23755  38.733  38.999   8.696
 1619POPC   C2B23756  38.794  39.065   8.233
 1619POPC   C3B23757  38.946  39.040   7.821
 1619POPC   C4B23758  38.822  38.816   7.432
 1620POPC   NC323759   6.402   4.740   9.332
 1620POPC   PO423760   6.857   4.374   9.697
 1620POPC   GL123761   6.839   4.376   9.218
 1620POPC   GL223762   7.032   4.680   9.184
 1620POPC   C1A23763   6.561   4.286   8.795
 1620POPC   D2A23764   6.379   4.379   8.343
 1620POPC   C3A23765   6.556   4.138   7.978
 1620POPC   C4A23766   6.974   4.066   7.793
 1620POPC   C1B23767   6.916   4.637   8.753
 1620POPC   C2B23768   6.908   4.412   8.358
 1620POPC   C3B23769   6.877   4.554   7.949
 1620POPC   C4B23770   6.792   4.535   7.524
 1621POPC   NC323771  19.599  28.868   9.630
 1621POPC   PO423772  20.175  29.188   9.638
 1621POPC   GL123773  20.003  29.255   9.198
 1621POPC   GL223774  19.655  29.103   9.140
 1621POPC   C1A23775  20.091  29.251   8.739
 1621POPC   D2A23776  20.133  29.007   8.350
 1621POPC   C3A23777  20.061  29.251   8.001
 1621POPC   C4A23778  20.056  29.067   7.613
 1621POPC   C1B23779  19.742  28.891   8.693
 1621POPC   C2B23780  19.647  29.092   8.279
 1621POPC   C3B23781  19.611  28.980   7.844
 1621POPC   C4B23782  19.585  28.948   7.368
 1622POPC   NC323783  16.409  34.900   9.445
 1622POPC   PO423784  16.713  35.575   9.423
 1622POPC   GL123785  16.816  35.426   9.028
 1622POPC   GL223786  16.518  35.252   9.038
 1622POPC   C1A23787  16.919  35.156   8.668
 1622POPC   D2A23788  16.706  35.426   8.386
 1622POPC   C3A23789  16.757  35.500   7.951
 1622POPC   C4A23790  17.011  35.238   7.727
 1622POPC   C1B23791  16.408  35.087   8.651
 1622POPC   C2B23792  16.302  35.167   8.220
 1622POPC   C3B23793  16.531  35.068   7.838
 1622POPC   C4B23794  16.608  35.156   7.397
 1623POPC   NC323795  14.291  13.837   9.487
 1623POPC   PO423796  14.460  13.255   9.548
 1623POPC   GL123797  14.257  13.442   9.125
 1623POPC   GL223798  14.158  13.826   8.998
 1623POPC   C1A23799  14.413  13.466   8.689
 1623POPC   D2A23800  14.534  13.383   8.265
 1623POPC   C3A23801  14.486  13.620   7.903
 1623POPC   C4A23802  14.869  13.794   7.805
 1623POPC   C1B23803  13.938  13.603   8.652
 1623POPC   C2B23804  14.006  13.477   8.234
 1623POPC   C3B23805  13.951  13.626   7.825
 1623POPC   C4B23806  14.210  13.545   7.464
 1624POPC   NC323807  13.142  12.640   9.506
 1624POPC   PO423808  12.969  13.220   9.428
 1624POPC   GL123809  12.991  12.879   9.088
 1624POPC   GL223810  12.788  12.548   9.162
 1624POPC   C1A23811  13.113  12.588   8.752
 1624POPC   D2A23812  12.916  12.427   8.361
 1624POPC   C3A23813  13.060  12.560   7.936
 1624POPC   C4A23814  13.052  12.967   7.730
 1624POPC   C1B23815  12.598  12.615   8.752
 1624POPC   C2B23816  12.510  12.959   8.466
 1624POPC   C3B23817  12.262  12.929   8.093
 1624POPC   C4B23818  12.525  12.815   7.759
 1625POPC   NC323819  38.131  10.466   9.482
 1625POPC   PO423820  37.490  10.680   9.474
 1625POPC   GL123821  37.400  10.645   9.101
 1625POPC   GL223822  37.752  10.565   9.008
 1625POPC   C1A23823  37.322  10.399   8.777
 1625POPC   D2A23824  37.569  10.480   8.445
 1625POPC   C3A23825  37.332  10.376   8.098
 1625POPC   C4A23826  37.370  10.254   7.695
 1625POPC   C1B23827  37.997  10.719   8.657
 1625POPC   C2B23828  38.045  10.569   8.246
 1625POPC   C3B23829  37.781  10.570   7.889
 1625POPC   C4B23830  37.734  10.896   7.536
 1626POPC   NC323831  34.456  12.324   9.495
 1626POPC   PO423832  34.979  11.903   9.596
 1626POPC   GL123833  34.685  11.974   9.208
 1626POPC   GL223834  34.295  11.937   9.181
 1626POPC   C1A23835  34.764  11.969   8.764
 1626POPC   D2A23836  34.744  11.702   8.399
 1626POPC   C3A23837  34.597  11.837   8.005
 1626POPC   C4A23838  34.672  11.897   7.541
 1626POPC   C1B23839  34.304  12.194   8.788
 1626POPC   C2B23840  34.416  12.241   8.320
 1626POPC   C3B23841  34.581  12.321   7.883
 1626POPC   C4B23842  34.416  12.331   7.464
 1627POPC   NC323843   5.546  24.676   9.317
 1627POPC   PO423844   6.139  24.440   9.498
 1627POPC   GL123845   5.993  24.530   9.114
 1627POPC   GL223846   5.815  24.209   9.094
 1627POPC   C1A23847   5.961  24.663   8.697
 1627POPC   D2A23848   5.624  24.738   8.414
 1627POPC   C3A23849   5.696  24.579   8.012
 1627POPC   C4A23850   5.938  24.743   7.693
 1627POPC   C1B23851   6.083  24.166   8.720
 1627POPC   C2B23852   6.042  24.248   8.264
 1627POPC   C3B23853   6.127  24.292   7.806
 1627POPC   C4B23854   6.248  24.069   7.393
 1628POPC   NC323855  28.133  36.584   9.503
 1628POPC   PO423856  28.459  37.238   9.450
 1628POPC   GL123857  28.508  36.835   9.234
 1628POPC   GL223858  28.192  36.869   9.098
 1628POPC   C1A23859  28.583  36.644   8.825
 1628POPC   D2A23860  28.787  36.796   8.444
 1628POPC   C3A23861  28.615  36.701   8.027
 1628POPC   C4A23862  28.593  37.038   7.734
 1628POPC   C1B23863  28.052  36.990   8.749
 1628POPC   C2B23864  28.089  37.215   8.427
 1628POPC   C3B23865  28.248  37.030   8.127
 1628POPC   C4B23866  28.106  36.872   7.763
 1629POPC   NC323867  19.125  25.834   9.622
 1629POPC   PO423868  19.500  26.372   9.572
 1629POPC   GL123869  19.230  26.162   9.216
 1629POPC   GL223870  19.153  25.806   9.132
 1629POPC   C1A23871  19.016  26.203   8.818
 1629POPC   D2A23872  19.134  26.279   8.398
 1629POPC   C3A23873  19.108  26.379   7.961
 1629POPC   C4A23874  19.184  26.289   7.531
 1629POPC   C1B23875  19.265  25.618   8.783
 1629POPC   C2B23876  19.136  25.754   8.445
 1629POPC   C3B23877  18.948  25.755   8.084
 1629POPC   C4B23878  19.105  25.815   7.713
 1630POPC   NC323879   0.925  34.392   9.360
 1630POPC   PO423880   1.455  34.587   9.663
 1630POPC   GL123881   1.293  34.688   9.210
 1630POPC   GL223882   0.995  34.915   9.252
 1630POPC   C1A23883   1.124  34.492   8.771
 1630POPC   D2A23884   0.976  34.252   8.406
 1630POPC   C3A23885   1.190  34.412   8.044
 1630POPC   C4A23886   1.168  34.521   7.607
 1630POPC   C1B23887   0.906  34.939   8.801
 1630POPC   C2B23888   0.936  34.778   8.379
 1630POPC   C3B23889   1.020  34.900   7.955
 1630POPC   C4B23890   1.438  34.857   7.873
 1631POPC   NC323891  13.234  23.916   9.395
 1631POPC   PO423892  13.703  23.530   9.686
 1631POPC   GL123893  13.695  23.486   9.231
 1631POPC   GL223894  13.660  23.841   9.139
 1631POPC   C1A23895  13.692  23.493   8.758
 1631POPC   D2A23896  13.528  23.395   8.354
 1631POPC   C3A23897  13.688  23.486   7.996
 1631POPC   C4A23898  13.720  23.601   7.593
 1631POPC   C1B23899  13.446  23.958   8.761
 1631POPC   C2B23900  13.590  23.909   8.339
 1631POPC   C3B23901  13.582  23.990   7.895
 1631POPC   C4B23902  13.628  24.067   7.417
 1632POPC   NC323903   9.959  23.126   9.492
 1632POPC   PO423904   9.466  22.717   9.535
 1632POPC   GL123905   9.589  22.694   9.128
 1632POPC   GL223906   9.940  22.714   9.192
 1632POPC   C1A23907   9.477  22.785   8.689
 1632POPC   D2A23908   9.428  23.118   8.370
 1632POPC   C3A23909   9.555  22.952   7.977
 1632POPC   C4A23910   9.456  22.588   7.777
 1632POPC   C1B23911   9.980  22.909   8.805
 1632POPC   C2B23912   9.879  22.818   8.367
 1632POPC   C3B23913  10.065  22.961   7.970
 1632POPC   C4B23914   9.921  23.008   7.558
 1633POPC   NC323915  41.045  14.725   9.461
 1633POPC   PO423916  40.737  15.384   9.568
 1633POPC   GL123917  40.739  15.326   9.146
 1633POPC   GL223918  41.015  15.083   9.050
 1633POPC   C1A23919  40.807  15.431   8.689
 1633POPC   D2A23920  40.916  15.155   8.365
 1633POPC   C3A23921  40.727  15.233   7.968
 1633POPC   C4A23922  40.878  15.237   7.551
 1633POPC   C1B23923  41.256  14.888   8.694
 1633POPC   C2B23924  41.257  14.750   8.263
 1633POPC   C3B23925  41.220  15.015   7.876
 1633POPC   C4B23926  41.219  14.910   7.397
 1634POPC   NC323927   8.132  10.192   9.550
 1634POPC   PO423928   8.556   9.806   9.327
 1634POPC   GL123929   8.321   9.816   8.971
 1634POPC   GL223930   8.035   9.950   9.108
 1634POPC   C1A23931   8.199   9.555   8.660
 1634POPC   D2A23932   8.076   9.383   8.268
 1634POPC   C3A23933   8.262   9.485   7.844
 1634POPC   C4A23934   7.944   9.540   7.489
 1634POPC   C1B23935   7.885   9.979   8.728
 1634POPC   C2B23936   8.041   9.904   8.321
 1634POPC   C3B23937   8.135   9.962   7.904
 1634POPC   C4B23938   8.499  10.019   7.685
 1635POPC   NC323939   1.343  18.027   9.459
 1635POPC   PO423940   1.046  18.560   9.697
 1635POPC   GL123941   1.020  18.366   9.297
 1635POPC   GL223942   1.396  18.391   9.117
 1635POPC   C1A23943   0.966  18.262   8.895
 1635POPC   D2A23944   1.138  18.506   8.597
 1635POPC   C3A23945   1.072  18.462   8.192
 1635POPC   C4A23946   1.185  18.216   7.875
 1635POPC   C1B23947   1.458  18.105   8.746
 1635POPC   C2B23948   1.533  18.244   8.299
 1635POPC   C3B23949   1.705  18.259   7.873
 1635POPC   C4B23950   1.653  18.102   7.428
 1636POPC   NC323951  39.546   8.311   9.480
 1636POPC   PO423952  40.193   8.302   9.450
 1636POPC   GL123953  39.897   8.204   9.085
 1636POPC   GL223954  39.632   7.946   9.136
 1636POPC   C1A23955  39.993   8.349   8.642
 1636POPC   D2A23956  39.819   8.501   8.251
 1636POPC   C3A23957  40.097   8.514   7.918
 1636POPC   C4A23958  40.209   8.222   7.617
 1636POPC   C1B23959  39.785   7.880   8.686
 1636POPC   C2B23960  39.604   8.008   8.291
 1636POPC   C3B23961  39.735   8.095   7.868
 1636POPC   C4B23962  39.915   7.821   7.553
 1637POPC   NC323963   3.369  38.643   9.390
 1637POPC   PO423964   3.883  38.722   9.813
 1637POPC   GL123965   3.890  38.464   9.282
 1637POPC   GL223966   3.845  38.129   9.203
 1637POPC   C1A23967   3.643  38.443   8.819
 1637POPC   D2A23968   3.332  38.388   8.436
 1637POPC   C3A23969   3.402  38.595   8.008
 1637POPC   C4A23970   3.750  38.610   7.748
 1637POPC   C1B23971   4.040  38.137   8.763
 1637POPC   C2B23972   3.846  38.129   8.363
 1637POPC   C3B23973   3.528  38.099   8.063
 1637POPC   C4B23974   3.114  38.177   7.945
 1638POPC   NC323975  29.424  11.016   9.419
 1638POPC   PO423976  28.906  11.414   9.565
 1638POPC   GL123977  29.058  11.312   9.188
 1638POPC   GL223978  29.346  11.527   9.204
 1638POPC   C1A23979  29.029  11.223   8.755
 1638POPC   D2A23980  28.787  11.421   8.426
 1638POPC   C3A23981  29.004  11.319   8.045
 1638POPC   C4A23982  28.968  10.970   7.756
 1638POPC   C1B23983  29.521  11.430   8.803
 1638POPC   C2B23984  29.425  11.301   8.384
 1638POPC   C3B23985  29.487  11.509   7.986
 1638POPC   C4B23986  29.308  11.367   7.608
 1639POPC   NC323987  26.148   5.359   9.454
 1639POPC   PO423988  25.779   5.834   9.673
 1639POPC   GL123989  25.760   5.932   9.233
 1639POPC   GL223990  25.776   5.602   9.165
 1639POPC   C1A23991  25.953   5.935   8.808
 1639POPC   D2A23992  26.008   5.682   8.421
 1639POPC   C3A23993  25.912   5.848   8.017
 1639POPC   C4A23994  26.154   5.853   7.670
 1639POPC   C1B23995  25.617   5.550   8.755
 1639POPC   C2B23996  25.634   5.317   8.353
 1639POPC   C3B23997  25.570   5.468   7.939
 1639POPC   C4B23998  25.782   5.544   7.551
 1640POPC   NC323999  40.603  20.554   9.668
 1640POPC   PO424000  41.130  20.904   9.429
 1640POPC   GL124001  40.971  20.646   9.089
 1640POPC   GL224002  40.658  20.512   9.174
 1640POPC   C1A24003  40.775  20.604   8.671
 1640POPC   D2A24004  40.568  20.725   8.271
 1640POPC   C3A24005  40.837  20.854   7.915
 1640POPC   C4A24006  41.183  20.902   7.648
 1640POPC   C1B24007  40.391  20.338   8.881
 1640POPC   C2B24008  40.329  20.286   8.462
 1640POPC   C3B24009  40.322  20.299   8.043
 1640POPC   C4B24010  40.566  20.459   7.726
 1641POPC   NC324011   2.353  21.193   9.512
 1641POPC   PO424012   1.692  21.547   9.459
 1641POPC   GL124013   1.907  21.317   9.162
 1641POPC   GL224014   2.219  21.503   9.124
 1641POPC   C1A24015   2.057  21.163   8.762
 1641POPC   D2A24016   2.208  21.161   8.314
 1641POPC   C3A24017   1.896  21.350   8.026
 1641POPC   C4A24018   1.818  21.774   7.836
 1641POPC   C1B24019   2.148  21.654   8.678
 1641POPC   C2B24020   2.130  21.827   8.265
 1641POPC   C3B24021   2.320  21.764   7.870
 1641POPC   C4B24022   2.314  21.371   7.770
 1642POPC   NC324023  26.297  39.244   9.696
 1642POPC   PO424024  25.609  39.298   9.617
 1642POPC   GL124025  25.806  39.207   9.196
 1642POPC   GL224026  26.096  38.984   9.263
 1642POPC   C1A24027  25.913  39.332   8.761
 1642POPC   D2A24028  25.857  39.463   8.341
 1642POPC   C3A24029  25.972  39.318   7.932
 1642POPC   C4A24030  26.347  39.387   7.708
 1642POPC   C1B24031  26.173  38.904   8.817
 1642POPC   C2B24032  26.237  39.092   8.382
 1642POPC   C3B24033  26.275  38.886   7.962
 1642POPC   C4B24034  26.248  38.929   7.484
 1643POPC   NC324035  43.708  21.407   9.597
 1643POPC   PO424036  44.167  20.940   9.619
 1643POPC   GL124037  44.081  21.238   9.272
 1643POPC   GL224038  44.218  20.982   9.099
 1643POPC   C1A24039  43.900  21.410   8.857
 1643POPC   D2A24040  43.593  21.523   8.510
 1643POPC   C3A24041  43.676  21.301   8.121
 1643POPC   C4A24042  43.841  21.417   7.725
 1643POPC   C1B24043  44.265  20.924   8.703
 1643POPC   C2B24044  44.118  21.161   8.388
 1643POPC   C3B24045  44.069  21.004   7.985
 1643POPC   C4B24046  44.222  21.108   7.590
 1644POPC   NC324047  37.686  44.345   9.402
 1644POPC   PO424048  37.850  44.922   9.658
 1644POPC   GL124049  37.770  44.789   9.173
 1644POPC   GL224050  38.029  44.530   9.089
 1644POPC   C1A24051  37.498  44.631   8.777
 1644POPC   D2A24052  37.275  44.632   8.349
 1644POPC   C3A24053  37.453  44.525   7.908
 1644POPC   C4A24054  37.715  44.827   7.623
 1644POPC   C1B24055  37.949  44.427   8.657
 1644POPC   C2B24056  38.107  44.303   8.226
 1644POPC   C3B24057  37.929  44.381   7.814
 1644POPC   C4B24058  37.659  44.375   7.413
 1645POPC   NC324059  23.580  13.904   9.497
 1645POPC   PO424060  23.448  13.305   9.496
 1645POPC   GL124061  23.680  13.513   9.149
 1645POPC   GL224062  23.868  13.846   9.071
 1645POPC   C1A24063  23.652  13.417   8.742
 1645POPC   D2A24064  23.869  13.197   8.434
 1645POPC   C3A24065  23.682  13.400   8.118
 1645POPC   C4A24066  23.564  13.311   7.717
 1645POPC   C1B24067  23.686  13.978   8.758
 1645POPC   C2B24068  23.807  14.162   8.387
 1645POPC   C3B24069  23.837  13.913   8.035
 1645POPC   C4B24070  23.469  13.802   7.887
 1646POPC   NC324071  38.352  11.437   9.576
 1646POPC   PO424072  38.403  10.817   9.616
 1646POPC   GL124073  38.561  11.160   9.222
 1646POPC   GL224074  38.280  11.340   9.080
 1646POPC   C1A24075  38.708  11.355   8.809
 1646POPC   D2A24076  38.615  11.231   8.381
 1646POPC   C3A24077  38.843  11.142   8.041
 1646POPC   C4A24078  38.663  11.242   7.651
 1646POPC   C1B24079  38.107  11.239   8.692
 1646POPC   C2B24080  38.140  11.080   8.297
 1646POPC   C3B24081  38.257  11.310   7.960
 1646POPC   C4B24082  38.176  11.143   7.574
 1647POPC   NC324083  30.000  29.750   9.447
 1647POPC   PO424084  29.475  30.270   9.328
 1647POPC   GL124085  29.690  29.964   9.097
 1647POPC   GL224086  30.056  29.875   8.965
 1647POPC   C1A24087  29.645  29.859   8.688
 1647POPC   D2A24088  29.887  29.673   8.407
 1647POPC   C3A24089  29.959  30.008   8.160
 1647POPC   C4A24090  29.664  30.140   7.875
 1647POPC   C1B24091  30.235  30.151   8.648
 1647POPC   C2B24092  30.448  30.162   8.231
 1647POPC   C3B24093  30.350  30.017   7.787
 1647POPC   C4B24094  30.267  29.797   7.396
 1648POPC   NC324095  38.995  44.872   9.555
 1648POPC   PO424096  39.533  44.883   9.497
 1648POPC   GL124097  39.313  44.558   9.225
 1648POPC   GL224098  39.209  44.848   9.088
 1648POPC   C1A24099  39.130  44.439   8.779
 1648POPC   D2A24100  39.249  44.545   8.353
 1648POPC   C3A24101  39.107  44.411   7.965
 1648POPC   C4A24102  39.032  44.428   7.523
 1648POPC   C1B24103  39.372  44.902   8.717
 1648POPC   C2B24104  39.647  44.872   8.393
 1648POPC   C3B24105  39.425  44.948   8.028
 1648POPC   C4B24106  39.297  44.816   7.659
 1649POPC   NC324107  34.876   1.344   9.493
 1649POPC   PO424108  34.414   0.941   9.485
 1649POPC   GL124109  34.504   1.136   9.122
 1649POPC   GL224110  34.828   0.982   9.109
 1649POPC   C1A24111  34.440   0.968   8.704
 1649POPC   D2A24112  34.516   0.820   8.265
 1649POPC   C3A24113  34.629   1.117   7.935
 1649POPC   C4A24114  34.297   1.376   7.855
 1649POPC   C1B24115  34.856   1.273   8.768
 1649POPC   C2B24116  34.623   1.361   8.392
 1649POPC   C3B24117  34.721   1.616   8.056
 1649POPC   C4B24118  35.072   1.606   7.825
 1650POPC   NC324119   3.723  22.030   9.580
 1650POPC   PO424120   3.148  21.852   9.478
 1650POPC   GL124121   3.277  22.200   9.235
 1650POPC   GL224122   3.532  22.005   9.104
 1650POPC   C1A24123   3.297  22.332   8.795
 1650POPC   D2A24124   3.524  22.320   8.410
 1650POPC   C3A24125   3.304  22.291   8.039
 1650POPC   C4A24126   3.498  22.282   7.658
 1650POPC   C1B24127   3.636  21.909   8.709
 1650POPC   C2B24128   3.798  21.798   8.358
 1650POPC   C3B24129   3.568  21.878   8.061
 1650POPC   C4B24130   3.617  21.804   7.677
 1651POPC   NC324131  10.155  31.338   9.701
 1651POPC   PO424132  10.693  31.606   9.483
 1651POPC   GL124133  10.476  31.280   9.269
 1651POPC   GL224134  10.748  31.127   9.098
 1651POPC   C1A24135  10.379  31.399   8.847
 1651POPC   D2A24136  10.557  31.579   8.451
 1651POPC   C3A24137  10.411  31.515   8.047
 1651POPC   C4A24138  10.333  31.778   7.692
 1651POPC   C1B24139  10.889  31.357   8.750
 1651POPC   C2B24140  10.854  31.160   8.327
 1651POPC   C3B24141  10.858  31.312   7.929
 1651POPC   C4B24142  10.999  31.213   7.569
 1652POPC   NC324143   5.711  28.843   9.525
 1652POPC   PO424144   6.133  29.367   9.408
 1652POPC   GL124145   5.938  29.081   9.118
 1652POPC   GL224146   5.968  29.315   8.874
 1652POPC   C1A24147   5.628  28.964   8.755
 1652POPC   D2A24148   5.598  28.694   8.345
 1652POPC   C3A24149   5.605  28.867   7.894
 1652POPC   C4A24150   5.988  28.779   7.626
 1652POPC   C1B24151   5.694  29.481   8.596
 1652POPC   C2B24152   5.664  29.293   8.235
 1652POPC   C3B24153   6.011  29.109   8.085
 1652POPC   C4B24154   6.018  29.286   7.710
 1653POPC   NC324155  43.682   2.309   9.374
 1653POPC   PO424156  44.118   1.816   9.433
 1653POPC   GL124157  43.910   1.977   9.053
 1653POPC   GL224158  43.766   1.740   8.805
 1653POPC   C1A24159  44.005   2.174   8.674
 1653POPC   D2A24160  43.774   2.452   8.416
 1653POPC   C3A24161  43.824   2.237   8.032
 1653POPC   C4A24162  44.216   2.038   7.884
 1653POPC   C1B24163  44.173   1.562   8.632
 1653POPC   C2B24164  44.215   1.566   8.193
 1653POPC   C3B24165  43.862   1.696   7.943
 1653POPC   C4B24166  43.446   1.845   7.935
 1654POPC   NC324167  30.649  29.081   9.811
 1654POPC   PO424168  31.052  28.938   9.324
 1654POPC   GL124169  30.677  29.018   9.061
 1654POPC   GL224170  30.373  29.029   9.253
 1654POPC   C1A24171  30.608  29.071   8.606
 1654POPC   D2A24172  30.654  29.254   8.174
 1654POPC   C3A24173  30.640  29.005   7.756
 1654POPC   C4A24174  30.895  29.029   7.370
 1654POPC   C1B24175  30.331  29.404   8.943
 1654POPC   C2B24176  30.382  29.654   8.556
 1654POPC   C3B24177  30.292  29.615   8.111
 1654POPC   C4B24178  30.344  29.413   7.736
 1655POPC   NC324179  15.816  19.793   9.520
 1655POPC   PO424180  16.326  19.351   9.440
 1655POPC   GL124181  16.109  19.672   9.149
 1655POPC   GL224182  16.297  19.910   8.985
 1655POPC   C1A24183  15.816  19.939   8.862
 1655POPC   D2A24184  16.047  20.127   8.507
 1655POPC   C3A24185  15.877  20.104   8.067
 1655POPC   C4A24186  15.779  19.962   7.650
 1655POPC   C1B24187  16.158  19.593   8.663
 1655POPC   C2B24188  16.070  19.641   8.243
 1655POPC   C3B24189  16.187  19.706   7.846
 1655POPC   C4B24190  16.158  19.653   7.397
 1656POPC   NC324191  44.224  16.658   9.386
 1656POPC   PO424192  44.844  16.634   9.696
 1656POPC   GL124193  44.677  16.778   9.192
 1656POPC   GL224194  44.862  16.587   8.995
 1656POPC   C1A24195  44.464  16.715   8.736
 1656POPC   D2A24196  44.209  16.595   8.383
 1656POPC   C3A24197  44.359  16.617   7.959
 1656POPC   C4A24198  44.479  16.576   7.503
 1656POPC   C1B24199  44.970  16.772   8.625
 1656POPC   C2B24200  44.827  16.661   8.238
 1656POPC   C3B24201  44.817  16.435   7.884
 1656POPC   C4B24202   0.006  16.544   7.570
 1657POPC   NC324203  32.849  31.406   9.923
 1657POPC   PO424204  33.458  31.388   9.605
 1657POPC   GL124205  33.313  31.627   9.175
 1657POPC   GL224206  32.957  31.768   9.147
 1657POPC   C1A24207  33.218  31.640   8.717
 1657POPC   D2A24208  33.062  31.806   8.320
 1657POPC   C3A24209  33.249  31.639   7.925
 1657POPC   C4A24210  33.238  31.260   7.626
 1657POPC   C1B24211  32.704  31.804   8.738
 1657POPC   C2B24212  32.586  31.987   8.325
 1657POPC   C3B24213  32.703  31.786   7.935
 1657POPC   C4B24214  32.823  31.332   7.921
 1658POPC   NC324215  30.694  44.409   9.718
 1658POPC   PO424216  30.434  44.983   9.572
 1658POPC   GL124217  30.675  44.721   9.255
 1658POPC   GL224218  30.812  44.370   9.209
 1658POPC   C1A24219  30.717  44.803   8.827
 1658POPC   D2A24220  30.507  44.650   8.477
 1658POPC   C3A24221  30.682  44.863   8.102
 1658POPC   C4A24222  30.938   0.214   7.901
 1658POPC   C1B24223  30.996  44.377   8.789
 1658POPC   C2B24224  31.024  44.580   8.352
 1658POPC   C3B24225  30.976  44.539   7.867
 1658POPC   C4B24226  30.883  44.443   7.410
 1659POPC   NC324227   0.151  37.418   9.704
 1659POPC   PO424228   0.649  37.610   9.486
 1659POPC   GL124229   0.361  37.556   9.171
 1659POPC   GL224230   0.138  37.761   9.055
 1659POPC   C1A24231   0.303  37.354   8.791
 1659POPC   D2A24232   0.247  37.632   8.467
 1659POPC   C3A24233   0.520  37.684   8.125
 1659POPC   C4A24234   0.242  37.431   7.945
 1659POPC   C1B24235   0.517  37.919   8.808
 1659POPC   C2B24236   0.842  37.937   8.480
 1659POPC   C3B24237   0.774  38.143   8.100
 1659POPC   C4B24238   0.612  38.013   7.706
 1660POPC   NC324239  31.527  40.860   9.633
 1660POPC   PO424240  31.068  40.531   9.328
 1660POPC   GL124241  31.491  40.621   9.169
 1660POPC   GL224242  31.529  40.990   9.136
 1660POPC   C1A24243  31.630  40.665   8.737
 1660POPC   D2A24244  31.347  40.500   8.384
 1660POPC   C3A24245  31.449  40.605   7.956
 1660POPC   C4A24246  31.681  40.443   7.607
 1660POPC   C1B24247  31.591  41.165   8.732
 1660POPC   C2B24248  31.508  40.986   8.324
 1660POPC   C3B24249  31.691  41.086   7.923
 1660POPC   C4B24250  31.528  40.938   7.546
 1661POPC   NC324251  35.775  39.811   9.325
 1661POPC   PO424252  35.990  40.334   9.543
 1661POPC   GL124253  36.301  40.167   9.210
 1661POPC   GL224254  36.257  39.830   9.107
 1661POPC   C1A24255  36.387  40.143   8.739
 1661POPC   D2A24256  35.972  40.052   8.540
 1661POPC   C3A24257  35.878  39.994   8.099
 1661POPC   C4A24258  35.980  40.129   7.689
 1661POPC   C1B24259  36.447  39.648   8.740
 1661POPC   C2B24260  36.284  39.698   8.329
 1661POPC   C3B24261  36.376  39.860   7.926
 1661POPC   C4B24262  36.250  39.659   7.525
 1662POPC   NC324263  31.606  16.807   9.676
 1662POPC   PO424264  31.637  16.172   9.531
 1662POPC   GL124265  31.600  16.523   9.209
 1662POPC   GL224266  31.784  16.831   9.150
 1662POPC   C1A24267  31.601  16.622   8.737
 1662POPC   D2A24268  31.580  16.842   8.315
 1662POPC   C3A24269  31.569  16.518   7.964
 1662POPC   C4A24270  31.620  16.405   7.500
 1662POPC   C1B24271  31.848  17.073   8.721
 1662POPC   C2B24272  31.903  17.318   8.316
 1662POPC   C3B24273  31.775  17.248   7.905
 1662POPC   C4B24274  31.391  17.000   7.847
 1663POPC   NC324275  22.535  40.239   9.419
 1663POPC   PO424276  21.843  40.016   9.441
 1663POPC   GL124277  22.105  40.117   9.118
 1663POPC   GL224278  22.295  39.828   9.012
 1663POPC   C1A24279  22.022  40.269   8.706
 1663POPC   D2A24280  22.212  40.082   8.343
 1663POPC   C3A24281  22.020  40.181   7.990
 1663POPC   C4A24282  21.957  39.869   7.694
 1663POPC   C1B24283  22.535  40.118   8.753
 1663POPC   C2B24284  22.741  40.090   8.344
 1663POPC   C3B24285  22.566  40.033   7.932
 1663POPC   C4B24286  22.409  40.337   7.656
 1664POPC   NC324287  31.959  31.695   9.573
 1664POPC   PO424288  32.470  31.238   9.638
 1664POPC   GL124289  32.209  31.379   9.217
 1664POPC   GL224290  32.061  31.730   9.090
 1664POPC   C1A24291  32.306  31.430   8.737
 1664POPC   D2A24292  32.488  31.441   8.299
 1664POPC   C3A24293  32.118  31.324   8.027
 1664POPC   C4A24294  31.911  31.100   7.705
 1664POPC   C1B24295  32.207  31.940   8.724
 1664POPC   C2B24296  32.120  31.772   8.306
 1664POPC   C3B24297  32.196  31.786   7.853
 1664POPC   C4B24298  32.462  31.877   7.455
 1665POPC   NC324299  19.057  23.535   9.628
 1665POPC   PO424300  18.420  23.695   9.515
 1665POPC   GL124301  18.781  23.484   9.200
 1665POPC   GL224302  19.192  23.468   9.148
 1665POPC   C1A24303  18.895  23.578   8.755
 1665POPC   D2A24304  18.702  23.830   8.449
 1665POPC   C3A24305  18.978  23.820   8.097
 1665POPC   C4A24306  19.291  23.679   7.802
 1665POPC   C1B24307  19.283  23.237   8.771
 1665POPC   C2B24308  19.191  23.367   8.350
 1665POPC   C3B24309  19.389  23.214   7.981
 1665POPC   C4B24310  19.691  23.328   7.661
 1666POPC   NC324311   9.599  35.926   9.538
 1666POPC   PO424312  10.008  36.476   9.827
 1666POPC   GL124313   9.994  36.216   9.373
 1666POPC   GL224314   9.645  36.246   9.159
 1666POPC   C1A24315  10.045  36.117   8.896
 1666POPC   D2A24316   9.857  35.939   8.469
 1666POPC   C3A24317   9.913  36.151   8.067
 1666POPC   C4A24318   9.979  36.001   7.666
 1666POPC   C1B24319   9.453  36.058   8.786
 1666POPC   C2B24320   9.331  36.001   8.343
 1666POPC   C3B24321   9.471  35.917   7.904
 1666POPC   C4B24322   9.504  36.268   7.621
 1667POPC   NC324323  18.867  41.630   9.876
 1667POPC   PO424324  19.041  41.288   9.325
 1667POPC   GL124325  19.193  41.083   8.984
 1667POPC   GL224326  19.506  41.237   8.968
 1667POPC   C1A24327  19.061  41.325   8.631
 1667POPC   D2A24328  19.008  41.752   8.450
 1667POPC   C3A24329  18.982  41.621   8.046
 1667POPC   C4A24330  18.948  41.351   7.709
 1667POPC   C1B24331  19.410  41.662   8.794
 1667POPC   C2B24332  19.524  41.716   8.360
 1667POPC   C3B24333  19.444  41.828   7.962
 1667POPC   C4B24334  19.207  41.810   7.619
 1668POPC   NC324335   0.730  26.881   9.419
 1668POPC   PO424336   0.262  26.589   9.668
 1668POPC   GL124337   0.310  26.634   9.142
 1668POPC   GL224338   0.627  26.662   8.996
 1668POPC   C1A24339   0.375  26.905   8.659
 1668POPC   D2A24340   0.592  27.133   8.282
 1668POPC   C3A24341   0.419  27.102   7.842
 1668POPC   C4A24342   0.264  26.669   7.722
 1668POPC   C1B24343   0.917  26.813   8.698
 1668POPC   C2B24344   1.024  26.878   8.254
 1668POPC   C3B24345   0.768  26.730   7.881
 1668POPC   C4B24346   0.666  26.846   7.439
 1669POPC   NC324347  11.559  10.601   9.504
 1669POPC   PO424348  10.927  10.753   9.337
 1669POPC   GL124349  11.067  10.451   9.068
 1669POPC   GL224350  11.443  10.433   9.055
 1669POPC   C1A24351  10.967  10.450   8.635
 1669POPC   D2A24352  11.093  10.678   8.270
 1669POPC   C3A24353  11.104  10.407   7.954
 1669POPC   C4A24354  11.142  10.550   7.558
 1669POPC   C1B24355  11.439  10.628   8.689
 1669POPC   C2B24356  11.443  10.346   8.375
 1669POPC   C3B24357  11.610  10.418   7.976
 1669POPC   C4B24358  11.648  10.827   7.811
 1670POPC   NC324359  38.793  40.620   9.494
 1670POPC   PO424360  39.371  40.299   9.679
 1670POPC   GL124361  39.324  40.628   9.326
 1670POPC   GL224362  39.406  41.002   9.254
 1670POPC   C1A24363  39.166  40.621   8.927
 1670POPC   D2A24364  38.990  40.825   8.566
 1670POPC   C3A24365  39.123  40.751   8.166
 1670POPC   C4A24366  39.264  40.588   7.757
 1670POPC   C1B24367  39.476  40.990   8.798
 1670POPC   C2B24368  39.578  40.806   8.386
 1670POPC   C3B24369  39.533  41.006   7.988
 1670POPC   C4B24370  39.114  41.108   7.819
 1671POPC   NC324371   9.746  35.132   9.692
 1671POPC   PO424372  10.018  35.780   9.692
 1671POPC   GL124373   9.958  35.677   9.222
 1671POPC   GL224374   9.807  35.349   9.088
 1671POPC   C1A24375  10.093  35.614   8.778
 1671POPC   D2A24376   9.958  35.414   8.397
 1671POPC   C3A24377   9.950  35.611   8.000
 1671POPC   C4A24378  10.027  35.240   7.693
 1671POPC   C1B24379   9.583  35.555   8.738
 1671POPC   C2B24380   9.483  35.520   8.280
 1671POPC   C3B24381   9.555  35.331   7.895
 1671POPC   C4B24382   9.502  35.441   7.448
 1672POPC   NC324383   9.292  27.864   9.386
 1672POPC   PO424384   8.824  27.321   9.530
 1672POPC   GL124385   8.973  27.530   9.168
 1672POPC   GL224386   9.298  27.366   9.226
 1672POPC   C1A24387   8.977  27.717   8.718
 1672POPC   D2A24388   9.296  27.919   8.428
 1672POPC   C3A24389   9.210  27.786   7.987
 1672POPC   C4A24390   8.805  27.797   7.749
 1672POPC   C1B24391   9.411  27.461   8.806
 1672POPC   C2B24392   9.219  27.395   8.405
 1672POPC   C3B24393   9.311  27.263   7.997
 1672POPC   C4B24394   9.208  27.415   7.582
 1673POPC   NC324395  33.867  33.508   9.457
 1673POPC   PO424396  34.064  34.182   9.410
 1673POPC   GL124397  34.086  33.850   9.138
 1673POPC   GL224398  33.712  33.858   9.088
 1673POPC   C1A24399  34.010  33.632   8.738
 1673POPC   D2A24400  33.749  33.824   8.420
 1673POPC   C3A24401  33.761  33.622   8.027
 1673POPC   C4A24402  33.733  33.723   7.609
 1673POPC   C1B24403  33.467  34.077   8.778
 1673POPC   C2B24404  33.405  34.271   8.410
 1673POPC   C3B24405  33.466  34.069   8.052
 1673POPC   C4B24406  33.456  34.124   7.643
 1674POPC   NC324407   1.377   6.427   9.293
 1674POPC   PO424408   2.074   6.672   9.504
 1674POPC   GL124409   2.002   6.694   9.089
 1674POPC   GL224410   1.856   6.369   9.155
 1674POPC   C1A24411   1.979   6.759   8.639
 1674POPC   D2A24412   2.249   6.759   8.272
 1674POPC   C3A24413   2.073   6.978   7.916
 1674POPC   C4A24414   1.756   6.726   7.715
 1674POPC   C1B24415   2.018   6.270   8.797
 1674POPC   C2B24416   1.988   6.289   8.372
 1674POPC   C3B24417   1.806   6.274   7.969
 1674POPC   C4B24418   1.990   6.277   7.581
 1675POPC   NC324419  35.795  35.083   9.593
 1675POPC   PO424420  36.358  35.424   9.464
 1675POPC   GL124421  36.192  35.507   9.035
 1675POPC   GL224422  36.249  35.199   8.972
 1675POPC   C1A24423  36.146  35.527   8.595
 1675POPC   D2A24424  36.310  35.498   8.216
 1675POPC   C3A24425  36.444  35.086   8.072
 1675POPC   C4A24426  36.258  35.059   7.703
 1675POPC   C1B24427  36.535  35.118   8.665
 1675POPC   C2B24428  36.153  35.030   8.490
 1675POPC   C3B24429  35.930  35.132   8.171
 1675POPC   C4B24430  35.750  34.910   7.801
 1676POPC   NC324431  37.240  37.277   9.257
 1676POPC   PO424432  37.575  37.638   9.703
 1676POPC   GL124433  37.498  37.728   9.211
 1676POPC   GL224434  37.866  37.761   9.127
 1676POPC   C1A24435  37.544  37.667   8.715
 1676POPC   D2A24436  37.704  37.555   8.267
 1676POPC   C3A24437  37.410  37.506   7.872
 1676POPC   C4A24438  37.500  37.264   7.461
 1676POPC   C1B24439  37.968  37.975   8.733
 1676POPC   C2B24440  38.144  37.951   8.316
 1676POPC   C3B24441  37.971  38.039   7.903
 1676POPC   C4B24442  37.761  37.748   7.579
 1677POPC   NC324443  31.919  40.094   9.543
 1677POPC   PO424444  32.460  39.756   9.467
 1677POPC   GL124445  32.310  39.934   9.096
 1677POPC   GL224446  31.984  39.809   9.117
 1677POPC   C1A24447  32.176  39.924   8.659
 1677POPC   D2A24448  32.280  40.161   8.297
 1677POPC   C3A24449  32.445  39.958   7.972
 1677POPC   C4A24450  32.590  40.108   7.657
 1677POPC   C1B24451  31.895  40.241   8.912
 1677POPC   C2B24452  31.813  40.281   8.470
 1677POPC   C3B24453  31.944  40.517   8.105
 1677POPC   C4B24454  32.116  40.273   7.764
 1678POPC   NC324455  22.825  28.017   9.480
 1678POPC   PO424456  23.321  27.637   9.661
 1678POPC   GL124457  23.031  27.642   9.198
 1678POPC   GL224458  22.691  27.811   9.063
 1678POPC   C1A24459  23.022  27.686   8.716
 1678POPC   D2A24460  22.920  27.403   8.396
 1678POPC   C3A24461  23.048  27.500   7.996
 1678POPC   C4A24462  22.919  27.439   7.567
 1678POPC   C1B24463  22.637  28.059   8.714
 1678POPC   C2B24464  22.748  27.910   8.310
 1678POPC   C3B24465  22.719  27.866   7.865
 1678POPC   C4B24466  22.789  27.910   7.426
 1679POPC   NC324467  27.373  27.152   9.493
 1679POPC   PO424468  27.788  26.679   9.602
 1679POPC   GL124469  27.837  26.644   9.165
 1679POPC   GL224470  27.548  26.831   9.127
 1679POPC   C1A24471  27.823  26.746   8.702
 1679POPC   D2A24472  27.589  26.753   8.315
 1679POPC   C3A24473  27.683  26.738   7.866
 1679POPC   C4A24474  28.001  26.999   7.765
 1679POPC   C1B24475  27.285  26.807   8.771
 1679POPC   C2B24476  27.187  27.020   8.396
 1679POPC   C3B24477  27.182  26.813   8.021
 1679POPC   C4B24478  27.182  26.956   7.625
 1680POPC   NC324479  18.438  38.468   9.691
 1680POPC   PO424480  17.965  38.687   9.317
 1680POPC   GL124481  18.173  38.434   9.047
 1680POPC   GL224482  18.468  38.264   9.221
 1680POPC   C1A24483  18.218  38.493   8.580
 1680POPC   D2A24484  17.963  38.696   8.238
 1680POPC   C3A24485  17.995  38.571   7.809
 1680POPC   C4A24486  17.988  38.155   7.641
 1680POPC   C1B24487  18.656  38.420   8.867
 1680POPC   C2B24488  18.717  38.426   8.427
 1680POPC   C3B24489  18.440  38.442   8.056
 1680POPC   C4B24490  18.435  38.389   7.603
 1681POPC   NC324491  14.674  40.318   9.529
 1681POPC   PO424492  14.170  39.813   9.490
 1681POPC   GL124493  14.297  40.054   9.116
 1681POPC   GL224494  14.671  40.082   9.087
 1681POPC   C1A24495  14.201  39.810   8.707
 1681POPC   D2A24496  14.368  39.628   8.308
 1681POPC   C3A24497  14.136  39.790   7.943
 1681POPC   C4A24498  14.143  40.010   7.510
 1681POPC   C1B24499  14.692  39.914   8.676
 1681POPC   C2B24500  14.518  40.107   8.320
 1681POPC   C3B24501  14.422  40.263   7.911
 1681POPC   C4B24502  14.639  40.064   7.554
 1682POPC   NC324503  37.843  21.070   9.620
 1682POPC   PO424504  37.588  21.698   9.617
 1682POPC   GL124505  37.545  21.405   9.256
 1682POPC   GL224506  37.850  21.284   9.156
 1682POPC   C1A24507  37.557  21.513   8.798
 1682POPC   D2A24508  37.503  21.720   8.399
 1682POPC   C3A24509  37.484  21.463   8.003
 1682POPC   C4A24510  37.372  21.095   7.763
 1682POPC   C1B24511  38.005  21.252   8.744
 1682POPC   C2B24512  37.870  21.374   8.354
 1682POPC   C3B24513  37.904  21.199   7.975
 1682POPC   C4B24514  37.822  20.903   7.618
 1683POPC   NC324515   3.275   5.016   9.460
 1683POPC   PO424516   3.867   5.430   9.445
 1683POPC   GL124517   3.682   5.229   9.117
 1683POPC   GL224518   3.637   4.895   9.112
 1683POPC   C1A24519   3.352   5.195   8.813
 1683POPC   D2A24520   3.531   5.286   8.427
 1683POPC   C3A24521   3.429   5.243   8.025
 1683POPC   C4A24522   3.377   5.478   7.628
 1683POPC   C1B24523   3.570   4.753   8.677
 1683POPC   C2B24524   3.264   4.793   8.342
 1683POPC   C3B24525   3.407   4.739   7.956
 1683POPC   C4B24526   3.795   4.877   8.117
 1684POPC   NC324527  24.234  34.475   9.680
 1684POPC   PO424528  24.917  34.588   9.836
 1684POPC   GL124529  24.728  34.614   9.346
 1684POPC   GL224530  24.372  34.559   9.184
 1684POPC   C1A24531  24.749  34.581   8.854
 1684POPC   D2A24532  24.567  34.387   8.477
 1684POPC   C3A24533  24.552  34.601   8.070
 1684POPC   C4A24534  24.420  34.475   7.637
 1684POPC   C1B24535  24.265  34.806   8.778
 1684POPC   C2B24536  24.062  34.954   8.358
 1684POPC   C3B24537  24.072  34.758   7.934
 1684POPC   C4B24538  23.922  34.733   7.499
 1685POPC   NC324539   7.491   2.439   9.262
 1685POPC   PO424540   7.301   1.857   9.618
 1685POPC   GL124541   7.363   1.894   9.184
 1685POPC   GL224542   7.068   1.690   9.164
 1685POPC   C1A24543   7.468   2.005   8.710
 1685POPC   D2A24544   7.352   2.275   8.331
 1685POPC   C3A24545   7.497   2.090   7.955
 1685POPC   C4A24546   7.900   2.118   7.763
 1685POPC   C1B24547   6.988   1.994   8.862
 1685POPC   C2B24548   6.961   1.978   8.441
 1685POPC   C3B24549   6.946   1.858   8.005
 1685POPC   C4B24550   7.187   1.852   7.616
 1686POPC   NC324551  12.636  33.886   9.457
 1686POPC   PO424552  13.203  33.753   9.735
 1686POPC   GL124553  13.224  33.779   9.221
 1686POPC   GL224554  12.931  33.862   9.051
 1686POPC   C1A24555  13.216  33.579   8.761
 1686POPC   D2A24556  12.917  33.660   8.395
 1686POPC   C3A24557  13.062  33.883   8.008
 1686POPC   C4A24558  13.364  33.809   7.650
 1686POPC   C1B24559  12.684  33.991   8.736
 1686POPC   C2B24560  12.419  33.851   8.418
 1686POPC   C3B24561  12.543  33.673   8.000
 1686POPC   C4B24562  12.712  33.866   7.636
 1687POPC   NC324563  13.317  39.363   9.554
 1687POPC   PO424564  13.771  38.940   9.419
 1687POPC   GL124565  13.488  39.131   9.132
 1687POPC   GL224566  13.499  39.518   9.116
 1687POPC   C1A24567  13.439  39.185   8.717
 1687POPC   D2A24568  13.553  39.037   8.334
 1687POPC   C3A24569  13.378  39.216   7.961
 1687POPC   C4A24570  13.458  39.037   7.585
 1687POPC   C1B24571  13.677  39.638   8.727
 1687POPC   C2B24572  13.484  39.562   8.360
 1687POPC   C3B24573  13.561  39.737   8.009
 1687POPC   C4B24574  13.731  39.735   7.654
 1688POPC   NC324575  13.020  32.963   9.456
 1688POPC   PO424576  12.543  32.560   9.193
 1688POPC   GL124577  12.863  32.894   8.981
 1688POPC   GL224578  12.929  33.294   9.088
 1688POPC   C1A24579  12.949  33.141   8.592
 1688POPC   D2A24580  13.261  33.286   8.276
 1688POPC   C3A24581  13.206  33.033   7.904
 1688POPC   C4A24582  12.889  32.965   7.595
 1688POPC   C1B24583  12.629  33.479   8.796
 1688POPC   C2B24584  12.479  33.330   8.378
 1688POPC   C3B24585  12.604  33.144   7.980
 1688POPC   C4B24586  12.543  33.352   7.570
 1689POPC   NC324587   2.882  25.643   9.550
 1689POPC   PO424588   2.743  25.000   9.463
 1689POPC   GL124589   2.846  25.256   9.144
 1689POPC   GL224590   3.164  25.408   9.196
 1689POPC   C1A24591   2.752  25.204   8.685
 1689POPC   D2A24592   2.435  25.175   8.324
 1689POPC   C3A24593   2.597  25.167   7.883
 1689POPC   C4A24594   2.766  24.843   7.623
 1689POPC   C1B24595   2.916  25.675   8.878
 1689POPC   C2B24596   2.889  25.608   8.421
 1689POPC   C3B24597   2.972  25.522   7.961
 1689POPC   C4B24598   2.670  25.626   7.620
 1690POPC   NC324599   3.051  17.967   9.280
 1690POPC   PO424600   2.538  18.356   9.494
 1690POPC   GL124601   2.550  18.573   9.134
 1690POPC   GL224602   2.793  18.352   9.028
 1690POPC   C1A24603   2.581  18.741   8.770
 1690POPC   D2A24604   2.785  18.580   8.440
 1690POPC   C3A24605   2.616  18.501   8.058
 1690POPC   C4A24606   2.789  18.266   7.715
 1690POPC   C1B24607   2.470  18.237   8.739
 1690POPC   C2B24608   2.509  18.077   8.350
 1690POPC   C3B24609   2.600  17.848   7.960
 1690POPC   C4B24610   2.546  17.856   7.500
 1691POPC   NC324611   4.050  24.257   9.490
 1691POPC   PO424612   4.422  24.838   9.623
 1691POPC   GL124613   4.311  24.723   9.152
 1691POPC   GL224614   4.238  24.375   9.047
 1691POPC   C1A24615   4.334  24.601   8.632
 1691POPC   D2A24616   4.088  24.469   8.240
 1691POPC   C3A24617   4.369  24.397   7.892
 1691POPC   C4A24618   4.307  24.360   7.458
 1691POPC   C1B24619   4.041  24.160   8.664
 1691POPC   C2B24620   3.881  23.974   8.237
 1691POPC   C3B24621   4.091  23.960   7.801
 1691POPC   C4B24622   3.900  24.070   7.357
 1692POPC   NC324623  36.238  42.348   9.637
 1692POPC   PO424624  36.190  43.002   9.402
 1692POPC   GL124625  36.119  42.592   9.161
 1692POPC   GL224626  36.037  42.199   9.196
 1692POPC   C1A24627  36.243  42.436   8.768
 1692POPC   D2A24628  36.045  42.517   8.369
 1692POPC   C3A24629  36.174  42.362   8.010
 1692POPC   C4A24630  36.314  42.473   7.593
 1692POPC   C1B24631  36.120  41.918   8.837
 1692POPC   C2B24632  36.074  41.991   8.395
 1692POPC   C3B24633  35.909  41.918   7.969
 1692POPC   C4B24634  36.200  41.984   7.671
 1693POPC   NC324635  19.763  10.899   9.524
 1693POPC   PO424636  20.174  10.395   9.362
 1693POPC   GL124637  20.023  10.666   9.125
 1693POPC   GL224638  19.702  10.575   9.033
 1693POPC   C1A24639  20.105  10.729   8.717
 1693POPC   D2A24640  19.999  10.587   8.325
 1693POPC   C3A24641  20.059  10.391   7.959
 1693POPC   C4A24642  19.870  10.640   7.693
 1693POPC   C1B24643  19.743  10.294   8.671
 1693POPC   C2B24644  19.631  10.239   8.217
 1693POPC   C3B24645  19.604  10.207   7.755
 1693POPC   C4B24646  19.442  10.509   7.476
 1694POPC   NC324647  42.580   6.970   9.417
 1694POPC   PO424648  42.357   6.360   9.202
 1694POPC   GL124649  42.466   6.685   9.003
 1694POPC   GL224650  42.155   6.836   9.140
 1694POPC   C1A24651  42.486   6.592   8.572
 1694POPC   D2A24652  42.262   6.648   8.206
 1694POPC   C3A24653  42.561   6.679   7.885
 1694POPC   C4A24654  42.627   6.442   7.525
 1694POPC   C1B24655  42.113   6.948   8.711
 1694POPC   C2B24656  41.852   6.953   8.334
 1694POPC   C3B24657  42.062   7.050   7.959
 1694POPC   C4B24658  42.127   6.744   7.650
 1695POPC   NC324659  18.862  40.989   9.638
 1695POPC   PO424660  19.266  40.337   9.536
 1695POPC   GL124661  19.060  40.620   9.232
 1695POPC   GL224662  18.727  40.761   9.214
 1695POPC   C1A24663  19.008  40.642   8.780
 1695POPC   D2A24664  19.118  40.870   8.408
 1695POPC   C3A24665  19.093  40.661   8.036
 1695POPC   C4A24666  19.133  40.859   7.668
 1695POPC   C1B24667  18.670  41.008   8.864
 1695POPC   C2B24668  18.614  40.892   8.450
 1695POPC   C3B24669  18.745  41.029   8.062
 1695POPC   C4B24670  18.635  40.937   7.673
 1696POPC   NC324671   0.739  41.934   9.870
 1696POPC   PO424672   1.233  41.468   9.650
 1696POPC   GL124673   1.131  41.564   9.220
 1696POPC   GL224674   1.000  41.896   9.194
 1696POPC   C1A24675   1.445  41.544   8.882
 1696POPC   D2A24676   1.448  41.665   8.440
 1696POPC   C3A24677   1.477  41.405   8.072
 1696POPC   C4A24678   1.252  41.456   7.696
 1696POPC   C1B24679   1.162  41.952   8.790
 1696POPC   C2B24680   1.002  41.968   8.376
 1696POPC   C3B24681   1.130  41.863   7.956
 1696POPC   C4B24682   1.040  41.902   7.495
 1697POPC   NC324683  42.372  14.212   9.582
 1697POPC   PO424684  42.280  14.772   9.235
 1697POPC   GL124685  42.134  14.473   8.971
 1697POPC   GL224686  42.258  14.155   9.057
 1697POPC   C1A24687  42.320  14.407   8.584
 1697POPC   D2A24688  42.670  14.460   8.359
 1697POPC   C3A24689  42.481  14.415   7.974
 1697POPC   C4A24690  42.302  14.395   7.568
 1697POPC   C1B24691  42.243  13.912   8.647
 1697POPC   C2B24692  42.155  14.013   8.224
 1697POPC   C3B24693  42.138  13.956   7.786
 1697POPC   C4B24694  41.916  14.087   7.407
 1698POPC   NC324695   4.730  22.492   9.795
 1698POPC   PO424696   4.140  22.178   9.717
 1698POPC   GL124697   4.124  22.256   9.298
 1698POPC   GL224698   3.807  22.415   9.257
 1698POPC   C1A24699   4.287  22.133   8.910
 1698POPC   D2A24700   4.554  22.159   8.574
 1698POPC   C3A24701   4.427  22.241   8.160
 1698POPC   C4A24702   4.564  22.270   7.747
 1698POPC   C1B24703   3.833  22.404   8.833
 1698POPC   C2B24704   4.026  22.219   8.486
 1698POPC   C3B24705   3.904  22.252   8.058
 1698POPC   C4B24706   4.050  22.140   7.674
 1699POPC   NC324707  31.146  42.860   9.416
 1699POPC   PO424708  31.854  42.872   9.504
 1699POPC   GL124709  31.600  42.823   9.165
 1699POPC   GL224710  31.469  43.171   9.164
 1699POPC   C1A24711  31.577  42.893   8.741
 1699POPC   D2A24712  31.621  43.189   8.419
 1699POPC   C3A24713  31.474  43.054   7.985
 1699POPC   C4A24714  31.649  42.892   7.588
 1699POPC   C1B24715  31.206  43.294   8.783
 1699POPC   C2B24716  31.139  43.296   8.322
 1699POPC   C3B24717  31.277  43.520   7.924
 1699POPC   C4B24718  31.304  43.254   7.526
 1700POPC   NC324719  43.723   9.095   9.577
 1700POPC   PO424720  44.384   9.002   9.530
 1700POPC   GL124721  44.091   8.948   9.223
 1700POPC   GL224722  43.889   9.234   9.104
 1700POPC   C1A24723  44.058   8.858   8.799
 1700POPC   D2A24724  43.880   9.115   8.496
 1700POPC   C3A24725  43.750   8.820   8.196
 1700POPC   C4A24726  43.723   8.855   7.765
 1700POPC   C1B24727  43.481   9.271   8.848
 1700POPC   C2B24728  43.446   9.400   8.401
 1700POPC   C3B24729  43.755   9.325   8.027
 1700POPC   C4B24730  43.764   9.310   7.565
 1701POPC   NC324731  32.766  18.861   9.251
 1701POPC   PO424732  32.754  19.280   9.766
 1701POPC   GL124733  33.005  19.285   9.294
 1701POPC   GL224734  33.288  19.061   9.196
 1701POPC   C1A24735  32.924  19.270   8.793
 1701POPC   D2A24736  32.772  18.977   8.423
 1701POPC   C3A24737  32.938  19.068   7.983
 1701POPC   C4A24738  33.272  19.269   7.739
 1701POPC   C1B24739  33.274  18.826   8.784
 1701POPC   C2B24740  33.428  18.618   8.413
 1701POPC   C3B24741  33.227  18.631   8.033
 1701POPC   C4B24742  33.336  18.766   7.632
 1702POPC   NC324743   8.160   6.141   9.423
 1702POPC   PO424744   7.711   5.587   9.420
 1702POPC   GL124745   8.083   5.721   9.124
 1702POPC   GL224746   8.429   5.625   9.223
 1702POPC   C1A24747   8.370   5.987   8.822
 1702POPC   D2A24748   8.324   6.014   8.403
 1702POPC   C3A24749   8.480   6.106   8.036
 1702POPC   C4A24750   8.263   5.992   7.673
 1702POPC   C1B24751   8.481   5.492   8.828
 1702POPC   C2B24752   8.469   5.511   8.416
 1702POPC   C3B24753   8.426   5.604   8.003
 1702POPC   C4B24754   8.761   5.409   7.834
 1703POPC   NC324755  41.571  34.456   9.626
 1703POPC   PO424756  41.419  35.018   9.453
 1703POPC   GL124757  41.537  34.639   9.145
 1703POPC   GL224758  41.684  34.281   9.143
 1703POPC   C1A24759  41.715  34.664   8.728
 1703POPC   D2A24760  41.457  34.773   8.383
 1703POPC   C3A24761  41.583  34.868   7.972
 1703POPC   C4A24762  41.228  34.883   7.732
 1703POPC   C1B24763  41.767  34.150   8.742
 1703POPC   C2B24764  41.507  34.271   8.422
 1703POPC   C3B24765  41.627  34.367   8.050
 1703POPC   C4B24766  41.756  34.434   7.646
 1704POPC   NC324767   2.234  13.060   9.436
 1704POPC   PO424768   1.628  12.807   9.540
 1704POPC   GL124769   1.864  12.876   9.125
 1704POPC   GL224770   2.158  12.674   9.075
 1704POPC   C1A24771   2.006  13.055   8.718
 1704POPC   D2A24772   1.774  12.970   8.296
 1704POPC   C3A24773   1.769  13.184   7.874
 1704POPC   C4A24774   1.974  13.042   7.466
 1704POPC   C1B24775   2.395  12.661   8.696
 1704POPC   C2B24776   2.400  12.991   8.398
 1704POPC   C3B24777   2.229  13.014   8.018
 1704POPC   C4B24778   2.424  13.128   7.692
 1705POPC   NC324779  31.170  34.243   9.322
 1705POPC   PO424780  31.568  33.624   9.451
 1705POPC   GL124781  31.423  33.818   9.092
 1705POPC   GL224782  31.240  33.514   9.046
 1705POPC   C1A24783  31.742  33.943   8.765
 1705POPC   D2A24784  31.881  33.918   8.331
 1705POPC   C3A24785  31.524  34.054   8.029
 1705POPC   C4A24786  31.164  34.311   7.841
 1705POPC   C1B24787  31.526  33.476   8.722
 1705POPC   C2B24788  31.453  33.634   8.339
 1705POPC   C3B24789  31.564  33.539   7.940
 1705POPC   C4B24790  31.253  33.282   7.746
 1706POPC   NC324791  13.462  30.100   9.407
 1706POPC   PO424792  12.780  29.844   9.518
 1706POPC   GL124793  12.830  29.983   9.127
 1706POPC   GL224794  12.965  30.299   9.100
 1706POPC   C1A24795  12.896  29.896   8.712
 1706POPC   D2A24796  12.852  29.744   8.356
 1706POPC   C3A24797  12.846  29.969   8.006
 1706POPC   C4A24798  12.876  29.810   7.610
 1706POPC   C1B24799  12.613  30.317   8.792
 1706POPC   C2B24800  12.507  30.132   8.412
 1706POPC   C3B24801  12.513  30.343   8.038
 1706POPC   C4B24802  12.425  30.105   7.692
 1707POPC   NC324803  19.689  21.272   9.568
 1707POPC   PO424804  19.294  21.709   9.238
 1707POPC   GL124805  19.729  21.522   9.118
 1707POPC   GL224806  19.743  21.140   9.072
 1707POPC   C1A24807  19.968  21.548   8.726
 1707POPC   D2A24808  19.683  21.522   8.328
 1707POPC   C3A24809  19.808  21.697   7.911
 1707POPC   C4A24810  20.137  21.501   7.631
 1707POPC   C1B24811  20.056  21.063   8.757
 1707POPC   C2B24812  20.127  21.258   8.333
 1707POPC   C3B24813  19.884  21.187   7.953
 1707POPC   C4B24814  19.422  21.232   7.887
 1708POPC   NC324815  40.244  37.579   9.461
 1708POPC   PO424816  39.775  38.135   9.495
 1708POPC   GL124817  39.893  37.849   9.170
 1708POPC   GL224818  40.239  37.941   9.102
 1708POPC   C1A24819  39.956  37.681   8.751
 1708POPC   D2A24820  40.140  37.841   8.387
 1708POPC   C3A24821  39.938  37.691   8.053
 1708POPC   C4A24822  39.886  37.590   7.666
 1708POPC   C1B24823  40.475  37.681   8.771
 1708POPC   C2B24824  40.558  37.516   8.329
 1708POPC   C3B24825  40.425  37.601   7.906
 1708POPC   C4B24826  40.328  37.609   7.448
 1709POPC   NC324827  39.058  12.145   9.581
 1709POPC   PO424828  39.450  11.670   9.610
 1709POPC   GL124829  39.367  11.927   9.221
 1709POPC   GL224830  39.654  12.166   9.116
 1709POPC   C1A24831  39.085  12.102   8.908
 1709POPC   D2A24832  39.158  12.083   8.472
 1709POPC   C3A24833  38.842  12.132   8.161
 1709POPC   C4A24834  39.007  12.140   7.745
 1709POPC   C1B24835  39.517  12.344   8.724
 1709POPC   C2B24836  39.530  12.412   8.291
 1709POPC   C3B24837  39.492  12.186   7.927
 1709POPC   C4B24838  39.713  12.311   7.577
 1710POPC   NC324839  10.456   8.174  10.109
 1710POPC   PO424840  10.544   7.775   9.567
 1710POPC   GL124841  10.533   8.100   9.257
 1710POPC   GL224842  10.774   8.390   9.356
 1710POPC   C1A24843  10.347   8.103   8.835
 1710POPC   D2A24844  10.562   8.070   8.435
 1710POPC   C3A24845  10.307   8.108   8.061
 1710POPC   C4A24846  10.493   8.055   7.597
 1710POPC   C1B24847  10.808   8.365   8.908
 1710POPC   C2B24848  10.871   8.645   8.588
 1710POPC   C3B24849  10.755   8.589   8.178
 1710POPC   C4B24850  10.779   8.210   7.981
 1711POPC   NC324851  32.483  20.176   9.528
 1711POPC   PO424852  32.129  20.704   9.420
 1711POPC   GL124853  32.391  20.855   9.144
 1711POPC   GL224854  32.669  20.642   9.262
 1711POPC   C1A24855  32.162  20.815   8.770
 1711POPC   D2A24856  32.165  20.880   8.368
 1711POPC   C3A24857  32.035  20.625   8.066
 1711POPC   C4A24858  32.030  20.869   7.711
 1711POPC   C1B24859  32.444  20.404   8.926
 1711POPC   C2B24860  32.377  20.421   8.497
 1711POPC   C3B24861  32.558  20.412   8.121
 1711POPC   C4B24862  32.398  20.467   7.740
 1712POPC   NC324863  36.749  17.331   9.458
 1712POPC   PO424864  37.375  17.241   9.326
 1712POPC   GL124865  37.170  17.429   8.995
 1712POPC   GL224866  36.953  17.671   9.122
 1712POPC   C1A24867  36.834  17.374   8.691
 1712POPC   D2A24868  36.765  17.285   8.249
 1712POPC   C3A24869  36.832  17.414   7.810
 1712POPC   C4A24870  37.224  17.409   7.563
 1712POPC   C1B24871  36.738  17.869   8.810
 1712POPC   C2B24872  36.628  17.774   8.414
 1712POPC   C3B24873  36.809  17.859   8.054
 1712POPC   C4B24874  36.615  17.848   7.668
 1713POPC   NC324875   1.835  35.735   9.441
 1713POPC   PO424876   2.185  35.138   9.523
 1713POPC   GL124877   1.980  35.289   9.179
 1713POPC   GL224878   2.106  35.590   9.017
 1713POPC   C1A24879   1.769  35.217   8.795
 1713POPC   D2A24880   1.957  35.291   8.420
 1713POPC   C3A24881   1.848  35.026   8.108
 1713POPC   C4A24882   1.996  34.960   7.687
 1713POPC   C1B24883   1.697  35.736   8.806
 1713POPC   C2B24884   1.524  35.587   8.432
 1713POPC   C3B24885   1.752  35.634   8.040
 1713POPC   C4B24886   1.841  35.763   7.610
 1714POPC   NC324887  31.027  31.932   9.553
 1714POPC   PO424888  30.795  31.341   9.492
 1714POPC   GL124889  30.775  31.665   9.187
 1714POPC   GL224890  31.066  31.707   9.053
 1714POPC   C1A24891  30.682  31.869   8.786
 1714POPC   D2A24892  30.975  31.883   8.425
 1714POPC   C3A24893  30.814  31.633   8.110
 1714POPC   C4A24894  30.648  31.670   7.709
 1714POPC   C1B24895  30.739  31.370   8.795
 1714POPC   C2B24896  30.625  31.170   8.361
 1714POPC   C3B24897  30.766  31.140   7.914
 1714POPC   C4B24898  30.783  31.257   7.467
 1715POPC   NC324899  15.015   8.548   9.225
 1715POPC   PO424900  14.950   9.201   9.417
 1715POPC   GL124901  15.212   9.054   9.106
 1715POPC   GL224902  14.943   8.951   8.927
 1715POPC   C1A24903  15.453   8.881   8.765
 1715POPC   D2A24904  15.528   8.649   8.390
 1715POPC   C3A24905  15.581   8.943   8.069
 1715POPC   C4A24906  15.339   9.107   7.726
 1715POPC   C1B24907  15.012   8.703   8.548
 1715POPC   C2B24908  15.069   8.786   8.100
 1715POPC   C3B24909  14.846   8.937   7.745
 1715POPC   C4B24910  14.770   8.904   7.330
 1716POPC   NC324911  44.217   3.936   9.549
 1716POPC   PO424912  43.754   3.440   9.578
 1716POPC   GL124913  43.872   3.355   9.177
 1716POPC   GL224914  44.239   3.456   9.189
 1716POPC   C1A24915  43.935   3.519   8.778
 1716POPC   D2A24916  43.857   3.849   8.574
 1716POPC   C3A24917  44.030   3.787   8.172
 1716POPC   C4A24918  43.837   3.493   7.876
 1716POPC   C1B24919  44.262   3.158   8.817
 1716POPC   C2B24920  44.082   3.235   8.363
 1716POPC   C3B24921  44.051   3.041   7.927
 1716POPC   C4B24922  44.145   3.295   7.523
 1717POPC   NC324923  41.868  34.978   9.322
 1717POPC   PO424924  42.515  35.262   9.454
 1717POPC   GL124925  42.568  35.543   9.076
 1717POPC   GL224926  42.202  35.687   9.005
 1717POPC   C1A24927  42.534  35.557   8.632
 1717POPC   D2A24928  42.148  35.568   8.411
 1717POPC   C3A24929  42.282  35.409   8.019
 1717POPC   C4A24930  42.037  35.573   7.723
 1717POPC   C1B24931  42.200  35.247   8.831
 1717POPC   C2B24932  42.350  35.093   8.423
 1717POPC   C3B24933  42.160  34.860   8.101
 1717POPC   C4B24934  42.058  35.026   7.728
 1718POPC   NC324935   7.802  36.629   9.418
 1718POPC   PO424936   7.183  36.999   9.479
 1718POPC   GL124937   7.277  37.132   9.071
 1718POPC   GL224938   7.628  37.103   9.034
 1718POPC   C1A24939   7.272  37.043   8.634
 1718POPC   D2A24940   7.245  37.212   8.227
 1718POPC   C3A24941   7.008  36.935   7.939
 1718POPC   C4A24942   7.177  36.719   7.558
 1718POPC   C1B24943   7.770  36.799   8.735
 1718POPC   C2B24944   7.842  36.651   8.314
 1718POPC   C3B24945   7.602  36.853   7.972
 1718POPC   C4B24946   7.731  37.028   7.570
 1719POPC   NC324947  20.922  42.103   9.580
 1719POPC   PO424948  21.489  42.536   9.489
 1719POPC   GL124949  21.268  42.452   9.148
 1719POPC   GL224950  21.109  42.161   9.115
 1719POPC   C1A24951  21.336  42.511   8.736
 1719POPC   D2A24952  21.318  42.379   8.322
 1719POPC   C3A24953  21.580  42.493   7.945
 1719POPC   C4A24954  21.259  42.492   7.635
 1719POPC   C1B24955  21.137  42.030   8.681
 1719POPC   C2B24956  21.001  41.938   8.245
 1719POPC   C3B24957  21.302  42.063   7.935
 1719POPC   C4B24958  21.626  41.996   7.686
 1720POPC   NC324959  13.483  37.951   9.555
 1720POPC   PO424960  13.842  37.398   9.491
 1720POPC   GL124961  13.739  37.700   9.175
 1720POPC   GL224962  13.946  37.915   9.041
 1720POPC   C1A24963  13.621  37.661   8.733
 1720POPC   D2A24964  13.777  37.429   8.361
 1720POPC   C3A24965  13.530  37.454   7.976
 1720POPC   C4A24966  13.343  37.782   7.732
 1720POPC   C1B24967  14.119  37.552   8.789
 1720POPC   C2B24968  14.259  37.646   8.372
 1720POPC   C3B24969  13.994  37.818   8.006
 1720POPC   C4B24970  13.750  38.094   7.698
 1721POPC   NC324971  12.707  19.672  10.001
 1721POPC   PO424972  12.971  20.091   9.444
 1721POPC   GL124973  12.735  19.972   9.106
 1721POPC   GL224974  12.691  20.287   8.933
 1721POPC   C1A24975  12.740  19.708   8.736
 1721POPC   D2A24976  12.550  19.605   8.332
 1721POPC   C3A24977  12.857  19.430   8.018
 1721POPC   C4A24978  13.206  19.678   7.869
 1721POPC   C1B24979  13.087  20.123   8.741
 1721POPC   C2B24980  13.050  19.875   8.342
 1721POPC   C3B24981  12.763  19.956   7.996
 1721POPC   C4B24982  12.785  20.262   7.671
 1722POPC   NC324983  33.143  17.069   9.580
 1722POPC   PO424984  32.675  17.532   9.654
 1722POPC   GL124985  32.922  17.526   9.221
 1722POPC   GL224986  32.710  17.718   8.996
 1722POPC   C1A24987  33.170  17.284   8.845
 1722POPC   D2A24988  33.377  17.192   8.402
 1722POPC   C3A24989  33.337  17.442   7.993
 1722POPC   C4A24990  33.067  17.439   7.634
 1722POPC   C1B24991  32.743  17.499   8.686
 1722POPC   C2B24992  32.943  17.526   8.317
 1722POPC   C3B24993  32.721  17.549   7.975
 1722POPC   C4B24994  32.592  17.937   7.802
 1723POPC   NC324995  15.452  22.489   9.412
 1723POPC   PO424996  15.984  21.979   9.581
 1723POPC   GL124997  15.868  22.014   9.168
 1723POPC   GL224998  15.818  22.354   9.101
 1723POPC   C1A24999  16.003  22.073   8.733
 1723POPC   D2A25000  16.217  21.894   8.408
 1723POPC   C3A25001  16.062  21.927   7.974
 1723POPC   C4A25002  16.287  22.244   7.726
 1723POPC   C1B25003  15.714  22.572   8.757
 1723POPC   C2B25004  15.698  22.311   8.380
 1723POPC   C3B25005  15.824  22.363   7.972
 1723POPC   C4B25006  15.665  22.092   7.645
 1724POPC   NC325007  21.625   2.371   9.537
 1724POPC   PO425008  21.447   1.658   9.639
 1724POPC   GL125009  21.456   1.844   9.195
 1724POPC   GL225010  21.341   2.207   9.151
 1724POPC   C1A25011  21.263   1.853   8.792
 1724POPC   D2A25012  21.554   1.688   8.556
 1724POPC   C3A25013  21.515   1.674   8.116
 1724POPC   C4A25014  21.468   1.930   7.756
 1724POPC   C1B25015  21.586   2.234   8.792
 1724POPC   C2B25016  21.647   2.147   8.367
 1724POPC   C3B25017  21.534   2.357   8.030
 1724POPC   C4B25018  21.714   2.381   7.667
 1725POPC   NC325019  40.599  28.486   9.713
 1725POPC   PO425020  39.934  28.561   9.752
 1725POPC   GL125021  39.919  28.412   9.305
 1725POPC   GL225022  39.978  28.680   9.047
 1725POPC   C1A25023  39.825  28.229   8.898
 1725POPC   D2A25024  39.574  28.292   8.528
 1725POPC   C3A25025  39.811  28.385   8.148
 1725POPC   C4A25026  39.644  28.284   7.746
 1725POPC   C1B25027  39.956  28.651   8.602
 1725POPC   C2B25028  40.277  28.606   8.298
 1725POPC   C3B25029  40.285  28.770   7.902
 1725POPC   C4B25030  40.109  28.464   7.673
 1726POPC   NC325031  43.506  15.989   9.536
 1726POPC   PO425032  43.246  15.320   9.535
 1726POPC   GL125033  43.229  15.656   9.165
 1726POPC   GL225034  43.383  16.008   9.052
 1726POPC   C1A25035  42.927  15.858   8.893
 1726POPC   D2A25036  42.997  15.957   8.494
 1726POPC   C3A25037  42.993  15.700   8.144
 1726POPC   C4A25038  43.060  15.998   7.791
 1726POPC   C1B25039  43.485  15.826   8.656
 1726POPC   C2B25040  43.454  15.945   8.216
 1726POPC   C3B25041  43.539  16.239   7.894
 1726POPC   C4B25042  43.443  16.101   7.472
 1727POPC   NC325043   8.795  38.629   9.651
 1727POPC   PO425044   9.322  38.174   9.640
 1727POPC   GL125045   9.196  38.347   9.225
 1727POPC   GL225046   8.842  38.446   9.183
 1727POPC   C1A25047   9.095  38.249   8.781
 1727POPC   D2A25048   9.353  38.305   8.420
 1727POPC   C3A25049   9.154  38.490   8.082
 1727POPC   C4A25050   9.043  38.366   7.691
 1727POPC   C1B25051   8.631  38.469   8.772
 1727POPC   C2B25052   8.762  38.427   8.386
 1727POPC   C3B25053   8.638  38.578   7.997
 1727POPC   C4B25054   8.543  38.347   7.621
 1728POPC   NC325055  42.549  24.076   9.497
 1728POPC   PO425056  42.308  23.441   9.517
 1728POPC   GL125057  42.116  23.596   9.161
 1728POPC   GL225058  42.232  23.927   9.131
 1728POPC   C1A25059  42.094  23.521   8.711
 1728POPC   D2A25060  42.323  23.678   8.337
 1728POPC   C3A25061  42.267  23.440   7.958
 1728POPC   C4A25062  41.846  23.500   7.813
 1728POPC   C1B25063  42.195  24.052   8.685
 1728POPC   C2B25064  42.042  24.104   8.231
 1728POPC   C3B25065  42.347  24.067   7.844
 1728POPC   C4B25066  42.583  24.015   7.399
 1729POPC   NC325067  25.948   1.663   9.482
 1729POPC   PO425068  26.330   2.124   9.682
 1729POPC   GL125069  26.247   1.917   9.190
 1729POPC   GL225070  25.867   1.977   9.097
 1729POPC   C1A25071  26.157   1.645   8.802
 1729POPC   D2A25072  25.983   1.590   8.365
 1729POPC   C3A25073  25.900   1.874   8.006
 1729POPC   C4A25074  26.012   1.755   7.572
 1729POPC   C1B25075  25.947   2.091   8.678
 1729POPC   C2B25076  25.904   2.311   8.315
 1729POPC   C3B25077  26.158   2.357   7.972
 1729POPC   C4B25078  26.359   2.095   7.725
 1730POPC   NC325079  41.954  43.418   9.436
 1730POPC   PO425080  42.558  43.132   9.502
 1730POPC   GL125081  42.359  43.104   9.089
 1730POPC   GL225082  41.986  43.070   9.058
 1730POPC   C1A25083  42.404  43.312   8.663
 1730POPC   D2A25084  42.550  43.444   8.207
 1730POPC   C3A25085  42.465  43.187   7.847
 1730POPC   C4A25086  42.456  42.741   7.657
 1730POPC   C1B25087  42.105  42.872   8.678
 1730POPC   C2B25088  42.181  43.066   8.286
 1730POPC   C3B25089  41.977  43.115   7.934
 1730POPC   C4B25090  41.871  42.889   7.617
 1731POPC   NC325091  33.552  34.216   9.495
 1731POPC   PO425092  33.756  34.868   9.557
 1731POPC   GL125093  33.597  34.679   9.163
 1731POPC   GL225094  33.756  34.384   9.070
 1731POPC   C1A25095  33.724  34.702   8.688
 1731POPC   D2A25096  34.056  34.888   8.407
 1731POPC   C3A25097  34.029  34.734   7.997
 1731POPC   C4A25098  33.638  34.540   7.874
 1731POPC   C1B25099  33.959  34.196   8.726
 1731POPC   C2B25100  33.906  34.328   8.301
 1731POPC   C3B25101  33.950  34.123   7.906
 1731POPC   C4B25102  33.918  34.199   7.468
 1732POPC   NC325103   7.977  21.716   9.477
 1732POPC   PO425104   7.993  21.038   9.443
 1732POPC   GL125105   8.303  21.194   9.141
 1732POPC   GL225106   8.221  21.513   9.105
 1732POPC   C1A25107   8.515  21.012   8.790
 1732POPC   D2A25108   8.362  20.981   8.382
 1732POPC   C3A25109   8.270  21.376   8.233
 1732POPC   C4A25110   8.250  21.311   7.816
 1732POPC   C1B25111   8.014  21.456   8.732
 1732POPC   C2B25112   7.829  21.605   8.377
 1732POPC   C3B25113   7.783  21.379   8.005
 1732POPC   C4B25114   7.912  21.647   7.675
 1733POPC   NC325115  35.404  40.725   9.489
 1733POPC   PO425116  35.562  41.364   9.391
 1733POPC   GL125117  35.259  41.092   9.084
 1733POPC   GL225118  35.208  40.704   9.026
 1733POPC   C1A25119  35.114  41.018   8.653
 1733POPC   D2A25120  35.473  41.135   8.376
 1733POPC   C3A25121  35.517  40.955   7.963
 1733POPC   C4A25122  35.124  40.967   7.720
 1733POPC   C1B25123  35.490  40.422   8.851
 1733POPC   C2B25124  35.597  40.527   8.434
 1733POPC   C3B25125  35.378  40.401   8.054
 1733POPC   C4B25126  35.423  40.556   7.641
 1734POPC   NC325127   6.531  28.129   9.496
 1734POPC   PO425128   6.899  28.736   9.532
 1734POPC   GL125129   6.757  28.548   9.125
 1734POPC   GL225130   6.436  28.697   8.972
 1734POPC   C1A25131   6.689  28.323   8.700
 1734POPC   D2A25132   6.578  28.226   8.286
 1734POPC   C3A25133   6.856  28.269   7.963
 1734POPC   C4A25134   6.488  28.459   7.782
 1734POPC   C1B25135   6.779  28.821   8.690
 1734POPC   C2B25136   6.915  28.680   8.298
 1734POPC   C3B25137   7.028  28.858   7.910
 1734POPC   C4B25138   6.864  29.026   7.522
 1735POPC   NC325139   9.581  20.521   9.410
 1735POPC   PO425140   9.891  21.147   9.404
 1735POPC   GL125141   9.912  20.831   9.118
 1735POPC   GL225142  10.097  20.543   9.263
 1735POPC   C1A25143   9.660  20.741   8.765
 1735POPC   D2A25144   9.694  20.498   8.396
 1735POPC   C3A25145   9.800  20.725   8.027
 1735POPC   C4A25146   9.490  20.777   7.723
 1735POPC   C1B25147  10.048  20.379   8.842
 1735POPC   C2B25148  10.139  20.211   8.425
 1735POPC   C3B25149   9.949  20.231   8.028
 1735POPC   C4B25150   9.990  20.421   7.637
 1736POPC   NC325151  11.848  30.738   9.775
 1736POPC   PO425152  12.118  30.335   9.361
 1736POPC   GL125153  12.068  30.767   9.232
 1736POPC   GL225154  11.740  30.920   9.302
 1736POPC   C1A25155  12.242  30.832   8.828
 1736POPC   D2A25156  12.253  30.569   8.455
 1736POPC   C3A25157  12.118  30.680   8.051
 1736POPC   C4A25158  12.096  30.534   7.638
 1736POPC   C1B25159  11.750  30.965   8.841
 1736POPC   C2B25160  11.772  30.823   8.411
 1736POPC   C3B25161  11.658  30.459   8.125
 1736POPC   C4B25162  11.684  30.233   7.703
 1737POPC   NC325163  44.267  15.993   9.467
 1737POPC   PO425164  43.724  15.691   9.280
 1737POPC   GL125165  43.915  16.028   9.096
 1737POPC   GL225166  44.197  15.850   8.991
 1737POPC   C1A25167  44.051  16.306   8.777
 1737POPC   D2A25168  43.818  16.274   8.378
 1737POPC   C3A25169  44.034  16.110   8.034
 1737POPC   C4A25170  43.861  15.903   7.664
 1737POPC   C1B25171  44.062  15.838   8.577
 1737POPC   C2B25172  44.320  15.685   8.267
 1737POPC   C3B25173  44.173  15.564   7.900
 1737POPC   C4B25174  43.722  15.490   7.914
 1738POPC   NC325175  40.487  24.386   9.383
 1738POPC   PO425176  41.171  24.150   9.446
 1738POPC   GL125177  40.928  24.314   9.076
 1738POPC   GL225178  41.089  24.665   8.929
 1738POPC   C1A25179  40.679  24.143   8.690
 1738POPC   D2A25180  40.571  24.039   8.249
 1738POPC   C3A25181  40.674  24.381   7.965
 1738POPC   C4A25182  40.934  24.770   7.999
 1738POPC   C1B25183  40.708  24.652   8.722
 1738POPC   C2B25184  40.461  24.631   8.396
 1738POPC   C3B25185  40.434  24.882   8.068
 1738POPC   C4B25186  40.403  24.728   7.693
 1739POPC   NC325187  18.243  37.502   9.600
 1739POPC   PO425188  18.034  38.174   9.644
 1739POPC   GL125189  18.083  37.940   9.237
 1739POPC   GL225190  18.111  37.621   9.105
 1739POPC   C1A25191  18.245  37.996   8.791
 1739POPC   D2A25192  18.024  37.838   8.392
 1739POPC   C3A25193  18.272  37.875   7.998
 1739POPC   C4A25194  18.386  37.852   7.562
 1739POPC   C1B25195  18.238  37.484   8.700
 1739POPC   C2B25196  18.087  37.287   8.326
 1739POPC   C3B25197  18.274  37.318   7.927
 1739POPC   C4B25198  18.654  37.544   7.869
 1740POPC   NC325199   8.274   6.888   9.636
 1740POPC   PO425200   7.819   6.457   9.518
 1740POPC   GL125201   7.912   6.718   9.158
 1740POPC   GL225202   8.175   6.986   9.135
 1740POPC   C1A25203   8.007   6.660   8.722
 1740POPC   D2A25204   8.310   6.563   8.398
 1740POPC   C3A25205   8.122   6.463   8.014
 1740POPC   C4A25206   8.350   6.507   7.676
 1740POPC   C1B25207   8.020   7.181   8.751
 1740POPC   C2B25208   8.015   7.010   8.318
 1740POPC   C3B25209   8.312   6.931   7.976
 1740POPC   C4B25210   8.312   7.009   7.517
 1741POPC   NC325211   9.481  22.248   9.481
 1741POPC   PO425212  10.137  22.007   9.521
 1741POPC   GL125213   9.901  22.209   9.174
 1741POPC   GL225214   9.612  22.050   9.053
 1741POPC   C1A25215   9.811  22.406   8.770
 1741POPC   D2A25216   9.901  22.298   8.367
 1741POPC   C3A25217   9.568  22.199   8.099
 1741POPC   C4A25218   9.737  22.170   7.668
 1741POPC   C1B25219   9.684  21.865   8.663
 1741POPC   C2B25220   9.472  21.666   8.328
 1741POPC   C3B25221   9.587  21.730   7.887
 1741POPC   C4B25222   9.562  21.768   7.397
 1742POPC   NC325223  39.410  39.846   9.639
 1742POPC   PO425224  38.890  39.473   9.514
 1742POPC   GL125225  39.185  39.701   9.202
 1742POPC   GL225226  39.531  39.568   9.211
 1742POPC   C1A25227  39.261  40.118   8.942
 1742POPC   D2A25228  39.302  40.387   8.515
 1742POPC   C3A25229  39.144  40.245   8.130
 1742POPC   C4A25230  39.136  40.068   7.741
 1742POPC   C1B25231  39.472  39.675   8.785
 1742POPC   C2B25232  39.342  39.889   8.453
 1742POPC   C3B25233  39.352  39.761   8.072
 1742POPC   C4B25234  39.269  39.552   7.716
 1743POPC   NC325235  25.823  30.584   9.412
 1743POPC   PO425236  26.509  30.650   9.323
 1743POPC   GL125237  26.291  30.794   8.998
 1743POPC   GL225238  25.976  30.660   8.960
 1743POPC   C1A25239  26.223  30.757   8.554
 1743POPC   D2A25240  25.925  30.748   8.306
 1743POPC   C3A25241  26.117  30.903   7.945
 1743POPC   C4A25242  26.050  30.750   7.523
 1743POPC   C1B25243  25.755  30.290   8.813
 1743POPC   C2B25244  25.518  30.319   8.434
 1743POPC   C3B25245  25.609  30.183   8.037
 1743POPC   C4B25246  25.697  30.339   7.627
 1744POPC   NC325247  14.257  30.259   9.293
 1744POPC   PO425248  14.634  29.748   9.507
 1744POPC   GL125249  14.465  29.678   9.126
 1744POPC   GL225250  14.556  29.990   8.977
 1744POPC   C1A25251  14.498  29.546   8.694
 1744POPC   D2A25252  14.253  29.561   8.302
 1744POPC   C3A25253  14.505  29.546   7.979
 1744POPC   C4A25254  14.715  29.876   7.771
 1744POPC   C1B25255  14.219  29.969   8.650
 1744POPC   C2B25256  14.208  30.084   8.203
 1744POPC   C3B25257  14.198  29.910   7.769
 1744POPC   C4B25258  14.133  29.806   7.331
 1745POPC   NC325259   8.787  30.285   9.368
 1745POPC   PO425260   9.433  30.470   9.561
 1745POPC   GL125261   9.185  30.599   9.210
 1745POPC   GL225262   8.937  30.870   9.284
 1745POPC   C1A25263   9.125  30.433   8.811
 1745POPC   D2A25264   8.919  30.488   8.442
 1745POPC   C3A25265   9.203  30.437   8.125
 1745POPC   C4A25266   9.141  30.633   7.754
 1745POPC   C1B25267   8.820  30.859   8.854
 1745POPC   C2B25268   8.754  30.993   8.455
 1745POPC   C3B25269   8.775  30.845   8.073
 1745POPC   C4B25270   8.649  31.019   7.710
 1746POPC   NC325271   0.732  20.511   9.543
 1746POPC   PO425272   0.161  20.847   9.560
 1746POPC   GL125273   0.338  20.656   9.206
 1746POPC   GL225274   0.667  20.754   9.077
 1746POPC   C1A25275   0.199  20.429   8.845
 1746POPC   D2A25276   0.409  20.258   8.505
 1746POPC   C3A25277   0.269  20.309   8.087
 1746POPC   C4A25278   0.485  20.544   7.763
 1746POPC   C1B25279   0.308  20.936   8.781
 1746POPC   C2B25280   0.118  20.769   8.402
 1746POPC   C3B25281   0.108  20.874   7.962
 1746POPC   C4B25282   0.202  21.158   7.618
 1747POPC   NC325283  11.501  14.654   9.479
 1747POPC   PO425284  11.152  14.057   9.452
 1747POPC   GL125285  11.334  14.263   9.093
 1747POPC   GL225286  11.225  14.590   9.057
 1747POPC   C1A25287  11.224  14.317   8.647
 1747POPC   D2A25288  11.163  14.474   8.269
 1747POPC   C3A25289  11.378  14.216   8.027
 1747POPC   C4A25290  11.305  14.005   7.692
 1747POPC   C1B25291  11.443  14.797   8.697
 1747POPC   C2B25292  11.389  14.952   8.262
 1747POPC   C3B25293  11.418  14.704   7.882
 1747POPC   C4B25294  11.031  14.461   7.748
 1748POPC   NC325295  23.943  36.300   9.455
 1748POPC   PO425296  24.107  37.003   9.616
 1748POPC   GL125297  23.862  37.038   9.163
 1748POPC   GL225298  23.526  37.233   9.102
 1748POPC   C1A25299  23.765  37.020   8.698
 1748POPC   D2A25300  23.542  36.820   8.334
 1748POPC   C3A25301  23.775  36.721   7.956
 1748POPC   C4A25302  23.594  36.768   7.555
 1748POPC   C1B25303  23.270  37.143   8.675
 1748POPC   C2B25304  23.103  37.124   8.214
 1748POPC   C3B25305  23.148  36.830   7.830
 1748POPC   C4B25306  23.133  36.578   7.433
 1749POPC   NC325307  40.370  15.048   9.585
 1749POPC   PO425308  39.873  15.522   9.495
 1749POPC   GL125309  39.845  15.255   9.177
 1749POPC   GL225310  40.207  15.288   9.155
 1749POPC   C1A25311  39.926  15.165   8.736
 1749POPC   D2A25312  40.056  15.399   8.347
 1749POPC   C3A25313  39.807  15.356   7.937
 1749POPC   C4A25314  39.737  14.940   7.696
 1749POPC   C1B25315  40.442  15.098   8.820
 1749POPC   C2B25316  40.420  15.030   8.382
 1749POPC   C3B25317  40.228  15.066   7.977
 1749POPC   C4B25318  40.412  14.999   7.582
 1750POPC   NC325319  37.847   7.950   9.431
 1750POPC   PO425320  37.458   8.493   9.599
 1750POPC   GL125321  37.573   8.312   9.201
 1750POPC   GL225322  37.921   8.384   9.139
 1750POPC   C1A25323  37.522   8.080   8.817
 1750POPC   D2A25324  37.599   8.041   8.412
 1750POPC   C3A25325  37.557   8.162   8.004
 1750POPC   C4A25326  37.565   8.436   7.628
 1750POPC   C1B25327  37.723   8.551   8.766
 1750POPC   C2B25328  37.831   8.516   8.346
 1750POPC   C3B25329  37.931   8.532   7.964
 1750POPC   C4B25330  38.223   8.775   7.760
 1751POPC   NC325331  27.793  44.144   9.458
 1751POPC   PO425332  27.337  43.730   9.237
 1751POPC   GL125333  27.509  43.977   8.983
 1751POPC   GL225334  27.838  43.891   8.996
 1751POPC   C1A25335  27.565  43.789   8.575
 1751POPC   D2A25336  27.831  43.817   8.247
 1751POPC   C3A25337  27.572  43.768   7.901
 1751POPC   C4A25338  27.159  43.642   7.780
 1751POPC   C1B25339  27.876  44.185   8.619
 1751POPC   C2B25340  27.941  44.419   8.248
 1751POPC   C3B25341  27.957  44.144   7.887
 1751POPC   C4B25342  27.943  43.775   7.577
 1752POPC   NC325343  25.619  29.943   9.600
 1752POPC   PO425344  24.929  29.843   9.643
 1752POPC   GL125345  25.244  29.875   9.252
 1752POPC   GL225346  25.606  29.777   9.126
 1752POPC   C1A25347  25.254  30.073   8.822
 1752POPC   D2A25348  25.220  29.883   8.406
 1752POPC   C3A25349  25.044  30.037   8.019
 1752POPC   C4A25350  25.302  30.014   7.653
 1752POPC   C1B25351  25.377  29.574   8.808
 1752POPC   C2B25352  25.466  29.421   8.393
 1752POPC   C3B25353  25.477  29.672   8.018
 1752POPC   C4B25354  25.600  29.608   7.613
 1753POPC   NC325355   8.946   9.081   9.363
 1753POPC   PO425356   9.261   8.557   9.621
 1753POPC   GL125357   9.239   8.783   9.086
 1753POPC   GL225358   8.927   8.727   8.862
 1753POPC   C1A25359   9.059   9.178   8.750
 1753POPC   D2A25360   8.986   9.431   8.348
 1753POPC   C3A25361   9.053   9.288   7.926
 1753POPC   C4A25362   8.699   9.275   7.645
 1753POPC   C1B25363   9.205   8.720   8.554
 1753POPC   C2B25364   8.965   8.909   8.256
 1753POPC   C3B25365   8.885   8.806   7.841
 1753POPC   C4B25366   9.209   8.601   7.623
 1754POPC   NC325367   6.405  23.333   9.287
 1754POPC   PO425368   6.881  23.772   9.453
 1754POPC   GL125369   6.640  23.740   9.111
 1754POPC   GL225370   6.331  23.870   9.044
 1754POPC   C1A25371   6.701  23.583   8.704
 1754POPC   D2A25372   6.966  23.761   8.410
 1754POPC   C3A25373   6.854  23.883   8.035
 1754POPC   C4A25374   7.157  23.962   7.745
 1754POPC   C1B25375   6.185  23.633   8.706
 1754POPC   C2B25376   6.041  23.715   8.296
 1754POPC   C3B25377   6.306  23.852   7.970
 1754POPC   C4B25378   6.553  23.701   7.667
 1755POPC   NC325379   6.182   1.753   9.481
 1755POPC   PO425380   5.579   2.132   9.458
 1755POPC   GL125381   5.628   2.050   9.065
 1755POPC   GL225382   5.916   1.794   9.036
 1755POPC   C1A25383   5.586   1.957   8.667
 1755POPC   D2A25384   5.746   1.866   8.307
 1755POPC   C3A25385   5.619   2.173   8.011
 1755POPC   C4A25386   5.662   1.982   7.620
 1755POPC   C1B25387   6.042   2.111   8.711
 1755POPC   C2B25388   6.071   2.264   8.284
 1755POPC   C3B25389   6.097   1.993   7.912
 1755POPC   C4B25390   6.202   2.079   7.442
 1756POPC   NC325391   4.579  25.844   9.485
 1756POPC   PO425392   3.983  26.160   9.522
 1756POPC   GL125393   4.235  26.116   9.158
 1756POPC   GL225394   4.591  26.221   9.150
 1756POPC   C1A25395   4.318  25.852   8.816
 1756POPC   D2A25396   4.164  25.918   8.433
 1756POPC   C3A25397   4.272  25.796   8.067
 1756POPC   C4A25398   4.348  26.031   7.727
 1756POPC   C1B25399   4.553  26.333   8.712
 1756POPC   C2B25400   4.465  26.303   8.279
 1756POPC   C3B25401   4.701  26.430   7.940
 1756POPC   C4B25402   4.792  26.229   7.549
 1757POPC   NC325403  29.170   6.538   9.727
 1757POPC   PO425404  29.622   6.897   9.533
 1757POPC   GL125405  29.306   6.892   9.152
 1757POPC   GL225406  28.930   6.789   9.184
 1757POPC   C1A25407  29.312   6.826   8.681
 1757POPC   D2A25408  29.098   6.704   8.289
 1757POPC   C3A25409  29.314   6.605   7.885
 1757POPC   C4A25410  29.244   6.765   7.468
 1757POPC   C1B25411  28.840   6.592   8.765
 1757POPC   C2B25412  28.642   6.460   8.354
 1757POPC   C3B25413  28.835   6.381   7.937
 1757POPC   C4B25414  28.896   6.360   7.459
 1758POPC   NC325415  24.013  30.941   9.514
 1758POPC   PO425416  23.691  31.582   9.539
 1758POPC   GL125417  23.685  31.342   9.194
 1758POPC   GL225418  23.562  31.602   9.001
 1758POPC   C1A25419  23.577  31.041   8.891
 1758POPC   D2A25420  23.543  30.910   8.456
 1758POPC   C3A25421  23.898  30.975   8.179
 1758POPC   C4A25422  23.858  31.296   7.862
 1758POPC   C1B25423  23.820  31.461   8.638
 1758POPC   C2B25424  24.031  31.667   8.259
 1758POPC   C3B25425  23.983  31.778   7.773
 1758POPC   C4B25426  23.538  31.935   7.649
 1759POPC   NC325427  27.928  32.397   9.476
 1759POPC   PO425428  28.430  32.238   9.887
 1759POPC   GL125429  28.368  32.128   9.379
 1759POPC   GL225430  28.060  32.074   9.125
 1759POPC   C1A25431  28.490  32.273   8.927
 1759POPC   D2A25432  28.705  32.181   8.511
 1759POPC   C3A25433  28.473  32.206   8.122
 1759POPC   C4A25434  28.529  32.109   7.682
 1759POPC   C1B25435  27.864  32.063   8.699
 1759POPC   C2B25436  27.990  32.219   8.325
 1759POPC   C3B25437  28.019  32.153   7.899
 1759POPC   C4B25438  28.163  32.448   7.570
 1760POPC   NC325439  16.560  19.736   9.407
 1760POPC   PO425440  17.165  19.891   9.512
 1760POPC   GL125441  16.928  20.039   9.134
 1760POPC   GL225442  16.622  20.239   9.224
 1760POPC   C1A25443  16.735  19.822   8.781
 1760POPC   D2A25444  16.601  19.621   8.398
 1760POPC   C3A25445  16.822  19.743   8.019
 1760POPC   C4A25446  16.634  19.797   7.628
 1760POPC   C1B25447  16.564  20.317   8.793
 1760POPC   C2B25448  16.698  20.157   8.382
 1760POPC   C3B25449  16.498  20.157   7.991
 1760POPC   C4B25450  16.720  20.293   7.629
 1761POPC   NC325451  19.423  22.176   9.314
 1761POPC   PO425452  19.975  21.969   9.579
 1761POPC   GL125453  19.857  22.039   9.075
 1761POPC   GL225454  19.609  22.364   8.885
 1761POPC   C1A25455  19.728  21.968   8.635
 1761POPC   D2A25456  19.528  22.251   8.372
 1761POPC   C3A25457  19.720  22.254   7.958
 1761POPC   C4A25458  19.519  22.043   7.586
 1761POPC   C1B25459  20.007  22.439   8.701
 1761POPC   C2B25460  20.195  22.394   8.308
 1761POPC   C3B25461  20.149  22.519   7.867
 1761POPC   C4B25462  19.982  22.277   7.498
 1762POPC   NC325463   1.284   0.109   9.424
 1762POPC   PO425464   0.897   0.547   9.712
 1762POPC   GL125465   0.997   0.459   9.230
 1762POPC   GL225466   1.314   0.565   9.117
 1762POPC   C1A25467   1.051   0.282   8.783
 1762POPC   D2A25468   1.085   0.548   8.416
 1762POPC   C3A25469   1.144   0.445   7.987
 1762POPC   C4A25470   0.981   0.644   7.617
 1762POPC   C1B25471   1.519   0.594   8.706
 1762POPC   C2B25472   1.546   0.749   8.271
 1762POPC   C3B25473   1.481   0.799   7.818
 1762POPC   C4B25474   1.660   0.884   7.402
 1763POPC   NC325475  24.103   4.517   9.446
 1763POPC   PO425476  23.475   4.440   9.459
 1763POPC   GL125477  23.650   4.249   9.083
 1763POPC   GL225478  24.020   4.258   9.023
 1763POPC   C1A25479  23.683   4.099   8.685
 1763POPC   D2A25480  23.815   4.274   8.338
 1763POPC   C3A25481  23.589   4.138   8.030
 1763POPC   C4A25482  23.707   4.140   7.624
 1763POPC   C1B25483  24.077   4.577   8.686
 1763POPC   C2B25484  24.113   4.682   8.245
 1763POPC   C3B25485  24.087   4.416   7.889
 1763POPC   C4B25486  24.026   4.545   7.427
 1764POPC   NC325487  34.037  36.756   9.361
 1764POPC   PO425488  33.469  37.151   9.506
 1764POPC   GL125489  33.707  37.040   9.109
 1764POPC   GL225490  33.948  37.262   9.111
 1764POPC   C1A25491  33.837  36.828   8.673
 1764POPC   D2A25492  33.792  36.510   8.286
 1764POPC   C3A25493  33.613  36.595   7.838
 1764POPC   C4A25494  33.846  36.746   7.454
 1764POPC   C1B25495  33.932  37.440   8.740
 1764POPC   C2B25496  33.957  37.241   8.363
 1764POPC   C3B25497  33.936  36.946   8.032
 1764POPC   C4B25498  33.691  37.132   7.751
 1765POPC   NC325499   8.843   4.707   9.665
 1765POPC   PO425500   9.228   5.242   9.497
 1765POPC   GL125501   9.208   5.011   9.151
 1765POPC   GL225502   8.871   4.982   9.179
 1765POPC   C1A25503   9.351   5.075   8.727
 1765POPC   D2A25504   9.315   4.886   8.315
 1765POPC   C3A25505   9.227   5.174   7.957
 1765POPC   C4A25506   9.124   5.163   7.494
 1765POPC   C1B25507   8.840   5.142   8.747
 1765POPC   C2B25508   8.837   5.144   8.292
 1765POPC   C3B25509   8.799   4.914   7.880
 1765POPC   C4B25510   8.596   5.085   7.489
 1766POPC   NC325511  22.266   9.105   9.485
 1766POPC   PO425512  21.649   9.116   9.746
 1766POPC   GL125513  21.800   9.002   9.323
 1766POPC   GL225514  21.900   8.685   9.262
 1766POPC   C1A25515  21.979   9.006   8.889
 1766POPC   D2A25516  22.187   9.130   8.543
 1766POPC   C3A25517  22.219   8.959   8.180
 1766POPC   C4A25518  22.250   8.977   7.739
 1766POPC   C1B25519  21.830   8.518   8.812
 1766POPC   C2B25520  21.759   8.734   8.401
 1766POPC   C3B25521  21.863   8.700   7.942
 1766POPC   C4B25522  21.845   8.664   7.476
 1767POPC   NC325523   4.334  36.870   9.670
 1767POPC   PO425524   3.798  37.131   9.322
 1767POPC   GL125525   4.117  36.807   9.184
 1767POPC   GL225526   4.456  36.882   9.149
 1767POPC   C1A25527   4.218  36.641   8.786
 1767POPC   D2A25528   4.215  36.825   8.378
 1767POPC   C3A25529   4.186  36.635   8.010
 1767POPC   C4A25530   3.940  36.914   7.801
 1767POPC   C1B25531   4.435  37.103   8.736
 1767POPC   C2B25532   4.648  37.151   8.321
 1767POPC   C3B25533   4.655  37.151   7.869
 1767POPC   C4B25534   4.579  36.785   7.707
 1768POPC   NC325535  28.246  38.389   9.660
 1768POPC   PO425536  28.600  38.888   9.466
 1768POPC   GL125537  28.332  38.609   9.190
 1768POPC   GL225538  28.070  38.318   9.187
 1768POPC   C1A25539  28.543  38.311   8.900
 1768POPC   D2A25540  28.583  38.241   8.447
 1768POPC   C3A25541  28.563  38.567   8.122
 1768POPC   C4A25542  28.495  38.370   7.747
 1768POPC   C1B25543  28.059  38.197   8.751
 1768POPC   C2B25544  28.093  38.377   8.332
 1768POPC   C3B25545  28.032  38.503   7.909
 1768POPC   C4B25546  27.821  38.462   7.515
 1769POPC   NC325547  37.867  23.407   9.197
 1769POPC   PO425548  37.536  23.942   9.465
 1769POPC   GL125549  37.641  23.867   9.050
 1769POPC   GL225550  37.964  23.950   9.145
 1769POPC   C1A25551  37.604  23.641   8.648
 1769POPC   D2A25552  37.826  23.474   8.291
 1769POPC   C3A25553  37.661  23.553   7.890
 1769POPC   C4A25554  37.564  23.925   7.739
 1769POPC   C1B25555  38.076  23.919   8.738
 1769POPC   C2B25556  38.220  23.825   8.340
 1769POPC   C3B25557  38.037  23.875   7.960
 1769POPC   C4B25558  38.041  24.037   7.521
 1770POPC   NC325559  40.069  14.213   9.529
 1770POPC   PO425560  39.866  14.894   9.551
 1770POPC   GL125561  39.913  14.648   9.182
 1770POPC   GL225562  40.216  14.446   9.118
 1770POPC   C1A25563  39.768  14.650   8.762
 1770POPC   D2A25564  39.943  14.796   8.369
 1770POPC   C3A25565  39.764  14.594   8.044
 1770POPC   C4A25566  39.889  14.439   7.628
 1770POPC   C1B25567  40.279  14.633   8.752
 1770POPC   C2B25568  40.396  14.528   8.366
 1770POPC   C3B25569  40.298  14.568   7.918
 1770POPC   C4B25570  40.453  14.506   7.476
 1771POPC   NC325571   5.307   1.748   9.414
 1771POPC   PO425572   4.897   2.220   9.471
 1771POPC   GL125573   5.025   2.020   9.105
 1771POPC   GL225574   4.788   2.124   8.901
 1771POPC   C1A25575   5.127   1.793   8.734
 1771POPC   D2A25576   5.220   1.989   8.327
 1771POPC   C3A25577   5.355   1.710   8.007
 1771POPC   C4A25578   5.123   1.635   7.656
 1771POPC   C1B25579   4.763   2.387   8.615
 1771POPC   C2B25580   4.833   2.309   8.228
 1771POPC   C3B25581   4.611   2.229   7.889
 1771POPC   C4B25582   4.727   1.972   7.522
 1772POPC   NC325583  33.791  41.357   9.435
 1772POPC   PO425584  33.975  41.960   9.733
 1772POPC   GL125585  33.964  41.819   9.207
 1772POPC   GL225586  33.627  41.706   9.118
 1772POPC   C1A25587  33.987  41.535   8.760
 1772POPC   D2A25588  34.082  41.302   8.327
 1772POPC   C3A25589  33.825  41.388   7.949
 1772POPC   C4A25590  33.640  41.165   7.580
 1772POPC   C1B25591  33.480  41.639   8.715
 1772POPC   C2B25592  33.681  41.693   8.345
 1772POPC   C3B25593  33.463  41.726   7.971
 1772POPC   C4B25594  33.635  41.681   7.553
 1773POPC   NC325595  31.303  36.503   9.383
 1773POPC   PO425596  31.820  36.174   9.740
 1773POPC   GL125597  31.664  36.105   9.280
 1773POPC   GL225598  31.377  36.081   9.091
 1773POPC   C1A25599  31.777  36.081   8.787
 1773POPC   D2A25600  31.797  36.243   8.345
 1773POPC   C3A25601  31.714  36.052   7.938
 1773POPC   C4A25602  31.574  36.134   7.542
 1773POPC   C1B25603  31.317  36.277   8.677
 1773POPC   C2B25604  31.059  36.370   8.327
 1773POPC   C3B25605  31.264  36.376   7.920
 1773POPC   C4B25606  31.091  36.017   7.680
 1774POPC   NC325607   7.243  34.223   9.524
 1774POPC   PO425608   7.677  33.763   9.571
 1774POPC   GL125609   7.592  33.685   9.164
 1774POPC   GL225610   7.401  33.952   9.128
 1774POPC   C1A25611   7.603  33.714   8.726
 1774POPC   D2A25612   7.507  33.884   8.360
 1774POPC   C3A25613   7.819  33.839   8.060
 1774POPC   C4A25614   7.664  33.785   7.644
 1774POPC   C1B25615   7.187  34.069   8.753
 1774POPC   C2B25616   6.976  33.927   8.364
 1774POPC   C3B25617   7.069  33.965   7.933
 1774POPC   C4B25618   7.187  33.863   7.483
 1775POPC   NC325619  16.874  27.982   9.779
 1775POPC   PO425620  16.462  27.502   9.503
 1775POPC   GL125621  16.795  27.608   9.254
 1775POPC   GL225622  16.590  27.866   9.138
 1775POPC   C1A25623  17.062  27.541   8.885
 1775POPC   D2A25624  17.088  27.806   8.505
 1775POPC   C3A25625  16.881  27.672   8.123
 1775POPC   C4A25626  16.822  27.596   7.713
 1775POPC   C1B25627  16.625  27.786   8.721
 1775POPC   C2B25628  16.590  28.013   8.356
 1775POPC   C3B25629  16.337  27.877   8.027
 1775POPC   C4B25630  16.386  27.828   7.563
 1776POPC   NC325631  34.420  16.262   9.494
 1776POPC   PO425632  34.918  15.827   9.481
 1776POPC   GL125633  34.713  15.734   9.082
 1776POPC   GL225634  34.643  16.057   9.091
 1776POPC   C1A25635  34.483  15.781   8.699
 1776POPC   D2A25636  34.682  15.781   8.312
 1776POPC   C3A25637  34.441  15.862   7.990
 1776POPC   C4A25638  34.412  15.685   7.611
 1776POPC   C1B25639  34.834  16.237   8.753
 1776POPC   C2B25640  34.991  16.173   8.353
 1776POPC   C3B25641  34.764  16.301   8.000
 1776POPC   C4B25642  34.691  16.116   7.614
 1777POPC   NC325643  11.201  38.273   9.635
 1777POPC   PO425644  11.761  38.302   9.782
 1777POPC   GL125645  11.532  38.430   9.303
 1777POPC   GL225646  11.435  38.118   9.164
 1777POPC   C1A25647  11.403  38.481   8.819
 1777POPC   D2A25648  11.277  38.706   8.424
 1777POPC   C3A25649  11.356  38.556   7.985
 1777POPC   C4A25650  11.363  38.651   7.530
 1777POPC   C1B25651  11.223  38.023   8.763
 1777POPC   C2B25652  11.336  38.178   8.354
 1777POPC   C3B25653  11.143  38.046   7.957
 1777POPC   C4B25654  11.344  38.157   7.616
 1778POPC   NC325655  42.986   8.428   9.422
 1778POPC   PO425656  43.190   7.792   9.499
 1778POPC   GL125657  43.125   7.958   9.087
 1778POPC   GL225658  43.340   8.228   9.122
 1778POPC   C1A25659  42.899   7.953   8.684
 1778POPC   D2A25660  43.055   8.097   8.289
 1778POPC   C3A25661  42.858   8.241   7.922
 1778POPC   C4A25662  43.230   8.102   7.755
 1778POPC   C1B25663  43.224   8.375   8.724
 1778POPC   C2B25664  43.479   8.398   8.364
 1778POPC   C3B25665  43.391   8.525   7.962
 1778POPC   C4B25666  43.009   8.730   7.811
 1779POPC   NC325667  36.297  22.833   9.514
 1779POPC   PO425668  35.703  22.738   9.300
 1779POPC   GL125669  36.049  22.951   9.060
 1779POPC   GL225670  36.129  23.288   9.223
 1779POPC   C1A25671  36.326  22.869   8.684
 1779POPC   D2A25672  36.523  23.117   8.331
 1779POPC   C3A25673  36.474  22.958   7.905
 1779POPC   C4A25674  36.370  22.659   7.587
 1779POPC   C1B25675  36.327  23.363   8.818
 1779POPC   C2B25676  36.052  23.268   8.470
 1779POPC   C3B25677  36.113  23.299   8.023
 1779POPC   C4B25678  35.968  22.955   7.753
 1780POPC   NC325679   3.251  32.957   9.421
 1780POPC   PO425680   3.717  32.542   9.523
 1780POPC   GL125681   3.655  32.721   9.143
 1780POPC   GL225682   3.636  33.096   9.119
 1780POPC   C1A25683   3.587  32.759   8.720
 1780POPC   D2A25684   3.619  33.025   8.416
 1780POPC   C3A25685   3.726  32.866   8.058
 1780POPC   C4A25686   3.857  33.096   7.750
 1780POPC   C1B25687   3.298  33.172   8.820
 1780POPC   C2B25688   3.117  33.023   8.485
 1780POPC   C3B25689   3.171  33.118   8.082
 1780POPC   C4B25690   3.344  33.053   7.691
 1781POPC   NC325691  42.268  13.424   9.473
 1781POPC   PO425692  41.863  13.864   9.196
 1781POPC   GL125693  42.121  13.595   9.021
 1781POPC   GL225694  42.467  13.691   9.081
 1781POPC   C1A25695  42.299  13.359   8.716
 1781POPC   D2A25696  42.431  13.512   8.350
 1781POPC   C3A25697  42.219  13.472   7.982
 1781POPC   C4A25698  42.517  13.558   7.651
 1781POPC   C1B25699  42.721  13.720   8.737
 1781POPC   C2B25700  42.738  13.959   8.415
 1781POPC   C3B25701  42.602  13.884   8.035
 1781POPC   C4B25702  42.664  14.054   7.667
 1782POPC   NC325703   7.885   3.993   9.410
 1782POPC   PO425704   8.252   3.441   9.628
 1782POPC   GL125705   8.097   3.549   9.224
 1782POPC   GL225706   8.392   3.779   9.157
 1782POPC   C1A25707   8.053   3.613   8.770
 1782POPC   D2A25708   8.293   3.584   8.369
 1782POPC   C3A25709   8.206   3.862   8.021
 1782POPC   C4A25710   8.041   3.831   7.590
 1782POPC   C1B25711   8.497   3.364   8.952
 1782POPC   C2B25712   8.695   3.282   8.531
 1782POPC   C3B25713   8.626   3.288   8.101
 1782POPC   C4B25714   8.570   3.081   7.714
 1783POPC   NC325715  11.186   3.815   9.523
 1783POPC   PO425716  11.255   3.154   9.541
 1783POPC   GL125717  11.296   3.407   9.165
 1783POPC   GL225718  11.575   3.674   9.196
 1783POPC   C1A25719  11.491   3.389   8.750
 1783POPC   D2A25720  11.306   3.571   8.361
 1783POPC   C3A25721  11.262   3.367   7.932
 1783POPC   C4A25722  11.496   3.522   7.558
 1783POPC   C1B25723  11.563   3.886   8.784
 1783POPC   C2B25724  11.749   3.826   8.361
 1783POPC   C3B25725  11.571   3.810   7.979
 1783POPC   C4B25726  11.145   3.902   7.927
 1784POPC   NC325727  42.500  19.113   9.398
 1784POPC   PO425728  41.967  18.656   9.376
 1784POPC   GL125729  42.196  18.860   9.064
 1784POPC   GL225730  42.474  18.659   9.143
 1784POPC   C1A25731  42.341  19.203   8.748
 1784POPC   D2A25732  42.513  19.254   8.321
 1784POPC   C3A25733  42.269  19.185   7.932
 1784POPC   C4A25734  42.082  19.461   7.608
 1784POPC   C1B25735  42.572  18.743   8.734
 1784POPC   C2B25736  42.476  18.741   8.314
 1784POPC   C3B25737  42.681  18.871   7.950
 1784POPC   C4B25738  42.503  18.945   7.543
 1785POPC   NC325739  13.259  26.387   9.489
 1785POPC   PO425740  13.938  26.047   9.477
 1785POPC   GL125741  13.760  26.204   9.146
 1785POPC   GL225742  13.463  26.093   9.115
 1785POPC   C1A25743  13.827  25.989   8.753
 1785POPC   D2A25744  13.690  25.808   8.354
 1785POPC   C3A25745  13.868  25.989   7.966
 1785POPC   C4A25746  13.894  25.861   7.519
 1785POPC   C1B25747  13.328  25.857   8.758
 1785POPC   C2B25748  13.159  25.911   8.345
 1785POPC   C3B25749  13.339  25.966   7.936
 1785POPC   C4B25750  13.164  26.153   7.548
 1786POPC   NC325751  21.739  15.538   9.530
 1786POPC   PO425752  21.416  15.018   9.442
 1786POPC   GL125753  21.655  15.228   9.112
 1786POPC   GL225754  21.666  15.594   9.037
 1786POPC   C1A25755  21.713  15.191   8.675
 1786POPC   D2A25756  21.365  15.154   8.376
 1786POPC   C3A25757  21.502  15.147   7.947
 1786POPC   C4A25758  21.848  14.995   7.700
 1786POPC   C1B25759  21.448  15.625   8.651
 1786POPC   C2B25760  21.531  15.602   8.213
 1786POPC   C3B25761  21.264  15.603   7.869
 1786POPC   C4B25762  21.002  15.244   7.721
 1787POPC   NC325763   5.833  11.633   9.728
 1787POPC   PO425764   6.036  12.256   9.570
 1787POPC   GL125765   6.065  12.101   9.196
 1787POPC   GL225766   5.769  11.949   9.193
 1787POPC   C1A25767   6.024  12.048   8.756
 1787POPC   D2A25768   5.812  12.322   8.425
 1787POPC   C3A25769   5.990  12.333   7.999
 1787POPC   C4A25770   6.140  12.114   7.610
 1787POPC   C1B25771   5.487  12.040   8.863
 1787POPC   C2B25772   5.371  12.053   8.427
 1787POPC   C3B25773   5.557  12.047   8.021
 1787POPC   C4B25774   5.524  12.107   7.596
 1788POPC   NC325775   6.720  13.977   9.451
 1788POPC   PO425776   6.192  14.450   9.388
 1788POPC   GL125777   6.372  14.272   9.047
 1788POPC   GL225778   6.310  13.922   9.069
 1788POPC   C1A25779   6.437  14.495   8.645
 1788POPC   D2A25780   6.228  14.799   8.331
 1788POPC   C3A25781   6.434  14.810   7.938
 1788POPC   C4A25782   6.747  14.503   7.766
 1788POPC   C1B25783   6.440  13.978   8.633
 1788POPC   C2B25784   6.594  14.210   8.223
 1788POPC   C3B25785   6.676  14.004   7.780
 1788POPC   C4B25786   6.524  14.123   7.341
 1789POPC   NC325787  32.049  13.048   9.450
 1789POPC   PO425788  32.367  12.455   9.611
 1789POPC   GL125789  32.209  12.638   9.188
 1789POPC   GL225790  32.370  12.960   9.054
 1789POPC   C1A25791  31.977  12.734   8.798
 1789POPC   D2A25792  32.205  12.899   8.485
 1789POPC   C3A25793  32.171  12.707   8.102
 1789POPC   C4A25794  32.121  12.622   7.684
 1789POPC   C1B25795  32.668  12.820   8.745
 1789POPC   C2B25796  32.687  12.920   8.309
 1789POPC   C3B25797  32.466  13.109   8.007
 1789POPC   C4B25798  32.574  12.770   7.770
 1790POPC   NC325799  42.295  42.011   9.452
 1790POPC   PO425800  42.168  41.384   9.503
 1790POPC   GL125801  42.340  41.622   9.118
 1790POPC   GL225802  42.192  41.945   8.940
 1790POPC   C1A25803  42.497  41.567   8.698
 1790POPC   D2A25804  42.638  41.422   8.285
 1790POPC   C3A25805  42.616  41.523   7.824
 1790POPC   C4A25806  42.810  41.831   7.547
 1790POPC   C1B25807  41.987  41.540   8.763
 1790POPC   C2B25808  42.071  41.433   8.376
 1790POPC   C3B25809  42.162  41.731   8.079
 1790POPC   C4B25810  42.106  41.702   7.666
 1791POPC   NC325811  42.384   1.558   9.504
 1791POPC   PO425812  42.530   2.217   9.349
 1791POPC   GL125813  42.392   1.997   8.999
 1791POPC   GL225814  42.549   1.680   9.033
 1791POPC   C1A25815  42.430   2.174   8.574
 1791POPC   D2A25816  42.710   2.308   8.239
 1791POPC   C3A25817  42.465   2.161   7.878
 1791POPC   C4A25818  42.000   2.130   7.990
 1791POPC   C1B25819  42.460   1.661   8.593
 1791POPC   C2B25820  42.446   1.700   8.139
 1791POPC   C3B25821  42.599   1.673   7.722
 1791POPC   C4B25822  42.583   1.899   7.309
 1792POPC   NC325823  43.500  18.401   9.382
 1792POPC   PO425824  44.112  18.096   9.547
 1792POPC   GL125825  43.998  18.321   9.199
 1792POPC   GL225826  44.237  18.595   9.107
 1792POPC   C1A25827  43.841  18.113   8.808
 1792POPC   D2A25828  43.767  18.018   8.362
 1792POPC   C3A25829  43.629  18.372   8.095
 1792POPC   C4A25830  43.903  18.511   7.809
 1792POPC   C1B25831  44.386  18.208   8.888
 1792POPC   C2B25832  44.267  18.012   8.496
 1792POPC   C3B25833  44.237  18.156   8.066
 1792POPC   C4B25834  44.264  17.964   7.638
 1793POPC   NC325835  38.805  18.741   9.503
 1793POPC   PO425836  39.448  18.976   9.555
 1793POPC   GL125837  39.215  18.990   9.205
 1793POPC   GL225838  39.483  19.128   9.033
 1793POPC   C1A25839  39.105  18.872   8.776
 1793POPC   D2A25840  38.940  19.098   8.408
 1793POPC   C3A25841  38.990  18.977   7.993
 1793POPC   C4A25842  39.154  19.218   7.681
 1793POPC   C1B25843  39.497  19.164   8.596
 1793POPC   C2B25844  39.416  19.235   8.165
 1793POPC   C3B25845  39.664  19.207   7.807
 1793POPC   C4B25846  39.635  19.002   7.404
 1794POPC   NC325847   1.708  20.475   9.327
 1794POPC   PO425848   1.167  20.380   9.591
 1794POPC   GL125849   1.132  20.455   9.166
 1794POPC   GL225850   1.334  20.759   9.128
 1794POPC   C1A25851   1.320  20.396   8.753
 1794POPC   D2A25852   1.526  20.527   8.349
 1794POPC   C3A25853   1.333  20.332   7.975
 1794POPC   C4A25854   1.006  20.406   7.649
 1794POPC   C1B25855   1.653  20.812   8.779
 1794POPC   C2B25856   1.714  21.022   8.399
 1794POPC   C3B25857   1.597  20.908   7.990
 1794POPC   C4B25858   1.344  20.788   7.644
 1795POPC   NC325859  37.076  40.542   9.222
 1795POPC   PO425860  36.688  41.025   9.433
 1795POPC   GL125861  36.756  40.872   9.013
 1795POPC   GL225862  36.595  40.551   9.024
 1795POPC   C1A25863  37.013  40.769   8.629
 1795POPC   D2A25864  36.804  40.798   8.225
 1795POPC   C3A25865  37.011  40.910   7.886
 1795POPC   C4A25866  36.977  40.796   7.465
 1795POPC   C1B25867  36.543  40.596   8.607
 1795POPC   C2B25868  36.510  40.313   8.229
 1795POPC   C3B25869  36.374  40.478   7.847
 1795POPC   C4B25870  36.510  40.631   7.429
 1796POPC   NC325871  37.686  14.332   9.734
 1796POPC   PO425872  37.457  14.786   9.318
 1796POPC   GL125873  37.815  14.553   9.160
 1796POPC   GL225874  37.839  14.215   9.232
 1796POPC   C1A25875  37.737  14.403   8.753
 1796POPC   D2A25876  37.535  14.721   8.505
 1796POPC   C3A25877  37.556  14.621   8.079
 1796POPC   C4A25878  37.960  14.511   7.887
 1796POPC   C1B25879  37.585  13.929   8.965
 1796POPC   C2B25880  37.563  13.853   8.529
 1796POPC   C3B25881  37.738  14.085   8.161
 1796POPC   C4B25882  37.589  14.187   7.758
 1797POPC   NC325883  22.520  30.418   9.587
 1797POPC   PO425884  22.110  30.909   9.380
 1797POPC   GL125885  22.235  30.586   9.099
 1797POPC   GL225886  22.571  30.565   9.092
 1797POPC   C1A25887  22.059  30.612   8.688
 1797POPC   D2A25888  22.302  30.783   8.353
 1797POPC   C3A25889  22.019  30.700   8.019
 1797POPC   C4A25890  22.071  30.828   7.590
 1797POPC   C1B25891  22.438  30.289   8.717
 1797POPC   C2B25892  22.295  30.292   8.273
 1797POPC   C3B25893  22.474  30.527   7.892
 1797POPC   C4B25894  22.445  30.516   7.445
 1798POPC   NC325895  43.430  14.606   9.565
 1798POPC   PO425896  42.819  14.387   9.577
 1798POPC   GL125897  42.993  14.531   9.125
 1798POPC   GL225898  43.278  14.341   9.135
 1798POPC   C1A25899  43.078  14.759   8.642
 1798POPC   D2A25900  43.052  14.719   8.160
 1798POPC   C3A25901  43.358  14.595   7.875
 1798POPC   C4A25902  43.458  14.657   7.439
 1798POPC   C1B25903  43.080  14.270   8.703
 1798POPC   C2B25904  43.401  14.366   8.386
 1798POPC   C3B25905  43.446  14.119   8.022
 1798POPC   C4B25906  43.005  14.197   8.031
 1799POPC   NC325907  12.559  28.559   9.894
 1799POPC   PO425908  11.901  28.402   9.626
 1799POPC   GL125909  12.166  28.318   9.237
 1799POPC   GL225910  12.432  28.554   9.154
 1799POPC   C1A25911  12.021  28.271   8.792
 1799POPC   D2A25912  11.758  28.274   8.424
 1799POPC   C3A25913  11.979  28.360   8.057
 1799POPC   C4A25914  12.053  28.096   7.704
 1799POPC   C1B25915  12.250  28.719   8.773
 1799POPC   C2B25916  12.355  28.638   8.336
 1799POPC   C3B25917  12.253  28.777   7.912
 1799POPC   C4B25918  12.415  28.697   7.488
 1800POPC   NC325919  32.796  34.000   9.502
 1800POPC   PO425920  33.449  33.740   9.511
 1800POPC   GL125921  33.153  33.750   9.171
 1800POPC   GL225922  33.144  34.094   9.141
 1800POPC   C1A25923  33.059  33.761   8.701
 1800POPC   D2A25924  33.293  33.613   8.301
 1800POPC   C3A25925  33.156  33.699   7.858
 1800POPC   C4A25926  33.202  33.782   7.414
 1800POPC   C1B25927  32.823  34.214   8.862
 1800POPC   C2B25928  32.901  34.349   8.452
 1800POPC   C3B25929  32.956  34.132   8.069
 1800POPC   C4B25930  32.828  34.063   7.638
 1801POPC   NC325931  40.984  26.463   9.789
 1801POPC   PO425932  40.482  26.267   9.364
 1801POPC   GL125933  40.645  25.988   9.069
 1801POPC   GL225934  40.926  25.745   9.150
 1801POPC   C1A25935  40.792  26.060   8.676
 1801POPC   D2A25936  40.857  26.369   8.367
 1801POPC   C3A25937  40.728  26.242   7.968
 1801POPC   C4A25938  40.947  26.135   7.632
 1801POPC   C1B25939  41.230  25.792   8.797
 1801POPC   C2B25940  41.213  25.987   8.378
 1801POPC   C3B25941  41.177  25.802   7.980
 1801POPC   C4B25942  41.176  25.693   7.543
 1802POPC   NC325943  19.660  23.090   9.644
 1802POPC   PO425944  19.791  22.486   9.321
 1802POPC   GL125945  19.870  22.882   9.212
 1802POPC   GL225946  19.514  23.002   9.159
 1802POPC   C1A25947  20.133  23.068   8.891
 1802POPC   D2A25948  20.175  22.899   8.469
 1802POPC   C3A25949  20.332  23.023   8.074
 1802POPC   C4A25950  20.149  23.069   7.661
 1802POPC   C1B25951  19.674  22.861   8.741
 1802POPC   C2B25952  19.747  22.696   8.333
 1802POPC   C3B25953  19.812  22.899   7.989
 1802POPC   C4B25954  19.727  22.687   7.630
 1803POPC   NC325955  10.245  34.511   9.473
 1803POPC   PO425956  10.852  34.882   9.484
 1803POPC   GL125957  10.573  34.737   9.156
 1803POPC   GL225958  10.572  34.363   9.091
 1803POPC   C1A25959  10.453  34.741   8.736
 1803POPC   D2A25960  10.253  34.663   8.346
 1803POPC   C3A25961  10.548  34.890   8.112
 1803POPC   C4A25962  10.509  35.016   7.724
 1803POPC   C1B25963  10.335  34.253   8.694
 1803POPC   C2B25964  10.280  33.968   8.345
 1803POPC   C3B25965  10.335  34.118   7.941
 1803POPC   C4B25966  10.507  34.477   7.774
 1804POPC   NC325967   6.185   3.377   9.528
 1804POPC   PO425968   5.770   3.844   9.609
 1804POPC   GL125969   5.813   3.520   9.201
 1804POPC   GL225970   5.650   3.219   9.149
 1804POPC   C1A25971   5.930   3.474   8.719
 1804POPC   D2A25972   5.882   3.250   8.277
 1804POPC   C3A25973   5.963   3.374   7.824
 1804POPC   C4A25974   5.811   3.652   7.483
 1804POPC   C1B25975   5.636   3.045   8.701
 1804POPC   C2B25976   5.407   3.048   8.278
 1804POPC   C3B25977   5.469   3.238   7.817
 1804POPC   C4B25978   5.514   3.248   7.312
 1805POPC   NC325979   3.107  21.083   9.747
 1805POPC   PO425980   2.646  21.529   9.671
 1805POPC   GL125981   2.766  21.519   9.273
 1805POPC   GL225982   2.888  21.191   9.252
 1805POPC   C1A25983   2.642  21.600   8.856
 1805POPC   D2A25984   2.846  21.533   8.482
 1805POPC   C3A25985   2.663  21.409   8.129
 1805POPC   C4A25986   2.798  21.525   7.719
 1805POPC   C1B25987   2.940  21.161   8.817
 1805POPC   C2B25988   2.921  20.992   8.379
 1805POPC   C3B25989   3.017  21.091   7.923
 1805POPC   C4B25990   2.992  21.119   7.455
 1806POPC   NC325991  34.397   0.444   9.564
 1806POPC   PO425992  35.035   0.179   9.668
 1806POPC   GL125993  34.761   0.203   9.228
 1806POPC   GL225994  34.382   0.247   9.095
 1806POPC   C1A25995  34.740   0.341   8.764
 1806POPC   D2A25996  34.722   0.166   8.334
 1806POPC   C3A25997  34.706   0.419   7.975
 1806POPC   C4A25998  35.014   0.344   7.694
 1806POPC   C1B25999  34.242   0.217   8.687
 1806POPC   C2B26000  34.261   0.377   8.260
 1806POPC   C3B26001  34.208   0.475   7.858
 1806POPC   C4B26002  34.255   0.864   7.716
 1807POPC   NC326003   1.984   8.034   9.493
 1807POPC   PO426004   1.684   8.668   9.414
 1807POPC   GL126005   1.835   8.369   9.089
 1807POPC   GL226006   2.156   8.185   9.062
 1807POPC   C1A26007   1.859   8.149   8.668
 1807POPC   D2A26008   2.046   8.220   8.289
 1807POPC   C3A26009   1.948   8.046   7.910
 1807POPC   C4A26010   1.938   8.283   7.520
 1807POPC   C1B26011   2.365   8.088   8.706
 1807POPC   C2B26012   2.565   8.161   8.329
 1807POPC   C3B26013   2.436   8.001   7.928
 1807POPC   C4B26014   2.324   7.899   7.479
 1808POPC   NC326015  19.893  18.570   9.473
 1808POPC   PO426016  19.756  19.235   9.597
 1808POPC   GL126017  19.911  19.107   9.187
 1808POPC   GL226018  19.581  19.077   9.090
 1808POPC   C1A26019  20.183  19.181   8.796
 1808POPC   D2A26020  20.299  19.022   8.377
 1808POPC   C3A26021  19.916  18.938   8.170
 1808POPC   C4A26022  19.853  18.918   7.752
 1808POPC   C1B26023  19.742  18.976   8.670
 1808POPC   C2B26024  19.647  18.603   8.436
 1808POPC   C3B26025  19.546  18.561   8.006
 1808POPC   C4B26026  19.607  18.529   7.564
 1809POPC   NC326027  43.615  38.512   9.592
 1809POPC   PO426028  44.076  38.022   9.498
 1809POPC   GL126029  43.861  38.281   9.182
 1809POPC   GL226030  43.945  38.643   9.202
 1809POPC   C1A26031  43.986  38.374   8.745
 1809POPC   D2A26032  43.712  38.306   8.387
 1809POPC   C3A26033  43.894  38.264   7.973
 1809POPC   C4A26034  43.735  38.462   7.582
 1809POPC   C1B26035  43.772  38.835   8.807
 1809POPC   C2B26036  43.838  39.003   8.388
 1809POPC   C3B26037  43.855  38.773   7.999
 1809POPC   C4B26038  44.205  38.605   7.734
 1810POPC   NC326039  22.713  16.586   9.661
 1810POPC   PO426040  22.094  16.793   9.672
 1810POPC   GL126041  22.303  16.586   9.293
 1810POPC   GL226042  21.940  16.533   9.237
 1810POPC   C1A26043  22.478  16.691   8.851
 1810POPC   D2A26044  22.343  16.869   8.429
 1810POPC   C3A26045  22.471  16.696   8.015
 1810POPC   C4A26046  22.337  16.766   7.591
 1810POPC   C1B26047  21.999  16.845   8.874
 1810POPC   C2B26048  21.844  16.845   8.437
 1810POPC   C3B26049  21.970  16.789   8.020
 1810POPC   C4B26050  21.851  16.915   7.628
 1811POPC   NC326051  15.383  33.725   9.458
 1811POPC   PO426052  14.703  33.677   9.333
 1811POPC   GL126053  15.023  33.823   9.080
 1811POPC   GL226054  15.246  33.530   9.003
 1811POPC   C1A26055  14.916  33.800   8.642
 1811POPC   D2A26056  14.896  33.477   8.319
 1811POPC   C3A26057  15.194  33.656   8.061
 1811POPC   C4A26058  15.101  33.935   7.700
 1811POPC   C1B26059  15.635  33.421   8.780
 1811POPC   C2B26060  15.822  33.450   8.354
 1811POPC   C3B26061  15.636  33.419   7.936
 1811POPC   C4B26062  15.304  33.490   7.607
 1812POPC   NC326063   9.321  41.145   9.725
 1812POPC   PO426064   9.448  41.797   9.548
 1812POPC   GL126065   9.738  41.619   9.202
 1812POPC   GL226066  10.101  41.563   9.260
 1812POPC   C1A26067   9.835  41.457   8.790
 1812POPC   D2A26068   9.543  41.424   8.455
 1812POPC   C3A26069   9.501  41.632   8.078
 1812POPC   C4A26070   9.691  41.406   7.757
 1812POPC   C1B26071  10.123  41.878   8.923
 1812POPC   C2B26072  10.120  41.801   8.521
 1812POPC   C3B26073   9.987  41.605   8.171
 1812POPC   C4B26074   9.950  41.861   7.791
 1813POPC   NC326075  36.532  36.970   9.668
 1813POPC   PO426076  37.122  36.722   9.479
 1813POPC   GL126077  36.917  36.919   9.078
 1813POPC   GL226078  36.546  36.913   9.111
 1813POPC   C1A26079  37.124  36.941   8.650
 1813POPC   D2A26080  37.318  37.184   8.285
 1813POPC   C3A26081  37.169  37.033   7.914
 1813POPC   C4A26082  36.837  36.787   7.765
 1813POPC   C1B26083  36.584  36.733   8.687
 1813POPC   C2B26084  36.783  36.798   8.286
 1813POPC   C3B26085  36.629  37.137   8.050
 1813POPC   C4B26086  36.402  37.102   7.645
 1814POPC   NC326087  41.892   6.247   9.350
 1814POPC   PO426088  41.741   5.625   9.477
 1814POPC   GL126089  41.530   5.877   9.156
 1814POPC   GL226090  41.205   5.666   9.145
 1814POPC   C1A26091  41.653   6.046   8.710
 1814POPC   D2A26092  41.807   6.053   8.269
 1814POPC   C3A26093  41.613   5.952   7.883
 1814POPC   C4A26094  41.627   5.624   7.584
 1814POPC   C1B26095  41.503   5.532   8.798
 1814POPC   C2B26096  41.473   5.605   8.372
 1814POPC   C3B26097  41.375   5.463   7.979
 1814POPC   C4B26098  41.169   5.425   7.599
 1815POPC   NC326099  42.982   2.264   9.208
 1815POPC   PO426100  43.470   1.786   9.330
 1815POPC   GL126101  43.301   1.878   8.975
 1815POPC   GL226102  43.452   2.167   8.888
 1815POPC   C1A26103  43.314   1.793   8.530
 1815POPC   D2A26104  42.909   1.833   8.351
 1815POPC   C3A26105  42.950   1.991   7.941
 1815POPC   C4A26106  43.056   1.814   7.579
 1815POPC   C1B26107  43.147   2.275   8.573
 1815POPC   C2B26108  43.311   2.281   8.192
 1815POPC   C3B26109  43.352   2.334   7.780
 1815POPC   C4B26110  43.359   2.184   7.385
 1816POPC   NC326111   3.136  30.379   9.332
 1816POPC   PO426112   2.859  30.977   9.477
 1816POPC   GL126113   2.758  30.793   9.087
 1816POPC   GL226114   2.630  31.124   9.022
 1816POPC   C1A26115   3.009  30.659   8.699
 1816POPC   D2A26116   3.049  30.775   8.246
 1816POPC   C3A26117   2.976  30.406   7.977
 1816POPC   C4A26118   2.627  30.362   7.715
 1816POPC   C1B26119   2.709  31.063   8.628
 1816POPC   C2B26120   2.505  31.009   8.263
 1816POPC   C3B26121   2.630  30.865   7.884
 1816POPC   C4B26122   3.026  30.814   7.703
 1817POPC   NC326123   9.656  24.827   9.575
 1817POPC   PO426124  10.053  24.261   9.383
 1817POPC   GL126125   9.934  24.302   9.001
 1817POPC   GL226126   9.693  24.543   9.082
 1817POPC   C1A26127   9.841  24.279   8.575
 1817POPC   D2A26128   9.598  24.203   8.221
 1817POPC   C3A26129   9.657  24.432   7.810
 1817POPC   C4A26130   9.492  24.337   7.372
 1817POPC   C1B26131   9.948  24.765   8.734
 1817POPC   C2B26132   9.962  24.743   8.256
 1817POPC   C3B26133   9.939  24.902   7.823
 1817POPC   C4B26134  10.189  24.855   7.439
 1818POPC   NC326135  41.979   4.179   9.461
 1818POPC   PO426136  42.607   4.594   9.465
 1818POPC   GL126137  42.482   4.377   9.105
 1818POPC   GL226138  42.157   4.497   9.103
 1818POPC   C1A26139  42.340   4.274   8.672
 1818POPC   D2A26140  42.254   4.297   8.241
 1818POPC   C3A26141  42.469   4.019   7.936
 1818POPC   C4A26142  42.807   4.080   7.654
 1818POPC   C1B26143  41.996   4.832   8.857
 1818POPC   C2B26144  42.065   4.749   8.427
 1818POPC   C3B26145  41.886   4.592   8.029
 1818POPC   C4B26146  42.039   4.258   7.786
 1819POPC   NC326147  44.515  33.207   9.637
 1819POPC   PO426148  44.446  32.625   9.459
 1819POPC   GL126149  44.637  32.971   9.186
 1819POPC   GL226150  44.838  33.297   9.172
 1819POPC   C1A26151  44.701  32.939   8.758
 1819POPC   D2A26152  44.533  32.676   8.452
 1819POPC   C3A26153  44.649  32.781   8.044
 1819POPC   C4A26154  44.453  32.980   7.730
 1819POPC   C1B26155   0.067  33.293   8.765
 1819POPC   C2B26156  44.983  33.102   8.331
 1819POPC   C3B26157   0.100  33.263   7.920
 1819POPC   C4B26158   0.008  33.381   7.422
 1820POPC   NC326159  23.068   4.185   9.485
 1820POPC   PO426160  22.489   4.606   9.560
 1820POPC   GL126161  22.668   4.351   9.218
 1820POPC   GL226162  22.976   4.527   9.108
 1820POPC   C1A26163  22.681   4.078   8.839
 1820POPC   D2A26164  22.864   4.009   8.418
 1820POPC   C3A26165  22.680   4.061   7.991
 1820POPC   C4A26166  22.681   4.419   7.735
 1820POPC   C1B26167  23.182   4.233   8.815
 1820POPC   C2B26168  23.269   4.334   8.399
 1820POPC   C3B26169  23.130   4.467   8.015
 1820POPC   C4B26170  23.175   4.298   7.617
 1821POPC   NC326171  41.101  33.954   9.752
 1821POPC   PO426172  40.725  33.467   9.491
 1821POPC   GL126173  40.806  33.822   9.196
 1821POPC   GL226174  41.008  33.677   8.951
 1821POPC   C1A26175  40.758  34.097   8.813
 1821POPC   D2A26176  40.673  33.996   8.363
 1821POPC   C3A26177  40.798  34.121   7.940
 1821POPC   C4A26178  41.054  33.938   7.582
 1821POPC   C1B26179  40.802  33.518   8.640
 1821POPC   C2B26180  40.965  33.531   8.258
 1821POPC   C3B26181  40.774  33.600   7.892
 1821POPC   C4B26182  40.585  33.288   7.654
 1822POPC   NC326183  15.177  37.591   9.560
 1822POPC   PO426184  14.631  38.012   9.459
 1822POPC   GL126185  14.948  37.755   9.142
 1822POPC   GL226186  14.980  37.363   9.143
 1822POPC   C1A26187  15.250  37.643   8.780
 1822POPC   D2A26188  15.425  37.812   8.381
 1822POPC   C3A26189  15.202  37.723   8.005
 1822POPC   C4A26190  15.370  37.469   7.690
 1822POPC   C1B26191  15.086  37.162   8.742
 1822POPC   C2B26192  15.198  37.317   8.346
 1822POPC   C3B26193  15.029  37.168   7.949
 1822POPC   C4B26194  14.900  37.269   7.521
 1823POPC   NC326195  17.192  40.442   9.353
 1823POPC   PO426196  16.945  41.012   9.519
 1823POPC   GL126197  16.922  40.777   9.077
 1823POPC   GL226198  16.622  40.858   8.851
 1823POPC   C1A26199  17.114  40.898   8.697
 1823POPC   D2A26200  16.888  40.888   8.332
 1823POPC   C3A26201  16.833  40.548   8.034
 1823POPC   C4A26202  16.732  40.740   7.631
 1823POPC   C1B26203  16.683  40.473   8.613
 1823POPC   C2B26204  16.421  40.330   8.254
 1823POPC   C3B26205  16.345  40.424   7.825
 1823POPC   C4B26206  16.442  40.388   7.397
 1824POPC   NC326207  17.957  42.725   9.407
 1824POPC   PO426208  18.484  43.083   9.701
 1824POPC   GL126209  18.335  43.035   9.275
 1824POPC   GL226210  18.242  43.363   9.108
 1824POPC   C1A26211  18.321  42.944   8.844
 1824POPC   D2A26212  18.414  42.996   8.421
 1824POPC   C3A26213  18.206  43.140   8.103
 1824POPC   C4A26214  18.117  42.888   7.769
 1824POPC   C1B26215  18.171  43.396   8.674
 1824POPC   C2B26216  18.451  43.584   8.418
 1824POPC   C3B26217  18.613  43.440   8.080
 1824POPC   C4B26218  18.435  43.283   7.679
 1825POPC   NC326219  20.490  10.769   9.353
 1825POPC   PO426220  20.898  10.679   9.842
 1825POPC   GL126221  20.954  10.617   9.296
 1825POPC   GL226222  20.642  10.413   9.058
 1825POPC   C1A26223  20.945  10.728   8.830
 1825POPC   D2A26224  20.595  10.597   8.546
 1825POPC   C3A26225  20.679  10.579   8.121
 1825POPC   C4A26226  20.684  10.563   7.664
 1825POPC   C1B26227  20.490  10.119   8.749
 1825POPC   C2B26228  20.601  10.084   8.329
 1825POPC   C3B26229  20.498  10.149   7.914
 1825POPC   C4B26230  20.738  10.008   7.628
 1826POPC   NC326231  36.607  27.650   9.684
 1826POPC   PO426232  35.946  27.722   9.841
 1826POPC   GL126233  36.058  27.643   9.358
 1826POPC   GL226234  36.395  27.698   9.214
 1826POPC   C1A26235  36.009  27.631   8.868
 1826POPC   D2A26236  36.052  27.764   8.418
 1826POPC   C3A26237  35.885  27.522   8.067
 1826POPC   C4A26238  35.989  27.433   7.600
 1826POPC   C1B26239  36.538  27.662   8.765
 1826POPC   C2B26240  36.553  27.571   8.304
 1826POPC   C3B26241  36.346  27.721   7.922
 1826POPC   C4B26242  36.223  27.878   7.510
 1827POPC   NC326243  25.603  35.084   9.317
 1827POPC   PO426244  25.049  35.535   9.472
 1827POPC   GL126245  25.223  35.364   9.105
 1827POPC   GL226246  25.390  35.610   8.948
 1827POPC   C1A26247  25.280  35.186   8.663
 1827POPC   D2A26248  25.465  35.275   8.224
 1827POPC   C3A26249  25.239  35.345   7.845
 1827POPC   C4A26250  24.997  35.117   7.622
 1827POPC   C1B26251  25.689  35.476   8.639
 1827POPC   C2B26252  25.763  35.714   8.279
 1827POPC   C3B26253  25.629  35.649   7.886
 1827POPC   C4B26254  25.710  35.288   7.617
 1828POPC   NC326255  32.464  43.781   9.531
 1828POPC   PO426256  33.094  43.872   9.522
 1828POPC   GL126257  33.075  43.998   9.121
 1828POPC   GL226258  32.794  43.767   9.078
 1828POPC   C1A26259  33.249  44.053   8.718
 1828POPC   D2A26260  33.141  43.825   8.336
 1828POPC   C3A26261  33.146  44.018   7.916
 1828POPC   C4A26262  33.096  44.005   7.458
 1828POPC   C1B26263  32.727  43.996   8.683
 1828POPC   C2B26264  32.672  43.980   8.224
 1828POPC   C3B26265  32.827  43.637   7.969
 1828POPC   C4B26266  32.911  43.475   7.531
 1829POPC   NC326267  32.495  36.373   9.356
 1829POPC   PO426268  33.025  36.194   9.576
 1829POPC   GL126269  33.018  35.935   9.171
 1829POPC   GL226270  32.683  35.956   9.056
 1829POPC   C1A26271  33.127  36.188   8.831
 1829POPC   D2A26272  32.937  36.366   8.460
 1829POPC   C3A26273  33.179  36.446   8.100
 1829POPC   C4A26274  33.210  36.230   7.708
 1829POPC   C1B26275  32.824  35.830   8.648
 1829POPC   C2B26276  33.189  35.695   8.403
 1829POPC   C3B26277  33.109  35.832   8.013
 1829POPC   C4B26278  32.723  36.027   7.772
 1830POPC   NC326279   8.497  37.006   9.482
 1830POPC   PO426280   7.876  37.081   9.473
 1830POPC   GL126281   8.135  36.893   9.101
 1830POPC   GL226282   8.498  36.759   9.050
 1830POPC   C1A26283   8.219  37.013   8.666
 1830POPC   D2A26284   8.004  37.146   8.282
 1830POPC   C3A26285   8.135  36.902   7.898
 1830POPC   C4A26286   8.458  37.057   7.599
 1830POPC   C1B26287   8.579  36.600   8.676
 1830POPC   C2B26288   8.463  36.741   8.282
 1830POPC   C3B26289   8.617  36.634   7.890
 1830POPC   C4B26290   8.534  36.575   7.447
 1831POPC   NC326291   0.360  14.844   9.426
 1831POPC   PO426292   0.621  15.510   9.476
 1831POPC   GL126293   0.415  15.512   9.036
 1831POPC   GL226294   0.076  15.313   9.039
 1831POPC   C1A26295   0.535  15.533   8.596
 1831POPC   D2A26296   0.292  15.574   8.232
 1831POPC   C3A26297   0.218  15.213   7.984
 1831POPC   C4A26298   0.616  15.057   7.815
 1831POPC   C1B26299   0.134  15.176   8.592
 1831POPC   C2B26300   0.446  14.870   8.381
 1831POPC   C3B26301   0.472  14.616   8.010
 1831POPC   C4B26302   0.202  14.778   7.667
 1832POPC   NC326303   6.568  26.769   9.588
 1832POPC   PO426304   7.006  26.406   9.253
 1832POPC   GL126305   6.699  26.706   9.094
 1832POPC   GL226306   6.356  26.587   9.178
 1832POPC   C1A26307   6.631  26.761   8.649
 1832POPC   D2A26308   6.877  26.885   8.321
 1832POPC   C3A26309   6.882  26.595   8.003
 1832POPC   C4A26310   6.714  26.816   7.676
 1832POPC   C1B26311   6.233  26.905   8.931
 1832POPC   C2B26312   6.117  26.899   8.530
 1832POPC   C3B26313   6.222  26.985   8.177
 1832POPC   C4B26314   6.241  26.925   7.785
 1833POPC   NC326315  21.624   9.580   9.634
 1833POPC   PO426316  22.309   9.784   9.589
 1833POPC   GL126317  22.306   9.566   9.207
 1833POPC   GL226318  21.955   9.498   9.172
 1833POPC   C1A26319  22.308   9.563   8.757
 1833POPC   D2A26320  22.123   9.603   8.328
 1833POPC   C3A26321  22.163   9.951   8.014
 1833POPC   C4A26322  21.910  10.120   7.678
 1833POPC   C1B26323  21.819   9.457   8.738
 1833POPC   C2B26324  21.679   9.252   8.386
 1833POPC   C3B26325  21.865   9.263   8.007
 1833POPC   C4B26326  22.215   9.484   7.833
 1834POPC   NC326327  16.451  29.898   9.520
 1834POPC   PO426328  17.026  29.795   9.551
 1834POPC   GL126329  16.830  30.008   9.190
 1834POPC   GL226330  16.605  29.780   8.986
 1834POPC   C1A26331  16.681  30.226   8.800
 1834POPC   D2A26332  16.545  30.038   8.415
 1834POPC   C3A26333  16.820  30.109   8.080
 1834POPC   C4A26334  16.835  29.950   7.679
 1834POPC   C1B26335  16.316  29.636   8.655
 1834POPC   C2B26336  16.300  29.597   8.210
 1834POPC   C3B26337  16.425  29.669   7.796
 1834POPC   C4B26338  16.511  29.779   7.341
 1835POPC   NC326339  35.797  32.847   9.384
 1835POPC   PO426340  36.469  32.948   9.544
 1835POPC   GL126341  36.225  33.082   9.176
 1835POPC   GL226342  36.000  33.359   9.271
 1835POPC   C1A26343  36.232  32.907   8.732
 1835POPC   D2A26344  36.299  32.606   8.359
 1835POPC   C3A26345  36.343  32.725   7.947
 1835POPC   C4A26346  36.119  32.944   7.642
 1835POPC   C1B26347  35.794  33.476   8.861
 1835POPC   C2B26348  35.567  33.329   8.478
 1835POPC   C3B26349  35.702  33.326   8.082
 1835POPC   C4B26350  35.880  33.405   7.689
 1836POPC   NC326351  38.966  25.392   9.440
 1836POPC   PO426352  39.622  25.427   9.587
 1836POPC   GL126353  39.402  25.466   9.158
 1836POPC   GL226354  39.208  25.155   9.070
 1836POPC   C1A26355  39.437  25.372   8.698
 1836POPC   D2A26356  39.542  25.083   8.387
 1836POPC   C3A26357  39.408  25.261   7.999
 1836POPC   C4A26358  39.379  25.187   7.562
 1836POPC   C1B26359  38.924  25.099   8.758
 1836POPC   C2B26360  38.989  24.945   8.326
 1836POPC   C3B26361  38.969  25.063   7.876
 1836POPC   C4B26362  38.881  25.391   7.556
 1837POPC   NC326363  32.530   8.544   9.452
 1837POPC   PO426364  31.943   8.204   9.507
 1837POPC   GL126365  32.139   8.395   9.149
 1837POPC   GL226366  32.362   8.119   9.145
 1837POPC   C1A26367  32.364   8.459   8.764
 1837POPC   D2A26368  32.212   8.475   8.346
 1837POPC   C3A26369  32.351   8.349   7.930
 1837POPC   C4A26370  32.114   8.457   7.493
 1837POPC   C1B26371  32.344   7.955   8.746
 1837POPC   C2B26372  32.465   8.009   8.344
 1837POPC   C3B26373  32.389   7.847   7.948
 1837POPC   C4B26374  32.121   7.966   7.647
 1838POPC   NC326375  41.699  32.625   9.332
 1838POPC   PO426376  41.477  33.211   9.605
 1838POPC   GL126377  41.439  33.036   9.189
 1838POPC   GL226378  41.782  33.097   9.151
 1838POPC   C1A26379  41.406  32.716   8.783
 1838POPC   D2A26380  41.658  32.759   8.420
 1838POPC   C3A26381  41.514  32.924   8.056
 1838POPC   C4A26382  41.310  32.806   7.636
 1838POPC   C1B26383  41.624  33.171   8.747
 1838POPC   C2B26384  41.414  33.293   8.413
 1838POPC   C3B26385  41.571  33.463   8.075
 1838POPC   C4B26386  41.676  33.197   7.691
 1839POPC   NC326387  21.594  43.890   9.451
 1839POPC   PO426388  20.903  44.124   9.491
 1839POPC   GL126389  21.195  44.077   9.128
 1839POPC   GL226390  21.412  43.745   9.023
 1839POPC   C1A26391  21.151  43.977   8.699
 1839POPC   D2A26392  21.338  43.698   8.465
 1839POPC   C3A26393  21.181  43.832   8.076
 1839POPC   C4A26394  21.151  43.948   7.642
 1839POPC   C1B26395  21.686  43.975   8.726
 1839POPC   C2B26396  21.544  44.159   8.348
 1839POPC   C3B26397  21.640  44.029   7.922
 1839POPC   C4B26398  21.603  44.081   7.472
 1840POPC   NC326399  41.443  22.329   9.507
 1840POPC   PO426400  42.062  22.240   9.440
 1840POPC   GL126401  41.779  22.115   9.166
 1840POPC   GL226402  41.645  22.426   9.048
 1840POPC   C1A26403  41.873  22.021   8.742
 1840POPC   D2A26404  41.956  22.353   8.441
 1840POPC   C3A26405  41.829  22.254   8.028
 1840POPC   C4A26406  41.671  21.843   7.851
 1840POPC   C1B26407  41.437  22.291   8.659
 1840POPC   C2B26408  41.406  22.080   8.264
 1840POPC   C3B26409  41.192  22.014   7.881
 1840POPC   C4B26410  41.448  22.280   7.689
 1841POPC   NC326411   5.050  32.023   9.570
 1841POPC   PO426412   4.701  32.614   9.685
 1841POPC   GL126413   5.025  32.541   9.306
 1841POPC   GL226414   5.080  32.241   9.124
 1841POPC   C1A26415   5.104  32.624   8.809
 1841POPC   D2A26416   5.230  32.425   8.407
 1841POPC   C3A26417   5.113  32.416   7.959
 1841POPC   C4A26418   4.956  32.436   7.535
 1841POPC   C1B26419   5.348  32.066   8.814
 1841POPC   C2B26420   5.409  31.960   8.373
 1841POPC   C3B26421   5.539  32.075   7.932
 1841POPC   C4B26422   5.478  32.137   7.457
 1842POPC   NC326423  35.176  34.300   9.547
 1842POPC   PO426424  35.753  34.449   9.344
 1842POPC   GL126425  35.411  34.517   9.070
 1842POPC   GL226426  35.057  34.472   9.092
 1842POPC   C1A26427  35.334  34.719   8.681
 1842POPC   D2A26428  35.590  34.738   8.313
 1842POPC   C3A26429  35.294  34.706   8.021
 1842POPC   C4A26430  35.413  34.551   7.680
 1842POPC   C1B26431  35.110  34.238   8.747
 1842POPC   C2B26432  35.348  34.278   8.392
 1842POPC   C3B26433  35.280  34.156   8.017
 1842POPC   C4B26434  34.977  34.318   7.783
 1843POPC   NC326435   2.482  26.296   9.612
 1843POPC   PO426436   3.112  26.047   9.525
 1843POPC   GL126437   2.797  26.146   9.209
 1843POPC   GL226438   2.560  26.450   9.141
 1843POPC   C1A26439   2.697  26.131   8.766
 1843POPC   D2A26440   2.873  26.119   8.359
 1843POPC   C3A26441   2.642  25.904   8.077
 1843POPC   C4A26442   2.866  26.071   7.747
 1843POPC   C1B26443   2.292  26.464   8.754
 1843POPC   C2B26444   2.403  26.326   8.350
 1843POPC   C3B26445   2.502  26.371   7.932
 1843POPC   C4B26446   2.512  26.361   7.454
 1844POPC   NC326447  41.521  42.042   9.448
 1844POPC   PO426448  41.564  41.366   9.503
 1844POPC   GL126449  41.520  41.573   9.140
 1844POPC   GL226450  41.837  41.724   9.219
 1844POPC   C1A26451  41.431  41.513   8.687
 1844POPC   D2A26452  41.573  41.266   8.334
 1844POPC   C3A26453  41.314  41.251   7.963
 1844POPC   C4A26454  41.517  41.371   7.524
 1844POPC   C1B26455  41.689  41.937   8.818
 1844POPC   C2B26456  41.710  41.809   8.373
 1844POPC   C3B26457  41.684  41.619   7.954
 1844POPC   C4B26458  41.625  41.864   7.533
 1845POPC   NC326459  10.595  21.940   9.568
 1845POPC   PO426460  11.051  22.334   9.437
 1845POPC   GL126461  10.772  22.182   9.099
 1845POPC   GL226462  10.412  22.103   9.107
 1845POPC   C1A26463  10.668  22.167   8.662
 1845POPC   D2A26464  10.793  21.983   8.265
 1845POPC   C3A26465  10.683  22.168   7.852
 1845POPC   C4A26466  10.648  22.437   7.466
 1845POPC   C1B26467  10.173  22.037   8.748
 1845POPC   C2B26468  10.286  21.970   8.340
 1845POPC   C3B26469  10.171  22.068   7.933
 1845POPC   C4B26470  10.311  22.055   7.500
 1846POPC   NC326471  41.872  41.172   9.793
 1846POPC   PO426472  42.283  40.672   9.470
 1846POPC   GL126473  42.436  40.741   9.064
 1846POPC   GL226474  42.483  41.111   9.095
 1846POPC   C1A26475  42.316  40.598   8.638
 1846POPC   D2A26476  42.328  40.467   8.210
 1846POPC   C3A26477  42.318  40.746   7.841
 1846POPC   C4A26478  42.148  40.728   7.423
 1846POPC   C1B26479  42.306  41.100   8.705
 1846POPC   C2B26480  42.338  40.998   8.281
 1846POPC   C3B26481  42.195  41.234   7.916
 1846POPC   C4B26482  42.058  41.213   7.500
 1847POPC   NC326483  29.729  22.261   9.619
 1847POPC   PO426484  30.337  21.976   9.498
 1847POPC   GL126485  30.097  22.293   9.191
 1847POPC   GL226486  29.773  22.483   9.152
 1847POPC   C1A26487  30.093  22.311   8.732
 1847POPC   D2A26488  30.036  21.888   8.529
 1847POPC   C3A26489  30.020  21.873   8.088
 1847POPC   C4A26490  29.966  22.022   7.658
 1847POPC   C1B26491  29.622  22.171   8.835
 1847POPC   C2B26492  29.646  22.161   8.365
 1847POPC   C3B26493  29.635  22.333   7.952
 1847POPC   C4B26494  29.708  22.515   7.588
 1848POPC   NC326495  44.977   2.620   9.515
 1848POPC   PO426496  44.610   3.174   9.562
 1848POPC   GL126497  44.757   2.964   9.130
 1848POPC   GL226498  44.911   2.607   9.021
 1848POPC   C1A26499  44.647   2.857   8.666
 1848POPC   D2A26500  44.742   2.693   8.270
 1848POPC   C3A26501  44.580   2.965   7.982
 1848POPC   C4A26502  44.411   2.883   7.598
 1848POPC   C1B26503   0.143   2.938   8.768
 1848POPC   C2B26504   0.093   3.081   8.329
 1848POPC   C3B26505   0.075   2.889   7.902
 1848POPC   C4B26506  44.798   2.561   7.730
 1849POPC   NC326507  16.934  38.946   9.425
 1849POPC   PO426508  16.566  39.451   9.547
 1849POPC   GL126509  16.755  39.357   9.131
 1849POPC   GL226510  16.970  39.608   9.046
 1849POPC   C1A26511  16.843  39.129   8.700
 1849POPC   D2A26512  17.112  39.106   8.307
 1849POPC   C3A26513  16.838  39.191   7.926
 1849POPC   C4A26514  16.882  39.574   7.716
 1849POPC   C1B26515  16.784  39.622   8.636
 1849POPC   C2B26516  16.589  39.393   8.300
 1849POPC   C3B26517  16.362  39.459   7.887
 1849POPC   C4B26518  16.292  39.489   7.441
 1850POPC   NC326519   1.583  23.497   9.343
 1850POPC   PO426520   2.200  23.937   9.415
 1850POPC   GL126521   1.884  23.866   9.115
 1850POPC   GL226522   1.974  23.545   8.983
 1850POPC   C1A26523   1.812  23.935   8.694
 1850POPC   D2A26524   1.845  23.673   8.342
 1850POPC   C3A26525   1.828  23.908   8.001
 1850POPC   C4A26526   2.152  24.121   7.795
 1850POPC   C1B26527   2.299  23.674   8.638
 1850POPC   C2B26528   2.357  23.807   8.187
 1850POPC   C3B26529   2.207  23.593   7.823
 1850POPC   C4B26530   2.188  23.347   7.411
 1851POPC   NC326531  28.425   8.489   9.486
 1851POPC   PO426532  28.220   7.801   9.300
 1851POPC   GL126533  28.182   8.201   9.123
 1851POPC   GL226534  28.542   8.173   9.086
 1851POPC   C1A26535  28.262   8.309   8.698
 1851POPC   D2A26536  28.539   8.077   8.453
 1851POPC   C3A26537  28.319   7.927   8.117
 1851POPC   C4A26538  28.084   8.153   7.820
 1851POPC   C1B26539  28.740   8.511   8.862
 1851POPC   C2B26540  28.609   8.598   8.459
 1851POPC   C3B26541  28.364   8.455   8.152
 1851POPC   C4B26542  28.505   8.423   7.759
 1852POPC   NC326543   3.727   9.220   9.468
 1852POPC   PO426544   3.203   8.760   9.525
 1852POPC   GL126545   3.426   8.819   9.154
 1852POPC   GL226546   3.333   9.175   9.104
 1852POPC   C1A26547   3.624   8.880   8.737
 1852POPC   D2A26548   3.845   8.903   8.352
 1852POPC   C3A26549   3.591   8.958   8.012
 1852POPC   C4A26550   3.679   8.941   7.633
 1852POPC   C1B26551   3.666   9.374   8.820
 1852POPC   C2B26552   3.849   9.429   8.396
 1852POPC   C3B26553   3.783   9.423   7.941
 1852POPC   C4B26554   3.989   9.323   7.566
 1853POPC   NC326555   4.527  17.214   9.544
 1853POPC   PO426556   4.196  17.791   9.487
 1853POPC   GL126557   4.164  17.484   9.178
 1853POPC   GL226558   4.477  17.613   9.094
 1853POPC   C1A26559   4.066  17.325   8.754
 1853POPC   D2A26560   4.059  17.531   8.345
 1853POPC   C3A26561   4.351  17.410   7.995
 1853POPC   C4A26562   4.344  17.535   7.560
 1853POPC   C1B26563   4.314  17.790   8.718
 1853POPC   C2B26564   4.491  17.791   8.319
 1853POPC   C3B26565   4.596  17.883   7.906
 1853POPC   C4B26566   4.806  17.752   7.538
 1854POPC   NC326567  24.076  12.289   9.405
 1854POPC   PO426568  24.769  12.118   9.541
 1854POPC   GL126569  24.630  12.195   9.128
 1854POPC   GL226570  24.355  11.968   9.135
 1854POPC   C1A26571  24.589  11.990   8.687
 1854POPC   D2A26572  24.797  11.962   8.300
 1854POPC   C3A26573  24.488  12.054   7.996
 1854POPC   C4A26574  24.590  12.242   7.605
 1854POPC   C1B26575  24.111  11.824   8.784
 1854POPC   C2B26576  24.149  11.703   8.362
 1854POPC   C3B26577  24.159  11.657   7.926
 1854POPC   C4B26578  24.334  11.807   7.546
 1855POPC   NC326579  20.950  29.474   9.372
 1855POPC   PO426580  20.528  29.991   9.540
 1855POPC   GL126581  20.668  29.870   9.131
 1855POPC   GL226582  20.805  30.151   9.055
 1855POPC   C1A26583  20.763  29.706   8.696
 1855POPC   D2A26584  20.824  29.904   8.285
 1855POPC   C3A26585  20.860  29.586   7.968
 1855POPC   C4A26586  20.704  29.711   7.564
 1855POPC   C1B26587  20.526  30.148   8.689
 1855POPC   C2B26588  20.348  30.130   8.269
 1855POPC   C3B26589  20.546  30.141   7.839
 1855POPC   C4B26590  20.331  30.024   7.429
 1856POPC   NC326591  26.931   3.268   9.522
 1856POPC   PO426592  26.572   3.838   9.440
 1856POPC   GL126593  26.723   3.523   9.120
 1856POPC   GL226594  27.072   3.355   9.050
 1856POPC   C1A26595  26.641   3.409   8.690
 1856POPC   D2A26596  26.723   3.685   8.328
 1856POPC   C3A26597  26.484   3.567   7.981
 1856POPC   C4A26598  26.739   3.313   7.739
 1856POPC   C1B26599  27.068   3.685   8.753
 1856POPC   C2B26600  27.132   4.007   8.463
 1856POPC   C3B26601  27.354   3.970   8.086
 1856POPC   C4B26602  27.126   3.720   7.779
 1857POPC   NC326603  42.851  40.053   9.394
 1857POPC   PO426604  43.335  39.653   9.550
 1857POPC   GL126605  43.307  39.831   9.131
 1857POPC   GL226606  43.151  40.127   8.971
 1857POPC   C1A26607  43.333  39.736   8.709
 1857POPC   D2A26608  43.107  39.968   8.391
 1857POPC   C3A26609  42.862  39.725   8.066
 1857POPC   C4A26610  42.794  39.634   7.627
 1857POPC   C1B26611  43.273  40.429   8.661
 1857POPC   C2B26612  43.339  40.397   8.199
 1857POPC   C3B26613  43.127  40.142   7.897
 1857POPC   C4B26614  43.297  39.729   7.779
 1858POPC   NC326615  44.510  21.725   9.560
 1858POPC   PO426616  44.825  22.354   9.568
 1858POPC   GL126617  44.645  22.131   9.244
 1858POPC   GL226618  44.913  22.227   9.068
 1858POPC   C1A26619  44.596  21.961   8.815
 1858POPC   D2A26620  44.753  22.029   8.415
 1858POPC   C3A26621  44.475  21.927   8.094
 1858POPC   C4A26622  44.339  22.105   7.721
 1858POPC   C1B26623  44.903  22.451   8.744
 1858POPC   C2B26624  44.813  22.590   8.391
 1858POPC   C3B26625   0.002  22.377   8.118
 1858POPC   C4B26626  44.804  22.245   7.769
 1859POPC   NC326627  31.275   7.294   9.441
 1859POPC   PO426628  31.812   7.575   9.497
 1859POPC   GL126629  31.594   7.544   9.120
 1859POPC   GL226630  31.337   7.762   9.075
 1859POPC   C1A26631  31.441   7.376   8.739
 1859POPC   D2A26632  31.224   7.300   8.377
 1859POPC   C3A26633  31.220   7.461   7.962
 1859POPC   C4A26634  31.565   7.287   7.808
 1859POPC   C1B26635  31.489   7.872   8.698
 1859POPC   C2B26636  31.614   7.656   8.309
 1859POPC   C3B26637  31.628   7.802   7.902
 1859POPC   C4B26638  31.310   7.843   7.601
 1860POPC   NC326639  30.689  38.844   9.867
 1860POPC   PO426640  30.739  38.258   9.498
 1860POPC   GL126641  30.797  38.416   9.099
 1860POPC   GL226642  31.051  38.157   9.043
 1860POPC   C1A26643  30.519  38.582   8.780
 1860POPC   D2A26644  30.479  38.607   8.371
 1860POPC   C3A26645  30.676  38.412   8.024
 1860POPC   C4A26646  30.374  38.636   7.781
 1860POPC   C1B26647  30.888  38.272   8.618
 1860POPC   C2B26648  31.022  38.598   8.356
 1860POPC   C3B26649  31.187  38.591   7.949
 1860POPC   C4B26650  31.199  38.306   7.601
 1861POPC   NC326651  18.597  28.081   9.492
 1861POPC   PO426652  19.102  28.556   9.577
 1861POPC   GL126653  18.944  28.363   9.216
 1861POPC   GL226654  19.234  28.396   8.978
 1861POPC   C1A26655  18.772  28.167   8.839
 1861POPC   D2A26656  19.049  28.219   8.474
 1861POPC   C3A26657  18.903  28.267   8.036
 1861POPC   C4A26658  19.179  28.239   7.654
 1861POPC   C1B26659  18.921  28.653   8.777
 1861POPC   C2B26660  18.842  28.680   8.359
 1861POPC   C3B26661  19.113  28.720   8.003
 1861POPC   C4B26662  18.858  28.645   7.665
 1862POPC   NC326663  27.746  33.407   9.589
 1862POPC   PO426664  27.923  34.074   9.455
 1862POPC   GL126665  27.681  33.850   9.150
 1862POPC   GL226666  27.503  33.507   9.109
 1862POPC   C1A26667  27.554  34.052   8.789
 1862POPC   D2A26668  27.433  33.933   8.374
 1862POPC   C3A26669  27.717  34.041   8.058
 1862POPC   C4A26670  27.447  34.044   7.735
 1862POPC   C1B26671  27.636  33.556   8.689
 1862POPC   C2B26672  27.893  33.618   8.338
 1862POPC   C3B26673  27.942  33.460   7.935
 1862POPC   C4B26674  27.540  33.560   7.800
 1863POPC   NC326675  22.477  22.091   9.209
 1863POPC   PO426676  22.956  22.247   9.608
 1863POPC   GL126677  22.955  22.269   9.160
 1863POPC   GL226678  22.912  21.916   9.028
 1863POPC   C1A26679  22.802  22.333   8.736
 1863POPC   D2A26680  22.796  22.098   8.417
 1863POPC   C3A26681  22.557  22.266   8.115
 1863POPC   C4A26682  22.677  22.230   7.715
 1863POPC   C1B26683  23.231  22.070   8.742
 1863POPC   C2B26684  23.283  21.947   8.318
 1863POPC   C3B26685  23.101  22.125   7.966
 1863POPC   C4B26686  23.154  22.248   7.519
 1864POPC   NC326687  11.674  39.799   9.429
 1864POPC   PO426688  10.974  39.951   9.380
 1864POPC   GL126689  11.294  39.805   9.095
 1864POPC   GL226690  11.425  40.146   9.100
 1864POPC   C1A26691  11.522  39.712   8.700
 1864POPC   D2A26692  11.508  39.975   8.297
 1864POPC   C3A26693  11.379  39.818   7.887
 1864POPC   C4A26694  11.665  39.541   7.704
 1864POPC   C1B26695  11.244  40.139   8.713
 1864POPC   C2B26696  11.044  40.176   8.350
 1864POPC   C3B26697  11.169  40.306   7.960
 1864POPC   C4B26698  11.165  40.223   7.537
 1865POPC   NC326699  38.593  30.191   9.480
 1865POPC   PO426700  38.787  29.583   9.515
 1865POPC   GL126701  38.575  29.833   9.138
 1865POPC   GL226702  38.337  29.688   8.981
 1865POPC   C1A26703  38.434  30.151   8.792
 1865POPC   D2A26704  38.113  30.203   8.432
 1865POPC   C3A26705  38.347  30.093   8.045
 1865POPC   C4A26706  38.641  30.057   7.688
 1865POPC   C1B26707  38.299  29.725   8.537
 1865POPC   C2B26708  38.496  29.504   8.261
 1865POPC   C3B26709  38.527  29.618   7.882
 1865POPC   C4B26710  38.226  29.820   7.624
 1866POPC   NC326711  25.167  41.282   9.543
 1866POPC   PO426712  25.332  41.934   9.439
 1866POPC   GL126713  25.412  41.620   9.148
 1866POPC   GL226714  25.068  41.513   9.071
 1866POPC   C1A26715  25.425  41.653   8.700
 1866POPC   D2A26716  25.099  41.749   8.400
 1866POPC   C3A26717  25.143  41.888   7.989
 1866POPC   C4A26718  25.259  41.695   7.625
 1866POPC   C1B26719  25.071  41.279   8.664
 1866POPC   C2B26720  25.368  41.313   8.306
 1866POPC   C3B26721  25.405  41.272   7.872
 1866POPC   C4B26722  25.258  40.948   7.611
 1867POPC   NC326723   4.618  20.124   9.664
 1867POPC   PO426724   4.381  19.565   9.521
 1867POPC   GL126725   4.436  19.914   9.215
 1867POPC   GL226726   4.227  19.724   9.025
 1867POPC   C1A26727   4.447  20.099   8.751
 1867POPC   D2A26728   4.435  19.961   8.287
 1867POPC   C3A26729   4.662  19.760   7.908
 1867POPC   C4A26730   4.679  19.766   7.428
 1867POPC   C1B26731   4.020  19.827   8.646
 1867POPC   C2B26732   4.078  19.613   8.288
 1867POPC   C3B26733   4.145  19.754   7.899
 1867POPC   C4B26734   4.233  19.531   7.523
 1868POPC   NC326735   1.242  28.255   9.384
 1868POPC   PO426736   0.962  28.845   9.496
 1868POPC   GL126737   1.164  28.707   9.101
 1868POPC   GL226738   1.504  28.552   9.081
 1868POPC   C1A26739   1.239  28.629   8.654
 1868POPC   D2A26740   1.421  28.422   8.288
 1868POPC   C3A26741   1.096  28.405   7.980
 1868POPC   C4A26742   0.849  28.530   7.654
 1868POPC   C1B26743   1.564  28.217   8.778
 1868POPC   C2B26744   1.920  28.046   8.529
 1868POPC   C3B26745   1.885  28.064   8.096
 1868POPC   C4B26746   1.488  28.097   7.859
 1869POPC   NC326747  10.540  29.619   9.372
 1869POPC   PO426748  10.764  30.073   9.819
 1869POPC   GL126749  10.697  30.101   9.266
 1869POPC   GL226750  10.699  29.853   8.977
 1869POPC   C1A26751  10.476  30.287   8.888
 1869POPC   D2A26752  10.306  29.999   8.580
 1869POPC   C3A26753  10.254  30.080   8.142
 1869POPC   C4A26754  10.377  29.969   7.753
 1869POPC   C1B26755  10.619  29.475   8.757
 1869POPC   C2B26756  10.795  29.430   8.401
 1869POPC   C3B26757  10.590  29.578   8.045
 1869POPC   C4B26758  10.690  29.495   7.636
 1870POPC   NC326759  37.044  24.270   9.622
 1870POPC   PO426760  37.019  24.760   9.212
 1870POPC   GL126761  36.922  24.332   9.123
 1870POPC   GL226762  37.246  24.215   9.126
 1870POPC   C1A26763  36.748  24.282   8.747
 1870POPC   D2A26764  36.792  24.690   8.507
 1870POPC   C3A26765  36.821  24.671   8.055
 1870POPC   C4A26766  36.724  24.296   7.835
 1870POPC   C1B26767  37.250  24.405   8.701
 1870POPC   C2B26768  37.054  24.280   8.333
 1870POPC   C3B26769  37.225  24.248   7.968
 1870POPC   C4B26770  37.126  24.117   7.571
 1871POPC   NC326771  22.733  13.500   9.593
 1871POPC   PO426772  22.984  14.168   9.552
 1871POPC   GL126773  22.955  13.822   9.202
 1871POPC   GL226774  23.032  13.421   9.204
 1871POPC   C1A26775  23.232  13.710   8.829
 1871POPC   D2A26776  23.377  13.809   8.390
 1871POPC   C3A26777  23.004  13.833   8.110
 1871POPC   C4A26778  22.718  13.546   7.869
 1871POPC   C1B26779  23.016  13.210   8.815
 1871POPC   C2B26780  23.035  13.415   8.425
 1871POPC   C3B26781  23.162  13.340   8.029
 1871POPC   C4B26782  23.018  13.091   7.690
 1872POPC   NC326783  43.919  35.512   9.550
 1872POPC   PO426784  44.059  34.914   9.510
 1872POPC   GL126785  44.010  35.234   9.154
 1872POPC   GL226786  43.719  35.403   9.063
 1872POPC   C1A26787  44.125  35.374   8.752
 1872POPC   D2A26788  44.037  35.203   8.355
 1872POPC   C3A26789  43.980  35.335   7.964
 1872POPC   C4A26790  44.109  35.432   7.586
 1872POPC   C1B26791  43.507  35.394   8.681
 1872POPC   C2B26792  43.523  35.233   8.267
 1872POPC   C3B26793  43.472  35.358   7.842
 1872POPC   C4B26794  43.253  35.663   7.712
 1873POPC   NC326795  27.882  10.454   9.536
 1873POPC   PO426796  27.305  10.688   9.678
 1873POPC   GL126797  27.428  10.619   9.233
 1873POPC   GL226798  27.762  10.779   9.137
 1873POPC   C1A26799  27.468  10.297   8.893
 1873POPC   D2A26800  27.498  10.120   8.464
 1873POPC   C3A26801  27.447  10.430   8.120
 1873POPC   C4A26802  27.743  10.451   7.788
 1873POPC   C1B26803  27.512  10.771   8.744
 1873POPC   C2B26804  27.469  10.934   8.349
 1873POPC   C3B26805  27.704  10.916   7.985
 1873POPC   C4B26806  27.498  10.834   7.579
 1874POPC   NC326807   9.857   2.840   9.795
 1874POPC   PO426808   9.339   2.983   9.417
 1874POPC   GL126809   9.763   2.887   9.277
 1874POPC   GL226810   9.966   3.208   9.350
 1874POPC   C1A26811   9.908   2.567   8.966
 1874POPC   D2A26812  10.040   2.366   8.571
 1874POPC   C3A26813   9.984   2.640   8.208
 1874POPC   C4A26814   9.825   2.538   7.789
 1874POPC   C1B26815   9.977   3.093   8.856
 1874POPC   C2B26816   9.709   3.020   8.467
 1874POPC   C3B26817   9.546   2.885   8.051
 1874POPC   C4B26818   9.521   3.032   7.635
 1875POPC   NC326819  36.684  19.027   9.388
 1875POPC   PO426820  37.185  19.367   9.467
 1875POPC   GL126821  37.146  19.041   9.145
 1875POPC   GL226822  37.273  18.711   9.077
 1875POPC   C1A26823  36.905  19.040   8.786
 1875POPC   D2A26824  36.814  19.326   8.483
 1875POPC   C3A26825  36.617  19.232   8.105
 1875POPC   C4A26826  36.864  19.323   7.745
 1875POPC   C1B26827  37.117  18.609   8.672
 1875POPC   C2B26828  36.897  18.801   8.352
 1875POPC   C3B26829  37.063  19.000   8.083
 1875POPC   C4B26830  36.957  18.813   7.738
 1876POPC   NC326831   4.948  34.693   9.501
 1876POPC   PO426832   5.308  34.150   9.444
 1876POPC   GL126833   5.005  34.344   9.133
 1876POPC   GL226834   5.199  34.647   9.059
 1876POPC   C1A26835   4.995  34.435   8.664
 1876POPC   D2A26836   5.276  34.586   8.337
 1876POPC   C3A26837   5.190  34.384   7.930
 1876POPC   C4A26838   5.214  34.571   7.531
 1876POPC   C1B26839   4.988  34.915   8.692
 1876POPC   C2B26840   4.810  34.786   8.296
 1876POPC   C3B26841   5.024  34.897   7.907
 1876POPC   C4B26842   4.871  34.997   7.491
 1877POPC   NC326843  36.499  16.505   9.857
 1877POPC   PO426844  36.975  16.936   9.634
 1877POPC   GL126845  36.973  16.963   9.168
 1877POPC   GL226846  36.971  16.617   9.150
 1877POPC   C1A26847  36.997  16.860   8.716
 1877POPC   D2A26848  36.901  16.554   8.410
 1877POPC   C3A26849  36.849  16.755   8.048
 1877POPC   C4A26850  37.029  16.964   7.720
 1877POPC   C1B26851  36.620  16.488   8.849
 1877POPC   C2B26852  36.435  16.333   8.423
 1877POPC   C3B26853  36.499  16.396   7.944
 1877POPC   C4B26854  36.603  16.717   7.578
 1878POPC   NC326855  42.601  25.337   9.453
 1878POPC   PO426856  42.007  25.140   9.573
 1878POPC   GL126857  42.130  25.430   9.249
 1878POPC   GL226858  42.253  25.106   9.117
 1878POPC   C1A26859  42.293  25.582   8.854
 1878POPC   D2A26860  42.406  25.377   8.460
 1878POPC   C3A26861  42.165  25.467   8.096
 1878POPC   C4A26862  42.299  25.458   7.704
 1878POPC   C1B26863  42.547  25.005   8.837
 1878POPC   C2B26864  42.607  24.910   8.428
 1878POPC   C3B26865  42.290  24.954   8.124
 1878POPC   C4B26866  42.344  24.958   7.695
 1879POPC   NC326867  18.625  42.584   9.698
 1879POPC   PO426868  18.107  42.216   9.379
 1879POPC   GL126869  18.407  42.205   9.065
 1879POPC   GL226870  18.481  42.549   9.118
 1879POPC   C1A26871  18.425  42.006   8.642
 1879POPC   D2A26872  18.555  41.895   8.217
 1879POPC   C3A26873  18.241  42.006   7.929
 1879POPC   C4A26874  18.061  42.387   7.799
 1879POPC   C1B26875  18.191  42.486   8.714
 1879POPC   C2B26876  18.096  42.634   8.286
 1879POPC   C3B26877  18.465  42.620   8.040
 1879POPC   C4B26878  18.726  42.499   7.697
 1880POPC   NC326879  15.836  34.320   9.776
 1880POPC   PO426880  15.846  33.686   9.529
 1880POPC   GL126881  15.780  33.790   9.101
 1880POPC   GL226882  15.517  33.994   9.052
 1880POPC   C1A26883  15.908  33.886   8.671
 1880POPC   D2A26884  16.188  33.791   8.309
 1880POPC   C3A26885  16.101  33.970   7.920
 1880POPC   C4A26886  15.961  33.655   7.652
 1880POPC   C1B26887  15.286  34.132   8.748
 1880POPC   C2B26888  15.407  33.844   8.489
 1880POPC   C3B26889  15.674  33.912   8.202
 1880POPC   C4B26890  15.585  33.931   7.825
 1881POPC   NC326891  35.119  36.241   9.468
 1881POPC   PO426892  35.726  36.053   9.552
 1881POPC   GL126893  35.502  36.164   9.152
 1881POPC   GL226894  35.233  35.994   9.041
 1881POPC   C1A26895  35.538  36.305   8.743
 1881POPC   D2A26896  35.416  36.036   8.366
 1881POPC   C3A26897  35.432  36.250   7.993
 1881POPC   C4A26898  35.223  36.232   7.610
 1881POPC   C1B26899  35.042  36.191   8.677
 1881POPC   C2B26900  34.911  36.037   8.258
 1881POPC   C3B26901  34.916  35.839   7.831
 1881POPC   C4B26902  35.184  35.761   7.449
 1882POPC   NC326903  24.169  16.632   9.483
 1882POPC   PO426904  24.624  17.148   9.723
 1882POPC   GL126905  24.573  16.896   9.348
 1882POPC   GL226906  24.637  16.515   9.357
 1882POPC   C1A26907  24.435  16.797   8.905
 1882POPC   D2A26908  24.404  16.962   8.476
 1882POPC   C3A26909  24.376  16.757   8.102
 1882POPC   C4A26910  24.308  16.933   7.717
 1882POPC   C1B26911  24.693  16.359   8.931
 1882POPC   C2B26912  24.763  16.579   8.541
 1882POPC   C3B26913  24.800  16.463   8.094
 1882POPC   C4B26914  24.563  16.470   7.704
 1883POPC   NC326915  30.852   8.640   9.384
 1883POPC   PO426916  30.360   8.228   9.387
 1883POPC   GL126917  30.643   8.069   9.101
 1883POPC   GL226918  30.998   8.120   9.202
 1883POPC   C1A26919  30.541   8.046   8.678
 1883POPC   D2A26920  30.595   7.869   8.308
 1883POPC   C3A26921  30.464   8.124   7.975
 1883POPC   C4A26922  30.668   8.181   7.560
 1883POPC   C1B26923  30.966   8.301   8.782
 1883POPC   C2B26924  30.946   8.277   8.341
 1883POPC   C3B26925  30.850   8.456   7.951
 1883POPC   C4B26926  30.683   8.674   7.561
 1884POPC   NC326927  43.604  16.968   9.502
 1884POPC   PO426928  43.881  16.319   9.525
 1884POPC   GL126929  43.767  16.540   9.134
 1884POPC   GL226930  43.896  16.876   9.069
 1884POPC   C1A26931  43.695  16.670   8.673
 1884POPC   D2A26932  43.507  16.689   8.258
 1884POPC   C3A26933  43.845  16.659   8.005
 1884POPC   C4A26934  43.964  16.487   7.650
 1884POPC   C1B26935  44.142  17.105   8.754
 1884POPC   C2B26936  44.105  17.081   8.297
 1884POPC   C3B26937  44.221  17.112   7.867
 1884POPC   C4B26938  44.327  17.074   7.412
 1885POPC   NC326939  17.332  30.365   9.598
 1885POPC   PO426940  17.730  30.911   9.784
 1885POPC   GL126941  17.601  30.843   9.317
 1885POPC   GL226942  17.603  30.547   9.199
 1885POPC   C1A26943  17.314  30.797   8.886
 1885POPC   D2A26944  17.411  30.855   8.456
 1885POPC   C3A26945  17.267  30.643   8.060
 1885POPC   C4A26946  17.553  30.758   7.722
 1885POPC   C1B26947  17.486  30.316   8.838
 1885POPC   C2B26948  17.743  30.269   8.506
 1885POPC   C3B26949  17.764  30.495   8.135
 1885POPC   C4B26950  17.845  30.338   7.740
 1886POPC   NC326951  11.989  27.800   9.578
 1886POPC   PO426952  12.579  27.352   9.505
 1886POPC   GL126953  12.275  27.542   9.245
 1886POPC   GL226954  12.105  27.351   8.994
 1886POPC   C1A26955  12.252  27.831   8.895
 1886POPC   D2A26956  12.001  27.818   8.499
 1886POPC   C3A26957  12.090  27.620   8.097
 1886POPC   C4A26958  11.859  27.607   7.719
 1886POPC   C1B26959  12.058  27.267   8.540
 1886POPC   C2B26960  12.386  27.186   8.233
 1886POPC   C3B26961  12.464  27.335   7.820
 1886POPC   C4B26962  12.225  27.390   7.438
 1887POPC   NC326963  33.014   7.671   9.514
 1887POPC   PO426964  33.393   7.039   9.535
 1887POPC   GL126965  33.240   7.212   9.153
 1887POPC   GL226966  33.262   7.562   9.107
 1887POPC   C1A26967  33.051   7.197   8.738
 1887POPC   D2A26968  32.834   7.327   8.353
 1887POPC   C3A26969  33.035   7.195   7.969
 1887POPC   C4A26970  33.429   7.183   7.757
 1887POPC   C1B26971  32.969   7.709   8.804
 1887POPC   C2B26972  32.923   7.829   8.379
 1887POPC   C3B26973  32.866   7.676   7.962
 1887POPC   C4B26974  33.098   7.584   7.590
 1888POPC   NC326975  10.832   3.060   9.376
 1888POPC   PO426976  10.293   2.946   9.716
 1888POPC   GL126977  10.322   2.859   9.234
 1888POPC   GL226978  10.424   3.168   9.107
 1888POPC   C1A26979  10.394   2.766   8.769
 1888POPC   D2A26980  10.778   2.772   8.463
 1888POPC   C3A26981  10.686   2.705   8.015
 1888POPC   C4A26982  10.301   2.760   7.745
 1888POPC   C1B26983  10.636   3.224   8.709
 1888POPC   C2B26984  10.345   3.147   8.379
 1888POPC   C3B26985  10.377   3.235   7.949
 1888POPC   C4B26986  10.713   3.110   7.695
 1889POPC   NC326987   8.744  25.231   9.507
 1889POPC   PO426988   9.389  25.204   9.470
 1889POPC   GL126989   9.085  25.205   9.130
 1889POPC   GL226990   8.871  25.523   9.104
 1889POPC   C1A26991   8.955  25.186   8.709
 1889POPC   D2A26992   8.968  25.508   8.392
 1889POPC   C3A26993   8.849  25.287   8.048
 1889POPC   C4A26994   8.834  24.896   7.877
 1889POPC   C1B26995   8.567  25.507   8.762
 1889POPC   C2B26996   8.435  25.532   8.314
 1889POPC   C3B26997   8.512  25.596   7.856
 1889POPC   C4B26998   8.892  25.489   7.564
 1890POPC   NC326999  42.531  26.334   9.457
 1890POPC   PO427000  42.006  25.889   9.514
 1890POPC   GL127001  42.017  26.074   9.123
 1890POPC   GL227002  42.209  26.359   9.078
 1890POPC   C1A27003  42.054  26.094   8.708
 1890POPC   D2A27004  42.160  25.843   8.430
 1890POPC   C3A27005  42.123  26.027   8.065
 1890POPC   C4A27006  42.411  25.949   7.783
 1890POPC   C1B27007  42.546  26.176   8.770
 1890POPC   C2B27008  42.572  26.142   8.308
 1890POPC   C3B27009  42.768  26.274   7.927
 1890POPC   C4B27010  42.702  26.233   7.465
 1891POPC   NC327011  42.470  22.419   9.468
 1891POPC   PO427012  42.460  21.767   9.680
 1891POPC   GL127013  42.330  21.865   9.230
 1891POPC   GL227014  42.303  22.181   9.014
 1891POPC   C1A27015  42.321  21.721   8.801
 1891POPC   D2A27016  42.503  22.013   8.513
 1891POPC   C3A27017  42.290  22.053   8.135
 1891POPC   C4A27018  42.142  21.977   7.731
 1891POPC   C1B27019  42.377  22.511   8.736
 1891POPC   C2B27020  42.412  22.552   8.300
 1891POPC   C3B27021  42.451  22.476   7.876
 1891POPC   C4B27022  42.105  22.484   7.659
 1892POPC   NC327023  36.119  12.276   9.423
 1892POPC   PO427024  35.924  11.776   9.734
 1892POPC   GL127025  35.940  11.918   9.122
 1892POPC   GL227026  36.276  12.115   8.948
 1892POPC   C1A27027  35.876  12.141   8.659
 1892POPC   D2A27028  36.198  12.411   8.414
 1892POPC   C3A27029  36.215  12.433   7.947
 1892POPC   C4A27030  36.119  12.204   7.555
 1892POPC   C1B27031  36.279  11.777   8.694
 1892POPC   C2B27032  36.127  11.790   8.298
 1892POPC   C3B27033  36.324  11.926   7.927
 1892POPC   C4B27034  36.420  11.815   7.482
 1893POPC   NC327035   6.430  12.435   9.750
 1893POPC   PO427036   6.531  11.856   9.414
 1893POPC   GL127037   6.553  12.021   9.035
 1893POPC   GL227038   6.488  12.370   9.089
 1893POPC   C1A27039   6.554  12.046   8.635
 1893POPC   D2A27040   6.303  12.148   8.336
 1893POPC   C3A27041   6.480  12.053   7.991
 1893POPC   C4A27042   6.567  11.849   7.622
 1893POPC   C1B27043   6.758  12.493   8.783
 1893POPC   C2B27044   7.006  12.290   8.464
 1893POPC   C3B27045   7.026  12.459   8.056
 1893POPC   C4B27046   6.804  12.328   7.688
 1894POPC   NC327047  24.012  25.837   9.632
 1894POPC   PO427048  23.379  25.948   9.626
 1894POPC   GL127049  23.500  25.988   9.213
 1894POPC   GL227050  23.648  25.661   9.220
 1894POPC   C1A27051  23.643  26.131   8.793
 1894POPC   D2A27052  23.392  26.077   8.387
 1894POPC   C3A27053  23.541  26.163   7.953
 1894POPC   C4A27054  23.568  26.434   7.580
 1894POPC   C1B27055  23.678  25.634   8.765
 1894POPC   C2B27056  23.863  25.852   8.389
 1894POPC   C3B27057  23.886  25.771   7.946
 1894POPC   C4B27058  23.533  25.556   7.796
 1895POPC   NC327059  18.858  17.349   9.523
 1895POPC   PO427060  18.179  17.369   9.600
 1895POPC   GL127061  18.274  17.517   9.163
 1895POPC   GL227062  18.579  17.746   9.152
 1895POPC   C1A27063  18.235  17.555   8.689
 1895POPC   D2A27064  18.446  17.504   8.256
 1895POPC   C3A27065  18.214  17.375   7.842
 1895POPC   C4A27066  18.166  16.980   7.560
 1895POPC   C1B27067  18.487  18.000   8.774
 1895POPC   C2B27068  18.239  17.976   8.370
 1895POPC   C3B27069  18.368  17.941   7.947
 1895POPC   C4B27070  18.480  17.886   7.466
 1896POPC   NC327071  14.446  36.083   9.521
 1896POPC   PO427072  13.978  35.652   9.433
 1896POPC   GL127073  14.066  35.984   9.141
 1896POPC   GL227074  14.322  36.213   9.056
 1896POPC   C1A27075  14.133  35.884   8.734
 1896POPC   D2A27076  14.162  36.097   8.378
 1896POPC   C3A27077  14.252  35.849   8.027
 1896POPC   C4A27078  14.169  36.077   7.666
 1896POPC   C1B27079  14.557  36.210   8.682
 1896POPC   C2B27080  14.676  36.025   8.295
 1896POPC   C3B27081  14.647  36.159   7.874
 1896POPC   C4B27082  14.615  36.165   7.444
 1897POPC   NC327083  42.211  44.348   9.698
 1897POPC   PO427084  42.762  44.718   9.474
 1897POPC   GL127085  42.448  44.520   9.152
 1897POPC   GL227086  42.097  44.475   9.214
 1897POPC   C1A27087  42.406  44.668   8.732
 1897POPC   D2A27088  42.506  44.907   8.347
 1897POPC   C3A27089  42.673  44.831   7.910
 1897POPC   C4A27090  42.357  44.743   7.569
 1897POPC   C1B27091  41.980  44.384   8.790
 1897POPC   C2B27092  42.110  44.420   8.396
 1897POPC   C3B27093  42.156  44.588   8.019
 1897POPC   C4B27094  42.076  44.346   7.667
 1898POPC   NC327095  15.457  25.252   9.359
 1898POPC   PO427096  14.782  25.511   9.423
 1898POPC   GL127097  15.004  25.182   9.147
 1898POPC   GL227098  15.048  25.463   8.921
 1898POPC   C1A27099  15.263  25.037   8.766
 1898POPC   D2A27100  15.318  25.250   8.368
 1898POPC   C3A27101  15.393  25.084   8.000
 1898POPC   C4A27102  15.066  25.132   7.775
 1898POPC   C1B27103  15.484  25.534   8.761
 1898POPC   C2B27104  15.686  25.602   8.344
 1898POPC   C3B27105  15.647  25.532   7.921
 1898POPC   C4B27106  15.434  25.370   7.561
 1899POPC   NC327107  36.300   6.877   9.455
 1899POPC   PO427108  35.719   6.533   9.398
 1899POPC   GL127109  35.891   6.806   9.125
 1899POPC   GL227110  36.170   6.569   9.049
 1899POPC   C1A27111  36.086   7.020   8.794
 1899POPC   D2A27112  36.179   6.870   8.404
 1899POPC   C3A27113  35.974   6.922   8.000
 1899POPC   C4A27114  35.977   6.493   7.803
 1899POPC   C1B27115  36.543   6.441   8.821
 1899POPC   C2B27116  36.627   6.604   8.444
 1899POPC   C3B27117  36.464   6.600   8.039
 1899POPC   C4B27118  36.615   6.306   7.719
 1900POPC   NC327119  28.397  33.991   9.501
 1900POPC   PO427120  28.193  33.375   9.734
 1900POPC   GL127121  28.128  33.573   9.251
 1900POPC   GL227122  28.422  33.678   9.067
 1900POPC   C1A27123  28.048  33.839   8.799
 1900POPC   D2A27124  28.190  34.033   8.380
 1900POPC   C3A27125  28.334  33.766   8.019
 1900POPC   C4A27126  28.380  33.700   7.552
 1900POPC   C1B27127  28.553  33.984   8.784
 1900POPC   C2B27128  28.703  34.112   8.394
 1900POPC   C3B27129  28.601  34.205   8.012
 1900POPC   C4B27130  28.776  34.013   7.659
 1901POPC   NC327131  34.254  14.055   9.349
 1901POPC   PO427132  34.472  13.449   9.481
 1901POPC   GL127133  34.552  13.693   9.137
 1901POPC   GL227134  34.226  13.617   9.051
 1901POPC   C1A27135  34.464  13.919   8.724
 1901POPC   D2A27136  34.307  13.706   8.369
 1901POPC   C3A27137  34.493  13.769   7.977
 1901POPC   C4A27138  34.734  13.921   7.574
 1901POPC   C1B27139  34.096  13.328   8.710
 1901POPC   C2B27140  34.177  13.201   8.293
 1901POPC   C3B27141  34.246  13.326   7.887
 1901POPC   C4B27142  34.240  13.669   7.571
 1902POPC   NC327143  15.616  35.469   9.600
 1902POPC   PO427144  14.985  35.550   9.363
 1902POPC   GL127145  15.197  35.368   9.045
 1902POPC   GL227146  15.539  35.258   9.128
 1902POPC   C1A27147  15.060  35.271   8.632
 1902POPC   D2A27148  14.868  34.957   8.356
 1902POPC   C3A27149  14.809  35.113   7.930
 1902POPC   C4A27150  14.986  35.282   7.555
 1902POPC   C1B27151  15.594  35.549   8.780
 1902POPC   C2B27152  15.390  35.620   8.368
 1902POPC   C3B27153  15.251  35.497   7.958
 1902POPC   C4B27154  15.424  35.151   7.777
 1903POPC   NC327155   5.448  15.709   9.347
 1903POPC   PO427156   4.922  16.118   9.502
 1903POPC   GL127157   4.943  15.767   9.163
 1903POPC   GL227158   5.116  16.000   8.950
 1903POPC   C1A27159   4.941  15.609   8.706
 1903POPC   D2A27160   5.054  15.770   8.286
 1903POPC   C3A27161   4.959  15.766   7.857
 1903POPC   C4A27162   5.229  15.907   7.506
 1903POPC   C1B27163   4.770  16.084   8.593
 1903POPC   C2B27164   4.768  16.218   8.128
 1903POPC   C3B27165   4.919  16.256   7.703
 1903POPC   C4B27166   5.315  16.406   7.495
 1904POPC   NC327167  15.744  10.696   9.286
 1904POPC   PO427168  16.267  11.062   9.578
 1904POPC   GL127169  15.993  11.121   9.169
 1904POPC   GL227170  15.651  11.267   9.114
 1904POPC   C1A27171  15.934  11.168   8.704
 1904POPC   D2A27172  16.085  11.335   8.305
 1904POPC   C3A27173  15.822  11.260   7.924
 1904POPC   C4A27174  15.758  10.865   7.730
 1904POPC   C1B27175  15.709  11.612   8.719
 1904POPC   C2B27176  15.794  11.743   8.234
 1904POPC   C3B27177  16.126  11.657   7.882
 1904POPC   C4B27178  16.355  11.531   7.487
 1905POPC   NC327179  28.861  42.381   9.531
 1905POPC   PO427180  29.416  42.791   9.478
 1905POPC   GL127181  29.290  42.449   9.199
 1905POPC   GL227182  29.448  42.122   9.095
 1905POPC   C1A27183  29.113  42.386   8.800
 1905POPC   D2A27184  29.138  42.629   8.419
 1905POPC   C3A27185  28.998  42.491   8.022
 1905POPC   C4A27186  28.708  42.689   7.801
 1905POPC   C1B27187  29.220  41.893   8.727
 1905POPC   C2B27188  29.157  42.106   8.338
 1905POPC   C3B27189  29.479  42.383   8.127
 1905POPC   C4B27190  29.410  42.494   7.704
 1906POPC   NC327191  33.638   1.852   9.731
 1906POPC   PO427192  34.058   2.210   9.529
 1906POPC   GL127193  34.192   1.967   9.141
 1906POPC   GL227194  34.167   2.290   9.020
 1906POPC   C1A27195  34.144   1.642   8.781
 1906POPC   D2A27196  33.795   1.555   8.492
 1906POPC   C3A27197  33.876   1.619   8.048
 1906POPC   C4A27198  33.838   1.995   7.799
 1906POPC   C1B27199  33.868   2.070   8.760
 1906POPC   C2B27200  33.867   2.062   8.329
 1906POPC   C3B27201  33.810   2.423   8.074
 1906POPC   C4B27202  33.913   2.499   7.669
 1907POPC   NC327203  17.175  40.446   9.916
 1907POPC   PO427204  17.573  40.914   9.636
 1907POPC   GL127205  17.717  40.681   9.262
 1907POPC   GL227206  17.425  40.811   9.104
 1907POPC   C1A27207  17.836  40.801   8.821
 1907POPC   D2A27208  17.759  41.048   8.433
 1907POPC   C3A27209  17.677  40.782   8.091
 1907POPC   C4A27210  17.737  40.675   7.660
 1907POPC   C1B27211  17.433  40.501   8.770
 1907POPC   C2B27212  17.175  40.440   8.450
 1907POPC   C3B27213  17.328  40.414   8.084
 1907POPC   C4B27214  17.243  40.614   7.714
 1908POPC   NC327215  10.247   1.267   9.542
 1908POPC   PO427216   9.556   1.459   9.561
 1908POPC   GL127217   9.574   1.176   9.212
 1908POPC   GL227218   9.925   1.193   9.165
 1908POPC   C1A27219   9.571   1.140   8.757
 1908POPC   D2A27220   9.617   0.898   8.380
 1908POPC   C3A27221   9.412   1.036   8.031
 1908POPC   C4A27222   9.489   1.398   7.778
 1908POPC   C1B27223  10.007   1.449   8.838
 1908POPC   C2B27224   9.983   1.268   8.440
 1908POPC   C3B27225   9.925   1.200   8.009
 1908POPC   C4B27226  10.256   1.354   7.776
 1909POPC   NC327227  13.100   3.036   9.517
 1909POPC   PO427228  12.476   2.791   9.545
 1909POPC   GL127229  12.775   2.763   9.176
 1909POPC   GL227230  12.725   2.424   9.121
 1909POPC   C1A27231  12.910   2.820   8.717
 1909POPC   D2A27232  12.810   2.934   8.275
 1909POPC   C3A27233  12.878   2.720   7.887
 1909POPC   C4A27234  13.077   2.891   7.487
 1909POPC   C1B27235  12.518   2.480   8.709
 1909POPC   C2B27236  12.522   2.503   8.241
 1909POPC   C3B27237  12.462   2.414   7.768
 1909POPC   C4B27238  12.439   2.551   7.304
 1910POPC   NC327239  42.722  30.911   9.471
 1910POPC   PO427240  43.190  30.373   9.458
 1910POPC   GL127241  43.055  30.660   9.155
 1910POPC   GL227242  43.178  31.015   9.185
 1910POPC   C1A27243  43.098  30.706   8.726
 1910POPC   D2A27244  43.019  30.449   8.379
 1910POPC   C3A27245  43.179  30.678   8.080
 1910POPC   C4A27246  42.987  30.818   7.787
 1910POPC   C1B27247  42.875  31.152   8.840
 1910POPC   C2B27248  42.909  31.099   8.383
 1910POPC   C3B27249  42.635  31.108   8.005
 1910POPC   C4B27250  42.521  30.893   7.623
 1911POPC   NC327251  19.740  17.197   9.968
 1911POPC   PO427252  20.027  17.046   9.383
 1911POPC   GL127253  20.025  16.939   9.015
 1911POPC   GL227254  19.681  16.849   9.053
 1911POPC   C1A27255  20.095  16.713   8.651
 1911POPC   D2A27256  19.892  16.750   8.253
 1911POPC   C3A27257  20.038  16.739   7.825
 1911POPC   C4A27258  19.983  16.689   7.366
 1911POPC   C1B27259  19.591  16.658   8.680
 1911POPC   C2B27260  19.543  16.380   8.340
 1911POPC   C3B27261  19.607  16.465   7.893
 1911POPC   C4B27262  19.857  16.246   7.557
 1912POPC   NC327263   8.714  36.365   9.381
 1912POPC   PO427264   9.153  35.873   9.391
 1912POPC   GL127265   8.963  36.105   9.046
 1912POPC   GL227266   8.623  35.902   9.121
 1912POPC   C1A27267   9.050  36.388   8.683
 1912POPC   D2A27268   8.997  36.734   8.362
 1912POPC   C3A27269   9.125  36.564   7.946
 1912POPC   C4A27270   8.901  36.212   7.734
 1912POPC   C1B27271   8.581  36.073   8.711
 1912POPC   C2B27272   8.798  36.072   8.300
 1912POPC   C3B27273   8.664  35.817   7.941
 1912POPC   C4B27274   8.702  35.743   7.502
 1913POPC   NC327275  33.352  24.063   9.511
 1913POPC   PO427276  33.244  24.695   9.418
 1913POPC   GL127277  33.627  24.636   9.128
 1913POPC   GL227278  33.805  24.301   9.099
 1913POPC   C1A27279  33.695  24.690   8.674
 1913POPC   D2A27280  33.717  24.443   8.316
 1913POPC   C3A27281  33.603  24.544   7.920
 1913POPC   C4A27282  33.662  24.942   7.665
 1913POPC   C1B27283  34.036  24.284   8.695
 1913POPC   C2B27284  34.066  24.098   8.270
 1913POPC   C3B27285  34.091  24.299   7.845
 1913POPC   C4B27286  33.854  24.491   7.488
 1914POPC   NC327287  43.359  26.702   9.424
 1914POPC   PO427288  42.794  26.568   9.759
 1914POPC   GL127289  42.967  26.974   9.281
 1914POPC   GL227290  43.299  26.959   9.007
 1914POPC   C1A27291  42.843  26.923   8.797
 1914POPC   D2A27292  42.828  26.583   8.496
 1914POPC   C3A27293  43.070  26.659   8.138
 1914POPC   C4A27294  43.094  26.994   7.824
 1914POPC   C1B27295  43.578  26.621   8.789
 1914POPC   C2B27296  43.522  26.283   8.465
 1914POPC   C3B27297  43.508  26.395   8.022
 1914POPC   C4B27298  43.605  26.772   7.746
 1915POPC   NC327299  16.080  27.776   9.458
 1915POPC   PO427300  15.797  27.174   9.563
 1915POPC   GL127301  15.800  27.375   9.187
 1915POPC   GL227302  16.141  27.327   9.126
 1915POPC   C1A27303  15.872  27.680   8.853
 1915POPC   D2A27304  16.106  27.807   8.514
 1915POPC   C3A27305  15.923  27.594   8.178
 1915POPC   C4A27306  15.977  27.625   7.772
 1915POPC   C1B27307  16.353  27.347   8.738
 1915POPC   C2B27308  16.429  27.469   8.329
 1915POPC   C3B27309  16.355  27.367   7.945
 1915POPC   C4B27310  16.524  27.225   7.614
 1916POPC   NC327311  14.203   7.897   9.382
 1916POPC   PO427312  14.662   8.386   9.481
 1916POPC   GL127313  14.526   8.210   9.119
 1916POPC   GL227314  14.649   7.853   9.146
 1916POPC   C1A27315  14.356   8.226   8.692
 1916POPC   D2A27316  14.327   7.995   8.298
 1916POPC   C3A27317  14.473   8.206   7.920
 1916POPC   C4A27318  14.406   8.150   7.478
 1916POPC   C1B27319  14.494   7.723   8.764
 1916POPC   C2B27320  14.642   7.571   8.391
 1916POPC   C3B27321  14.811   7.803   8.058
 1916POPC   C4B27322  14.825   7.908   7.641
 1917POPC   NC327323  38.660  34.267   9.387
 1917POPC   PO427324  38.342  33.725   9.717
 1917POPC   GL127325  38.514  33.663   9.217
 1917POPC   GL227326  38.621  33.960   8.963
 1917POPC   C1A27327  38.589  33.509   8.744
 1917POPC   D2A27328  38.696  33.884   8.442
 1917POPC   C3A27329  38.481  34.023   8.054
 1917POPC   C4A27330  38.590  33.809   7.654
 1917POPC   C1B27331  38.233  33.876   8.667
 1917POPC   C2B27332  38.123  33.523   8.428
 1917POPC   C3B27333  38.239  33.570   8.002
 1917POPC   C4B27334  38.085  33.839   7.710
 1918POPC   NC327335  43.597  34.758   9.550
 1918POPC   PO427336  42.984  34.563   9.501
 1918POPC   GL127337  43.065  34.540   9.123
 1918POPC   GL227338  43.314  34.763   9.099
 1918POPC   C1A27339  42.911  34.518   8.746
 1918POPC   D2A27340  43.073  34.629   8.346
 1918POPC   C3A27341  42.886  34.350   8.055
 1918POPC   C4A27342  42.934  34.337   7.595
 1918POPC   C1B27343  43.405  34.479   8.737
 1918POPC   C2B27344  43.548  34.262   8.371
 1918POPC   C3B27345  43.412  34.366   7.970
 1918POPC   C4B27346  43.172  34.718   7.828
 1919POPC   NC327347  30.316  40.219   9.451
 1919POPC   PO427348  29.711  40.083   9.429
 1919POPC   GL127349  29.888  39.881   9.116
 1919POPC   GL227350  30.123  40.117   8.997
 1919POPC   C1A27351  29.738  39.892   8.709
 1919POPC   D2A27352  29.801  40.079   8.329
 1919POPC   C3A27353  29.762  39.750   8.045
 1919POPC   C4A27354  29.678  39.811   7.647
 1919POPC   C1B27355  30.498  40.345   8.857
 1919POPC   C2B27356  30.586  40.383   8.445
 1919POPC   C3B27357  30.247  40.415   8.123
 1919POPC   C4B27358  30.110  40.091   7.822
 1920POPC   NC327359  44.405  22.574   9.559
 1920POPC   PO427360  44.844  23.052   9.694
 1920POPC   GL127361  44.581  22.994   9.303
 1920POPC   GL227362  44.714  22.690   9.164
 1920POPC   C1A27363  44.420  22.993   8.845
 1920POPC   D2A27364  44.364  22.861   8.410
 1920POPC   C3A27365  44.661  22.985   8.090
 1920POPC   C4A27366  44.880  22.747   7.799
 1920POPC   C1B27367  44.411  22.464   8.882
 1920POPC   C2B27368  44.332  22.345   8.454
 1920POPC   C3B27369  44.429  22.510   8.022
 1920POPC   C4B27370  44.420  22.584   7.548
 1921POPC   NC327371  37.015   8.554   9.486
 1921POPC   PO427372  36.604   7.995   9.448
 1921POPC   GL127373  36.739   8.210   9.115
 1921POPC   GL227374  37.083   8.230   9.100
 1921POPC   C1A27375  36.828   8.025   8.712
 1921POPC   D2A27376  37.098   8.009   8.382
 1921POPC   C3A27377  36.851   8.021   7.998
 1921POPC   C4A27378  36.758   8.098   7.583
 1921POPC   C1B27379  37.213   8.482   8.759
 1921POPC   C2B27380  37.327   8.488   8.330
 1921POPC   C3B27381  37.137   8.451   7.910
 1921POPC   C4B27382  37.099   8.458   7.444
 1922POPC   NC327383  10.245  13.047   9.462
 1922POPC   PO427384  10.683  12.552   9.519
 1922POPC   GL127385  10.462  12.723   9.118
 1922POPC   GL227386  10.092  12.784   9.062
 1922POPC   C1A27387  10.429  12.620   8.665
 1922POPC   D2A27388  10.828  12.583   8.465
 1922POPC   C3A27389  10.862  12.717   8.056
 1922POPC   C4A27390  10.590  12.798   7.684
 1922POPC   C1B27391  10.261  13.090   8.774
 1922POPC   C2B27392  10.111  12.923   8.393
 1922POPC   C3B27393  10.358  12.729   8.128
 1922POPC   C4B27394  10.283  13.115   7.920
 1923POPC   NC327395  41.672  32.068   9.563
 1923POPC   PO427396  41.243  32.615   9.411
 1923POPC   GL127397  41.352  32.269   9.143
 1923POPC   GL227398  41.642  32.236   9.049
 1923POPC   C1A27399  41.376  31.957   8.737
 1923POPC   D2A27400  41.475  32.295   8.478
 1923POPC   C3A27401  41.370  32.454   8.094
 1923POPC   C4A27402  41.492  32.338   7.708
 1923POPC   C1B27403  41.898  32.384   8.753
 1923POPC   C2B27404  42.082  32.455   8.383
 1923POPC   C3B27405  41.893  32.483   8.006
 1923POPC   C4B27406  42.000  32.278   7.644
 1924POPC   NC327407   7.216  38.097   9.568
 1924POPC   PO427408   7.671  38.659   9.445
 1924POPC   GL127409   7.460  38.433   9.105
 1924POPC   GL227410   7.500  38.099   9.114
 1924POPC   C1A27411   7.512  38.311   8.662
 1924POPC   D2A27412   7.544  38.494   8.267
 1924POPC   C3A27413   7.673  38.435   7.863
 1924POPC   C4A27414   7.424  38.211   7.697
 1924POPC   C1B27415   7.788  37.909   8.785
 1924POPC   C2B27416   7.875  38.074   8.341
 1924POPC   C3B27417   7.795  37.915   7.914
 1924POPC   C4B27418   7.830  37.999   7.467
 1925POPC   NC327419  31.563  37.846   9.466
 1925POPC   PO427420  31.595  37.145   9.462
 1925POPC   GL127421  31.547  37.400   9.114
 1925POPC   GL227422  31.303  37.670   9.017
 1925POPC   C1A27423  31.643  37.488   8.681
 1925POPC   D2A27424  31.546  37.659   8.298
 1925POPC   C3A27425  31.575  37.439   7.916
 1925POPC   C4A27426  31.606  37.658   7.512
 1925POPC   C1B27427  31.318  37.971   8.637
 1925POPC   C2B27428  31.244  38.138   8.241
 1925POPC   C3B27429  31.326  37.895   7.897
 1925POPC   C4B27430  31.111  37.721   7.615
 1926POPC   NC327431  14.997  25.881   9.605
 1926POPC   PO427432  15.286  26.454   9.484
 1926POPC   GL127433  15.079  26.187   9.187
 1926POPC   GL227434  15.274  25.861   9.177
 1926POPC   C1A27435  14.819  26.327   8.802
 1926POPC   D2A27436  14.686  26.380   8.353
 1926POPC   C3A27437  14.988  26.173   8.093
 1926POPC   C4A27438  14.866  25.926   7.737
 1926POPC   C1B27439  15.217  25.979   8.739
 1926POPC   C2B27440  15.111  25.726   8.379
 1926POPC   C3B27441  15.164  25.600   7.960
 1926POPC   C4B27442  15.350  25.861   7.602
 1927POPC   NC327443  41.295  17.127   9.362
 1927POPC   PO427444  41.608  17.741   9.556
 1927POPC   GL127445  41.850  17.642   9.188
 1927POPC   GL227446  41.644  17.359   9.065
 1927POPC   C1A27447  41.868  17.630   8.703
 1927POPC   D2A27448  41.865  17.297   8.349
 1927POPC   C3A27449  41.795  17.432   7.910
 1927POPC   C4A27450  41.741  17.610   7.487
 1927POPC   C1B27451  41.270  17.346   8.762
 1927POPC   C2B27452  41.080  17.270   8.374
 1927POPC   C3B27453  41.310  17.236   8.012
 1927POPC   C4B27454  41.418  17.214   7.580
 1928POPC   NC327455  24.015   0.397   9.745
 1928POPC   PO427456  24.577   0.668   9.423
 1928POPC   GL127457  24.387   0.437   9.141
 1928POPC   GL227458  24.160   0.701   9.085
 1928POPC   C1A27459  24.527   0.354   8.731
 1928POPC   D2A27460  24.666   0.545   8.350
 1928POPC   C3A27461  24.473   0.442   7.974
 1928POPC   C4A27462  24.585   0.651   7.593
 1928POPC   C1B27463  24.324   0.843   8.711
 1928POPC   C2B27464  24.380   0.961   8.283
 1928POPC   C3B27465  24.183   0.859   7.873
 1928POPC   C4B27466  24.087   0.978   7.426
 1929POPC   NC327467  21.801  43.146   9.476
 1929POPC   PO427468  21.287  43.507   9.616
 1929POPC   GL127469  21.366  43.284   9.214
 1929POPC   GL227470  21.390  42.954   9.200
 1929POPC   C1A27471  21.499  43.276   8.769
 1929POPC   D2A27472  21.344  43.175   8.385
 1929POPC   C3A27473  21.549  43.448   8.087
 1929POPC   C4A27474  21.473  43.589   7.707
 1929POPC   C1B27475  21.107  42.960   8.849
 1929POPC   C2B27476  21.006  42.771   8.444
 1929POPC   C3B27477  21.182  42.816   8.045
 1929POPC   C4B27478  21.050  42.965   7.672
 1930POPC   NC327479  13.625  36.237   9.623
 1930POPC   PO427480  13.354  35.690   9.683
 1930POPC   GL127481  13.580  35.930   9.240
 1930POPC   GL227482  13.642  36.320   9.145
 1930POPC   C1A27483  13.527  35.994   8.783
 1930POPC   D2A27484  13.720  35.858   8.417
 1930POPC   C3A27485  13.770  36.059   8.015
 1930POPC   C4A27486  13.422  36.043   7.713
 1930POPC   C1B27487  13.879  36.366   8.789
 1930POPC   C2B27488  13.633  36.390   8.408
 1930POPC   C3B27489  13.541  36.512   7.981
 1930POPC   C4B27490  13.873  36.489   7.675
 1931POPC   NC327491  30.372  38.523   9.395
 1931POPC   PO427492  29.754  38.429   9.461
 1931POPC   GL127493  29.963  38.580   9.087
 1931POPC   GL227494  29.794  38.424   8.803
 1931POPC   C1A27495  30.051  38.855   8.735
 1931POPC   D2A27496  29.972  38.681   8.316
 1931POPC   C3A27497  29.912  38.857   7.900
 1931POPC   C4A27498  30.018  38.844   7.445
 1931POPC   C1B27499  30.188  38.173   8.761
 1931POPC   C2B27500  30.446  38.088   8.400
 1931POPC   C3B27501  30.167  38.270   8.072
 1931POPC   C4B27502  29.756  38.192   7.868
 1932POPC   NC327503  33.223   1.083   9.536
 1932POPC   PO427504  32.595   1.351   9.551
 1932POPC   GL127505  32.828   1.106   9.205
 1932POPC   GL227506  32.805   1.412   9.032
 1932POPC   C1A27507  33.007   1.041   8.761
 1932POPC   D2A27508  32.841   0.961   8.355
 1932POPC   C3A27509  32.991   1.162   8.016
 1932POPC   C4A27510  32.957   0.978   7.618
 1932POPC   C1B27511  32.575   1.265   8.662
 1932POPC   C2B27512  32.584   1.406   8.229
 1932POPC   C3B27513  32.571   1.285   7.773
 1932POPC   C4B27514  32.779   1.365   7.337
 1933POPC   NC327515   2.489  11.519   9.522
 1933POPC   PO427516   2.888  11.014   9.534
 1933POPC   GL127517   2.854  11.307   9.182
 1933POPC   GL227518   2.517  11.266   9.083
 1933POPC   C1A27519   3.064  11.490   8.808
 1933POPC   D2A27520   2.856  11.626   8.458
 1933POPC   C3A27521   2.948  11.381   8.111
 1933POPC   C4A27522   2.979  11.603   7.744
 1933POPC   C1B27523   2.692  11.171   8.692
 1933POPC   C2B27524   2.599  11.029   8.314
 1933POPC   C3B27525   2.309  11.182   8.099
 1933POPC   C4B27526   2.405  11.274   7.708
 1934POPC   NC327527   3.006  37.770   9.717
 1934POPC   PO427528   2.392  37.978   9.474
 1934POPC   GL127529   2.576  37.712   9.175
 1934POPC   GL227530   2.910  37.770   9.170
 1934POPC   C1A27531   2.621  37.460   8.807
 1934POPC   D2A27532   2.779  37.543   8.394
 1934POPC   C3A27533   2.708  37.294   8.015
 1934POPC   C4A27534   3.065  37.174   7.751
 1934POPC   C1B27535   2.855  38.049   8.763
 1934POPC   C2B27536   2.749  38.061   8.318
 1934POPC   C3B27537   2.765  37.808   7.929
 1934POPC   C4B27538   2.661  37.851   7.472
 1935POPC   NC327539  42.356  44.935   9.408
 1935POPC   PO427540  42.035   0.520   9.463
 1935POPC   GL127541  42.371   0.428   9.173
 1935POPC   GL227542  42.701   0.655   9.213
 1935POPC   C1A27543  42.358   0.203   8.764
 1935POPC   D2A27544  42.211   0.343   8.360
 1935POPC   C3A27545  42.354   0.224   7.970
 1935POPC   C4A27546  42.132   0.215   7.629
 1935POPC   C1B27547  42.575   0.687   8.780
 1935POPC   C2B27548  42.436   0.793   8.391
 1935POPC   C3B27549  42.559   0.744   8.016
 1935POPC   C4B27550  42.461   0.621   7.632
 1936POPC   NC327551  39.426  14.938   9.308
 1936POPC   PO427552  39.121  14.337   9.456
 1936POPC   GL127553  39.152  14.389   9.099
 1936POPC   GL227554  38.994  14.698   9.050
 1936POPC   C1A27555  39.408  14.205   8.798
 1936POPC   D2A27556  39.564  14.307   8.434
 1936POPC   C3A27557  39.262  14.387   8.156
 1936POPC   C4A27558  39.396  14.384   7.761
 1936POPC   C1B27559  39.035  14.538   8.642
 1936POPC   C2B27560  38.759  14.469   8.339
 1936POPC   C3B27561  38.798  14.586   7.934
 1936POPC   C4B27562  39.002  14.619   7.558
 1937POPC   NC327563  25.777  42.070   9.454
 1937POPC   PO427564  26.371  42.445   9.436
 1937POPC   GL127565  26.023  42.412   9.158
 1937POPC   GL227566  26.158  42.087   9.095
 1937POPC   C1A27567  25.878  42.329   8.709
 1937POPC   D2A27568  26.029  42.543   8.309
 1937POPC   C3A27569  25.809  42.493   7.915
 1937POPC   C4A27570  25.731  42.462   7.467
 1937POPC   C1B27571  26.375  42.358   8.791
 1937POPC   C2B27572  26.381  42.183   8.384
 1937POPC   C3B27573  26.045  42.036   8.129
 1937POPC   C4B27574  26.104  42.102   7.712
 1938POPC   NC327575   9.589  40.321   9.686
 1938POPC   PO427576   9.636  39.708   9.597
 1938POPC   GL127577   9.880  39.981   9.318
 1938POPC   GL227578  10.034  39.682   9.201
 1938POPC   C1A27579   9.867  40.171   8.895
 1938POPC   D2A27580  10.029  40.288   8.476
 1938POPC   C3A27581   9.744  40.272   8.114
 1938POPC   C4A27582   9.753  40.370   7.683
 1938POPC   C1B27583   9.650  39.619   8.946
 1938POPC   C2B27584   9.646  39.585   8.499
 1938POPC   C3B27585   9.687  39.743   8.058
 1938POPC   C4B27586   9.438  39.969   7.710
 1939POPC   NC327587  25.004  17.192   9.443
 1939POPC   PO427588  25.503  17.641   9.537
 1939POPC   GL127589  25.292  17.774   9.131
 1939POPC   GL227590  25.100  17.499   9.045
 1939POPC   C1A27591  25.258  17.731   8.624
 1939POPC   D2A27592  25.166  17.463   8.225
 1939POPC   C3A27593  25.525  17.352   7.918
 1939POPC   C4A27594  25.778  17.034   7.670
 1939POPC   C1B27595  24.774  17.649   8.776
 1939POPC   C2B27596  24.779  17.832   8.368
 1939POPC   C3B27597  24.821  17.693   7.925
 1939POPC   C4B27598  25.220  17.712   7.724
 1940POPC   NC327599  16.251  40.433   9.534
 1940POPC   PO427600  15.754  39.969   9.424
 1940POPC   GL127601  16.033  40.102   9.142
 1940POPC   GL227602  15.817  40.354   9.080
 1940POPC   C1A27603  15.955  39.972   8.722
 1940POPC   D2A27604  15.729  39.970   8.340
 1940POPC   C3A27605  16.020  40.018   8.006
 1940POPC   C4A27606  16.150  39.994   7.586
 1940POPC   C1B27607  15.595  40.327   8.718
 1940POPC   C2B27608  15.366  40.476   8.381
 1940POPC   C3B27609  15.425  40.244   8.015
 1940POPC   C4B27610  15.643  40.055   7.638
 1941POPC   NC327611   4.829  24.877   9.395
 1941POPC   PO427612   5.259  24.278   9.297
 1941POPC   GL127613   5.109  24.607   9.047
 1941POPC   GL227614   4.757  24.504   9.021
 1941POPC   C1A27615   5.078  24.563   8.619
 1941POPC   D2A27616   4.742  24.421   8.382
 1941POPC   C3A27617   4.900  24.342   8.003
 1941POPC   C4A27618   5.223  24.587   7.795
 1941POPC   C1B27619   4.738  24.909   8.771
 1941POPC   C2B27620   4.646  24.971   8.360
 1941POPC   C3B27621   4.801  24.915   7.917
 1941POPC   C4B27622   4.745  24.599   7.590
 1942POPC   NC327623  39.805  22.344   9.454
 1942POPC   PO427624  40.284  21.938   9.581
 1942POPC   GL127625  40.281  22.217   9.188
 1942POPC   GL227626  40.021  22.476   9.009
 1942POPC   C1A27627  40.220  22.090   8.751
 1942POPC   D2A27628  40.129  22.024   8.329
 1942POPC   C3A27629  40.261  22.302   8.009
 1942POPC   C4A27630  40.198  22.313   7.580
 1942POPC   C1B27631  39.750  22.441   8.627
 1942POPC   C2B27632  39.768  22.384   8.166
 1942POPC   C3B27633  39.726  22.276   7.745
 1942POPC   C4B27634  39.767  22.477   7.318
 1943POPC   NC327635  13.393  38.655   9.395
 1943POPC   PO427636  13.915  38.180   9.485
 1943POPC   GL127637  13.750  38.396   9.139
 1943POPC   GL227638  13.480  38.169   9.105
 1943POPC   C1A27639  13.733  38.695   8.779
 1943POPC   D2A27640  13.646  38.529   8.376
 1943POPC   C3A27641  13.561  38.674   7.965
 1943POPC   C4A27642  13.324  38.291   7.917
 1943POPC   C1B27643  13.344  38.344   8.758
 1943POPC   C2B27644  13.203  38.741   8.590
 1943POPC   C3B27645  13.103  38.796   8.155
 1943POPC   C4B27646  13.100  38.683   7.694
 1944POPC   NC327647  10.899  22.750   9.297
 1944POPC   PO427648  10.413  23.098   9.538
 1944POPC   GL127649  10.409  22.979   9.144
 1944POPC   GL227650  10.440  22.622   9.090
 1944POPC   C1A27651  10.542  23.123   8.770
 1944POPC   D2A27652  10.347  22.985   8.423
 1944POPC   C3A27653  10.534  23.118   8.100
 1944POPC   C4A27654  10.615  23.208   7.731
 1944POPC   C1B27655  10.304  22.532   8.674
 1944POPC   C2B27656  10.499  22.468   8.279
 1944POPC   C3B27657  10.480  22.652   7.895
 1944POPC   C4B27658  10.121  22.518   7.656
 1945POPC   NC327659   2.603  18.808   9.581
 1945POPC   PO427660   3.169  19.129   9.427
 1945POPC   GL127661   2.836  19.019   9.135
 1945POPC   GL227662   2.482  19.121   9.131
 1945POPC   C1A27663   2.821  19.196   8.713
 1945POPC   D2A27664   2.983  19.060   8.328
 1945POPC   C3A27665   2.955  19.276   7.960
 1945POPC   C4A27666   3.057  19.019   7.651
 1945POPC   C1B27667   2.308  19.174   8.723
 1945POPC   C2B27668   2.480  18.998   8.350
 1945POPC   C3B27669   2.546  18.994   7.935
 1945POPC   C4B27670   2.590  19.159   7.501
 1946POPC   NC327671   4.925   2.651   9.607
 1946POPC   PO427672   5.475   3.024   9.612
 1946POPC   GL127673   5.326   2.818   9.189
 1946POPC   GL227674   5.270   2.462   9.189
 1946POPC   C1A27675   5.177   2.828   8.735
 1946POPC   D2A27676   4.921   2.812   8.340
 1946POPC   C3A27677   5.023   2.969   7.926
 1946POPC   C4A27678   5.265   2.847   7.562
 1946POPC   C1B27679   5.252   2.324   8.759
 1946POPC   C2B27680   5.350   2.514   8.343
 1946POPC   C3B27681   5.212   2.492   7.943
 1946POPC   C4B27682   5.110   2.106   7.835
 1947POPC   NC327683  19.993  26.315   9.492
 1947POPC   PO427684  19.720  25.659   9.626
 1947POPC   GL127685  19.666  25.910   9.258
 1947POPC   GL227686  19.960  26.015   9.096
 1947POPC   C1A27687  19.528  26.049   8.834
 1947POPC   D2A27688  19.652  26.147   8.456
 1947POPC   C3A27689  19.440  25.988   8.115
 1947POPC   C4A27690  19.562  26.021   7.744
 1947POPC   C1B27691  20.020  26.334   8.781
 1947POPC   C2B27692  20.004  26.531   8.371
 1947POPC   C3B27693  19.911  26.270   8.031
 1947POPC   C4B27694  20.061  26.234   7.664
 1948POPC   NC327695  11.429  28.401   9.590
 1948POPC   PO427696  10.726  28.246   9.589
 1948POPC   GL127697  11.036  28.288   9.241
 1948POPC   GL227698  11.195  27.983   9.242
 1948POPC   C1A27699  11.103  28.540   8.830
 1948POPC   D2A27700  11.047  28.419   8.378
 1948POPC   C3A27701  11.424  28.492   8.096
 1948POPC   C4A27702  11.647  28.442   7.685
 1948POPC   C1B27703  11.018  28.021   8.799
 1948POPC   C2B27704  10.885  27.892   8.392
 1948POPC   C3B27705  11.078  27.994   8.005
 1948POPC   C4B27706  11.150  28.318   7.707
 1949POPC   NC327707   9.564   0.540   9.469
 1949POPC   PO427708  10.152   0.811   9.469
 1949POPC   GL127709   9.933   0.684   9.135
 1949POPC   GL227710   9.938   0.321   9.187
 1949POPC   C1A27711   9.684   0.600   8.800
 1949POPC   D2A27712   9.812   0.408   8.423
 1949POPC   C3A27713   9.895   0.622   8.044
 1949POPC   C4A27714   9.988   0.454   7.639
 1949POPC   C1B27715   9.964   0.092   8.819
 1949POPC   C2B27716  10.094  44.949   8.439
 1949POPC   C3B27717  10.003   0.108   8.052
 1949POPC   C4B27718   9.747  44.992   7.753
 1950POPC   NC327719  15.698  38.820   9.408
 1950POPC   PO427720  16.289  38.490   9.575
 1950POPC   GL127721  16.049  38.480   9.180
 1950POPC   GL227722  15.687  38.397   9.136
 1950POPC   C1A27723  16.056  38.521   8.709
 1950POPC   D2A27724  16.360  38.449   8.367
 1950POPC   C3A27725  16.223  38.469   7.911
 1950POPC   C4A27726  16.267  38.522   7.411
 1950POPC   C1B27727  15.389  38.634   8.836
 1950POPC   C2B27728  15.395  38.585   8.403
 1950POPC   C3B27729  15.736  38.646   8.080
 1950POPC   C4B27730  15.764  38.355   7.733
 1951POPC   NC327731  30.650  24.255   9.961
 1951POPC   PO427732  30.964  24.536   9.454
 1951POPC   GL127733  30.692  24.275   9.225
 1951POPC   GL227734  30.733  24.533   9.015
 1951POPC   C1A27735  30.789  24.098   8.811
 1951POPC   D2A27736  30.739  24.328   8.422
 1951POPC   C3A27737  30.802  24.153   8.064
 1951POPC   C4A27738  30.961  24.265   7.706
 1951POPC   C1B27739  30.791  24.757   8.688
 1951POPC   C2B27740  30.511  24.816   8.394
 1951POPC   C3B27741  30.671  24.694   8.039
 1951POPC   C4B27742  30.522  24.514   7.692
 1952POPC   NC327743  26.779  42.693   9.482
 1952POPC   PO427744  27.076  42.072   9.453
 1952POPC   GL127745  26.853  42.284   9.121
 1952POPC   GL227746  27.077  42.553   9.097
 1952POPC   C1A27747  26.824  42.202   8.663
 1952POPC   D2A27748  26.858  42.031   8.241
 1952POPC   C3A27749  26.608  42.086   7.894
 1952POPC   C4A27750  26.484  42.456   7.741
 1952POPC   C1B27751  26.837  42.713   8.761
 1952POPC   C2B27752  26.970  42.868   8.360
 1952POPC   C3B27753  26.923  42.632   7.990
 1952POPC   C4B27754  27.026  42.536   7.571
 1953POPC   NC327755  17.139  22.007   9.380
 1953POPC   PO427756  17.491  21.347   9.521
 1953POPC   GL127757  17.437  21.622   9.190
 1953POPC   GL227758  17.284  21.344   9.011
 1953POPC   C1A27759  17.610  21.664   8.778
 1953POPC   D2A27760  17.471  21.320   8.506
 1953POPC   C3A27761  17.451  21.440   8.070
 1953POPC   C4A27762  17.643  21.282   7.709
 1953POPC   C1B27763  17.119  21.722   8.747
 1953POPC   C2B27764  17.255  21.894   8.342
 1953POPC   C3B27765  17.062  21.757   7.938
 1953POPC   C4B27766  17.315  21.669   7.593
 1954POPC   NC327767  24.229  28.717   9.582
 1954POPC   PO427768  24.656  28.196   9.581
 1954POPC   GL127769  24.608  28.221   9.143
 1954POPC   GL227770  24.548  28.594   9.110
 1954POPC   C1A27771  24.649  28.244   8.690
 1954POPC   D2A27772  24.378  28.216   8.342
 1954POPC   C3A27773  24.608  28.152   7.994
 1954POPC   C4A27774  24.373  28.234   7.643
 1954POPC   C1B27775  24.363  28.667   8.694
 1954POPC   C2B27776  24.606  28.663   8.315
 1954POPC   C3B27777  24.506  28.647   7.885
 1954POPC   C4B27778  24.633  28.667   7.458
 1955POPC   NC327779  40.218  33.174   9.467
 1955POPC   PO427780  39.737  32.731   9.454
 1955POPC   GL127781  39.847  33.004   9.146
 1955POPC   GL227782  40.151  33.143   8.965
 1955POPC   C1A27783  39.721  32.999   8.748
 1955POPC   D2A27784  40.000  32.965   8.440
 1955POPC   C3A27785  39.838  32.923   8.045
 1955POPC   C4A27786  40.110  33.022   7.716
 1955POPC   C1B27787  39.953  33.445   8.693
 1955POPC   C2B27788  39.646  33.354   8.363
 1955POPC   C3B27789  39.755  33.443   7.946
 1955POPC   C4B27790  39.692  33.310   7.528
 1956POPC   NC327791   1.216  17.196   9.424
 1956POPC   PO427792   0.906  17.840   9.527
 1956POPC   GL127793   1.030  17.630   9.169
 1956POPC   GL227794   1.400  17.607   9.143
 1956POPC   C1A27795   1.071  17.755   8.756
 1956POPC   D2A27796   1.245  17.808   8.378
 1956POPC   C3A27797   1.041  17.756   8.008
 1956POPC   C4A27798   1.448  17.776   7.782
 1956POPC   C1B27799   1.324  17.308   8.798
 1956POPC   C2B27800   1.087  17.323   8.433
 1956POPC   C3B27801   1.310  17.338   8.069
 1956POPC   C4B27802   1.437  17.261   7.666
 1957POPC   NC327803   6.820   2.828   9.685
 1957POPC   PO427804   7.510   2.830   9.518
 1957POPC   GL127805   7.406   2.919   9.094
 1957POPC   GL227806   7.702   3.170   9.140
 1957POPC   C1A27807   7.387   2.667   8.685
 1957POPC   D2A27808   7.618   2.728   8.297
 1957POPC   C3A27809   7.335   2.703   7.964
 1957POPC   C4A27810   7.642   2.537   7.744
 1957POPC   C1B27811   7.730   3.020   8.727
 1957POPC   C2B27812   7.337   3.119   8.471
 1957POPC   C3B27813   7.373   3.195   8.086
 1957POPC   C4B27814   7.711   3.057   7.882
 1958POPC   NC327815  39.468  31.338   9.364
 1958POPC   PO427816  38.884  31.735   9.583
 1958POPC   GL127817  39.158  31.688   9.217
 1958POPC   GL227818  39.026  31.398   9.133
 1958POPC   C1A27819  39.386  31.632   8.787
 1958POPC   D2A27820  39.183  31.676   8.380
 1958POPC   C3A27821  39.360  31.696   7.973
 1958POPC   C4A27822  39.136  31.658   7.558
 1958POPC   C1B27823  38.959  31.345   8.710
 1958POPC   C2B27824  39.175  31.166   8.337
 1958POPC   C3B27825  39.314  31.190   7.905
 1958POPC   C4B27826  39.033  31.172   7.571
 1959POPC   NC327827  37.763  36.594   9.353
 1959POPC   PO427828  37.698  37.275   9.238
 1959POPC   GL127829  37.673  36.981   8.990
 1959POPC   GL227830  37.406  36.789   9.057
 1959POPC   C1A27831  37.729  37.072   8.570
 1959POPC   D2A27832  38.058  37.118   8.286
 1959POPC   C3A27833  37.949  36.800   7.983
 1959POPC   C4A27834  37.600  36.826   7.715
 1959POPC   C1B27835  37.524  36.603   8.655
 1959POPC   C2B27836  37.442  36.673   8.215
 1959POPC   C3B27837  37.233  36.483   7.860
 1959POPC   C4B27838  37.406  36.416   7.450
 1960POPC   NC327839  14.604  41.091   9.591
 1960POPC   PO427840  14.188  40.553   9.543
 1960POPC   GL127841  14.429  40.584   9.169
 1960POPC   GL227842  14.282  40.900   9.113
 1960POPC   C1A27843  14.434  40.400   8.758
 1960POPC   D2A27844  14.268  40.551   8.387
 1960POPC   C3A27845  14.458  40.780   8.087
 1960POPC   C4A27846  14.520  40.814   7.689
 1960POPC   C1B27847  14.489  40.911   8.714
 1960POPC   C2B27848  14.642  41.158   8.368
 1960POPC   C3B27849  14.841  41.132   7.985
 1960POPC   C4B27850  14.980  41.014   7.601
 1961POPC   NC327851  37.834  28.766   9.356
 1961POPC   PO427852  37.757  29.417   9.553
 1961POPC   GL127853  37.742  29.220   9.150
 1961POPC   GL227854  37.476  29.059   9.052
 1961POPC   C1A27855  37.826  28.916   8.733
 1961POPC   D2A27856  37.621  28.964   8.360
 1961POPC   C3A27857  37.900  28.978   8.032
 1961POPC   C4A27858  37.715  29.067   7.632
 1961POPC   C1B27859  37.534  29.388   8.730
 1961POPC   C2B27860  37.397  29.429   8.364
 1961POPC   C3B27861  37.549  29.385   8.001
 1961POPC   C4B27862  37.350  29.450   7.642
 1962POPC   NC327863  44.297  33.902   9.540
 1962POPC   PO427864  44.978  33.854   9.514
 1962POPC   GL127865  44.638  33.783   9.189
 1962POPC   GL227866  44.361  33.513   9.214
 1962POPC   C1A27867  44.659  33.941   8.767
 1962POPC   D2A27868  44.576  34.118   8.361
 1962POPC   C3A27869  44.672  33.866   8.036
 1962POPC   C4A27870   0.038  33.746   7.807
 1962POPC   C1B27871  44.522  33.437   8.811
 1962POPC   C2B27872  44.722  33.524   8.443
 1962POPC   C3B27873  44.599  33.337   8.073
 1962POPC   C4B27874  44.596  33.492   7.674
 1963POPC   NC327875   9.882  41.967   9.550
 1963POPC   PO427876   9.863  42.707   9.571
 1963POPC   GL127877   9.906  42.435   9.163
 1963POPC   GL227878   9.697  42.126   9.099
 1963POPC   C1A27879   9.820  42.413   8.673
 1963POPC   D2A27880   9.929  42.590   8.246
 1963POPC   C3A27881   9.922  42.432   7.807
 1963POPC   C4A27882   9.894  42.660   7.403
 1963POPC   C1B27883   9.654  41.927   8.677
 1963POPC   C2B27884   9.754  42.080   8.253
 1963POPC   C3B27885   9.502  42.138   7.886
 1963POPC   C4B27886   9.436  41.814   7.610
 1964POPC   NC327887  13.756  28.118   9.496
 1964POPC   PO427888  13.394  28.738   9.271
 1964POPC   GL127889  13.716  28.488   9.149
 1964POPC   GL227890  13.504  28.212   9.068
 1964POPC   C1A27891  13.907  28.493   8.794
 1964POPC   D2A27892  13.749  28.735   8.430
 1964POPC   C3A27893  13.821  28.473   8.117
 1964POPC   C4A27894  14.025  28.462   7.770
 1964POPC   C1B27895  13.445  28.009   8.674
 1964POPC   C2B27896  13.402  28.177   8.286
 1964POPC   C3B27897  13.296  28.545   8.118
 1964POPC   C4B27898  13.337  28.422   7.747
 1965POPC   NC327899   3.582  25.899   9.521
 1965POPC   PO427900   3.582  26.527   9.189
 1965POPC   GL127901   3.677  26.115   9.085
 1965POPC   GL227902   3.342  25.924   9.084
 1965POPC   C1A27903   3.789  25.855   8.778
 1965POPC   D2A27904   3.693  26.078   8.435
 1965POPC   C3A27905   3.802  25.978   8.056
 1965POPC   C4A27906   3.875  25.703   7.727
 1965POPC   C1B27907   3.253  26.018   8.674
 1965POPC   C2B27908   3.331  25.786   8.266
 1965POPC   C3B27909   3.366  25.834   7.825
 1965POPC   C4B27910   3.141  25.739   7.460
 1966POPC   NC327911  29.703  18.471   9.596
 1966POPC   PO427912  29.806  19.140   9.552
 1966POPC   GL127913  30.022  19.117   9.155
 1966POPC   GL227914  30.129  18.744   9.129
 1966POPC   C1A27915  29.946  19.330   8.784
 1966POPC   D2A27916  29.919  19.484   8.387
 1966POPC   C3A27917  30.055  19.357   8.018
 1966POPC   C4A27918  30.180  19.258   7.636
 1966POPC   C1B27919  29.906  18.825   8.732
 1966POPC   C2B27920  29.970  18.930   8.282
 1966POPC   C3B27921  29.824  18.914   7.828
 1966POPC   C4B27922  29.436  18.817   7.548
 1967POPC   NC327923  44.290  40.783   9.577
 1967POPC   PO427924  44.918  41.141   9.471
 1967POPC   GL127925  44.736  40.962   9.086
 1967POPC   GL227926  44.563  40.621   9.132
 1967POPC   C1A27927  44.878  40.763   8.714
 1967POPC   D2A27928  44.659  40.770   8.325
 1967POPC   C3A27929  44.881  40.716   7.942
 1967POPC   C4A27930  44.737  40.679   7.518
 1967POPC   C1B27931  44.523  40.414   8.712
 1967POPC   C2B27932  44.571  40.259   8.292
 1967POPC   C3B27933  44.449  40.472   7.946
 1967POPC   C4B27934  44.331  40.343   7.556
 1968POPC   NC327935  36.035   5.439   9.611
 1968POPC   PO427936  35.953   4.857   9.659
 1968POPC   GL127937  35.939   5.018   9.235
 1968POPC   GL227938  36.159   5.301   9.144
 1968POPC   C1A27939  35.913   5.060   8.767
 1968POPC   D2A27940  35.748   5.095   8.346
 1968POPC   C3A27941  35.847   4.806   8.008
 1968POPC   C4A27942  36.001   4.869   7.618
 1968POPC   C1B27943  36.428   5.538   8.854
 1968POPC   C2B27944  36.410   5.664   8.408
 1968POPC   C3B27945  36.169   5.481   8.047
 1968POPC   C4B27946  36.191   5.333   7.606
 1969POPC   NC327947  36.155  18.330   9.712
 1969POPC   PO427948  36.581  17.836   9.449
 1969POPC   GL127949  36.443  18.195   9.182
 1969POPC   GL227950  36.102  18.364   9.191
 1969POPC   C1A27951  36.343  18.180   8.758
 1969POPC   D2A27952  36.175  18.027   8.405
 1969POPC   C3A27953  36.395  18.147   8.066
 1969POPC   C4A27954  36.256  18.185   7.665
 1969POPC   C1B27955  35.848  18.193   8.859
 1969POPC   C2B27956  35.716  18.285   8.448
 1969POPC   C3B27957  35.887  18.301   8.026
 1969POPC   C4B27958  35.876  18.481   7.587
 1970POPC   NC327959  41.368  40.292   9.945
 1970POPC   PO427960  41.823  39.849   9.802
 1970POPC   GL127961  41.708  39.902   9.327
 1970POPC   GL227962  42.002  39.747   9.187
 1970POPC   C1A27963  41.457  40.083   8.954
 1970POPC   D2A27964  41.410  39.953   8.495
 1970POPC   C3A27965  41.518  40.188   8.097
 1970POPC   C4A27966  41.288  40.271   7.713
 1970POPC   C1B27967  41.860  39.834   8.758
 1970POPC   C2B27968  41.735  39.572   8.405
 1970POPC   C3B27969  41.590  39.668   7.999
 1970POPC   C4B27970  41.783  39.966   7.686
 1971POPC   NC327971  24.499   5.370   9.785
 1971POPC   PO427972  24.376   4.859   9.344
 1971POPC   GL127973  24.506   4.963   8.982
 1971POPC   GL227974  24.770   5.201   9.067
 1971POPC   C1A27975  24.256   5.087   8.647
 1971POPC   D2A27976  24.244   5.463   8.360
 1971POPC   C3A27977  24.166   5.296   7.928
 1971POPC   C4A27978  24.279   4.902   7.775
 1971POPC   C1B27979  24.687   5.325   8.629
 1971POPC   C2B27980  24.607   5.128   8.220
 1971POPC   C3B27981  24.645   5.342   7.843
 1971POPC   C4B27982  24.643   5.291   7.400
 1972POPC   NC327983  25.054   8.712   9.541
 1972POPC   PO427984  25.482   9.210   9.284
 1972POPC   GL127985  25.302   8.851   9.103
 1972POPC   GL227986  24.983   8.973   9.029
 1972POPC   C1A27987  25.164   8.655   8.709
 1972POPC   D2A27988  25.278   8.647   8.315
 1972POPC   C3A27989  25.214   9.040   8.121
 1972POPC   C4A27990  25.062   9.002   7.718
 1972POPC   C1B27991  25.238   9.176   8.677
 1972POPC   C2B27992  25.180   9.509   8.376
 1972POPC   C3B27993  25.007   9.527   7.986
 1972POPC   C4B27994  25.335   9.435   7.723
 1973POPC   NC327995  42.599  34.793   9.513
 1973POPC   PO427996  41.986  34.534   9.445
 1973POPC   GL127997  42.272  34.704   9.145
 1973POPC   GL227998  42.538  34.429   9.107
 1973POPC   C1A27999  42.544  34.851   8.816
 1973POPC   D2A28000  42.559  34.631   8.398
 1973POPC   C3A28001  42.675  34.833   8.040
 1973POPC   C4A28002  42.560  34.780   7.638
 1973POPC   C1B28003  42.223  34.422   8.738
 1973POPC   C2B28004  42.110  34.360   8.314
 1973POPC   C3B28005  42.367  34.399   7.940
 1973POPC   C4B28006  42.259  34.354   7.510
 1974POPC   NC328007  42.702  19.885   9.495
 1974POPC   PO428008  43.216  19.541   9.577
 1974POPC   GL128009  43.073  19.716   9.170
 1974POPC   GL228010  43.162  20.057   9.142
 1974POPC   C1A28011  42.729  19.812   8.851
 1974POPC   D2A28012  42.516  19.743   8.476
 1974POPC   C3A28013  42.844  19.751   8.169
 1974POPC   C4A28014  42.977  19.709   7.749
 1974POPC   C1B28015  43.184  20.022   8.712
 1974POPC   C2B28016  43.397  19.782   8.393
 1974POPC   C3B28017  43.401  19.558   8.013
 1974POPC   C4B28018  43.449  19.917   7.812
 1975POPC   NC328019  29.545  21.142   9.893
 1975POPC   PO428020  28.958  21.061   9.516
 1975POPC   GL128021  29.077  21.027   9.033
 1975POPC   GL228022  29.389  21.246   9.020
 1975POPC   C1A28023  28.982  21.097   8.600
 1975POPC   D2A28024  29.056  21.530   8.442
 1975POPC   C3A28025  29.146  21.638   8.003
 1975POPC   C4A28026  29.528  21.830   7.912
 1975POPC   C1B28027  29.469  21.190   8.611
 1975POPC   C2B28028  29.310  21.178   8.178
 1975POPC   C3B28029  29.414  21.282   7.743
 1975POPC   C4B28030  29.388  21.096   7.357
 1976POPC   NC328031  23.470   3.279   9.616
 1976POPC   PO428032  23.717   2.603   9.431
 1976POPC   GL128033  23.612   2.918   9.204
 1976POPC   GL228034  23.955   3.046   9.272
 1976POPC   C1A28035  23.577   2.753   8.774
 1976POPC   D2A28036  23.695   2.555   8.393
 1976POPC   C3A28037  23.594   2.741   7.994
 1976POPC   C4A28038  23.615   2.847   7.540
 1976POPC   C1B28039  24.019   3.013   8.839
 1976POPC   C2B28040  23.856   3.050   8.428
 1976POPC   C3B28041  24.025   2.976   8.008
 1976POPC   C4B28042  23.928   3.252   7.694
 1977POPC   NC328043  42.464  12.446   9.553
 1977POPC   PO428044  42.021  13.003   9.513
 1977POPC   GL128045  42.190  12.707   9.201
 1977POPC   GL228046  42.580  12.750   9.159
 1977POPC   C1A28047  42.242  12.726   8.745
 1977POPC   D2A28048  42.441  12.951   8.403
 1977POPC   C3A28049  42.239  12.930   8.004
 1977POPC   C4A28050  42.366  13.091   7.624
 1977POPC   C1B28051  42.732  12.539   8.785
 1977POPC   C2B28052  42.596  12.361   8.389
 1977POPC   C3B28053  42.550  12.524   7.975
 1977POPC   C4B28054  42.683  12.462   7.550
 1978POPC   NC328055  23.564   4.982   9.454
 1978POPC   PO428056  24.066   5.355   9.575
 1978POPC   GL128057  23.969   5.112   9.144
 1978POPC   GL228058  23.822   4.747   9.094
 1978POPC   C1A28059  23.754   5.081   8.724
 1978POPC   D2A28060  23.885   5.131   8.308
 1978POPC   C3A28061  23.682   5.109   7.934
 1978POPC   C4A28062  23.275   4.954   7.835
 1978POPC   C1B28063  23.565   4.608   8.721
 1978POPC   C2B28064  23.559   4.736   8.281
 1978POPC   C3B28065  23.630   4.606   7.853
 1978POPC   C4B28066  23.519   4.591   7.423
 1979POPC   NC328067  22.811   5.639   9.484
 1979POPC   PO428068  23.369   6.066   9.746
 1979POPC   GL128069  23.227   5.929   9.260
 1979POPC   GL228070  22.878   5.867   9.046
 1979POPC   C1A28071  23.302   5.897   8.790
 1979POPC   D2A28072  23.172   6.152   8.440
 1979POPC   C3A28073  22.841   6.014   8.163
 1979POPC   C4A28074  23.009   5.856   7.796
 1979POPC   C1B28075  22.862   5.554   8.725
 1979POPC   C2B28076  22.908   5.363   8.322
 1979POPC   C3B28077  22.598   5.435   8.037
 1979POPC   C4B28078  22.567   5.656   7.650
 1980POPC   NC328079   0.305  44.924   9.347
 1980POPC   PO428080   0.742  44.537   9.679
 1980POPC   GL128081   0.592  44.505   9.233
 1980POPC   GL228082   0.221  44.429   9.179
 1980POPC   C1A28083   0.711  44.430   8.801
 1980POPC   D2A28084   0.793  44.685   8.436
 1980POPC   C3A28085   0.680  44.514   8.036
 1980POPC   C4A28086   0.679  44.123   7.801
 1980POPC   C1B28087   0.201  44.582   8.771
 1980POPC   C2B28088   0.233  44.768   8.396
 1980POPC   C3B28089   0.027  44.773   8.048
 1980POPC   C4B28090   0.336  44.796   7.772
 1981POPC   NC328091  41.007  41.557   9.470
 1981POPC   PO428092  40.360  41.731   9.505
 1981POPC   GL128093  40.627  41.597   9.118
 1981POPC   GL228094  41.009  41.494   8.981
 1981POPC   C1A28095  40.636  41.488   8.680
 1981POPC   D2A28096  40.965  41.380   8.358
 1981POPC   C3A28097  40.768  41.429   7.941
 1981POPC   C4A28098  40.419  41.303   7.618
 1981POPC   C1B28099  41.016  41.833   8.621
 1981POPC   C2B28100  41.215  41.843   8.228
 1981POPC   C3B28101  41.215  41.720   7.802
 1981POPC   C4B28102  41.113  41.807   7.377
 1982POPC   NC328103  42.525  21.424   9.384
 1982POPC   PO428104  43.232  21.282   9.629
 1982POPC   GL128105  43.013  21.238   9.229
 1982POPC   GL228106  43.293  21.026   9.165
 1982POPC   C1A28107  42.903  21.469   8.821
 1982POPC   D2A28108  43.050  21.873   8.587
 1982POPC   C3A28109  43.193  21.731   8.190
 1982POPC   C4A28110  42.879  21.574   7.908
 1982POPC   C1B28111  43.223  21.055   8.776
 1982POPC   C2B28112  43.328  21.079   8.410
 1982POPC   C3B28113  43.175  21.169   8.017
 1982POPC   C4B28114  43.343  21.480   7.760
 1983POPC   NC328115  10.833  32.052   9.528
 1983POPC   PO428116  10.762  32.634   9.223
 1983POPC   GL128117  10.491  32.250   9.145
 1983POPC   GL228118  10.750  32.054   9.017
 1983POPC   C1A28119  10.331  31.944   8.769
 1983POPC   D2A28120  10.233  31.946   8.300
 1983POPC   C3A28121  10.259  32.223   7.952
 1983POPC   C4A28122  10.146  32.216   7.494
 1983POPC   C1B28123  10.572  32.407   8.670
 1983POPC   C2B28124  10.891  32.569   8.384
 1983POPC   C3B28125  10.934  32.681   7.961
 1983POPC   C4B28126  10.702  32.879   7.644
 1984POPC   NC328127  42.363  35.764   9.490
 1984POPC   PO428128  42.325  36.446   9.566
 1984POPC   GL128129  42.363  36.178   9.199
 1984POPC   GL228130  42.350  36.481   8.995
 1984POPC   C1A28131  42.546  36.050   8.793
 1984POPC   D2A28132  42.406  36.267   8.378
 1984POPC   C3A28133  42.294  35.941   8.058
 1984POPC   C4A28134  42.470  35.771   7.666
 1984POPC   C1B28135  42.056  36.157   8.803
 1984POPC   C2B28136  41.942  36.063   8.416
 1984POPC   C3B28137  41.933  36.348   8.068
 1984POPC   C4B28138  41.984  36.128   7.701
 1985POPC   NC328139  28.905  36.593   9.498
 1985POPC   PO428140  28.936  35.906   9.481
 1985POPC   GL128141  29.186  36.104   9.190
 1985POPC   GL228142  28.875  36.269   9.104
 1985POPC   C1A28143  29.326  35.925   8.800
 1985POPC   D2A28144  29.360  36.061   8.353
 1985POPC   C3A28145  29.077  35.933   8.068
 1985POPC   C4A28146  29.205  35.930   7.673
 1985POPC   C1B28147  29.018  36.344   8.694
 1985POPC   C2B28148  28.873  36.324   8.289
 1985POPC   C3B28149  28.965  36.377   7.845
 1985POPC   C4B28150  28.937  36.708   7.550
 1986POPC   NC328151  39.766  40.390   9.470
 1986POPC   PO428152  39.903  41.015   9.334
 1986POPC   GL128153  39.885  40.721   9.078
 1986POPC   GL228154  40.275  40.719   9.042
 1986POPC   C1A28155  39.934  40.604   8.688
 1986POPC   D2A28156  40.236  40.658   8.408
 1986POPC   C3A28157  39.976  40.591   8.088
 1986POPC   C4A28158  39.769  40.620   7.721
 1986POPC   C1B28159  40.302  41.078   8.755
 1986POPC   C2B28160  40.474  41.174   8.340
 1986POPC   C3B28161  40.371  41.010   8.035
 1986POPC   C4B28162  40.030  41.024   7.836
 1987POPC   NC328163   4.727  25.079   9.888
 1987POPC   PO428164   5.317  25.049   9.505
 1987POPC   GL128165   5.131  25.162   9.116
 1987POPC   GL228166   4.970  25.504   9.189
 1987POPC   C1A28167   5.271  25.033   8.701
 1987POPC   D2A28168   5.166  24.908   8.264
 1987POPC   C3A28169   5.395  25.045   7.919
 1987POPC   C4A28170   5.362  25.329   7.602
 1987POPC   C1B28171   5.151  25.529   8.777
 1987POPC   C2B28172   4.976  25.371   8.424
 1987POPC   C3B28173   5.066  25.416   8.034
 1987POPC   C4B28174   4.849  25.389   7.682
 1988POPC   NC328175  36.575  33.411   9.600
 1988POPC   PO428176  36.014  33.837   9.596
 1988POPC   GL128177  36.024  33.875   9.160
 1988POPC   GL228178  36.371  33.822   9.192
 1988POPC   C1A28179  36.073  33.892   8.708
 1988POPC   D2A28180  35.791  33.772   8.383
 1988POPC   C3A28181  36.074  33.712   8.061
 1988POPC   C4A28182  36.036  33.893   7.660
 1988POPC   C1B28183  36.314  33.486   8.885
 1988POPC   C2B28184  36.109  33.347   8.484
 1988POPC   C3B28185  36.193  33.218   8.069
 1988POPC   C4B28186  36.382  33.398   7.724
 1989POPC   NC328187  12.753  11.778   9.666
 1989POPC   PO428188  13.150  11.280   9.569
 1989POPC   GL128189  13.071  11.264   9.153
 1989POPC   GL228190  12.811  11.476   9.190
 1989POPC   C1A28191  13.128  11.435   8.748
 1989POPC   D2A28192  13.093  11.614   8.333
 1989POPC   C3A28193  12.884  11.451   8.025
 1989POPC   C4A28194  12.646  11.558   7.744
 1989POPC   C1B28195  12.640  11.260   8.834
 1989POPC   C2B28196  12.746  11.169   8.423
 1989POPC   C3B28197  12.528  11.100   8.038
 1989POPC   C4B28198  12.613  11.076   7.621
 1990POPC   NC328199  11.348  29.401   9.488
 1990POPC   PO428200  11.096  28.733   9.556
 1990POPC   GL128201  11.093  29.013   9.184
 1990POPC   GL228202  11.469  29.050   9.121
 1990POPC   C1A28203  11.154  29.299   8.798
 1990POPC   D2A28204  11.437  29.286   8.428
 1990POPC   C3A28205  11.192  29.325   8.054
 1990POPC   C4A28206  11.188  28.890   7.861
 1990POPC   C1B28207  11.652  29.431   8.917
 1990POPC   C2B28208  11.879  29.524   8.568
 1990POPC   C3B28209  11.870  29.463   8.137
 1990POPC   C4B28210  11.600  29.348   7.775
 1991POPC   NC328211   2.559  39.211   9.534
 1991POPC   PO428212   3.061  39.673   9.677
 1991POPC   GL128213   2.857  39.503   9.254
 1991POPC   GL228214   2.468  39.596   9.212
 1991POPC   C1A28215   2.680  39.220   8.897
 1991POPC   D2A28216   2.720  38.991   8.520
 1991POPC   C3A28217   2.818  39.221   8.180
 1991POPC   C4A28218   2.800  39.336   7.754
 1991POPC   C1B28219   2.217  39.596   8.814
 1991POPC   C2B28220   2.322  39.372   8.445
 1991POPC   C3B28221   2.453  39.556   8.067
 1991POPC   C4B28222   2.303  39.635   7.692
 1992POPC   NC328223  12.285   6.293   9.397
 1992POPC   PO428224  12.419   7.008   9.501
 1992POPC   GL128225  12.659   6.772   9.125
 1992POPC   GL228226  12.575   6.448   9.004
 1992POPC   C1A28227  12.907   6.839   8.751
 1992POPC   D2A28228  12.773   6.953   8.322
 1992POPC   C3A28229  12.804   6.622   7.970
 1992POPC   C4A28230  12.987   6.687   7.530
 1992POPC   C1B28231  12.918   6.298   8.751
 1992POPC   C2B28232  13.080   6.152   8.369
 1992POPC   C3B28233  13.155   6.262   7.968
 1992POPC   C4B28234  12.943   6.200   7.597
 1993POPC   NC328235  11.034  43.101   9.608
 1993POPC   PO428236  11.612  43.436   9.599
 1993POPC   GL128237  11.402  43.133   9.214
 1993POPC   GL228238  11.073  42.896   9.164
 1993POPC   C1A28239  11.384  42.936   8.770
 1993POPC   D2A28240  11.627  42.962   8.357
 1993POPC   C3A28241  11.425  42.979   7.936
 1993POPC   C4A28242  11.355  43.274   7.554
 1993POPC   C1B28243  10.770  42.892   8.859
 1993POPC   C2B28244  10.818  42.824   8.441
 1993POPC   C3B28245  10.942  42.744   8.037
 1993POPC   C4B28246  10.939  43.025   7.701
 1994POPC   NC328247  42.185  38.601   9.499
 1994POPC   PO428248  41.559  38.182   9.520
 1994POPC   GL128249  41.579  38.314   9.088
 1994POPC   GL228250  41.753  38.641   9.036
 1994POPC   C1A28251  41.793  38.265   8.663
 1994POPC   D2A28252  42.086  38.309   8.292
 1994POPC   C3A28253  41.819  38.326   7.946
 1994POPC   C4A28254  41.389  38.193   7.831
 1994POPC   C1B28255  41.423  38.618   8.718
 1994POPC   C2B28256  41.365  38.493   8.300
 1994POPC   C3B28257  41.454  38.692   7.921
 1994POPC   C4B28258  41.208  38.764   7.601
 1995POPC   NC328259  35.851  34.821   9.083
 1995POPC   PO428260  35.379  35.150   9.401
 1995POPC   GL128261  35.339  35.495   9.123
 1995POPC   GL228262  35.624  35.662   9.152
 1995POPC   C1A28263  35.300  35.645   8.692
 1995POPC   D2A28264  35.136  35.580   8.299
 1995POPC   C3A28265  35.379  35.682   7.920
 1995POPC   C4A28266  35.340  35.307   7.582
 1995POPC   C1B28267  35.723  35.369   8.819
 1995POPC   C2B28268  35.479  35.191   8.507
 1995POPC   C3B28269  35.451  35.213   8.076
 1995POPC   C4B28270  35.792  35.424   7.791
 1996POPC   NC328271  15.320  31.913   9.440
 1996POPC   PO428272  15.741  32.389   9.720
 1996POPC   GL128273  15.696  32.185   9.236
 1996POPC   GL228274  16.004  32.217   9.065
 1996POPC   C1A28275  15.614  32.282   8.764
 1996POPC   D2A28276  15.906  32.159   8.466
 1996POPC   C3A28277  15.771  32.191   8.074
 1996POPC   C4A28278  15.641  31.859   7.795
 1996POPC   C1B28279  16.250  32.414   8.741
 1996POPC   C2B28280  16.171  32.601   8.334
 1996POPC   C3B28281  16.255  32.394   7.948
 1996POPC   C4B28282  16.131  32.046   7.735
 1997POPC   NC328283  40.932   6.483   9.501
 1997POPC   PO428284  40.565   7.083   9.367
 1997POPC   GL128285  40.853   6.958   9.031
 1997POPC   GL228286  40.985   6.649   9.034
 1997POPC   C1A28287  40.858   6.875   8.575
 1997POPC   D2A28288  40.866   7.021   8.165
 1997POPC   C3A28289  40.654   6.767   7.937
 1997POPC   C4A28290  40.588   6.340   7.948
 1997POPC   C1B28291  41.120   6.429   8.660
 1997POPC   C2B28292  41.020   6.508   8.225
 1997POPC   C3B28293  41.097   6.376   7.793
 1997POPC   C4B28294  41.233   6.358   7.303
 1998POPC   NC328295   2.539  12.215   9.452
 1998POPC   PO428296   2.909  11.716   9.484
 1998POPC   GL128297   2.856  11.839   9.107
 1998POPC   GL228298   2.523  11.827   9.123
 1998POPC   C1A28299   2.754  12.094   8.760
 1998POPC   D2A28300   2.619  12.087   8.350
 1998POPC   C3A28301   2.961  12.074   8.062
 1998POPC   C4A28302   2.884  12.312   7.689
 1998POPC   C1B28303   2.459  11.662   8.770
 1998POPC   C2B28304   2.341  11.663   8.386
 1998POPC   C3B28305   2.530  11.658   8.033
 1998POPC   C4B28306   2.569  11.938   7.756
 1999POPC   NC328307  17.059  22.284   9.883
 1999POPC   PO428308  17.613  22.127   9.510
 1999POPC   GL128309  17.471  22.257   9.092
 1999POPC   GL228310  17.689  22.516   8.992
 1999POPC   C1A28311  17.097  22.241   8.771
 1999POPC   D2A28312  16.945  22.426   8.412
 1999POPC   C3A28313  17.285  22.398   8.160
 1999POPC   C4A28314  17.339  22.168   7.809
 1999POPC   C1B28315  17.577  22.348   8.603
 1999POPC   C2B28316  17.774  22.188   8.257
 1999POPC   C3B28317  17.852  22.239   7.841
 1999POPC   C4B28318  17.749  21.809   7.801
 2000POPC   NC328319  14.167  31.632   9.658
 2000POPC   PO428320  14.722  31.251   9.539
 2000POPC   GL128321  14.387  31.291   9.207
 2000POPC   GL228322  14.113  31.557   9.172
 2000POPC   C1A28323  14.435  31.459   8.780
 2000POPC   D2A28324  14.410  31.713   8.396
 2000POPC   C3A28325  14.230  31.554   7.990
 2000POPC   C4A28326  14.360  31.701   7.579
 2000POPC   C1B28327  13.941  31.562   8.790
 2000POPC   C2B28328  14.079  31.300   8.416
 2000POPC   C3B28329  13.889  31.160   8.012
 2000POPC   C4B28330  14.077  31.213   7.586
 2001POPC   NC328331  21.216  19.353   9.611
 2001POPC   PO428332  21.760  19.034   9.275
 2001POPC   GL128333  21.348  19.061   9.152
 2001POPC   GL228334  21.365  19.419   9.134
 2001POPC   C1A28335  21.188  18.811   8.781
 2001POPC   D2A28336  21.477  18.746   8.412
 2001POPC   C3A28337  21.199  18.842   8.037
 2001POPC   C4A28338  21.401  18.921   7.686
 2001POPC   C1B28339  21.140  19.333   8.781
 2001POPC   C2B28340  21.248  19.185   8.409
 2001POPC   C3B28341  21.373  19.332   8.024
 2001POPC   C4B28342  21.007  19.329   7.827
 2002POPC   NC328343  15.066  10.429   9.535
 2002POPC   PO428344  15.736  10.449   9.673
 2002POPC   GL128345  15.461  10.287   9.227
 2002POPC   GL228346  15.169  10.517   9.056
 2002POPC   C1A28347  15.476  10.320   8.735
 2002POPC   D2A28348  15.361  10.676   8.456
 2002POPC   C3A28349  15.485  10.556   8.037
 2002POPC   C4A28350  15.265  10.245   7.824
 2002POPC   C1B28351  14.932  10.217   8.793
 2002POPC   C2B28352  14.740  10.234   8.368
 2002POPC   C3B28353  14.765  10.362   7.918
 2002POPC   C4B28354  14.842  10.558   7.506
 2003POPC   NC328355  42.605  26.956   9.614
 2003POPC   PO428356  42.021  26.639   9.445
 2003POPC   GL128357  42.270  26.959   9.223
 2003POPC   GL228358  42.523  26.753   9.135
 2003POPC   C1A28359  42.378  27.165   8.823
 2003POPC   D2A28360  42.114  27.034   8.466
 2003POPC   C3A28361  42.284  27.093   8.065
 2003POPC   C4A28362  42.091  27.291   7.755
 2003POPC   C1B28363  42.362  26.654   8.701
 2003POPC   C2B28364  42.405  26.622   8.225
 2003POPC   C3B28365  42.635  26.762   7.876
 2003POPC   C4B28366  42.760  26.740   7.451
 2004POPC   NC328367   2.557  23.613   9.460
 2004POPC   PO428368   3.147  23.649   9.563
 2004POPC   GL128369   2.953  23.631   9.124
 2004POPC   GL228370   2.607  23.463   8.998
 2004POPC   C1A28371   2.857  23.964   8.788
 2004POPC   D2A28372   2.976  24.260   8.411
 2004POPC   C3A28373   2.886  24.064   8.025
 2004POPC   C4A28374   2.592  23.909   7.684
 2004POPC   C1B28375   2.832  23.441   8.668
 2004POPC   C2B28376   2.829  23.659   8.348
 2004POPC   C3B28377   2.812  23.552   7.972
 2004POPC   C4B28378   2.628  23.351   7.686
 2005POPC   NC328379  27.260  30.930   9.452
 2005POPC   PO428380  27.579  30.398   9.429
 2005POPC   GL128381  27.651  30.431   9.008
 2005POPC   GL228382  27.550  30.814   8.997
 2005POPC   C1A28383  27.658  30.472   8.575
 2005POPC   D2A28384  27.523  30.735   8.279
 2005POPC   C3A28385  27.451  30.488   7.928
 2005POPC   C4A28386  27.436  30.629   7.508
 2005POPC   C1B28387  27.856  30.929   8.667
 2005POPC   C2B28388  28.053  30.724   8.310
 2005POPC   C3B28389  27.903  30.767   7.900
 2005POPC   C4B28390  27.599  31.054   7.740
 2006POPC   NC328391  27.690  26.227   9.563
 2006POPC   PO428392  27.070  26.267   9.450
 2006POPC   GL128393  27.419  26.326   9.132
 2006POPC   GL228394  27.722  26.088   9.084
 2006POPC   C1A28395  27.522  26.347   8.698
 2006POPC   D2A28396  27.762  26.300   8.347
 2006POPC   C3A28397  27.481  26.281   7.986
 2006POPC   C4A28398  27.197  26.452   7.656
 2006POPC   C1B28399  27.800  25.901   8.665
 2006POPC   C2B28400  27.604  25.832   8.238
 2006POPC   C3B28401  27.670  25.836   7.783
 2006POPC   C4B28402  27.675  25.852   7.307
 2007POPC   NC328403  10.855   6.470   9.681
 2007POPC   PO428404  10.362   6.798   9.456
 2007POPC   GL128405  10.430   6.549   9.094
 2007POPC   GL228406  10.696   6.339   9.203
 2007POPC   C1A28407  10.332   6.569   8.665
 2007POPC   D2A28408  10.196   6.501   8.251
 2007POPC   C3A28409  10.471   6.663   7.969
 2007POPC   C4A28410  10.624   6.828   7.566
 2007POPC   C1B28411  10.633   6.163   8.786
 2007POPC   C2B28412  10.646   6.288   8.368
 2007POPC   C3B28413  10.631   6.155   7.964
 2007POPC   C4B28414  10.816   6.281   7.562
 2008POPC   NC328415  44.217  26.346   9.574
 2008POPC   PO428416  43.739  25.894   9.413
 2008POPC   GL128417  43.861  26.195   9.152
 2008POPC   GL228418  44.193  26.115   9.115
 2008POPC   C1A28419  43.869  26.018   8.740
 2008POPC   D2A28420  44.130  26.099   8.402
 2008POPC   C3A28421  43.902  26.049   8.047
 2008POPC   C4A28422  43.808  26.221   7.661
 2008POPC   C1B28423  44.355  25.817   8.801
 2008POPC   C2B28424  44.516  25.761   8.386
 2008POPC   C3B28425  44.273  25.708   8.007
 2008POPC   C4B28426  44.166  25.875   7.605
 2009POPC   NC328427  42.014  33.997   9.454
 2009POPC   PO428428  42.696  33.843   9.411
 2009POPC   GL128429  42.573  33.905   8.997
 2009POPC   GL228430  42.229  33.991   8.992
 2009POPC   C1A28431  42.678  33.646   8.643
 2009POPC   D2A28432  42.432  33.438   8.350
 2009POPC   C3A28433  42.551  33.480   7.931
 2009POPC   C4A28434  42.652  33.499   7.488
 2009POPC   C1B28435  42.184  33.889   8.560
 2009POPC   C2B28436  41.838  33.911   8.256
 2009POPC   C3B28437  42.001  34.043   7.893
 2009POPC   C4B28438  42.318  33.872   7.697
 2010POPC   NC328439   6.071  30.504   9.468
 2010POPC   PO428440   5.458  30.961   9.425
 2010POPC   GL128441   5.680  30.824   9.082
 2010POPC   GL228442   5.568  30.454   8.932
 2010POPC   C1A28443   5.626  30.943   8.680
 2010POPC   D2A28444   5.551  30.634   8.402
 2010POPC   C3A28445   5.743  30.698   8.039
 2010POPC   C4A28446   5.732  30.771   7.628
 2010POPC   C1B28447   5.968  30.567   8.755
 2010POPC   C2B28448   6.132  30.803   8.387
 2010POPC   C3B28449   6.256  30.599   7.996
 2010POPC   C4B28450   5.989  30.336   7.740
 2011POPC   NC328451  11.624  17.520   9.472
 2011POPC   PO428452  12.236  17.790   9.598
 2011POPC   GL128453  12.090  17.638   9.219
 2011POPC   GL228454  12.106  17.281   9.374
 2011POPC   C1A28455  12.103  17.814   8.747
 2011POPC   D2A28456  12.103  18.084   8.306
 2011POPC   C3A28457  12.008  17.850   7.891
 2011POPC   C4A28458  11.780  17.498   7.654
 2011POPC   C1B28459  12.203  17.217   8.938
 2011POPC   C2B28460  12.195  17.324   8.490
 2011POPC   C3B28461  12.293  17.434   8.049
 2011POPC   C4B28462  12.186  17.189   7.702
 2012POPC   NC328463   3.421  14.006   9.383
 2012POPC   PO428464   3.776  14.636   9.580
 2012POPC   GL128465   3.594  14.675   9.159
 2012POPC   GL228466   3.301  14.451   9.121
 2012POPC   C1A28467   3.734  14.440   8.801
 2012POPC   D2A28468   3.913  14.136   8.535
 2012POPC   C3A28469   3.843  14.313   8.148
 2012POPC   C4A28470   3.972  14.668   7.873
 2012POPC   C1B28471   3.226  14.380   8.710
 2012POPC   C2B28472   3.416  14.594   8.366
 2012POPC   C3B28473   3.465  14.686   7.924
 2012POPC   C4B28474   3.250  14.536   7.554
 2013POPC   NC328475   9.876  36.899   9.970
 2013POPC   PO428476   9.827  36.690   9.324
 2013POPC   GL128477   9.602  36.937   8.963
 2013POPC   GL228478   9.556  37.323   9.063
 2013POPC   C1A28479   9.464  36.755   8.607
 2013POPC   D2A28480   9.637  36.428   8.407
 2013POPC   C3A28481   9.642  36.605   8.013
 2013POPC   C4A28482   9.916  36.606   7.701
 2013POPC   C1B28483   9.995  37.230   8.923
 2013POPC   C2B28484   9.938  37.010   8.510
 2013POPC   C3B28485   9.807  37.103   8.107
 2013POPC   C4B28486   9.997  37.110   7.734
 2014POPC   NC328487   0.350  19.541   9.522
 2014POPC   PO428488   0.517  20.151   9.377
 2014POPC   GL128489   0.358  19.853   9.117
 2014POPC   GL228490   0.660  19.661   9.141
 2014POPC   C1A28491   0.384  19.667   8.722
 2014POPC   D2A28492   0.582  19.810   8.377
 2014POPC   C3A28493   0.355  19.719   8.012
 2014POPC   C4A28494   0.222  19.692   7.577
 2014POPC   C1B28495   0.799  19.993   8.830
 2014POPC   C2B28496   0.962  20.140   8.456
 2014POPC   C3B28497   0.787  20.214   8.076
 2014POPC   C4B28498   0.635  20.027   7.719
 2015POPC   NC328499   6.035  36.991   9.584
 2015POPC   PO428500   5.440  36.649   9.467
 2015POPC   GL128501   5.782  36.814   9.161
 2015POPC   GL228502   6.043  37.107   9.101
 2015POPC   C1A28503   5.712  36.987   8.739
 2015POPC   D2A28504   5.712  37.193   8.346
 2015POPC   C3A28505   5.572  36.941   7.983
 2015POPC   C4A28506   5.635  37.097   7.572
 2015POPC   C1B28507   6.117  37.363   8.731
 2015POPC   C2B28508   6.216  37.318   8.289
 2015POPC   C3B28509   6.035  37.197   7.891
 2015POPC   C4B28510   6.101  37.245   7.430
 2016POPC   NC328511   0.397  21.264   9.530
 2016POPC   PO428512   0.556  21.783   9.194
 2016POPC   GL128513   0.332  21.463   9.045
 2016POPC   GL228514   0.638  21.262   9.055
 2016POPC   C1A28515   0.438  21.444   8.616
 2016POPC   D2A28516   0.731  21.442   8.288
 2016POPC   C3A28517   0.446  21.427   7.988
 2016POPC   C4A28518   0.439  21.629   7.617
 2016POPC   C1B28519   0.771  21.059   8.632
 2016POPC   C2B28520   0.575  20.962   8.201
 2016POPC   C3B28521   0.672  21.007   7.736
 2016POPC   C4B28522   0.898  20.827   7.360
 2017POPC   NC328523  14.325  25.734   9.402
 2017POPC   PO428524  14.709  26.247   9.642
 2017POPC   GL128525  14.554  26.187   9.216
 2017POPC   GL228526  14.269  26.354   9.197
 2017POPC   C1A28527  14.345  26.134   8.764
 2017POPC   D2A28528  14.203  25.910   8.405
 2017POPC   C3A28529  14.513  25.933   8.103
 2017POPC   C4A28530  14.349  25.976   7.701
 2017POPC   C1B28531  14.023  26.531   8.879
 2017POPC   C2B28532  13.975  26.394   8.469
 2017POPC   C3B28533  14.207  26.342   8.106
 2017POPC   C4B28534  14.111  26.455   7.711
 2018POPC   NC328535  25.828  31.585   9.536
 2018POPC   PO428536  25.975  30.964   9.639
 2018POPC   GL128537  26.029  31.184   9.224
 2018POPC   GL228538  25.734  31.397   9.074
 2018POPC   C1A28539  26.220  31.464   8.872
 2018POPC   D2A28540  26.034  31.772   8.551
 2018POPC   C3A28541  26.061  31.690   8.103
 2018POPC   C4A28542  25.847  31.659   7.685
 2018POPC   C1B28543  25.877  31.112   8.742
 2018POPC   C2B28544  26.069  31.236   8.375
 2018POPC   C3B28545  25.792  31.262   8.029
 2018POPC   C4B28546  25.762  31.164   7.602
 2019POPC   NC328547  17.577  31.305   9.615
 2019POPC   PO428548  17.157  31.757   9.580
 2019POPC   GL128549  17.394  31.578   9.209
 2019POPC   GL228550  17.276  31.217   9.209
 2019POPC   C1A28551  17.626  31.587   8.804
 2019POPC   D2A28552  17.645  31.351   8.434
 2019POPC   C3A28553  17.681  31.538   8.069
 2019POPC   C4A28554  17.607  31.420   7.680
 2019POPC   C1B28555  17.238  31.281   8.785
 2019POPC   C2B28556  17.140  31.308   8.387
 2019POPC   C3B28557  17.346  31.145   8.042
 2019POPC   C4B28558  17.192  31.114   7.661
 2020POPC   NC328559  28.414  18.902   9.566
 2020POPC   PO428560  28.160  19.511   9.582
 2020POPC   GL128561  28.376  19.332   9.213
 2020POPC   GL228562  28.329  18.997   9.086
 2020POPC   C1A28563  28.507  19.350   8.761
 2020POPC   D2A28564  28.543  19.003   8.444
 2020POPC   C3A28565  28.441  19.047   8.021
 2020POPC   C4A28566  28.119  19.240   7.808
 2020POPC   C1B28567  28.329  18.658   8.788
 2020POPC   C2B28568  28.208  18.566   8.355
 2020POPC   C3B28569  28.162  18.645   7.895
 2020POPC   C4B28570  28.504  18.675   7.587
 2021POPC   NC328571  18.383  19.486   9.477
 2021POPC   PO428572  18.092  20.100   9.463
 2021POPC   GL128573  18.308  19.857   9.130
 2021POPC   GL228574  18.571  20.048   8.993
 2021POPC   C1A28575  18.217  19.603   8.748
 2021POPC   D2A28576  18.143  19.810   8.350
 2021POPC   C3A28577  18.292  19.700   7.912
 2021POPC   C4A28578  18.214  19.790   7.466
 2021POPC   C1B28579  18.674  19.791   8.636
 2021POPC   C2B28580  18.654  19.911   8.221
 2021POPC   C3B28581  18.625  20.184   7.883
 2021POPC   C4B28582  18.676  20.054   7.491
 2022POPC   NC328583  20.815  12.007   9.699
 2022POPC   PO428584  21.178  12.456   9.538
 2022POPC   GL128585  20.871  12.284   9.220
 2022POPC   GL228586  20.696  11.949   9.156
 2022POPC   C1A28587  20.823  12.230   8.753
 2022POPC   D2A28588  20.691  11.947   8.413
 2022POPC   C3A28589  20.521  12.170   8.018
 2022POPC   C4A28590  20.606  12.009   7.593
 2022POPC   C1B28591  20.389  11.760   8.838
 2022POPC   C2B28592  20.374  11.526   8.426
 2022POPC   C3B28593  20.493  11.652   8.013
 2022POPC   C4B28594  20.460  11.530   7.600
 2023POPC   NC328595  39.252  16.963   9.623
 2023POPC   PO428596  38.622  16.745   9.544
 2023POPC   GL128597  38.986  16.801   9.220
 2023POPC   GL228598  39.374  16.653   9.233
 2023POPC   C1A28599  39.246  16.901   8.823
 2023POPC   D2A28600  39.367  16.607   8.501
 2023POPC   C3A28601  39.310  16.780   8.059
 2023POPC   C4A28602  38.956  16.588   7.846
 2023POPC   C1B28603  39.579  16.328   8.930
 2023POPC   C2B28604  39.785  16.302   8.511
 2023POPC   C3B28605  39.663  16.422   8.097
 2023POPC   C4B28606  39.414  16.361   7.718
 2024POPC   NC328607  15.748   3.918   9.470
 2024POPC   PO428608  16.157   3.411   9.513
 2024POPC   GL128609  16.008   3.576   9.153
 2024POPC   GL228610  16.127   3.892   9.129
 2024POPC   C1A28611  16.081   3.436   8.727
 2024POPC   D2A28612  16.209   3.066   8.445
 2024POPC   C3A28613  16.223   3.181   8.000
 2024POPC   C4A28614  15.965   3.409   7.702
 2024POPC   C1B28615  15.823   3.905   8.794
 2024POPC   C2B28616  15.706   3.948   8.373
 2024POPC   C3B28617  15.989   3.802   8.063
 2024POPC   C4B28618  16.176   3.892   7.689
 2025POPC   NC328619   7.011   7.581   9.374
 2025POPC   PO428620   7.682   7.352   9.535
 2025POPC   GL128621   7.672   7.407   9.100
 2025POPC   GL228622   7.328   7.378   9.026
 2025POPC   C1A28623   7.627   7.510   8.642
 2025POPC   D2A28624   7.491   7.294   8.279
 2025POPC   C3A28625   7.539   7.596   7.940
 2025POPC   C4A28626   7.615   7.544   7.502
 2025POPC   C1B28627   7.058   7.411   8.661
 2025POPC   C2B28628   6.994   7.511   8.227
 2025POPC   C3B28629   7.153   7.281   7.880
 2025POPC   C4B28630   7.175   7.287   7.438
 2026POPC   NC328631  21.667  38.861   9.625
 2026POPC   PO428632  21.533  39.510   9.460
 2026POPC   GL128633  21.449  39.377   9.062
 2026POPC   GL228634  21.761  39.539   8.978
 2026POPC   C1A28635  21.319  39.232   8.614
 2026POPC   D2A28636  21.507  39.027   8.232
 2026POPC   C3A28637  21.354  39.165   7.800
 2026POPC   C4A28638  21.607  39.127   7.381
 2026POPC   C1B28639  21.949  39.775   8.663
 2026POPC   C2B28640  21.676  39.899   8.346
 2026POPC   C3B28641  21.513  39.582   8.050
 2026POPC   C4B28642  21.525  39.599   7.581
 2027POPC   NC328643   5.358  19.710   9.513
 2027POPC   PO428644   5.009  20.343   9.555
 2027POPC   GL128645   5.264  20.133   9.246
 2027POPC   GL228646   4.955  19.982   9.142
 2027POPC   C1A28647   5.377  19.922   8.857
 2027POPC   D2A28648   5.087  19.786   8.537
 2027POPC   C3A28649   5.152  19.857   8.091
 2027POPC   C4A28650   5.161  19.679   7.674
 2027POPC   C1B28651   4.919  20.263   8.783
 2027POPC   C2B28652   4.859  20.214   8.372
 2027POPC   C3B28653   4.729  20.284   8.001
 2027POPC   C4B28654   4.905  20.142   7.670
 2028POPC   NC328655  21.645  13.641   9.424
 2028POPC   PO428656  22.322  13.677   9.472
 2028POPC   GL128657  22.468  13.634   9.090
 2028POPC   GL228658  22.542  13.285   9.038
 2028POPC   C1A28659  22.133  13.598   8.795
 2028POPC   D2A28660  22.011  13.443   8.405
 2028POPC   C3A28661  22.220  13.601   8.045
 2028POPC   C4A28662  22.072  13.759   7.666
 2028POPC   C1B28663  22.547  13.374   8.588
 2028POPC   C2B28664  22.429  13.171   8.201
 2028POPC   C3B28665  22.353  13.206   7.755
 2028POPC   C4B28666  22.249  13.365   7.337
 2029POPC   NC328667   0.860   1.004   9.605
 2029POPC   PO428668   1.456   1.342   9.429
 2029POPC   GL128669   1.182   1.073   9.169
 2029POPC   GL228670   1.093   1.364   9.022
 2029POPC   C1A28671   1.138   0.977   8.702
 2029POPC   D2A28672   1.349   1.215   8.368
 2029POPC   C3A28673   1.233   1.297   7.922
 2029POPC   C4A28674   1.216   1.112   7.499
 2029POPC   C1B28675   1.042   1.509   8.645
 2029POPC   C2B28676   0.845   1.433   8.276
 2029POPC   C3B28677   0.833   1.691   7.960
 2029POPC   C4B28678   1.089   1.720   7.634
 2030POPC   NC328679  16.472   6.960   9.284
 2030POPC   PO428680  16.647   7.519   9.645
 2030POPC   GL128681  16.686   7.428   9.210
 2030POPC   GL228682  16.364   7.521   9.193
 2030POPC   C1A28683  16.888   7.409   8.791
 2030POPC   D2A28684  17.116   7.239   8.439
 2030POPC   C3A28685  16.885   7.205   8.050
 2030POPC   C4A28686  16.718   7.432   7.673
 2030POPC   C1B28687  16.508   7.770   8.833
 2030POPC   C2B28688  16.649   7.659   8.406
 2030POPC   C3B28689  16.617   7.818   7.994
 2030POPC   C4B28690  16.289   7.761   7.701
 2031POPC   NC328691   2.425  16.294   9.431
 2031POPC   PO428692   2.970  15.934   9.459
 2031POPC   GL128693   2.710  15.964   9.144
 2031POPC   GL228694   2.642  15.594   9.132
 2031POPC   C1A28695   2.589  16.241   8.787
 2031POPC   D2A28696   2.805  16.284   8.391
 2031POPC   C3A28697   2.630  16.409   8.039
 2031POPC   C4A28698   2.688  16.203   7.643
 2031POPC   C1B28699   2.643  15.738   8.712
 2031POPC   C2B28700   2.833  15.758   8.356
 2031POPC   C3B28701   2.690  15.871   8.009
 2031POPC   C4B28702   2.785  15.698   7.613
 2032POPC   NC328703  31.154  21.665   9.405
 2032POPC   PO428704  31.553  21.134   9.542
 2032POPC   GL128705  31.491  21.337   9.162
 2032POPC   GL228706  31.187  21.178   9.137
 2032POPC   C1A28707  31.382  21.527   8.745
 2032POPC   D2A28708  31.606  21.608   8.364
 2032POPC   C3A28709  31.459  21.454   7.949
 2032POPC   C4A28710  31.704  21.318   7.592
 2032POPC   C1B28711  31.328  21.018   8.757
 2032POPC   C2B28712  31.235  21.178   8.345
 2032POPC   C3B28713  31.052  21.037   7.970
 2032POPC   C4B28714  31.216  21.130   7.588
 2033POPC   NC328715  33.768  15.676   9.533
 2033POPC   PO428716  33.632  14.994   9.647
 2033POPC   GL128717  33.718  15.191   9.238
 2033POPC   GL228718  33.985  15.439   9.137
 2033POPC   C1A28719  33.769  15.130   8.789
 2033POPC   D2A28720  33.892  15.244   8.383
 2033POPC   C3A28721  33.597  15.181   8.093
 2033POPC   C4A28722  33.594  15.105   7.692
 2033POPC   C1B28723  33.992  15.624   8.727
 2033POPC   C2B28724  34.024  15.766   8.312
 2033POPC   C3B28725  34.061  15.515   7.962
 2033POPC   C4B28726  33.988  15.415   7.568
 2034POPC   NC328727   1.140  29.720   9.400
 2034POPC   PO428728   1.587  30.151   9.543
 2034POPC   GL128729   1.372  30.107   9.157
 2034POPC   GL228730   1.001  30.121   9.123
 2034POPC   C1A28731   1.357  29.875   8.757
 2034POPC   D2A28732   1.445  30.057   8.351
 2034POPC   C3A28733   1.340  29.790   8.004
 2034POPC   C4A28734   1.392  29.950   7.604
 2034POPC   C1B28735   0.814  30.142   8.712
 2034POPC   C2B28736   0.930  29.966   8.301
 2034POPC   C3B28737   1.073  30.212   7.936
 2034POPC   C4B28738   1.010  30.314   7.523
 2035POPC   NC328739  27.998  37.275   9.446
 2035POPC   PO428740  28.231  37.943   9.516
 2035POPC   GL128741  28.181  37.798   9.102
 2035POPC   GL228742  28.070  37.458   8.981
 2035POPC   C1A28743  28.426  37.818   8.730
 2035POPC   D2A28744  28.233  37.716   8.369
 2035POPC   C3A28745  28.221  37.969   8.004
 2035POPC   C4A28746  28.473  37.868   7.667
 2035POPC   C1B28747  28.456  37.303   8.786
 2035POPC   C2B28748  28.628  37.337   8.367
 2035POPC   C3B28749  28.466  37.471   7.983
 2035POPC   C4B28750  28.070  37.406   7.837
 2036POPC   NC328751  15.690  23.117   9.408
 2036POPC   PO428752  15.984  22.574   9.513
 2036POPC   GL128753  16.195  22.784   9.173
 2036POPC   GL228754  16.074  23.132   9.091
 2036POPC   C1A28755  16.199  22.781   8.726
 2036POPC   D2A28756  15.954  22.743   8.344
 2036POPC   C3A28757  16.204  22.721   8.000
 2036POPC   C4A28758  16.356  22.765   7.605
 2036POPC   C1B28759  15.773  23.109   8.748
 2036POPC   C2B28760  15.629  23.151   8.334
 2036POPC   C3B28761  15.796  23.032   7.933
 2036POPC   C4B28762  16.108  23.248   7.701
 2037POPC   NC328763   0.487  28.465   9.508
 2037POPC   PO428764  44.958  28.034   9.357
 2037POPC   GL128765   0.285  28.221   9.044
 2037POPC   GL228766   0.655  28.319   9.064
 2037POPC   C1A28767   0.476  28.318   8.613
 2037POPC   D2A28768   0.575  28.290   8.181
 2037POPC   C3A28769   0.395  28.568   7.900
 2037POPC   C4A28770   0.143  28.765   7.584
 2037POPC   C1B28771   0.985  28.225   8.798
 2037POPC   C2B28772   1.002  28.099   8.405
 2037POPC   C3B28773   0.919  27.930   8.024
 2037POPC   C4B28774   0.588  28.095   7.710
 2038POPC   NC328775  40.704  42.345   9.544
 2038POPC   PO428776  41.136  41.931   9.227
 2038POPC   GL128777  40.834  42.193   9.065
 2038POPC   GL228778  40.484  42.097   9.165
 2038POPC   C1A28779  40.895  42.519   8.752
 2038POPC   D2A28780  40.970  42.319   8.366
 2038POPC   C3A28781  40.692  42.007   8.236
 2038POPC   C4A28782  40.778  41.947   7.823
 2038POPC   C1B28783  40.427  42.376   8.830
 2038POPC   C2B28784  40.465  42.466   8.391
 2038POPC   C3B28785  40.709  42.584   8.014
 2038POPC   C4B28786  40.555  42.733   7.576
 2039POPC   NC328787  28.649  20.739   9.597
 2039POPC   PO428788  28.097  20.624   9.780
 2039POPC   GL128789  28.179  20.551   9.308
 2039POPC   GL228790  28.471  20.339   9.257
 2039POPC   C1A28791  28.178  20.434   8.830
 2039POPC   D2A28792  28.418  20.397   8.406
 2039POPC   C3A28793  28.229  20.410   8.003
 2039POPC   C4A28794  28.120  20.781   7.786
 2039POPC   C1B28795  28.662  20.247   8.840
 2039POPC   C2B28796  28.845  20.125   8.383
 2039POPC   C3B28797  28.826  20.321   7.945
 2039POPC   C4B28798  28.579  20.547   7.636
 2040POPC   NC328799  10.115  10.652   9.568
 2040POPC   PO428800   9.561  10.207   9.548
 2040POPC   GL128801   9.494  10.395   9.107
 2040POPC   GL228802   9.356  10.717   9.046
 2040POPC   C1A28803   9.724  10.517   8.689
 2040POPC   D2A28804  10.067  10.446   8.361
 2040POPC   C3A28805   9.869  10.459   7.939
 2040POPC   C4A28806   9.608  10.454   7.543
 2040POPC   C1B28807   9.202  10.911   8.664
 2040POPC   C2B28808   9.321  10.798   8.237
 2040POPC   C3B28809   9.526  10.870   7.854
 2040POPC   C4B28810   9.940  10.900   7.687
 2041POPC   NC328811  22.839  37.734   9.580
 2041POPC   PO428812  23.461  37.661   9.455
 2041POPC   GL128813  23.169  37.859   9.156
 2041POPC   GL228814  22.853  37.687   9.106
 2041POPC   C1A28815  23.066  37.883   8.702
 2041POPC   D2A28816  23.204  37.664   8.367
 2041POPC   C3A28817  23.055  37.638   7.973
 2041POPC   C4A28818  23.352  37.596   7.675
 2041POPC   C1B28819  22.876  37.425   8.811
 2041POPC   C2B28820  22.724  37.486   8.419
 2041POPC   C3B28821  22.614  37.351   8.036
 2041POPC   C4B28822  22.853  37.227   7.712
 2042POPC   NC328823  38.012  22.845   9.559
 2042POPC   PO428824  37.471  23.197   9.340
 2042POPC   GL128825  37.666  22.979   9.005
 2042POPC   GL228826  37.905  22.688   9.085
 2042POPC   C1A28827  37.553  23.102   8.577
 2042POPC   D2A28828  37.478  23.124   8.121
 2042POPC   C3A28829  37.875  23.096   7.929
 2042POPC   C4A28830  37.953  22.999   7.542
 2042POPC   C1B28831  37.684  22.582   8.701
 2042POPC   C2B28832  37.753  22.729   8.293
 2042POPC   C3B28833  37.646  22.635   7.892
 2042POPC   C4B28834  37.787  22.254   7.769
 2043POPC   NC328835   9.725   7.889   9.490
 2043POPC   PO428836   9.843   8.488   9.518
 2043POPC   GL128837   9.523   8.365   9.183
 2043POPC   GL228838   9.427   8.020   9.097
 2043POPC   C1A28839   9.493   8.328   8.707
 2043POPC   D2A28840   9.793   8.254   8.356
 2043POPC   C3A28841   9.590   8.171   7.976
 2043POPC   C4A28842   9.634   8.314   7.578
 2043POPC   C1B28843   9.803   7.939   8.841
 2043POPC   C2B28844  10.004   7.818   8.485
 2043POPC   C3B28845   9.916   7.786   8.060
 2043POPC   C4B28846  10.002   7.993   7.676
 2044POPC   NC328847  37.576  34.981   9.531
 2044POPC   PO428848  37.530  34.291   9.576
 2044POPC   GL128849  37.631  34.489   9.157
 2044POPC   GL228850  37.594  34.826   9.023
 2044POPC   C1A28851  37.752  34.465   8.728
 2044POPC   D2A28852  37.548  34.753   8.446
 2044POPC   C3A28853  37.371  34.623   8.063
 2044POPC   C4A28854  37.561  34.360   7.786
 2044POPC   C1B28855  37.957  34.940   8.712
 2044POPC   C2B28856  38.216  34.900   8.379
 2044POPC   C3B28857  37.907  34.926   8.113
 2044POPC   C4B28858  37.790  34.803   7.755
 2045POPC   NC328859  41.117  19.697   9.634
 2045POPC   PO428860  41.571  20.153   9.498
 2045POPC   GL128861  41.566  19.860   9.196
 2045POPC   GL228862  41.691  19.524   9.114
 2045POPC   C1A28863  41.613  19.901   8.784
 2045POPC   D2A28864  41.409  19.894   8.428
 2045POPC   C3A28865  41.719  19.854   8.106
 2045POPC   C4A28866  41.606  20.050   7.753
 2045POPC   C1B28867  41.444  19.427   8.703
 2045POPC   C2B28868  41.477  19.419   8.279
 2045POPC   C3B28869  41.243  19.714   7.964
 2045POPC   C4B28870  41.230  19.646   7.553
 2046POPC   NC328871  15.866   4.725   9.792
 2046POPC   PO428872  16.186   4.225   9.522
 2046POPC   GL128873  16.077   4.541   9.231
 2046POPC   GL228874  15.804   4.360   9.101
 2046POPC   C1A28875  16.207   4.714   8.818
 2046POPC   D2A28876  15.995   4.841   8.428
 2046POPC   C3A28877  16.094   4.827   8.003
 2046POPC   C4A28878  15.753   4.803   7.751
 2046POPC   C1B28879  15.807   4.409   8.640
 2046POPC   C2B28880  16.010   4.353   8.232
 2046POPC   C3B28881  15.983   4.343   7.788
 2046POPC   C4B28882  15.834   4.114   7.391
 2047POPC   NC328883  27.748  11.345   9.401
 2047POPC   PO428884  27.075  11.249   9.509
 2047POPC   GL128885  27.290  11.456   9.200
 2047POPC   GL228886  27.388  11.144   9.081
 2047POPC   C1A28887  27.329  11.647   8.802
 2047POPC   D2A28888  27.313  11.485   8.383
 2047POPC   C3A28889  27.681  11.423   8.214
 2047POPC   C4A28890  27.705  11.402   7.808
 2047POPC   C1B28891  27.660  11.247   8.733
 2047POPC   C2B28892  27.961  11.063   8.452
 2047POPC   C3B28893  28.131  11.224   8.073
 2047POPC   C4B28894  28.058  11.106   7.640
 2048POPC   NC328895   8.516  20.875   9.469
 2048POPC   PO428896   9.236  20.834   9.407
 2048POPC   GL128897   8.915  20.948   9.149
 2048POPC   GL228898   8.714  20.643   9.066
 2048POPC   C1A28899   9.011  20.915   8.737
 2048POPC   D2A28900   8.833  20.806   8.370
 2048POPC   C3A28901   9.078  20.806   8.030
 2048POPC   C4A28902   9.026  20.987   7.645
 2048POPC   C1B28903   8.860  20.409   8.701
 2048POPC   C2B28904   8.999  20.327   8.271
 2048POPC   C3B28905   8.787  20.211   7.901
 2048POPC   C4B28906   8.830  20.039   7.459
 2049POPC   NC328907  43.688   4.730   9.250
 2049POPC   PO428908  43.806   4.190   9.633
 2049POPC   GL128909  43.942   4.253   9.202
 2049POPC   GL228910  43.924   3.892   9.126
 2049POPC   C1A28911  43.846   4.384   8.732
 2049POPC   D2A28912  43.754   4.240   8.287
 2049POPC   C3A28913  43.543   4.457   7.974
 2049POPC   C4A28914  43.839   4.442   7.637
 2049POPC   C1B28915  44.230   4.068   8.846
 2049POPC   C2B28916  44.246   4.225   8.453
 2049POPC   C3B28917  44.232   4.326   8.054
 2049POPC   C4B28918  44.226   4.042   7.744
 2050POPC   NC328919   3.169  26.524   9.379
 2050POPC   PO428920   3.599  27.083   9.540
 2050POPC   GL128921   3.793  27.009   9.112
 2050POPC   GL228922   3.457  27.039   9.049
 2050POPC   C1A28923   3.805  26.778   8.663
 2050POPC   D2A28924   3.444  26.501   8.528
 2050POPC   C3A28925   3.473  26.425   8.068
 2050POPC   C4A28926   3.752  26.738   7.865
 2050POPC   C1B28927   3.384  27.023   8.652
 2050POPC   C2B28928   3.408  26.920   8.242
 2050POPC   C3B28929   3.284  26.901   7.826
 2050POPC   C4B28930   3.377  27.238   7.551
 2051POPC   NC328931  27.145  43.382   9.487
 2051POPC   PO428932  26.517  43.098   9.549
 2051POPC   GL128933  26.580  42.990   9.127
 2051POPC   GL228934  26.919  43.066   9.129
 2051POPC   C1A28935  26.487  43.207   8.749
 2051POPC   D2A28936  26.600  43.268   8.328
 2051POPC   C3A28937  26.503  42.924   8.043
 2051POPC   C4A28938  26.658  42.910   7.619
 2051POPC   C1B28939  27.005  43.213   8.745
 2051POPC   C2B28940  27.084  43.415   8.324
 2051POPC   C3B28941  26.966  43.191   7.948
 2051POPC   C4B28942  27.131  43.188   7.548
 2052POPC   NC328943  14.865  26.616   9.382
 2052POPC   PO428944  14.258  26.955   9.472
 2052POPC   GL128945  14.479  26.811   9.103
 2052POPC   GL228946  14.785  26.976   9.052
 2052POPC   C1A28947  14.459  26.701   8.675
 2052POPC   D2A28948  14.209  26.810   8.296
 2052POPC   C3A28949  14.495  26.760   7.942
 2052POPC   C4A28950  14.629  26.382   7.798
 2052POPC   C1B28951  14.701  27.232   8.742
 2052POPC   C2B28952  14.599  27.104   8.371
 2052POPC   C3B28953  14.399  27.250   8.028
 2052POPC   C4B28954  14.451  27.173   7.591
 2053POPC   NC328955  12.098  29.740   9.813
 2053POPC   PO428956  11.682  30.293   9.744
 2053POPC   GL128957  11.865  29.907   9.370
 2053POPC   GL228958  12.270  29.842   9.332
 2053POPC   C1A28959  12.034  29.898   8.884
 2053POPC   D2A28960  11.873  30.128   8.490
 2053POPC   C3A28961  12.044  30.109   8.063
 2053POPC   C4A28962  11.956  29.779   7.735
 2053POPC   C1B28963  12.478  29.689   8.930
 2053POPC   C2B28964  12.364  29.642   8.484
 2053POPC   C3B28965  12.396  29.741   8.058
 2053POPC   C4B28966  12.451  29.571   7.647
 2054POPC   NC328967  31.356  18.812   9.807
 2054POPC   PO428968  31.325  18.145   9.668
 2054POPC   GL128969  31.380  18.228   9.243
 2054POPC   GL228970  31.247  18.541   9.284
 2054POPC   C1A28971  31.593  18.466   8.892
 2054POPC   D2A28972  31.448  18.327   8.492
 2054POPC   C3A28973  31.650  18.306   8.084
 2054POPC   C4A28974  31.523  18.097   7.696
 2054POPC   C1B28975  31.088  18.519   8.845
 2054POPC   C2B28976  30.990  18.554   8.428
 2054POPC   C3B28977  31.133  18.323   8.054
 2054POPC   C4B28978  31.083  18.349   7.610
 2055POPC   NC328979  41.294   8.451   9.398
 2055POPC   PO428980  41.812   8.099   9.439
 2055POPC   GL128981  41.602   8.181   9.069
 2055POPC   GL228982  41.713   8.492   9.007
 2055POPC   C1A28983  41.625   8.158   8.622
 2055POPC   D2A28984  41.922   7.939   8.384
 2055POPC   C3A28985  41.874   8.094   7.960
 2055POPC   C4A28986  41.491   8.235   7.759
 2055POPC   C1B28987  41.700   8.666   8.587
 2055POPC   C2B28988  41.581   8.489   8.203
 2055POPC   C3B28989  41.356   8.715   7.886
 2055POPC   C4B28990  41.403   8.663   7.463
 2056POPC   NC328991  39.258  29.635   9.448
 2056POPC   PO428992  39.062  30.313   9.435
 2056POPC   GL128993  39.069  29.974   9.084
 2056POPC   GL228994  38.988  29.582   9.037
 2056POPC   C1A28995  39.296  29.810   8.710
 2056POPC   D2A28996  39.534  29.839   8.349
 2056POPC   C3A28997  39.416  29.840   7.929
 2056POPC   C4A28998  39.108  30.158   7.784
 2056POPC   C1B28999  38.791  29.712   8.698
 2056POPC   C2B29000  38.988  29.432   8.454
 2056POPC   C3B29001  39.002  29.502   8.060
 2056POPC   C4B29002  39.010  29.664   7.660
 2057POPC   NC329003  20.971  25.077   9.429
 2057POPC   PO429004  20.295  25.198   9.556
 2057POPC   GL129005  20.510  25.089   9.192
 2057POPC   GL229006  20.518  25.363   9.029
 2057POPC   C1A29007  20.521  24.958   8.737
 2057POPC   D2A29008  20.694  25.033   8.365
 2057POPC   C3A29009  20.595  24.863   7.934
 2057POPC   C4A29010  20.347  25.060   7.577
 2057POPC   C1B29011  20.609  25.484   8.637
 2057POPC   C2B29012  20.392  25.533   8.317
 2057POPC   C3B29013  20.549  25.376   7.991
 2057POPC   C4B29014  20.561  25.548   7.625
 2058POPC   NC329015   7.214  24.120   9.408
 2058POPC   PO429016   7.618  23.594   9.576
 2058POPC   GL129017   7.520  23.769   9.183
 2058POPC   GL229018   7.616  24.108   9.100
 2058POPC   C1A29019   7.267  23.731   8.819
 2058POPC   D2A29020   7.326  23.402   8.494
 2058POPC   C3A29021   7.278  23.541   8.047
 2058POPC   C4A29022   7.487  23.544   7.655
 2058POPC   C1B29023   7.733  23.944   8.730
 2058POPC   C2B29024   7.494  23.927   8.346
 2058POPC   C3B29025   7.648  23.939   7.924
 2058POPC   C4B29026   7.620  24.021   7.472
 2059POPC   NC329027  42.023  16.115   9.586
 2059POPC   PO429028  42.784  16.075   9.509
 2059POPC   GL129029  42.583  16.224   9.105
 2059POPC   GL229030  42.232  16.199   9.111
 2059POPC   C1A29031  42.556  16.171   8.674
 2059POPC   D2A29032  42.521  15.838   8.381
 2059POPC   C3A29033  42.574  15.951   7.984
 2059POPC   C4A29034  42.660  15.702   7.661
 2059POPC   C1B29035  42.141  15.909   8.844
 2059POPC   C2B29036  42.043  16.020   8.431
 2059POPC   C3B29037  42.101  16.115   8.003
 2059POPC   C4B29038  42.171  15.876   7.615
 2060POPC   NC329039  13.768  35.246   9.559
 2060POPC   PO429040  13.075  35.238   9.317
 2060POPC   GL129041  13.485  35.306   9.127
 2060POPC   GL229042  13.666  34.992   9.150
 2060POPC   C1A29043  13.756  35.526   8.824
 2060POPC   D2A29044  14.044  35.452   8.456
 2060POPC   C3A29045  13.852  35.522   8.069
 2060POPC   C4A29046  13.833  35.694   7.652
 2060POPC   C1B29047  13.937  35.058   8.822
 2060POPC   C2B29048  13.859  34.941   8.451
 2060POPC   C3B29049  13.932  35.007   8.049
 2060POPC   C4B29050  13.803  35.186   7.710
 2061POPC   NC329051   2.985  15.469   9.510
 2061POPC   PO429052   2.364  15.142   9.539
 2061POPC   GL129053   2.617  15.072   9.174
 2061POPC   GL229054   2.943  15.111   9.109
 2061POPC   C1A29055   2.655  15.247   8.740
 2061POPC   D2A29056   2.899  15.152   8.378
 2061POPC   C3A29057   2.794  15.344   8.001
 2061POPC   C4A29058   2.603  15.180   7.626
 2061POPC   C1B29059   3.179  14.908   8.773
 2061POPC   C2B29060   3.406  15.120   8.444
 2061POPC   C3B29061   3.290  15.176   8.045
 2061POPC   C4B29062   3.021  14.939   7.772
 2062POPC   NC329063   0.739  23.443   9.439
 2062POPC   PO429064   0.141  23.733   9.435
 2062POPC   GL129065   0.426  23.898   9.146
 2062POPC   GL229066   0.511  23.590   9.007
 2062POPC   C1A29067   0.367  24.019   8.724
 2062POPC   D2A29068   0.610  24.159   8.378
 2062POPC   C3A29069   0.449  24.048   7.950
 2062POPC   C4A29070   0.489  23.692   7.707
 2062POPC   C1B29071   0.698  23.644   8.625
 2062POPC   C2B29072   0.575  23.648   8.247
 2062POPC   C3B29073   0.428  23.313   8.032
 2062POPC   C4B29074   0.057  23.222   7.794
 2063POPC   NC329075   7.472  28.366   9.464
 2063POPC   PO429076   6.898  28.034   9.236
 2063POPC   GL129077   7.246  28.260   9.025
 2063POPC   GL229078   7.647  28.185   9.044
 2063POPC   C1A29079   7.221  28.401   8.626
 2063POPC   D2A29080   7.203  28.089   8.330
 2063POPC   C3A29081   7.390  28.212   7.971
 2063POPC   C4A29082   7.405  28.562   7.712
 2063POPC   C1B29083   7.611  28.029   8.667
 2063POPC   C2B29084   7.928  27.908   8.383
 2063POPC   C3B29085   7.894  27.899   7.962
 2063POPC   C4B29086   7.752  28.136   7.609
 2064POPC   NC329087  12.900  35.607   9.710
 2064POPC   PO429088  13.161  36.228   9.431
 2064POPC   GL129089  12.878  36.115   9.167
 2064POPC   GL229090  12.685  35.776   9.284
 2064POPC   C1A29091  12.876  36.320   8.770
 2064POPC   D2A29092  12.686  36.243   8.380
 2064POPC   C3A29093  12.985  36.136   8.068
 2064POPC   C4A29094  13.017  36.386   7.722
 2064POPC   C1B29095  12.636  35.816   8.851
 2064POPC   C2B29096  12.820  35.753   8.466
 2064POPC   C3B29097  12.637  35.754   8.069
 2064POPC   C4B29098  12.640  36.018   7.702
 2065POPC   NC329099  31.944  44.526   9.357
 2065POPC   PO429100  32.370   0.020   9.319
 2065POPC   GL129101  32.275  44.769   9.030
 2065POPC   GL229102  32.402  44.428   9.100
 2065POPC   C1A29103  32.507  44.745   8.664
 2065POPC   D2A29104  32.450   0.114   8.461
 2065POPC   C3A29105  32.448   0.001   8.042
 2065POPC   C4A29106  32.331  44.694   7.753
 2065POPC   C1B29107  32.120  44.420   8.719
 2065POPC   C2B29108  32.277  44.446   8.277
 2065POPC   C3B29109  32.377  44.232   7.896
 2065POPC   C4B29110  32.287  44.266   7.422
 2066POPC   NC329111   5.224  21.388   9.573
 2066POPC   PO429112   4.535  21.266   9.611
 2066POPC   GL129113   4.813  21.428   9.255
 2066POPC   GL229114   5.084  21.683   9.164
 2066POPC   C1A29115   4.872  21.289   8.832
 2066POPC   D2A29116   4.999  21.191   8.431
 2066POPC   C3A29117   4.833  21.363   8.112
 2066POPC   C4A29118   4.983  21.235   7.778
 2066POPC   C1B29119   5.272  21.627   8.741
 2066POPC   C2B29120   5.324  21.570   8.287
 2066POPC   C3B29121   5.197  21.697   7.863
 2066POPC   C4B29122   5.233  21.493   7.433
 2067POPC   NC329123  24.850  19.827   9.459
 2067POPC   PO429124  24.180  20.007   9.620
 2067POPC   GL129125  24.385  19.880   9.212
 2067POPC   GL229126  24.689  19.944   9.008
 2067POPC   C1A29127  24.269  19.953   8.756
 2067POPC   D2A29128  24.125  20.201   8.425
 2067POPC   C3A29129  24.285  20.132   8.016
 2067POPC   C4A29130  24.443  19.773   7.829
 2067POPC   C1B29131  24.681  20.234   8.670
 2067POPC   C2B29132  24.679  20.066   8.309
 2067POPC   C3B29133  24.785  20.206   7.898
 2067POPC   C4B29134  25.035  20.194   7.542
 2068POPC   NC329135  15.375  27.378   9.510
 2068POPC   PO429136  14.849  27.750   9.610
 2068POPC   GL129137  14.743  27.700   9.176
 2068POPC   GL229138  14.990  27.432   9.136
 2068POPC   C1A29139  14.879  27.737   8.740
 2068POPC   D2A29140  14.934  27.938   8.313
 2068POPC   C3A29141  15.150  27.696   8.014
 2068POPC   C4A29142  15.518  27.792   7.822
 2068POPC   C1B29143  15.365  27.512   8.862
 2068POPC   C2B29144  15.609  27.324   8.519
 2068POPC   C3B29145  15.431  27.084   8.171
 2068POPC   C4B29146  15.409  27.268   7.794
 2069POPC   NC329147  24.760  29.499   9.908
 2069POPC   PO429148  24.464  29.955   9.437
 2069POPC   GL129149  24.458  29.906   9.076
 2069POPC   GL229150  24.793  29.927   9.040
 2069POPC   C1A29151  24.460  30.024   8.679
 2069POPC   D2A29152  24.205  30.104   8.411
 2069POPC   C3A29153  24.398  30.003   8.063
 2069POPC   C4A29154  24.553  29.935   7.679
 2069POPC   C1B29155  24.878  29.674   8.728
 2069POPC   C2B29156  24.709  29.717   8.339
 2069POPC   C3B29157  24.800  29.578   7.959
 2069POPC   C4B29158  24.980  29.630   7.595
 2070POPC   NC329159  23.271  15.463   9.759
 2070POPC   PO429160  23.947  15.353   9.536
 2070POPC   GL129161  23.781  15.226   9.158
 2070POPC   GL229162  23.414  15.161   9.247
 2070POPC   C1A29163  23.853  15.403   8.752
 2070POPC   D2A29164  23.647  15.561   8.406
 2070POPC   C3A29165  23.736  15.319   8.053
 2070POPC   C4A29166  23.931  15.272   7.664
 2070POPC   C1B29167  23.342  14.922   8.817
 2070POPC   C2B29168  23.471  15.071   8.443
 2070POPC   C3B29169  23.382  14.885   8.065
 2070POPC   C4B29170  23.443  15.054   7.692
 2071POPC   NC329171  28.208  41.864   9.613
 2071POPC   PO429172  28.345  41.230   9.415
 2071POPC   GL129173  28.462  41.408   9.060
 2071POPC   GL229174  28.259  41.668   9.137
 2071POPC   C1A29175  28.350  41.374   8.643
 2071POPC   D2A29176  28.161  41.178   8.306
 2071POPC   C3A29177  28.349  41.410   8.008
 2071POPC   C4A29178  28.561  41.722   7.781
 2071POPC   C1B29179  28.170  41.853   8.773
 2071POPC   C2B29180  28.365  41.868   8.402
 2071POPC   C3B29181  28.180  41.953   8.031
 2071POPC   C4B29182  27.985  42.145   7.691
 2072POPC   NC329183  30.332  21.506   9.362
 2072POPC   PO429184  29.805  21.128   9.512
 2072POPC   GL129185  29.995  21.177   9.130
 2072POPC   GL229186  30.339  21.016   9.186
 2072POPC   C1A29187  29.894  21.439   8.773
 2072POPC   D2A29188  29.708  21.526   8.340
 2072POPC   C3A29189  29.796  21.190   8.061
 2072POPC   C4A29190  29.875  21.502   7.757
 2072POPC   C1B29191  30.342  21.128   8.740
 2072POPC   C2B29192  30.192  21.340   8.380
 2072POPC   C3B29193  30.276  21.303   7.984
 2072POPC   C4B29194  30.135  21.101   7.623
 2073POPC   NC329195  22.486  14.939   9.428
 2073POPC   PO429196  22.210  15.621   9.516
 2073POPC   GL129197  22.155  15.391   9.131
 2073POPC   GL229198  22.111  15.003   9.077
 2073POPC   C1A29199  22.217  15.318   8.695
 2073POPC   D2A29200  22.383  15.468   8.326
 2073POPC   C3A29201  22.079  15.375   7.986
 2073POPC   C4A29202  22.178  15.385   7.536
 2073POPC   C1B29203  22.384  14.838   8.744
 2073POPC   C2B29204  22.453  14.948   8.299
 2073POPC   C3B29205  22.344  14.938   7.857
 2073POPC   C4B29206  22.537  15.028   7.455
 2074POPC   NC329207  30.070  23.085   9.756
 2074POPC   PO429208  30.668  22.919   9.461
 2074POPC   GL129209  30.979  22.873   9.148
 2074POPC   GL229210  31.131  23.182   9.030
 2074POPC   C1A29211  30.950  22.763   8.701
 2074POPC   D2A29212  30.951  22.982   8.289
 2074POPC   C3A29213  30.705  22.753   7.983
 2074POPC   C4A29214  30.506  22.581   7.640
 2074POPC   C1B29215  30.696  23.196   8.847
 2074POPC   C2B29216  30.581  23.330   8.456
 2074POPC   C3B29217  30.568  23.257   8.014
 2074POPC   C4B29218  30.913  23.223   7.750
 2075POPC   NC329219  20.993  42.754   9.484
 2075POPC   PO429220  20.530  42.337   9.687
 2075POPC   GL129221  20.627  42.359   9.238
 2075POPC   GL229222  20.784  42.617   9.047
 2075POPC   C1A29223  20.655  42.116   8.850
 2075POPC   D2A29224  20.488  42.002   8.448
 2075POPC   C3A29225  20.546  42.181   8.056
 2075POPC   C4A29226  20.855  42.224   7.748
 2075POPC   C1B29227  20.427  42.585   8.787
 2075POPC   C2B29228  20.453  42.631   8.338
 2075POPC   C3B29229  20.649  42.660   7.915
 2075POPC   C4B29230  20.382  42.436   7.592
 2076POPC   NC329231  24.377   3.562   9.535
 2076POPC   PO429232  25.026   3.462   9.520
 2076POPC   GL129233  24.713   3.445   9.139
 2076POPC   GL229234  24.329   3.354   9.087
 2076POPC   C1A29235  24.762   3.618   8.734
 2076POPC   D2A29236  24.559   3.754   8.365
 2076POPC   C3A29237  24.753   3.598   8.028
 2076POPC   C4A29238  24.763   3.522   7.579
 2076POPC   C1B29239  24.357   3.338   8.641
 2076POPC   C2B29240  24.236   3.378   8.239
 2076POPC   C3B29241  24.489   3.177   7.929
 2076POPC   C4B29242  24.395   3.202   7.502
 2077POPC   NC329243  10.054  21.558   9.569
 2077POPC   PO429244   9.415  21.735   9.425
 2077POPC   GL129245   9.715  21.558   9.109
 2077POPC   GL229246   9.999  21.711   9.085
 2077POPC   C1A29247   9.615  21.326   8.738
 2077POPC   D2A29248   9.771  21.099   8.398
 2077POPC   C3A29249   9.613  21.220   8.007
 2077POPC   C4A29250   9.730  21.333   7.613
 2077POPC   C1B29251  10.075  21.529   8.686
 2077POPC   C2B29252   9.961  21.573   8.253
 2077POPC   C3B29253  10.097  21.571   7.828
 2077POPC   C4B29254  10.059  21.641   7.366
 2078POPC   NC329255  37.593  43.124   9.725
 2078POPC   PO429256  38.223  43.152   9.485
 2078POPC   GL129257  37.992  43.099   9.092
 2078POPC   GL229258  37.673  42.979   9.214
 2078POPC   C1A29259  37.813  43.120   8.669
 2078POPC   D2A29260  38.100  43.280   8.346
 2078POPC   C3A29261  38.001  43.108   8.008
 2078POPC   C4A29262  37.717  43.017   7.688
 2078POPC   C1B29263  37.392  42.763   8.918
 2078POPC   C2B29264  37.455  42.619   8.492
 2078POPC   C3B29265  37.563  42.773   8.107
 2078POPC   C4B29266  37.375  42.612   7.742
 2079POPC   NC329267  33.305  44.320   9.464
 2079POPC   PO429268  33.108  44.933   9.724
 2079POPC   GL129269  32.919  44.682   9.332
 2079POPC   GL229270  32.784  44.886   9.079
 2079POPC   C1A29271  32.921  44.446   8.900
 2079POPC   D2A29272  33.031  44.598   8.483
 2079POPC   C3A29273  32.877  44.438   8.075
 2079POPC   C4A29274  33.209  44.496   7.742
 2079POPC   C1B29275  32.920   0.065   8.701
 2079POPC   C2B29276  32.890   0.247   8.290
 2079POPC   C3B29277  32.990  44.932   8.058
 2079POPC   C4B29278  32.806  44.819   7.697
 2080POPC   NC329279  14.825  21.879   9.506
 2080POPC   PO429280  14.333  22.294   9.284
 2080POPC   GL129281  14.469  21.963   9.100
 2080POPC   GL229282  14.148  21.853   9.034
 2080POPC   C1A29283  14.644  22.001   8.699
 2080POPC   D2A29284  14.778  22.335   8.434
 2080POPC   C3A29285  14.736  22.175   8.058
 2080POPC   C4A29286  14.489  22.114   7.714
 2080POPC   C1B29287  14.138  21.973   8.631
 2080POPC   C2B29288  14.255  22.274   8.357
 2080POPC   C3B29289  14.075  22.272   7.988
 2080POPC   C4B29290  14.059  21.875   7.817
 2081POPC   NC329291  41.773  27.033   9.381
 2081POPC   PO429292  41.333  26.550   9.489
 2081POPC   GL129293  41.512  26.632   9.121
 2081POPC   GL229294  41.299  26.933   9.072
 2081POPC   C1A29295  41.830  26.637   8.797
 2081POPC   D2A29296  41.946  26.537   8.394
 2081POPC   C3A29297  41.833  26.830   8.055
 2081POPC   C4A29298  41.510  26.804   7.753
 2081POPC   C1B29299  41.444  26.977   8.630
 2081POPC   C2B29300  41.329  26.989   8.174
 2081POPC   C3B29301  41.100  27.114   7.757
 2081POPC   C4B29302  41.319  27.246   7.385
 2082POPC   NC329303  35.731  40.314   9.925
 2082POPC   PO429304  35.301  39.905   9.571
 2082POPC   GL129305  35.279  40.087   9.206
 2082POPC   GL229306  35.014  40.296   9.269
 2082POPC   C1A29307  35.338  39.895   8.818
 2082POPC   D2A29308  35.463  40.033   8.439
 2082POPC   C3A29309  35.356  39.839   8.083
 2082POPC   C4A29310  35.483  40.022   7.709
 2082POPC   C1B29311  34.922  40.181   8.812
 2082POPC   C2B29312  34.927  39.967   8.376
 2082POPC   C3B29313  34.934  40.103   7.931
 2082POPC   C4B29314  34.892  40.531   7.833
 2083POPC   NC329315   2.760   7.744   9.494
 2083POPC   PO429316   2.410   7.228   9.441
 2083POPC   GL129317   2.690   7.201   9.107
 2083POPC   GL229318   2.661   7.536   9.060
 2083POPC   C1A29319   2.622   7.046   8.673
 2083POPC   D2A29320   2.389   7.239   8.312
 2083POPC   C3A29321   2.614   7.376   7.930
 2083POPC   C4A29322   2.854   7.274   7.525
 2083POPC   C1B29323   2.536   7.550   8.701
 2083POPC   C2B29324   2.780   7.602   8.374
 2083POPC   C3B29325   2.889   7.850   8.077
 2083POPC   C4B29326   2.780   7.766   7.649
 2084POPC   NC329327  14.555  20.947   9.532
 2084POPC   PO429328  14.456  20.289   9.614
 2084POPC   GL129329  14.417  20.523   9.251
 2084POPC   GL229330  14.781  20.497   9.236
 2084POPC   C1A29331  14.464  20.733   8.848
 2084POPC   D2A29332  14.351  20.544   8.425
 2084POPC   C3A29333  14.183  20.716   8.021
 2084POPC   C4A29334  14.153  20.778   7.570
 2084POPC   C1B29335  14.889  20.471   8.809
 2084POPC   C2B29336  14.808  20.780   8.442
 2084POPC   C3B29337  14.699  20.661   8.016
 2084POPC   C4B29338  14.893  20.632   7.601
 2085POPC   NC329339  43.126  34.122   9.437
 2085POPC   PO429340  43.315  33.503   9.526
 2085POPC   GL129341  43.327  33.485   9.061
 2085POPC   GL229342  43.034  33.654   9.061
 2085POPC   C1A29343  43.245  33.588   8.593
 2085POPC   D2A29344  43.168  33.939   8.293
 2085POPC   C3A29345  43.309  33.768   7.919
 2085POPC   C4A29346  43.039  33.432   7.818
 2085POPC   C1B29347  43.021  34.025   8.787
 2085POPC   C2B29348  42.649  34.146   8.531
 2085POPC   C3B29349  42.525  33.956   8.164
 2085POPC   C4B29350  42.820  33.896   7.817
 2086POPC   NC329351  39.392  26.548   9.509
 2086POPC   PO429352  39.153  27.209   9.543
 2086POPC   GL129353  39.152  26.927   9.196
 2086POPC   GL229354  38.971  26.626   9.253
 2086POPC   C1A29355  39.333  26.700   8.836
 2086POPC   D2A29356  39.484  26.707   8.404
 2086POPC   C3A29357  39.253  26.910   8.068
 2086POPC   C4A29358  39.179  27.224   7.748
 2086POPC   C1B29359  38.862  26.506   8.831
 2086POPC   C2B29360  38.851  26.372   8.402
 2086POPC   C3B29361  38.832  26.608   8.019
 2086POPC   C4B29362  39.069  26.730   7.613
 2087POPC   NC329363   4.145  31.600   9.542
 2087POPC   PO429364   4.460  30.988   9.488
 2087POPC   GL129365   4.364  31.295   9.177
 2087POPC   GL229366   4.480  31.650   9.151
 2087POPC   C1A29367   4.538  31.248   8.762
 2087POPC   D2A29368   4.585  31.218   8.337
 2087POPC   C3A29369   4.351  31.339   7.980
 2087POPC   C4A29370   4.659  31.657   7.902
 2087POPC   C1B29371   4.182  31.606   8.802
 2087POPC   C2B29372   4.106  31.614   8.366
 2087POPC   C3B29373   4.134  31.807   7.979
 2087POPC   C4B29374   3.956  31.623   7.665
 2088POPC   NC329375  11.901   5.244   9.759
 2088POPC   PO429376  12.357   5.209   9.249
 2088POPC   GL129377  12.200   4.948   8.968
 2088POPC   GL229378  12.499   4.786   8.895
 2088POPC   C1A29379  11.962   5.053   8.583
 2088POPC   D2A29380  11.766   5.451   8.414
 2088POPC   C3A29381  11.831   5.445   7.980
 2088POPC   C4A29382  11.834   5.077   7.730
 2088POPC   C1B29383  12.475   5.000   8.560
 2088POPC   C2B29384  12.350   5.102   8.211
 2088POPC   C3B29385  12.515   4.893   7.912
 2088POPC   C4B29386  12.337   5.110   7.611
 2089POPC   NC329387  33.440   0.167   9.488
 2089POPC   PO429388  33.947   0.523   9.635
 2089POPC   GL129389  33.755   0.503   9.224
 2089POPC   GL229390  33.815   0.142   9.095
 2089POPC   C1A29391  33.890   0.579   8.804
 2089POPC   D2A29392  33.800   0.348   8.442
 2089POPC   C3A29393  33.763   0.584   8.091
 2089POPC   C4A29394  33.780   0.698   7.674
 2089POPC   C1B29395  33.685  44.907   8.710
 2089POPC   C2B29396  33.740  44.843   8.277
 2089POPC   C3B29397  33.853   0.101   7.944
 2089POPC   C4B29398  33.713   0.225   7.526
 2090POPC   NC329399  28.952  11.846   9.725
 2090POPC   PO429400  29.310  12.372   9.513
 2090POPC   GL129401  29.107  11.996   9.240
 2090POPC   GL229402  28.782  12.070   9.096
 2090POPC   C1A29403  29.040  11.734   8.822
 2090POPC   D2A29404  29.192  11.750   8.370
 2090POPC   C3A29405  29.046  11.834   7.951
 2090POPC   C4A29406  29.022  12.095   7.611
 2090POPC   C1B29407  28.962  12.211   8.667
 2090POPC   C2B29408  29.087  12.313   8.233
 2090POPC   C3B29409  28.933  12.534   7.853
 2090POPC   C4B29410  28.668  12.439   7.461
 2091POPC   NC329411   9.311  39.373   9.629
 2091POPC   PO429412   8.690  39.083   9.666
 2091POPC   GL129413   8.895  38.998   9.273
 2091POPC   GL229414   9.233  38.853   9.253
 2091POPC   C1A29415   9.078  39.265   8.937
 2091POPC   D2A29416   9.243  39.261   8.503
 2091POPC   C3A29417   9.212  39.517   8.153
 2091POPC   C4A29418   9.320  39.443   7.743
 2091POPC   C1B29419   9.039  38.769   8.835
 2091POPC   C2B29420   8.876  38.907   8.449
 2091POPC   C3B29421   9.020  39.019   8.058
 2091POPC   C4B29422   9.263  38.890   7.749
 2092POPC   NC329423  44.790  14.255   9.568
 2092POPC   PO429424  44.905  14.852   9.297
 2092POPC   GL129425  44.611  14.575   9.122
 2092POPC   GL229426  44.746  14.256   9.036
 2092POPC   C1A29427  44.412  14.417   8.718
 2092POPC   D2A29428  44.587  14.369   8.312
 2092POPC   C3A29429  44.304  14.495   7.998
 2092POPC   C4A29430  44.311  14.564   7.580
 2092POPC   C1B29431  44.898  14.084   8.630
 2092POPC   C2B29432  44.784  13.862   8.245
 2092POPC   C3B29433  44.539  14.029   7.930
 2092POPC   C4B29434  44.761  14.413   7.783
 2093POPC   NC329435  20.969  26.076   9.386
 2093POPC   PO429436  21.494  26.450   9.438
 2093POPC   GL129437  21.656  26.117   9.184
 2093POPC   GL229438  21.363  25.901   9.105
 2093POPC   C1A29439  21.841  26.126   8.799
 2093POPC   D2A29440  21.551  26.271   8.490
 2093POPC   C3A29441  21.684  26.175   8.101
 2093POPC   C4A29442  21.604  26.315   7.666
 2093POPC   C1B29443  21.206  25.766   8.699
 2093POPC   C2B29444  21.317  25.831   8.261
 2093POPC   C3B29445  21.234  26.049   7.873
 2093POPC   C4B29446  21.085  26.382   7.631
 2094POPC   NC329447  25.237  40.321   9.337
 2094POPC   PO429448  25.531  40.961   9.557
 2094POPC   GL129449  25.299  40.824   9.225
 2094POPC   GL229450  25.365  41.107   9.069
 2094POPC   C1A29451  25.120  40.753   8.799
 2094POPC   D2A29452  25.264  40.841   8.411
 2094POPC   C3A29453  25.021  40.861   8.051
 2094POPC   C4A29454  24.852  40.593   7.736
 2094POPC   C1B29455  25.626  41.120   8.728
 2094POPC   C2B29456  25.781  40.949   8.358
 2094POPC   C3B29457  25.579  40.819   8.004
 2094POPC   C4B29458  25.713  40.681   7.637
 2095POPC   NC329459  11.102   1.419   9.816
 2095POPC   PO429460  11.363   1.591   9.193
 2095POPC   GL129461  11.240   1.193   8.978
 2095POPC   GL229462  10.880   1.130   8.853
 2095POPC   C1A29463  11.288   0.983   8.591
 2095POPC   D2A29464  11.192   1.070   8.177
 2095POPC   C3A29465  11.568   1.196   7.935
 2095POPC   C4A29466  11.545   1.015   7.523
 2095POPC   C1B29467  10.999   1.430   8.534
 2095POPC   C2B29468  11.057   1.553   8.111
 2095POPC   C3B29469  11.135   1.294   7.713
 2095POPC   C4B29470  11.043   1.065   7.342
 2096POPC   NC329471   7.765  23.130   9.574
 2096POPC   PO429472   8.113  23.525   9.260
 2096POPC   GL129473   8.174  23.067   9.153
 2096POPC   GL229474   8.509  22.862   9.052
 2096POPC   C1A29475   8.159  22.976   8.725
 2096POPC   D2A29476   8.372  23.043   8.358
 2096POPC   C3A29477   8.116  23.035   7.981
 2096POPC   C4A29478   7.857  23.397   7.951
 2096POPC   C1B29479   8.503  22.597   8.667
 2096POPC   C2B29480   8.621  22.594   8.241
 2096POPC   C3B29481   8.636  22.932   7.939
 2096POPC   C4B29482   8.441  23.068   7.557
 2097POPC   NC329483  10.981  36.017   9.336
 2097POPC   PO429484  11.486  36.315   9.537
 2097POPC   GL129485  11.355  36.228   9.071
 2097POPC   GL229486  10.991  36.147   8.869
 2097POPC   C1A29487  11.415  35.892   8.781
 2097POPC   D2A29488  11.188  35.804   8.432
 2097POPC   C3A29489  11.229  36.119   8.128
 2097POPC   C4A29490  11.257  36.030   7.697
 2097POPC   C1B29491  11.071  36.437   8.549
 2097POPC   C2B29492  10.868  36.543   8.162
 2097POPC   C3B29493  10.833  36.287   7.790
 2097POPC   C4B29494  10.815  36.088   7.391
 2098POPC   NC329495  36.393  40.576   9.508
 2098POPC   PO429496  35.786  40.757   9.772
 2098POPC   GL129497  35.907  40.729   9.265
 2098POPC   GL229498  35.716  40.884   9.045
 2098POPC   C1A29499  36.006  40.464   8.869
 2098POPC   D2A29500  36.096  40.523   8.396
 2098POPC   C3A29501  35.871  40.535   7.983
 2098POPC   C4A29502  35.983  40.629   7.521
 2098POPC   C1B29503  36.076  40.939   8.738
 2098POPC   C2B29504  35.948  40.993   8.295
 2098POPC   C3B29505  36.067  41.000   7.884
 2098POPC   C4B29506  36.515  40.981   7.800
 2099POPC   NC329507  13.381  13.422   9.466
 2099POPC   PO429508  13.835  13.882   9.467
 2099POPC   GL129509  13.755  13.570   9.165
 2099POPC   GL229510  13.493  13.761   9.053
 2099POPC   C1A29511  13.598  13.295   8.850
 2099POPC   D2A29512  13.595  13.210   8.410
 2099POPC   C3A29513  13.495  13.562   8.169
 2099POPC   C4A29514  13.444  13.408   7.793
 2099POPC   C1B29515  13.684  14.015   8.742
 2099POPC   C2B29516  13.831  13.962   8.266
 2099POPC   C3B29517  13.924  14.135   7.851
 2099POPC   C4B29518  13.895  13.953   7.412
 2100POPC   NC329519  12.869  24.571   9.414
 2100POPC   PO429520  12.802  23.951   9.576
 2100POPC   GL129521  12.823  24.153   9.141
 2100POPC   GL229522  12.556  24.406   9.068
 2100POPC   C1A29523  13.020  24.311   8.751
 2100POPC   D2A29524  12.942  24.621   8.425
 2100POPC   C3A29525  13.034  24.473   8.000
 2100POPC   C4A29526  13.049  24.817   7.747
 2100POPC   C1B29527  12.485  24.239   8.705
 2100POPC   C2B29528  12.698  24.196   8.337
 2100POPC   C3B29529  12.534  24.503   8.038
 2100POPC   C4B29530  12.287  24.415   7.678
 2101POPC   NC329531   8.793   9.800   9.743
 2101POPC   PO429532   8.499   9.183   9.452
 2101POPC   GL129533   8.671   9.391   9.065
 2101POPC   GL229534   8.998   9.568   9.150
 2101POPC   C1A29535   8.716   9.662   8.698
 2101POPC   D2A29536   8.527   9.722   8.280
 2101POPC   C3A29537   8.848   9.761   7.962
 2101POPC   C4A29538   8.889   9.747   7.510
 2101POPC   C1B29539   9.242   9.641   8.763
 2101POPC   C2B29540   9.220   9.881   8.397
 2101POPC   C3B29541   9.369   9.691   8.042
 2101POPC   C4B29542   9.341   9.591   7.632
 2102POPC   NC329543  43.324  36.307   9.433
 2102POPC   PO429544  42.804  35.924   9.410
 2102POPC   GL129545  43.121  35.899   9.090
 2102POPC   GL229546  43.497  35.897   9.139
 2102POPC   C1A29547  43.052  36.014   8.654
 2102POPC   D2A29548  42.750  35.898   8.334
 2102POPC   C3A29549  42.769  36.068   7.937
 2102POPC   C4A29550  42.957  36.057   7.567
 2102POPC   C1B29551  43.535  36.227   8.797
 2102POPC   C2B29552  43.391  36.276   8.385
 2102POPC   C3B29553  43.279  36.072   8.028
 2102POPC   C4B29554  43.467  36.107   7.629
 2103POPC   NC329555  31.932  35.743   9.547
 2103POPC   PO429556  31.979  35.060   9.683
 2103POPC   GL129557  32.201  35.193   9.302
 2103POPC   GL229558  32.160  35.515   9.133
 2103POPC   C1A29559  32.137  35.055   8.898
 2103POPC   D2A29560  32.302  34.983   8.519
 2103POPC   C3A29561  32.170  35.243   8.224
 2103POPC   C4A29562  32.287  35.355   7.820
 2103POPC   C1B29563  31.973  35.603   8.690
 2103POPC   C2B29564  31.958  35.710   8.229
 2103POPC   C3B29565  31.814  35.549   7.788
 2103POPC   C4B29566  31.871  35.752   7.341
 2104POPC   NC329567  38.293  29.564   9.479
 2104POPC   PO429568  38.646  28.974   9.462
 2104POPC   GL129569  38.570  29.260   9.152
 2104POPC   GL229570  38.237  29.097   9.088
 2104POPC   C1A29571  38.538  29.272   8.717
 2104POPC   D2A29572  38.272  29.038   8.441
 2104POPC   C3A29573  38.440  29.053   8.039
 2104POPC   C4A29574  38.701  29.188   7.708
 2104POPC   C1B29575  38.038  29.362   8.772
 2104POPC   C2B29576  37.936  29.397   8.340
 2104POPC   C3B29577  38.082  29.395   7.881
 2104POPC   C4B29578  38.208  29.049   7.588
 2105POPC   NC329579  29.153  43.320   9.348
 2105POPC   PO429580  28.698  43.134   9.828
 2105POPC   GL129581  28.918  42.892   9.327
 2105POPC   GL229582  29.254  42.951   9.044
 2105POPC   C1A29583  28.850  42.826   8.818
 2105POPC   D2A29584  28.978  43.114   8.483
 2105POPC   C3A29585  29.046  42.997   8.041
 2105POPC   C4A29586  28.824  43.248   7.736
 2105POPC   C1B29587  29.505  42.728   8.771
 2105POPC   C2B29588  29.638  42.831   8.371
 2105POPC   C3B29589  29.546  43.168   8.086
 2105POPC   C4B29590  29.539  43.008   7.680
 2106POPC   NC329591  28.815  41.209   9.402
 2106POPC   PO429592  29.141  41.835   9.376
 2106POPC   GL129593  29.212  41.401   9.118
 2106POPC   GL229594  29.574  41.234   9.114
 2106POPC   C1A29595  28.999  41.164   8.737
 2106POPC   D2A29596  28.746  41.203   8.319
 2106POPC   C3A29597  28.948  41.483   7.999
 2106POPC   C4A29598  29.020  41.948   7.861
 2106POPC   C1B29599  29.540  41.495   8.744
 2106POPC   C2B29600  29.306  41.485   8.362
 2106POPC   C3B29601  29.475  41.494   7.923
 2106POPC   C4B29602  29.445  41.491   7.449
 2107POPC   NC329603   0.985  40.338   9.394
 2107POPC   PO429604   1.617  40.004   9.550
 2107POPC   GL129605   1.340  40.007   9.195
 2107POPC   GL229606   1.168  39.665   9.163
 2107POPC   C1A29607   1.263  40.183   8.794
 2107POPC   D2A29608   1.478  40.117   8.413
 2107POPC   C3A29609   1.260  40.100   8.038
 2107POPC   C4A29610   1.392  40.011   7.624
 2107POPC   C1B29611   1.267  39.669   8.748
 2107POPC   C2B29612   1.159  39.691   8.314
 2107POPC   C3B29613   1.268  39.592   7.870
 2107POPC   C4B29614   1.102  39.649   7.391
 2108POPC   NC329615  28.814   1.470   9.561
 2108POPC   PO429616  29.343   1.012   9.587
 2108POPC   GL129617  29.178   0.983   9.162
 2108POPC   GL229618  28.829   0.974   9.173
 2108POPC   C1A29619  29.042   0.877   8.720
 2108POPC   D2A29620  28.878   1.022   8.320
 2108POPC   C3A29621  29.090   1.331   8.097
 2108POPC   C4A29622  29.101   1.246   7.682
 2108POPC   C1B29623  28.701   1.345   8.836
 2108POPC   C2B29624  28.640   1.502   8.360
 2108POPC   C3B29625  28.617   1.326   7.906
 2108POPC   C4B29626  28.698   1.442   7.451
 2109POPC   NC329627   3.356  21.381   9.367
 2109POPC   PO429628   3.923  21.737   9.295
 2109POPC   GL129629   3.701  21.485   8.991
 2109POPC   GL229630   3.636  21.101   9.027
 2109POPC   C1A29631   3.684  21.355   8.580
 2109POPC   D2A29632   3.328  21.491   8.371
 2109POPC   C3A29633   3.386  21.428   7.971
 2109POPC   C4A29634   3.837  21.434   8.011
 2109POPC   C1B29635   3.384  20.940   8.695
 2109POPC   C2B29636   3.416  20.997   8.277
 2109POPC   C3B29637   3.661  20.978   7.937
 2109POPC   C4B29638   3.637  21.232   7.573
 2110POPC   NC329639  11.148  33.748   9.459
 2110POPC   PO429640  11.563  34.231   9.519
 2110POPC   GL129641  11.333  34.133   9.148
 2110POPC   GL229642  11.531  33.828   9.083
 2110POPC   C1A29643  11.251  34.067   8.711
 2110POPC   D2A29644  11.479  33.834   8.384
 2110POPC   C3A29645  11.450  34.001   7.991
 2110POPC   C4A29646  11.382  33.964   7.578
 2110POPC   C1B29647  11.296  33.563   8.795
 2110POPC   C2B29648  11.075  33.511   8.390
 2110POPC   C3B29649  11.153  33.578   7.980
 2110POPC   C4B29650  10.990  33.641   7.603
 2111POPC   NC329651  37.410  29.156   9.715
 2111POPC   PO429652  36.738  29.020   9.616
 2111POPC   GL129653  37.063  29.067   9.341
 2111POPC   GL229654  37.244  29.431   9.334
 2111POPC   C1A29655  37.019  28.885   8.926
 2111POPC   D2A29656  37.143  29.004   8.523
 2111POPC   C3A29657  37.005  28.854   8.115
 2111POPC   C4A29658  37.223  28.993   7.789
 2111POPC   C1B29659  37.071  29.415   8.930
 2111POPC   C2B29660  36.914  29.480   8.528
 2111POPC   C3B29661  36.995  29.589   8.082
 2111POPC   C4B29662  36.843  29.386   7.707
 2112POPC   NC329663  12.704  31.168   9.487
 2112POPC   PO429664  13.070  31.786   9.479
 2112POPC   GL129665  12.909  31.533   9.128
 2112POPC   GL229666  12.537  31.529   9.124
 2112POPC   C1A29667  12.842  31.633   8.697
 2112POPC   D2A29668  12.461  31.613   8.447
 2112POPC   C3A29669  12.570  31.540   8.020
 2112POPC   C4A29670  12.871  31.289   7.761
 2112POPC   C1B29671  12.579  31.217   8.787
 2112POPC   C2B29672  12.362  31.095   8.406
 2112POPC   C3B29673  12.472  31.039   7.982
 2112POPC   C4B29674  12.584  30.722   7.705
 2113POPC   NC329675  32.580  23.773   9.372
 2113POPC   PO429676  33.225  23.609   9.631
 2113POPC   GL129677  33.090  23.562   9.238
 2113POPC   GL229678  32.996  23.846   9.090
 2113POPC   C1A29679  33.128  23.447   8.804
 2113POPC   D2A29680  33.336  23.493   8.412
 2113POPC   C3A29681  33.100  23.722   8.090
 2113POPC   C4A29682  33.197  23.968   7.737
 2113POPC   C1B29683  32.710  23.798   8.756
 2113POPC   C2B29684  32.761  23.965   8.395
 2113POPC   C3B29685  32.594  24.069   8.044
 2113POPC   C4B29686  32.726  23.876   7.695
 2114POPC   NC329687  24.356  23.477   9.502
 2114POPC   PO429688  24.747  23.184   9.270
 2114POPC   GL129689  24.502  23.543   9.016
 2114POPC   GL229690  24.286  23.834   9.131
 2114POPC   C1A29691  24.248  23.646   8.639
 2114POPC   D2A29692  24.342  23.446   8.255
 2114POPC   C3A29693  24.110  23.464   7.898
 2114POPC   C4A29694  24.294  23.474   7.505
 2114POPC   C1B29695  24.570  24.015   8.787
 2114POPC   C2B29696  24.655  23.880   8.341
 2114POPC   C3B29697  24.517  23.783   7.910
 2114POPC   C4B29698  24.526  24.061   7.512
 2115POPC   NC329699  38.690   9.554   9.530
 2115POPC   PO429700  38.213  10.001   9.596
 2115POPC   GL129701  38.381   9.812   9.185
 2115POPC   GL229702  38.699   9.592   9.041
 2115POPC   C1A29703  38.171   9.966   8.837
 2115POPC   D2A29704  37.984   9.814   8.495
 2115POPC   C3A29705  38.233   9.774   8.129
 2115POPC   C4A29706  38.306   9.727   7.710
 2115POPC   C1B29707  38.594   9.737   8.657
 2115POPC   C2B29708  38.602   9.466   8.351
 2115POPC   C3B29709  38.760   9.583   7.985
 2115POPC   C4B29710  38.720   9.991   7.867
 2116POPC   NC329711  10.292   4.075   9.549
 2116POPC   PO429712  10.702   4.566   9.671
 2116POPC   GL129713  10.503   4.473   9.245
 2116POPC   GL229714  10.547   4.139   9.135
 2116POPC   C1A29715  10.462   4.516   8.784
 2116POPC   D2A29716  10.348   4.699   8.381
 2116POPC   C3A29717  10.493   4.529   7.994
 2116POPC   C4A29718  10.347   4.393   7.586
 2116POPC   C1B29719  10.513   3.965   8.760
 2116POPC   C2B29720  10.434   4.171   8.376
 2116POPC   C3B29721  10.586   4.018   8.003
 2116POPC   C4B29722  10.527   3.929   7.582
 2117POPC   NC329723  33.419  36.009   9.474
 2117POPC   PO429724  33.955  36.303   9.298
 2117POPC   GL129725  33.795  35.915   9.142
 2117POPC   GL229726  34.045  35.674   9.207
 2117POPC   C1A29727  33.553  35.843   8.756
 2117POPC   D2A29728  33.435  36.147   8.432
 2117POPC   C3A29729  33.562  36.101   8.035
 2117POPC   C4A29730  33.543  35.829   7.694
 2117POPC   C1B29731  34.102  35.815   8.764
 2117POPC   C2B29732  33.927  35.927   8.362
 2117POPC   C3B29733  34.020  35.970   7.915
 2117POPC   C4B29734  34.098  36.427   7.849
 2118POPC   NC329735   3.507   6.760   9.455
 2118POPC   PO429736   3.506   6.208   9.760
 2118POPC   GL129737   3.537   6.316   9.218
 2118POPC   GL229738   3.679   6.095   8.994
 2118POPC   C1A29739   3.432   6.665   8.813
 2118POPC   D2A29740   3.596   6.956   8.430
 2118POPC   C3A29741   3.521   6.845   7.972
 2118POPC   C4A29742   3.388   6.446   7.775
 2118POPC   C1B29743   3.774   6.337   8.673
 2118POPC   C2B29744   3.596   6.413   8.280
 2118POPC   C3B29745   3.857   6.305   7.941
 2118POPC   C4B29746   3.829   6.400   7.518
 2119POPC   NC329747  28.661   7.743   9.466
 2119POPC   PO429748  29.293   7.743   9.529
 2119POPC   GL129749  29.369   7.651   9.126
 2119POPC   GL229750  29.143   7.380   9.167
 2119POPC   C1A29751  29.225   7.643   8.686
 2119POPC   D2A29752  29.133   7.855   8.294
 2119POPC   C3A29753  29.021   7.614   7.931
 2119POPC   C4A29754  28.988   7.705   7.473
 2119POPC   C1B29755  28.987   7.188   8.799
 2119POPC   C2B29756  29.102   7.244   8.357
 2119POPC   C3B29757  29.127   7.089   7.937
 2119POPC   C4B29758  29.160   7.246   7.547
 2120POPC   NC329759  23.681   3.990   9.509
 2120POPC   PO429760  23.925   3.415   9.632
 2120POPC   GL129761  23.716   3.496   9.224
 2120POPC   GL229762  23.902   3.762   9.123
 2120POPC   C1A29763  23.577   3.258   8.845
 2120POPC   D2A29764  23.375   3.329   8.473
 2120POPC   C3A29765  23.544   3.264   8.070
 2120POPC   C4A29766  23.628   3.639   7.868
 2120POPC   C1B29767  23.930   3.588   8.740
 2120POPC   C2B29768  23.821   3.708   8.348
 2120POPC   C3B29769  24.045   3.891   8.034
 2120POPC   C4B29770  24.283   3.624   7.784
 2121POPC   NC329771  39.616  15.233   9.742
 2121POPC   PO429772  39.210  15.759   9.685
 2121POPC   GL129773  39.333  15.474   9.316
 2121POPC   GL229774  39.015  15.417   9.109
 2121POPC   C1A29775  39.443  15.410   8.845
 2121POPC   D2A29776  39.543  15.291   8.405
 2121POPC   C3A29777  39.277  15.390   8.048
 2121POPC   C4A29778  39.380  15.284   7.619
 2121POPC   C1B29779  38.951  15.111   8.737
 2121POPC   C2B29780  39.154  14.921   8.347
 2121POPC   C3B29781  39.260  14.872   7.928
 2121POPC   C4B29782  38.911  15.089   7.750
 2122POPC   NC329783   2.358   9.701   9.489
 2122POPC   PO429784   1.697   9.992   9.413
 2122POPC   GL129785   1.858   9.742   9.137
 2122POPC   GL229786   2.126   9.963   9.121
 2122POPC   C1A29787   1.798   9.820   8.713
 2122POPC   D2A29788   1.985   9.683   8.369
 2122POPC   C3A29789   1.788   9.502   8.026
 2122POPC   C4A29790   1.894   9.829   7.729
 2122POPC   C1B29791   2.319   9.805   8.776
 2122POPC   C2B29792   2.442   9.981   8.396
 2122POPC   C3B29793   2.558  10.097   7.986
 2122POPC   C4B29794   2.370   9.919   7.636
 2123POPC   NC329795  34.834  21.990   9.488
 2123POPC   PO429796  34.144  22.193   9.416
 2123POPC   GL129797  34.421  22.208   9.072
 2123POPC   GL229798  34.777  22.171   8.996
 2123POPC   C1A29799  34.437  21.982   8.692
 2123POPC   D2A29800  34.406  22.176   8.298
 2123POPC   C3A29801  34.465  21.926   7.954
 2123POPC   C4A29802  34.463  21.997   7.533
 2123POPC   C1B29803  34.775  22.405   8.629
 2123POPC   C2B29804  34.889  22.346   8.201
 2123POPC   C3B29805  34.641  22.424   7.826
 2123POPC   C4B29806  34.640  22.592   7.343
 2124POPC   NC329807  43.586  40.081   9.474
 2124POPC   PO429808  44.102  39.663   9.247
 2124POPC   GL129809  43.804  39.972   8.998
 2124POPC   GL229810  43.651  40.331   9.041
 2124POPC   C1A29811  43.678  40.096   8.567
 2124POPC   D2A29812  43.571  39.918   8.168
 2124POPC   C3A29813  43.868  39.811   7.839
 2124POPC   C4A29814  43.997  39.972   7.426
 2124POPC   C1B29815  44.013  40.439   8.765
 2124POPC   C2B29816  44.146  40.565   8.355
 2124POPC   C3B29817  43.955  40.386   7.964
 2124POPC   C4B29818  43.601  40.248   7.756
 2125POPC   NC329819   7.427   6.205   9.589
 2125POPC   PO429820   7.030   5.637   9.626
 2125POPC   GL129821   7.212   5.897   9.237
 2125POPC   GL229822   7.600   6.008   9.168
 2125POPC   C1A29823   7.272   6.003   8.792
 2125POPC   D2A29824   7.498   5.885   8.432
 2125POPC   C3A29825   7.429   6.032   8.024
 2125POPC   C4A29826   7.521   5.722   7.714
 2125POPC   C1B29827   7.859   6.149   8.836
 2125POPC   C2B29828   7.861   6.256   8.408
 2125POPC   C3B29829   7.929   5.988   8.054
 2125POPC   C4B29830   7.793   6.160   7.665
 2126POPC   NC329831  30.914  20.011   9.490
 2126POPC   PO429832  30.482  19.393   9.483
 2126POPC   GL129833  30.677  19.636   9.156
 2126POPC   GL229834  31.016  19.567   9.093
 2126POPC   C1A29835  30.781  19.940   8.801
 2126POPC   D2A29836  30.934  20.155   8.408
 2126POPC   C3A29837  30.718  20.001   8.042
 2126POPC   C4A29838  30.776  19.954   7.628
 2126POPC   C1B29839  30.992  19.445   8.692
 2126POPC   C2B29840  30.901  19.598   8.290
 2126POPC   C3B29841  30.840  19.505   7.844
 2126POPC   C4B29842  30.977  19.444   7.379
 2127POPC   NC329843  13.821  24.873   9.471
 2127POPC   PO429844  13.303  24.383   9.350
 2127POPC   GL129845  13.680  24.384   9.088
 2127POPC   GL229846  13.891  24.677   9.014
 2127POPC   C1A29847  13.699  24.379   8.651
 2127POPC   D2A29848  13.390  24.373   8.351
 2127POPC   C3A29849  13.546  24.517   7.961
 2127POPC   C4A29850  13.889  24.357   7.745
 2127POPC   C1B29851  13.826  24.884   8.615
 2127POPC   C2B29852  13.936  24.809   8.141
 2127POPC   C3B29853  13.852  24.852   7.658
 2127POPC   C4B29854  13.803  25.018   7.129
 2128POPC   NC329855  23.575  10.476   9.592
 2128POPC   PO429856  24.247  10.430   9.354
 2128POPC   GL129857  23.998  10.682   9.104
 2128POPC   GL229858  23.629  10.692   9.138
 2128POPC   C1A29859  23.797  10.826   8.681
 2128POPC   D2A29860  23.495  10.680   8.326
 2128POPC   C3A29861  23.692  10.752   7.917
 2128POPC   C4A29862  24.140  10.637   7.925
 2128POPC   C1B29863  23.731  10.302   8.886
 2128POPC   C2B29864  23.651  10.162   8.457
 2128POPC   C3B29865  23.695  10.273   8.037
 2128POPC   C4B29866  23.415  10.390   7.670
 2129POPC   NC329867  10.849  11.254   9.254
 2129POPC   PO429868  11.374  11.458   9.595
 2129POPC   GL129869  11.379  11.298   9.167
 2129POPC   GL229870  11.308  10.945   9.075
 2129POPC   C1A29871  11.444  11.276   8.713
 2129POPC   D2A29872  11.517  11.023   8.323
 2129POPC   C3A29873  11.515  11.314   7.981
 2129POPC   C4A29874  11.144  11.585   7.855
 2129POPC   C1B29875  11.033  10.986   8.669
 2129POPC   C2B29876  11.019  11.176   8.215
 2129POPC   C3B29877  11.137  11.028   7.784
 2129POPC   C4B29878  10.921  11.048   7.372
 2130POPC   NC329879  40.951  36.891   9.625
 2130POPC   PO429880  40.538  37.275   9.277
 2130POPC   GL129881  40.873  37.085   9.064
 2130POPC   GL229882  40.935  36.762   9.085
 2130POPC   C1A29883  40.742  37.170   8.653
 2130POPC   D2A29884  40.489  36.958   8.342
 2130POPC   C3A29885  40.589  37.119   7.955
 2130POPC   C4A29886  40.718  36.887   7.630
 2130POPC   C1B29887  40.890  36.523   8.707
 2130POPC   C2B29888  41.060  36.491   8.287
 2130POPC   C3B29889  40.893  36.441   7.849
 2130POPC   C4B29890  41.004  36.558   7.385
 2131POPC   NC329891  26.795  35.539   9.861
 2131POPC   PO429892  26.667  34.943   9.540
 2131POPC   GL129893  26.829  35.281   9.263
 2131POPC   GL229894  27.159  35.206   9.216
 2131POPC   C1A29895  26.846  35.534   8.862
 2131POPC   D2A29896  26.966  35.660   8.420
 2131POPC   C3A29897  26.796  35.554   8.002
 2131POPC   C4A29898  26.594  35.453   7.615
 2131POPC   C1B29899  27.144  34.881   8.915
 2131POPC   C2B29900  27.068  34.862   8.497
 2131POPC   C3B29901  27.085  35.158   8.155
 2131POPC   C4B29902  27.023  35.185   7.714
 2132POPC   NC329903  37.414   8.952   9.928
 2132POPC   PO429904  37.937   9.245   9.535
 2132POPC   GL129905  37.806   9.135   9.151
 2132POPC   GL229906  37.643   8.824   9.219
 2132POPC   C1A29907  37.940   9.009   8.772
 2132POPC   D2A29908  37.676   8.997   8.454
 2132POPC   C3A29909  37.861   9.025   8.068
 2132POPC   C4A29910  37.759   8.915   7.674
 2132POPC   C1B29911  37.369   8.967   8.892
 2132POPC   C2B29912  37.146   8.945   8.495
 2132POPC   C3B29913  37.344   8.936   8.067
 2132POPC   C4B29914  37.266   8.875   7.657
 2133POPC   NC329915  14.682   8.838   9.619
 2133POPC   PO429916  14.302   9.315   9.568
 2133POPC   GL129917  14.493   9.075   9.194
 2133POPC   GL229918  14.374   8.730   9.212
 2133POPC   C1A29919  14.571   9.241   8.764
 2133POPC   D2A29920  14.714   9.088   8.367
 2133POPC   C3A29921  14.503   9.241   8.008
 2133POPC   C4A29922  14.397   9.158   7.585
 2133POPC   C1B29923  14.523   8.700   8.803
 2133POPC   C2B29924  14.357   8.670   8.416
 2133POPC   C3B29925  14.518   8.701   8.042
 2133POPC   C4B29926  14.374   8.649   7.637
 2134POPC   NC329927  12.241  32.709   9.496
 2134POPC   PO429928  12.128  32.082   9.635
 2134POPC   GL129929  12.139  32.234   9.206
 2134POPC   GL229930  11.889  32.458   9.098
 2134POPC   C1A29931  12.104  32.147   8.756
 2134POPC   D2A29932  12.030  31.900   8.389
 2134POPC   C3A29933  12.031  32.156   8.021
 2134POPC   C4A29934  12.229  32.219   7.657
 2134POPC   C1B29935  11.798  32.664   8.746
 2134POPC   C2B29936  11.961  32.528   8.379
 2134POPC   C3B29937  11.833  32.695   8.018
 2134POPC   C4B29938  11.870  32.583   7.640
 2135POPC   NC329939  40.231  29.811   9.597
 2135POPC   PO429940  39.853  30.280   9.490
 2135POPC   GL129941  39.984  29.989   9.187
 2135POPC   GL229942  40.280  30.117   9.184
 2135POPC   C1A29943  40.188  29.815   8.797
 2135POPC   D2A29944  40.016  29.983   8.430
 2135POPC   C3A29945  39.957  29.792   8.045
 2135POPC   C4A29946  40.314  29.757   7.793
 2135POPC   C1B29947  40.088  30.344   8.811
 2135POPC   C2B29948  40.135  30.469   8.375
 2135POPC   C3B29949  40.050  30.288   7.978
 2135POPC   C4B29950  40.215  30.207   7.564
 2136POPC   NC329951  44.306  31.390   9.415
 2136POPC   PO429952  43.673  31.162   9.444
 2136POPC   GL129953  43.844  31.496   9.141
 2136POPC   GL229954  44.068  31.781   9.183
 2136POPC   C1A29955  43.758  31.570   8.714
 2136POPC   D2A29956  43.898  31.345   8.337
 2136POPC   C3A29957  43.668  31.454   7.957
 2136POPC   C4A29958  43.687  31.256   7.539
 2136POPC   C1B29959  44.223  31.777   8.770
 2136POPC   C2B29960  44.073  31.827   8.369
 2136POPC   C3B29961  44.154  31.632   7.997
 2136POPC   C4B29962  44.041  31.612   7.596
 2137POPC   NC329963  19.096   5.434   9.422
 2137POPC   PO429964  19.272   4.777   9.488
 2137POPC   GL129965  19.304   5.055   9.099
 2137POPC   GL229966  18.948   5.191   9.009
 2137POPC   C1A29967  19.239   5.050   8.629
 2137POPC   D2A29968  18.816   4.957   8.522
 2137POPC   C3A29969  18.695   5.209   8.173
 2137POPC   C4A29970  18.799   5.146   7.770
 2137POPC   C1B29971  19.225   5.530   8.794
 2137POPC   C2B29972  19.137   5.585   8.389
 2137POPC   C3B29973  19.232   5.271   8.099
 2137POPC   C4B29974  19.226   5.361   7.681
 2138POPC   NC329975  12.105  18.217   9.489
 2138POPC   PO429976  12.586  18.717   9.463
 2138POPC   GL129977  12.248  18.594   9.139
 2138POPC   GL229978  11.886  18.473   9.111
 2138POPC   C1A29979  12.190  18.406   8.713
 2138POPC   D2A29980  12.157  18.653   8.340
 2138POPC   C3A29981  12.242  18.477   7.938
 2138POPC   C4A29982  12.162  18.215   7.566
 2138POPC   C1B29983  11.699  18.620   8.720
 2138POPC   C2B29984  11.658  18.503   8.268
 2138POPC   C3B29985  11.764  18.342   7.848
 2138POPC   C4B29986  11.720  18.462   7.419
 2139POPC   NC329987  38.543  44.014   9.799
 2139POPC   PO429988  37.950  43.942   9.486
 2139POPC   GL129989  37.735  43.899   9.130
 2139POPC   GL229990  37.742  43.534   9.191
 2139POPC   C1A29991  37.677  44.008   8.696
 2139POPC   D2A29992  37.609  44.236   8.321
 2139POPC   C3A29993  37.670  43.995   7.998
 2139POPC   C4A29994  37.525  43.934   7.610
 2139POPC   C1B29995  37.919  43.579   8.778
 2139POPC   C2B29996  37.696  43.593   8.330
 2139POPC   C3B29997  37.699  43.501   7.847
 2139POPC   C4B29998  38.098  43.388   7.613
 2140POPC   NC329999  38.025  34.460   9.468
 2140POPC   PO430000  38.675  34.664   9.637
 2140POPC   GL130001  38.478  34.720   9.199
 2140POPC   GL230002  38.194  34.576   9.004
 2140POPC   C1A30003  38.601  34.761   8.746
 2140POPC   D2A30004  38.767  34.460   8.409
 2140POPC   C3A30005  38.613  34.535   7.983
 2140POPC   C4A30006  38.307  34.822   7.825
 2140POPC   C1B30007  38.240  34.412   8.591
 2140POPC   C2B30008  37.949  34.435   8.243
 2140POPC   C3B30009  38.058  34.357   7.842
 2140POPC   C4B30010  38.371  34.265   7.594
 2141POPC   NC330011   7.195  30.264   9.431
 2141POPC   PO430012   7.721  29.876   9.374
 2141POPC   GL130013   7.321  29.847   9.134
 2141POPC   GL230014   7.225  30.128   8.946
 2141POPC   C1A30015   7.204  29.620   8.768
 2141POPC   D2A30016   7.314  29.749   8.388
 2141POPC   C3A30017   7.168  29.854   8.003
 2141POPC   C4A30018   7.349  29.754   7.614
 2141POPC   C1B30019   7.549  30.133   8.650
 2141POPC   C2B30020   7.471  30.209   8.207
 2141POPC   C3B30021   7.313  30.329   7.816
 2141POPC   C4B30022   7.442  30.275   7.386
 2142POPC   NC330023  44.156  24.140   9.457
 2142POPC   PO430024  44.476  24.548   9.927
 2142POPC   GL130025  44.553  24.693   9.361
 2142POPC   GL230026  44.341  24.523   9.194
 2142POPC   C1A30027  44.744  24.415   8.915
 2142POPC   D2A30028  44.551  24.212   8.537
 2142POPC   C3A30029  44.693  24.307   8.112
 2142POPC   C4A30030  44.682  24.236   7.652
 2142POPC   C1B30031  44.242  24.543   8.796
 2142POPC   C2B30032  44.242  24.655   8.399
 2142POPC   C3B30033  44.128  24.628   7.996
 2142POPC   C4B30034  44.379  24.644   7.645
 2143POPC   NC330035  14.005  29.709   9.500
 2143POPC   PO430036  13.825  30.208   9.141
 2143POPC   GL130037  13.645  29.817   9.025
 2143POPC   GL230038  13.282  29.778   9.059
 2143POPC   C1A30039  13.531  29.675   8.627
 2143POPC   D2A30040  13.793  29.784   8.291
 2143POPC   C3A30041  13.722  30.003   7.905
 2143POPC   C4A30042  13.673  29.694   7.549
 2143POPC   C1B30043  13.326  30.137   8.739
 2143POPC   C2B30044  13.294  30.005   8.313
 2143POPC   C3B30045  13.296  29.749   7.958
 2143POPC   C4B30046  13.311  30.032   7.580
 2144POPC   NC330047  32.793  23.359   9.635
 2144POPC   PO430048  33.058  22.707   9.575
 2144POPC   GL130049  33.289  22.906   9.251
 2144POPC   GL230050  33.048  22.727   9.052
 2144POPC   C1A30051  33.385  22.996   8.792
 2144POPC   D2A30052  33.138  22.981   8.399
 2144POPC   C3A30053  33.217  23.202   7.994
 2144POPC   C4A30054  33.069  23.434   7.664
 2144POPC   C1B30055  32.822  22.552   8.715
 2144POPC   C2B30056  33.040  22.474   8.336
 2144POPC   C3B30057  32.956  22.725   7.976
 2144POPC   C4B30058  32.959  22.916   7.593
 2145POPC   NC330059  17.064   7.230   9.793
 2145POPC   PO430060  17.633   7.661   9.565
 2145POPC   GL130061  17.558   7.376   9.211
 2145POPC   GL230062  17.318   7.542   9.029
 2145POPC   C1A30063  17.391   7.063   8.843
 2145POPC   D2A30064  17.573   6.975   8.426
 2145POPC   C3A30065  17.416   7.082   8.022
 2145POPC   C4A30066  17.645   7.047   7.655
 2145POPC   C1B30067  17.661   7.460   8.713
 2145POPC   C2B30068  17.698   7.500   8.286
 2145POPC   C3B30069  17.612   7.522   7.863
 2145POPC   C4B30070  17.191   7.567   7.747
 2146POPC   NC330071  24.017  38.563   9.719
 2146POPC   PO430072  24.627  38.487   9.533
 2146POPC   GL130073  24.301  38.517   9.244
 2146POPC   GL230074  24.535  38.318   9.074
 2146POPC   C1A30075  24.108  38.386   8.836
 2146POPC   D2A30076  24.004  38.366   8.401
 2146POPC   C3A30077  24.310  38.428   8.085
 2146POPC   C4A30078  24.265  38.584   7.702
 2146POPC   C1B30079  24.733  38.488   8.756
 2146POPC   C2B30080  24.728  38.291   8.357
 2146POPC   C3B30081  24.665  38.047   7.989
 2146POPC   C4B30082  24.705  38.131   7.561
 2147POPC   NC330083  14.701  12.024   9.369
 2147POPC   PO430084  14.236  12.415   9.711
 2147POPC   GL130085  14.216  12.181   9.197
 2147POPC   GL230086  14.266  11.841   9.107
 2147POPC   C1A30087  14.401  12.222   8.766
 2147POPC   D2A30088  14.234  12.302   8.393
 2147POPC   C3A30089  14.408  12.339   8.012
 2147POPC   C4A30090  14.134  12.279   7.671
 2147POPC   C1B30091  14.494  11.731   8.705
 2147POPC   C2B30092  14.634  11.840   8.264
 2147POPC   C3B30093  14.432  11.842   7.835
 2147POPC   C4B30094  14.626  11.828   7.401
 2148POPC   NC330095  26.723  26.560   9.474
 2148POPC   PO430096  26.918  27.252   9.395
 2148POPC   GL130097  26.885  26.921   9.101
 2148POPC   GL230098  26.524  26.779   9.059
 2148POPC   C1A30099  26.773  26.944   8.668
 2148POPC   D2A30100  26.401  27.093   8.529
 2148POPC   C3A30101  26.416  27.016   8.080
 2148POPC   C4A30102  26.721  26.746   7.856
 2148POPC   C1B30103  26.276  26.640   8.743
 2148POPC   C2B30104  26.459  26.576   8.346
 2148POPC   C3B30105  26.267  26.536   7.952
 2148POPC   C4B30106  26.410  26.496   7.518
 2149POPC   NC330107   6.481  32.825   9.481
 2149POPC   PO430108   6.731  33.439   9.580
 2149POPC   GL130109   6.882  33.169   9.224
 2149POPC   GL230110   6.580  33.143   9.077
 2149POPC   C1A30111   6.967  33.080   8.750
 2149POPC   D2A30112   6.749  33.195   8.345
 2149POPC   C3A30113   7.024  33.149   7.976
 2149POPC   C4A30114   6.912  33.026   7.545
 2149POPC   C1B30115   6.492  32.907   8.705
 2149POPC   C2B30116   6.538  32.716   8.313
 2149POPC   C3B30117   6.560  32.944   7.930
 2149POPC   C4B30118   6.432  32.894   7.499
 2150POPC   NC330119  41.433  27.961   9.539
 2150POPC   PO430120  41.851  27.490   9.411
 2150POPC   GL130121  41.625  27.703   9.079
 2150POPC   GL230122  41.288  27.617   9.208
 2150POPC   C1A30123  41.628  27.687   8.598
 2150POPC   D2A30124  41.721  27.342   8.269
 2150POPC   C3A30125  41.595  27.334   7.825
 2150POPC   C4A30126  41.736  27.505   7.404
 2150POPC   C1B30127  41.197  27.426   8.857
 2150POPC   C2B30128  41.215  27.407   8.467
 2150POPC   C3B30129  41.171  27.484   8.087
 2150POPC   C4B30130  41.218  27.669   7.731
 2151POPC   NC330131  14.910   4.708   9.501
 2151POPC   PO430132  15.388   5.305   9.454
 2151POPC   GL130133  15.133   5.126   9.148
 2151POPC   GL230134  15.077   5.443   9.006
 2151POPC   C1A30135  15.053   4.958   8.718
 2151POPC   D2A30136  14.955   4.781   8.291
 2151POPC   C3A30137  15.246   4.897   7.958
 2151POPC   C4A30138  15.266   4.912   7.534
 2151POPC   C1B30139  15.357   5.520   8.679
 2151POPC   C2B30140  15.252   5.267   8.332
 2151POPC   C3B30141  14.955   5.314   7.996
 2151POPC   C4B30142  15.022   5.472   7.582
 2152POPC   NC330143  30.128  33.311   9.477
 2152POPC   PO430144  29.843  32.702   9.417
 2152POPC   GL130145  30.018  32.960   9.122
 2152POPC   GL230146  29.730  33.172   9.165
 2152POPC   C1A30147  30.236  32.888   8.739
 2152POPC   D2A30148  30.059  32.870   8.361
 2152POPC   C3A30149  30.173  33.006   7.985
 2152POPC   C4A30150  30.039  32.931   7.565
 2152POPC   C1B30151  29.681  33.405   8.796
 2152POPC   C2B30152  29.793  33.308   8.384
 2152POPC   C3B30153  29.659  33.037   8.074
 2152POPC   C4B30154  29.545  33.069   7.667
 2153POPC   NC330155  25.641  18.775   9.470
 2153POPC   PO430156  26.193  19.070   9.446
 2153POPC   GL130157  26.041  18.993   9.096
 2153POPC   GL230158  25.777  19.163   9.096
 2153POPC   C1A30159  26.221  19.109   8.716
 2153POPC   D2A30160  26.400  19.234   8.343
 2153POPC   C3A30161  26.393  18.934   7.965
 2153POPC   C4A30162  26.373  19.080   7.541
 2153POPC   C1B30163  25.738  19.002   8.690
 2153POPC   C2B30164  25.860  19.153   8.322
 2153POPC   C3B30165  25.714  19.048   7.961
 2153POPC   C4B30166  25.907  18.854   7.652
 2154POPC   NC330167  15.018  23.408   9.469
 2154POPC   PO430168  15.211  24.093   9.558
 2154POPC   GL130169  15.221  23.780   9.171
 2154POPC   GL230170  15.367  23.410   9.093
 2154POPC   C1A30171  14.974  23.637   8.790
 2154POPC   D2A30172  14.935  23.797   8.345
 2154POPC   C3A30173  15.012  23.574   7.919
 2154POPC   C4A30174  15.039  23.779   7.504
 2154POPC   C1B30175  15.458  23.533   8.665
 2154POPC   C2B30176  15.416  23.624   8.232
 2154POPC   C3B30177  15.575  23.481   7.848
 2154POPC   C4B30178  15.455  23.458   7.417
 2155POPC   NC330179  25.520  30.952   9.740
 2155POPC   PO430180  25.391  30.355   9.438
 2155POPC   GL130181  25.269  30.777   9.282
 2155POPC   GL230182  25.559  30.937   9.172
 2155POPC   C1A30183  25.019  30.861   8.897
 2155POPC   D2A30184  25.075  30.626   8.502
 2155POPC   C3A30185  25.039  30.764   8.080
 2155POPC   C4A30186  25.225  30.480   7.797
 2155POPC   C1B30187  25.513  30.751   8.747
 2155POPC   C2B30188  25.467  30.947   8.320
 2155POPC   C3B30189  25.618  30.772   7.903
 2155POPC   C4B30190  25.503  30.755   7.445
 2156POPC   NC330191  29.613   7.410   9.519
 2156POPC   PO430192  30.242   7.250   9.417
 2156POPC   GL130193  29.966   7.417   9.135
 2156POPC   GL230194  29.783   7.119   9.108
 2156POPC   C1A30195  30.035   7.376   8.693
 2156POPC   D2A30196  30.238   7.498   8.299
 2156POPC   C3A30197  29.964   7.571   7.958
 2156POPC   C4A30198  29.520   7.485   7.859
 2156POPC   C1B30199  29.532   7.274   8.824
 2156POPC   C2B30200  29.598   7.367   8.407
 2156POPC   C3B30201  29.607   7.050   8.134
 2156POPC   C4B30202  29.621   6.974   7.706
 2157POPC   NC330203  36.173  34.259   9.489
 2157POPC   PO430204  36.185  34.933   9.380
 2157POPC   GL130205  36.334  34.654   9.023
 2157POPC   GL230206  36.103  34.361   8.982
 2157POPC   C1A30207  36.305  34.544   8.538
 2157POPC   D2A30208  36.090  34.651   8.160
 2157POPC   C3A30209  36.146  34.587   7.768
 2157POPC   C4A30210  35.859  34.556   7.429
 2157POPC   C1B30211  36.481  34.171   8.838
 2157POPC   C2B30212  36.548  34.094   8.387
 2157POPC   C3B30213  36.316  34.156   7.986
 2157POPC   C4B30214  36.346  34.245   7.488
 2158POPC   NC330215  14.579  14.655   9.266
 2158POPC   PO430216  14.377  15.161   9.679
 2158POPC   GL130217  14.230  15.307   9.236
 2158POPC   GL230218  14.495  15.386   8.991
 2158POPC   C1A30219  14.075  15.194   8.779
 2158POPC   D2A30220  14.168  15.191   8.303
 2158POPC   C3A30221  14.257  14.927   7.927
 2158POPC   C4A30222  14.503  15.073   7.547
 2158POPC   C1B30223  14.583  15.142   8.584
 2158POPC   C2B30224  14.650  15.187   8.115
 2158POPC   C3B30225  14.921  15.235   7.773
 2158POPC   C4B30226  14.992  15.168   7.304
 2159POPC   NC330227  41.395   5.332   9.462
 2159POPC   PO430228  41.730   4.765   9.540
 2159POPC   GL130229  41.626   4.956   9.203
 2159POPC   GL230230  41.863   5.207   9.195
 2159POPC   C1A30231  41.492   5.027   8.803
 2159POPC   D2A30232  41.736   5.161   8.464
 2159POPC   C3A30233  41.590   5.018   8.063
 2159POPC   C4A30234  41.176   4.969   7.836
 2159POPC   C1B30235  42.005   5.507   8.888
 2159POPC   C2B30236  41.977   5.608   8.455
 2159POPC   C3B30237  41.879   5.530   8.030
 2159POPC   C4B30238  41.927   5.181   7.720
 2160POPC   NC330239  44.252  18.526   9.653
 2160POPC   PO430240  43.799  18.936   9.418
 2160POPC   GL130241  43.848  18.901   8.965
 2160POPC   GL230242  43.671  18.588   8.919
 2160POPC   C1A30243  44.162  19.052   8.611
 2160POPC   D2A30244  44.451  19.392   8.386
 2160POPC   C3A30245  44.356  19.457   7.905
 2160POPC   C4A30246  44.250  19.204   7.512
 2160POPC   C1B30247  43.925  18.554   8.548
 2160POPC   C2B30248  43.881  18.838   8.213
 2160POPC   C3B30249  43.885  19.029   7.819
 2160POPC   C4B30250  43.899  18.864   7.392
 2161POPC   NC330251   5.359  25.723   9.456
 2161POPC   PO430252   4.929  26.149   9.558
 2161POPC   GL130253   5.127  26.300   9.208
 2161POPC   GL230254   5.211  25.988   9.040
 2161POPC   C1A30255   5.062  26.428   8.790
 2161POPC   D2A30256   4.956  26.217   8.413
 2161POPC   C3A30257   5.205  25.911   8.221
 2161POPC   C4A30258   5.162  26.221   7.905
 2161POPC   C1B30259   4.827  25.911   8.819
 2161POPC   C2B30260   4.672  25.797   8.397
 2161POPC   C3B30261   4.774  25.848   7.944
 2161POPC   C4B30262   5.145  25.790   7.668
 2162POPC   NC330263  42.945  17.367   9.800
 2162POPC   PO430264  43.295  17.703   9.336
 2162POPC   GL130265  43.084  17.285   9.177
 2162POPC   GL230266  43.194  17.301   8.879
 2162POPC   C1A30267  42.717  17.300   8.810
 2162POPC   D2A30268  42.817  17.602   8.493
 2162POPC   C3A30269  42.973  17.428   8.129
 2162POPC   C4A30270  43.037  17.491   7.705
 2162POPC   C1B30271  43.432  17.635   8.711
 2162POPC   C2B30272  43.362  17.697   8.328
 2162POPC   C3B30273  43.475  17.593   7.940
 2162POPC   C4B30274  43.446  17.665   7.484
 2163POPC   NC330275   1.025  22.680   9.539
 2163POPC   PO430276   1.162  23.301   9.335
 2163POPC   GL130277   1.376  23.006   9.184
 2163POPC   GL230278   1.085  22.833   9.058
 2163POPC   C1A30279   1.476  22.980   8.748
 2163POPC   D2A30280   1.284  22.777   8.387
 2163POPC   C3A30281   1.401  22.930   8.016
 2163POPC   C4A30282   1.323  23.252   7.749
 2163POPC   C1B30283   0.872  22.706   8.697
 2163POPC   C2B30284   0.772  22.741   8.274
 2163POPC   C3B30285   0.907  22.853   7.855
 2163POPC   C4B30286   0.677  22.677   7.503
 2164POPC   NC330287   8.102  13.093   9.482
 2164POPC   PO430288   8.064  12.434   9.497
 2164POPC   GL130289   7.912  12.715   9.169
 2164POPC   GL230290   8.254  12.770   9.113
 2164POPC   C1A30291   7.866  12.802   8.725
 2164POPC   D2A30292   7.996  12.584   8.356
 2164POPC   C3A30293   7.994  12.815   7.973
 2164POPC   C4A30294   7.917  12.961   7.541
 2164POPC   C1B30295   8.378  12.633   8.721
 2164POPC   C2B30296   8.477  12.786   8.307
 2164POPC   C3B30297   8.487  12.796   7.883
 2164POPC   C4B30298   8.175  12.527   7.601
 2165POPC   NC330299  17.726  17.390   9.591
 2165POPC   PO430300  17.078  17.236   9.567
 2165POPC   GL130301  17.327  17.464   9.199
 2165POPC   GL230302  17.709  17.554   9.097
 2165POPC   C1A30303  17.291  17.547   8.752
 2165POPC   D2A30304  17.416  17.718   8.339
 2165POPC   C3A30305  17.698  17.565   8.019
 2165POPC   C4A30306  17.708  17.238   7.699
 2165POPC   C1B30307  17.745  17.375   8.641
 2165POPC   C2B30308  17.467  17.190   8.291
 2165POPC   C3B30309  17.312  16.938   7.912
 2165POPC   C4B30310  17.485  16.794   7.494
 2166POPC   NC330311   3.350  32.284   9.645
 2166POPC   PO430312   3.988  32.057   9.500
 2166POPC   GL130313   3.717  32.189   9.144
 2166POPC   GL230314   3.362  32.122   9.125
 2166POPC   C1A30315   3.674  32.239   8.700
 2166POPC   D2A30316   3.771  32.030   8.303
 2166POPC   C3A30317   3.637  32.304   7.970
 2166POPC   C4A30318   3.698  32.605   7.627
 2166POPC   C1B30319   3.222  31.960   8.705
 2166POPC   C2B30320   3.233  32.109   8.261
 2166POPC   C3B30321   3.132  32.075   7.829
 2166POPC   C4B30322   2.996  31.693   7.645
 2167POPC   NC330323   1.064  15.210   9.537
 2167POPC   PO430324   1.576  14.909   9.835
 2167POPC   GL130325   1.483  15.014   9.342
 2167POPC   GL230326   1.543  15.305   9.204
 2167POPC   C1A30327   1.253  15.040   8.894
 2167POPC   D2A30328   1.251  14.822   8.487
 2167POPC   C3A30329   0.968  14.968   8.197
 2167POPC   C4A30330   1.116  15.061   7.813
 2167POPC   C1B30331   1.677  15.293   8.794
 2167POPC   C2B30332   1.432  15.327   8.436
 2167POPC   C3B30333   1.525  15.305   8.007
 2167POPC   C4B30334   1.564  15.148   7.593
 2168POPC   NC330335   7.225  35.823   9.289
 2168POPC   PO430336   7.145  35.195   9.388
 2168POPC   GL130337   7.437  35.372   9.084
 2168POPC   GL230338   7.694  35.663   9.147
 2168POPC   C1A30339   7.276  35.365   8.680
 2168POPC   D2A30340   7.150  35.304   8.270
 2168POPC   C3A30341   7.420  35.276   7.973
 2168POPC   C4A30342   7.332  35.412   7.578
 2168POPC   C1B30343   7.566  35.797   8.734
 2168POPC   C2B30344   7.528  35.663   8.317
 2168POPC   C3B30345   7.593  35.775   7.937
 2168POPC   C4B30346   7.795  35.545   7.741
 2169POPC   NC330347   0.453   7.500   9.858
 2169POPC   PO430348   0.466   6.992   9.538
 2169POPC   GL130349   0.389   7.259   9.214
 2169POPC   GL230350   0.699   7.407   9.270
 2169POPC   C1A30351   0.252   7.458   8.815
 2169POPC   D2A30352   0.328   7.683   8.427
 2169POPC   C3A30353   0.222   7.486   8.070
 2169POPC   C4A30354   0.094   7.525   7.671
 2169POPC   C1B30355   0.761   7.366   8.821
 2169POPC   C2B30356   0.844   7.598   8.445
 2169POPC   C3B30357   0.725   7.565   8.006
 2169POPC   C4B30358   0.546   7.296   7.695
 2170POPC   NC330359  18.893  30.785   9.474
 2170POPC   PO430360  18.913  30.126   9.507
 2170POPC   GL130361  19.156  30.402   9.136
 2170POPC   GL230362  19.033  30.731   8.981
 2170POPC   C1A30363  19.227  30.465   8.623
 2170POPC   D2A30364  18.955  30.732   8.338
 2170POPC   C3A30365  18.691  30.535   8.019
 2170POPC   C4A30366  18.780  30.537   7.587
 2170POPC   C1B30367  19.255  30.989   8.663
 2170POPC   C2B30368  19.395  30.925   8.212
 2170POPC   C3B30369  19.196  30.846   7.823
 2170POPC   C4B30370  19.288  31.063   7.438
 2171POPC   NC330371  26.141  28.894   9.405
 2171POPC   PO430372  25.853  29.468   9.567
 2171POPC   GL130373  26.001  29.419   9.154
 2171POPC   GL230374  26.170  29.117   8.973
 2171POPC   C1A30375  25.852  29.411   8.746
 2171POPC   D2A30376  26.067  29.288   8.410
 2171POPC   C3A30377  25.852  29.325   8.035
 2171POPC   C4A30378  26.061  29.447   7.698
 2171POPC   C1B30379  26.480  28.943   8.697
 2171POPC   C2B30380  26.327  28.865   8.312
 2171POPC   C3B30381  26.053  28.865   8.022
 2171POPC   C4B30382  26.200  28.956   7.649
 2172POPC   NC330383  43.900  29.166   9.533
 2172POPC   PO430384  43.421  28.725   9.500
 2172POPC   GL130385  43.610  28.966   9.143
 2172POPC   GL230386  43.987  28.985   9.046
 2172POPC   C1A30387  43.640  29.171   8.728
 2172POPC   D2A30388  43.841  29.210   8.334
 2172POPC   C3A30389  43.672  29.086   7.962
 2172POPC   C4A30390  43.794  29.076   7.544
 2172POPC   C1B30391  44.137  29.341   8.743
 2172POPC   C2B30392  44.206  29.610   8.373
 2172POPC   C3B30393  44.209  29.397   7.988
 2172POPC   C4B30394  44.096  29.485   7.558
 2173POPC   NC330395  17.301  33.743   9.448
 2173POPC   PO430396  17.521  34.275   9.569
 2173POPC   GL130397  17.328  34.162   9.143
 2173POPC   GL230398  17.601  33.926   9.063
 2173POPC   C1A30399  17.293  34.001   8.690
 2173POPC   D2A30400  17.391  33.902   8.268
 2173POPC   C3A30401  17.473  34.025   7.854
 2173POPC   C4A30402  17.288  33.736   7.590
 2173POPC   C1B30403  17.705  33.704   8.650
 2173POPC   C2B30404  17.826  33.651   8.197
 2173POPC   C3B30405  17.786  33.520   7.768
 2173POPC   C4B30406  17.988  33.349   7.400
 2174POPC   NC330407  42.328  36.980   9.439
 2174POPC   PO430408  42.964  36.838   9.235
 2174POPC   GL130409  42.585  36.964   8.992
 2174POPC   GL230410  42.221  37.119   8.967
 2174POPC   C1A30411  42.555  37.070   8.581
 2174POPC   D2A30412  42.602  36.800   8.252
 2174POPC   C3A30413  42.795  36.962   7.885
 2174POPC   C4A30414  42.611  36.978   7.469
 2174POPC   C1B30415  42.092  36.854   8.603
 2174POPC   C2B30416  42.031  36.980   8.192
 2174POPC   C3B30417  42.285  36.876   7.862
 2174POPC   C4B30418  42.431  36.444   7.835
 2175POPC   NC330419   3.979  10.041   9.420
 2175POPC   PO430420   4.660  10.040   9.639
 2175POPC   GL130421   4.478   9.853   9.281
 2175POPC   GL230422   4.723   9.981   9.098
 2175POPC   C1A30423   4.412   9.699   8.816
 2175POPC   D2A30424   4.640   9.738   8.415
 2175POPC   C3A30425   4.430   9.611   8.032
 2175POPC   C4A30426   4.128   9.775   7.755
 2175POPC   C1B30427   4.670  10.165   8.715
 2175POPC   C2B30428   4.575  10.327   8.316
 2175POPC   C3B30429   4.431  10.143   7.963
 2175POPC   C4B30430   4.530  10.298   7.562
 2176POPC   NC330431   7.589   8.548   9.500
 2176POPC   PO430432   7.178   8.026   9.266
 2176POPC   GL130433   7.359   8.374   9.065
 2176POPC   GL230434   7.663   8.188   9.150
 2176POPC   C1A30435   7.199   8.580   8.673
 2176POPC   D2A30436   7.011   8.411   8.261
 2176POPC   C3A30437   7.243   8.033   8.058
 2176POPC   C4A30438   7.515   8.047   7.675
 2176POPC   C1B30439   7.810   8.206   8.780
 2176POPC   C2B30440   7.659   8.034   8.422
 2176POPC   C3B30441   7.837   8.011   8.061
 2176POPC   C4B30442   8.009   7.752   7.743
 2177POPC   NC330443  23.741  39.465   9.585
 2177POPC   PO430444  23.095  39.192   9.415
 2177POPC   GL130445  23.504  39.186   9.128
 2177POPC   GL230446  23.739  39.441   9.095
 2177POPC   C1A30447  23.774  39.069   8.741
 2177POPC   D2A30448  23.829  38.881   8.312
 2177POPC   C3A30449  23.788  39.101   7.915
 2177POPC   C4A30450  24.180  39.175   7.699
 2177POPC   C1B30451  24.057  39.488   8.831
 2177POPC   C2B30452  24.075  39.724   8.483
 2177POPC   C3B30453  24.004  39.530   8.097
 2177POPC   C4B30454  23.823  39.598   7.704
 2178POPC   NC330455   1.486  14.526   9.566
 2178POPC   PO430456   0.844  14.743   9.425
 2178POPC   GL130457   1.076  14.383   9.188
 2178POPC   GL230458   1.301  14.599   9.107
 2178POPC   C1A30459   1.168  14.343   8.703
 2178POPC   D2A30460   0.855  14.480   8.386
 2178POPC   C3A30461   1.037  14.495   7.988
 2178POPC   C4A30462   1.310  14.214   7.761
 2178POPC   C1B30463   1.607  14.649   8.801
 2178POPC   C2B30464   1.646  14.489   8.377
 2178POPC   C3B30465   1.505  14.738   8.006
 2178POPC   C4B30466   1.351  14.674   7.585
 2179POPC   NC330467  23.220  16.320   9.437
 2179POPC   PO430468  23.013  16.933   9.638
 2179POPC   GL130469  22.842  16.885   9.227
 2179POPC   GL230470  22.886  16.553   9.127
 2179POPC   C1A30471  22.961  16.928   8.775
 2179POPC   D2A30472  22.829  16.979   8.333
 2179POPC   C3A30473  23.024  16.813   7.957
 2179POPC   C4A30474  23.167  16.855   7.525
 2179POPC   C1B30475  23.087  16.415   8.704
 2179POPC   C2B30476  23.114  16.407   8.243
 2179POPC   C3B30477  23.103  16.302   7.791
 2179POPC   C4B30478  23.278  16.003   7.476
 2180POPC   NC330479  33.278   8.386   9.480
 2180POPC   PO430480  32.700   8.034   9.516
 2180POPC   GL130481  32.906   8.124   9.148
 2180POPC   GL230482  32.932   8.505   9.109
 2180POPC   C1A30483  32.797   8.194   8.719
 2180POPC   D2A30484  32.726   8.448   8.353
 2180POPC   C3A30485  32.823   8.188   8.010
 2180POPC   C4A30486  33.063   8.079   7.683
 2180POPC   C1B30487  33.247   8.412   8.787
 2180POPC   C2B30488  33.221   8.243   8.385
 2180POPC   C3B30489  33.330   8.360   8.010
 2180POPC   C4B30490  33.518   8.494   7.679
 2181POPC   NC330491  43.234  13.880   9.551
 2181POPC   PO430492  42.750  13.470   9.440
 2181POPC   GL130493  43.015  13.649   9.141
 2181POPC   GL230494  42.925  13.986   9.142
 2181POPC   C1A30495  43.157  13.459   8.737
 2181POPC   D2A30496  42.884  13.270   8.443
 2181POPC   C3A30497  43.114  13.146   8.082
 2181POPC   C4A30498  43.192  13.283   7.672
 2181POPC   C1B30499  43.360  13.908   8.901
 2181POPC   C2B30500  43.308  13.871   8.480
 2181POPC   C3B30501  43.112  13.662   8.193
 2181POPC   C4B30502  43.035  13.732   7.798
 2182POPC   NC330503  35.836  24.350   9.470
 2182POPC   PO430504  36.589  24.358   9.510
 2182POPC   GL130505  36.310  24.409   9.113
 2182POPC   GL230506  35.961  24.258   8.994
 2182POPC   C1A30507  36.283  24.508   8.659
 2182POPC   D2A30508  36.466  24.290   8.301
 2182POPC   C3A30509  36.290  24.504   7.973
 2182POPC   C4A30510  35.903  24.659   7.878
 2182POPC   C1B30511  35.842  24.077   8.577
 2182POPC   C2B30512  35.890  24.212   8.161
 2182POPC   C3B30513  35.797  24.134   7.722
 2182POPC   C4B30514  35.892  24.024   7.247
 2183POPC   NC330515   8.585  13.528   9.463
 2183POPC   PO430516   9.146  13.410   9.560
 2183POPC   GL130517   9.180  13.497   9.139
 2183POPC   GL230518   9.064  13.226   9.004
 2183POPC   C1A30519   9.120  13.723   8.734
 2183POPC   D2A30520   8.938  13.664   8.316
 2183POPC   C3A30521   9.097  13.806   7.897
 2183POPC   C4A30522   8.922  14.115   7.619
 2183POPC   C1B30523   8.698  13.420   8.756
 2183POPC   C2B30524   8.616  13.276   8.310
 2183POPC   C3B30525   8.665  13.497   7.919
 2183POPC   C4B30526   8.704  13.307   7.522
 2184POPC   NC330527  17.250  42.996   9.537
 2184POPC   PO430528  17.840  43.179   9.419
 2184POPC   GL130529  17.588  42.904   9.123
 2184POPC   GL230530  17.285  43.042   9.029
 2184POPC   C1A30531  17.810  42.827   8.753
 2184POPC   D2A30532  17.829  43.084   8.420
 2184POPC   C3A30533  17.705  43.068   7.990
 2184POPC   C4A30534  17.912  43.416   7.741
 2184POPC   C1B30535  17.348  43.029   8.585
 2184POPC   C2B30536  17.231  43.051   8.153
 2184POPC   C3B30537  17.115  43.123   7.720
 2184POPC   C4B30538  17.198  43.451   7.393
 2185POPC   NC330539  34.566   4.809   9.708
 2185POPC   PO430540  34.519   4.182   9.714
 2185POPC   GL130541  34.707   4.260   9.297
 2185POPC   GL230542  34.564   4.568   9.168
 2185POPC   C1A30543  34.728   4.197   8.811
 2185POPC   D2A30544  34.447   4.227   8.413
 2185POPC   C3A30545  34.510   4.255   7.945
 2185POPC   C4A30546  34.564   4.308   7.472
 2185POPC   C1B30547  34.545   4.665   8.688
 2185POPC   C2B30548  34.661   4.676   8.234
 2185POPC   C3B30549  34.660   4.718   7.768
 2185POPC   C4B30550  34.699   4.955   7.374
 2186POPC   NC330551  25.950  19.476   9.460
 2186POPC   PO430552  26.488  19.876   9.383
 2186POPC   GL130553  26.174  19.794   9.068
 2186POPC   GL230554  26.250  19.461   9.059
 2186POPC   C1A30555  26.034  19.998   8.660
 2186POPC   D2A30556  26.067  20.259   8.273
 2186POPC   C3A30557  25.942  20.101   7.861
 2186POPC   C4A30558  26.066  19.809   7.525
 2186POPC   C1B30559  25.938  19.501   8.721
 2186POPC   C2B30560  26.065  19.616   8.295
 2186POPC   C3B30561  26.139  19.385   7.915
 2186POPC   C4B30562  25.927  19.332   7.556
 2187POPC   NC330563  32.864  21.712   9.423
 2187POPC   PO430564  33.104  21.168   9.789
 2187POPC   GL130565  32.996  21.209   9.303
 2187POPC   GL230566  33.283  21.326   9.136
 2187POPC   C1A30567  32.905  21.396   8.828
 2187POPC   D2A30568  32.980  21.276   8.360
 2187POPC   C3A30569  32.830  21.329   7.892
 2187POPC   C4A30570  32.950  21.195   7.467
 2187POPC   C1B30571  33.361  21.610   8.741
 2187POPC   C2B30572  33.526  21.715   8.346
 2187POPC   C3B30573  33.232  21.605   8.031
 2187POPC   C4B30574  33.233  21.594   7.574
 2188POPC   NC330575  38.245  16.501   9.378
 2188POPC   PO430576  38.298  15.821   9.534
 2188POPC   GL130577  38.429  15.992   9.165
 2188POPC   GL230578  38.669  16.258   9.240
 2188POPC   C1A30579  38.488  15.814   8.745
 2188POPC   D2A30580  38.309  16.038   8.387
 2188POPC   C3A30581  38.233  15.838   8.012
 2188POPC   C4A30582  38.545  15.814   7.731
 2188POPC   C1B30583  38.550  16.321   8.782
 2188POPC   C2B30584  38.536  16.503   8.341
 2188POPC   C3B30585  38.494  16.289   7.931
 2188POPC   C4B30586  38.340  16.350   7.494
 2189POPC   NC330587  25.385   5.587   9.522
 2189POPC   PO430588  25.351   6.232   9.402
 2189POPC   GL130589  25.249   5.904   9.135
 2189POPC   GL230590  24.961   5.694   9.185
 2189POPC   C1A30591  25.259   5.955   8.726
 2189POPC   D2A30592  25.586   5.959   8.420
 2189POPC   C3A30593  25.415   5.983   8.009
 2189POPC   C4A30594  25.340   5.815   7.601
 2189POPC   C1B30595  25.124   5.476   8.818
 2189POPC   C2B30596  25.206   5.602   8.381
 2189POPC   C3B30597  25.075   5.570   7.985
 2189POPC   C4B30598  25.094   5.378   7.607
 2190POPC   NC330599   4.451  35.470   9.581
 2190POPC   PO430600   3.856  35.053   9.734
 2190POPC   GL130601   4.064  35.278   9.305
 2190POPC   GL230602   4.305  35.071   9.115
 2190POPC   C1A30603   4.276  35.522   8.902
 2190POPC   D2A30604   4.411  35.628   8.451
 2190POPC   C3A30605   4.102  35.582   8.079
 2190POPC   C4A30606   4.116  35.583   7.597
 2190POPC   C1B30607   4.507  35.114   8.664
 2190POPC   C2B30608   4.499  35.176   8.176
 2190POPC   C3B30609   4.498  35.287   7.750
 2190POPC   C4B30610   4.469  35.283   7.291
 2191POPC   NC330611  18.785   7.911   9.877
 2191POPC   PO430612  19.131   8.339   9.408
 2191POPC   GL130613  18.883   8.349   9.034
 2191POPC   GL230614  19.150   8.101   8.923
 2191POPC   C1A30615  18.764   8.202   8.598
 2191POPC   D2A30616  18.987   7.970   8.263
 2191POPC   C3A30617  18.916   8.130   7.848
 2191POPC   C4A30618  18.950   8.431   7.469
 2191POPC   C1B30619  19.178   8.490   8.656
 2191POPC   C2B30620  19.053   8.490   8.233
 2191POPC   C3B30621  19.285   8.470   7.867
 2191POPC   C4B30622  19.354   8.148   7.557
 2192POPC   NC330623  21.275   1.188   9.503
 2192POPC   PO430624  21.764   0.769   9.308
 2192POPC   GL130625  21.407   0.926   9.098
 2192POPC   GL230626  21.443   1.318   9.026
 2192POPC   C1A30627  21.295   0.921   8.699
 2192POPC   D2A30628  21.483   1.215   8.398
 2192POPC   C3A30629  21.571   1.138   7.995
 2192POPC   C4A30630  21.258   0.931   7.795
 2192POPC   C1B30631  21.111   1.385   8.702
 2192POPC   C2B30632  21.036   1.594   8.366
 2192POPC   C3B30633  21.074   1.378   8.030
 2192POPC   C4B30634  21.284   1.451   7.679
 2193POPC   NC330635  41.175   9.619   9.715
 2193POPC   PO430636  41.818   9.821   9.507
 2193POPC   GL130637  41.625   9.876   9.141
 2193POPC   GL230638  41.313   9.863   9.271
 2193POPC   C1A30639  41.731   9.695   8.750
 2193POPC   D2A30640  41.967   9.516   8.415
 2193POPC   C3A30641  41.822   9.638   8.033
 2193POPC   C4A30642  41.651   9.565   7.605
 2193POPC   C1B30643  41.226   9.664   8.862
 2193POPC   C2B30644  41.322   9.824   8.440
 2193POPC   C3B30645  41.305   9.628   8.040
 2193POPC   C4B30646  41.162   9.735   7.653
 2194POPC   NC330647   3.908  18.135   9.567
 2194POPC   PO430648   3.256  18.205   9.610
 2194POPC   GL130649   3.534  18.185   9.229
 2194POPC   GL230650   3.616  18.517   9.059
 2194POPC   C1A30651   3.570  17.969   8.832
 2194POPC   D2A30652   3.444  18.066   8.401
 2194POPC   C3A30653   3.698  18.330   8.108
 2194POPC   C4A30654   3.818  18.241   7.672
 2194POPC   C1B30655   3.258  18.363   8.836
 2194POPC   C2B30656   2.974  18.124   8.596
 2194POPC   C3B30657   2.991  18.147   8.165
 2194POPC   C4B30658   3.319  18.077   7.843
 2195POPC   NC330659  19.727  37.193   9.674
 2195POPC   PO430660  19.700  36.653   9.518
 2195POPC   GL130661  19.697  36.997   9.166
 2195POPC   GL230662  19.453  37.288   9.247
 2195POPC   C1A30663  19.870  37.009   8.709
 2195POPC   D2A30664  19.674  36.877   8.295
 2195POPC   C3A30665  19.874  36.834   7.878
 2195POPC   C4A30666  19.817  36.717   7.427
 2195POPC   C1B30667  19.516  37.384   8.814
 2195POPC   C2B30668  19.679  37.379   8.401
 2195POPC   C3B30669  19.612  37.283   7.971
 2195POPC   C4B30670  19.769  37.222   7.555
 2196POPC   NC330671   6.349  25.600   9.407
 2196POPC   PO430672   6.531  26.294   9.577
 2196POPC   GL130673   6.515  26.046   9.186
 2196POPC   GL230674   6.620  26.239   8.919
 2196POPC   C1A30675   6.710  25.772   8.812
 2196POPC   D2A30676   6.887  26.055   8.470
 2196POPC   C3A30677   6.706  26.067   8.055
 2196POPC   C4A30678   6.512  25.779   7.765
 2196POPC   C1B30679   6.272  26.405   8.702
 2196POPC   C2B30680   6.367  26.490   8.286
 2196POPC   C3B30681   6.401  26.440   7.853
 2196POPC   C4B30682   6.738  26.306   7.583
 2197POPC   NC330683  32.036  25.472   9.415
 2197POPC   PO430684  32.325  24.886   9.501
 2197POPC   GL130685  32.151  25.016   9.083
 2197POPC   GL230686  32.178  25.373   8.945
 2197POPC   C1A30687  32.278  25.012   8.622
 2197POPC   D2A30688  32.148  25.281   8.309
 2197POPC   C3A30689  32.365  25.196   7.934
 2197POPC   C4A30690  32.397  24.833   7.690
 2197POPC   C1B30691  32.002  25.676   8.656
 2197POPC   C2B30692  31.779  25.629   8.252
 2197POPC   C3B30693  31.919  25.434   7.858
 2197POPC   C4B30694  32.292  25.593   7.615
 2198POPC   NC330695   9.050   6.339   9.394
 2198POPC   PO430696   8.730   6.845   9.660
 2198POPC   GL130697   8.647   6.769   9.233
 2198POPC   GL230698   8.956   6.885   9.143
 2198POPC   C1A30699   8.588   6.485   8.843
 2198POPC   D2A30700   8.773   6.314   8.431
 2198POPC   C3A30701   8.737   6.530   8.007
 2198POPC   C4A30702   8.806   6.370   7.556
 2198POPC   C1B30703   9.066   6.676   8.755
 2198POPC   C2B30704   9.290   6.812   8.397
 2198POPC   C3B30705   9.191   6.743   7.983
 2198POPC   C4B30706   9.279   6.455   7.697
 2199POPC   NC330707  35.134   5.565   9.441
 2199POPC   PO430708  34.665   5.806   9.860
 2199POPC   GL130709  34.712   5.843   9.323
 2199POPC   GL230710  34.889   6.081   9.092
 2199POPC   C1A30711  34.575   5.749   8.875
 2199POPC   D2A30712  34.533   5.590   8.431
 2199POPC   C3A30713  34.492   5.702   7.968
 2199POPC   C4A30714  34.719   5.525   7.597
 2199POPC   C1B30715  34.692   6.220   8.708
 2199POPC   C2B30716  34.549   6.107   8.293
 2199POPC   C3B30717  34.488   6.237   7.871
 2199POPC   C4B30718  34.564   6.009   7.440
 2200POPC   NC330719  32.285   1.031   9.628
 2200POPC   PO430720  31.801   0.837   9.229
 2200POPC   GL130721  32.112   0.973   8.962
 2200POPC   GL230722  32.332   1.174   9.125
 2200POPC   C1A30723  32.133   1.063   8.540
 2200POPC   D2A30724  32.290   1.010   8.143
 2200POPC   C3A30725  32.056   1.031   7.742
 2200POPC   C4A30726  31.894   0.981   7.291
 2200POPC   C1B30727  32.186   1.518   8.852
 2200POPC   C2B30728  32.140   1.594   8.402
 2200POPC   C3B30729  32.148   1.514   7.939
 2200POPC   C4B30730  32.194   1.459   7.465
 2201POPC   NC330731  11.419  11.994   9.611
 2201POPC   PO430732  10.806  11.693   9.604
 2201POPC   GL130733  11.154  11.768   9.236
 2201POPC   GL230734  11.379  12.111   9.130
 2201POPC   C1A30735  11.136  11.859   8.782
 2201POPC   D2A30736  11.258  12.286   8.601
 2201POPC   C3A30737  11.238  12.328   8.133
 2201POPC   C4A30738  11.233  12.099   7.733
 2201POPC   C1B30739  11.661  12.022   8.787
 2201POPC   C2B30740  11.616  11.947   8.367
 2201POPC   C3B30741  11.716  12.092   7.972
 2201POPC   C4B30742  11.625  11.738   7.699
 2202POPC   NC330743  16.553   5.411   9.551
 2202POPC   PO430744  16.961   4.855   9.479
 2202POPC   GL130745  16.895   5.036   9.070
 2202POPC   GL230746  16.557   5.123   9.111
 2202POPC   C1A30747  16.701   4.851   8.674
 2202POPC   D2A30748  16.480   4.620   8.330
 2202POPC   C3A30749  16.606   4.813   7.920
 2202POPC   C4A30750  16.953   5.088   7.793
 2202POPC   C1B30751  16.672   5.365   8.738
 2202POPC   C2B30752  16.907   5.292   8.369
 2202POPC   C3B30753  16.727   5.478   8.028
 2202POPC   C4B30754  16.522   5.383   7.670
 2203POPC   NC330755   5.281  13.289   9.440
 2203POPC   PO430756   5.098  12.603   9.559
 2203POPC   GL130757   5.108  12.764   9.131
 2203POPC   GL230758   4.945  12.470   9.059
 2203POPC   C1A30759   4.966  12.860   8.656
 2203POPC   D2A30760   4.985  13.268   8.390
 2203POPC   C3A30761   5.131  13.147   7.948
 2203POPC   C4A30762   5.020  12.816   7.669
 2203POPC   C1B30763   5.310  12.499   8.743
 2203POPC   C2B30764   5.398  12.604   8.312
 2203POPC   C3B30765   5.428  12.540   7.865
 2203POPC   C4B30766   5.404  12.635   7.401
 2204POPC   NC330767  44.912  35.629   9.466
 2204POPC   PO430768  44.708  36.370   9.416
 2204POPC   GL130769  44.970  36.065   9.188
 2204POPC   GL230770  44.712  35.875   9.060
 2204POPC   C1A30771   0.117  35.960   8.751
 2204POPC   D2A30772  44.780  35.914   8.444
 2204POPC   C3A30773  44.798  35.901   7.989
 2204POPC   C4A30774  44.614  36.239   7.715
 2204POPC   C1B30775  44.373  35.891   8.770
 2204POPC   C2B30776  44.273  35.705   8.395
 2204POPC   C3B30777  44.235  35.817   7.991
 2204POPC   C4B30778  44.463  35.774   7.622
 2205POPC   NC330779  23.920  13.227   9.514
 2205POPC   PO430780  23.639  12.579   9.374
 2205POPC   GL130781  23.693  12.960   9.113
 2205POPC   GL230782  24.018  13.049   9.054
 2205POPC   C1A30783  23.541  12.903   8.709
 2205POPC   D2A30784  23.694  12.699   8.342
 2205POPC   C3A30785  23.466  12.917   8.022
 2205POPC   C4A30786  23.419  12.830   7.563
 2205POPC   C1B30787  24.050  12.760   8.743
 2205POPC   C2B30788  24.196  12.818   8.342
 2205POPC   C3B30789  23.979  13.012   7.946
 2205POPC   C4B30790  23.878  12.967   7.480
 2206POPC   NC330791  36.119  14.576   9.577
 2206POPC   PO430792  36.327  14.066   9.263
 2206POPC   GL130793  35.960  14.243   9.011
 2206POPC   GL230794  35.934  14.591   9.063
 2206POPC   C1A30795  35.852  14.422   8.595
 2206POPC   D2A30796  35.822  14.602   8.181
 2206POPC   C3A30797  36.007  14.268   7.927
 2206POPC   C4A30798  36.428  14.217   7.911
 2206POPC   C1B30799  36.341  14.539   8.744
 2206POPC   C2B30800  36.534  14.683   8.297
 2206POPC   C3B30801  36.439  14.700   7.810
 2206POPC   C4B30802  35.989  14.719   7.711
 2207POPC   NC330803   1.893  42.786   9.465
 2207POPC   PO430804   2.175  43.423   9.412
 2207POPC   GL130805   2.299  43.226   9.053
 2207POPC   GL230806   2.229  42.887   9.084
 2207POPC   C1A30807   2.127  43.138   8.617
 2207POPC   D2A30808   1.677  43.139   8.444
 2207POPC   C3A30809   1.618  43.107   8.016
 2207POPC   C4A30810   1.862  43.167   7.666
 2207POPC   C1B30811   2.304  42.614   8.750
 2207POPC   C2B30812   2.310  42.712   8.351
 2207POPC   C3B30813   2.068  42.840   8.038
 2207POPC   C4B30814   2.207  42.778   7.622
 2208POPC   NC330815  24.575  37.075   9.481
 2208POPC   PO430816  24.412  36.418   9.401
 2208POPC   GL130817  24.558  36.722   9.071
 2208POPC   GL230818  24.353  36.998   9.036
 2208POPC   C1A30819  24.520  36.813   8.609
 2208POPC   D2A30820  24.434  36.529   8.281
 2208POPC   C3A30821  24.365  36.756   7.899
 2208POPC   C4A30822  24.558  37.137   7.764
 2208POPC   C1B30823  24.218  37.229   8.675
 2208POPC   C2B30824  24.058  37.065   8.258
 2208POPC   C3B30825  24.039  37.143   7.815
 2208POPC   C4B30826  24.217  37.057   7.385
 2209POPC   NC330827  28.535  11.622   9.402
 2209POPC   PO430828  28.148  11.114   9.350
 2209POPC   GL130829  28.228  11.442   9.029
 2209POPC   GL230830  28.612  11.464   8.942
 2209POPC   C1A30831  28.271  11.441   8.575
 2209POPC   D2A30832  28.147  11.738   8.305
 2209POPC   C3A30833  28.341  11.741   7.991
 2209POPC   C4A30834  28.152  11.614   7.671
 2209POPC   C1B30835  28.529  11.032   8.808
 2209POPC   C2B30836  28.410  10.778   8.463
 2209POPC   C3B30837  28.550  10.925   8.053
 2209POPC   C4B30838  28.556  11.322   7.807
 2210POPC   NC330839  43.524  33.099   9.555
 2210POPC   PO430840  44.092  33.485   9.669
 2210POPC   GL130841  44.086  33.095   9.329
 2210POPC   GL230842  43.757  33.005   9.130
 2210POPC   C1A30843  44.187  33.044   8.864
 2210POPC   D2A30844  44.240  33.190   8.430
 2210POPC   C3A30845  44.051  33.013   8.053
 2210POPC   C4A30846  43.749  32.928   7.712
 2210POPC   C1B30847  43.473  33.018   8.777
 2210POPC   C2B30848  43.659  33.250   8.434
 2210POPC   C3B30849  43.693  33.395   8.003
 2210POPC   C4B30850  43.477  33.374   7.599
 2211POPC   NC330851   8.420  41.332   9.572
 2211POPC   PO430852   8.537  41.938   9.487
 2211POPC   GL130853   8.335  41.675   9.168
 2211POPC   GL230854   8.000  41.787   9.087
 2211POPC   C1A30855   8.343  41.491   8.741
 2211POPC   D2A30856   8.530  41.281   8.346
 2211POPC   C3A30857   8.624  41.489   7.945
 2211POPC   C4A30858   8.441  41.366   7.558
 2211POPC   C1B30859   8.086  41.933   8.651
 2211POPC   C2B30860   8.261  41.725   8.275
 2211POPC   C3B30861   8.129  41.635   7.859
 2211POPC   C4B30862   8.005  41.957   7.593
 2212POPC   NC330863  26.265   4.565   9.406
 2212POPC   PO430864  25.816   4.073   9.466
 2212POPC   GL130865  25.923   4.308   9.126
 2212POPC   GL230866  25.711   4.601   9.232
 2212POPC   C1A30867  26.175   4.205   8.759
 2212POPC   D2A30868  26.288   3.972   8.370
 2212POPC   C3A30869  26.119   4.158   8.014
 2212POPC   C4A30870  26.272   4.310   7.659
 2212POPC   C1B30871  25.734   4.636   8.800
 2212POPC   C2B30872  25.854   4.414   8.424
 2212POPC   C3B30873  25.724   4.473   8.037
 2212POPC   C4B30874  25.766   4.376   7.629
 2213POPC   NC330875   6.351  10.727   9.457
 2213POPC   PO430876   6.957  10.327   9.433
 2213POPC   GL130877   6.961  10.584   9.074
 2213POPC   GL230878   6.643  10.725   9.056
 2213POPC   C1A30879   6.827  10.471   8.666
 2213POPC   D2A30880   6.537  10.310   8.403
 2213POPC   C3A30881   6.810  10.392   8.096
 2213POPC   C4A30882   7.006  10.637   7.769
 2213POPC   C1B30883   6.306  10.837   8.750
 2213POPC   C2B30884   6.109  10.797   8.332
 2213POPC   C3B30885   6.273  10.526   8.001
 2213POPC   C4B30886   6.558  10.392   7.676
 2214POPC   NC330887  10.001  43.873   9.707
 2214POPC   PO430888   9.479  44.254   9.695
 2214POPC   GL130889   9.719  44.150   9.292
 2214POPC   GL230890   9.829  43.781   9.236
 2214POPC   C1A30891   9.568  44.173   8.830
 2214POPC   D2A30892   9.559  44.380   8.402
 2214POPC   C3A30893   9.529  44.112   8.048
 2214POPC   C4A30894   9.752  43.837   7.794
 2214POPC   C1B30895  10.013  43.878   8.835
 2214POPC   C2B30896   9.836  43.954   8.459
 2214POPC   C3B30897  10.033  44.069   8.134
 2214POPC   C4B30898  10.262  43.888   7.818
 2215POPC   NC330899  35.427  21.629   9.429
 2215POPC   PO430900  35.825  21.082   9.602
 2215POPC   GL130901  35.515  21.107   9.206
 2215POPC   GL230902  35.600  21.394   9.028
 2215POPC   C1A30903  35.170  21.208   8.834
 2215POPC   D2A30904  35.132  21.425   8.409
 2215POPC   C3A30905  35.348  21.244   8.057
 2215POPC   C4A30906  35.245  21.159   7.644
 2215POPC   C1B30907  35.512  21.626   8.670
 2215POPC   C2B30908  35.704  21.496   8.337
 2215POPC   C3B30909  35.726  21.630   7.972
 2215POPC   C4B30910  35.363  21.657   7.741
 2216POPC   NC330911  14.746  36.727   9.508
 2216POPC   PO430912  15.282  37.142   9.513
 2216POPC   GL130913  15.155  36.853   9.150
 2216POPC   GL230914  14.787  36.886   9.049
 2216POPC   C1A30915  15.311  36.684   8.726
 2216POPC   D2A30916  15.162  36.806   8.315
 2216POPC   C3A30917  15.392  36.732   7.917
 2216POPC   C4A30918  15.329  36.973   7.553
 2216POPC   C1B30919  14.810  36.662   8.686
 2216POPC   C2B30920  14.673  36.550   8.290
 2216POPC   C3B30921  14.892  36.624   7.885
 2216POPC   C4B30922  14.892  36.740   7.436
 2217POPC   NC330923  21.633  40.397   9.267
 2217POPC   PO430924  21.386  41.003   9.471
 2217POPC   GL130925  21.180  40.849   9.069
 2217POPC   GL230926  21.436  40.632   8.868
 2217POPC   C1A30927  21.082  40.896   8.644
 2217POPC   D2A30928  21.350  40.882   8.301
 2217POPC   C3A30929  21.105  40.813   7.950
 2217POPC   C4A30930  21.172  40.451   7.766
 2217POPC   C1B30931  21.549  41.075   8.819
 2217POPC   C2B30932  21.673  41.273   8.495
 2217POPC   C3B30933  21.702  41.217   8.127
 2217POPC   C4B30934  21.543  41.017   7.813
 2218POPC   NC330935  25.799  12.930  10.001
 2218POPC   PO430936  25.274  12.632   9.580
 2218POPC   GL130937  25.182  12.551   9.132
 2218POPC   GL230938  25.233  12.863   9.019
 2218POPC   C1A30939  25.443  12.522   8.701
 2218POPC   D2A30940  25.439  12.798   8.345
 2218POPC   C3A30941  25.275  12.712   7.937
 2218POPC   C4A30942  25.185  12.619   7.483
 2218POPC   C1B30943  24.970  12.740   8.654
 2218POPC   C2B30944  24.866  12.897   8.260
 2218POPC   C3B30945  24.966  13.182   7.934
 2218POPC   C4B30946  25.242  13.111   7.604
 2219POPC   NC330947  35.352   0.453   9.860
 2219POPC   PO430948  35.726   0.251   9.356
 2219POPC   GL130949  35.470   0.465   9.012
 2219POPC   GL230950  35.110   0.547   9.045
 2219POPC   C1A30951  35.330   0.465   8.577
 2219POPC   D2A30952  35.189   0.419   8.162
 2219POPC   C3A30953  35.503   0.457   7.806
 2219POPC   C4A30954  35.391   0.427   7.356
 2219POPC   C1B30955  34.935   0.784   8.637
 2219POPC   C2B30956  35.014   0.904   8.199
 2219POPC   C3B30957  35.183   0.843   7.772
 2219POPC   C4B30958  35.290   0.920   7.316
 2220POPC   NC330959  38.128  27.767   9.372
 2220POPC   PO430960  38.503  27.305   9.780
 2220POPC   GL130961  38.534  27.382   9.280
 2220POPC   GL230962  38.874  27.404   9.154
 2220POPC   C1A30963  38.399  27.411   8.838
 2220POPC   D2A30964  38.167  27.454   8.441
 2220POPC   C3A30965  38.369  27.600   8.088
 2220POPC   C4A30966  38.540  27.824   7.778
 2220POPC   C1B30967  38.878  27.597   8.749
 2220POPC   C2B30968  38.684  27.388   8.414
 2220POPC   C3B30969  38.771  27.134   8.068
 2220POPC   C4B30970  38.667  27.342   7.707
 2221POPC   NC330971   8.987  41.904   9.548
 2221POPC   PO430972   8.852  41.236   9.692
 2221POPC   GL130973   8.809  41.443   9.234
 2221POPC   GL230974   8.833  41.780   9.079
 2221POPC   C1A30975   8.852  41.391   8.741
 2221POPC   D2A30976   9.042  41.489   8.300
 2221POPC   C3A30977   9.127  41.365   7.840
 2221POPC   C4A30978   8.938  41.498   7.452
 2221POPC   C1B30979   9.160  41.807   8.747
 2221POPC   C2B30980   9.219  41.975   8.316
 2221POPC   C3B30981   9.020  41.869   7.897
 2221POPC   C4B30982   9.011  42.024   7.450
 2222POPC   NC330983  38.558  17.175   9.366
 2222POPC   PO430984  38.133  17.647   9.614
 2222POPC   GL130985  38.183  17.487   9.140
 2222POPC   GL230986  38.149  17.233   8.944
 2222POPC   C1A30987  38.280  17.642   8.672
 2222POPC   D2A30988  38.671  17.698   8.413
 2222POPC   C3A30989  38.623  17.582   7.976
 2222POPC   C4A30990  38.350  17.718   7.633
 2222POPC   C1B30991  38.426  17.158   8.612
 2222POPC   C2B30992  38.262  17.336   8.258
 2222POPC   C3B30993  38.248  17.224   7.852
 2222POPC   C4B30994  38.578  17.242   7.571
 2223POPC   NC330995  36.478  10.760   9.409
 2223POPC   PO430996  35.895  11.014   9.231
 2223POPC   GL130997  36.108  10.598   9.102
 2223POPC   GL230998  36.033  10.240   9.146
 2223POPC   C1A30999  36.396  10.406   8.784
 2223POPC   D2A31000  36.544  10.564   8.372
 2223POPC   C3A31001  36.438  10.506   7.921
 2223POPC   C4A31002  36.146  10.748   7.664
 2223POPC   C1B31003  35.874  10.354   8.726
 2223POPC   C2B31004  35.662  10.443   8.344
 2223POPC   C3B31005  35.763  10.540   7.941
 2223POPC   C4B31006  36.006  10.251   7.737
 2224POPC   NC331007   1.846  34.806   9.608
 2224POPC   PO431008   2.207  34.358   9.415
 2224POPC   GL131009   2.111  34.687   9.095
 2224POPC   GL231010   1.789  34.811   9.115
 2224POPC   C1A31011   2.006  34.740   8.648
 2224POPC   D2A31012   2.165  34.472   8.362
 2224POPC   C3A31013   2.171  34.626   8.022
 2224POPC   C4A31014   2.076  34.376   7.666
 2224POPC   C1B31015   1.615  34.498   8.862
 2224POPC   C2B31016   1.537  34.566   8.418
 2224POPC   C3B31017   1.700  34.458   8.014
 2224POPC   C4B31018   1.549  34.178   7.717
 2225POPC   NC331019  44.907  32.583   9.461
 2225POPC   PO431020  44.638  32.044   9.177
 2225POPC   GL131021  44.691  32.437   9.016
 2225POPC   GL231022  44.378  32.588   8.960
 2225POPC   C1A31023  44.941  32.378   8.677
 2225POPC   D2A31024  44.951  32.422   8.267
 2225POPC   C3A31025  44.836  32.105   7.977
 2225POPC   C4A31026  44.757  32.389   7.702
 2225POPC   C1B31027  44.284  32.283   8.667
 2225POPC   C2B31028  44.532  32.072   8.402
 2225POPC   C3B31029  44.320  32.121   8.022
 2225POPC   C4B31030  44.433  31.986   7.648
 2226POPC   NC331031  34.261  22.644   9.478
 2226POPC   PO431032  34.834  22.441   9.402
 2226POPC   GL131033  34.572  22.697   9.074
 2226POPC   GL231034  34.326  23.005   9.126
 2226POPC   C1A31035  34.374  22.752   8.683
 2226POPC   D2A31036  34.438  22.684   8.261
 2226POPC   C3A31037  34.781  22.871   8.112
 2226POPC   C4A31038  34.685  22.929   7.720
 2226POPC   C1B31039  34.294  23.271   8.762
 2226POPC   C2B31040  34.486  23.198   8.379
 2226POPC   C3B31041  34.292  23.213   7.975
 2226POPC   C4B31042  34.439  23.421   7.586
 2227POPC   NC331043  32.509  17.073   9.676
 2227POPC   PO431044  33.032  16.614   9.593
 2227POPC   GL131045  33.034  16.775   9.184
 2227POPC   GL231046  32.784  17.034   9.227
 2227POPC   C1A31047  33.105  16.627   8.789
 2227POPC   D2A31048  33.025  16.612   8.355
 2227POPC   C3A31049  32.940  16.351   8.011
 2227POPC   C4A31050  33.026  16.313   7.534
 2227POPC   C1B31051  32.674  16.934   8.835
 2227POPC   C2B31052  32.844  17.055   8.473
 2227POPC   C3B31053  32.988  17.061   8.058
 2227POPC   C4B31054  32.752  17.051   7.708
 2228POPC   NC331055   3.569  37.493   9.506
 2228POPC   PO431056   3.210  38.094   9.467
 2228POPC   GL131057   3.416  37.830   9.153
 2228POPC   GL231058   3.374  37.440   9.057
 2228POPC   C1A31059   3.612  37.869   8.765
 2228POPC   D2A31060   3.630  37.610   8.421
 2228POPC   C3A31061   3.880  37.697   8.090
 2228POPC   C4A31062   3.637  37.733   7.743
 2228POPC   C1B31063   3.154  37.642   8.746
 2228POPC   C2B31064   3.205  37.874   8.394
 2228POPC   C3B31065   3.232  37.644   8.027
 2228POPC   C4B31066   3.125  37.654   7.588
 2229POPC   NC331067   8.433  27.037   9.503
 2229POPC   PO431068   7.838  26.757   9.501
 2229POPC   GL131069   8.040  26.752   9.123
 2229POPC   GL231070   8.388  26.695   9.075
 2229POPC   C1A31071   8.115  26.899   8.700
 2229POPC   D2A31072   8.501  26.907   8.496
 2229POPC   C3A31073   8.423  27.040   8.083
 2229POPC   C4A31074   8.116  26.889   7.791
 2229POPC   C1B31075   8.586  26.399   8.758
 2229POPC   C2B31076   8.724  26.450   8.336
 2229POPC   C3B31077   8.515  26.470   7.921
 2229POPC   C4B31078   8.762  26.525   7.547
 2230POPC   NC331079   0.222  30.128   9.488
 2230POPC   PO431080   0.679  29.690   9.395
 2230POPC   GL131081   0.474  29.957   9.073
 2230POPC   GL231082   0.530  30.319   9.145
 2230POPC   C1A31083   0.153  29.834   8.750
 2230POPC   D2A31084   0.240  29.619   8.339
 2230POPC   C3A31085   0.360  29.840   7.954
 2230POPC   C4A31086   0.740  29.891   7.725
 2230POPC   C1B31087   0.298  30.362   8.782
 2230POPC   C2B31088   0.364  30.162   8.410
 2230POPC   C3B31089   0.588  30.289   8.100
 2230POPC   C4B31090   0.540  30.370   7.703
 2231POPC   NC331091  11.666  24.162   9.280
 2231POPC   PO431092  12.281  24.370   9.499
 2231POPC   GL131093  12.053  24.472   9.124
 2231POPC   GL231094  12.002  24.192   8.907
 2231POPC   C1A31095  11.992  24.714   8.724
 2231POPC   D2A31096  12.175  24.770   8.294
 2231POPC   C3A31097  11.933  24.777   7.897
 2231POPC   C4A31098  11.944  24.709   7.428
 2231POPC   C1B31099  11.601  24.338   8.672
 2231POPC   C2B31100  11.722  24.522   8.314
 2231POPC   C3B31101  11.932  24.254   8.010
 2231POPC   C4B31102  11.733  23.983   7.705
 2232POPC   NC331103   0.668  25.050   9.511
 2232POPC   PO431104   0.075  25.191   9.653
 2232POPC   GL131105   0.301  25.216   9.208
 2232POPC   GL231106   0.644  25.362   9.075
 2232POPC   C1A31107   0.219  25.389   8.793
 2232POPC   D2A31108   0.490  25.438   8.433
 2232POPC   C3A31109   0.225  25.344   8.074
 2232POPC   C4A31110   0.089  25.456   7.666
 2232POPC   C1B31111   0.630  24.990   8.826
 2232POPC   C2B31112   0.753  24.804   8.414
 2232POPC   C3B31113   0.705  24.967   7.976
 2232POPC   C4B31114   0.582  25.310   7.699
 2233POPC   NC331115  36.331  21.233   9.591
 2233POPC   PO431116  35.845  21.782   9.559
 2233POPC   GL131117  36.053  21.602   9.196
 2233POPC   GL231118  36.069  21.242   9.171
 2233POPC   C1A31119  36.010  21.506   8.750
 2233POPC   D2A31120  36.186  21.661   8.414
 2233POPC   C3A31121  36.240  21.455   8.045
 2233POPC   C4A31122  36.138  21.636   7.680
 2233POPC   C1B31123  36.198  21.031   8.797
 2233POPC   C2B31124  36.078  21.099   8.389
 2233POPC   C3B31125  35.862  21.130   8.008
 2233POPC   C4B31126  36.050  21.099   7.614
 2234POPC   NC331127  10.921  27.572   9.479
 2234POPC   PO431128  11.543  27.668   9.584
 2234POPC   GL131129  11.387  27.519   9.152
 2234POPC   GL231130  11.158  27.263   9.139
 2234POPC   C1A31131  11.326  27.568   8.673
 2234POPC   D2A31132  11.556  27.627   8.245
 2234POPC   C3A31133  11.603  27.999   7.965
 2234POPC   C4A31134  11.588  27.985   7.488
 2234POPC   C1B31135  11.115  27.076   8.736
 2234POPC   C2B31136  11.039  27.123   8.293
 2234POPC   C3B31137  11.042  27.428   7.979
 2234POPC   C4B31138  11.346  27.613   7.746
 2235POPC   NC331139  32.951  22.276   9.717
 2235POPC   PO431140  33.335  21.769   9.365
 2235POPC   GL131141  33.146  22.158   9.232
 2235POPC   GL231142  32.866  22.265   9.172
 2235POPC   C1A31143  33.208  22.211   8.767
 2235POPC   D2A31144  33.083  21.958   8.408
 2235POPC   C3A31145  33.152  22.105   7.972
 2235POPC   C4A31146  32.867  21.921   7.703
 2235POPC   C1B31147  32.744  22.046   8.819
 2235POPC   C2B31148  32.604  22.162   8.411
 2235POPC   C3B31149  32.687  22.303   8.012
 2235POPC   C4B31150  32.511  22.588   7.726
 2236POPC   NC331151  44.618  20.962   9.519
 2236POPC   PO431152  44.945  21.561   9.520
 2236POPC   GL131153  44.814  21.616   9.131
 2236POPC   GL231154  44.570  21.362   9.188
 2236POPC   C1A31155  44.941  21.572   8.704
 2236POPC   D2A31156   0.048  21.280   8.336
 2236POPC   C3A31157  44.935  21.453   7.966
 2236POPC   C4A31158  44.768  21.743   7.691
 2236POPC   C1B31159  44.402  21.471   8.818
 2236POPC   C2B31160  44.535  21.494   8.398
 2236POPC   C3B31161  44.421  21.385   7.998
 2236POPC   C4B31162  44.286  21.617   7.663
 2237POPC   NC331163  13.052  15.032   9.600
 2237POPC   PO431164  12.565  15.531   9.537
 2237POPC   GL131165  12.877  15.361   9.272
 2237POPC   GL231166  12.629  15.132   9.165
 2237POPC   C1A31167  13.056  15.043   8.933
 2237POPC   D2A31168  12.855  14.993   8.517
 2237POPC   C3A31169  13.113  15.000   8.147
 2237POPC   C4A31170  13.051  15.196   7.759
 2237POPC   C1B31171  12.733  15.425   8.803
 2237POPC   C2B31172  12.547  15.407   8.408
 2237POPC   C3B31173  12.596  15.185   8.038
 2237POPC   C4B31174  12.620  15.511   7.769
 2238POPC   NC331175  27.666   3.945   9.582
 2238POPC   PO431176  27.301   4.495   9.629
 2238POPC   GL131177  27.425   4.540   9.198
 2238POPC   GL231178  27.626   4.250   9.177
 2238POPC   C1A31179  27.646   4.560   8.774
 2238POPC   D2A31180  27.574   4.291   8.421
 2238POPC   C3A31181  27.549   4.469   7.983
 2238POPC   C4A31182  27.786   4.505   7.597
 2238POPC   C1B31183  27.917   4.105   8.864
 2238POPC   C2B31184  28.057   4.082   8.446
 2238POPC   C3B31185  27.884   4.094   8.046
 2238POPC   C4B31186  28.032   4.060   7.658
 2239POPC   NC331187   5.917   6.309   9.895
 2239POPC   PO431188   5.661   5.719   9.602
 2239POPC   GL131189   5.946   5.796   9.221
 2239POPC   GL231190   5.671   5.809   9.073
 2239POPC   C1A31191   6.043   5.943   8.760
 2239POPC   D2A31192   5.943   6.045   8.322
 2239POPC   C3A31193   6.074   5.758   7.987
 2239POPC   C4A31194   6.231   5.790   7.575
 2239POPC   C1B31195   5.507   5.701   8.703
 2239POPC   C2B31196   5.639   5.630   8.307
 2239POPC   C3B31197   5.568   5.840   7.936
 2239POPC   C4B31198   5.733   5.708   7.540
 2240POPC   NC331199  40.707  21.896   9.418
 2240POPC   PO431200  40.977  22.546   9.454
 2240POPC   GL131201  40.797  22.332   9.167
 2240POPC   GL231202  41.137  22.221   9.069
 2240POPC   C1A31203  40.720  22.091   8.811
 2240POPC   D2A31204  40.958  22.080   8.488
 2240POPC   C3A31205  40.767  22.150   8.103
 2240POPC   C4A31206  40.673  22.175   7.686
 2240POPC   C1B31207  40.993  22.541   8.739
 2240POPC   C2B31208  41.065  22.529   8.293
 2240POPC   C3B31209  41.022  22.527   7.831
 2240POPC   C4B31210  41.060  22.788   7.450
 2241POPC   NC331211  17.305   2.537   9.570
 2241POPC   PO431212  17.774   2.982   9.493
 2241POPC   GL131213  17.461   2.994   9.135
 2241POPC   GL231214  17.117   3.171   9.047
 2241POPC   C1A31215  17.496   2.810   8.751
 2241POPC   D2A31216  17.721   2.955   8.415
 2241POPC   C3A31217  17.590   2.831   8.021
 2241POPC   C4A31218  17.598   2.524   7.727
 2241POPC   C1B31219  16.984   2.950   8.726
 2241POPC   C2B31220  17.160   2.808   8.360
 2241POPC   C3B31221  17.049   2.641   8.005
 2241POPC   C4B31222  17.103   2.821   7.651
 2242POPC   NC331223  17.730  39.484   9.545
 2242POPC   PO431224  17.326  40.095   9.635
 2242POPC   GL131225  17.323  39.944   9.202
 2242POPC   GL231226  17.497  39.630   9.121
 2242POPC   C1A31227  17.482  39.992   8.772
 2242POPC   D2A31228  17.339  39.966   8.387
 2242POPC   C3A31229  17.613  39.943   8.069
 2242POPC   C4A31230  17.519  40.152   7.706
 2242POPC   C1B31231  17.866  39.678   8.826
 2242POPC   C2B31232  17.989  39.793   8.424
 2242POPC   C3B31233  17.992  39.585   8.029
 2242POPC   C4B31234  17.913  39.778   7.665
 2243POPC   NC331235  32.684  12.244   9.909
 2243POPC   PO431236  33.252  12.094   9.526
 2243POPC   GL131237  33.185  12.081   9.120
 2243POPC   GL231238  32.845  11.955   9.066
 2243POPC   C1A31239  33.162  12.098   8.708
 2243POPC   D2A31240  32.854  11.984   8.418
 2243POPC   C3A31241  32.936  12.100   8.009
 2243POPC   C4A31242  33.043  11.933   7.560
 2243POPC   C1B31243  32.681  12.288   8.783
 2243POPC   C2B31244  32.486  12.450   8.419
 2243POPC   C3B31245  32.448  12.285   8.013
 2243POPC   C4B31246  32.647  12.264   7.641
 2244POPC   NC331247   9.806  28.330   9.669
 2244POPC   PO431248   9.180  28.253   9.603
 2244POPC   GL131249   9.556  28.310   9.232
 2244POPC   GL231250   9.796  28.609   9.217
 2244POPC   C1A31251   9.703  28.230   8.762
 2244POPC   D2A31252   9.779  28.084   8.289
 2244POPC   C3A31253   9.538  28.253   7.917
 2244POPC   C4A31254   9.595  28.330   7.419
 2244POPC   C1B31255  10.086  28.568   8.850
 2244POPC   C2B31256  10.071  28.649   8.425
 2244POPC   C3B31257   9.997  28.471   8.056
 2244POPC   C4B31258   9.921  28.608   7.676
 2245POPC   NC331259  33.926  38.487   9.661
 2245POPC   PO431260  33.411  38.792   9.630
 2245POPC   GL131261  33.588  38.630   9.234
 2245POPC   GL231262  33.839  38.361   9.182
 2245POPC   C1A31263  33.527  38.762   8.782
 2245POPC   D2A31264  33.770  38.737   8.382
 2245POPC   C3A31265  33.554  38.702   8.011
 2245POPC   C4A31266  33.754  38.433   7.729
 2245POPC   C1B31267  33.947  38.469   8.772
 2245POPC   C2B31268  34.107  38.280   8.367
 2245POPC   C3B31269  34.006  38.081   7.976
 2245POPC   C4B31270  34.093  38.093   7.528
 2246POPC   NC331271  41.715   0.207   9.573
 2246POPC   PO431272  41.073   0.173   9.494
 2246POPC   GL131273  41.355   0.386   9.211
 2246POPC   GL231274  41.736   0.321   9.082
 2246POPC   C1A31275  41.362   0.431   8.777
 2246POPC   D2A31276  41.680   0.331   8.493
 2246POPC   C3A31277  41.604   0.481   8.100
 2246POPC   C4A31278  41.547   0.238   7.756
 2246POPC   C1B31279  41.997   0.586   8.791
 2246POPC   C2B31280  41.948   0.771   8.355
 2246POPC   C3B31281  42.056   0.637   7.951
 2246POPC   C4B31282  41.830   0.630   7.600
 2247POPC   NC331283   4.849  10.464   9.511
 2247POPC   PO431284   5.514  10.526   9.476
 2247POPC   GL131285   5.267  10.602   9.103
 2247POPC   GL231286   4.927  10.465   9.026
 2247POPC   C1A31287   5.310  10.494   8.669
 2247POPC   D2A31288   5.426  10.371   8.259
 2247POPC   C3A31289   5.289  10.659   7.920
 2247POPC   C4A31290   5.017  10.603   7.525
 2247POPC   C1B31291   4.877  10.758   8.724
 2247POPC   C2B31292   4.968  10.663   8.313
 2247POPC   C3B31293   4.799  10.802   7.940
 2247POPC   C4B31294   4.528  11.118   7.803
 2248POPC   NC331295   0.118  34.263   9.349
 2248POPC   PO431296   0.614  34.751   9.556
 2248POPC   GL131297   0.462  34.607   9.180
 2248POPC   GL231298   0.128  34.773   9.161
 2248POPC   C1A31299   0.584  34.504   8.757
 2248POPC   D2A31300   0.452  34.644   8.354
 2248POPC   C3A31301   0.682  34.491   8.030
 2248POPC   C4A31302   0.683  34.609   7.629
 2248POPC   C1B31303   0.057  34.546   8.750
 2248POPC   C2B31304   0.023  34.380   8.326
 2248POPC   C3B31305   0.176  34.558   7.915
 2248POPC   C4B31306   0.276  34.354   7.484
 2249POPC   NC331307   9.971  11.516   9.364
 2249POPC   PO431308   9.654  10.872   9.448
 2249POPC   GL131309   9.713  11.115   9.081
 2249POPC   GL231310   9.704  11.450   8.954
 2249POPC   C1A31311   9.713  11.031   8.649
 2249POPC   D2A31312   9.848  10.910   8.250
 2249POPC   C3A31313   9.818  11.276   7.999
 2249POPC   C4A31314   9.638  11.281   7.586
 2249POPC   C1B31315   9.628  11.565   8.571
 2249POPC   C2B31316   9.419  11.294   8.326
 2249POPC   C3B31317   9.311  11.352   7.952
 2249POPC   C4B31318   9.256  11.621   7.645
 2250POPC   NC331319  23.479   9.490   9.457
 2250POPC   PO431320  23.801  10.057   9.649
 2250POPC   GL131321  23.675   9.910   9.234
 2250POPC   GL231322  23.881   9.596   9.183
 2250POPC   C1A31323  23.555   9.801   8.805
 2250POPC   D2A31324  23.690   9.618   8.410
 2250POPC   C3A31325  23.523   9.810   8.080
 2250POPC   C4A31326  23.605   9.910   7.656
 2250POPC   C1B31327  23.819   9.351   8.827
 2250POPC   C2B31328  24.111   9.304   8.493
 2250POPC   C3B31329  24.112   9.452   8.075
 2250POPC   C4B31330  23.874   9.478   7.693
 2251POPC   NC331331  39.979  28.944   9.488
 2251POPC   PO431332  40.426  29.403   9.533
 2251POPC   GL131333  40.018  29.461   9.263
 2251POPC   GL231334  39.892  29.182   9.048
 2251POPC   C1A31335  39.733  29.633   8.918
 2251POPC   D2A31336  39.853  29.491   8.508
 2251POPC   C3A31337  39.643  29.391   8.112
 2251POPC   C4A31338  39.933  29.331   7.792
 2251POPC   C1B31339  40.161  29.132   8.683
 2251POPC   C2B31340  40.060  29.076   8.262
 2251POPC   C3B31341  39.776  28.878   8.027
 2251POPC   C4B31342  39.803  28.859   7.618
 2252POPC   NC331343   8.403   2.185   9.413
 2252POPC   PO431344   9.119   2.009   9.467
 2252POPC   GL131345   9.062   2.128   9.108
 2252POPC   GL231346   8.796   2.351   9.121
 2252POPC   C1A31347   9.040   1.923   8.736
 2252POPC   D2A31348   8.937   1.828   8.320
 2252POPC   C3A31349   9.212   1.849   7.953
 2252POPC   C4A31350   8.862   1.773   7.666
 2252POPC   C1B31351   8.991   2.437   8.719
 2252POPC   C2B31352   8.869   2.340   8.327
 2252POPC   C3B31353   8.862   2.220   7.919
 2252POPC   C4B31354   9.091   2.215   7.537
 2253POPC   NC331355   6.058  13.331   9.509
 2253POPC   PO431356   5.538  13.747   9.452
 2253POPC   GL131357   5.829  13.634   9.118
 2253POPC   GL231358   5.870  13.258   9.034
 2253POPC   C1A31359   5.685  13.546   8.676
 2253POPC   D2A31360   5.417  13.719   8.411
 2253POPC   C3A31361   5.728  13.915   8.174
 2253POPC   C4A31362   5.776  13.820   7.765
 2253POPC   C1B31363   6.192  13.502   8.801
 2253POPC   C2B31364   6.095  13.633   8.408
 2253POPC   C3B31365   6.100  13.468   8.020
 2253POPC   C4B31366   5.946  13.341   7.672
 2254POPC   NC331367  24.844  31.239   9.539
 2254POPC   PO431368  24.519  31.796   9.637
 2254POPC   GL131369  24.463  31.552   9.224
 2254POPC   GL231370  24.611  31.225   9.106
 2254POPC   C1A31371  24.318  31.495   8.779
 2254POPC   D2A31372  24.528  31.428   8.387
 2254POPC   C3A31373  24.332  31.336   8.026
 2254POPC   C4A31374  24.469  31.532   7.684
 2254POPC   C1B31375  24.857  31.322   8.752
 2254POPC   C2B31376  25.052  31.271   8.353
 2254POPC   C3B31377  24.826  31.228   7.988
 2254POPC   C4B31378  24.914  31.322   7.584
 2255POPC   NC331379  12.557   3.870   9.442
 2255POPC   PO431380  13.110   3.515   9.548
 2255POPC   GL131381  12.912   3.615   9.187
 2255POPC   GL231382  13.015   3.971   9.207
 2255POPC   C1A31383  12.666   3.496   8.825
 2255POPC   D2A31384  12.620   3.680   8.429
 2255POPC   C3A31385  12.608   3.374   8.091
 2255POPC   C4A31386  12.719   3.161   7.725
 2255POPC   C1B31387  12.929   3.942   8.785
 2255POPC   C2B31388  13.112   3.873   8.403
 2255POPC   C3B31389  12.915   3.792   8.024
 2255POPC   C4B31390  13.151   3.780   7.684
 2256POPC   NC331391   9.528   4.071   9.694
 2256POPC   PO431392   9.994   4.516   9.504
 2256POPC   GL131393   9.920   4.234   9.190
 2256POPC   GL231394   9.551   4.258   9.224
 2256POPC   C1A31395  10.064   4.168   8.763
 2256POPC   D2A31396   9.905   4.041   8.346
 2256POPC   C3A31397  10.061   4.219   7.969
 2256POPC   C4A31398  10.003   4.017   7.551
 2256POPC   C1B31399   9.556   4.207   8.800
 2256POPC   C2B31400   9.519   4.402   8.415
 2256POPC   C3B31401   9.566   4.373   8.016
 2256POPC   C4B31402   9.288   4.197   7.760
 2257POPC   NC331403  16.624  37.302   9.574
 2257POPC   PO431404  16.466  37.901   9.685
 2257POPC   GL131405  16.778  37.876   9.288
 2257POPC   GL231406  16.971  37.571   9.194
 2257POPC   C1A31407  16.775  37.789   8.796
 2257POPC   D2A31408  16.589  37.905   8.381
 2257POPC   C3A31409  16.755  37.778   7.971
 2257POPC   C4A31410  16.551  37.733   7.560
 2257POPC   C1B31411  17.018  37.295   8.817
 2257POPC   C2B31412  16.860  37.161   8.392
 2257POPC   C3B31413  17.042  37.293   8.003
 2257POPC   C4B31414  17.006  37.535   7.605
 2258POPC   NC331415  42.220  28.578   9.554
 2258POPC   PO431416  42.655  28.083   9.459
 2258POPC   GL131417  42.462  28.114   9.056
 2258POPC   GL231418  42.186  28.316   9.117
 2258POPC   C1A31419  42.563  28.216   8.615
 2258POPC   D2A31420  42.539  28.587   8.335
 2258POPC   C3A31421  42.454  28.490   7.905
 2258POPC   C4A31422  42.420  28.058   7.857
 2258POPC   C1B31423  42.206  28.554   8.745
 2258POPC   C2B31424  42.036  28.474   8.346
 2258POPC   C3B31425  41.968  28.278   7.960
 2258POPC   C4B31426  41.987  28.634   7.704
 2259POPC   NC331427  44.573  15.045   9.550
 2259POPC   PO431428  44.681  15.722   9.594
 2259POPC   GL131429  44.589  15.478   9.178
 2259POPC   GL231430  44.551  15.116   9.047
 2259POPC   C1A31431  44.690  15.449   8.712
 2259POPC   D2A31432  44.587  15.215   8.328
 2259POPC   C3A31433  44.654  15.391   7.925
 2259POPC   C4A31434  44.854  15.305   7.524
 2259POPC   C1B31435  44.697  14.855   8.684
 2259POPC   C2B31436  44.939  14.753   8.309
 2259POPC   C3B31437  44.775  14.901   7.924
 2259POPC   C4B31438  44.706  14.835   7.483
 2260POPC   NC331439  10.718  10.321   9.442
 2260POPC   PO431440  10.498  10.902   9.745
 2260POPC   GL131441  10.445  10.874   9.236
 2260POPC   GL231442  10.367  10.514   9.128
 2260POPC   C1A31443  10.564  10.784   8.762
 2260POPC   D2A31444  10.587  10.587   8.330
 2260POPC   C3A31445  10.709  10.759   7.925
 2260POPC   C4A31446  10.335  10.608   7.776
 2260POPC   C1B31447  10.502  10.242   8.762
 2260POPC   C2B31448  10.631  10.058   8.348
 2260POPC   C3B31449  10.643  10.199   7.893
 2260POPC   C4B31450  10.872  10.132   7.507
 2261POPC   NC331451  38.895  13.321   9.757
 2261POPC   PO431452  38.521  12.746   9.493
 2261POPC   GL131453  38.429  12.777   9.088
 2261POPC   GL231454  38.694  12.911   8.976
 2261POPC   C1A31455  38.269  12.838   8.687
 2261POPC   D2A31456  38.033  12.718   8.378
 2261POPC   C3A31457  38.075  12.975   8.032
 2261POPC   C4A31458  38.474  13.128   7.925
 2261POPC   C1B31459  38.679  12.547   8.674
 2261POPC   C2B31460  38.542  12.671   8.246
 2261POPC   C3B31461  38.693  12.577   7.845
 2261POPC   C4B31462  38.725  12.445   7.409
 2262POPC   NC331463  18.228  25.820   9.453
 2262POPC   PO431464  18.805  26.159   9.505
 2262POPC   GL131465  18.554  26.077   9.134
 2262POPC   GL231466  18.645  25.720   9.185
 2262POPC   C1A31467  18.137  26.102   8.859
 2262POPC   D2A31468  17.926  26.307   8.474
 2262POPC   C3A31469  18.009  26.081   8.108
 2262POPC   C4A31470  18.178  26.022   7.707
 2262POPC   C1B31471  18.735  25.760   8.762
 2262POPC   C2B31472  18.522  25.737   8.378
 2262POPC   C3B31473  18.535  26.055   8.082
 2262POPC   C4B31474  18.700  26.191   7.697
 2263POPC   NC331475  22.562  23.008   9.449
 2263POPC   PO431476  22.021  22.651   9.635
 2263POPC   GL131477  22.134  22.844   9.200
 2263POPC   GL231478  21.808  22.724   9.105
 2263POPC   C1A31479  22.389  23.003   8.822
 2263POPC   D2A31480  22.594  22.744   8.508
 2263POPC   C3A31481  22.435  22.795   8.112
 2263POPC   C4A31482  22.334  22.589   7.734
 2263POPC   C1B31483  21.913  22.924   8.724
 2263POPC   C2B31484  21.972  23.035   8.314
 2263POPC   C3B31485  21.966  22.891   7.901
 2263POPC   C4B31486  21.979  23.128   7.528
 2264POPC   NC331487  17.338   4.007   9.539
 2264POPC   PO431488  17.689   4.546   9.506
 2264POPC   GL131489  17.850   4.315   9.152
 2264POPC   GL231490  17.641   4.065   9.144
 2264POPC   C1A31491  17.720   4.313   8.704
 2264POPC   D2A31492  17.529   4.577   8.397
 2264POPC   C3A31493  17.473   4.387   8.007
 2264POPC   C4A31494  17.763   4.455   7.680
 2264POPC   C1B31495  17.292   4.024   8.834
 2264POPC   C2B31496  17.363   4.066   8.391
 2264POPC   C3B31497  17.451   3.884   7.955
 2264POPC   C4B31498  17.175   3.956   7.614
 2265POPC   NC331499   7.341  32.447   9.546
 2265POPC   PO431500   7.133  31.903   9.303
 2265POPC   GL131501   7.326  32.237   9.080
 2265POPC   GL231502   7.034  32.488   9.121
 2265POPC   C1A31503   7.370  32.430   8.673
 2265POPC   D2A31504   7.285  32.286   8.233
 2265POPC   C3A31505   7.512  32.274   7.871
 2265POPC   C4A31506   7.839  32.000   7.782
 2265POPC   C1B31507   6.868  32.557   8.701
 2265POPC   C2B31508   7.045  32.745   8.322
 2265POPC   C3B31509   7.147  32.647   7.882
 2265POPC   C4B31510   7.153  32.436   7.473
 2266POPC   NC331511  33.447  21.506   9.739
 2266POPC   PO431512  34.070  21.251   9.544
 2266POPC   GL131513  33.797  21.286   9.192
 2266POPC   GL231514  33.629  20.956   9.172
 2266POPC   C1A31515  33.855  21.491   8.779
 2266POPC   D2A31516  33.986  21.319   8.400
 2266POPC   C3A31517  33.866  21.473   8.015
 2266POPC   C4A31518  34.081  21.668   7.684
 2266POPC   C1B31519  33.519  21.105   8.742
 2266POPC   C2B31520  33.494  21.219   8.286
 2266POPC   C3B31521  33.457  21.188   7.827
 2266POPC   C4B31522  33.474  21.151   7.383
 2267POPC   NC331523  29.687  37.216   9.481
 2267POPC   PO431524  30.106  36.655   9.502
 2267POPC   GL131525  30.044  36.765   9.131
 2267POPC   GL231526  29.694  36.869   9.088
 2267POPC   C1A31527  29.993  36.592   8.758
 2267POPC   D2A31528  29.731  36.823   8.475
 2267POPC   C3A31529  29.760  36.865   8.049
 2267POPC   C4A31530  30.040  36.881   7.695
 2267POPC   C1B31531  29.939  37.156   8.802
 2267POPC   C2B31532  29.944  37.298   8.346
 2267POPC   C3B31533  30.136  37.316   7.922
 2267POPC   C4B31534  30.082  37.400   7.455
 2268POPC   NC331535   9.650  37.893   9.834
 2268POPC   PO431536   9.725  37.263   9.734
 2268POPC   GL131537   9.830  37.618   9.414
 2268POPC   GL231538   9.526  37.820   9.326
 2268POPC   C1A31539   9.879  37.716   8.952
 2268POPC   D2A31540   9.708  37.480   8.571
 2268POPC   C3A31541   9.914  37.604   8.194
 2268POPC   C4A31542   9.790  37.617   7.781
 2268POPC   C1B31543   9.545  38.084   8.959
 2268POPC   C2B31544   9.713  37.991   8.539
 2268POPC   C3B31545   9.498  37.899   8.132
 2268POPC   C4B31546   9.446  37.990   7.661
 2269POPC   NC331547  15.767  26.235   9.584
 2269POPC   PO431548  15.778  25.587   9.397
 2269POPC   GL131549  15.775  25.968   9.124
 2269POPC   GL231550  16.060  26.222   9.146
 2269POPC   C1A31551  15.778  25.962   8.681
 2269POPC   D2A31552  16.065  25.991   8.315
 2269POPC   C3A31553  15.891  25.975   7.908
 2269POPC   C4A31554  15.754  26.185   7.529
 2269POPC   C1B31555  16.115  26.346   8.716
 2269POPC   C2B31556  16.133  26.528   8.305
 2269POPC   C3B31557  16.203  26.376   7.896
 2269POPC   C4B31558  16.182  26.448   7.450
 2270POPC   NC331559   0.098  20.310   9.504
 2270POPC   PO431560  44.538  20.542   9.335
 2270POPC   GL131561  44.691  20.778   9.057
 2270POPC   GL231562  44.956  21.037   9.123
 2270POPC   C1A31563  44.728  20.610   8.700
 2270POPC   D2A31564  44.865  20.322   8.464
 2270POPC   C3A31565  44.772  20.473   8.101
 2270POPC   C4A31566  44.673  20.367   7.722
 2270POPC   C1B31567  44.750  21.112   8.705
 2270POPC   C2B31568  44.605  20.941   8.301
 2270POPC   C3B31569  44.602  20.902   7.857
 2270POPC   C4B31570  44.709  21.235   7.565
 2271POPC   NC331571  14.723  35.153   9.280
 2271POPC   PO431572  14.129  34.965   9.435
 2271POPC   GL131573  14.246  35.316   9.125
 2271POPC   GL231574  14.456  35.638   9.185
 2271POPC   C1A31575  14.432  35.237   8.703
 2271POPC   D2A31576  14.376  35.087   8.276
 2271POPC   C3A31577  14.313  35.313   7.878
 2271POPC   C4A31578  14.514  35.202   7.473
 2271POPC   C1B31579  14.643  35.704   8.762
 2271POPC   C2B31580  14.690  35.505   8.338
 2271POPC   C3B31581  14.727  35.628   7.927
 2271POPC   C4B31582  14.489  35.689   7.558
 2272POPC   NC331583  12.832  21.427   9.678
 2272POPC   PO431584  13.207  21.042   9.244
 2272POPC   GL131585  12.797  21.288   9.149
 2272POPC   GL231586  12.729  21.658   9.201
 2272POPC   C1A31587  12.694  21.151   8.758
 2272POPC   D2A31588  13.071  21.188   8.496
 2272POPC   C3A31589  13.000  21.195   8.059
 2272POPC   C4A31590  12.579  21.142   7.869
 2272POPC   C1B31591  12.744  21.688   8.739
 2272POPC   C2B31592  12.665  21.501   8.302
 2272POPC   C3B31593  12.645  21.662   7.882
 2272POPC   C4B31594  12.545  22.041   7.667
 2273POPC   NC331595  33.104  38.856   9.297
 2273POPC   PO431596  32.988  39.454   9.440
 2273POPC   GL131597  32.828  39.201   9.069
 2273POPC   GL231598  33.093  39.069   8.823
 2273POPC   C1A31599  32.603  39.015   8.740
 2273POPC   D2A31600  32.745  39.256   8.401
 2273POPC   C3A31601  32.791  39.115   7.997
 2273POPC   C4A31602  33.201  39.040   7.806
 2273POPC   C1B31603  33.068  39.540   8.787
 2273POPC   C2B31604  33.017  39.741   8.425
 2273POPC   C3B31605  33.148  39.479   8.107
 2273POPC   C4B31606  33.206  39.531   7.684
 2274POPC   NC331607  23.281  12.896   9.396
 2274POPC   PO431608  22.633  13.058   9.492
 2274POPC   GL131609  22.809  12.832   9.154
 2274POPC   GL231610  22.966  12.526   9.255
 2274POPC   C1A31611  22.703  12.794   8.721
 2274POPC   D2A31612  22.876  12.927   8.304
 2274POPC   C3A31613  22.664  12.804   7.907
 2274POPC   C4A31614  22.820  12.574   7.581
 2274POPC   C1B31615  23.143  12.542   8.819
 2274POPC   C2B31616  23.206  12.520   8.350
 2274POPC   C3B31617  23.235  12.495   7.874
 2274POPC   C4B31618  23.247  12.370   7.409
 2275POPC   NC331619   4.841  27.502   9.732
 2275POPC   PO431620   4.254  27.827   9.678
 2275POPC   GL131621   4.250  27.561   9.257
 2275POPC   GL231622   4.291  27.852   9.122
 2275POPC   C1A31623   4.250  27.531   8.746
 2275POPC   D2A31624   4.366  27.305   8.361
 2275POPC   C3A31625   4.206  27.485   7.989
 2275POPC   C4A31626   4.284  27.603   7.533
 2275POPC   C1B31627   4.527  27.945   8.735
 2275POPC   C2B31628   4.451  27.817   8.328
 2275POPC   C3B31629   4.457  27.934   7.923
 2275POPC   C4B31630   4.283  28.091   7.529
 2276POPC   NC331631   2.338  25.268   9.477
 2276POPC   PO431632   1.730  25.578   9.333
 2276POPC   GL131633   2.068  25.443   9.054
 2276POPC   GL231634   2.350  25.177   8.991
 2276POPC   C1A31635   1.939  25.220   8.690
 2276POPC   D2A31636   1.693  25.207   8.350
 2276POPC   C3A31637   1.981  25.281   8.016
 2276POPC   C4A31638   2.190  25.466   7.659
 2276POPC   C1B31639   2.286  24.841   8.703
 2276POPC   C2B31640   2.050  24.806   8.315
 2276POPC   C3B31641   2.201  24.829   7.881
 2276POPC   C4B31642   1.971  25.024   7.552
 2277POPC   NC331643  31.594   9.303   9.484
 2277POPC   PO431644  32.198   8.895   9.438
 2277POPC   GL131645  32.313   8.960   9.048
 2277POPC   GL231646  32.226   9.332   9.050
 2277POPC   C1A31647  32.387   8.931   8.600
 2277POPC   D2A31648  32.091   8.975   8.295
 2277POPC   C3A31649  32.056   8.745   7.929
 2277POPC   C4A31650  32.434   8.794   7.683
 2277POPC   C1B31651  32.031   9.313   8.685
 2277POPC   C2B31652  32.344   9.405   8.385
 2277POPC   C3B31653  32.412   9.373   7.985
 2277POPC   C4B31654  32.056   9.221   7.828
 2278POPC   NC331655   0.117  39.851   9.491
 2278POPC   PO431656   0.803  39.854   9.463
 2278POPC   GL131657   0.542  39.797   9.088
 2278POPC   GL231658   0.169  39.842   8.989
 2278POPC   C1A31659   0.619  40.026   8.716
 2278POPC   D2A31660   0.577  40.382   8.428
 2278POPC   C3A31661   0.781  40.267   8.039
 2278POPC   C4A31662   0.880  39.940   7.739
 2278POPC   C1B31663   0.146  40.277   8.779
 2278POPC   C2B31664   0.060  40.432   8.350
 2278POPC   C3B31665   0.293  40.416   7.950
 2278POPC   C4B31666   0.364  39.989   7.788
 2279POPC   NC331667   7.976  25.529   9.505
 2279POPC   PO431668   8.377  25.000   9.636
 2279POPC   GL131669   8.322  25.278   9.225
 2279POPC   GL231670   8.551  25.098   9.052
 2279POPC   C1A31671   8.067  25.468   8.854
 2279POPC   D2A31672   7.949  25.428   8.403
 2279POPC   C3A31673   8.004  25.514   7.963
 2279POPC   C4A31674   7.878  25.152   7.698
 2279POPC   C1B31675   8.305  25.060   8.668
 2279POPC   C2B31676   8.343  24.839   8.283
 2279POPC   C3B31677   8.322  25.120   7.991
 2279POPC   C4B31678   8.481  25.174   7.608
 2280POPC   NC331679  37.000   7.784   9.356
 2280POPC   PO431680  36.570   7.258   9.379
 2280POPC   GL131681  36.812   7.339   9.061
 2280POPC   GL231682  37.121   7.326   9.172
 2280POPC   C1A31683  36.836   7.499   8.666
 2280POPC   D2A31684  36.837   7.564   8.241
 2280POPC   C3A31685  37.234   7.689   8.017
 2280POPC   C4A31686  36.989   7.609   7.687
 2280POPC   C1B31687  37.247   7.199   8.783
 2280POPC   C2B31688  37.301   7.364   8.383
 2280POPC   C3B31689  37.115   7.198   7.995
 2280POPC   C4B31690  37.163   7.148   7.564
 2281POPC   NC331691   4.696  37.996   9.461
 2281POPC   PO431692   4.677  37.296   9.487
 2281POPC   GL131693   4.891  37.572   9.190
 2281POPC   GL231694   5.239  37.713   9.229
 2281POPC   C1A31695   5.081  37.505   8.789
 2281POPC   D2A31696   5.298  37.507   8.417
 2281POPC   C3A31697   5.053  37.386   8.094
 2281POPC   C4A31698   4.892  37.589   7.733
 2281POPC   C1B31699   5.283  37.977   8.838
 2281POPC   C2B31700   5.115  38.007   8.426
 2281POPC   C3B31701   5.234  37.870   8.019
 2281POPC   C4B31702   5.202  38.004   7.567
 2282POPC   NC331703  22.040  39.588   9.420
 2282POPC   PO431704  22.208  38.896   9.622
 2282POPC   GL131705  22.232  39.144   9.248
 2282POPC   GL231706  21.882  39.114   9.232
 2282POPC   C1A31707  22.208  39.336   8.827
 2282POPC   D2A31708  22.434  39.494   8.438
 2282POPC   C3A31709  22.413  39.287   8.011
 2282POPC   C4A31710  22.469  39.401   7.559
 2282POPC   C1B31711  21.751  39.050   8.818
 2282POPC   C2B31712  21.810  39.346   8.474
 2282POPC   C3B31713  22.015  39.578   8.147
 2282POPC   C4B31714  21.902  39.325   7.805
 2283POPC   NC331715  31.631  14.853   9.367
 2283POPC   PO431716  31.233  15.401   9.546
 2283POPC   GL131717  31.333  15.218   9.145
 2283POPC   GL231718  31.666  15.339   9.156
 2283POPC   C1A31719  31.411  15.144   8.696
 2283POPC   D2A31720  31.376  15.415   8.322
 2283POPC   C3A31721  31.310  15.288   7.913
 2283POPC   C4A31722  31.103  14.967   7.772
 2283POPC   C1B31723  31.725  15.546   8.758
 2283POPC   C2B31724  31.858  15.511   8.328
 2283POPC   C3B31725  31.796  15.467   7.910
 2283POPC   C4B31726  31.762  15.065   7.737
 2284POPC   NC331727  10.101   8.872   9.540
 2284POPC   PO431728  10.709   8.738   9.779
 2284POPC   GL131729  10.747   8.934   9.307
 2284POPC   GL231730  10.413   9.088   9.198
 2284POPC   C1A31731  10.753   9.102   8.838
 2284POPC   D2A31732  10.537   8.999   8.431
 2284POPC   C3A31733  10.545   9.027   7.972
 2284POPC   C4A31734  10.134   9.147   7.844
 2284POPC   C1B31735  10.417   8.702   8.934
 2284POPC   C2B31736  10.350   8.524   8.519
 2284POPC   C3B31737  10.191   8.629   8.121
 2284POPC   C4B31738  10.432   8.535   7.765
 2285POPC   NC331739  38.598  28.517   9.475
 2285POPC   PO431740  38.599  27.862   9.337
 2285POPC   GL131741  38.668  28.196   9.078
 2285POPC   GL231742  38.301  28.202   9.002
 2285POPC   C1A31743  38.661  28.198   8.648
 2285POPC   D2A31744  38.318  27.957   8.500
 2285POPC   C3A31745  38.280  28.125   8.117
 2285POPC   C4A31746  38.656  28.306   7.918
 2285POPC   C1B31747  38.312  28.593   8.751
 2285POPC   C2B31748  38.444  28.580   8.316
 2285POPC   C3B31749  38.244  28.610   7.914
 2285POPC   C4B31750  38.496  28.649   7.553
 2286POPC   NC331751   8.266   2.976   9.532
 2286POPC   PO431752   7.952   2.385   9.393
 2286POPC   GL131753   8.214   2.592   9.098
 2286POPC   GL231754   8.166   2.965   9.037
 2286POPC   C1A31755   8.139   2.618   8.666
 2286POPC   D2A31756   8.360   2.508   8.329
 2286POPC   C3A31757   8.095   2.556   7.999
 2286POPC   C4A31758   8.125   2.854   7.721
 2286POPC   C1B31759   8.211   3.123   8.611
 2286POPC   C2B31760   8.169   3.067   8.188
 2286POPC   C3B31761   8.163   3.363   7.838
 2286POPC   C4B31762   8.131   3.268   7.392
 2287POPC   NC331763  35.726  44.354   9.295
 2287POPC   PO431764  36.258  44.686   9.401
 2287POPC   GL131765  36.243  44.775   8.987
 2287POPC   GL231766  36.584  44.756   9.006
 2287POPC   C1A31767  36.100  44.579   8.573
 2287POPC   D2A31768  36.004  44.344   8.160
 2287POPC   C3A31769  35.829  44.677   7.892
 2287POPC   C4A31770  35.859   0.123   7.998
 2287POPC   C1B31771  36.430  44.313   8.863
 2287POPC   C2B31772  36.446  44.241   8.411
 2287POPC   C3B31773  36.476  44.484   8.035
 2287POPC   C4B31774  36.254  44.529   7.636
 2288POPC   NC331775  42.782  10.647   9.407
 2288POPC   PO431776  43.316  10.299   9.616
 2288POPC   GL131777  43.184  10.303   9.131
 2288POPC   GL231778  42.856  10.379   8.994
 2288POPC   C1A31779  43.188  10.297   8.639
 2288POPC   D2A31780  43.029  10.557   8.303
 2288POPC   C3A31781  43.189  10.514   7.913
 2288POPC   C4A31782  43.480  10.859   7.978
 2288POPC   C1B31783  42.711  10.721   8.670
 2288POPC   C2B31784  42.613  10.899   8.272
 2288POPC   C3B31785  42.826  10.881   7.852
 2288POPC   C4B31786  42.711  11.012   7.426
 2289POPC   NC331787  14.529   9.937   9.719
 2289POPC   PO431788  14.638  10.603   9.638
 2289POPC   GL131789  14.655  10.616   9.179
 2289POPC   GL231790  14.287  10.556   9.202
 2289POPC   C1A31791  14.435  10.819   8.801
 2289POPC   D2A31792  14.204  10.590   8.467
 2289POPC   C3A31793  14.401  10.677   8.105
 2289POPC   C4A31794  14.329  10.552   7.681
 2289POPC   C1B31795  14.401  10.272   8.864
 2289POPC   C2B31796  14.279  10.047   8.491
 2289POPC   C3B31797  14.313  10.164   8.071
 2289POPC   C4B31798  14.367  10.047   7.657
 2290POPC   NC331799  22.217  44.655   9.613
 2290POPC   PO431800  21.840  44.259   9.280
 2290POPC   GL131801  21.942  44.564   9.044
 2290POPC   GL231802  22.281  44.622   9.089
 2290POPC   C1A31803  21.971  44.458   8.625
 2290POPC   D2A31804  22.340  44.469   8.352
 2290POPC   C3A31805  22.231  44.501   7.936
 2290POPC   C4A31806  22.284  44.482   7.488
 2290POPC   C1B31807  22.328  44.862   8.689
 2290POPC   C2B31808  22.372  44.997   8.230
 2290POPC   C3B31809  22.589  44.848   7.842
 2290POPC   C4B31810  22.563  44.865   7.380
 2291POPC   NC331811   8.072  29.557   9.398
 2291POPC   PO431812   8.410  30.076   9.573
 2291POPC   GL131813   8.330  30.180   9.111
 2291POPC   GL231814   8.012  30.073   9.036
 2291POPC   C1A31815   8.315  30.051   8.638
 2291POPC   D2A31816   8.289  29.673   8.359
 2291POPC   C3A31817   8.248  29.784   7.922
 2291POPC   C4A31818   8.499  30.034   7.634
 2291POPC   C1B31819   7.901  29.734   8.740
 2291POPC   C2B31820   7.804  29.795   8.328
 2291POPC   C3B31821   7.731  29.863   7.927
 2291POPC   C4B31822   7.797  30.234   7.735
 2292POPC   NC331823   1.878  40.422   9.599
 2292POPC   PO431824   2.132  41.049   9.499
 2292POPC   GL131825   1.916  40.975   9.130
 2292POPC   GL231826   1.690  40.700   9.135
 2292POPC   C1A31827   2.082  40.827   8.747
 2292POPC   D2A31828   2.231  41.032   8.386
 2292POPC   C3A31829   1.971  40.912   8.025
 2292POPC   C4A31830   2.108  40.557   7.814
 2292POPC   C1B31831   1.698  40.473   8.740
 2292POPC   C2B31832   1.818  40.500   8.316
 2292POPC   C3B31833   1.718  40.274   7.956
 2292POPC   C4B31834   1.657  40.443   7.534
 2293POPC   NC331835   0.923  13.582   9.385
 2293POPC   PO431836   1.374  13.990   9.495
 2293POPC   GL131837   1.271  13.888   9.068
 2293POPC   GL231838   1.288  13.517   9.029
 2293POPC   C1A31839   1.251  13.848   8.615
 2293POPC   D2A31840   1.230  14.022   8.216
 2293POPC   C3A31841   1.052  13.792   7.834
 2293POPC   C4A31842   1.322  13.830   7.439
 2293POPC   C1B31843   1.153  13.370   8.604
 2293POPC   C2B31844   1.037  13.496   8.248
 2293POPC   C3B31845   1.223  13.296   7.923
 2293POPC   C4B31846   1.187  13.361   7.545
 2294POPC   NC331847  44.588  43.706   9.326
 2294POPC   PO431848  44.934  44.262   9.579
 2294POPC   GL131849  44.751  44.151   9.168
 2294POPC   GL231850  44.349  44.165   9.153
 2294POPC   C1A31851  44.834  43.908   8.757
 2294POPC   D2A31852   0.108  43.812   8.416
 2294POPC   C3A31853  44.878  43.939   8.087
 2294POPC   C4A31854  44.744  44.008   7.703
 2294POPC   C1B31855  44.290  43.989   8.762
 2294POPC   C2B31856  44.459  44.032   8.383
 2294POPC   C3B31857  44.320  44.025   7.997
 2294POPC   C4B31858  44.313  43.750   7.689
 2295POPC   NC331859  16.195   9.956   9.591
 2295POPC   PO431860  15.808   9.466   9.378
 2295POPC   GL131861  15.731   9.817   9.113
 2295POPC   GL231862  16.093   9.865   9.081
 2295POPC   C1A31863  15.791   9.918   8.674
 2295POPC   D2A31864  15.999   9.874   8.291
 2295POPC   C3A31865  15.689   9.967   7.987
 2295POPC   C4A31866  15.759   9.825   7.582
 2295POPC   C1B31867  16.182   9.596   8.712
 2295POPC   C2B31868  16.195   9.410   8.281
 2295POPC   C3B31869  16.143   9.555   7.838
 2295POPC   C4B31870  16.364   9.336   7.442
 2296POPC   NC331871  40.333  21.127   9.191
 2296POPC   PO431872  40.149  20.591   9.574
 2296POPC   GL131873  40.136  20.659   9.147
 2296POPC   GL231874  39.851  20.536   9.025
 2296POPC   C1A31875  40.174  20.753   8.679
 2296POPC   D2A31876  39.998  20.649   8.293
 2296POPC   C3A31877  40.162  20.813   7.950
 2296POPC   C4A31878  40.041  20.544   7.654
 2296POPC   C1B31879  39.652  20.723   8.670
 2296POPC   C2B31880  39.432  20.577   8.309
 2296POPC   C3B31881  39.620  20.454   7.940
 2296POPC   C4B31882  39.522  20.214   7.601
 2297POPC   NC331883   3.081   0.129   9.529
 2297POPC   PO431884   3.240   0.833   9.483
 2297POPC   GL131885   2.986   0.588   9.161
 2297POPC   GL231886   2.768   0.257   9.164
 2297POPC   C1A31887   2.821   0.520   8.732
 2297POPC   D2A31888   2.953   0.383   8.302
 2297POPC   C3A31889   2.727   0.607   7.971
 2297POPC   C4A31890   2.877   0.789   7.597
 2297POPC   C1B31891   2.924   0.025   8.784
 2297POPC   C2B31892   3.178  44.924   8.435
 2297POPC   C3B31893   3.062  44.961   8.013
 2297POPC   C4B31894   3.033   0.295   7.737
 2298POPC   NC331895   4.856  33.948   9.604
 2298POPC   PO431896   5.005  33.458   9.243
 2298POPC   GL131897   4.995  33.839   9.100
 2298POPC   GL231898   5.302  33.963   8.959
 2298POPC   C1A31899   4.829  33.989   8.738
 2298POPC   D2A31900   5.071  34.069   8.326
 2298POPC   C3A31901   4.970  33.910   7.913
 2298POPC   C4A31902   5.032  33.667   7.527
 2298POPC   C1B31903   5.466  34.228   8.647
 2298POPC   C2B31904   5.604  34.104   8.226
 2298POPC   C3B31905   5.504  33.847   7.888
 2298POPC   C4B31906   5.398  34.042   7.522
 2299POPC   NC331907  17.231   7.970   9.497
 2299POPC   PO431908  17.655   8.486   9.432
 2299POPC   GL131909  17.425   8.296   9.129
 2299POPC   GL231910  17.577   7.974   9.126
 2299POPC   C1A31911  17.353   8.200   8.701
 2299POPC   D2A31912  17.504   8.423   8.349
 2299POPC   C3A31913  17.338   8.234   8.021
 2299POPC   C4A31914  17.284   8.352   7.615
 2299POPC   C1B31915  17.793   7.947   8.750
 2299POPC   C2B31916  17.834   8.017   8.293
 2299POPC   C3B31917  17.751   8.001   7.837
 2299POPC   C4B31918  17.859   7.786   7.460
 2300POPC   NC331919   4.521   2.345   9.255
 2300POPC   PO431920   4.051   1.929   9.576
 2300POPC   GL131921   4.258   1.911   9.175
 2300POPC   GL231922   4.581   1.822   9.254
 2300POPC   C1A31923   4.276   2.006   8.738
 2300POPC   D2A31924   4.341   2.144   8.333
 2300POPC   C3A31925   4.193   1.917   7.985
 2300POPC   C4A31926   4.209   2.003   7.550
 2300POPC   C1B31927   4.650   1.646   8.852
 2300POPC   C2B31928   4.724   1.812   8.423
 2300POPC   C3B31929   4.694   1.736   7.981
 2300POPC   C4B31930   4.382   1.544   7.701
 2301POPC   NC331931  34.700  25.224   9.506
 2301POPC   PO431932  34.099  25.386   9.469
 2301POPC   GL131933  34.373  25.259   9.088
 2301POPC   GL231934  34.710  25.378   9.015
 2301POPC   C1A31935  34.391  25.117   8.636
 2301POPC   D2A31936  34.619  24.899   8.283
 2301POPC   C3A31937  34.534  25.128   7.902
 2301POPC   C4A31938  34.350  25.549   7.815
 2301POPC   C1B31939  34.844  25.385   8.585
 2301POPC   C2B31940  34.944  25.334   8.143
 2301POPC   C3B31941  34.873  25.542   7.743
 2301POPC   C4B31942  35.066  25.523   7.328
 2302POPC   NC331943   6.599   5.710   9.476
 2302POPC   PO431944   6.165   6.172   9.532
 2302POPC   GL131945   6.388   6.035   9.148
 2302POPC   GL231946   6.407   5.646   9.016
 2302POPC   C1A31947   6.553   6.079   8.751
 2302POPC   D2A31948   6.428   5.894   8.375
 2302POPC   C3A31949   6.387   6.181   8.028
 2302POPC   C4A31950   6.656   5.998   7.752
 2302POPC   C1B31951   6.849   5.681   8.828
 2302POPC   C2B31952   6.947   5.905   8.410
 2302POPC   C3B31953   7.016   5.749   7.992
 2302POPC   C4B31954   7.041   5.772   7.513
 2303POPC   NC331955  35.347  17.905   9.536
 2303POPC   PO431956  35.375  17.217   9.404
 2303POPC   GL131957  35.329  17.559   9.137
 2303POPC   GL231958  35.654  17.756   9.141
 2303POPC   C1A31959  35.278  17.386   8.748
 2303POPC   D2A31960  35.260  17.519   8.358
 2303POPC   C3A31961  35.163  17.272   8.032
 2303POPC   C4A31962  35.468  17.292   7.756
 2303POPC   C1B31963  35.557  17.820   8.704
 2303POPC   C2B31964  35.732  17.806   8.305
 2303POPC   C3B31965  35.638  17.753   7.884
 2303POPC   C4B31966  35.530  17.699   7.437
 2304POPC   NC331967   6.800   9.152   9.614
 2304POPC   PO431968   6.443   8.688   9.359
 2304POPC   GL131969   6.695   8.844   9.089
 2304POPC   GL231970   6.841   9.168   9.120
 2304POPC   C1A31971   6.479   8.955   8.706
 2304POPC   D2A31972   6.576   8.730   8.336
 2304POPC   C3A31973   6.356   8.907   8.017
 2304POPC   C4A31974   6.441   9.143   7.692
 2304POPC   C1B31975   6.966   9.050   8.725
 2304POPC   C2B31976   6.808   9.178   8.374
 2304POPC   C3B31977   6.858   9.057   7.985
 2304POPC   C4B31978   6.918   9.320   7.664
 2305POPC   NC331979   8.488   0.780   9.522
 2305POPC   PO431980   9.115   0.466   9.450
 2305POPC   GL131981   8.865   0.345   9.127
 2305POPC   GL231982   8.601   0.578   9.079
 2305POPC   C1A31983   8.938   0.444   8.712
 2305POPC   D2A31984   9.306   0.493   8.472
 2305POPC   C3A31985   9.403   0.301   8.101
 2305POPC   C4A31986   9.513   0.449   7.762
 2305POPC   C1B31987   8.614   0.835   8.745
 2305POPC   C2B31988   8.706   0.695   8.343
 2305POPC   C3B31989   9.022   0.707   8.083
 2305POPC   C4B31990   9.024   0.454   7.758
 2306POPC   NC331991   4.112  36.316   9.434
 2306POPC   PO431992   4.519  35.900   9.732
 2306POPC   GL131993   4.410  35.952   9.246
 2306POPC   GL231994   4.494  36.321   9.103
 2306POPC   C1A31995   4.214  36.020   8.812
 2306POPC   D2A31996   4.301  36.281   8.439
 2306POPC   C3A31997   4.176  36.099   8.061
 2306POPC   C4A31998   4.487  35.831   7.849
 2306POPC   C1B31999   4.728  36.527   8.755
 2306POPC   C2B32000   4.675  36.622   8.304
 2306POPC   C3B32001   4.617  36.341   7.940
 2306POPC   C4B32002   4.591  36.312   7.477
 2307POPC   NC332003  19.373  27.440   9.321
 2307POPC   PO432004  18.804  27.666   9.447
 2307POPC   GL132005  18.885  27.560   9.095
 2307POPC   GL232006  19.148  27.846   9.055
 2307POPC   C1A32007  18.699  27.304   8.770
 2307POPC   D2A32008  18.827  27.312   8.325
 2307POPC   C3A32009  18.887  27.285   7.857
 2307POPC   C4A32010  19.260  27.396   7.617
 2307POPC   C1B32011  18.971  27.731   8.642
 2307POPC   C2B32012  18.794  27.830   8.267
 2307POPC   C3B32013  18.983  27.795   7.851
 2307POPC   C4B32014  18.977  27.810   7.392
 2308POPC   NC332015   6.076  26.408   9.579
 2308POPC   PO432016   5.827  25.710   9.519
 2308POPC   GL132017   5.725  25.988   9.178
 2308POPC   GL232018   5.996  26.224   9.113
 2308POPC   C1A32019   5.623  26.138   8.760
 2308POPC   D2A32020   5.869  26.243   8.415
 2308POPC   C3A32021   5.658  26.142   8.008
 2308POPC   C4A32022   5.520  26.259   7.550
 2308POPC   C1B32023   6.158  25.916   8.837
 2308POPC   C2B32024   6.372  25.955   8.446
 2308POPC   C3B32025   6.180  26.050   8.065
 2308POPC   C4B32026   6.012  26.075   7.655
 2309POPC   NC332027  24.474  27.747   9.563
 2309POPC   PO432028  24.064  27.190   9.666
 2309POPC   GL132029  24.407  27.363   9.241
 2309POPC   GL232030  24.445  27.708   9.078
 2309POPC   C1A32031  24.538  27.346   8.751
 2309POPC   D2A32032  24.861  27.428   8.389
 2309POPC   C3A32033  24.739  27.625   7.975
 2309POPC   C4A32034  24.440  27.379   7.765
 2309POPC   C1B32035  24.305  27.871   8.721
 2309POPC   C2B32036  24.389  27.707   8.324
 2309POPC   C3B32037  24.207  27.839   7.919
 2309POPC   C4B32038  24.269  27.745   7.453
 2310POPC   NC332039   2.115  17.632   9.387
 2310POPC   PO432040   1.677  17.170   9.425
 2310POPC   GL132041   1.837  17.345   9.070
 2310POPC   GL232042   2.168  17.177   9.120
 2310POPC   C1A32043   1.727  17.633   8.703
 2310POPC   D2A32044   1.735  17.774   8.255
 2310POPC   C3A32045   1.807  17.473   7.963
 2310POPC   C4A32046   1.894  17.458   7.521
 2310POPC   C1B32047   2.222  17.431   8.733
 2310POPC   C2B32048   2.229  17.648   8.329
 2310POPC   C3B32049   2.298  17.437   7.941
 2310POPC   C4B32050   2.390  17.392   7.557
 2311POPC   NC332051  44.551  27.816   9.207
 2311POPC   PO432052  44.993  27.558   9.641
 2311POPC   GL132053  44.968  27.490   9.179
 2311POPC   GL232054  44.640  27.305   9.202
 2311POPC   C1A32055  44.981  27.763   8.764
 2311POPC   D2A32056  44.590  27.943   8.548
 2311POPC   C3A32057  44.607  27.993   8.094
 2311POPC   C4A32058  44.305  27.900   7.790
 2311POPC   C1B32059  44.660  27.317   8.739
 2311POPC   C2B32060  44.519  27.468   8.328
 2311POPC   C3B32061  44.623  27.484   7.901
 2311POPC   C4B32062  44.788  27.333   7.483
 2312POPC   NC332063  13.283  17.831   9.555
 2312POPC   PO432064  13.807  17.328   9.476
 2312POPC   GL132065  13.878  17.438   9.070
 2312POPC   GL232066  13.605  17.650   9.069
 2312POPC   C1A32067  13.973  17.397   8.630
 2312POPC   D2A32068  13.994  17.068   8.293
 2312POPC   C3A32069  14.001  17.301   7.939
 2312POPC   C4A32070  13.690  17.351   7.663
 2312POPC   C1B32071  13.461  17.413   8.735
 2312POPC   C2B32072  13.583  17.375   8.302
 2312POPC   C3B32073  13.325  17.437   8.009
 2312POPC   C4B32074  13.169  17.134   7.795
 2313POPC   NC332075  39.850  13.238   9.573
 2313POPC   PO432076  40.260  13.767   9.463
 2313POPC   GL132077  40.087  13.601   9.141
 2313POPC   GL232078  39.958  13.959   9.071
 2313POPC   C1A32079  40.110  13.623   8.715
 2313POPC   D2A32080  39.937  13.755   8.373
 2313POPC   C3A32081  40.189  13.757   8.055
 2313POPC   C4A32082  40.113  13.602   7.702
 2313POPC   C1B32083  40.008  14.183   8.686
 2313POPC   C2B32084  40.039  14.223   8.246
 2313POPC   C3B32085  39.747  14.081   7.998
 2313POPC   C4B32086  39.752  13.938   7.628
 2314POPC   NC332087  41.635  11.894   9.467
 2314POPC   PO432088  41.192  12.453   9.551
 2314POPC   GL132089  41.430  12.320   9.189
 2314POPC   GL232090  41.798  12.354   9.187
 2314POPC   C1A32091  41.487  12.313   8.740
 2314POPC   D2A32092  41.318  12.215   8.348
 2314POPC   C3A32093  41.555  12.209   7.973
 2314POPC   C4A32094  41.356  12.025   7.638
 2314POPC   C1B32095  41.872  12.015   8.859
 2314POPC   C2B32096  41.757  11.960   8.416
 2314POPC   C3B32097  41.943  11.830   8.053
 2314POPC   C4B32098  41.836  11.888   7.647
 2315POPC   NC332099  31.643  33.175   9.366
 2315POPC   PO432100  31.005  33.049   9.634
 2315POPC   GL132101  31.161  33.002   9.206
 2315POPC   GL232102  31.461  32.784   9.114
 2315POPC   C1A32103  31.187  33.092   8.773
 2315POPC   D2A32104  31.318  33.085   8.366
 2315POPC   C3A32105  31.179  32.866   8.036
 2315POPC   C4A32106  31.353  32.781   7.614
 2315POPC   C1B32107  31.697  32.981   8.734
 2315POPC   C2B32108  31.799  33.214   8.352
 2315POPC   C3B32109  31.688  33.028   7.966
 2315POPC   C4B32110  31.928  33.214   7.711
 2316POPC   NC332111   9.580  12.303   9.397
 2316POPC   PO432112   9.435  11.581   9.355
 2316POPC   GL132113   9.387  11.912   9.085
 2316POPC   GL232114   9.719  11.967   8.927
 2316POPC   C1A32115   9.333  12.245   8.771
 2316POPC   D2A32116   9.547  12.168   8.401
 2316POPC   C3A32117   9.471  11.809   8.146
 2316POPC   C4A32118   9.719  11.735   7.798
 2316POPC   C1B32119  10.087  12.138   8.731
 2316POPC   C2B32120  10.334  12.068   8.402
 2316POPC   C3B32121  10.246  12.071   7.962
 2316POPC   C4B32122  10.257  12.399   7.709
 2317POPC   NC332123  43.965  11.634   9.606
 2317POPC   PO432124  43.563  11.197   9.514
 2317POPC   GL132125  43.705  11.515   9.161
 2317POPC   GL232126  44.072  11.510   9.133
 2317POPC   C1A32127  43.763  11.484   8.691
 2317POPC   D2A32128  43.717  11.145   8.394
 2317POPC   C3A32129  43.891  11.215   8.008
 2317POPC   C4A32130  43.672  11.208   7.662
 2317POPC   C1B32131  44.286  11.469   8.758
 2317POPC   C2B32132  44.237  11.401   8.337
 2317POPC   C3B32133  44.326  11.506   7.910
 2317POPC   C4B32134  44.155  11.276   7.552
 2318POPC   NC332135   1.582  38.997   9.548
 2318POPC   PO432136   2.112  39.386   9.549
 2318POPC   GL132137   1.894  39.250   9.195
 2318POPC   GL232138   2.210  39.161   9.081
 2318POPC   C1A32139   1.776  39.226   8.759
 2318POPC   D2A32140   1.823  39.086   8.319
 2318POPC   C3A32141   1.673  39.241   7.916
 2318POPC   C4A32142   1.975  39.243   7.581
 2318POPC   C1B32143   2.268  38.917   8.727
 2318POPC   C2B32144   2.291  38.862   8.284
 2318POPC   C3B32145   2.365  39.062   7.902
 2318POPC   C4B32146   2.544  38.807   7.594
 2319POPC   NC332147  42.175  39.324   9.503
 2319POPC   PO432148  42.608  38.779   9.642
 2319POPC   GL132149  42.465  38.975   9.211
 2319POPC   GL232150  42.462  39.363   9.100
 2319POPC   C1A32151  42.450  39.007   8.740
 2319POPC   D2A32152  42.556  39.263   8.352
 2319POPC   C3A32153  42.490  39.117   7.900
 2319POPC   C4A32154  42.420  39.325   7.469
 2319POPC   C1B32155  42.082  39.360   8.832
 2319POPC   C2B32156  42.062  39.178   8.412
 2319POPC   C3B32157  42.037  39.349   8.030
 2319POPC   C4B32158  41.923  39.475   7.647
 2320POPC   NC332159  28.979   0.686   9.623
 2320POPC   PO432160  29.468   0.183   9.471
 2320POPC   GL132161  29.097   0.138   9.248
 2320POPC   GL232162  29.073   0.482   9.153
 2320POPC   C1A32163  28.895   0.128   8.843
 2320POPC   D2A32164  29.089   0.167   8.436
 2320POPC   C3A32165  29.049   0.513   8.152
 2320POPC   C4A32166  29.093   0.239   7.818
 2320POPC   C1B32167  29.357   0.420   8.795
 2320POPC   C2B32168  29.512   0.563   8.395
 2320POPC   C3B32169  29.551   0.428   7.957
 2320POPC   C4B32170  29.426   0.486   7.526
 2321POPC   NC332171   5.128   6.980   9.561
 2321POPC   PO432172   4.714   7.527   9.546
 2321POPC   GL132173   4.928   7.627   9.188
 2321POPC   GL232174   4.974   7.265   9.165
 2321POPC   C1A32175   5.058   7.748   8.783
 2321POPC   D2A32176   5.103   7.588   8.409
 2321POPC   C3A32177   4.941   7.638   8.061
 2321POPC   C4A32178   5.053   7.921   7.790
 2321POPC   C1B32179   5.228   7.270   8.830
 2321POPC   C2B32180   5.237   7.098   8.467
 2321POPC   C3B32181   5.221   7.190   8.053
 2321POPC   C4B32182   5.396   7.551   7.846
 2322POPC   NC332183  32.038  16.263   9.327
 2322POPC   PO432184  32.074  16.899   9.571
 2322POPC   GL132185  32.297  16.871   9.202
 2322POPC   GL232186  32.524  16.578   9.236
 2322POPC   C1A32187  32.187  16.687   8.816
 2322POPC   D2A32188  32.009  16.559   8.428
 2322POPC   C3A32189  32.035  16.805   8.096
 2322POPC   C4A32190  31.871  16.804   7.688
 2322POPC   C1B32191  32.629  16.426   8.808
 2322POPC   C2B32192  32.526  16.598   8.404
 2322POPC   C3B32193  32.507  16.650   7.951
 2322POPC   C4B32194  32.322  16.651   7.534
 2323POPC   NC332195  42.239  24.737   9.505
 2323POPC   PO432196  42.777  24.432   9.346
 2323POPC   GL132197  42.506  24.581   9.093
 2323POPC   GL232198  42.200  24.431   9.077
 2323POPC   C1A32199  42.528  24.468   8.679
 2323POPC   D2A32200  42.439  24.439   8.260
 2323POPC   C3A32201  42.681  24.632   7.944
 2323POPC   C4A32202  42.486  24.480   7.581
 2323POPC   C1B32203  42.090  24.719   8.767
 2323POPC   C2B32204  41.955  24.634   8.346
 2323POPC   C3B32205  42.063  24.534   7.908
 2323POPC   C4B32206  42.013  24.636   7.466
 2324POPC   NC332207  12.526   5.592   9.456
 2324POPC   PO432208  12.824   6.217   9.402
 2324POPC   GL132209  13.072   5.956   9.121
 2324POPC   GL232210  12.930   5.633   9.143
 2324POPC   C1A32211  13.179   5.801   8.733
 2324POPC   D2A32212  12.945   5.677   8.391
 2324POPC   C3A32213  13.095   5.758   7.971
 2324POPC   C4A32214  12.885   5.709   7.573
 2324POPC   C1B32215  12.651   5.841   8.809
 2324POPC   C2B32216  12.558   6.090   8.435
 2324POPC   C3B32217  12.660   6.037   8.008
 2324POPC   C4B32218  12.446   6.001   7.621
 2325POPC   NC332219  13.027  27.087   9.487
 2325POPC   PO432220  12.732  26.471   9.469
 2325POPC   GL132221  12.789  26.784   9.141
 2325POPC   GL232222  12.561  27.079   9.065
 2325POPC   C1A32223  12.964  26.765   8.734
 2325POPC   D2A32224  13.049  26.477   8.408
 2325POPC   C3A32225  12.817  26.665   8.088
 2325POPC   C4A32226  12.726  26.557   7.679
 2325POPC   C1B32227  12.734  27.235   8.646
 2325POPC   C2B32228  13.132  27.160   8.412
 2325POPC   C3B32229  13.214  26.986   7.997
 2325POPC   C4B32230  12.876  27.049   7.722
 2326POPC   NC332231  44.621  27.833   9.710
 2326POPC   PO432232  44.304  28.476   9.633
 2326POPC   GL132233  44.532  28.358   9.226
 2326POPC   GL232234  44.286  28.568   9.110
 2326POPC   C1A32235  44.807  28.350   8.814
 2326POPC   D2A32236   0.026  28.188   8.420
 2326POPC   C3A32237  44.921  28.448   8.072
 2326POPC   C4A32238  44.770  28.331   7.691
 2326POPC   C1B32239  44.301  28.422   8.698
 2326POPC   C2B32240  44.202  28.283   8.293
 2326POPC   C3B32241  44.293  28.391   7.896
 2326POPC   C4B32242  44.208  28.588   7.540
 2327POPC   NC332243  42.299  11.474   9.689
 2327POPC   PO432244  42.091  12.083   9.507
 2327POPC   GL132245  42.408  12.072   9.201
 2327POPC   GL232246  42.748  12.239   9.184
 2327POPC   C1A32247  42.340  12.213   8.824
 2327POPC   D2A32248  42.263  11.983   8.463
 2327POPC   C3A32249  42.118  12.289   8.165
 2327POPC   C4A32250  42.243  12.166   7.768
 2327POPC   C1B32251  42.805  12.021   8.752
 2327POPC   C2B32252  42.747  11.756   8.394
 2327POPC   C3B32253  42.611  11.835   7.962
 2327POPC   C4B32254  42.617  11.970   7.489
 2328POPC   NC332255  22.311   2.535   9.337
 2328POPC   PO432256  21.895   2.040   9.378
 2328POPC   GL132257  22.117   1.899   9.078
 2328POPC   GL232258  22.504   1.934   9.130
 2328POPC   C1A32259  22.015   1.983   8.685
 2328POPC   D2A32260  22.070   2.400   8.518
 2328POPC   C3A32261  22.046   2.333   8.100
 2328POPC   C4A32262  21.962   1.935   7.891
 2328POPC   C1B32263  22.434   1.703   8.723
 2328POPC   C2B32264  22.310   1.810   8.300
 2328POPC   C3B32265  22.480   1.856   7.918
 2328POPC   C4B32266  22.409   2.215   7.768
 2329POPC   NC332267  31.745  32.407   9.492
 2329POPC   PO432268  31.067  32.397   9.636
 2329POPC   GL132269  31.336  32.173   9.238
 2329POPC   GL232270  31.690  32.120   9.077
 2329POPC   C1A32271  31.217  32.125   8.794
 2329POPC   D2A32272  31.394  32.201   8.375
 2329POPC   C3A32273  31.198  32.082   7.986
 2329POPC   C4A32274  31.202  31.747   7.755
 2329POPC   C1B32275  31.606  32.462   8.767
 2329POPC   C2B32276  31.656  32.651   8.320
 2329POPC   C3B32277  31.679  32.462   7.873
 2329POPC   C4B32278  31.761  32.436   7.380
 2330POPC   NC332279  11.129   8.714   9.603
 2330POPC   PO432280  11.187   9.342   9.451
 2330POPC   GL132281  11.218   9.086   9.077
 2330POPC   GL232282  11.189   8.704   9.084
 2330POPC   C1A32283  11.198   9.033   8.623
 2330POPC   D2A32284  11.021   9.044   8.208
 2330POPC   C3A32285  11.366   9.089   7.947
 2330POPC   C4A32286  11.551   8.861   7.671
 2330POPC   C1B32287  11.595   8.793   8.848
 2330POPC   C2B32288  11.612   8.837   8.382
 2330POPC   C3B32289  11.303   8.608   8.152
 2330POPC   C4B32290  11.088   8.571   7.766
 2331POPC   NC332291  37.092  34.116   9.571
 2331POPC   PO432292  37.045  33.405   9.577
 2331POPC   GL132293  36.849  33.583   9.171
 2331POPC   GL232294  36.862  33.974   9.139
 2331POPC   C1A32295  36.746  33.696   8.717
 2331POPC   D2A32296  36.548  33.564   8.326
 2331POPC   C3A32297  36.691  33.758   7.949
 2331POPC   C4A32298  36.989  33.758   7.600
 2331POPC   C1B32299  36.975  34.144   8.725
 2331POPC   C2B32300  37.039  33.924   8.331
 2331POPC   C3B32301  37.206  34.050   7.945
 2331POPC   C4B32302  37.265  34.153   7.447
 2332POPC   NC332303  18.275   5.434   9.288
 2332POPC   PO432304  18.591   5.956   9.689
 2332POPC   GL132305  18.339   5.943   9.228
 2332POPC   GL232306  18.014   5.861   9.154
 2332POPC   C1A32307  18.333   5.811   8.755
 2332POPC   D2A32308  18.546   5.641   8.407
 2332POPC   C3A32309  18.410   5.833   8.052
 2332POPC   C4A32310  18.414   5.717   7.643
 2332POPC   C1B32311  17.901   6.101   8.746
 2332POPC   C2B32312  17.986   5.989   8.292
 2332POPC   C3B32313  17.969   6.007   7.810
 2332POPC   C4B32314  18.014   5.994   7.334
 2333POPC   NC332315   4.807   6.383   9.771
 2333POPC   PO432316   5.453   6.636   9.550
 2333POPC   GL132317   5.272   6.654   9.130
 2333POPC   GL232318   4.933   6.555   9.198
 2333POPC   C1A32319   5.335   6.632   8.654
 2333POPC   D2A32320   5.399   6.715   8.187
 2333POPC   C3A32321   5.125   6.642   7.843
 2333POPC   C4A32322   4.824   6.294   7.724
 2333POPC   C1B32323   4.896   6.852   8.836
 2333POPC   C2B32324   4.861   6.748   8.381
 2333POPC   C3B32325   4.646   6.720   7.981
 2333POPC   C4B32326   4.869   7.044   7.689
 2334POPC   NC332327  33.604  11.802   9.447
 2334POPC   PO432328  34.023  12.246   9.639
 2334POPC   GL132329  33.709  12.246   9.253
 2334POPC   GL232330  33.706  11.908   8.986
 2334POPC   C1A32331  33.591  12.359   8.848
 2334POPC   D2A32332  33.902  12.359   8.523
 2334POPC   C3A32333  33.881  12.163   8.128
 2334POPC   C4A32334  34.059  12.391   7.804
 2334POPC   C1B32335  33.614  11.917   8.544
 2334POPC   C2B32336  33.378  12.118   8.263
 2334POPC   C3B32337  33.412  12.017   7.889
 2334POPC   C4B32338  33.696  12.004   7.654
 2335POPC   NC332339   4.225  29.362   9.668
 2335POPC   PO432340   4.341  28.697   9.445
 2335POPC   GL132341   4.526  28.798   9.083
 2335POPC   GL232342   4.437  29.161   9.101
 2335POPC   C1A32343   4.383  28.885   8.659
 2335POPC   D2A32344   4.186  28.790   8.264
 2335POPC   C3A32345   4.412  28.893   7.890
 2335POPC   C4A32346   4.704  29.221   7.801
 2335POPC   C1B32347   4.436  29.461   8.737
 2335POPC   C2B32348   4.124  29.721   8.503
 2335POPC   C3B32349   4.072  29.624   8.073
 2335POPC   C4B32350   4.211  29.376   7.729
 2336POPC   NC332351  34.205  42.868   9.483
 2336POPC   PO432352  33.552  43.067   9.676
 2336POPC   GL132353  33.770  43.249   9.317
 2336POPC   GL232354  33.846  42.947   9.121
 2336POPC   C1A32355  33.655  43.348   8.861
 2336POPC   D2A32356  33.748  43.017   8.545
 2336POPC   C3A32357  33.780  43.123   8.115
 2336POPC   C4A32358  33.601  43.050   7.726
 2336POPC   C1B32359  34.129  43.166   8.850
 2336POPC   C2B32360  34.187  43.280   8.408
 2336POPC   C3B32361  34.324  43.118   8.037
 2336POPC   C4B32362  34.071  43.246   7.708
 2337POPC   NC332363  22.897   1.738   9.483
 2337POPC   PO432364  22.764   2.388   9.441
 2337POPC   GL132365  22.989   2.127   9.105
 2337POPC   GL232366  23.129   1.772   9.047
 2337POPC   C1A32367  22.855   1.999   8.697
 2337POPC   D2A32368  22.834   1.832   8.301
 2337POPC   C3A32369  22.824   2.208   8.043
 2337POPC   C4A32370  22.898   2.312   7.589
 2337POPC   C1B32371  23.372   1.930   8.676
 2337POPC   C2B32372  23.344   1.808   8.207
 2337POPC   C3B32373  23.097   1.865   7.795
 2337POPC   C4B32374  23.151   1.919   7.337
 2338POPC   NC332375  14.753  34.222   9.401
 2338POPC   PO432376  15.481  34.238   9.488
 2338POPC   GL132377  15.205  34.453   9.140
 2338POPC   GL232378  15.193  34.853   9.114
 2338POPC   C1A32379  15.035  34.586   8.713
 2338POPC   D2A32380  14.903  34.418   8.332
 2338POPC   C3A32381  15.224  34.206   8.114
 2338POPC   C4A32382  15.347  34.350   7.679
 2338POPC   C1B32383  15.436  34.932   8.735
 2338POPC   C2B32384  15.396  35.000   8.288
 2338POPC   C3B32385  15.184  34.742   7.969
 2338POPC   C4B32386  15.158  34.806   7.497
 2339POPC   NC332387  26.489  27.271   9.200
 2339POPC   PO432388  26.357  27.830   9.549
 2339POPC   GL132389  26.649  27.777   9.150
 2339POPC   GL232390  26.963  27.646   9.054
 2339POPC   C1A32391  26.583  27.630   8.693
 2339POPC   D2A32392  26.523  27.499   8.260
 2339POPC   C3A32393  26.643  27.763   7.943
 2339POPC   C4A32394  27.064  27.894   7.870
 2339POPC   C1B32395  27.044  27.460   8.621
 2339POPC   C2B32396  27.034  27.455   8.167
 2339POPC   C3B32397  26.790  27.276   7.836
 2339POPC   C4B32398  26.844  27.282   7.388
 2340POPC   NC332399  23.435  38.118   9.540
 2340POPC   PO432400  23.692  38.840   9.546
 2340POPC   GL132401  23.781  38.627   9.154
 2340POPC   GL232402  23.545  38.351   9.116
 2340POPC   C1A32403  23.649  38.584   8.695
 2340POPC   D2A32404  23.502  38.469   8.273
 2340POPC   C3A32405  23.787  38.451   7.904
 2340POPC   C4A32406  23.823  38.756   7.547
 2340POPC   C1B32407  23.541  38.073   8.762
 2340POPC   C2B32408  23.635  37.960   8.333
 2340POPC   C3B32409  23.459  38.016   7.943
 2340POPC   C4B32410  23.474  38.211   7.537
 2341POPC   NC332411  28.614  35.754   9.787
 2341POPC   PO432412  28.017  35.489   9.486
 2341POPC   GL132413  28.199  35.307   9.116
 2341POPC   GL232414  28.563  35.189   9.098
 2341POPC   C1A32415  28.310  35.437   8.699
 2341POPC   D2A32416  28.214  35.737   8.386
 2341POPC   C3A32417  28.308  35.537   8.002
 2341POPC   C4A32418  28.039  35.302   7.734
 2341POPC   C1B32419  28.820  35.447   8.773
 2341POPC   C2B32420  28.741  35.701   8.432
 2341POPC   C3B32421  28.818  35.501   8.054
 2341POPC   C4B32422  28.655  35.247   7.755
 2342POPC   NC332423  44.099  24.784   9.570
 2342POPC   PO432424  43.658  24.218   9.462
 2342POPC   GL132425  43.825  24.368   9.122
 2342POPC   GL232426  43.846  24.641   9.107
 2342POPC   C1A32427  43.578  24.400   8.737
 2342POPC   D2A32428  43.570  24.131   8.375
 2342POPC   C3A32429  43.684  24.356   8.013
 2342POPC   C4A32430  43.439  24.383   7.653
 2342POPC   C1B32431  43.831  24.866   8.712
 2342POPC   C2B32432  43.881  24.993   8.289
 2342POPC   C3B32433  43.666  24.878   7.905
 2342POPC   C4B32434  43.862  24.647   7.557
 2343POPC   NC332435  27.455  34.156   9.501
 2343POPC   PO432436  27.621  34.880   9.533
 2343POPC   GL132437  27.703  34.762   9.131
 2343POPC   GL232438  27.769  34.414   9.095
 2343POPC   C1A32439  27.889  34.937   8.747
 2343POPC   D2A32440  28.011  34.865   8.319
 2343POPC   C3A32441  27.818  34.844   7.890
 2343POPC   C4A32442  27.857  34.920   7.430
 2343POPC   C1B32443  27.529  34.564   8.704
 2343POPC   C2B32444  27.600  34.537   8.279
 2343POPC   C3B32445  27.437  34.520   7.876
 2343POPC   C4B32446  27.775  34.408   7.567
 2344POPC   NC332447  36.340   9.071   9.626
 2344POPC   PO432448  36.997   8.958   9.719
 2344POPC   GL132449  36.810   9.045   9.290
 2344POPC   GL232450  36.844   8.759   9.051
 2344POPC   C1A32451  36.908   9.250   8.877
 2344POPC   D2A32452  36.739   9.318   8.447
 2344POPC   C3A32453  36.855   9.086   8.083
 2344POPC   C4A32454  37.019   9.297   7.712
 2344POPC   C1B32455  36.714   8.519   8.704
 2344POPC   C2B32456  36.817   8.425   8.315
 2344POPC   C3B32457  36.629   8.489   7.918
 2344POPC   C4B32458  36.765   8.811   7.641
 2345POPC   NC332459  14.091   2.913   9.466
 2345POPC   PO432460  13.474   2.756   9.599
 2345POPC   GL132461  13.503   2.921   9.183
 2345POPC   GL232462  13.728   3.210   9.193
 2345POPC   C1A32463  13.410   2.751   8.764
 2345POPC   D2A32464  13.482   2.634   8.340
 2345POPC   C3A32465  13.376   2.850   7.973
 2345POPC   C4A32466  13.549   2.785   7.561
 2345POPC   C1B32467  13.836   3.033   8.776
 2345POPC   C2B32468  13.748   3.067   8.321
 2345POPC   C3B32469  13.887   2.950   7.902
 2345POPC   C4B32470  13.880   3.153   7.499
 2346POPC   NC332471  26.322   8.436   9.594
 2346POPC   PO432472  27.000   8.212   9.519
 2346POPC   GL132473  26.806   8.329   9.183
 2346POPC   GL232474  27.077   8.428   9.044
 2346POPC   C1A32475  26.629   8.460   8.793
 2346POPC   D2A32476  26.417   8.363   8.409
 2346POPC   C3A32477  26.670   8.361   8.049
 2346POPC   C4A32478  26.583   8.290   7.641
 2346POPC   C1B32479  27.246   8.424   8.722
 2346POPC   C2B32480  27.025   8.452   8.408
 2346POPC   C3B32481  27.253   8.415   8.073
 2346POPC   C4B32482  27.078   8.391   7.698
 2347POPC   NC332483  20.175  24.710   9.395
 2347POPC   PO432484  20.836  24.551   9.388
 2347POPC   GL132485  20.571  24.597   9.070
 2347POPC   GL232486  20.775  24.366   8.878
 2347POPC   C1A32487  20.298  24.496   8.739
 2347POPC   D2A32488  20.511  24.544   8.341
 2347POPC   C3A32489  20.278  24.449   7.949
 2347POPC   C4A32490  20.289  24.549   7.505
 2347POPC   C1B32491  20.989  24.740   8.744
 2347POPC   C2B32492  21.134  24.709   8.341
 2347POPC   C3B32493  20.952  24.378   8.091
 2347POPC   C4B32494  20.732  24.314   7.694
 2348POPC   NC332495  13.541  31.913   9.517
 2348POPC   PO432496  13.839  31.226   9.451
 2348POPC   GL132497  13.603  31.219   9.050
 2348POPC   GL232498  13.411  31.475   9.203
 2348POPC   C1A32499  13.590  31.274   8.569
 2348POPC   D2A32500  13.753  31.683   8.334
 2348POPC   C3A32501  13.630  31.641   7.928
 2348POPC   C4A32502  13.378  31.262   7.843
 2348POPC   C1B32503  13.359  31.665   8.804
 2348POPC   C2B32504  13.237  31.614   8.366
 2348POPC   C3B32505  13.071  31.727   7.969
 2348POPC   C4B32506  13.266  31.700   7.568
 2349POPC   NC332507   3.945  16.473   9.594
 2349POPC   PO432508   3.962  15.844   9.559
 2349POPC   GL132509   4.180  15.670   9.248
 2349POPC   GL232510   3.995  15.879   9.047
 2349POPC   C1A32511   4.466  15.781   8.903
 2349POPC   D2A32512   4.286  15.744   8.513
 2349POPC   C3A32513   4.513  15.790   8.153
 2349POPC   C4A32514   4.408  15.798   7.734
 2349POPC   C1B32515   4.151  16.200   8.766
 2349POPC   C2B32516   4.295  16.271   8.351
 2349POPC   C3B32517   4.156  16.188   7.940
 2349POPC   C4B32518   4.049  16.429   7.568
 2350POPC   NC332519  16.905   9.754   9.672
 2350POPC   PO432520  16.358   9.551   9.754
 2350POPC   GL132521  16.508   9.649   9.293
 2350POPC   GL232522  16.566  10.008   9.237
 2350POPC   C1A32523  16.673   9.557   8.854
 2350POPC   D2A32524  16.625   9.720   8.408
 2350POPC   C3A32525  16.641   9.607   7.960
 2350POPC   C4A32526  16.451   9.813   7.543
 2350POPC   C1B32527  16.623  10.090   8.791
 2350POPC   C2B32528  16.843  10.196   8.386
 2350POPC   C3B32529  17.042  10.020   8.052
 2350POPC   C4B32530  16.938   9.876   7.647
 2351POPC   NC332531  17.284   3.242   9.538
 2351POPC   PO432532  17.726   3.755   9.551
 2351POPC   GL132533  17.732   3.561   9.170
 2351POPC   GL232534  17.385   3.599   9.145
 2351POPC   C1A32535  17.751   3.777   8.753
 2351POPC   D2A32536  17.602   3.629   8.368
 2351POPC   C3A32537  17.775   3.358   8.102
 2351POPC   C4A32538  17.784   3.525   7.713
 2351POPC   C1B32539  17.462   3.349   8.760
 2351POPC   C2B32540  17.220   3.304   8.397
 2351POPC   C3B32541  17.289   3.240   7.960
 2351POPC   C4B32542  17.497   3.119   7.578
 2352POPC   NC332543  26.252  29.647   9.709
 2352POPC   PO432544  26.018  30.255   9.674
 2352POPC   GL132545  26.077  29.964   9.324
 2352POPC   GL232546  26.231  30.246   9.173
 2352POPC   C1A32547  26.057  29.854   8.877
 2352POPC   D2A32548  25.761  29.849   8.510
 2352POPC   C3A32549  26.030  29.785   8.156
 2352POPC   C4A32550  25.976  29.935   7.762
 2352POPC   C1B32551  26.280  30.292   8.743
 2352POPC   C2B32552  26.043  30.261   8.354
 2352POPC   C3B32553  26.096  30.408   7.919
 2352POPC   C4B32554  26.183  30.272   7.441
 2353POPC   NC332555   2.008   3.276   9.293
 2353POPC   PO432556   1.887   2.736   9.666
 2353POPC   GL132557   1.870   2.683   9.228
 2353POPC   GL232558   1.623   2.432   9.092
 2353POPC   C1A32559   1.953   2.670   8.784
 2353POPC   D2A32560   2.017   2.996   8.491
 2353POPC   C3A32561   2.028   2.875   8.082
 2353POPC   C4A32562   1.845   3.085   7.762
 2353POPC   C1B32563   1.655   2.171   8.747
 2353POPC   C2B32564   1.765   2.367   8.359
 2353POPC   C3B32565   1.549   2.621   8.050
 2353POPC   C4B32566   1.530   2.732   7.605
 2354POPC   NC332567   3.328  10.065   9.436
 2354POPC   PO432568   2.851   9.671   9.663
 2354POPC   GL132569   2.799   9.800   9.219
 2354POPC   GL232570   2.871   9.454   9.139
 2354POPC   C1A32571   2.846   9.895   8.748
 2354POPC   D2A32572   2.856   9.658   8.318
 2354POPC   C3A32573   2.965   9.809   7.885
 2354POPC   C4A32574   2.819   9.844   7.463
 2354POPC   C1B32575   2.657   9.423   8.782
 2354POPC   C2B32576   2.406   9.407   8.436
 2354POPC   C3B32577   2.368   9.584   8.039
 2354POPC   C4B32578   2.531   9.446   7.674
 2355POPC   NC332579  43.840   1.508   9.246
 2355POPC   PO432580  43.549   1.003   9.553
 2355POPC   GL132581  43.892   0.974   9.255
 2355POPC   GL232582  43.638   1.009   9.026
 2355POPC   C1A32583  44.073   1.070   8.809
 2355POPC   D2A32584  43.864   1.013   8.458
 2355POPC   C3A32585  43.973   1.134   8.049
 2355POPC   C4A32586  43.847   0.933   7.685
 2355POPC   C1B32587  43.502   1.297   8.710
 2355POPC   C2B32588  43.570   1.416   8.264
 2355POPC   C3B32589  43.540   1.316   7.818
 2355POPC   C4B32590  43.568   1.186   7.343
 2356POPC   NC332591  39.142   9.155   9.834
 2356POPC   PO432592  39.359   8.735   9.446
 2356POPC   GL132593  39.210   8.806   9.034
 2356POPC   GL232594  39.073   9.145   9.116
 2356POPC   C1A32595  39.063   8.891   8.616
 2356POPC   D2A32596  39.072   9.274   8.353
 2356POPC   C3A32597  39.028   9.146   7.938
 2356POPC   C4A32598  39.120   8.752   7.754
 2356POPC   C1B32599  39.387   9.251   8.789
 2356POPC   C2B32600  39.572   9.333   8.370
 2356POPC   C3B32601  39.459   9.433   7.962
 2356POPC   C4B32602  39.509   9.099   7.690
 2357POPC   NC332603   9.900  26.391   9.290
 2357POPC   PO432604   9.570  27.004   9.513
 2357POPC   GL132605   9.691  27.065   9.055
 2357POPC   GL232606   9.885  26.772   8.875
 2357POPC   C1A32607   9.628  27.058   8.563
 2357POPC   D2A32608   9.882  26.708   8.348
 2357POPC   C3A32609   9.883  26.724   7.891
 2357POPC   C4A32610   9.598  27.041   7.636
 2357POPC   C1B32611   9.463  26.656   8.835
 2357POPC   C2B32612   9.329  26.597   8.412
 2357POPC   C3B32613   9.400  26.762   8.039
 2357POPC   C4B32614   9.460  26.547   7.660
 2358POPC   NC332615  30.590  21.809   9.851
 2358POPC   PO432616  30.783  21.322   9.443
 2358POPC   GL132617  30.719  21.354   9.024
 2358POPC   GL232618  30.717  21.703   9.066
 2358POPC   C1A32619  30.903  21.462   8.618
 2358POPC   D2A32620  31.103  21.697   8.263
 2358POPC   C3A32621  30.969  21.575   7.839
 2358POPC   C4A32622  30.653  21.307   7.649
 2358POPC   C1B32623  30.453  21.662   8.699
 2358POPC   C2B32624  30.579  21.645   8.254
 2358POPC   C3B32625  30.467  21.740   7.852
 2358POPC   C4B32626  30.267  21.608   7.465
 2359POPC   NC332627  12.959  28.590   9.253
 2359POPC   PO432628  12.563  28.195   9.573
 2359POPC   GL132629  12.672  28.101   9.122
 2359POPC   GL232630  13.023  28.004   9.031
 2359POPC   C1A32631  12.528  28.274   8.710
 2359POPC   D2A32632  12.369  28.118   8.293
 2359POPC   C3A32633  12.488  28.339   7.898
 2359POPC   C4A32634  12.853  28.518   7.658
 2359POPC   C1B32635  13.037  28.317   8.670
 2359POPC   C2B32636  12.834  28.375   8.280
 2359POPC   C3B32637  12.928  28.094   7.945
 2359POPC   C4B32638  13.290  27.894   7.825
 2360POPC   NC332639  19.810  19.721   9.670
 2360POPC   PO432640  20.310  20.050   9.724
 2360POPC   GL132641  20.112  19.832   9.274
 2360POPC   GL232642  19.785  19.612   9.190
 2360POPC   C1A32643  20.018  19.892   8.809
 2360POPC   D2A32644  20.140  19.703   8.391
 2360POPC   C3A32645  19.890  19.915   8.067
 2360POPC   C4A32646  19.579  19.863   7.748
 2360POPC   C1B32647  19.729  19.469   8.790
 2360POPC   C2B32648  19.626  19.523   8.371
 2360POPC   C3B32649  19.788  19.411   7.978
 2360POPC   C4B32650  19.594  19.354   7.608
 2361POPC   NC332651  26.704  31.055   9.378
 2361POPC   PO432652  26.746  31.598   9.579
 2361POPC   GL132653  26.797  31.479   9.083
 2361POPC   GL232654  26.654  31.165   8.892
 2361POPC   C1A32655  26.874  31.532   8.611
 2361POPC   D2A32656  26.520  31.511   8.316
 2361POPC   C3A32657  26.563  31.587   7.867
 2361POPC   C4A32658  26.703  31.411   7.438
 2361POPC   C1B32659  27.057  31.053   8.668
 2361POPC   C2B32660  27.121  31.048   8.215
 2361POPC   C3B32661  26.833  31.163   7.893
 2361POPC   C4B32662  26.484  31.009   7.624
 2362POPC   NC332663  26.098  38.057   9.477
 2362POPC   PO432664  25.904  37.337   9.507
 2362POPC   GL132665  25.900  37.630   9.195
 2362POPC   GL232666  26.261  37.607   9.193
 2362POPC   C1A32667  26.009  37.896   8.839
 2362POPC   D2A32668  26.356  38.019   8.555
 2362POPC   C3A32669  26.159  37.977   8.171
 2362POPC   C4A32670  26.038  37.785   7.808
 2362POPC   C1B32671  26.270  37.453   8.751
 2362POPC   C2B32672  26.407  37.508   8.305
 2362POPC   C3B32673  26.305  37.341   7.881
 2362POPC   C4B32674  25.868  37.302   7.696
 2363POPC   NC332675  25.131   7.087   9.498
 2363POPC   PO432676  25.524   7.658   9.411
 2363POPC   GL132677  25.311   7.541   9.048
 2363POPC   GL232678  24.998   7.419   9.090
 2363POPC   C1A32679  25.415   7.296   8.734
 2363POPC   D2A32680  25.308   7.206   8.350
 2363POPC   C3A32681  25.382   7.551   8.148
 2363POPC   C4A32682  25.394   7.557   7.744
 2363POPC   C1B32683  24.938   7.108   8.774
 2363POPC   C2B32684  24.799   7.139   8.359
 2363POPC   C3B32685  24.962   7.263   7.964
 2363POPC   C4B32686  24.871   7.026   7.613
 2364POPC   NC332687   3.058   2.649   9.427
 2364POPC   PO432688   2.467   3.082   9.368
 2364POPC   GL132689   2.349   2.908   9.020
 2364POPC   GL232690   2.543   2.607   9.126
 2364POPC   C1A32691   2.475   3.129   8.644
 2364POPC   D2A32692   2.883   3.227   8.487
 2364POPC   C3A32693   2.932   3.061   8.073
 2364POPC   C4A32694   2.699   3.276   7.766
 2364POPC   C1B32695   2.807   2.774   8.803
 2364POPC   C2B32696   2.597   2.660   8.432
 2364POPC   C3B32697   2.656   2.562   8.011
 2364POPC   C4B32698   2.441   2.839   7.755
 2365POPC   NC332699  43.827  36.758   9.566
 2365POPC   PO432700  44.160  37.182   9.156
 2365POPC   GL132701  43.800  36.969   9.095
 2365POPC   GL232702  43.902  36.625   9.065
 2365POPC   C1A32703  43.655  36.906   8.711
 2365POPC   D2A32704  43.742  36.626   8.422
 2365POPC   C3A32705  43.737  36.846   8.068
 2365POPC   C4A32706  43.753  36.992   7.685
 2365POPC   C1B32707  44.154  36.764   8.697
 2365POPC   C2B32708  44.064  37.067   8.396
 2365POPC   C3B32709  44.221  36.979   7.985
 2365POPC   C4B32710  44.221  37.210   7.628
 2366POPC   NC332711  40.587   9.441   9.460
 2366POPC   PO432712  40.868   9.946   9.624
 2366POPC   GL132713  40.816   9.798   9.193
 2366POPC   GL232714  40.576  10.018   9.131
 2366POPC   C1A32715  40.724   9.673   8.775
 2366POPC   D2A32716  40.916   9.554   8.409
 2366POPC   C3A32717  40.761   9.642   8.002
 2366POPC   C4A32718  40.808   9.354   7.670
 2366POPC   C1B32719  40.709  10.182   8.755
 2366POPC   C2B32720  40.658  10.035   8.373
 2366POPC   C3B32721  40.524  10.251   8.030
 2366POPC   C4B32722  40.685  10.046   7.687
 2367POPC   NC332723  36.603  43.062   9.589
 2367POPC   PO432724  37.228  43.253   9.482
 2367POPC   GL132725  36.934  43.030   9.138
 2367POPC   GL232726  36.552  42.945   9.059
 2367POPC   C1A32727  36.901  42.843   8.694
 2367POPC   D2A32728  36.928  42.632   8.286
 2367POPC   C3A32729  37.093  42.956   7.997
 2367POPC   C4A32730  37.203  43.337   7.733
 2367POPC   C1B32731  36.517  43.249   8.687
 2367POPC   C2B32732  36.686  43.250   8.229
 2367POPC   C3B32733  36.694  43.167   7.771
 2367POPC   C4B32734  36.558  42.888   7.409
 2368POPC   NC332735  12.445  19.156   9.544
 2368POPC   PO432736  11.884  18.725   9.552
 2368POPC   GL132737  11.852  18.974   9.174
 2368POPC   GL232738  12.080  19.225   9.213
 2368POPC   C1A32739  12.086  18.969   8.764
 2368POPC   D2A32740  12.371  19.128   8.410
 2368POPC   C3A32741  12.227  19.013   7.976
 2368POPC   C4A32742  11.824  18.851   7.884
 2368POPC   C1B32743  12.271  19.454   8.850
 2368POPC   C2B32744  12.054  19.651   8.486
 2368POPC   C3B32745  12.063  19.478   8.094
 2368POPC   C4B32746  12.399  19.554   7.833
 2369POPC   NC332747  27.067  37.635   9.502
 2369POPC   PO432748  26.566  38.068   9.375
 2369POPC   GL132749  26.750  37.740   9.109
 2369POPC   GL232750  27.096  37.750   9.016
 2369POPC   C1A32751  26.759  37.598   8.676
 2369POPC   D2A32752  26.855  37.804   8.295
 2369POPC   C3A32753  26.589  37.782   7.911
 2369POPC   C4A32754  26.481  37.950   7.507
 2369POPC   C1B32755  27.277  37.613   8.645
 2369POPC   C2B32756  27.250  37.389   8.270
 2369POPC   C3B32757  26.874  37.342   8.049
 2369POPC   C4B32758  26.767  37.394   7.631
 2370POPC   NC332759  25.802   6.347   9.539
 2370POPC   PO432760  26.181   6.913   9.296
 2370POPC   GL132761  26.295   6.662   9.009
 2370POPC   GL232762  26.105   6.347   9.104
 2370POPC   C1A32763  26.353   6.775   8.584
 2370POPC   D2A32764  26.146   6.723   8.190
 2370POPC   C3A32765  26.232   6.977   7.822
 2370POPC   C4A32766  26.167   6.899   7.375
 2370POPC   C1B32767  26.028   6.410   8.660
 2370POPC   C2B32768  26.146   6.203   8.312
 2370POPC   C3B32769  26.182   6.305   7.890
 2370POPC   C4B32770  26.033   6.405   7.507
 2371POPC   NC332771  17.276  18.477   9.362
 2371POPC   PO432772  17.524  17.822   9.534
 2371POPC   GL132773  17.490  18.026   9.135
 2371POPC   GL232774  17.654  18.326   9.002
 2371POPC   C1A32775  17.342  18.052   8.718
 2371POPC   D2A32776  17.212  18.190   8.317
 2371POPC   C3A32777  17.317  18.000   7.925
 2371POPC   C4A32778  17.289  18.367   7.763
 2371POPC   C1B32779  17.482  18.553   8.633
 2371POPC   C2B32780  17.494  18.607   8.157
 2371POPC   C3B32781  17.751  18.551   7.758
 2371POPC   C4B32782  17.893  18.563   7.303
 2372POPC   NC332783  19.016   0.137   9.352
 2372POPC   PO432784  18.652   0.662   9.552
 2372POPC   GL132785  18.838   0.595   9.140
 2372POPC   GL232786  19.219   0.524   9.116
 2372POPC   C1A32787  18.902   0.431   8.714
 2372POPC   D2A32788  18.786   0.552   8.306
 2372POPC   C3A32789  19.048   0.337   8.011
 2372POPC   C4A32790  19.020   0.105   7.617
 2372POPC   C1B32791  19.347   0.682   8.710
 2372POPC   C2B32792  19.322   0.912   8.327
 2372POPC   C3B32793  19.371   0.728   7.923
 2372POPC   C4B32794  19.125   0.605   7.572
 2373POPC   NC332795   1.694  25.105   9.328
 2373POPC   PO432796   1.071  25.247   9.579
 2373POPC   GL132797   1.109  25.171   9.163
 2373POPC   GL232798   1.262  25.482   9.113
 2373POPC   C1A32799   1.070  25.222   8.706
 2373POPC   D2A32800   1.172  25.103   8.290
 2373POPC   C3A32801   1.001  25.376   8.002
 2373POPC   C4A32802   1.172  25.196   7.667
 2373POPC   C1B32803   1.482  25.532   8.735
 2373POPC   C2B32804   1.323  25.594   8.343
 2373POPC   C3B32805   1.500  25.496   7.969
 2373POPC   C4B32806   1.647  25.402   7.582
 2374POPC   NC332807  31.327  12.367   9.331
 2374POPC   PO432808  31.679  11.804   9.489
 2374POPC   GL132809  31.685  12.037   9.135
 2374POPC   GL232810  31.949  11.857   9.043
 2374POPC   C1A32811  31.672  12.298   8.779
 2374POPC   D2A32812  31.490  12.326   8.386
 2374POPC   C3A32813  31.467  12.156   7.986
 2374POPC   C4A32814  31.385  12.312   7.607
 2374POPC   C1B32815  31.902  11.852   8.644
 2374POPC   C2B32816  31.709  11.849   8.306
 2374POPC   C3B32817  31.690  11.634   7.957
 2374POPC   C4B32818  31.667  11.849   7.611
 2375POPC   NC332819  22.643  11.755   9.523
 2375POPC   PO432820  23.153  11.341   9.510
 2375POPC   GL132821  22.866  11.403   9.195
 2375POPC   GL232822  22.998  11.067   9.114
 2375POPC   C1A32823  22.687  11.293   8.801
 2375POPC   D2A32824  22.686  11.074   8.423
 2375POPC   C3A32825  22.874  11.334   8.090
 2375POPC   C4A32826  22.743  11.246   7.683
 2375POPC   C1B32827  23.259  10.899   8.784
 2375POPC   C2B32828  23.186  11.071   8.409
 2375POPC   C3B32829  23.346  11.110   8.029
 2375POPC   C4B32830  23.259  10.914   7.638
 2376POPC   NC332831   1.050  34.758   9.850
 2376POPC   PO432832   1.017  35.484   9.613
 2376POPC   GL132833   0.965  35.440   9.160
 2376POPC   GL232834   0.689  35.606   9.050
 2376POPC   C1A32835   1.215  35.363   8.775
 2376POPC   D2A32836   1.374  35.085   8.427
 2376POPC   C3A32837   1.347  35.319   8.035
 2376POPC   C4A32838   1.604  35.301   7.675
 2376POPC   C1B32839   0.705  35.387   8.690
 2376POPC   C2B32840   0.905  35.275   8.300
 2376POPC   C3B32841   0.865  35.447   7.888
 2376POPC   C4B32842   0.790  35.876   7.786
 2377POPC   NC332843  22.122  28.713   9.427
 2377POPC   PO432844  22.771  28.505   9.508
 2377POPC   GL132845  22.470  28.298   9.190
 2377POPC   GL232846  22.389  28.591   9.015
 2377POPC   C1A32847  22.128  28.166   8.862
 2377POPC   D2A32848  21.840  28.446   8.557
 2377POPC   C3A32849  21.963  28.523   8.103
 2377POPC   C4A32850  21.904  28.239   7.742
 2377POPC   C1B32851  22.328  28.528   8.595
 2377POPC   C2B32852  22.333  28.210   8.298
 2377POPC   C3B32853  22.429  28.354   7.895
 2377POPC   C4B32854  22.353  28.796   7.900
 2378POPC   NC332855  32.241   7.774   9.534
 2378POPC   PO432856  32.766   7.288   9.458
 2378POPC   GL132857  32.581   7.617   9.151
 2378POPC   GL232858  32.182   7.614   9.079
 2378POPC   C1A32859  32.502   7.490   8.705
 2378POPC   D2A32860  32.254   7.534   8.323
 2378POPC   C3A32861  32.474   7.326   7.981
 2378POPC   C4A32862  32.664   7.334   7.591
 2378POPC   C1B32863  31.933   7.613   8.723
 2378POPC   C2B32864  31.852   7.234   8.472
 2378POPC   C3B32865  31.984   7.155   8.065
 2378POPC   C4B32866  32.027   7.496   7.789
 2379POPC   NC332867  18.169   3.795   9.480
 2379POPC   PO432868  18.602   3.289   9.433
 2379POPC   GL132869  18.224   3.349   9.162
 2379POPC   GL232870  18.215   3.701   8.996
 2379POPC   C1A32871  17.980   3.326   8.765
 2379POPC   D2A32872  18.121   3.629   8.418
 2379POPC   C3A32873  18.276   3.476   8.006
 2379POPC   C4A32874  18.227   3.264   7.591
 2379POPC   C1B32875  18.590   3.801   8.791
 2379POPC   C2B32876  18.563   3.923   8.380
 2379POPC   C3B32877  18.701   3.882   8.001
 2379POPC   C4B32878  18.567   3.705   7.658
 2380POPC   NC332879  26.542  32.001   9.613
 2380POPC   PO432880  26.728  32.654   9.542
 2380POPC   GL132881  26.779  32.339   9.225
 2380POPC   GL232882  27.051  32.078   9.273
 2380POPC   C1A32883  26.899  32.447   8.776
 2380POPC   D2A32884  26.824  32.637   8.349
 2380POPC   C3A32885  26.912  32.360   8.000
 2380POPC   C4A32886  26.634  32.106   7.810
 2380POPC   C1B32887  26.797  31.959   8.891
 2380POPC   C2B32888  26.837  32.022   8.423
 2380POPC   C3B32889  27.020  31.842   8.036
 2380POPC   C4B32890  26.986  31.791   7.596
 2381POPC   NC332891  15.782   8.348   9.634
 2381POPC   PO432892  15.987   7.660   9.533
 2381POPC   GL132893  15.993   7.975   9.183
 2381POPC   GL232894  15.957   8.338   9.175
 2381POPC   C1A32895  15.803   8.055   8.765
 2381POPC   D2A32896  15.666   8.129   8.345
 2381POPC   C3A32897  15.934   7.994   8.055
 2381POPC   C4A32898  15.975   8.166   7.683
 2381POPC   C1B32899  15.879   8.575   8.824
 2381POPC   C2B32900  16.023   8.485   8.436
 2381POPC   C3B32901  15.894   8.515   8.030
 2381POPC   C4B32902  16.197   8.647   7.710
 2382POPC   NC332903  38.112  21.928   9.595
 2382POPC   PO432904  38.607  22.375   9.658
 2382POPC   GL132905  38.397  22.419   9.153
 2382POPC   GL232906  38.352  22.057   9.086
 2382POPC   C1A32907  38.605  22.283   8.702
 2382POPC   D2A32908  38.522  21.992   8.375
 2382POPC   C3A32909  38.685  22.283   8.075
 2382POPC   C4A32910  38.745  22.246   7.645
 2382POPC   C1B32911  38.107  22.274   8.706
 2382POPC   C2B32912  38.126  22.339   8.231
 2382POPC   C3B32913  38.273  22.104   7.842
 2382POPC   C4B32914  38.306  22.191   7.378
 2383POPC   NC332915   1.783  26.036   9.462
 2383POPC   PO432916   2.425  25.740   9.549
 2383POPC   GL132917   2.323  25.939   9.138
 2383POPC   GL232918   2.091  26.217   9.123
 2383POPC   C1A32919   2.224  25.877   8.683
 2383POPC   D2A32920   1.859  25.705   8.407
 2383POPC   C3A32921   1.936  25.802   7.968
 2383POPC   C4A32922   2.288  25.973   7.709
 2383POPC   C1B32923   1.799  26.142   8.753
 2383POPC   C2B32924   1.923  26.218   8.308
 2383POPC   C3B32925   1.916  26.308   7.843
 2383POPC   C4B32926   2.019  26.313   7.374
 2384POPC   NC332927  34.867  13.264   9.336
 2384POPC   PO432928  35.459  13.604   9.443
 2384POPC   GL132929  35.411  13.755   9.081
 2384POPC   GL232930  35.065  13.663   9.075
 2384POPC   C1A32931  35.481  13.636   8.687
 2384POPC   D2A32932  35.341  13.861   8.324
 2384POPC   C3A32933  35.500  13.648   7.988
 2384POPC   C4A32934  35.781  13.831   7.720
 2384POPC   C1B32935  34.985  13.867   8.724
 2384POPC   C2B32936  34.831  13.912   8.323
 2384POPC   C3B32937  34.986  13.665   7.961
 2384POPC   C4B32938  35.174  13.428   7.612
 2385POPC   NC332939  30.924  43.835   9.417
 2385POPC   PO432940  31.414  43.629   9.849
 2385POPC   GL132941  31.449  43.646   9.373
 2385POPC   GL232942  31.418  43.962   9.234
 2385POPC   C1A32943  31.599  43.591   8.897
 2385POPC   D2A32944  31.474  43.681   8.418
 2385POPC   C3A32945  31.555  43.964   8.003
 2385POPC   C4A32946  31.602  44.027   7.516
 2385POPC   C1B32947  31.209  43.909   8.815
 2385POPC   C2B32948  31.243  44.126   8.417
 2385POPC   C3B32949  31.050  44.076   8.044
 2385POPC   C4B32950  31.106  44.029   7.620
 2386POPC   NC332951  43.771  23.337   9.458
 2386POPC   PO432952  43.931  22.668   9.560
 2386POPC   GL132953  43.917  22.720   9.144
 2386POPC   GL232954  44.057  23.022   9.184
 2386POPC   C1A32955  43.981  22.711   8.709
 2386POPC   D2A32956  43.880  22.623   8.290
 2386POPC   C3A32957  44.059  22.891   7.991
 2386POPC   C4A32958  44.328  23.072   7.712
 2386POPC   C1B32959  43.898  23.210   8.822
 2386POPC   C2B32960  43.992  23.218   8.397
 2386POPC   C3B32961  43.863  23.373   7.997
 2386POPC   C4B32962  43.460  23.342   7.805
 2387POPC   NC332963  11.805  23.172   9.319
 2387POPC   PO432964  11.222  23.042   9.478
 2387POPC   GL132965  11.359  22.975   9.099
 2387POPC   GL232966  11.564  22.683   9.174
 2387POPC   C1A32967  11.123  23.049   8.711
 2387POPC   D2A32968  10.863  22.855   8.396
 2387POPC   C3A32969  11.021  23.023   8.011
 2387POPC   C4A32970  11.345  23.177   7.744
 2387POPC   C1B32971  11.469  22.648   8.732
 2387POPC   C2B32972  11.401  22.801   8.321
 2387POPC   C3B32973  11.410  22.689   7.895
 2387POPC   C4B32974  11.433  22.744   7.468
 2388POPC   NC332975  19.330  19.009   9.560
 2388POPC   PO432976  18.807  19.432   9.669
 2388POPC   GL132977  19.173  19.388   9.273
 2388POPC   GL232978  19.069  19.016   9.131
 2388POPC   C1A32979  19.232  19.332   8.793
 2388POPC   D2A32980  18.880  19.128   8.554
 2388POPC   C3A32981  18.901  19.169   8.096
 2388POPC   C4A32982  18.784  19.510   7.801
 2388POPC   C1B32983  19.261  18.825   8.745
 2388POPC   C2B32984  19.370  19.069   8.344
 2388POPC   C3B32985  19.366  19.017   7.917
 2388POPC   C4B32986  19.037  18.740   7.820
 2389POPC   NC332987  23.956  18.340   9.487
 2389POPC   PO432988  23.344  18.644   9.383
 2389POPC   GL132989  23.379  18.485   9.036
 2389POPC   GL232990  23.622  18.239   9.118
 2389POPC   C1A32991  23.486  18.514   8.652
 2389POPC   D2A32992  23.331  18.351   8.311
 2389POPC   C3A32993  23.326  18.539   7.932
 2389POPC   C4A32994  23.661  18.543   7.716
 2389POPC   C1B32995  23.618  18.018   8.765
 2389POPC   C2B32996  23.507  17.881   8.384
 2389POPC   C3B32997  23.585  18.056   7.971
 2389POPC   C4B32998  23.375  18.114   7.579
 2390POPC   NC332999  26.965  32.863   9.894
 2390POPC   PO433000  26.588  33.281   9.554
 2390POPC   GL133001  26.756  33.125   9.177
 2390POPC   GL233002  26.938  33.431   9.062
 2390POPC   C1A33003  26.799  32.997   8.724
 2390POPC   D2A33004  26.852  33.153   8.261
 2390POPC   C3A33005  26.847  32.856   7.861
 2390POPC   C4A33006  26.751  32.721   7.407
 2390POPC   C1B33007  27.208  33.292   8.681
 2390POPC   C2B33008  27.342  33.393   8.262
 2390POPC   C3B33009  27.151  33.255   7.846
 2390POPC   C4B33010  27.098  33.475   7.432
 2391POPC   NC333011  33.558  16.215   9.412
 2391POPC   PO433012  34.219  15.777   9.444
 2391POPC   GL133013  34.136  15.991   9.075
 2391POPC   GL233014  33.805  15.941   9.085
 2391POPC   C1A33015  33.958  16.156   8.654
 2391POPC   D2A33016  33.603  16.126   8.324
 2391POPC   C3A33017  33.662  16.201   7.896
 2391POPC   C4A33018  33.934  15.931   7.685
 2391POPC   C1B33019  33.541  15.846   8.745
 2391POPC   C2B33020  33.537  15.590   8.430
 2391POPC   C3B33021  33.593  15.687   8.019
 2391POPC   C4B33022  33.525  15.611   7.598
 2392POPC   NC333023  13.926  12.104   9.590
 2392POPC   PO433024  13.300  12.241   9.338
 2392POPC   GL133025  13.539  12.175   9.016
 2392POPC   GL233026  13.749  11.929   9.110
 2392POPC   C1A33027  13.564  12.319   8.615
 2392POPC   D2A33028  13.762  12.202   8.258
 2392POPC   C3A33029  13.571  12.360   7.901
 2392POPC   C4A33030  13.627  12.159   7.519
 2392POPC   C1B33031  13.960  11.966   8.709
 2392POPC   C2B33032  14.113  11.799   8.294
 2392POPC   C3B33033  13.898  11.888   7.893
 2392POPC   C4B33034  13.664  11.656   7.582
 2393POPC   NC333035  35.073  42.370   9.482
 2393POPC   PO433036  35.766  42.313   9.650
 2393POPC   GL133037  35.576  42.435   9.218
 2393POPC   GL233038  35.502  42.149   9.156
 2393POPC   C1A33039  35.290  42.459   8.836
 2393POPC   D2A33040  35.216  42.112   8.572
 2393POPC   C3A33041  35.102  42.311   8.221
 2393POPC   C4A33042  35.197  42.412   7.824
 2393POPC   C1B33043  35.748  42.294   8.745
 2393POPC   C2B33044  35.627  42.219   8.277
 2393POPC   C3B33045  35.694  42.383   7.868
 2393POPC   C4B33046  35.829  42.308   7.444
 2394POPC   NC333047  25.540  44.551   9.437
 2394POPC   PO433048  24.904  44.736   9.382
 2394POPC   GL133049  25.214  44.627   9.025
 2394POPC   GL233050  25.019  44.368   8.779
 2394POPC   C1A33051  25.305  44.747   8.596
 2394POPC   D2A33052  24.967  44.641   8.305
 2394POPC   C3A33053  24.925  44.861   7.926
 2394POPC   C4A33054  25.331   0.018   7.804
 2394POPC   C1B33055  25.441  44.217   8.697
 2394POPC   C2B33056  25.659  44.425   8.403
 2394POPC   C3B33057  25.470  44.631   8.093
 2394POPC   C4B33058  25.190  44.472   7.767
 2395POPC   NC333059  27.362   2.378   9.376
 2395POPC   PO433060  27.962   2.658   9.460
 2395POPC   GL133061  27.688   2.672   9.050
 2395POPC   GL233062  27.409   2.936   8.991
 2395POPC   C1A33063  27.701   2.835   8.602
 2395POPC   D2A33064  27.374   2.923   8.290
 2395POPC   C3A33065  27.535   2.765   7.900
 2395POPC   C4A33066  27.587   2.919   7.471
 2395POPC   C1B33067  27.276   2.600   8.726
 2395POPC   C2B33068  27.019   2.555   8.348
 2395POPC   C3B33069  27.159   2.380   7.960
 2395POPC   C4B33070  27.210   2.579   7.564
 2396POPC   NC333071  35.773  11.469   9.406
 2396POPC   PO433072  36.362  11.889   9.365
 2396POPC   GL133073  36.310  11.487   9.176
 2396POPC   GL233074  36.006  11.438   8.956
 2396POPC   C1A33075  36.475  11.302   8.787
 2396POPC   D2A33076  36.145  11.312   8.474
 2396POPC   C3A33077  36.207  11.233   8.051
 2396POPC   C4A33078  35.845  11.067   7.894
 2396POPC   C1B33079  35.725  11.626   8.642
 2396POPC   C2B33080  35.627  11.605   8.200
 2396POPC   C3B33081  35.914  11.607   7.852
 2396POPC   C4B33082  35.917  11.707   7.434
 2397POPC   NC333083   5.488  29.734   9.726
 2397POPC   PO433084   4.867  29.545   9.502
 2397POPC   GL133085   5.025  29.792   9.171
 2397POPC   GL233086   5.297  30.046   9.217
 2397POPC   C1A33087   4.872  29.781   8.762
 2397POPC   D2A33088   4.834  29.937   8.361
 2397POPC   C3A33089   4.909  29.722   7.988
 2397POPC   C4A33090   5.147  29.896   7.650
 2397POPC   C1B33091   5.395  29.850   8.814
 2397POPC   C2B33092   5.263  29.672   8.411
 2397POPC   C3B33093   5.423  29.723   8.040
 2397POPC   C4B33094   5.561  29.489   7.711
 2398POPC   NC333095  42.358  38.620  10.023
 2398POPC   PO433096  42.511  38.252   9.473
 2398POPC   GL133097  42.472  38.454   9.101
 2398POPC   GL233098  42.391  38.141   8.989
 2398POPC   C1A33099  42.224  38.564   8.715
 2398POPC   D2A33100  42.373  38.768   8.296
 2398POPC   C3A33101  42.370  38.592   7.871
 2398POPC   C4A33102  42.315  38.179   7.692
 2398POPC   C1B33103  42.601  38.232   8.623
 2398POPC   C2B33104  42.602  38.294   8.220
 2398POPC   C3B33105  42.793  38.287   7.848
 2398POPC   C4B33106  42.745  38.347   7.418
 2399POPC   NC333107  38.429  18.245   9.795
 2399POPC   PO433108  38.300  17.957   9.215
 2399POPC   GL133109  38.487  18.203   8.994
 2399POPC   GL233110  38.507  18.516   9.139
 2399POPC   C1A33111  38.442  18.137   8.594
 2399POPC   D2A33112  38.609  18.247   8.254
 2399POPC   C3A33113  38.497  18.153   7.884
 2399POPC   C4A33114  38.795  17.971   7.677
 2399POPC   C1B33115  38.619  18.608   8.698
 2399POPC   C2B33116  38.932  18.598   8.384
 2399POPC   C3B33117  38.985  18.449   7.943
 2399POPC   C4B33118  38.748  18.478   7.551
 2400POPC   NC333119  28.550  33.198   9.489
 2400POPC   PO433120  27.919  32.865   9.464
 2400POPC   GL133121  28.298  32.887   9.158
 2400POPC   GL233122  28.510  33.184   8.999
 2400POPC   C1A33123  28.413  32.769   8.739
 2400POPC   D2A33124  28.156  32.763   8.399
 2400POPC   C3A33125  28.290  32.750   8.003
 2400POPC   C4A33126  28.575  32.716   7.726
 2400POPC   C1B33127  28.151  33.301   8.764
 2400POPC   C2B33128  28.265  33.272   8.341
 2400POPC   C3B33129  28.595  33.178   8.072
 2400POPC   C4B33130  28.369  33.187   7.697
 2401POPC   NC333131  10.232  41.003   9.339
 2401POPC   PO433132   9.649  40.780   9.677
 2401POPC   GL133133   9.800  40.602   9.247
 2401POPC   GL233134  10.145  40.480   9.231
 2401POPC   C1A33135   9.682  40.652   8.776
 2401POPC   D2A33136   9.523  40.899   8.400
 2401POPC   C3A33137   9.622  40.779   7.973
 2401POPC   C4A33138   9.647  40.939   7.558
 2401POPC   C1B33139  10.186  40.676   8.787
 2401POPC   C2B33140  10.045  41.060   8.503
 2401POPC   C3B33141  10.012  41.109   8.035
 2401POPC   C4B33142  10.091  40.766   7.728
 2402POPC   NC333143  25.945  28.076   9.469
 2402POPC   PO433144  26.135  28.579   9.728
 2402POPC   GL133145  26.158  28.451   9.194
 2402POPC   GL233146  25.856  28.357   9.047
 2402POPC   C1A33147  26.167  28.550   8.717
 2402POPC   D2A33148  26.412  28.386   8.364
 2402POPC   C3A33149  26.253  28.410   7.949
 2402POPC   C4A33150  25.905  28.513   7.652
 2402POPC   C1B33151  25.872  28.124   8.680
 2402POPC   C2B33152  25.870  28.266   8.263
 2402POPC   C3B33153  25.674  28.080   7.897
 2402POPC   C4B33154  25.720  28.040   7.462
 2403POPC   NC333155  31.893  14.677   9.905
 2403POPC   PO433156  31.478  14.429   9.451
 2403POPC   GL133157  31.685  14.394   9.088
 2403POPC   GL233158  31.691  14.045   8.994
 2403POPC   C1A33159  31.802  14.701   8.743
 2403POPC   D2A33160  31.771  15.007   8.371
 2403POPC   C3A33161  31.475  14.846   8.109
 2403POPC   C4A33162  31.429  14.591   7.745
 2403POPC   C1B33163  31.477  14.280   8.656
 2403POPC   C2B33164  31.479  14.333   8.224
 2403POPC   C3B33165  31.275  14.093   7.922
 2403POPC   C4B33166  31.092  14.249   7.555
 2404POPC   NC333167  17.015  28.084   9.284
 2404POPC   PO433168  17.504  28.438   9.520
 2404POPC   GL133169  17.292  28.543   9.166
 2404POPC   GL233170  17.366  28.250   8.978
 2404POPC   C1A33171  17.386  28.726   8.785
 2404POPC   D2A33172  17.556  28.885   8.413
 2404POPC   C3A33173  17.413  28.700   8.063
 2404POPC   C4A33174  17.476  28.339   7.811
 2404POPC   C1B33175  17.656  28.254   8.681
 2404POPC   C2B33176  17.696  28.285   8.272
 2404POPC   C3B33177  17.883  28.029   7.999
 2404POPC   C4B33178  17.666  27.870   7.675
 2405POPC   NC333179  22.700  15.669   9.489
 2405POPC   PO433180  23.322  15.893   9.587
 2405POPC   GL133181  23.102  15.744   9.207
 2405POPC   GL233182  22.976  16.055   9.076
 2405POPC   C1A33183  22.799  15.705   8.807
 2405POPC   D2A33184  22.898  15.965   8.458
 2405POPC   C3A33185  22.821  15.741   8.119
 2405POPC   C4A33186  22.821  15.855   7.708
 2405POPC   C1B33187  22.639  16.210   8.818
 2405POPC   C2B33188  22.631  16.428   8.426
 2405POPC   C3B33189  22.648  16.234   8.007
 2405POPC   C4B33190  22.653  16.334   7.542
 2406POPC   NC333191   3.829  44.900   9.722
 2406POPC   PO433192   3.201  44.676   9.669
 2406POPC   GL133193   3.444  44.633   9.322
 2406POPC   GL233194   3.527  44.935   9.299
 2406POPC   C1A33195   3.379  44.717   8.862
 2406POPC   D2A33196   3.516  44.527   8.478
 2406POPC   C3A33197   3.517  44.714   8.085
 2406POPC   C4A33198   3.483  44.486   7.709
 2406POPC   C1B33199   3.754   0.050   8.925
 2406POPC   C2B33200   3.794  44.970   8.482
 2406POPC   C3B33201   3.909   0.037   8.055
 2406POPC   C4B33202   3.742  44.932   7.667
 2407POPC   NC333203  18.688  22.759   9.660
 2407POPC   PO433204  19.195  23.131   9.799
 2407POPC   GL133205  19.010  23.030   9.342
 2407POPC   GL233206  19.035  22.670   9.254
 2407POPC   C1A33207  18.820  23.042   8.877
 2407POPC   D2A33208  18.752  22.822   8.458
 2407POPC   C3A33209  18.909  23.018   8.085
 2407POPC   C4A33210  18.888  23.317   7.769
 2407POPC   C1B33211  19.188  22.675   8.824
 2407POPC   C2B33212  19.265  22.827   8.408
 2407POPC   C3B33213  19.344  22.687   7.984
 2407POPC   C4B33214  19.273  22.912   7.580
 2408POPC   NC333215  14.752  38.456   9.522
 2408POPC   PO433216  15.362  38.552   9.599
 2408POPC   GL133217  15.178  38.343   9.209
 2408POPC   GL233218  14.859  38.248   9.066
 2408POPC   C1A33219  15.268  38.146   8.785
 2408POPC   D2A33220  15.012  38.100   8.401
 2408POPC   C3A33221  15.186  38.264   8.035
 2408POPC   C4A33222  15.252  38.681   7.902
 2408POPC   C1B33223  14.869  38.483   8.716
 2408POPC   C2B33224  14.654  38.538   8.333
 2408POPC   C3B33225  14.723  38.455   7.899
 2408POPC   C4B33226  14.909  38.597   7.531
 2409POPC   NC333227   3.685   5.885   9.480
 2409POPC   PO433228   3.054   5.556   9.489
 2409POPC   GL133229   3.343   5.624   9.190
 2409POPC   GL233230   3.211   5.930   9.095
 2409POPC   C1A33231   3.541   5.660   8.795
 2409POPC   D2A33232   3.588   5.922   8.452
 2409POPC   C3A33233   3.595   5.729   8.055
 2409POPC   C4A33234   3.619   5.948   7.639
 2409POPC   C1B33235   3.240   6.182   8.760
 2409POPC   C2B33236   3.100   6.203   8.358
 2409POPC   C3B33237   3.208   6.023   7.957
 2409POPC   C4B33238   3.123   5.922   7.527
 2410POPC   NC333239  28.270   6.964   9.672
 2410POPC   PO433240  28.733   6.447   9.625
 2410POPC   GL133241  28.444   6.504   9.238
 2410POPC   GL233242  28.307   6.846   9.168
 2410POPC   C1A33243  28.340   6.497   8.787
 2410POPC   D2A33244  28.197   6.752   8.450
 2410POPC   C3A33245  28.225   6.581   8.053
 2410POPC   C4A33246  28.428   6.501   7.666
 2410POPC   C1B33247  28.488   7.014   8.804
 2410POPC   C2B33248  28.680   6.973   8.425
 2410POPC   C3B33249  28.645   6.874   8.006
 2410POPC   C4B33250  28.276   6.992   7.748
 2411POPC   NC333251  31.325  41.335   9.496
 2411POPC   PO433252  31.673  41.930   9.351
 2411POPC   GL133253  31.551  41.625   9.042
 2411POPC   GL233254  31.250  41.434   9.026
 2411POPC   C1A33255  31.435  41.630   8.607
 2411POPC   D2A33256  31.659  41.475   8.268
 2411POPC   C3A33257  31.508  41.621   7.893
 2411POPC   C4A33258  31.501  41.442   7.497
 2411POPC   C1B33259  31.052  41.289   8.686
 2411POPC   C2B33260  31.154  41.337   8.261
 2411POPC   C3B33261  31.192  41.219   7.854
 2411POPC   C4B33262  30.845  41.327   7.645
 2412POPC   NC333263  15.571  12.185   9.834
 2412POPC   PO433264  15.143  11.869   9.505
 2412POPC   GL133265  14.992  11.767   9.054
 2412POPC   GL233266  15.253  11.564   8.990
 2412POPC   C1A33267  14.895  12.057   8.702
 2412POPC   D2A33268  15.221  12.270   8.445
 2412POPC   C3A33269  15.153  12.276   7.993
 2412POPC   C4A33270  14.916  11.965   7.792
 2412POPC   C1B33271  15.233  11.709   8.589
 2412POPC   C2B33272  15.275  11.815   8.190
 2412POPC   C3B33273  15.247  11.567   7.861
 2412POPC   C4B33274  15.071  11.577   7.457
 2413POPC   NC333275  26.548  41.964   9.440
 2413POPC   PO433276  26.790  41.307   9.426
 2413POPC   GL133277  26.929  41.403   9.063
 2413POPC   GL233278  26.908  41.759   9.089
 2413POPC   C1A33279  26.698  41.381   8.682
 2413POPC   D2A33280  26.835  41.540   8.287
 2413POPC   C3A33281  26.774  41.355   7.879
 2413POPC   C4A33282  26.437  41.105   7.779
 2413POPC   C1B33283  27.075  41.762   8.700
 2413POPC   C2B33284  27.313  41.872   8.370
 2413POPC   C3B33285  27.241  41.650   8.003
 2413POPC   C4B33286  27.240  41.219   8.046
 2414POPC   NC333287  28.091  34.921   9.608
 2414POPC   PO433288  28.563  34.557   9.624
 2414POPC   GL133289  28.265  34.464   9.270
 2414POPC   GL233290  28.226  34.783   9.116
 2414POPC   C1A33291  28.198  34.387   8.794
 2414POPC   D2A33292  28.372  34.518   8.375
 2414POPC   C3A33293  28.116  34.424   8.009
 2414POPC   C4A33294  28.243  34.192   7.647
 2414POPC   C1B33295  28.417  34.910   8.707
 2414POPC   C2B33296  28.463  35.118   8.296
 2414POPC   C3B33297  28.319  34.917   7.918
 2414POPC   C4B33298  28.481  34.630   7.641
 2415POPC   NC333299  40.496  22.648   9.483
 2415POPC   PO433300  40.670  23.296   9.495
 2415POPC   GL133301  40.747  23.228   9.105
 2415POPC   GL233302  40.745  22.866   9.081
 2415POPC   C1A33303  41.010  23.201   8.769
 2415POPC   D2A33304  40.883  22.975   8.432
 2415POPC   C3A33305  41.072  23.006   8.023
 2415POPC   C4A33306  40.768  23.150   7.762
 2415POPC   C1B33307  40.485  22.573   8.841
 2415POPC   C2B33308  40.540  22.415   8.458
 2415POPC   C3B33309  40.601  22.676   8.101
 2415POPC   C4B33310  40.555  22.685   7.679
 2416POPC   NC333311   2.184  32.572   9.290
 2416POPC   PO433312   2.085  31.992   9.484
 2416POPC   GL133313   1.880  32.068   9.094
 2416POPC   GL233314   1.736  32.405   9.076
 2416POPC   C1A33315   2.055  32.245   8.701
 2416POPC   D2A33316   2.062  32.083   8.288
 2416POPC   C3A33317   2.252  32.282   7.956
 2416POPC   C4A33318   2.329  32.491   7.589
 2416POPC   C1B33319   1.529  32.239   8.724
 2416POPC   C2B33320   1.686  32.401   8.373
 2416POPC   C3B33321   1.870  32.612   8.058
 2416POPC   C4B33322   1.832  32.392   7.692
 2417POPC   NC333323   7.434  34.860   9.459
 2417POPC   PO433324   7.729  34.309   9.524
 2417POPC   GL133325   7.618  34.422   9.138
 2417POPC   GL233326   7.300  34.495   9.086
 2417POPC   C1A33327   7.619  34.364   8.682
 2417POPC   D2A33328   7.316  34.351   8.337
 2417POPC   C3A33329   7.524  34.258   7.966
 2417POPC   C4A33330   7.290  34.345   7.642
 2417POPC   C1B33331   7.450  34.842   8.803
 2417POPC   C2B33332   7.362  34.849   8.380
 2417POPC   C3B33333   7.337  34.768   7.961
 2417POPC   C4B33334   6.966  35.017   7.879
 2418POPC   NC333335   9.338   3.444   9.459
 2418POPC   PO433336   9.940   3.738   9.680
 2418POPC   GL133337   9.737   3.720   9.224
 2418POPC   GL233338   9.597   3.382   9.040
 2418POPC   C1A33339   9.803   3.740   8.749
 2418POPC   D2A33340   9.903   3.482   8.394
 2418POPC   C3A33341   9.647   3.381   8.040
 2418POPC   C4A33342   9.724   3.584   7.649
 2418POPC   C1B33343   9.332   3.728   8.878
 2418POPC   C2B33344   9.306   3.900   8.468
 2418POPC   C3B33345   9.471   3.848   8.061
 2418POPC   C4B33346   9.243   3.693   7.666
 2419POPC   NC333347   4.481   1.598   9.687
 2419POPC   PO433348   4.024   1.059   9.777
 2419POPC   GL133349   4.383   1.127   9.428
 2419POPC   GL233350   4.263   1.410   9.266
 2419POPC   C1A33351   4.540   1.159   8.942
 2419POPC   D2A33352   4.312   1.106   8.553
 2419POPC   C3A33353   4.439   1.223   8.140
 2419POPC   C4A33354   4.292   1.035   7.767
 2419POPC   C1B33355   4.152   1.506   8.828
 2419POPC   C2B33356   3.886   1.390   8.432
 2419POPC   C3B33357   3.960   1.401   7.981
 2419POPC   C4B33358   3.862   1.612   7.586
 2420POPC   NC333359  37.956  37.314   9.623
 2420POPC   PO433360  38.574  37.603   9.591
 2420POPC   GL133361  38.526  37.620   9.145
 2420POPC   GL233362  38.387  37.934   9.073
 2420POPC   C1A33363  38.392  37.597   8.688
 2420POPC   D2A33364  38.528  37.592   8.245
 2420POPC   C3A33365  38.150  37.563   7.974
 2420POPC   C4A33366  37.843  37.285   7.845
 2420POPC   C1B33367  38.660  38.041   8.711
 2420POPC   C2B33368  38.638  38.112   8.256
 2420POPC   C3B33369  38.471  37.941   7.868
 2420POPC   C4B33370  38.620  37.511   7.719
 2421POPC   NC333371  37.625   5.548   9.469
 2421POPC   PO433372  37.692   4.947   9.451
 2421POPC   GL133373  37.751   5.213   9.085
 2421POPC   GL233374  37.943   4.968   8.941
 2421POPC   C1A33375  37.723   5.320   8.617
 2421POPC   D2A33376  37.644   5.120   8.191
 2421POPC   C3A33377  37.712   5.358   7.781
 2421POPC   C4A33378  37.441   5.543   7.430
 2421POPC   C1B33379  38.036   4.924   8.512
 2421POPC   C2B33380  37.903   4.656   8.193
 2421POPC   C3B33381  37.815   4.799   7.786
 2421POPC   C4B33382  38.095   5.045   7.521
 2422POPC   NC333383  29.532   8.136   9.489
 2422POPC   PO433384  28.820   8.236   9.504
 2422POPC   GL133385  29.013   8.015   9.191
 2422POPC   GL233386  29.221   8.248   9.100
 2422POPC   C1A33387  28.939   8.044   8.754
 2422POPC   D2A33388  29.052   8.358   8.453
 2422POPC   C3A33389  28.874   8.236   8.068
 2422POPC   C4A33390  29.173   8.080   7.774
 2422POPC   C1B33391  29.465   8.215   8.766
 2422POPC   C2B33392  29.562   8.466   8.428
 2422POPC   C3B33393  29.419   8.496   8.014
 2422POPC   C4B33394  29.642   8.399   7.630
 2423POPC   NC333395  34.245  19.073   9.566
 2423POPC   PO433396  34.850  18.995   9.390
 2423POPC   GL133397  34.552  19.110   9.127
 2423POPC   GL233398  34.318  18.849   9.117
 2423POPC   C1A33399  34.668  19.093   8.708
 2423POPC   D2A33400  34.456  19.078   8.332
 2423POPC   C3A33401  34.711  19.249   8.046
 2423POPC   C4A33402  34.690  19.149   7.618
 2423POPC   C1B33403  34.314  18.712   8.714
 2423POPC   C2B33404  34.471  18.584   8.326
 2423POPC   C3B33405  34.549  18.737   7.921
 2423POPC   C4B33406  34.656  18.637   7.497
 2424POPC   NC333407  30.417  37.119   9.353
 2424POPC   PO433408  30.855  36.604   9.293
 2424POPC   GL133409  30.898  36.914   9.005
 2424POPC   GL233410  30.709  37.223   8.894
 2424POPC   C1A33411  30.913  36.845   8.589
 2424POPC   D2A33412  30.702  37.049   8.282
 2424POPC   C3A33413  30.939  36.817   8.036
 2424POPC   C4A33414  31.062  36.846   7.660
 2424POPC   C1B33415  30.404  36.910   8.718
 2424POPC   C2B33416  30.232  36.706   8.336
 2424POPC   C3B33417  30.425  36.688   7.984
 2424POPC   C4B33418  30.558  37.031   7.755
 2425POPC   NC333419  38.779  23.713   9.469
 2425POPC   PO433420  38.241  23.234   9.421
 2425POPC   GL133421  38.373  23.618   9.152
 2425POPC   GL233422  38.480  24.001   9.097
 2425POPC   C1A33423  38.503  23.601   8.744
 2425POPC   D2A33424  38.284  23.311   8.476
 2425POPC   C3A33425  38.287  23.408   8.050
 2425POPC   C4A33426  38.151  23.472   7.645
 2425POPC   C1B33427  38.558  24.093   8.630
 2425POPC   C2B33428  38.739  23.850   8.300
 2425POPC   C3B33429  38.758  23.606   7.940
 2425POPC   C4B33430  38.480  23.856   7.739
 2426POPC   NC333431   6.861   0.288   9.362
 2426POPC   PO433432   6.877   0.971   9.431
 2426POPC   GL133433   6.671   0.733   9.098
 2426POPC   GL233434   6.370   0.848   9.016
 2426POPC   C1A33435   6.621   0.508   8.678
 2426POPC   D2A33436   6.726   0.138   8.378
 2426POPC   C3A33437   6.643   0.063   7.914
 2426POPC   C4A33438   6.586   0.247   7.513
 2426POPC   C1B33439   6.175   0.794   8.643
 2426POPC   C2B33440   6.275   0.586   8.265
 2426POPC   C3B33441   6.574   0.599   7.923
 2426POPC   C4B33442   6.486   0.739   7.508
 2427POPC   NC333443  44.300  42.227   9.388
 2427POPC   PO433444  43.600  42.006   9.533
 2427POPC   GL133445  43.740  42.136   9.163
 2427POPC   GL233446  43.870  42.438   9.173
 2427POPC   C1A33447  43.951  42.099   8.788
 2427POPC   D2A33448  43.834  42.160   8.394
 2427POPC   C3A33449  44.023  41.984   8.041
 2427POPC   C4A33450  44.300  41.968   7.744
 2427POPC   C1B33451  43.692  42.570   8.775
 2427POPC   C2B33452  43.702  42.651   8.338
 2427POPC   C3B33453  43.936  42.539   7.984
 2427POPC   C4B33454  44.171  42.697   7.683
 2428POPC   NC333455   6.165  11.615   9.242
 2428POPC   PO433456   5.704  11.207   9.606
 2428POPC   GL133457   5.717  11.349   9.156
 2428POPC   GL233458   5.465  11.551   9.086
 2428POPC   C1A33459   5.849  11.143   8.716
 2428POPC   D2A33460   5.840  11.297   8.282
 2428POPC   C3A33461   6.152  11.217   7.975
 2428POPC   C4A33462   5.996  11.143   7.576
 2428POPC   C1B33463   5.698  11.619   8.703
 2428POPC   C2B33464   5.857  11.810   8.348
 2428POPC   C3B33465   6.057  11.761   7.982
 2428POPC   C4B33466   6.007  11.636   7.582
 2429POPC   NC333467  11.880  21.123   9.715
 2429POPC   PO433468  12.405  21.540   9.574
 2429POPC   GL133469  12.302  21.414   9.036
 2429POPC   GL233470  11.891  21.470   8.894
 2429POPC   C1A33471  12.305  21.445   8.640
 2429POPC   D2A33472  12.023  21.579   8.362
 2429POPC   C3A33473  12.171  21.433   7.983
 2429POPC   C4A33474  12.232  21.622   7.567
 2429POPC   C1B33475  11.618  21.139   8.805
 2429POPC   C2B33476  11.571  20.954   8.386
 2429POPC   C3B33477  11.644  21.040   7.926
 2429POPC   C4B33478  11.727  21.455   7.691
 2430POPC   NC333479   9.502   1.896   9.706
 2430POPC   PO433480   9.851   2.411   9.644
 2430POPC   GL133481   9.632   2.202   9.280
 2430POPC   GL233482   9.807   1.857   9.283
 2430POPC   C1A33483   9.464   2.255   8.835
 2430POPC   D2A33484   9.395   2.056   8.406
 2430POPC   C3A33485   9.721   2.110   8.083
 2430POPC   C4A33486   9.583   2.114   7.643
 2430POPC   C1B33487   9.863   1.961   8.861
 2430POPC   C2B33488   9.805   1.764   8.488
 2430POPC   C3B33489  10.033   1.694   8.154
 2430POPC   C4B33490   9.892   1.712   7.755
 2431POPC   NC333491  43.497  40.865   9.446
 2431POPC   PO433492  43.982  40.415   9.536
 2431POPC   GL133493  43.982  40.729   9.168
 2431POPC   GL233494  44.223  41.016   9.133
 2431POPC   C1A33495  43.832  40.943   8.782
 2431POPC   D2A33496  43.767  41.219   8.411
 2431POPC   C3A33497  43.858  40.917   8.091
 2431POPC   C4A33498  43.653  40.758   7.710
 2431POPC   C1B33499  44.356  40.918   8.735
 2431POPC   C2B33500  44.297  41.133   8.369
 2431POPC   C3B33501  44.371  41.022   7.953
 2431POPC   C4B33502  44.151  40.788   7.686
 2432POPC   NC333503  37.832   9.680   9.691
 2432POPC   PO433504  37.216   9.931   9.639
 2432POPC   GL133505  37.528   9.824   9.277
 2432POPC   GL233506  37.875   9.648   9.179
 2432POPC   C1A33507  37.654  10.015   8.894
 2432POPC   D2A33508  37.495   9.985   8.495
 2432POPC   C3A33509  37.764  10.102   8.141
 2432POPC   C4A33510  37.845   9.988   7.742
 2432POPC   C1B33511  37.671   9.487   8.772
 2432POPC   C2B33512  37.613   9.503   8.305
 2432POPC   C3B33513  37.754   9.483   7.866
 2432POPC   C4B33514  37.506   9.309   7.504
 2433POPC   NC333515  27.785  39.973   9.350
 2433POPC   PO433516  27.365  40.492   9.500
 2433POPC   GL133517  27.422  40.218   9.104
 2433POPC   GL233518  27.154  39.998   9.184
 2433POPC   C1A33519  27.700  40.124   8.704
 2433POPC   D2A33520  27.590  40.202   8.254
 2433POPC   C3A33521  27.860  40.064   7.917
 2433POPC   C4A33522  27.800  39.985   7.446
 2433POPC   C1B33523  27.278  39.827   8.780
 2433POPC   C2B33524  27.418  39.708   8.366
 2433POPC   C3B33525  27.492  39.737   7.927
 2433POPC   C4B33526  27.352  39.763   7.514
 2434POPC   NC333527  36.707   6.065   9.521
 2434POPC   PO433528  37.339   5.864   9.637
 2434POPC   GL133529  37.100   5.939   9.214
 2434POPC   GL233530  37.044   6.297   9.100
 2434POPC   C1A33531  36.742   5.947   8.866
 2434POPC   D2A33532  36.673   6.108   8.434
 2434POPC   C3A33533  36.740   5.899   8.021
 2434POPC   C4A33534  36.646   5.542   7.730
 2434POPC   C1B33535  37.226   6.041   8.717
 2434POPC   C2B33536  37.507   5.917   8.330
 2434POPC   C3B33537  37.436   5.827   7.879
 2434POPC   C4B33538  37.058   5.853   7.596
 2435POPC   NC333539   5.457  22.181   9.765
 2435POPC   PO433540   5.977  22.113   9.337
 2435POPC   GL133541   5.926  22.138   8.923
 2435POPC   GL233542   5.938  22.468   8.957
 2435POPC   C1A33543   5.753  22.285   8.528
 2435POPC   D2A33544   5.921  22.266   8.132
 2435POPC   C3A33545   5.590  22.042   7.924
 2435POPC   C4A33546   5.595  21.837   7.515
 2435POPC   C1B33547   6.231  22.567   8.620
 2435POPC   C2B33548   6.254  22.682   8.165
 2435POPC   C3B33549   6.241  22.485   7.754
 2435POPC   C4B33550   6.016  22.118   7.631
 2436POPC   NC333551  26.352  43.571   9.695
 2436POPC   PO433552  26.975  43.795   9.644
 2436POPC   GL133553  26.815  43.695   9.194
 2436POPC   GL233554  26.950  43.973   9.010
 2436POPC   C1A33555  26.773  43.641   8.702
 2436POPC   D2A33556  26.727  43.825   8.317
 2436POPC   C3A33557  26.681  43.632   7.946
 2436POPC   C4A33558  26.746  43.872   7.573
 2436POPC   C1B33559  27.110  44.024   8.615
 2436POPC   C2B33560  27.198  43.937   8.192
 2436POPC   C3B33561  27.103  44.163   7.795
 2436POPC   C4B33562  27.082  44.172   7.319
 2437POPC   NC333563   5.423   3.518   9.573
 2437POPC   PO433564   4.831   3.739   9.342
 2437POPC   GL133565   5.052   3.771   9.026
 2437POPC   GL233566   5.388   3.815   9.156
 2437POPC   C1A33567   4.925   3.614   8.625
 2437POPC   D2A33568   4.967   3.342   8.288
 2437POPC   C3A33569   5.030   3.496   7.885
 2437POPC   C4A33570   5.038   3.271   7.493
 2437POPC   C1B33571   5.416   3.520   8.789
 2437POPC   C2B33572   5.452   3.566   8.336
 2437POPC   C3B33573   5.483   3.754   7.914
 2437POPC   C4B33574   5.315   3.694   7.486
 2438POPC   NC333575  10.999  13.604   9.361
 2438POPC   PO433576  11.477  13.204   9.515
 2438POPC   GL133577  11.457  13.406   9.114
 2438POPC   GL233578  11.395  13.752   9.105
 2438POPC   C1A33579  11.229  13.469   8.719
 2438POPC   D2A33580  11.477  13.526   8.350
 2438POPC   C3A33581  11.263  13.437   8.010
 2438POPC   C4A33582  10.977  13.608   7.717
 2438POPC   C1B33583  11.513  13.896   8.728
 2438POPC   C2B33584  11.683  13.996   8.346
 2438POPC   C3B33585  11.688  13.766   7.929
 2438POPC   C4B33586  11.458  13.536   7.557
 2439POPC   NC333587  23.718  44.599   9.951
 2439POPC   PO433588  23.279  44.760   9.357
 2439POPC   GL133589  23.469  44.535   9.052
 2439POPC   GL233590  23.863  44.512   9.046
 2439POPC   C1A33591  23.565  44.421   8.652
 2439POPC   D2A33592  23.892  44.521   8.364
 2439POPC   C3A33593  23.627  44.459   8.021
 2439POPC   C4A33594  23.516  44.678   7.674
 2439POPC   C1B33595  23.716  44.893   8.766
 2439POPC   C2B33596  23.835   0.059   8.374
 2439POPC   C3B33597  23.891  44.905   7.967
 2439POPC   C4B33598  23.952   0.009   7.544
 2440POPC   NC333599  39.527  10.063   9.669
 2440POPC   PO433600  39.167   9.478   9.510
 2440POPC   GL133601  39.390   9.669   9.121
 2440POPC   GL233602  39.569  10.013   9.157
 2440POPC   C1A33603  39.260   9.729   8.665
 2440POPC   D2A33604  38.990   9.912   8.341
 2440POPC   C3A33605  39.205   9.904   7.957
 2440POPC   C4A33606  39.098   9.686   7.580
 2440POPC   C1B33607  39.732   9.930   8.735
 2440POPC   C2B33608  39.642   9.811   8.298
 2440POPC   C3B33609  39.697   9.897   7.856
 2440POPC   C4B33610  39.477   9.993   7.464
 2441POPC   NC333611  37.308  43.738   9.373
 2441POPC   PO433612  36.731  43.827   9.568
 2441POPC   GL133613  36.887  43.892   9.115
 2441POPC   GL233614  37.225  43.849   8.898
 2441POPC   C1A33615  36.772  43.972   8.697
 2441POPC   D2A33616  36.653  43.793   8.305
 2441POPC   C3A33617  36.923  43.688   7.999
 2441POPC   C4A33618  36.859  43.775   7.587
 2441POPC   C1B33619  37.209  44.201   8.620
 2441POPC   C2B33620  36.967  44.226   8.245
 2441POPC   C3B33621  37.104  44.157   7.840
 2441POPC   C4B33622  37.127  44.170   7.406
 2442POPC   NC333623  43.628  15.232   9.282
 2442POPC   PO433624  44.155  14.872   9.494
 2442POPC   GL133625  44.050  15.020   9.079
 2442POPC   GL233626  44.095  15.366   9.120
 2442POPC   C1A33627  43.778  15.054   8.678
 2442POPC   D2A33628  43.531  14.882   8.332
 2442POPC   C3A33629  43.718  14.967   7.920
 2442POPC   C4A33630  43.540  15.163   7.561
 2442POPC   C1B33631  44.198  15.350   8.685
 2442POPC   C2B33632  44.059  15.213   8.271
 2442POPC   C3B33633  44.247  15.012   7.926
 2442POPC   C4B33634  44.363  15.185   7.551
 2443POPC   NC333635   8.499  34.828   9.458
 2443POPC   PO433636   8.398  35.541   9.465
 2443POPC   GL133637   8.311  35.434   9.063
 2443POPC   GL233638   8.602  35.196   9.094
 2443POPC   C1A33639   7.908  35.308   8.845
 2443POPC   D2A33640   7.697  35.212   8.451
 2443POPC   C3A33641   7.916  35.147   8.066
 2443POPC   C4A33642   8.265  35.055   7.798
 2443POPC   C1B33643   8.366  34.983   8.802
 2443POPC   C2B33644   8.221  35.215   8.458
 2443POPC   C3B33645   8.370  35.445   8.118
 2443POPC   C4B33646   8.278  35.568   7.682
 2444POPC   NC333647  35.126  12.299   9.304
 2444POPC   PO433648  35.484  11.801   9.265
 2444POPC   GL133649  35.444  11.986   8.933
 2444POPC   GL233650  35.586  12.318   9.059
 2444POPC   C1A33651  35.225  11.898   8.546
 2444POPC   D2A33652  34.951  12.164   8.272
 2444POPC   C3A33653  35.116  12.134   7.867
 2444POPC   C4A33654  35.478  11.871   7.738
 2444POPC   C1B33655  35.380  12.391   8.646
 2444POPC   C2B33656  35.491  12.214   8.272
 2444POPC   C3B33657  35.821  12.109   8.057
 2444POPC   C4B33658  35.683  12.336   7.753
 2445POPC   NC333659  25.530  27.316   9.199
 2445POPC   PO433660  24.957  27.604   9.490
 2445POPC   GL133661  25.262  27.738   9.120
 2445POPC   GL233662  25.449  28.066   9.114
 2445POPC   C1A33663  25.532  27.747   8.707
 2445POPC   D2A33664  25.736  27.755   8.302
 2445POPC   C3A33665  25.393  27.639   8.035
 2445POPC   C4A33666  25.149  27.570   7.667
 2445POPC   C1B33667  25.122  28.070   8.763
 2445POPC   C2B33668  24.958  27.957   8.324
 2445POPC   C3B33669  25.129  28.061   7.881
 2445POPC   C4B33670  25.242  27.965   7.409
 2446POPC   NC333671   0.174  34.690   9.688
 2446POPC   PO433672  44.642  34.525   9.446
 2446POPC   GL133673  44.624  34.680   9.088
 2446POPC   GL233674  44.383  34.913   9.056
 2446POPC   C1A33675  44.531  34.466   8.736
 2446POPC   D2A33676  44.570  34.662   8.383
 2446POPC   C3A33677  44.644  34.509   8.005
 2446POPC   C4A33678  44.766  34.738   7.680
 2446POPC   C1B33679  44.201  34.862   8.694
 2446POPC   C2B33680  44.087  34.705   8.284
 2446POPC   C3B33681  44.323  34.923   7.971
 2446POPC   C4B33682  44.245  34.941   7.532
 2447POPC   NC333683  18.906   4.471   9.496
 2447POPC   PO433684  19.396   4.071   9.512
 2447POPC   GL133685  19.283   4.331   9.179
 2447POPC   GL233686  18.972   4.133   9.102
 2447POPC   C1A33687  19.097   4.612   8.860
 2447POPC   D2A33688  19.167   4.565   8.417
 2447POPC   C3A33689  18.983   4.775   8.065
 2447POPC   C4A33690  18.859   4.648   7.652
 2447POPC   C1B33691  19.227   4.129   8.722
 2447POPC   C2B33692  19.063   4.071   8.317
 2447POPC   C3B33693  19.076   4.275   7.915
 2447POPC   C4B33694  18.925   4.120   7.504
 2448POPC   NC333695   5.760  10.863   9.286
 2448POPC   PO433696   6.105  10.325   9.580
 2448POPC   GL133697   5.903  10.381   9.144
 2448POPC   GL233698   5.601  10.193   9.081
 2448POPC   C1A33699   5.803  10.603   8.710
 2448POPC   D2A33700   5.554  10.858   8.373
 2448POPC   C3A33701   5.758  10.858   7.950
 2448POPC   C4A33702   5.976  10.649   7.594
 2448POPC   C1B33703   5.698  10.091   8.666
 2448POPC   C2B33704   5.943  10.284   8.329
 2448POPC   C3B33705   5.798  10.320   7.924
 2448POPC   C4B33706   5.417  10.212   7.746
 2449POPC   NC333707  24.788  43.592   9.491
 2449POPC   PO433708  24.679  42.944   9.471
 2449POPC   GL133709  24.504  42.985   9.077
 2449POPC   GL233710  24.256  43.234   9.142
 2449POPC   C1A33711  24.674  42.946   8.684
 2449POPC   D2A33712  24.597  42.874   8.266
 2449POPC   C3A33713  24.866  43.134   8.049
 2449POPC   C4A33714  24.827  43.415   7.723
 2449POPC   C1B33715  24.306  43.296   8.680
 2449POPC   C2B33716  24.469  43.450   8.279
 2449POPC   C3B33717  24.387  43.247   7.880
 2449POPC   C4B33718  24.325  42.795   7.812
 2450POPC   NC333719  17.396  26.373   9.499
 2450POPC   PO433720  17.776  26.943   9.508
 2450POPC   GL133721  17.592  26.732   9.170
 2450POPC   GL233722  17.837  26.495   9.061
 2450POPC   C1A33723  17.282  26.605   8.843
 2450POPC   D2A33724  16.997  26.669   8.483
 2450POPC   C3A33725  17.168  26.802   8.124
 2450POPC   C4A33726  17.413  26.784   7.769
 2450POPC   C1B33727  17.761  26.764   8.685
 2450POPC   C2B33728  17.675  26.782   8.240
 2450POPC   C3B33729  17.900  26.762   7.845
 2450POPC   C4B33730  17.781  27.154   7.667
 2451POPC   NC333731  24.123  26.967   9.265
 2451POPC   PO433732  23.687  26.706   9.647
 2451POPC   GL133733  23.708  26.630   9.199
 2451POPC   GL233734  23.545  26.947   9.181
 2451POPC   C1A33735  23.708  26.632   8.722
 2451POPC   D2A33736  23.822  26.357   8.337
 2451POPC   C3A33737  23.809  26.644   7.986
 2451POPC   C4A33738  24.087  26.989   7.894
 2451POPC   C1B33739  23.651  27.126   8.795
 2451POPC   C2B33740  23.742  27.024   8.371
 2451POPC   C3B33741  23.587  27.111   7.981
 2451POPC   C4B33742  23.693  27.049   7.564
 2452POPC   NC333743  42.763  18.330   9.605
 2452POPC   PO433744  42.321  17.871   9.506
 2452POPC   GL133745  42.478  18.131   9.160
 2452POPC   GL233746  42.176  18.273   8.980
 2452POPC   C1A33747  42.594  18.226   8.707
 2452POPC   D2A33748  42.545  18.001   8.304
 2452POPC   C3A33749  42.342  18.181   7.934
 2452POPC   C4A33750  42.583  18.451   7.698
 2452POPC   C1B33751  42.093  18.553   8.669
 2452POPC   C2B33752  42.043  18.491   8.239
 2452POPC   C3B33753  42.158  18.678   7.864
 2452POPC   C4B33754  42.166  18.559   7.410
 2453POPC   NC333755   7.996  11.976   9.602
 2453POPC   PO433756   8.623  11.938   9.436
 2453POPC   GL133757   8.233  12.035   9.151
 2453POPC   GL233758   7.899  11.832   9.144
 2453POPC   C1A33759   8.234  12.119   8.702
 2453POPC   D2A33760   8.527  12.273   8.394
 2453POPC   C3A33761   8.328  12.330   8.052
 2453POPC   C4A33762   8.321  12.005   7.788
 2453POPC   C1B33763   7.957  11.669   8.742
 2453POPC   C2B33764   7.875  11.541   8.324
 2453POPC   C3B33765   7.845  11.765   7.948
 2453POPC   C4B33766   7.845  12.187   7.792
 2454POPC   NC333767   1.490   2.465   9.567
 2454POPC   PO433768   1.300   3.154   9.584
 2454POPC   GL133769   1.372   2.884   9.210
 2454POPC   GL233770   1.052   2.757   9.196
 2454POPC   C1A33771   1.324   2.764   8.729
 2454POPC   D2A33772   1.040   2.932   8.357
 2454POPC   C3A33773   1.202   2.971   7.900
 2454POPC   C4A33774   1.165   3.037   7.418
 2454POPC   C1B33775   0.928   2.462   8.889
 2454POPC   C2B33776   0.922   2.435   8.448
 2454POPC   C3B33777   0.965   2.545   8.016
 2454POPC   C4B33778   1.035   2.571   7.557
 2455POPC   NC333779  11.142  36.622   9.603
 2455POPC   PO433780  11.394  37.185   9.575
 2455POPC   GL133781  11.230  36.995   9.212
 2455POPC   GL233782  10.967  37.219   9.130
 2455POPC   C1A33783  11.396  36.706   8.864
 2455POPC   D2A33784  11.529  36.738   8.399
 2455POPC   C3A33785  11.372  36.609   7.977
 2455POPC   C4A33786  11.039  36.724   7.690
 2455POPC   C1B33787  11.127  37.114   8.719
 2455POPC   C2B33788  11.330  37.208   8.340
 2455POPC   C3B33789  11.497  37.227   7.954
 2455POPC   C4B33790  11.263  37.169   7.613
 2456POPC   NC333791  32.449   9.285   9.495
 2456POPC   PO433792  33.057   8.827   9.507
 2456POPC   GL133793  33.001   9.139   9.231
 2456POPC   GL233794  33.344   9.146   9.090
 2456POPC   C1A33795  32.722   9.191   8.885
 2456POPC   D2A33796  32.823   9.219   8.454
 2456POPC   C3A33797  32.653   8.939   8.145
 2456POPC   C4A33798  32.810   9.109   7.770
 2456POPC   C1B33799  33.135   8.906   8.760
 2456POPC   C2B33800  33.122   8.766   8.310
 2456POPC   C3B33801  33.278   8.969   7.932
 2456POPC   C4B33802  33.242   8.951   7.475
 2457POPC   NC333803   7.691  27.266   9.538
 2457POPC   PO433804   7.418  27.898   9.478
 2457POPC   GL133805   7.337  27.753   9.026
 2457POPC   GL233806   7.407  27.394   9.084
 2457POPC   C1A33807   7.109  27.500   8.700
 2457POPC   D2A33808   7.027  27.380   8.282
 2457POPC   C3A33809   7.077  27.734   7.981
 2457POPC   C4A33810   7.453  27.761   7.751
 2457POPC   C1B33811   7.653  27.527   8.696
 2457POPC   C2B33812   7.497  27.632   8.284
 2457POPC   C3B33813   7.413  27.318   7.962
 2457POPC   C4B33814   7.409  27.301   7.503
 2458POPC   NC333815  42.913  44.289   9.327
 2458POPC   PO433816  43.265  43.712   9.446
 2458POPC   GL133817  43.066  43.844   9.091
 2458POPC   GL233818  42.746  43.748   9.195
 2458POPC   C1A33819  43.187  43.913   8.646
 2458POPC   D2A33820  43.448  43.829   8.256
 2458POPC   C3A33821  43.318  43.893   7.806
 2458POPC   C4A33822  43.525  43.816   7.401
 2458POPC   C1B33823  42.705  43.710   8.750
 2458POPC   C2B33824  42.730  43.943   8.365
 2458POPC   C3B33825  42.810  43.817   7.948
 2458POPC   C4B33826  42.867  43.987   7.557
 2459POPC   NC333827  40.629  27.365   9.545
 2459POPC   PO433828  40.967  27.955   9.460
 2459POPC   GL133829  40.783  27.720   9.122
 2459POPC   GL233830  40.738  27.365   9.060
 2459POPC   C1A33831  40.767  27.786   8.698
 2459POPC   D2A33832  40.728  27.568   8.335
 2459POPC   C3A33833  40.755  27.776   7.961
 2459POPC   C4A33834  40.482  27.733   7.637
 2459POPC   C1B33835  40.429  27.393   8.739
 2459POPC   C2B33836  40.369  27.193   8.336
 2459POPC   C3B33837  40.580  27.250   7.918
 2459POPC   C4B33838  40.482  27.228   7.491
 2460POPC   NC333839   3.760  20.422   9.377
 2460POPC   PO433840   3.385  20.904   9.420
 2460POPC   GL133841   3.368  20.617   9.111
 2460POPC   GL233842   3.036  20.715   9.065
 2460POPC   C1A33843   3.654  20.507   8.751
 2460POPC   D2A33844   3.827  20.739   8.409
 2460POPC   C3A33845   3.751  20.493   8.037
 2460POPC   C4A33846   3.919  20.632   7.658
 2460POPC   C1B33847   3.115  20.484   8.694
 2460POPC   C2B33848   3.344  20.449   8.343
 2460POPC   C3B33849   3.209  20.636   8.000
 2460POPC   C4B33850   3.337  20.787   7.609
 2461POPC   NC333851  10.559  12.098   9.499
 2461POPC   PO433852   9.896  11.977   9.404
 2461POPC   GL133853  10.301  11.893   9.101
 2461POPC   GL233854  10.674  11.786   9.100
 2461POPC   C1A33855  10.620  12.179   8.817
 2461POPC   D2A33856  10.847  12.071   8.413
 2461POPC   C3A33857  10.692  12.254   8.086
 2461POPC   C4A33858  10.774  12.339   7.701
 2461POPC   C1B33859  10.624  11.696   8.662
 2461POPC   C2B33860  10.563  11.652   8.202
 2461POPC   C3B33861  10.675  11.828   7.796
 2461POPC   C4B33862  10.497  12.025   7.433
 2462POPC   NC333863  28.055  44.821   9.540
 2462POPC   PO433864  27.464  44.544   9.458
 2462POPC   GL133865  27.757  44.648   9.169
 2462POPC   GL233866  27.913  44.398   9.049
 2462POPC   C1A33867  27.841  44.801   8.759
 2462POPC   D2A33868  27.596  44.805   8.420
 2462POPC   C3A33869  27.790  44.937   8.119
 2462POPC   C4A33870  27.657  44.901   7.751
 2462POPC   C1B33871  27.475  44.438   8.783
 2462POPC   C2B33872  27.327  44.399   8.336
 2462POPC   C3B33873  27.526  44.426   7.919
 2462POPC   C4B33874  27.562  44.149   7.533
 2463POPC   NC333875   1.755  34.175   9.447
 2463POPC   PO433876   2.189  33.658   9.405
 2463POPC   GL133877   2.081  33.952   9.105
 2463POPC   GL233878   1.695  33.885   9.028
 2463POPC   C1A33879   2.008  34.202   8.760
 2463POPC   D2A33880   1.800  34.107   8.363
 2463POPC   C3A33881   2.102  34.037   8.046
 2463POPC   C4A33882   2.254  33.629   7.907
 2463POPC   C1B33883   1.507  33.554   8.741
 2463POPC   C2B33884   1.590  33.368   8.339
 2463POPC   C3B33885   1.713  33.628   7.988
 2463POPC   C4B33886   1.459  33.680   7.645
 2464POPC   NC333887  33.942  35.286   9.531
 2464POPC   PO433888  33.331  35.571   9.575
 2464POPC   GL133889  33.460  35.524   9.171
 2464POPC   GL233890  33.527  35.198   9.238
 2464POPC   C1A33891  33.795  35.396   8.857
 2464POPC   D2A33892  33.964  35.420   8.439
 2464POPC   C3A33893  33.657  35.565   8.130
 2464POPC   C4A33894  33.808  35.398   7.770
 2464POPC   C1B33895  33.382  35.058   8.875
 2464POPC   C2B33896  33.473  35.239   8.481
 2464POPC   C3B33897  33.597  35.029   8.078
 2464POPC   C4B33898  33.555  34.983   7.602
 2465POPC   NC333899  21.757  21.669   9.303
 2465POPC   PO433900  22.414  21.782   9.567
 2465POPC   GL133901  22.473  21.481   9.185
 2465POPC   GL233902  22.092  21.300   9.141
 2465POPC   C1A33903  22.389  21.307   8.746
 2465POPC   D2A33904  22.497  21.192   8.327
 2465POPC   C3A33905  22.278  21.393   8.026
 2465POPC   C4A33906  22.328  21.302   7.617
 2465POPC   C1B33907  21.891  21.149   8.739
 2465POPC   C2B33908  21.870  21.109   8.276
 2465POPC   C3B33909  21.948  21.050   7.836
 2465POPC   C4B33910  21.887  21.189   7.383
 2466POPC   NC333911  13.234  14.311   9.595
 2466POPC   PO433912  12.654  14.693   9.554
 2466POPC   GL133913  12.910  14.538   9.244
 2466POPC   GL233914  12.842  14.182   9.172
 2466POPC   C1A33915  12.898  14.546   8.805
 2466POPC   D2A33916  12.544  14.585   8.524
 2466POPC   C3A33917  12.684  14.684   8.119
 2466POPC   C4A33918  12.782  14.751   7.694
 2466POPC   C1B33919  12.663  14.090   8.736
 2466POPC   C2B33920  12.862  14.227   8.337
 2466POPC   C3B33921  12.863  14.242   7.872
 2466POPC   C4B33922  13.065  14.258   7.456
 2467POPC   NC333923  21.600  12.527   9.361
 2467POPC   PO433924  21.436  11.834   9.449
 2467POPC   GL133925  21.399  12.127   9.125
 2467POPC   GL233926  21.185  11.950   8.996
 2467POPC   C1A33927  21.537  12.349   8.723
 2467POPC   D2A33928  21.872  12.442   8.418
 2467POPC   C3A33929  21.778  12.249   8.039
 2467POPC   C4A33930  21.429  12.162   7.834
 2467POPC   C1B33931  21.233  11.955   8.621
 2467POPC   C2B33932  21.126  12.205   8.293
 2467POPC   C3B33933  20.976  11.982   7.956
 2467POPC   C4B33934  21.156  11.649   7.801
 2468POPC   NC333935  37.359  40.790   9.653
 2468POPC   PO433936  37.918  40.966   9.473
 2468POPC   GL133937  37.699  40.813   9.159
 2468POPC   GL233938  37.379  40.937   9.117
 2468POPC   C1A33939  37.792  40.651   8.798
 2468POPC   D2A33940  37.776  40.905   8.487
 2468POPC   C3A33941  37.871  40.709   8.137
 2468POPC   C4A33942  38.048  40.894   7.799
 2468POPC   C1B33943  37.367  41.150   8.717
 2468POPC   C2B33944  37.321  41.029   8.280
 2468POPC   C3B33945  37.504  40.920   7.867
 2468POPC   C4B33946  37.329  41.142   7.537
 2469POPC   NC333947  25.459  37.540   9.516
 2469POPC   PO433948  24.869  37.893   9.572
 2469POPC   GL133949  25.115  37.701   9.203
 2469POPC   GL233950  25.420  37.840   9.062
 2469POPC   C1A33951  25.184  37.445   8.828
 2469POPC   D2A33952  25.085  37.545   8.386
 2469POPC   C3A33953  25.320  37.541   8.000
 2469POPC   C4A33954  25.018  37.736   7.740
 2469POPC   C1B33955  25.559  38.193   8.805
 2469POPC   C2B33956  25.745  38.190   8.431
 2469POPC   C3B33957  25.642  38.044   8.029
 2469POPC   C4B33958  25.631  38.279   7.679
 2470POPC   NC333959  21.242  12.908   9.622
 2470POPC   PO433960  21.809  12.928   9.259
 2470POPC   GL133961  21.503  12.832   8.966
 2470POPC   GL233962  21.221  12.614   9.037
 2470POPC   C1A33963  21.546  12.847   8.567
 2470POPC   D2A33964  21.422  12.619   8.231
 2470POPC   C3A33965  21.616  12.733   7.885
 2470POPC   C4A33966  21.546  12.902   7.493
 2470POPC   C1B33967  21.072  12.672   8.620
 2470POPC   C2B33968  21.045  12.980   8.265
 2470POPC   C3B33969  21.117  12.913   7.842
 2470POPC   C4B33970  21.069  12.500   7.860
 2471POPC   NC333971  30.778  17.229   9.973
 2471POPC   PO433972  30.697  17.820   9.678
 2471POPC   GL133973  30.882  17.754   9.277
 2471POPC   GL233974  30.558  17.804   9.180
 2471POPC   C1A33975  30.840  17.575   8.813
 2471POPC   D2A33976  30.998  17.502   8.363
 2471POPC   C3A33977  30.879  17.395   7.894
 2471POPC   C4A33978  30.546  17.256   7.580
 2471POPC   C1B33979  30.509  17.995   8.797
 2471POPC   C2B33980  30.511  17.723   8.445
 2471POPC   C3B33981  30.414  17.606   8.029
 2471POPC   C4B33982  30.575  17.758   7.676
 2472POPC   NC333983  24.300   7.191   9.523
 2472POPC   PO433984  24.744   7.687   9.438
 2472POPC   GL133985  24.450   7.533   9.132
 2472POPC   GL233986  24.538   7.192   9.093
 2472POPC   C1A33987  24.611   7.489   8.697
 2472POPC   D2A33988  25.016   7.601   8.531
 2472POPC   C3A33989  24.918   7.777   8.118
 2472POPC   C4A33990  24.635   7.656   7.812
 2472POPC   C1B33991  24.380   7.021   8.745
 2472POPC   C2B33992  24.306   7.203   8.325
 2472POPC   C3B33993  24.450   7.176   7.890
 2472POPC   C4B33994  24.384   6.948   7.491
 2473POPC   NC333995  27.979  40.951   9.276
 2473POPC   PO433996  28.349  40.518   9.676
 2473POPC   GL133997  28.445  40.740   9.257
 2473POPC   GL233998  28.518  40.461   9.068
 2473POPC   C1A33999  28.523  40.917   8.816
 2473POPC   D2A34000  28.468  40.762   8.372
 2473POPC   C3A34001  28.422  40.891   7.938
 2473POPC   C4A34002  28.538  40.710   7.504
 2473POPC   C1B34003  28.197  40.512   8.728
 2473POPC   C2B34004  27.973  40.545   8.375
 2473POPC   C3B34005  28.184  40.445   8.018
 2473POPC   C4B34006  28.054  40.563   7.624
 2474POPC   NC334007  33.628   7.449   9.477
 2474POPC   PO434008  34.290   7.384   9.498
 2474POPC   GL134009  34.032   7.484   9.129
 2474POPC   GL234010  33.800   7.198   9.071
 2474POPC   C1A34011  34.048   7.412   8.690
 2474POPC   D2A34012  33.856   7.154   8.432
 2474POPC   C3A34013  33.798   7.392   8.077
 2474POPC   C4A34014  34.064   7.660   7.833
 2474POPC   C1B34015  33.544   7.407   8.745
 2474POPC   C2B34016  33.314   7.512   8.385
 2474POPC   C3B34017  33.349   7.811   8.066
 2474POPC   C4B34018  33.575   7.684   7.729
 2475POPC   NC334019  13.132  40.205   9.658
 2475POPC   PO434020  12.610  39.884   9.496
 2475POPC   GL134021  12.728  39.937   9.109
 2475POPC   GL234022  13.039  39.792   9.202
 2475POPC   C1A34023  12.602  39.801   8.697
 2475POPC   D2A34024  12.367  39.933   8.317
 2475POPC   C3A34025  12.697  40.030   8.058
 2475POPC   C4A34026  12.828  39.995   7.675
 2475POPC   C1B34027  13.110  39.645   8.788
 2475POPC   C2B34028  13.021  39.792   8.386
 2475POPC   C3B34029  13.062  39.643   7.966
 2475POPC   C4B34030  13.224  39.581   7.538
 2476POPC   NC334031  35.462   7.271   9.561
 2476POPC   PO434032  35.082   7.802   9.676
 2476POPC   GL134033  35.182   7.724   9.205
 2476POPC   GL234034  35.507   7.562   9.150
 2476POPC   C1A34035  35.239   7.597   8.733
 2476POPC   D2A34036  35.212   7.255   8.430
 2476POPC   C3A34037  35.102   7.345   7.987
 2476POPC   C4A34038  35.232   7.662   7.672
 2476POPC   C1B34039  35.562   7.158   8.908
 2476POPC   C2B34040  35.673   7.032   8.509
 2476POPC   C3B34041  35.726   7.343   8.239
 2476POPC   C4B34042  35.661   7.363   7.834
 2477POPC   NC334043   8.252  31.752   9.556
 2477POPC   PO434044   7.756  32.228   9.457
 2477POPC   GL134045   7.886  32.131   9.095
 2477POPC   GL234046   8.243  32.102   9.155
 2477POPC   C1A34047   7.870  32.292   8.696
 2477POPC   D2A34048   8.156  32.343   8.365
 2477POPC   C3A34049   7.962  32.476   7.999
 2477POPC   C4A34050   8.084  32.392   7.595
 2477POPC   C1B34051   8.259  31.939   8.732
 2477POPC   C2B34052   8.372  31.827   8.321
 2477POPC   C3B34053   8.330  32.043   7.933
 2477POPC   C4B34054   8.273  31.825   7.564
 2478POPC   NC334055  15.449  24.512   9.589
 2478POPC   PO434056  16.072  24.156   9.559
 2478POPC   GL134057  16.166  24.248   9.185
 2478POPC   GL234058  16.067  24.606   9.144
 2478POPC   C1A34059  15.971  24.176   8.816
 2478POPC   D2A34060  16.120  24.322   8.412
 2478POPC   C3A34061  16.226  24.098   8.038
 2478POPC   C4A34062  16.045  24.280   7.698
 2478POPC   C1B34063  15.776  24.633   8.773
 2478POPC   C2B34064  15.668  24.648   8.326
 2478POPC   C3B34065  15.768  24.710   7.889
 2478POPC   C4B34066  15.507  24.866   7.541
 2479POPC   NC334067   9.465  34.994   9.255
 2479POPC   PO434068   9.836  34.586   9.728
 2479POPC   GL134069   9.769  34.468   9.254
 2479POPC   GL234070  10.068  34.546   9.005
 2479POPC   C1A34071   9.610  34.553   8.816
 2479POPC   D2A34072   9.518  34.556   8.392
 2479POPC   C3A34073   9.814  34.357   8.121
 2479POPC   C4A34074   9.698  34.416   7.708
 2479POPC   C1B34075   9.964  34.914   8.709
 2479POPC   C2B34076   9.634  35.047   8.501
 2479POPC   C3B34077   9.759  34.904   8.086
 2479POPC   C4B34078  10.076  34.733   7.813
 2480POPC   NC334079   0.987  21.707   9.310
 2480POPC   PO434080   1.305  22.234   9.611
 2480POPC   GL134081   1.231  22.327   9.196
 2480POPC   GL234082   1.318  22.007   9.055
 2480POPC   C1A34083   1.338  22.458   8.783
 2480POPC   D2A34084   1.196  22.254   8.405
 2480POPC   C3A34085   1.015  22.358   8.016
 2480POPC   C4A34086   1.106  22.420   7.596
 2480POPC   C1B34087   1.164  21.748   8.690
 2480POPC   C2B34088   1.131  21.764   8.274
 2480POPC   C3B34089   1.359  21.972   8.010
 2480POPC   C4B34090   1.131  21.918   7.681
 2481POPC   NC334091  33.860  21.786   9.383
 2481POPC   PO434092  33.374  22.083   9.771
 2481POPC   GL134093  33.635  22.192   9.236
 2481POPC   GL234094  33.509  22.480   9.059
 2481POPC   C1A34095  33.687  22.027   8.776
 2481POPC   D2A34096  33.996  21.888   8.447
 2481POPC   C3A34097  33.947  22.018   8.032
 2481POPC   C4A34098  33.602  21.858   7.821
 2481POPC   C1B34099  33.579  22.532   8.620
 2481POPC   C2B34100  33.539  22.225   8.285
 2481POPC   C3B34101  33.597  22.373   7.854
 2481POPC   C4B34102  33.425  22.776   7.803
 2482POPC   NC334103  18.645  28.949   9.338
 2482POPC   PO434104  17.964  29.261   9.428
 2482POPC   GL134105  18.208  29.154   9.107
 2482POPC   GL234106  18.186  28.812   9.164
 2482POPC   C1A34107  18.325  29.270   8.696
 2482POPC   D2A34108  18.310  29.583   8.365
 2482POPC   C3A34109  18.319  29.381   8.020
 2482POPC   C4A34110  18.176  29.044   7.850
 2482POPC   C1B34111  18.406  28.762   8.751
 2482POPC   C2B34112  18.414  28.933   8.334
 2482POPC   C3B34113  18.453  28.627   7.997
 2482POPC   C4B34114  18.369  28.669   7.556
 2483POPC   NC334115  15.495  40.368   9.487
 2483POPC   PO434116  14.875  40.736   9.462
 2483POPC   GL134117  14.965  40.507   9.128
 2483POPC   GL234118  15.307  40.552   9.062
 2483POPC   C1A34119  14.902  40.628   8.705
 2483POPC   D2A34120  14.820  40.508   8.317
 2483POPC   C3A34121  15.058  40.642   7.973
 2483POPC   C4A34122  15.380  40.637   7.657
 2483POPC   C1B34123  15.344  40.852   8.752
 2483POPC   C2B34124  15.175  40.973   8.353
 2483POPC   C3B34125  15.367  41.079   7.934
 2483POPC   C4B34126  15.430  41.190   7.453
 2484POPC   NC334127  13.823  14.309   9.333
 2484POPC   PO434128  13.419  14.747   9.581
 2484POPC   GL134129  13.402  14.631   9.158
 2484POPC   GL234130  13.357  14.262   9.112
 2484POPC   C1A34131  13.404  14.590   8.717
 2484POPC   D2A34132  13.661  14.405   8.432
 2484POPC   C3A34133  13.623  14.541   8.041
 2484POPC   C4A34134  13.887  14.639   7.732
 2484POPC   C1B34135  13.174  14.085   8.763
 2484POPC   C2B34136  13.320  14.011   8.353
 2484POPC   C3B34137  13.402  14.085   7.929
 2484POPC   C4B34138  13.550  14.304   7.544
 2485POPC   NC334139  25.187   3.048   9.648
 2485POPC   PO434140  25.721   3.440   9.569
 2485POPC   GL134141  25.461   3.510   9.142
 2485POPC   GL234142  25.151   3.714   9.104
 2485POPC   C1A34143  25.435   3.634   8.703
 2485POPC   D2A34144  25.138   3.679   8.390
 2485POPC   C3A34145  25.330   3.586   8.034
 2485POPC   C4A34146  25.276   3.461   7.625
 2485POPC   C1B34147  25.085   4.002   8.797
 2485POPC   C2B34148  24.867   4.140   8.495
 2485POPC   C3B34149  24.945   4.087   8.121
 2485POPC   C4B34150  25.045   3.895   7.754
 2486POPC   NC334151  33.014  36.922   9.539
 2486POPC   PO434152  32.505  37.252   9.259
 2486POPC   GL134153  32.830  37.005   9.056
 2486POPC   GL234154  33.196  37.058   9.082
 2486POPC   C1A34155  33.004  36.856   8.653
 2486POPC   D2A34156  32.798  36.833   8.252
 2486POPC   C3A34157  32.829  37.103   7.894
 2486POPC   C4A34158  32.925  36.663   7.715
 2486POPC   C1B34159  33.453  37.190   8.707
 2486POPC   C2B34160  33.504  36.996   8.325
 2486POPC   C3B34161  33.282  36.946   8.005
 2486POPC   C4B34162  33.234  37.027   7.583
 2487POPC   NC334163  31.589  34.861   9.543
 2487POPC   PO434164  31.618  34.205   9.376
 2487POPC   GL134165  31.539  34.457   9.035
 2487POPC   GL234166  31.615  34.813   9.047
 2487POPC   C1A34167  31.427  34.319   8.633
 2487POPC   D2A34168  31.365  34.512   8.271
 2487POPC   C3A34169  31.661  34.545   7.960
 2487POPC   C4A34170  31.441  34.697   7.618
 2487POPC   C1B34171  31.355  34.834   8.677
 2487POPC   C2B34172  30.972  34.900   8.471
 2487POPC   C3B34173  30.958  34.747   8.065
 2487POPC   C4B34174  30.941  34.892   7.646
 2488POPC   NC334175  38.354  16.624   9.904
 2488POPC   PO434176  38.119  16.985   9.364
 2488POPC   GL134177  38.419  16.817   9.040
 2488POPC   GL234178  38.174  16.649   8.893
 2488POPC   C1A34179  38.754  16.778   8.768
 2488POPC   D2A34180  38.928  16.846   8.393
 2488POPC   C3A34181  38.633  17.002   8.138
 2488POPC   C4A34182  38.482  16.775   7.823
 2488POPC   C1B34183  37.999  16.901   8.600
 2488POPC   C2B34184  38.140  16.828   8.195
 2488POPC   C3B34185  37.968  16.753   7.787
 2488POPC   C4B34186  37.879  16.558   7.388
 2489POPC   NC334187  23.181  29.757   9.898
 2489POPC   PO434188  23.214  29.123   9.571
 2489POPC   GL134189  23.065  29.071   9.141
 2489POPC   GL234190  22.790  28.875   9.146
 2489POPC   C1A34191  23.081  28.972   8.718
 2489POPC   D2A34192  23.219  29.150   8.371
 2489POPC   C3A34193  23.118  28.898   8.026
 2489POPC   C4A34194  23.116  29.074   7.640
 2489POPC   C1B34195  22.582  28.977   8.741
 2489POPC   C2B34196  22.697  29.066   8.336
 2489POPC   C3B34197  22.688  29.178   7.909
 2489POPC   C4B34198  22.679  29.560   7.743
 2490POPC   NC334199  43.234  29.166   9.478
 2490POPC   PO434200  42.619  28.861   9.496
 2490POPC   GL134201  42.879  29.014   9.149
 2490POPC   GL234202  43.113  28.791   9.120
 2490POPC   C1A34203  43.130  29.254   8.819
 2490POPC   D2A34204  43.306  29.399   8.419
 2490POPC   C3A34205  43.182  29.214   8.059
 2490POPC   C4A34206  42.980  29.203   7.670
 2490POPC   C1B34207  43.313  28.771   8.776
 2490POPC   C2B34208  43.411  28.875   8.389
 2490POPC   C3B34209  43.347  28.682   8.056
 2490POPC   C4B34210  43.280  28.798   7.680
 2491POPC   NC334211  10.987  12.897   9.594
 2491POPC   PO434212  11.449  12.452   9.515
 2491POPC   GL134213  11.308  12.825   9.183
 2491POPC   GL234214  11.047  13.121   9.159
 2491POPC   C1A34215  11.340  12.983   8.756
 2491POPC   D2A34216  11.306  12.761   8.397
 2491POPC   C3A34217  11.321  12.917   7.999
 2491POPC   C4A34218  11.192  12.622   7.692
 2491POPC   C1B34219  10.817  12.977   8.822
 2491POPC   C2B34220  10.928  13.117   8.413
 2491POPC   C3B34221  10.807  13.202   8.015
 2491POPC   C4B34222  10.984  13.099   7.649
 2492POPC   NC334223  22.133  32.223   9.866
 2492POPC   PO434224  22.716  32.461   9.517
 2492POPC   GL134225  22.333  32.352   9.208
 2492POPC   GL234226  22.169  32.044   9.263
 2492POPC   C1A34227  22.050  32.261   8.809
 2492POPC   D2A34228  22.164  32.325   8.345
 2492POPC   C3A34229  22.118  32.172   7.899
 2492POPC   C4A34230  21.969  32.321   7.477
 2492POPC   C1B34231  22.373  31.859   8.878
 2492POPC   C2B34232  22.336  31.815   8.407
 2492POPC   C3B34233  22.220  31.661   7.962
 2492POPC   C4B34234  22.181  31.822   7.514
 2493POPC   NC334235  26.306  30.645   9.743
 2493POPC   PO434236  26.945  30.618   9.576
 2493POPC   GL134237  26.956  30.716   9.105
 2493POPC   GL234238  27.175  30.485   9.126
 2493POPC   C1A34239  26.704  30.690   8.706
 2493POPC   D2A34240  26.621  30.990   8.370
 2493POPC   C3A34241  26.606  30.728   8.033
 2493POPC   C4A34242  26.998  30.684   7.819
 2493POPC   C1B34243  27.192  30.561   8.693
 2493POPC   C2B34244  27.014  30.529   8.306
 2493POPC   C3B34245  26.982  30.192   7.998
 2493POPC   C4B34246  27.091  30.253   7.565
 2494POPC   NC334247  11.456  18.646   9.405
 2494POPC   PO434248  11.673  18.034   9.415
 2494POPC   GL134249  11.448  18.220   9.067
 2494POPC   GL234250  11.220  18.509   8.976
 2494POPC   C1A34251  11.425  18.183   8.631
 2494POPC   D2A34252  11.109  18.148   8.326
 2494POPC   C3A34253  11.300  18.241   7.973
 2494POPC   C4A34254  11.288  18.199   7.538
 2494POPC   C1B34255  11.187  18.634   8.520
 2494POPC   C2B34256  10.965  18.601   8.099
 2494POPC   C3B34257  10.838  18.264   7.766
 2494POPC   C4B34258  10.890  17.859   7.463
 2495POPC   NC334259   2.837   1.092   9.421
 2495POPC   PO434260   2.391   1.617   9.381
 2495POPC   GL134261   2.664   1.438   9.058
 2495POPC   GL234262   3.034   1.451   9.094
 2495POPC   C1A34263   2.858   1.094   8.770
 2495POPC   D2A34264   2.801   0.898   8.381
 2495POPC   C3A34265   2.930   1.071   8.012
 2495POPC   C4A34266   2.497   1.100   7.785
 2495POPC   C1B34267   2.991   1.583   8.695
 2495POPC   C2B34268   2.801   1.429   8.363
 2495POPC   C3B34269   2.713   1.513   7.966
 2495POPC   C4B34270   2.901   1.321   7.571
 2496POPC   NC334271  13.309  23.249   9.620
 2496POPC   PO434272  13.498  22.573   9.522
 2496POPC   GL134273  13.588  22.887   9.228
 2496POPC   GL234274  13.283  22.995   9.136
 2496POPC   C1A34275  13.614  22.862   8.764
 2496POPC   D2A34276  13.917  23.076   8.521
 2496POPC   C3A34277  13.957  23.067   8.076
 2496POPC   C4A34278  13.857  23.119   7.628
 2496POPC   C1B34279  13.234  23.205   8.718
 2496POPC   C2B34280  13.073  23.135   8.360
 2496POPC   C3B34281  13.418  22.936   8.178
 2496POPC   C4B34282  13.397  23.012   7.774
 2497POPC   NC334283   2.554   5.523   9.571
 2497POPC   PO434284   2.411   4.937   9.483
 2497POPC   GL134285   2.572   5.180   9.177
 2497POPC   GL234286   2.327   5.455   9.129
 2497POPC   C1A34287   2.856   5.050   8.840
 2497POPC   D2A34288   2.988   5.211   8.448
 2497POPC   C3A34289   2.863   5.027   8.104
 2497POPC   C4A34290   3.053   5.069   7.755
 2497POPC   C1B34291   2.520   5.415   8.739
 2497POPC   C2B34292   2.482   5.295   8.357
 2497POPC   C3B34293   2.497   5.514   8.011
 2497POPC   C4B34294   2.384   5.337   7.672
 2498POPC   NC334295  41.898  36.316   9.406
 2498POPC   PO434296  41.265  36.606   9.436
 2498POPC   GL134297  41.472  36.293   9.130
 2498POPC   GL234298  41.405  35.925   9.221
 2498POPC   C1A34299  41.596  36.351   8.683
 2498POPC   D2A34300  41.469  36.190   8.304
 2498POPC   C3A34301  41.424  36.389   7.932
 2498POPC   C4A34302  41.493  36.228   7.569
 2498POPC   C1B34303  41.619  35.845   8.813
 2498POPC   C2B34304  41.597  35.692   8.385
 2498POPC   C3B34305  41.621  35.823   7.943
 2498POPC   C4B34306  41.372  35.731   7.574
 2499POPC   NC334307  22.632   5.082   9.621
 2499POPC   PO434308  23.251   5.350   9.475
 2499POPC   GL134309  23.012   5.085   9.198
 2499POPC   GL234310  23.301   4.920   9.027
 2499POPC   C1A34311  22.853   4.988   8.768
 2499POPC   D2A34312  23.054   4.865   8.361
 2499POPC   C3A34313  22.794   4.916   7.981
 2499POPC   C4A34314  22.726   4.878   7.555
 2499POPC   C1B34315  23.289   5.282   8.760
 2499POPC   C2B34316  23.418   5.309   8.338
 2499POPC   C3B34317  23.312   5.469   7.937
 2499POPC   C4B34318  22.954   5.328   7.710
 2500POPC   NC334319   5.173  18.741   9.351
 2500POPC   PO434320   5.055  19.345   9.502
 2500POPC   GL134321   4.887  19.317   9.091
 2500POPC   GL234322   4.819  18.976   9.054
 2500POPC   C1A34323   5.056  19.266   8.650
 2500POPC   D2A34324   5.321  19.395   8.271
 2500POPC   C3A34325   5.197  19.189   7.869
 2500POPC   C4A34326   5.176  19.024   7.436
 2500POPC   C1B34327   4.622  18.958   8.641
 2500POPC   C2B34328   4.847  18.939   8.218
 2500POPC   C3B34329   4.794  18.829   7.763
 2500POPC   C4B34330   4.710  18.854   7.311
 2501POPC   NC334331  10.282   3.420   9.788
 2501POPC   PO434332  10.713   3.822   9.519
 2501POPC   GL134333  10.646   3.629   9.158
 2501POPC   GL234334  10.265   3.656   9.224
 2501POPC   C1A34335  10.960   3.689   8.829
 2501POPC   D2A34336  10.879   3.846   8.423
 2501POPC   C3A34337  10.813   3.462   8.211
 2501POPC   C4A34338  10.781   3.574   7.823
 2501POPC   C1B34339  10.255   3.534   8.785
 2501POPC   C2B34340  10.369   3.668   8.357
 2501POPC   C3B34341  10.162   3.709   7.956
 2501POPC   C4B34342  10.217   3.536   7.538
 2502POPC   NC334343   1.430  28.780   9.566
 2502POPC   PO434344   1.546  29.488   9.563
 2502POPC   GL134345   1.332  29.210   9.261
 2502POPC   GL234346   1.620  29.057   9.163
 2502POPC   C1A34347   1.223  29.159   8.802
 2502POPC   D2A34348   1.208  29.449   8.404
 2502POPC   C3A34349   1.121  29.313   7.947
 2502POPC   C4A34350   0.836  29.411   7.546
 2502POPC   C1B34351   1.672  28.892   8.754
 2502POPC   C2B34352   1.434  28.970   8.345
 2502POPC   C3B34353   1.399  28.832   7.937
 2502POPC   C4B34354   1.599  29.027   7.602
 2503POPC   NC334355  40.349  34.043   9.423
 2503POPC   PO434356  39.865  33.505   9.432
 2503POPC   GL134357  40.027  33.745   9.112
 2503POPC   GL234358  40.354  33.584   9.136
 2503POPC   C1A34359  39.964  34.076   8.766
 2503POPC   D2A34360  40.152  34.094   8.348
 2503POPC   C3A34361  39.953  34.018   7.943
 2503POPC   C4A34362  40.066  33.939   7.498
 2503POPC   C1B34363  40.367  33.765   8.725
 2503POPC   C2B34364  40.366  33.586   8.307
 2503POPC   C3B34365  40.248  33.606   7.866
 2503POPC   C4B34366  40.165  33.453   7.439
 2504POPC   NC334367   0.172  22.698   9.704
 2504POPC   PO434368   0.843  23.079   9.715
 2504POPC   GL134369   0.626  22.921   9.330
 2504POPC   GL234370   0.300  22.739   9.213
 2504POPC   C1A34371   0.616  23.083   8.927
 2504POPC   D2A34372   0.508  23.154   8.518
 2504POPC   C3A34373   0.258  22.856   8.276
 2504POPC   C4A34374   0.394  22.837   7.892
 2504POPC   C1B34375   0.357  22.684   8.762
 2504POPC   C2B34376   0.441  22.386   8.456
 2504POPC   C3B34377   0.507  22.359   8.026
 2504POPC   C4B34378   0.268  22.420   7.668
 2505POPC   NC334379  25.737   2.309   9.465
 2505POPC   PO434380  25.025   2.382   9.420
 2505POPC   GL134381  25.329   2.134   9.195
 2505POPC   GL234382  25.216   1.826   9.043
 2505POPC   C1A34383  25.483   2.221   8.799
 2505POPC   D2A34384  25.407   2.387   8.392
 2505POPC   C3A34385  25.488   2.213   8.009
 2505POPC   C4A34386  25.154   2.142   7.736
 2505POPC   C1B34387  25.580   1.697   8.786
 2505POPC   C2B34388  25.560   1.872   8.403
 2505POPC   C3B34389  25.343   1.713   8.067
 2505POPC   C4B34390  25.497   1.768   7.695
 2506POPC   NC334391  24.906   2.792   9.269
 2506POPC   PO434392  25.546   2.735   9.566
 2506POPC   GL134393  25.388   2.661   9.165
 2506POPC   GL234394  25.343   3.016   9.139
 2506POPC   C1A34395  25.228   2.715   8.737
 2506POPC   D2A34396  25.318   2.938   8.367
 2506POPC   C3A34397  25.299   2.699   7.996
 2506POPC   C4A34398  25.554   2.621   7.636
 2506POPC   C1B34399  25.107   3.237   8.797
 2506POPC   C2B34400  24.863   3.212   8.388
 2506POPC   C3B34401  25.018   3.155   7.943
 2506POPC   C4B34402  25.200   2.970   7.544
 2507POPC   NC334403  19.174  43.381   9.447
 2507POPC   PO434404  18.869  42.813   9.390
 2507POPC   GL134405  18.998  43.038   9.097
 2507POPC   GL234406  18.760  43.275   9.157
 2507POPC   C1A34407  19.227  43.180   8.751
 2507POPC   D2A34408  19.412  43.081   8.384
 2507POPC   C3A34409  19.265  43.216   8.027
 2507POPC   C4A34410  19.504  43.190   7.691
 2507POPC   C1B34411  18.718  43.247   8.724
 2507POPC   C2B34412  18.896  43.057   8.349
 2507POPC   C3B34413  18.787  43.004   7.930
 2507POPC   C4B34414  18.941  43.341   7.631
 2508POPC   NC334415  25.407   4.819   9.582
 2508POPC   PO434416  24.915   5.345   9.550
 2508POPC   GL134417  25.257   5.180   9.217
 2508POPC   GL234418  25.140   4.836   9.148
 2508POPC   C1A34419  25.443   5.061   8.776
 2508POPC   D2A34420  25.505   4.802   8.375
 2508POPC   C3A34421  25.591   4.957   7.946
 2508POPC   C4A34422  25.517   5.129   7.538
 2508POPC   C1B34423  24.964   4.903   8.743
 2508POPC   C2B34424  25.099   5.116   8.388
 2508POPC   C3B34425  25.087   5.031   7.977
 2508POPC   C4B34426  24.815   4.882   7.673
 2509POPC   NC334427  26.957  10.805   9.391
 2509POPC   PO434428  26.634  11.383   9.723
 2509POPC   GL134429  26.558  11.158   9.275
 2509POPC   GL234430  26.867  11.162   9.050
 2509POPC   C1A34431  26.454  11.231   8.786
 2509POPC   D2A34432  26.248  11.446   8.397
 2509POPC   C3A34433  26.485  11.348   7.980
 2509POPC   C4A34434  26.816  11.159   7.708
 2509POPC   C1B34435  27.078  11.107   8.669
 2509POPC   C2B34436  26.979  11.069   8.230
 2509POPC   C3B34437  27.265  11.176   7.934
 2509POPC   C4B34438  27.165  11.540   7.762
 2510POPC   NC334439  40.688  35.938   9.476
 2510POPC   PO434440  40.640  36.593   9.468
 2510POPC   GL134441  40.625  36.312   9.119
 2510POPC   GL234442  40.965  36.243   9.146
 2510POPC   C1A34443  40.655  36.074   8.718
 2510POPC   D2A34444  40.688  36.158   8.275
 2510POPC   C3A34445  40.601  35.986   7.882
 2510POPC   C4A34446  40.449  36.280   7.610
 2510POPC   C1B34447  41.162  36.074   8.765
 2510POPC   C2B34448  41.096  35.867   8.377
 2510POPC   C3B34449  41.118  35.982   7.948
 2510POPC   C4B34450  40.988  36.078   7.504
 2511POPC   NC334451  42.789  33.366   9.460
 2511POPC   PO434452  43.208  32.755   9.516
 2511POPC   GL134453  43.121  33.025   9.184
 2511POPC   GL234454  42.782  32.922   9.155
 2511POPC   C1A34455  42.959  33.214   8.780
 2511POPC   D2A34456  42.927  33.286   8.329
 2511POPC   C3A34457  43.270  33.103   8.123
 2511POPC   C4A34458  43.229  32.954   7.734
 2511POPC   C1B34459  42.919  32.707   8.815
 2511POPC   C2B34460  43.047  32.775   8.447
 2511POPC   C3B34461  42.957  32.665   8.048
 2511POPC   C4B34462  42.873  32.571   7.616
 2512POPC   NC334463  32.896  39.909   9.439
 2512POPC   PO434464  32.904  40.545   9.354
 2512POPC   GL134465  32.751  40.233   9.055
 2512POPC   GL234466  33.053  40.024   8.979
 2512POPC   C1A34467  32.679  40.070   8.641
 2512POPC   D2A34468  32.815  40.216   8.233
 2512POPC   C3A34469  32.959  39.910   7.917
 2512POPC   C4A34470  32.939  39.841   7.396
 2512POPC   C1B34471  33.194  40.216   8.612
 2512POPC   C2B34472  33.438  40.022   8.314
 2512POPC   C3B34473  33.523  39.815   7.967
 2512POPC   C4B34474  33.348  40.035   7.630
 2513POPC   NC334475  36.025  35.743   9.429
 2513POPC   PO434476  36.324  36.377   9.316
 2513POPC   GL134477  36.302  36.034   9.036
 2513POPC   GL234478  35.976  36.062   9.026
 2513POPC   C1A34479  36.216  36.029   8.565
 2513POPC   D2A34480  35.867  36.245   8.352
 2513POPC   C3A34481  35.921  36.407   7.974
 2513POPC   C4A34482  36.231  36.185   7.880
 2513POPC   C1B34483  35.761  35.857   8.714
 2513POPC   C2B34484  35.713  35.616   8.340
 2513POPC   C3B34485  35.900  35.837   8.041
 2513POPC   C4B34486  35.743  35.986   7.666
 2514POPC   NC334487  36.338  43.612   9.572
 2514POPC   PO434488  35.745  43.897   9.418
 2514POPC   GL134489  36.031  43.991   9.081
 2514POPC   GL234490  36.368  43.874   9.129
 2514POPC   C1A34491  35.915  44.088   8.655
 2514POPC   D2A34492  35.816  43.782   8.353
 2514POPC   C3A34493  35.974  43.871   7.966
 2514POPC   C4A34494  35.843  44.194   7.681
 2514POPC   C1B34495  36.304  43.753   8.689
 2514POPC   C2B34496  36.243  43.505   8.290
 2514POPC   C3B34497  36.419  43.598   7.857
 2514POPC   C4B34498  36.446  43.631   7.350
 2515POPC   NC334499  41.418  35.464   9.617
 2515POPC   PO434500  41.904  35.837   9.427
 2515POPC   GL134501  41.719  35.482   9.181
 2515POPC   GL234502  41.347  35.404   9.124
 2515POPC   C1A34503  41.700  35.338   8.757
 2515POPC   D2A34504  41.839  35.111   8.428
 2515POPC   C3A34505  41.768  35.327   8.068
 2515POPC   C4A34506  41.633  35.305   7.639
 2515POPC   C1B34507  41.259  35.088   8.780
 2515POPC   C2B34508  41.322  35.259   8.357
 2515POPC   C3B34509  41.242  35.361   7.932
 2515POPC   C4B34510  41.173  35.275   7.445
 2516POPC   NC334511  35.800  17.029   9.369
 2516POPC   PO434512  36.048  16.532   9.780
 2516POPC   GL134513  36.180  16.635   9.336
 2516POPC   GL234514  36.505  16.774   9.305
 2516POPC   C1A34515  36.112  16.671   8.871
 2516POPC   D2A34516  35.984  16.920   8.507
 2516POPC   C3A34517  36.117  16.700   8.170
 2516POPC   C4A34518  36.113  16.673   7.765
 2516POPC   C1B34519  36.529  16.989   8.882
 2516POPC   C2B34520  36.507  16.887   8.438
 2516POPC   C3B34521  36.434  17.034   7.971
 2516POPC   C4B34522  36.368  17.230   7.569
 2517POPC   NC334523  43.321  37.118   9.325
 2517POPC   PO434524  43.189  37.716   9.576
 2517POPC   GL134525  43.028  37.662   9.159
 2517POPC   GL234526  43.331  37.662   9.040
 2517POPC   C1A34527  42.951  37.343   8.800
 2517POPC   D2A34528  43.024  37.190   8.366
 2517POPC   C3A34529  42.958  37.451   8.006
 2517POPC   C4A34530  42.932  37.382   7.562
 2517POPC   C1B34531  43.297  37.669   8.612
 2517POPC   C2B34532  43.332  37.930   8.300
 2517POPC   C3B34533  43.145  37.912   7.888
 2517POPC   C4B34534  43.140  37.856   7.426
 2518POPC   NC334535   2.297  33.237   9.558
 2518POPC   PO434536   1.782  32.747   9.460
 2518POPC   GL134537   1.988  33.053   9.157
 2518POPC   GL234538   2.333  33.189   9.050
 2518POPC   C1A34539   1.918  33.236   8.747
 2518POPC   D2A34540   1.977  33.007   8.365
 2518POPC   C3A34541   1.970  33.172   8.002
 2518POPC   C4A34542   1.964  32.910   7.645
 2518POPC   C1B34543   2.251  32.834   8.740
 2518POPC   C2B34544   2.311  32.586   8.367
 2518POPC   C3B34545   2.344  32.820   7.971
 2518POPC   C4B34546   2.378  33.189   7.673
 2519POPC   NC334547   2.855  44.353   9.513
 2519POPC   PO434548   3.023  43.711   9.418
 2519POPC   GL134549   2.762  43.794   9.055
 2519POPC   GL234550   2.648  44.115   9.089
 2519POPC   C1A34551   2.760  43.883   8.634
 2519POPC   D2A34552   3.102  43.805   8.375
 2519POPC   C3A34553   2.938  43.919   8.010
 2519POPC   C4A34554   2.550  43.832   7.823
 2519POPC   C1B34555   2.452  44.280   8.721
 2519POPC   C2B34556   2.568  44.221   8.296
 2519POPC   C3B34557   2.603  44.310   7.897
 2519POPC   C4B34558   2.584  44.304   7.436
 2520POPC   NC334559   0.600  35.323   9.525
 2520POPC   PO434560   0.003  35.104   9.561
 2520POPC   GL134561   0.244  35.295   9.172
 2520POPC   GL234562   0.531  35.104   9.093
 2520POPC   C1A34563   0.172  35.447   8.740
 2520POPC   D2A34564   0.011  35.489   8.295
 2520POPC   C3A34565   0.327  35.530   7.934
 2520POPC   C4A34566   0.485  35.572   7.485
 2520POPC   C1B34567   0.372  34.979   8.727
 2520POPC   C2B34568   0.416  35.172   8.319
 2520POPC   C3B34569   0.520  35.020   7.917
 2520POPC   C4B34570   0.724  35.110   7.510
 2521POPC   NC334571  24.630  39.907   9.466
 2521POPC   PO434572  23.903  39.849   9.386
 2521POPC   GL134573  24.309  39.841   9.087
 2521POPC   GL234574  24.744  39.763   9.008
 2521POPC   C1A34575  24.443  40.076   8.751
 2521POPC   D2A34576  24.627  39.837   8.459
 2521POPC   C3A34577  24.388  39.902   8.121
 2521POPC   C4A34578  24.302  39.746   7.748
 2521POPC   C1B34579  24.961  40.097   8.777
 2521POPC   C2B34580  24.812  40.425   8.513
 2521POPC   C3B34581  24.768  40.256   8.122
 2521POPC   C4B34582  24.531  40.199   7.725
 2522POPC   NC334583  15.605  22.150   9.769
 2522POPC   PO434584  15.019  22.317   9.470
 2522POPC   GL134585  14.997  22.094   9.090
 2522POPC   GL234586  15.354  22.046   9.133
 2522POPC   C1A34587  15.107  21.786   8.751
 2522POPC   D2A34588  15.434  21.857   8.442
 2522POPC   C3A34589  15.295  22.109   8.056
 2522POPC   C4A34590  15.022  21.946   7.706
 2522POPC   C1B34591  15.326  22.248   8.741
 2522POPC   C2B34592  15.258  22.588   8.481
 2522POPC   C3B34593  15.458  22.696   8.121
 2522POPC   C4B34594  15.435  22.536   7.704
 2523POPC   NC334595   0.625  32.749   9.524
 2523POPC   PO434596  44.991  33.058   9.575
 2523POPC   GL134597   0.295  33.039   9.224
 2523POPC   GL234598   0.283  32.704   9.108
 2523POPC   C1A34599   0.591  33.105   8.856
 2523POPC   D2A34600   0.472  33.223   8.428
 2523POPC   C3A34601   0.643  33.134   8.046
 2523POPC   C4A34602   0.484  33.014   7.693
 2523POPC   C1B34603   0.212  32.805   8.687
 2523POPC   C2B34604   0.351  32.753   8.268
 2523POPC   C3B34605   0.153  32.686   7.881
 2523POPC   C4B34606  44.932  32.916   7.603
 2524POPC   NC334607  17.645  34.567   9.903
 2524POPC   PO434608  18.224  34.483   9.684
 2524POPC   GL134609  18.342  34.411   9.248
 2524POPC   GL234610  18.239  34.705   9.063
 2524POPC   C1A34611  18.513  34.336   8.821
 2524POPC   D2A34612  18.602  34.370   8.363
 2524POPC   C3A34613  18.257  34.552   8.122
 2524POPC   C4A34614  18.212  34.579   7.682
 2524POPC   C1B34615  18.048  34.593   8.652
 2524POPC   C2B34616  17.798  34.766   8.293
 2524POPC   C3B34617  17.959  34.962   7.907
 2524POPC   C4B34618  18.283  35.112   7.596
 2525POPC   NC334619  29.500  31.422   9.498
 2525POPC   PO434620  28.863  31.723   9.528
 2525POPC   GL134621  29.034  31.434   9.129
 2525POPC   GL234622  29.331  31.224   9.038
 2525POPC   C1A34623  29.196  31.507   8.653
 2525POPC   D2A34624  29.332  31.676   8.225
 2525POPC   C3A34625  29.248  31.481   7.821
 2525POPC   C4A34626  29.043  31.216   7.539
 2525POPC   C1B34627  29.205  30.979   8.697
 2525POPC   C2B34628  29.118  31.108   8.328
 2525POPC   C3B34629  29.446  31.124   8.107
 2525POPC   C4B34630  29.465  30.986   7.708
 2526POPC   NC334631  28.825  32.244   9.611
 2526POPC   PO434632  29.426  32.505   9.797
 2526POPC   GL134633  29.318  32.404   9.309
 2526POPC   GL234634  28.984  32.331   9.124
 2526POPC   C1A34635  29.377  32.349   8.823
 2526POPC   D2A34636  29.200  32.365   8.402
 2526POPC   C3A34637  29.356  32.163   8.030
 2526POPC   C4A34638  29.046  31.956   7.780
 2526POPC   C1B34639  28.903  32.594   8.745
 2526POPC   C2B34640  28.726  32.673   8.323
 2526POPC   C3B34641  28.904  32.443   7.992
 2526POPC   C4B34642  28.970  32.423   7.576
 2527POPC   NC334643  12.992  18.628   9.699
 2527POPC   PO434644  12.865  17.984   9.415
 2527POPC   GL134645  12.815  18.243   9.104
 2527POPC   GL234646  13.168  18.273   9.057
 2527POPC   C1A34647  12.806  18.279   8.663
 2527POPC   D2A34648  12.579  18.344   8.289
 2527POPC   C3A34649  12.661  18.168   7.881
 2527POPC   C4A34650  12.505  17.806   7.692
 2527POPC   C1B34651  13.267  18.509   8.663
 2527POPC   C2B34652  13.222  18.375   8.253
 2527POPC   C3B34653  13.030  18.509   7.915
 2527POPC   C4B34654  13.082  18.505   7.444
 2528POPC   NC334655  16.039  38.109   9.650
 2528POPC   PO434656  15.618  37.654   9.460
 2528POPC   GL134657  15.891  37.923   9.182
 2528POPC   GL234658  16.276  38.013   9.213
 2528POPC   C1A34659  15.791  37.856   8.753
 2528POPC   D2A34660  15.831  37.504   8.439
 2528POPC   C3A34661  15.804  37.627   7.991
 2528POPC   C4A34662  16.115  37.473   7.682
 2528POPC   C1B34663  16.289  38.075   8.774
 2528POPC   C2B34664  16.081  38.013   8.359
 2528POPC   C3B34665  16.248  37.939   7.954
 2528POPC   C4B34666  16.133  38.037   7.541
 2529POPC   NC334667   0.415   8.280   9.233
 2529POPC   PO434668   0.698   7.800   9.621
 2529POPC   GL134669   0.363   7.783   9.235
 2529POPC   GL234670   0.597   7.825   8.974
 2529POPC   C1A34671   0.117   7.935   8.813
 2529POPC   D2A34672   0.116   8.187   8.413
 2529POPC   C3A34673   0.132   7.991   8.014
 2529POPC   C4A34674   0.063   8.237   7.654
 2529POPC   C1B34675   0.575   8.102   8.615
 2529POPC   C2B34676   0.626   8.051   8.193
 2529POPC   C3B34677   0.546   8.263   7.824
 2529POPC   C4B34678   0.807   8.429   7.509
 2530POPC   NC334679  34.836  39.949   9.639
 2530POPC   PO434680  34.224  40.225   9.490
 2530POPC   GL134681  34.546  40.052   9.196
 2530POPC   GL234682  34.842  39.801   9.161
 2530POPC   C1A34683  34.458  39.863   8.815
 2530POPC   D2A34684  34.330  39.987   8.413
 2530POPC   C3A34685  34.522  39.813   8.041
 2530POPC   C4A34686  34.305  39.918   7.662
 2530POPC   C1B34687  34.895  39.620   8.750
 2530POPC   C2B34688  34.965  39.446   8.323
 2530POPC   C3B34689  34.970  39.553   7.887
 2530POPC   C4B34690  34.792  39.758   7.532
 2531POPC   NC334691  33.829  37.501   9.526
 2531POPC   PO434692  33.519  38.149   9.558
 2531POPC   GL134693  33.655  37.878   9.201
 2531POPC   GL234694  34.030  37.843   9.166
 2531POPC   C1A34695  33.480  37.697   8.824
 2531POPC   D2A34696  33.301  37.738   8.423
 2531POPC   C3A34697  33.472  37.487   8.078
 2531POPC   C4A34698  33.750  37.658   7.743
 2531POPC   C1B34699  33.910  37.963   8.747
 2531POPC   C2B34700  33.830  37.768   8.350
 2531POPC   C3B34701  34.136  37.609   8.068
 2531POPC   C4B34702  34.264  37.625   7.650
 2532POPC   NC334703   4.870  12.204   9.572
 2532POPC   PO434704   5.439  11.816   9.552
 2532POPC   GL134705   5.116  11.928   9.197
 2532POPC   GL234706   4.727  11.882   9.187
 2532POPC   C1A34707   4.983  12.075   8.767
 2532POPC   D2A34708   4.924  12.331   8.396
 2532POPC   C3A34709   5.055  12.152   7.986
 2532POPC   C4A34710   5.049  12.312   7.561
 2532POPC   C1B34711   4.636  11.712   8.758
 2532POPC   C2B34712   4.833  11.779   8.337
 2532POPC   C3B34713   4.977  11.629   7.941
 2532POPC   C4B34714   5.124  11.797   7.564
 2533POPC   NC334715  44.846  11.173   9.499
 2533POPC   PO434716  44.421  11.706   9.577
 2533POPC   GL134717  44.602  11.546   9.204
 2533POPC   GL234718  44.499  11.208   9.142
 2533POPC   C1A34719  44.830  11.513   8.829
 2533POPC   D2A34720  44.656  11.666   8.469
 2533POPC   C3A34721  44.811  11.529   8.085
 2533POPC   C4A34722  44.777  11.696   7.695
 2533POPC   C1B34723  44.599  11.059   8.746
 2533POPC   C2B34724  44.665  11.110   8.335
 2533POPC   C3B34725  44.389  11.013   7.993
 2533POPC   C4B34726  44.552  10.987   7.587
 2534POPC   NC334727  16.796  28.974   9.685
 2534POPC   PO434728  16.659  28.317   9.513
 2534POPC   GL134729  16.754  28.480   9.129
 2534POPC   GL234730  16.500  28.581   9.038
 2534POPC   C1A34731  16.876  28.346   8.712
 2534POPC   D2A34732  17.202  28.344   8.406
 2534POPC   C3A34733  17.005  28.388   8.007
 2534POPC   C4A34734  16.718  28.123   7.843
 2534POPC   C1B34735  16.481  28.703   8.667
 2534POPC   C2B34736  16.609  28.540   8.324
 2534POPC   C3B34737  16.460  28.628   7.982
 2534POPC   C4B34738  16.665  28.567   7.618
 2535POPC   NC334739  24.350   1.083   9.365
 2535POPC   PO434740  24.869   1.438   9.492
 2535POPC   GL134741  24.835   1.128   9.141
 2535POPC   GL234742  25.014   0.768   9.168
 2535POPC   C1A34743  24.611   1.258   8.756
 2535POPC   D2A34744  24.316   1.456   8.468
 2535POPC   C3A34745  24.480   1.436   8.052
 2535POPC   C4A34746  24.206   1.496   7.699
 2535POPC   C1B34747  24.848   0.792   8.760
 2535POPC   C2B34748  24.890   1.030   8.374
 2535POPC   C3B34749  24.763   0.925   7.973
 2535POPC   C4B34750  24.541   1.138   7.648
 2536POPC   NC334751  31.679  14.019   9.510
 2536POPC   PO434752  31.694  13.369   9.483
 2536POPC   GL134753  31.515  13.571   9.149
 2536POPC   GL234754  31.287  13.824   9.258
 2536POPC   C1A34755  31.682  13.582   8.723
 2536POPC   D2A34756  31.589  13.348   8.326
 2536POPC   C3A34757  31.697  13.611   7.956
 2536POPC   C4A34758  31.751  13.535   7.523
 2536POPC   C1B34759  31.241  13.843   8.812
 2536POPC   C2B34760  31.361  13.818   8.381
 2536POPC   C3B34761  31.190  13.555   8.070
 2536POPC   C4B34762  31.212  13.638   7.663
 2537POPC   NC334763  17.433   4.939   9.499
 2537POPC   PO434764  17.818   5.506   9.505
 2537POPC   GL134765  17.806   5.288   9.132
 2537POPC   GL234766  17.863   4.976   9.243
 2537POPC   C1A34767  17.428   5.225   8.900
 2537POPC   D2A34768  17.223   4.962   8.600
 2537POPC   C3A34769  17.337   5.023   8.155
 2537POPC   C4A34770  17.376   4.800   7.762
 2537POPC   C1B34771  17.700   4.812   8.863
 2537POPC   C2B34772  17.739   5.030   8.486
 2537POPC   C3B34773  17.882   4.914   8.090
 2537POPC   C4B34774  17.822   5.030   7.683
 2538POPC   NC334775  11.391  26.359   9.535
 2538POPC   PO434776  10.928  25.742   9.579
 2538POPC   GL134777  11.091  26.042   9.227
 2538POPC   GL234778  11.475  25.996   9.171
 2538POPC   C1A34779  11.181  26.195   8.788
 2538POPC   D2A34780  11.249  26.034   8.364
 2538POPC   C3A34781  11.205  26.155   7.926
 2538POPC   C4A34782  11.266  25.863   7.565
 2538POPC   C1B34783  11.515  25.768   8.749
 2538POPC   C2B34784  11.492  25.568   8.364
 2538POPC   C3B34785  11.533  25.767   8.008
 2538POPC   C4B34786  11.721  25.674   7.649
 2539POPC   NC334787   8.028  35.851   9.491
 2539POPC   PO434788   8.280  36.519   9.448
 2539POPC   GL134789   8.255  36.306   9.091
 2539POPC   GL234790   7.934  36.206   9.111
 2539POPC   C1A34791   8.118  36.386   8.672
 2539POPC   D2A34792   8.317  36.264   8.307
 2539POPC   C3A34793   8.197  36.380   7.920
 2539POPC   C4A34794   8.394  36.127   7.629
 2539POPC   C1B34795   8.078  35.884   8.832
 2539POPC   C2B34796   7.961  35.915   8.413
 2539POPC   C3B34797   8.086  35.896   8.004
 2539POPC   C4B34798   7.913  36.016   7.590
 2540POPC   NC334799  10.336   4.843   9.555
 2540POPC   PO434800  10.669   5.369   9.416
 2540POPC   GL134801  10.465   5.160   9.105
 2540POPC   GL234802  10.187   5.318   9.069
 2540POPC   C1A34803  10.583   5.095   8.674
 2540POPC   D2A34804  10.748   4.998   8.262
 2540POPC   C3A34805  10.419   5.053   7.947
 2540POPC   C4A34806  10.090   4.774   7.782
 2540POPC   C1B34807  10.349   5.585   8.781
 2540POPC   C2B34808  10.223   5.491   8.359
 2540POPC   C3B34809  10.388   5.646   7.979
 2540POPC   C4B34810  10.537   5.444   7.596
 2541POPC   NC334811  11.613  43.939   9.646
 2541POPC   PO434812  11.029  44.380   9.585
 2541POPC   GL134813  11.152  44.399   9.117
 2541POPC   GL234814  11.490  44.503   9.111
 2541POPC   C1A34815  11.345  44.329   8.667
 2541POPC   D2A34816  11.544  44.564   8.313
 2541POPC   C3A34817  11.326  44.552   7.913
 2541POPC   C4A34818  11.210  44.416   7.480
 2541POPC   C1B34819  11.411  44.824   8.775
 2541POPC   C2B34820  11.405   0.051   8.359
 2541POPC   C3B34821  11.476   0.050   7.904
 2541POPC   C4B34822  11.558   0.232   7.474
 2542POPC   NC334823  40.776  32.015   9.749
 2542POPC   PO434824  40.716  31.331   9.566
 2542POPC   GL134825  40.823  31.379   9.148
 2542POPC   GL234826  40.625  31.570   9.098
 2542POPC   C1A34827  41.025  31.559   8.781
 2542POPC   D2A34828  41.161  31.454   8.360
 2542POPC   C3A34829  40.887  31.576   8.011
 2542POPC   C4A34830  40.732  31.881   7.703
 2542POPC   C1B34831  40.415  31.271   8.826
 2542POPC   C2B34832  40.481  31.206   8.394
 2542POPC   C3B34833  40.318  31.264   7.979
 2542POPC   C4B34834  40.570  31.403   7.630
 2543POPC   NC334835   7.088  25.075   9.437
 2543POPC   PO434836   7.736  25.127   9.475
 2543POPC   GL134837   7.605  25.339   9.118
 2543POPC   GL234838   7.218  25.353   9.037
 2543POPC   C1A34839   7.569  25.482   8.716
 2543POPC   D2A34840   7.440  25.252   8.347
 2543POPC   C3A34841   7.487  25.430   7.946
 2543POPC   C4A34842   7.635  25.592   7.533
 2543POPC   C1B34843   7.225  24.984   8.756
 2543POPC   C2B34844   7.079  24.873   8.316
 2543POPC   C3B34845   7.392  24.898   7.967
 2543POPC   C4B34846   7.366  25.115   7.556
 2544POPC   NC334847  17.859  34.572   9.393
 2544POPC   PO434848  17.260  34.761   9.749
 2544POPC   GL134849  17.300  34.673   9.262
 2544POPC   GL234850  17.573  34.603   8.991
 2544POPC   C1A34851  17.115  34.571   8.826
 2544POPC   D2A34852  17.208  34.778   8.430
 2544POPC   C3A34853  17.350  34.516   8.122
 2544POPC   C4A34854  17.295  34.499   7.695
 2544POPC   C1B34855  17.560  34.409   8.595
 2544POPC   C2B34856  17.786  34.247   8.246
 2544POPC   C3B34857  17.775  34.459   7.860
 2544POPC   C4B34858  17.707  34.328   7.448
 2545POPC   NC334859  35.033   5.474   9.956
 2545POPC   PO434860  35.589   5.587   9.548
 2545POPC   GL134861  35.405   5.807   9.110
 2545POPC   GL234862  35.131   5.637   8.953
 2545POPC   C1A34863  35.522   5.864   8.689
 2545POPC   D2A34864  35.610   6.207   8.416
 2545POPC   C3A34865  35.390   6.008   8.122
 2545POPC   C4A34866  35.382   5.877   7.728
 2545POPC   C1B34867  35.003   5.798   8.579
 2545POPC   C2B34868  34.962   5.743   8.165
 2545POPC   C3B34869  34.908   5.953   7.802
 2545POPC   C4B34870  35.038   5.904   7.340
 2546POPC   NC334871   6.529  31.004   9.519
 2546POPC   PO434872   6.244  31.664   9.464
 2546POPC   GL134873   6.483  31.370   9.127
 2546POPC   GL234874   6.759  31.108   9.090
 2546POPC   C1A34875   6.766  31.527   8.788
 2546POPC   D2A34876   6.660  31.722   8.388
 2546POPC   C3A34877   6.603  31.442   8.064
 2546POPC   C4A34878   6.612  31.594   7.706
 2546POPC   C1B34879   6.838  31.023   8.659
 2546POPC   C2B34880   6.985  31.312   8.379
 2546POPC   C3B34881   7.102  31.312   7.996
 2546POPC   C4B34882   6.877  31.136   7.688
 2547POPC   NC334883  25.621  43.648   9.860
 2547POPC   PO434884  25.337  44.119   9.365
 2547POPC   GL134885  25.180  43.920   9.036
 2547POPC   GL234886  25.158  43.621   9.074
 2547POPC   C1A34887  25.010  43.861   8.628
 2547POPC   D2A34888  24.928  44.132   8.331
 2547POPC   C3A34889  25.272  44.124   8.110
 2547POPC   C4A34890  25.283  43.971   7.695
 2547POPC   C1B34891  25.484  43.691   8.729
 2547POPC   C2B34892  25.457  43.723   8.362
 2547POPC   C3B34893  25.531  43.658   7.979
 2547POPC   C4B34894  25.793  43.428   7.730
 2548POPC   NC334895   1.970  41.482   9.528
 2548POPC   PO434896   2.594  41.631   9.482
 2548POPC   GL134897   2.277  41.680   9.102
 2548POPC   GL234898   1.900  41.658   9.072
 2548POPC   C1A34899   2.126  41.454   8.679
 2548POPC   D2A34900   1.986  41.421   8.199
 2548POPC   C3A34901   2.167  41.663   7.859
 2548POPC   C4A34902   2.114  41.454   7.445
 2548POPC   C1B34903   1.754  41.935   8.776
 2548POPC   C2B34904   1.933  41.875   8.385
 2548POPC   C3B34905   1.716  41.849   8.026
 2548POPC   C4B34906   1.713  41.696   7.651
 2549POPC   NC334907  28.114   0.640   9.795
 2549POPC   PO434908  28.671   0.335   9.524
 2549POPC   GL134909  28.567   0.498   9.129
 2549POPC   GL234910  28.326   0.266   9.114
 2549POPC   C1A34911  28.528   0.427   8.667
 2549POPC   D2A34912  28.552   0.631   8.291
 2549POPC   C3A34913  28.562   0.432   7.901
 2549POPC   C4A34914  28.734   0.344   7.495
 2549POPC   C1B34915  28.038   0.275   8.746
 2549POPC   C2B34916  28.074   0.364   8.284
 2549POPC   C3B34917  28.029   0.279   7.832
 2549POPC   C4B34918  28.244   0.473   7.490
 2550POPC   NC334919   6.945  13.208   9.382
 2550POPC   PO434920   6.423  13.616   9.451
 2550POPC   GL134921   6.734  13.620   9.113
 2550POPC   GL234922   6.667  13.381   8.980
 2550POPC   C1A34923   6.950  13.868   8.791
 2550POPC   D2A34924   7.010  13.862   8.323
 2550POPC   C3A34925   6.937  13.450   8.104
 2550POPC   C4A34926   6.588  13.437   7.806
 2550POPC   C1B34927   6.672  13.505   8.574
 2550POPC   C2B34928   6.533  13.716   8.215
 2550POPC   C3B34929   6.227  13.941   7.992
 2550POPC   C4B34930   6.255  13.772   7.600
 2551POPC   NC334931  25.074  34.258   9.512
 2551POPC   PO434932  25.208  34.855   9.234
 2551POPC   GL134933  25.216  34.471   9.066
 2551POPC   GL234934  25.507  34.381   9.269
 2551POPC   C1A34935  25.230  34.470   8.622
 2551POPC   D2A34936  25.033  34.335   8.256
 2551POPC   C3A34937  25.063  34.598   7.883
 2551POPC   C4A34938  25.420  34.876   7.845
 2551POPC   C1B34939  25.680  34.384   8.863
 2551POPC   C2B34940  25.740  34.400   8.462
 2551POPC   C3B34941  25.689  34.115   8.161
 2551POPC   C4B34942  25.529  34.332   7.825
 2552POPC   NC334943  12.991  25.426   9.552
 2552POPC   PO434944  12.592  24.934   9.310
 2552POPC   GL134945  12.888  25.221   9.060
 2552POPC   GL234946  13.198  25.487   9.110
 2552POPC   C1A34947  12.861  25.136   8.607
 2552POPC   D2A34948  12.953  25.067   8.185
 2552POPC   C3A34949  12.729  25.290   7.904
 2552POPC   C4A34950  12.639  25.408   7.496
 2552POPC   C1B34951  13.310  25.279   8.759
 2552POPC   C2B34952  13.370  25.407   8.383
 2552POPC   C3B34953  13.208  25.473   8.025
 2552POPC   C4B34954  13.127  25.302   7.605
 2553POPC   NC334955  14.276  19.442   9.420
 2553POPC   PO434956  14.115  18.832   9.605
 2553POPC   GL134957  14.118  18.884   9.102
 2553POPC   GL234958  14.249  19.217   8.931
 2553POPC   C1A34959  14.382  18.771   8.748
 2553POPC   D2A34960  14.414  18.723   8.337
 2553POPC   C3A34961  14.500  19.032   8.077
 2553POPC   C4A34962  14.458  18.943   7.668
 2553POPC   C1B34963  14.553  19.222   8.571
 2553POPC   C2B34964  14.818  19.397   8.226
 2553POPC   C3B34965  14.675  19.420   7.783
 2553POPC   C4B34966  14.398  19.513   7.410
 2554POPC   NC334967  28.979  26.613   9.543
 2554POPC   PO434968  29.418  27.092   9.620
 2554POPC   GL134969  29.188  26.916   9.183
 2554POPC   GL234970  28.917  26.657   9.062
 2554POPC   C1A34971  29.102  26.947   8.719
 2554POPC   D2A34972  29.404  26.855   8.445
 2554POPC   C3A34973  29.399  26.859   8.049
 2554POPC   C4A34974  29.431  26.973   7.627
 2554POPC   C1B34975  29.129  26.446   8.730
 2554POPC   C2B34976  29.113  26.462   8.324
 2554POPC   C3B34977  28.948  26.641   7.989
 2554POPC   C4B34978  29.206  26.526   7.681
 2555POPC   NC334979  43.783  17.760   9.444
 2555POPC   PO434980  44.069  17.099   9.481
 2555POPC   GL134981  43.969  17.375   9.167
 2555POPC   GL234982  43.624  17.342   9.153
 2555POPC   C1A34983  43.950  17.607   8.793
 2555POPC   D2A34984  43.837  17.500   8.381
 2555POPC   C3A34985  44.040  17.676   8.061
 2555POPC   C4A34986  43.800  17.970   7.831
 2555POPC   C1B34987  43.643  17.170   8.734
 2555POPC   C2B34988  43.444  17.187   8.336
 2555POPC   C3B34989  43.689  17.140   7.959
 2555POPC   C4B34990  43.870  17.428   7.654
 2556POPC   NC334991  40.408  36.848   9.170
 2556POPC   PO434992  39.813  36.728   9.427
 2556POPC   GL134993  39.850  36.993   9.071
 2556POPC   GL234994  40.035  37.289   9.100
 2556POPC   C1A34995  39.736  37.063   8.661
 2556POPC   D2A34996  39.930  36.727   8.476
 2556POPC   C3A34997  39.944  36.684   8.066
 2556POPC   C4A34998  40.275  36.719   7.806
 2556POPC   C1B34999  40.220  37.241   8.694
 2556POPC   C2B35000  40.103  37.291   8.310
 2556POPC   C3B35001  40.067  37.184   7.922
 2556POPC   C4B35002  39.656  37.114   7.972
 2557POPC   NC335003  34.030  17.541   9.336
 2557POPC   PO435004  33.554  17.107   9.405
 2557POPC   GL135005  33.650  17.340   9.050
 2557POPC   GL235006  33.567  17.718   9.065
 2557POPC   C1A35007  33.949  17.234   8.727
 2557POPC   D2A35008  33.886  17.005   8.370
 2557POPC   C3A35009  34.033  17.156   7.983
 2557POPC   C4A35010  33.863  17.418   7.669
 2557POPC   C1B35011  33.629  17.616   8.620
 2557POPC   C2B35012  33.779  17.555   8.218
 2557POPC   C3B35013  33.706  17.845   7.875
 2557POPC   C4B35014  33.451  17.759   7.559
 2558POPC   NC335015  20.480  10.036   9.432
 2558POPC   PO435016  20.783   9.469   9.523
 2558POPC   GL135017  20.680   9.470   9.121
 2558POPC   GL235018  21.006   9.358   8.980
 2558POPC   C1A35019  20.385   9.478   8.776
 2558POPC   D2A35020  20.154   9.542   8.383
 2558POPC   C3A35021  20.350   9.691   8.028
 2558POPC   C4A35022  20.398   9.628   7.625
 2558POPC   C1B35023  20.854   9.723   8.721
 2558POPC   C2B35024  20.694   9.580   8.360
 2558POPC   C3B35025  20.841   9.574   7.919
 2558POPC   C4B35026  20.895   9.540   7.474
 2559POPC   NC335027  23.865  37.409   9.496
 2559POPC   PO435028  23.903  38.149   9.558
 2559POPC   GL135029  23.892  37.955   9.130
 2559POPC   GL235030  23.887  37.592   9.032
 2559POPC   C1A35031  24.019  37.903   8.669
 2559POPC   D2A35032  24.004  37.559   8.361
 2559POPC   C3A35033  23.817  37.601   7.939
 2559POPC   C4A35034  23.801  37.839   7.566
 2559POPC   C1B35035  23.596  37.555   8.692
 2559POPC   C2B35036  23.570  37.324   8.293
 2559POPC   C3B35037  23.520  37.169   7.874
 2559POPC   C4B35038  23.289  37.140   7.435
 2560POPC   NC335039  24.942  42.169   9.471
 2560POPC   PO435040  25.502  42.542   9.482
 2560POPC   GL135041  25.206  42.457   9.145
 2560POPC   GL235042  24.858  42.591   9.146
 2560POPC   C1A35043  25.346  42.363   8.754
 2560POPC   D2A35044  25.522  42.527   8.395
 2560POPC   C3A35045  25.516  42.179   8.176
 2560POPC   C4A35046  25.569  42.075   7.756
 2560POPC   C1B35047  24.842  42.457   8.719
 2560POPC   C2B35048  25.021  42.314   8.346
 2560POPC   C3B35049  24.914  42.499   7.989
 2560POPC   C4B35050  25.158  42.372   7.653
 2561POPC   NC335051  41.797  14.315   9.342
 2561POPC   PO435052  41.123  14.269   9.409
 2561POPC   GL135053  41.239  14.523   9.043
 2561POPC   GL235054  41.601  14.586   8.949
 2561POPC   C1A35055  41.268  14.328   8.670
 2561POPC   D2A35056  41.417  14.247   8.264
 2561POPC   C3A35057  41.135  14.347   7.931
 2561POPC   C4A35058  41.389  14.560   7.692
 2561POPC   C1B35059  41.796  14.371   8.608
 2561POPC   C2B35060  41.964  14.486   8.216
 2561POPC   C3B35061  41.857  14.397   7.834
 2561POPC   C4B35062  41.564  14.079   7.787
 2562POPC   NC335063  21.031  23.434   9.733
 2562POPC   PO435064  21.432  23.955   9.579
 2562POPC   GL135065  21.438  23.691   9.179
 2562POPC   GL235066  21.157  23.428   9.231
 2562POPC   C1A35067  21.494  23.843   8.727
 2562POPC   D2A35068  21.818  23.888   8.444
 2562POPC   C3A35069  21.610  23.841   8.068
 2562POPC   C4A35070  21.582  23.786   7.660
 2562POPC   C1B35071  21.194  23.406   8.804
 2562POPC   C2B35072  21.152  23.579   8.414
 2562POPC   C3B35073  21.230  23.421   7.996
 2562POPC   C4B35074  21.090  23.555   7.605
 2563POPC   NC335075  33.850  25.756   9.475
 2563POPC   PO435076  33.594  26.249   9.491
 2563POPC   GL135077  33.743  26.075   9.081
 2563POPC   GL235078  33.593  25.756   8.986
 2563POPC   C1A35079  33.973  25.946   8.695
 2563POPC   D2A35080  33.769  26.047   8.307
 2563POPC   C3A35081  33.981  25.988   7.924
 2563POPC   C4A35082  34.190  25.969   7.518
 2563POPC   C1B35083  33.653  25.591   8.541
 2563POPC   C2B35084  33.917  25.533   8.178
 2563POPC   C3B35085  33.850  25.444   7.741
 2563POPC   C4B35086  33.510  25.413   7.433
 2564POPC   NC335087  16.796  29.466   9.325
 2564POPC   PO435088  16.326  29.075   9.642
 2564POPC   GL135089  16.558  29.033   9.230
 2564POPC   GL235090  16.522  29.240   8.939
 2564POPC   C1A35091  16.897  28.911   8.901
 2564POPC   D2A35092  17.019  28.835   8.451
 2564POPC   C3A35093  16.892  28.914   8.026
 2564POPC   C4A35094  17.144  28.870   7.660
 2564POPC   C1B35095  16.810  29.456   8.633
 2564POPC   C2B35096  16.831  29.569   8.187
 2564POPC   C3B35097  16.857  29.408   7.766
 2564POPC   C4B35098  16.527  29.301   7.456
 2565POPC   NC335099  20.319   6.901   9.447
 2565POPC   PO435100  20.893   6.467   9.532
 2565POPC   GL135101  20.525   6.464   9.235
 2565POPC   GL235102  20.536   6.798   9.016
 2565POPC   C1A35103  20.322   6.385   8.827
 2565POPC   D2A35104  20.550   6.581   8.505
 2565POPC   C3A35105  20.456   6.421   8.111
 2565POPC   C4A35106  20.625   6.512   7.736
 2565POPC   C1B35107  20.780   7.018   8.731
 2565POPC   C2B35108  20.994   6.817   8.389
 2565POPC   C3B35109  21.062   6.580   8.035
 2565POPC   C4B35110  20.967   6.896   7.768
 2566POPC   NC335111   5.728   0.425   9.524
 2566POPC   PO435112   6.323   0.544   9.475
 2566POPC   GL135113   6.019   0.499   9.108
 2566POPC   GL235114   5.638   0.577   9.048
 2566POPC   C1A35115   5.961   0.353   8.698
 2566POPC   D2A35116   5.724   0.610   8.418
 2566POPC   C3A35117   5.840   0.464   8.023
 2566POPC   C4A35118   6.176   0.312   7.799
 2566POPC   C1B35119   5.472   0.254   8.773
 2566POPC   C2B35120   5.632   0.117   8.350
 2566POPC   C3B35121   5.504   0.104   7.889
 2566POPC   C4B35122   5.687  44.953   7.507
 2567POPC   NC335123  26.126  42.855   9.464
 2567POPC   PO435124  25.920  43.446   9.575
 2567POPC   GL135125  25.857  43.225   9.212
 2567POPC   GL235126  26.167  43.285   9.134
 2567POPC   C1A35127  25.945  42.924   8.834
 2567POPC   D2A35128  26.132  43.036   8.421
 2567POPC   C3A35129  25.902  42.976   8.024
 2567POPC   C4A35130  26.124  42.782   7.638
 2567POPC   C1B35131  25.928  43.432   8.740
 2567POPC   C2B35132  25.896  43.453   8.269
 2567POPC   C3B35133  26.238  43.347   7.955
 2567POPC   C4B35134  26.198  43.251   7.497
 2568POPC   NC335135  25.473   9.910   9.485
 2568POPC   PO435136  26.084  10.141   9.521
 2568POPC   GL135137  26.060   9.855   9.129
 2568POPC   GL235138  25.827   9.549   9.112
 2568POPC   C1A35139  25.921   9.842   8.697
 2568POPC   D2A35140  25.924  10.081   8.331
 2568POPC   C3A35141  26.252   9.960   8.094
 2568POPC   C4A35142  26.179   9.840   7.682
 2568POPC   C1B35143  25.799   9.355   8.659
 2568POPC   C2B35144  25.713   9.441   8.216
 2568POPC   C3B35145  25.838   9.328   7.778
 2568POPC   C4B35146  25.621   9.182   7.384
 2569POPC   NC335147  28.087  42.567   9.473
 2569POPC   PO435148  28.524  42.151   9.762
 2569POPC   GL135149  28.498  42.107   9.285
 2569POPC   GL235150  28.170  42.173   9.169
 2569POPC   C1A35151  28.626  42.097   8.857
 2569POPC   D2A35152  28.703  42.338   8.493
 2569POPC   C3A35153  28.615  42.189   8.087
 2569POPC   C4A35154  28.507  42.213   7.672
 2569POPC   C1B35155  28.174  42.372   8.774
 2569POPC   C2B35156  28.202  42.385   8.334
 2569POPC   C3B35157  28.227  42.555   7.920
 2569POPC   C4B35158  27.996  42.629   7.512
 2570POPC   NC335159  25.678  32.501   9.685
 2570POPC   PO435160  26.075  31.990   9.556
 2570POPC   GL135161  25.850  32.249   9.208
 2570POPC   GL235162  25.901  32.620   9.206
 2570POPC   C1A35163  25.622  32.204   8.774
 2570POPC   D2A35164  25.540  31.972   8.370
 2570POPC   C3A35165  25.716  32.071   7.966
 2570POPC   C4A35166  26.134  32.082   7.779
 2570POPC   C1B35167  26.003  32.557   8.769
 2570POPC   C2B35168  25.967  32.305   8.361
 2570POPC   C3B35169  25.983  32.536   7.959
 2570POPC   C4B35170  26.410  32.591   7.790
 2571POPC   NC335171  37.815  15.832   9.619
 2571POPC   PO435172  37.423  16.267   9.350
 2571POPC   GL135173  37.806  16.105   9.182
 2571POPC   GL235174  37.598  15.803   9.152
 2571POPC   C1A35175  37.965  15.974   8.781
 2571POPC   D2A35176  37.699  15.860   8.414
 2571POPC   C3A35177  37.715  15.857   7.952
 2571POPC   C4A35178  37.812  16.063   7.513
 2571POPC   C1B35179  37.309  15.809   8.795
 2571POPC   C2B35180  37.243  15.615   8.394
 2571POPC   C3B35181  37.173  15.767   7.993
 2571POPC   C4B35182  37.266  15.969   7.622
 2572POPC   NC335183  24.186  19.080   9.455
 2572POPC   PO435184  24.861  19.303   9.536
 2572POPC   GL135185  24.633  19.146   9.167
 2572POPC   GL235186  24.386  19.391   9.086
 2572POPC   C1A35187  24.467  19.005   8.762
 2572POPC   D2A35188  24.281  19.073   8.357
 2572POPC   C3A35189  24.308  18.774   8.068
 2572POPC   C4A35190  24.469  18.900   7.677
 2572POPC   C1B35191  24.235  19.464   8.673
 2572POPC   C2B35192  24.498  19.555   8.315
 2572POPC   C3B35193  24.620  19.306   7.948
 2572POPC   C4B35194  24.517  19.367   7.500
 2573POPC   NC335195  12.524  39.431   9.579
 2573POPC   PO435196  13.054  38.979   9.432
 2573POPC   GL135197  12.980  39.284   9.154
 2573POPC   GL235198  12.653  39.431   9.102
 2573POPC   C1A35199  12.940  39.165   8.754
 2573POPC   D2A35200  13.057  39.274   8.356
 2573POPC   C3A35201  12.841  39.174   7.960
 2573POPC   C4A35202  12.935  39.147   7.539
 2573POPC   C1B35203  12.470  39.326   8.731
 2573POPC   C2B35204  12.565  39.456   8.293
 2573POPC   C3B35205  12.556  39.595   7.849
 2573POPC   C4B35206  12.705  39.571   7.377
 2574POPC   NC335207  41.222  21.337   9.597
 2574POPC   PO435208  40.583  21.443   9.427
 2574POPC   GL135209  40.890  21.296   9.164
 2574POPC   GL235210  41.074  21.607   9.164
 2574POPC   C1A35211  40.916  21.099   8.754
 2574POPC   D2A35212  40.836  21.219   8.322
 2574POPC   C3A35213  40.492  21.223   8.024
 2574POPC   C4A35214  40.312  21.415   7.666
 2574POPC   C1B35215  41.004  21.623   8.716
 2574POPC   C2B35216  41.118  21.646   8.274
 2574POPC   C3B35217  40.877  21.592   7.913
 2574POPC   C4B35218  40.881  21.749   7.487
 2575POPC   NC335219  39.051  11.424   9.493
 2575POPC   PO435220  39.752  11.213   9.552
 2575POPC   GL135221  39.486  11.395   9.184
 2575POPC   GL235222  39.191  11.234   9.035
 2575POPC   C1A35223  39.567  11.338   8.738
 2575POPC   D2A35224  39.226  11.263   8.426
 2575POPC   C3A35225  39.284  11.417   8.005
 2575POPC   C4A35226  39.348  11.057   7.774
 2575POPC   C1B35227  39.140  11.620   8.783
 2575POPC   C2B35228  38.891  11.659   8.388
 2575POPC   C3B35229  38.772  11.653   7.954
 2575POPC   C4B35230  39.009  11.611   7.575
 2576POPC   NC335231  39.804  32.267   9.518
 2576POPC   PO435232  40.457  31.997   9.426
 2576POPC   GL135233  40.172  32.172   9.088
 2576POPC   GL235234  39.821  32.045   9.065
 2576POPC   C1A35235  40.080  32.102   8.621
 2576POPC   D2A35236  39.693  31.930   8.384
 2576POPC   C3A35237  39.784  32.022   7.954
 2576POPC   C4A35238  40.037  32.411   7.860
 2576POPC   C1B35239  39.786  32.464   8.824
 2576POPC   C2B35240  39.811  32.470   8.340
 2576POPC   C3B35241  39.535  32.481   7.960
 2576POPC   C4B35242  39.612  32.295   7.530
 2577POPC   NC335243  44.971   3.583   9.364
 2577POPC   PO435244   0.635   3.598   9.515
 2577POPC   GL135245   0.568   3.383   9.139
 2577POPC   GL235246   0.370   3.668   9.055
 2577POPC   C1A35247   0.643   3.404   8.683
 2577POPC   D2A35248   0.511   3.719   8.401
 2577POPC   C3A35249   0.525   3.656   7.982
 2577POPC   C4A35250   0.658   4.016   7.771
 2577POPC   C1B35251   0.137   3.473   8.710
 2577POPC   C2B35252  44.996   3.606   8.317
 2577POPC   C3B35253   0.007   3.422   7.932
 2577POPC   C4B35254   0.338   3.283   7.688
 2578POPC   NC335255   2.029  14.907   9.793
 2578POPC   PO435256   2.227  14.236   9.538
 2578POPC   GL135257   2.047  14.269   9.147
 2578POPC   GL235258   1.689  14.284   9.160
 2578POPC   C1A35259   2.062  14.426   8.747
 2578POPC   D2A35260   2.264  14.538   8.388
 2578POPC   C3A35261   2.081  14.592   8.029
 2578POPC   C4A35262   2.227  14.215   7.745
 2578POPC   C1B35263   1.641  14.126   8.772
 2578POPC   C2B35264   1.742  13.927   8.394
 2578POPC   C3B35265   1.760  14.126   8.016
 2578POPC   C4B35266   1.764  14.415   7.701
 2579POPC   NC335267  18.828  18.160   9.398
 2579POPC   PO435268  19.410  18.528   9.490
 2579POPC   GL135269  19.188  18.448   9.105
 2579POPC   GL235270  18.832  18.574   9.125
 2579POPC   C1A35271  19.058  18.141   8.774
 2579POPC   D2A35272  18.820  18.132   8.388
 2579POPC   C3A35273  19.110  18.312   8.116
 2579POPC   C4A35274  19.226  18.258   7.711
 2579POPC   C1B35275  18.795  18.601   8.700
 2579POPC   C2B35276  18.797  18.687   8.280
 2579POPC   C3B35277  18.633  18.418   7.969
 2579POPC   C4B35278  18.737  18.375   7.581
 2580POPC   NC335279  20.835  43.616   9.639
 2580POPC   PO435280  20.568  42.924   9.450
 2580POPC   GL135281  20.559  43.098   9.091
 2580POPC   GL235282  20.856  43.281   9.195
 2580POPC   C1A35283  20.639  43.040   8.660
 2580POPC   D2A35284  20.657  43.083   8.229
 2580POPC   C3A35285  20.291  43.029   8.007
 2580POPC   C4A35286  20.490  43.049   7.635
 2580POPC   C1B35287  21.020  43.474   8.828
 2580POPC   C2B35288  20.878  43.507   8.404
 2580POPC   C3B35289  21.029  43.352   8.011
 2580POPC   C4B35290  20.954  43.469   7.609
 2581POPC   NC335291  36.585  21.986   9.530
 2581POPC   PO435292  37.068  22.377   9.288
 2581POPC   GL135293  37.023  22.093   8.984
 2581POPC   GL235294  36.663  22.092   9.001
 2581POPC   C1A35295  37.107  22.151   8.552
 2581POPC   D2A35296  36.787  22.249   8.270
 2581POPC   C3A35297  36.933  22.096   7.881
 2581POPC   C4A35298  37.243  22.331   7.645
 2581POPC   C1B35299  36.674  21.846   8.608
 2581POPC   C2B35300  36.598  21.788   8.160
 2581POPC   C3B35301  36.614  21.760   7.698
 2581POPC   C4B35302  36.525  21.868   7.259
 2582POPC   NC335303   3.733  10.764   9.509
 2582POPC   PO435304   3.672  10.154   9.741
 2582POPC   GL135305   3.656  10.351   9.204
 2582POPC   GL235306   3.547  10.689   9.060
 2582POPC   C1A35307   3.736  10.358   8.751
 2582POPC   D2A35308   3.418  10.456   8.437
 2582POPC   C3A35309   3.299  10.246   8.057
 2582POPC   C4A35310   3.436  10.418   7.684
 2582POPC   C1B35311   3.638  10.893   8.675
 2582POPC   C2B35312   3.689  10.867   8.242
 2582POPC   C3B35313   3.676  10.847   7.820
 2582POPC   C4B35314   3.697  10.725   7.366
 2583POPC   NC335315   7.195  24.282   9.979
 2583POPC   PO435316   7.623  24.349   9.545
 2583POPC   GL135317   7.571  24.633   9.239
 2583POPC   GL235318   7.216  24.630   9.187
 2583POPC   C1A35319   7.609  24.528   8.831
 2583POPC   D2A35320   7.490  24.625   8.451
 2583POPC   C3A35321   7.537  24.396   8.107
 2583POPC   C4A35322   7.481  24.467   7.686
 2583POPC   C1B35323   7.089  24.476   8.784
 2583POPC   C2B35324   7.065  24.276   8.364
 2583POPC   C3B35325   7.035  24.445   7.948
 2583POPC   C4B35326   6.929  24.848   7.759
 2584POPC   NC335327  23.934  35.264   9.581
 2584POPC   PO435328  23.829  34.643   9.825
 2584POPC   GL135329  23.855  34.615   9.353
 2584POPC   GL235330  23.895  34.915   9.150
 2584POPC   C1A35331  23.937  34.432   8.916
 2584POPC   D2A35332  24.055  34.458   8.444
 2584POPC   C3A35333  23.834  34.322   8.039
 2584POPC   C4A35334  23.980  34.214   7.615
 2584POPC   C1B35335  23.728  34.863   8.734
 2584POPC   C2B35336  23.614  34.710   8.315
 2584POPC   C3B35337  23.553  34.762   7.874
 2584POPC   C4B35338  23.414  34.838   7.459
 2585POPC   NC335339  40.266  41.260   9.469
 2585POPC   PO435340  39.707  41.534   9.728
 2585POPC   GL135341  39.740  41.483   9.214
 2585POPC   GL235342  40.089  41.597   9.109
 2585POPC   C1A35343  39.853  41.334   8.758
 2585POPC   D2A35344  39.959  41.133   8.366
 2585POPC   C3A35345  39.853  41.435   8.071
 2585POPC   C4A35346  39.962  41.502   7.687
 2585POPC   C1B35347  40.280  41.833   8.779
 2585POPC   C2B35348  40.191  41.598   8.432
 2585POPC   C3B35349  40.327  41.656   8.022
 2585POPC   C4B35350  40.345  41.833   7.616
 2586POPC   NC335351  18.474  27.330   9.440
 2586POPC   PO435352  18.204  27.847   9.523
 2586POPC   GL135353  18.366  27.754   9.131
 2586POPC   GL235354  18.134  27.476   9.101
 2586POPC   C1A35355  18.453  27.773   8.689
 2586POPC   D2A35356  18.217  27.759   8.303
 2586POPC   C3A35357  18.473  27.556   8.013
 2586POPC   C4A35358  18.536  27.680   7.624
 2586POPC   C1B35359  17.981  27.574   8.717
 2586POPC   C2B35360  17.794  27.308   8.411
 2586POPC   C3B35361  17.778  27.505   8.038
 2586POPC   C4B35362  18.060  27.576   7.733
 2587POPC   NC335363  13.281   6.248   9.475
 2587POPC   PO435364  13.759   5.680   9.407
 2587POPC   GL135365  13.640   5.864   9.017
 2587POPC   GL235366  13.557   6.192   9.063
 2587POPC   C1A35367  13.656   5.814   8.569
 2587POPC   D2A35368  13.428   5.543   8.298
 2587POPC   C3A35369  13.689   5.403   8.014
 2587POPC   C4A35370  13.755   5.628   7.641
 2587POPC   C1B35371  13.785   6.314   8.718
 2587POPC   C2B35372  13.564   6.299   8.332
 2587POPC   C3B35373  13.573   5.986   8.017
 2587POPC   C4B35374  13.844   6.126   7.702
 2588POPC   NC335375  43.293   7.372   9.667
 2588POPC   PO435376  42.899   7.199   9.169
 2588POPC   GL135377  43.261   7.393   9.145
 2588POPC   GL235378  43.408   7.081   9.249
 2588POPC   C1A35379  43.293   7.590   8.749
 2588POPC   D2A35380  43.060   7.579   8.358
 2588POPC   C3A35381  43.277   7.638   7.953
 2588POPC   C4A35382  43.330   7.665   7.500
 2588POPC   C1B35383  43.382   6.988   8.801
 2588POPC   C2B35384  43.396   7.191   8.416
 2588POPC   C3B35385  43.176   7.153   8.019
 2588POPC   C4B35386  43.331   7.153   7.592
 2589POPC   NC335387  44.496  44.367   9.599
 2589POPC   PO435388  44.868  44.839   9.298
 2589POPC   GL135389  44.594  44.623   9.094
 2589POPC   GL235390  44.500  44.892   8.939
 2589POPC   C1A35391  44.644  44.377   8.738
 2589POPC   D2A35392  44.885  44.354   8.394
 2589POPC   C3A35393  44.658  44.417   8.022
 2589POPC   C4A35394  44.831  44.518   7.645
 2589POPC   C1B35395  44.738  44.843   8.577
 2589POPC   C2B35396  44.560  44.924   8.187
 2589POPC   C3B35397  44.656   0.061   7.788
 2589POPC   C4B35398  44.950  44.988   7.454
 2590POPC   NC335399  26.478   9.938   9.438
 2590POPC   PO435400  27.064   9.661   9.646
 2590POPC   GL135401  26.933   9.730   9.215
 2590POPC   GL235402  27.172   9.947   9.119
 2590POPC   C1A35403  26.758   9.676   8.782
 2590POPC   D2A35404  26.507   9.444   8.504
 2590POPC   C3A35405  26.706   9.612   8.150
 2590POPC   C4A35406  26.664   9.817   7.814
 2590POPC   C1B35407  27.038  10.085   8.705
 2590POPC   C2B35408  26.801  10.084   8.328
 2590POPC   C3B35409  27.041  10.119   7.935
 2590POPC   C4B35410  27.049   9.898   7.511
 2591POPC   NC335411  22.735  19.946   9.491
 2591POPC   PO435412  23.281  19.592   9.479
 2591POPC   GL135413  23.026  19.745   9.100
 2591POPC   GL235414  22.850  20.100   9.035
 2591POPC   C1A35415  22.859  19.764   8.657
 2591POPC   D2A35416  22.946  19.869   8.228
 2591POPC   C3A35417  22.890  19.617   7.891
 2591POPC   C4A35418  22.477  19.496   8.002
 2591POPC   C1B35419  23.261  20.083   8.819
 2591POPC   C2B35420  23.403  20.036   8.400
 2591POPC   C3B35421  23.335  20.003   7.954
 2591POPC   C4B35422  22.978  20.102   7.741
 2592POPC   NC335423   7.199  23.430   9.455
 2592POPC   PO435424   7.394  22.813   9.608
 2592POPC   GL135425   7.511  22.772   9.216
 2592POPC   GL235426   7.266  22.514   9.145
 2592POPC   C1A35427   7.649  22.999   8.825
 2592POPC   D2A35428   7.797  23.125   8.407
 2592POPC   C3A35429   7.486  23.076   8.128
 2592POPC   C4A35430   7.483  23.046   7.733
 2592POPC   C1B35431   7.508  22.499   8.786
 2592POPC   C2B35432   7.586  22.637   8.385
 2592POPC   C3B35433   7.641  22.618   7.946
 2592POPC   C4B35434   7.294  22.560   7.660
 2593POPC   NC335435  14.590  24.989   9.407
 2593POPC   PO435436  14.034  25.361   9.370
 2593POPC   GL135437  14.198  25.094   9.051
 2593POPC   GL235438  14.524  25.281   8.995
 2593POPC   C1A35439  14.285  25.097   8.588
 2593POPC   D2A35440  14.446  25.455   8.338
 2593POPC   C3A35441  14.195  25.556   7.985
 2593POPC   C4A35442  14.205  25.161   7.805
 2593POPC   C1B35443  14.737  24.900   8.778
 2593POPC   C2B35444  14.613  24.743   8.378
 2593POPC   C3B35445  14.651  25.037   8.044
 2593POPC   C4B35446  14.674  25.468   7.858
 2594POPC   NC335447  16.971  35.960   9.333
 2594POPC   PO435448  16.476  36.223   9.573
 2594POPC   GL135449  16.475  36.263   9.154
 2594POPC   GL235450  16.521  35.915   9.076
 2594POPC   C1A35451  16.352  36.234   8.719
 2594POPC   D2A35452  16.589  36.212   8.323
 2594POPC   C3A35453  16.413  36.119   7.924
 2594POPC   C4A35454  16.509  36.020   7.482
 2594POPC   C1B35455  16.757  35.916   8.723
 2594POPC   C2B35456  17.066  36.104   8.495
 2594POPC   C3B35457  16.999  35.882   8.178
 2594POPC   C4B35458  16.905  35.965   7.793
 2595POPC   NC335459   8.098   1.336   9.468
 2595POPC   PO435460   8.123   0.699   9.257
 2595POPC   GL135461   8.202   1.019   9.010
 2595POPC   GL235462   8.404   1.331   8.966
 2595POPC   C1A35463   8.189   1.039   8.571
 2595POPC   D2A35464   8.152   1.400   8.372
 2595POPC   C3A35465   8.006   1.293   7.975
 2595POPC   C4A35466   8.182   1.052   7.646
 2595POPC   C1B35467   8.569   1.596   8.613
 2595POPC   C2B35468   8.550   1.578   8.111
 2595POPC   C3B35469   8.575   1.371   7.701
 2595POPC   C4B35470   8.455   1.606   7.292
 2596POPC   NC335471   0.788   6.636   9.481
 2596POPC   PO435472   0.083   6.422   9.604
 2596POPC   GL135473   0.022   6.614   9.115
 2596POPC   GL235474   0.330   6.715   9.133
 2596POPC   C1A35475   0.116   6.524   8.704
 2596POPC   D2A35476   0.439   6.633   8.426
 2596POPC   C3A35477   0.488   6.449   8.044
 2596POPC   C4A35478   0.222   6.301   7.716
 2596POPC   C1B35479   0.375   6.975   8.793
 2596POPC   C2B35480   0.466   7.168   8.402
 2596POPC   C3B35481   0.310   6.960   8.031
 2596POPC   C4B35482   0.491   6.785   7.670
 2597POPC   NC335483  25.674  38.842   9.527
 2597POPC   PO435484  26.188  38.533   9.566
 2597POPC   GL135485  25.911  38.464   9.210
 2597POPC   GL235486  25.711  38.711   9.036
 2597POPC   C1A35487  26.056  38.398   8.800
 2597POPC   D2A35488  26.130  38.571   8.412
 2597POPC   C3A35489  25.962  38.454   8.060
 2597POPC   C4A35490  26.151  38.280   7.745
 2597POPC   C1B35491  25.665  38.699   8.580
 2597POPC   C2B35492  25.781  38.927   8.194
 2597POPC   C3B35493  25.816  38.813   7.740
 2597POPC   C4B35494  25.905  38.569   7.370
 2598POPC   NC335495  29.098   8.607   9.434
 2598POPC   PO435496  29.641   8.876   9.700
 2598POPC   GL135497  29.438   9.017   9.225
 2598POPC   GL235498  29.611   9.256   9.078
 2598POPC   C1A35499  29.248   8.785   8.810
 2598POPC   D2A35500  29.246   8.887   8.390
 2598POPC   C3A35501  28.959   8.745   8.082
 2598POPC   C4A35502  28.994   8.551   7.672
 2598POPC   C1B35503  29.190   9.295   8.870
 2598POPC   C2B35504  29.101   9.453   8.471
 2598POPC   C3B35505  29.098   9.262   8.075
 2598POPC   C4B35506  29.076   9.391   7.656
 2599POPC   NC335507  34.273  40.719   9.387
 2599POPC   PO435508  34.958  40.856   9.435
 2599POPC   GL135509  34.736  40.947   9.069
 2599POPC   GL235510  34.657  40.597   9.068
 2599POPC   C1A35511  34.582  40.882   8.627
 2599POPC   D2A35512  34.400  40.895   8.197
 2599POPC   C3A35513  34.622  41.048   7.826
 2599POPC   C4A35514  34.470  41.043   7.410
 2599POPC   C1B35515  34.458  40.382   8.757
 2599POPC   C2B35516  34.632  40.393   8.344
 2599POPC   C3B35517  34.424  40.318   7.979
 2599POPC   C4B35518  34.396  40.626   7.689
 2600POPC   NC335519  40.790  13.054   9.698
 2600POPC   PO435520  40.399  12.636   9.342
 2600POPC   GL135521  40.702  12.875   9.175
 2600POPC   GL235522  41.051  12.779   9.197
 2600POPC   C1A35523  40.726  12.874   8.730
 2600POPC   D2A35524  40.616  12.973   8.316
 2600POPC   C3A35525  40.794  12.835   7.945
 2600POPC   C4A35526  40.734  12.569   7.565
 2600POPC   C1B35527  41.034  12.499   8.851
 2600POPC   C2B35528  40.893  12.493   8.394
 2600POPC   C3B35529  41.030  12.359   7.952
 2600POPC   C4B35530  41.243  12.500   7.575
 2601POPC   NC335531  38.622  38.067   9.514
 2601POPC   PO435532  38.061  38.404   9.284
 2601POPC   GL135533  38.380  38.431   9.010
 2601POPC   GL235534  38.696  38.432   9.168
 2601POPC   C1A35535  38.286  38.361   8.627
 2601POPC   D2A35536  38.026  38.443   8.346
 2601POPC   C3A35537  38.286  38.436   8.066
 2601POPC   C4A35538  38.303  38.406   7.700
 2601POPC   C1B35539  38.849  38.506   8.782
 2601POPC   C2B35540  38.675  38.596   8.404
 2601POPC   C3B35541  38.810  38.569   8.020
 2601POPC   C4B35542  38.800  38.308   7.709
 2602POPC   NC335543  21.149   9.689   9.323
 2602POPC   PO435544  21.632  10.052   9.650
 2602POPC   GL135545  21.681   9.952   9.203
 2602POPC   GL235546  21.475   9.776   8.954
 2602POPC   C1A35547  21.920   9.963   8.806
 2602POPC   D2A35548  21.680   9.846   8.455
 2602POPC   C3A35549  21.644   9.865   8.063
 2602POPC   C4A35550  21.723   9.659   7.734
 2602POPC   C1B35551  21.315   9.533   8.616
 2602POPC   C2B35552  21.171   9.751   8.289
 2602POPC   C3B35553  21.047  10.072   8.044
 2602POPC   C4B35554  21.238   9.851   7.711
 2603POPC   NC335555   8.382   8.725   9.488
 2603POPC   PO435556   7.929   8.233   9.576
 2603POPC   GL135557   8.180   8.222   9.179
 2603POPC   GL235558   8.031   8.555   9.169
 2603POPC   C1A35559   8.460   8.113   8.778
 2603POPC   D2A35560   8.613   8.248   8.337
 2603POPC   C3A35561   8.361   8.053   7.983
 2603POPC   C4A35562   8.400   7.971   7.500
 2603POPC   C1B35563   8.198   8.555   8.773
 2603POPC   C2B35564   8.119   8.352   8.393
 2603POPC   C3B35565   8.007   8.498   8.017
 2603POPC   C4B35566   8.003   8.256   7.650
 2604POPC   NC335567  17.598  38.754   9.599
 2604POPC   PO435568  17.220  39.337   9.470
 2604POPC   GL135569  17.486  39.129   9.247
 2604POPC   GL235570  17.221  39.140   9.012
 2604POPC   C1A35571  17.683  39.203   8.857
 2604POPC   D2A35572  17.636  38.987   8.493
 2604POPC   C3A35573  17.643  39.137   8.082
 2604POPC   C4A35574  17.321  39.151   7.800
 2604POPC   C1B35575  17.278  39.446   8.697
 2604POPC   C2B35576  17.556  39.509   8.415
 2604POPC   C3B35577  17.279  39.557   8.086
 2604POPC   C4B35578  17.404  39.657   7.697
 2605POPC   NC335579   2.148   6.017   9.721
 2605POPC   PO435580   1.568   6.052   9.490
 2605POPC   GL135581   1.821   5.852   9.160
 2605POPC   GL235582   2.167   5.945   9.208
 2605POPC   C1A35583   1.743   5.859   8.717
 2605POPC   D2A35584   1.579   5.976   8.321
 2605POPC   C3A35585   1.781   5.685   8.009
 2605POPC   C4A35586   1.710   5.643   7.525
 2605POPC   C1B35587   2.270   5.841   8.806
 2605POPC   C2B35588   2.157   5.736   8.397
 2605POPC   C3B35589   2.225   5.963   8.043
 2605POPC   C4B35590   2.164   5.799   7.677
 2606POPC   NC335591  43.640  44.842   9.399
 2606POPC   PO435592  44.049  44.325   9.545
 2606POPC   GL135593  43.849  44.436   9.158
 2606POPC   GL235594  44.084  44.704   9.179
 2606POPC   C1A35595  43.702  44.698   8.750
 2606POPC   D2A35596  43.771  44.652   8.278
 2606POPC   C3A35597  43.681  44.777   7.793
 2606POPC   C4A35598  43.642   0.102   7.424
 2606POPC   C1B35599  44.176  44.538   8.777
 2606POPC   C2B35600  44.274  44.505   8.358
 2606POPC   C3B35601  44.128  44.503   7.931
 2606POPC   C4B35602  44.349  44.694   7.611
 2607POPC   NC335603  39.945  39.389   9.457
 2607POPC   PO435604  40.624  39.519   9.400
 2607POPC   GL135605  40.325  39.244   9.102
 2607POPC   GL235606  39.950  39.112   9.034
 2607POPC   C1A35607  40.331  39.102   8.690
 2607POPC   D2A35608  40.159  39.297   8.352
 2607POPC   C3A35609  40.239  39.227   7.965
 2607POPC   C4A35610  40.524  39.436   7.749
 2607POPC   C1B35611  39.952  39.509   8.769
 2607POPC   C2B35612  39.774  39.621   8.323
 2607POPC   C3B35613  39.753  39.449   7.864
 2607POPC   C4B35614  39.621  39.478   7.365
 2608POPC   NC335615   0.092  24.199   9.423
 2608POPC   PO435616   0.644  24.584   9.518
 2608POPC   GL135617   0.399  24.595   9.175
 2608POPC   GL235618   0.066  24.720   9.283
 2608POPC   C1A35619   0.434  24.516   8.739
 2608POPC   D2A35620   0.174  24.442   8.388
 2608POPC   C3A35621   0.457  24.536   8.060
 2608POPC   C4A35622   0.730  24.467   7.726
 2608POPC   C1B35623   0.129  24.892   8.865
 2608POPC   C2B35624   0.253  24.961   8.462
 2608POPC   C3B35625   0.090  24.865   8.090
 2608POPC   C4B35626   0.248  24.912   7.711
 2609POPC   NC335627   5.278  11.367   9.522
 2609POPC   PO435628   4.716  11.130   9.471
 2609POPC   GL135629   5.035  11.082   9.158
 2609POPC   GL235630   4.970  11.427   9.056
 2609POPC   C1A35631   5.279  11.098   8.773
 2609POPC   D2A35632   5.016  11.185   8.399
 2609POPC   C3A35633   5.190  11.157   7.983
 2609POPC   C4A35634   4.989  11.113   7.553
 2609POPC   C1B35635   5.172  11.608   8.682
 2609POPC   C2B35636   5.383  11.561   8.275
 2609POPC   C3B35637   5.560  11.553   7.850
 2609POPC   C4B35638   5.547  11.585   7.380
 2610POPC   NC335639  30.074  35.513   9.418
 2610POPC   PO435640  29.501  35.173   9.483
 2610POPC   GL135641  29.732  35.181   9.117
 2610POPC   GL235642  29.699  35.544   9.027
 2610POPC   C1A35643  29.753  34.991   8.703
 2610POPC   D2A35644  29.485  35.075   8.330
 2610POPC   C3A35645  29.644  35.133   7.901
 2610POPC   C4A35646  29.625  35.496   7.598
 2610POPC   C1B35647  30.029  35.433   8.726
 2610POPC   C2B35648  30.085  35.266   8.300
 2610POPC   C3B35649  30.035  35.471   7.895
 2610POPC   C4B35650  30.089  35.633   7.469
 2611POPC   NC335651  16.698  26.414   9.515
 2611POPC   PO435652  17.155  25.901   9.568
 2611POPC   GL135653  17.084  26.146   9.143
 2611POPC   GL235654  16.716  26.196   9.062
 2611POPC   C1A35655  17.034  26.156   8.663
 2611POPC   D2A35656  17.016  26.092   8.189
 2611POPC   C3A35657  17.038  26.368   7.811
 2611POPC   C4A35658  17.030  26.173   7.341
 2611POPC   C1B35659  16.608  26.453   8.706
 2611POPC   C2B35660  16.537  26.217   8.375
 2611POPC   C3B35661  16.518  25.996   8.020
 2611POPC   C4B35662  16.592  26.174   7.613
 2612POPC   NC335663  43.776   0.631   9.721
 2612POPC   PO435664  44.017   0.081   9.534
 2612POPC   GL135665  44.019   0.438   9.300
 2612POPC   GL235666  44.302   0.318   9.152
 2612POPC   C1A35667  43.894   0.586   8.917
 2612POPC   D2A35668  43.761   0.385   8.526
 2612POPC   C3A35669  43.855   0.608   8.144
 2612POPC   C4A35670  43.753   0.459   7.757
 2612POPC   C1B35671  44.051   0.102   8.862
 2612POPC   C2B35672  44.130  44.994   8.472
 2612POPC   C3B35673  43.950   0.093   8.091
 2612POPC   C4B35674  44.100   0.113   7.689
 2613POPC   NC335675   4.798   0.058   9.538
 2613POPC   PO435676   5.286   0.594   9.501
 2613POPC   GL135677   5.129   0.431   9.122
 2613POPC   GL235678   4.793   0.310   9.090
 2613POPC   C1A35679   5.065   0.598   8.722
 2613POPC   D2A35680   5.180   0.353   8.378
 2613POPC   C3A35681   5.126   0.457   7.976
 2613POPC   C4A35682   5.450   0.594   7.739
 2613POPC   C1B35683   4.728   0.196   8.692
 2613POPC   C2B35684   4.770   0.088   8.284
 2613POPC   C3B35685   4.662   0.245   7.902
 2613POPC   C4B35686   4.909   0.291   7.545
 2614POPC   NC335687  17.401  24.125   9.484
 2614POPC   PO435688  17.455  23.489   9.680
 2614POPC   GL135689  17.599  23.633   9.236
 2614POPC   GL235690  17.570  23.976   9.032
 2614POPC   C1A35691  17.545  23.532   8.798
 2614POPC   D2A35692  17.809  23.449   8.439
 2614POPC   C3A35693  17.651  23.676   8.079
 2614POPC   C4A35694  17.734  23.556   7.665
 2614POPC   C1B35695  17.353  23.985   8.644
 2614POPC   C2B35696  17.167  23.806   8.324
 2614POPC   C3B35697  17.223  23.941   7.913
 2614POPC   C4B35698  17.345  23.849   7.505
 2615POPC   NC335699  24.887  26.451   9.480
 2615POPC   PO435700  24.398  26.018   9.792
 2615POPC   GL135701  24.393  26.030   9.315
 2615POPC   GL235702  24.019  26.045   9.171
 2615POPC   C1A35703  24.587  26.191   8.911
 2615POPC   D2A35704  24.580  26.345   8.487
 2615POPC   C3A35705  24.824  26.056   8.205
 2615POPC   C4A35706  24.747  25.897   7.761
 2615POPC   C1B35707  24.183  25.864   8.812
 2615POPC   C2B35708  24.371  25.894   8.415
 2615POPC   C3B35709  24.323  26.040   8.010
 2615POPC   C4B35710  24.254  25.868   7.577
 2616POPC   NC335711  40.729  44.118   9.440
 2616POPC   PO435712  41.000  43.716   9.833
 2616POPC   GL135713  40.904  43.668   9.293
 2616POPC   GL235714  40.887  43.935   9.005
 2616POPC   C1A35715  40.786  43.450   8.869
 2616POPC   D2A35716  40.642  43.691   8.543
 2616POPC   C3A35717  40.940  43.724   8.217
 2616POPC   C4A35718  40.815  43.873   7.830
 2616POPC   C1B35719  41.190  44.154   8.729
 2616POPC   C2B35720  41.273  44.204   8.304
 2616POPC   C3B35721  41.226  44.172   7.891
 2616POPC   C4B35722  40.993  44.186   7.483
 2617POPC   NC335723  41.637  29.587   9.206
 2617POPC   PO435724  41.599  30.265   9.439
 2617POPC   GL135725  41.724  30.091   9.060
 2617POPC   GL235726  41.371  29.981   9.007
 2617POPC   C1A35727  41.929  30.028   8.648
 2617POPC   D2A35728  41.859  29.816   8.244
 2617POPC   C3A35729  41.683  30.006   7.833
 2617POPC   C4A35730  41.569  30.036   7.381
 2617POPC   C1B35731  41.464  29.862   8.598
 2617POPC   C2B35732  41.332  29.993   8.214
 2617POPC   C3B35733  41.219  29.755   7.872
 2617POPC   C4B35734  41.263  29.645   7.472
 2618POPC   NC335735  14.978  31.081   9.885
 2618POPC   PO435736  15.297  31.401   9.387
 2618POPC   GL135737  15.154  31.421   9.024
 2618POPC   GL235738  14.846  31.520   9.115
 2618POPC   C1A35739  15.335  31.538   8.638
 2618POPC   D2A35740  15.530  31.652   8.262
 2618POPC   C3A35741  15.276  31.528   7.923
 2618POPC   C4A35742  15.325  31.564   7.491
 2618POPC   C1B35743  14.846  31.740   8.723
 2618POPC   C2B35744  14.941  31.683   8.307
 2618POPC   C3B35745  14.744  31.622   7.944
 2618POPC   C4B35746  14.881  31.264   7.715
 2619POPC   NC335747  19.851   0.633   9.403
 2619POPC   PO435748  19.471   0.095   9.374
 2619POPC   GL135749  19.699   0.381   9.001
 2619POPC   GL235750  19.782   0.771   8.945
 2619POPC   C1A35751  19.962   0.388   8.627
 2619POPC   D2A35752  20.165   0.128   8.304
 2619POPC   C3A35753  19.997   0.263   7.926
 2619POPC   C4A35754  20.202   0.456   7.596
 2619POPC   C1B35755  19.751   0.990   8.602
 2619POPC   C2B35756  19.820   0.812   8.220
 2619POPC   C3B35757  19.881   0.772   7.810
 2619POPC   C4B35758  19.690   0.680   7.424
 2620POPC   NC335759  32.571  10.786   9.403
 2620POPC   PO435760  32.100  10.327   9.567
 2620POPC   GL135761  32.101  10.358   9.141
 2620POPC   GL235762  32.468  10.284   9.154
 2620POPC   C1A35763  31.951  10.477   8.678
 2620POPC   D2A35764  32.145  10.820   8.390
 2620POPC   C3A35765  32.270  10.708   7.955
 2620POPC   C4A35766  32.019  10.367   7.777
 2620POPC   C1B35767  32.450  10.464   8.762
 2620POPC   C2B35768  32.357  10.332   8.330
 2620POPC   C3B35769  32.581  10.279   7.925
 2620POPC   C4B35770  32.419  10.212   7.499
 2621POPC   NC335771  11.794   8.565   9.492
 2621POPC   PO435772  11.851   9.214   9.500
 2621POPC   GL135773  12.077   9.110   9.118
 2621POPC   GL235774  12.072   8.753   9.121
 2621POPC   C1A35775  11.976   9.103   8.680
 2621POPC   D2A35776  12.108   9.149   8.277
 2621POPC   C3A35777  11.877   9.223   7.920
 2621POPC   C4A35778  12.267   9.172   7.757
 2621POPC   C1B35779  12.159   8.619   8.747
 2621POPC   C2B35780  12.078   8.650   8.342
 2621POPC   C3B35781  11.974   8.725   7.928
 2621POPC   C4B35782  12.277   8.692   7.617
 2622POPC   NC335783  21.613  26.907   9.495
 2622POPC   PO435784  21.001  26.877   9.777
 2622POPC   GL135785  21.078  26.756   9.301
 2622POPC   GL235786  21.374  26.789   9.074
 2622POPC   C1A35787  20.969  26.562   8.870
 2622POPC   D2A35788  21.067  26.694   8.419
 2622POPC   C3A35789  21.303  26.535   8.075
 2622POPC   C4A35790  21.393  26.774   7.714
 2622POPC   C1B35791  21.540  27.095   8.812
 2622POPC   C2B35792  21.278  27.163   8.491
 2622POPC   C3B35793  21.323  27.099   8.092
 2622POPC   C4B35794  21.720  27.105   7.878
 2623POPC   NC335795  26.355  37.101   9.466
 2623POPC   PO435796  25.922  36.506   9.446
 2623POPC   GL135797  25.782  36.876   9.197
 2623POPC   GL235798  26.042  37.109   9.058
 2623POPC   C1A35799  25.619  36.979   8.797
 2623POPC   D2A35800  25.971  37.009   8.535
 2623POPC   C3A35801  25.963  36.985   8.088
 2623POPC   C4A35802  26.174  36.866   7.708
 2623POPC   C1B35803  26.289  36.756   8.882
 2623POPC   C2B35804  26.418  36.460   8.565
 2623POPC   C3B35805  26.319  36.510   8.131
 2623POPC   C4B35806  26.316  36.373   7.724
 2624POPC   NC335807   6.850  12.214   9.401
 2624POPC   PO435808   7.509  12.021   9.539
 2624POPC   GL135809   7.449  12.103   9.117
 2624POPC   GL235810   7.125  12.202   8.986
 2624POPC   C1A35811   7.725  12.136   8.770
 2624POPC   D2A35812   7.839  12.087   8.346
 2624POPC   C3A35813   7.450  12.082   8.115
 2624POPC   C4A35814   7.315  12.220   7.734
 2624POPC   C1B35815   7.011  11.835   8.793
 2624POPC   C2B35816   6.904  11.749   8.361
 2624POPC   C3B35817   6.971  11.937   7.959
 2624POPC   C4B35818   7.025  11.929   7.458
 2625POPC   NC335819  33.654  42.284   9.785
 2625POPC   PO435820  34.196  42.423   9.422
 2625POPC   GL135821  33.868  42.428   9.188
 2625POPC   GL235822  33.596  42.194   9.267
 2625POPC   C1A35823  33.954  42.554   8.781
 2625POPC   D2A35824  34.205  42.326   8.504
 2625POPC   C3A35825  34.171  42.581   8.142
 2625POPC   C4A35826  33.811  42.618   7.877
 2625POPC   C1B35827  33.744  42.084   8.817
 2625POPC   C2B35828  33.708  42.216   8.398
 2625POPC   C3B35829  33.798  42.104   8.000
 2625POPC   C4B35830  33.702  42.180   7.594
 2626POPC   NC335831  27.661  43.378   9.258
 2626POPC   PO435832  27.244  42.869   9.462
 2626POPC   GL135833  27.451  42.961   9.045
 2626POPC   GL235834  27.340  42.828   8.757
 2626POPC   C1A35835  27.857  42.959   8.713
 2626POPC   D2A35836  28.051  42.869   8.297
 2626POPC   C3A35837  27.885  42.940   7.899
 2626POPC   C4A35838  27.894  43.177   7.503
 2626POPC   C1B35839  27.483  43.268   8.630
 2626POPC   C2B35840  27.599  43.372   8.253
 2626POPC   C3B35841  27.491  43.247   7.893
 2626POPC   C4B35842  27.371  42.822   7.816
 2627POPC   NC335843  29.686  28.933   9.584
 2627POPC   PO435844  30.207  29.377   9.630
 2627POPC   GL135845  29.923  29.259   9.236
 2627POPC   GL235846  29.851  28.889   9.121
 2627POPC   C1A35847  29.808  29.377   8.822
 2627POPC   D2A35848  29.665  29.192   8.417
 2627POPC   C3A35849  29.807  29.337   8.007
 2627POPC   C4A35850  29.905  29.705   7.750
 2627POPC   C1B35851  30.122  28.968   8.788
 2627POPC   C2B35852  30.161  29.212   8.429
 2627POPC   C3B35853  30.215  29.037   8.060
 2627POPC   C4B35854  30.042  28.975   7.695
 2628POPC   NC335855  23.973  43.775   9.444
 2628POPC   PO435856  23.622  44.382   9.554
 2628POPC   GL135857  23.572  44.053   9.170
 2628POPC   GL235858  23.539  43.675   9.139
 2628POPC   C1A35859  23.703  43.935   8.723
 2628POPC   D2A35860  23.896  43.993   8.307
 2628POPC   C3A35861  23.640  43.951   7.946
 2628POPC   C4A35862  23.683  44.182   7.582
 2628POPC   C1B35863  23.873  43.480   8.868
 2628POPC   C2B35864  23.893  43.471   8.421
 2628POPC   C3B35865  24.014  43.565   8.005
 2628POPC   C4B35866  23.921  43.723   7.587
 2629POPC   NC335867  19.825   5.447   9.651
 2629POPC   PO435868  20.059   4.821   9.597
 2629POPC   GL135869  19.836   5.043   9.255
 2629POPC   GL235870  20.061   5.327   9.197
 2629POPC   C1A35871  19.724   5.201   8.813
 2629POPC   D2A35872  19.981   5.193   8.415
 2629POPC   C3A35873  19.769   5.163   8.044
 2629POPC   C4A35874  19.701   5.426   7.728
 2629POPC   C1B35875  20.244   5.414   8.801
 2629POPC   C2B35876  20.422   5.439   8.358
 2629POPC   C3B35877  20.278   5.305   7.931
 2629POPC   C4B35878  20.051   5.080   7.579
 2630POPC   NC335879  17.953   9.585   9.492
 2630POPC   PO435880  18.520   9.918   9.440
 2630POPC   GL135881  18.296   9.749   9.099
 2630POPC   GL235882  17.959   9.903   9.083
 2630POPC   C1A35883  18.505   9.719   8.700
 2630POPC   D2A35884  18.645   9.366   8.474
 2630POPC   C3A35885  18.620   9.487   8.064
 2630POPC   C4A35886  18.408   9.801   7.821
 2630POPC   C1B35887  17.985   9.834   8.663
 2630POPC   C2B35888  18.159   9.725   8.288
 2630POPC   C3B35889  17.940  10.026   8.066
 2630POPC   C4B35890  17.966  10.029   7.676
 2631POPC   NC335891  21.095  16.251   9.808
 2631POPC   PO435892  21.635  15.971   9.653
 2631POPC   GL135893  21.553  16.147   9.237
 2631POPC   GL235894  21.191  16.253   9.293
 2631POPC   C1A35895  21.689  16.054   8.792
 2631POPC   D2A35896  21.866  15.936   8.396
 2631POPC   C3A35897  21.600  16.048   8.001
 2631POPC   C4A35898  21.480  15.948   7.550
 2631POPC   C1B35899  21.210  16.226   8.836
 2631POPC   C2B35900  21.245  16.037   8.412
 2631POPC   C3B35901  21.111  16.184   8.010
 2631POPC   C4B35902  21.218  16.367   7.619
 2632POPC   NC335903   6.650   4.842   9.915
 2632POPC   PO435904   6.525   5.248   9.423
 2632POPC   GL135905   6.698   5.076   9.097
 2632POPC   GL235906   6.384   5.130   8.935
 2632POPC   C1A35907   6.853   5.152   8.728
 2632POPC   D2A35908   6.646   5.399   8.444
 2632POPC   C3A35909   6.831   5.274   8.104
 2632POPC   C4A35910   6.772   5.013   7.763
 2632POPC   C1B35911   6.443   4.792   8.685
 2632POPC   C2B35912   6.626   4.846   8.309
 2632POPC   C3B35913   6.388   4.753   7.967
 2632POPC   C4B35914   6.027   4.833   7.737
 2633POPC   NC335915  44.111  20.503   9.455
 2633POPC   PO435916  43.451  20.320   9.470
 2633POPC   GL135917  43.677  20.502   9.117
 2633POPC   GL235918  43.752  20.828   9.271
 2633POPC   C1A35919  44.012  20.461   8.761
 2633POPC   D2A35920  44.331  20.482   8.407
 2633POPC   C3A35921  44.200  20.487   7.978
 2633POPC   C4A35922  43.857  20.637   7.710
 2633POPC   C1B35923  43.741  20.916   8.814
 2633POPC   C2B35924  43.793  20.758   8.390
 2633POPC   C3B35925  43.522  20.784   8.058
 2633POPC   C4B35926  43.537  21.022   7.682
 2634POPC   NC335927  13.133  10.831   9.468
 2634POPC   PO435928  12.707  10.302   9.504
 2634POPC   GL135929  12.832  10.510   9.142
 2634POPC   GL235930  12.729  10.857   9.162
 2634POPC   C1A35931  12.787  10.382   8.716
 2634POPC   D2A35932  12.863  10.123   8.361
 2634POPC   C3A35933  12.971  10.336   7.990
 2634POPC   C4A35934  13.071  10.235   7.588
 2634POPC   C1B35935  12.960  10.861   8.776
 2634POPC   C2B35936  13.088  10.725   8.355
 2634POPC   C3B35937  12.990  10.860   7.920
 2634POPC   C4B35938  12.942  10.716   7.462
 2635POPC   NC335939  15.678   5.688   9.600
 2635POPC   PO435940  16.291   5.794   9.504
 2635POPC   GL135941  16.027   5.777   9.169
 2635POPC   GL235942  16.264   5.544   9.068
 2635POPC   C1A35943  15.887   5.641   8.751
 2635POPC   D2A35944  15.971   5.872   8.379
 2635POPC   C3A35945  15.853   5.694   8.024
 2635POPC   C4A35946  15.830   5.741   7.621
 2635POPC   C1B35947  16.376   5.816   8.720
 2635POPC   C2B35948  16.472   5.843   8.278
 2635POPC   C3B35949  16.321   5.823   7.830
 2635POPC   C4B35950  16.253   5.669   7.358
 2636POPC   NC335951  38.826  22.238   9.279
 2636POPC   PO435952  39.480  21.972   9.532
 2636POPC   GL135953  39.343  22.236   9.194
 2636POPC   GL235954  39.192  21.969   9.087
 2636POPC   C1A35955  39.195  22.302   8.718
 2636POPC   D2A35956  39.276  22.425   8.276
 2636POPC   C3A35957  39.211  22.237   7.877
 2636POPC   C4A35958  39.383  21.846   7.830
 2636POPC   C1B35959  38.955  21.856   8.712
 2636POPC   C2B35960  39.030  21.959   8.281
 2636POPC   C3B35961  38.839  21.815   7.895
 2636POPC   C4B35962  39.004  21.851   7.458
 2637POPC   NC335963  35.031  20.227   9.442
 2637POPC   PO435964  34.438  20.579   9.562
 2637POPC   GL135965  34.563  20.572   9.147
 2637POPC   GL235966  34.914  20.499   9.041
 2637POPC   C1A35967  34.510  20.743   8.741
 2637POPC   D2A35968  34.265  20.899   8.404
 2637POPC   C3A35969  34.382  20.955   7.981
 2637POPC   C4A35970  34.272  20.724   7.626
 2637POPC   C1B35971  34.922  20.441   8.603
 2637POPC   C2B35972  34.705  20.630   8.271
 2637POPC   C3B35973  34.656  20.528   7.893
 2637POPC   C4B35974  34.975  20.332   7.619
 2638POPC   NC335975   3.514  35.535   9.428
 2638POPC   PO435976   2.888  35.087   9.488
 2638POPC   GL135977   3.226  35.122   9.141
 2638POPC   GL235978   3.597  35.127   9.175
 2638POPC   C1A35979   3.390  35.357   8.761
 2638POPC   D2A35980   3.573  35.371   8.334
 2638POPC   C3A35981   3.367  35.629   8.011
 2638POPC   C4A35982   3.271  35.548   7.555
 2638POPC   C1B35983   3.884  35.170   8.816
 2638POPC   C2B35984   4.058  35.178   8.401
 2638POPC   C3B35985   4.047  35.096   7.928
 2638POPC   C4B35986   3.704  35.354   7.755
 2639POPC   NC335987   2.964  17.902   9.801
 2639POPC   PO435988   2.522  17.370   9.549
 2639POPC   GL135989   2.673  17.239   9.159
 2639POPC   GL235990   2.850  17.524   9.135
 2639POPC   C1A35991   2.708  17.243   8.727
 2639POPC   D2A35992   2.540  17.237   8.333
 2639POPC   C3A35993   2.804  17.320   7.968
 2639POPC   C4A35994   3.072  17.137   7.655
 2639POPC   C1B35995   2.657  17.746   8.785
 2639POPC   C2B35996   2.813  17.663   8.387
 2639POPC   C3B35997   3.144  17.667   8.101
 2639POPC   C4B35998   3.010  17.714   7.667
 2640POPC   NC335999  22.711   1.008   9.797
 2640POPC   PO436000  23.148   1.351   9.465
 2640POPC   GL136001  22.838   1.350   9.151
 2640POPC   GL236002  22.650   1.054   9.237
 2640POPC   C1A36003  22.882   1.450   8.710
 2640POPC   D2A36004  23.023   1.344   8.305
 2640POPC   C3A36005  22.799   1.454   7.928
 2640POPC   C4A36006  22.879   1.460   7.482
 2640POPC   C1B36007  22.880   0.937   8.868
 2640POPC   C2B36008  22.746   0.925   8.471
 2640POPC   C3B36009  22.817   0.936   8.049
 2640POPC   C4B36010  22.597   1.045   7.677
 2641POPC   NC336011  38.147  24.905   9.648
 2641POPC   PO436012  38.520  25.511   9.493
 2641POPC   GL136013  38.512  25.301   9.143
 2641POPC   GL236014  38.206  25.109   9.166
 2641POPC   C1A36015  38.549  25.477   8.743
 2641POPC   D2A36016  38.743  25.375   8.372
 2641POPC   C3A36017  38.535  25.306   8.002
 2641POPC   C4A36018  38.451  25.642   7.750
 2641POPC   C1B36019  38.425  24.952   8.781
 2641POPC   C2B36020  38.216  24.863   8.396
 2641POPC   C3B36021  38.040  24.885   8.001
 2641POPC   C4B36022  38.063  25.254   7.748
 2642POPC   NC336023   2.209  37.419   9.404
 2642POPC   PO436024   1.643  37.718   9.503
 2642POPC   GL136025   1.874  37.741   9.120
 2642POPC   GL236026   2.134  37.984   9.052
 2642POPC   C1A36027   1.858  37.754   8.685
 2642POPC   D2A36028   1.833  37.490   8.360
 2642POPC   C3A36029   2.014  37.528   7.981
 2642POPC   C4A36030   1.826  37.324   7.668
 2642POPC   C1B36031   2.370  37.893   8.690
 2642POPC   C2B36032   2.337  37.779   8.268
 2642POPC   C3B36033   2.300  37.930   7.833
 2642POPC   C4B36034   2.196  38.019   7.388
 2643POPC   NC336035   4.822   4.701   9.477
 2643POPC   PO436036   5.346   5.097   9.509
 2643POPC   GL136037   4.979   5.128   9.149
 2643POPC   GL236038   4.756   5.466   9.102
 2643POPC   C1A36039   4.896   4.973   8.738
 2643POPC   D2A36040   4.781   4.879   8.319
 2643POPC   C3A36041   5.131   4.873   8.061
 2643POPC   C4A36042   5.164   5.011   7.652
 2643POPC   C1B36043   5.031   5.497   8.762
 2643POPC   C2B36044   5.244   5.264   8.412
 2643POPC   C3B36045   5.330   5.371   7.980
 2643POPC   C4B36046   5.235   5.493   7.556
 2644POPC   NC336047  12.611  20.390   9.439
 2644POPC   PO436048  12.821  20.983   9.575
 2644POPC   GL136049  12.760  20.783   9.141
 2644POPC   GL236050  12.418  20.703   9.072
 2644POPC   C1A36051  12.941  20.677   8.720
 2644POPC   D2A36052  12.833  20.366   8.370
 2644POPC   C3A36053  13.162  20.300   8.026
 2644POPC   C4A36054  13.230  20.461   7.593
 2644POPC   C1B36055  12.451  20.661   8.615
 2644POPC   C2B36056  12.683  20.887   8.313
 2644POPC   C3B36057  12.788  20.687   7.973
 2644POPC   C4B36058  12.454  20.421   8.006
 2645POPC   NC336059  19.940  11.600   9.437
 2645POPC   PO436060  20.235  11.039   9.622
 2645POPC   GL136061  20.114  11.172   9.170
 2645POPC   GL236062  19.750  11.091   9.056
 2645POPC   C1A36063  20.038  11.245   8.700
 2645POPC   D2A36064  19.713  10.990   8.482
 2645POPC   C3A36065  19.823  11.006   8.057
 2645POPC   C4A36066  20.089  11.293   7.838
 2645POPC   C1B36067  19.545  11.388   8.764
 2645POPC   C2B36068  19.689  11.485   8.331
 2645POPC   C3B36069  19.610  11.456   7.868
 2645POPC   C4B36070  19.563  11.573   7.417
 2646POPC   NC336071  31.102  33.525   9.548
 2646POPC   PO436072  30.642  33.996   9.450
 2646POPC   GL136073  30.694  34.148   9.078
 2646POPC   GL236074  30.845  33.838   9.006
 2646POPC   C1A36075  30.532  34.092   8.677
 2646POPC   D2A36076  30.600  33.773   8.408
 2646POPC   C3A36077  30.611  33.894   8.012
 2646POPC   C4A36078  30.475  33.995   7.648
 2646POPC   C1B36079  31.101  33.892   8.670
 2646POPC   C2B36080  31.071  33.995   8.249
 2646POPC   C3B36081  31.093  33.780   7.863
 2646POPC   C4B36082  30.782  33.507   7.716
 2647POPC   NC336083   0.903  32.001   9.491
 2647POPC   PO436084   0.330  32.366   9.495
 2647POPC   GL136085   0.472  32.212   9.125
 2647POPC   GL236086   0.750  32.406   9.153
 2647POPC   C1A36087   0.445  32.088   8.689
 2647POPC   D2A36088   0.175  31.978   8.355
 2647POPC   C3A36089   0.330  32.207   7.973
 2647POPC   C4A36090   0.672  32.136   7.667
 2647POPC   C1B36091   0.659  32.551   8.737
 2647POPC   C2B36092   0.685  32.387   8.301
 2647POPC   C3B36093   0.669  32.585   7.887
 2647POPC   C4B36094   0.639  32.608   7.415
 2648POPC   NC336095  10.477  33.622   9.401
 2648POPC   PO436096  10.898  34.121   9.442
 2648POPC   GL136097  10.817  33.870   9.081
 2648POPC   GL236098  10.454  33.843   8.943
 2648POPC   C1A36099  10.796  33.513   8.805
 2648POPC   D2A36100  10.544  33.478   8.450
 2648POPC   C3A36101  10.629  33.674   8.047
 2648POPC   C4A36102  10.241  33.633   7.836
 2648POPC   C1B36103  10.751  33.968   8.586
 2648POPC   C2B36104  10.984  34.004   8.216
 2648POPC   C3B36105  10.871  34.093   7.782
 2648POPC   C4B36106  10.557  33.885   7.504
 2649POPC   NC336107  17.555  25.586   9.498
 2649POPC   PO436108  17.890  26.178   9.488
 2649POPC   GL136109  17.639  26.024   9.192
 2649POPC   GL236110  17.804  25.728   9.084
 2649POPC   C1A36111  17.547  26.163   8.774
 2649POPC   D2A36112  17.409  26.373   8.385
 2649POPC   C3A36113  17.573  26.315   7.971
 2649POPC   C4A36114  17.484  26.331   7.529
 2649POPC   C1B36115  17.340  25.729   8.913
 2649POPC   C2B36116  17.287  25.726   8.499
 2649POPC   C3B36117  17.407  25.731   8.109
 2649POPC   C4B36118  17.281  25.928   7.743
 2650POPC   NC336119  41.953  18.153   9.398
 2650POPC   PO436120  41.351  18.403   9.526
 2650POPC   GL136121  41.582  18.325   9.124
 2650POPC   GL236122  41.494  18.016   9.129
 2650POPC   C1A36123  41.703  18.217   8.674
 2650POPC   D2A36124  41.545  18.443   8.287
 2650POPC   C3A36125  41.689  18.426   7.842
 2650POPC   C4A36126  41.664  18.509   7.385
 2650POPC   C1B36127  41.380  17.829   8.754
 2650POPC   C2B36128  41.429  17.652   8.325
 2650POPC   C3B36129  41.389  17.737   7.860
 2650POPC   C4B36130  41.450  18.047   7.518
 2651POPC   NC336131  27.821   9.264   9.671
 2651POPC   PO436132  27.280   9.042   9.481
 2651POPC   GL136133  27.557   8.931   9.155
 2651POPC   GL236134  27.877   8.933   9.290
 2651POPC   C1A36135  27.638   9.109   8.744
 2651POPC   D2A36136  27.577   9.391   8.380
 2651POPC   C3A36137  27.476   9.197   7.978
 2651POPC   C4A36138  27.530   8.762   7.843
 2651POPC   C1B36139  28.047   8.739   8.931
 2651POPC   C2B36140  28.072   8.743   8.498
 2651POPC   C3B36141  27.857   8.531   8.162
 2651POPC   C4B36142  28.041   8.673   7.778
 2652POPC   NC336143   2.000  29.406   9.427
 2652POPC   PO436144   1.850  28.678   9.426
 2652POPC   GL136145   2.122  28.886   9.094
 2652POPC   GL236146   2.053  29.245   8.959
 2652POPC   C1A36147   2.195  28.895   8.648
 2652POPC   D2A36148   1.900  29.134   8.382
 2652POPC   C3A36149   1.904  28.960   7.994
 2652POPC   C4A36150   2.125  28.840   7.591
 2652POPC   C1B36151   1.679  29.427   8.763
 2652POPC   C2B36152   1.686  29.599   8.347
 2652POPC   C3B36153   1.688  29.425   7.934
 2652POPC   C4B36154   1.813  29.608   7.542
 2653POPC   NC336155  43.649  44.079   9.496
 2653POPC   PO436156  44.143  43.651   9.411
 2653POPC   GL136157  43.906  43.838   9.068
 2653POPC   GL236158  43.558  43.986   9.015
 2653POPC   C1A36159  43.870  43.689   8.623
 2653POPC   D2A36160  44.079  43.570   8.232
 2653POPC   C3A36161  43.844  43.798   7.923
 2653POPC   C4A36162  43.944  44.087   7.631
 2653POPC   C1B36163  43.802  44.193   8.709
 2653POPC   C2B36164  43.899  44.147   8.292
 2653POPC   C3B36165  43.615  44.284   7.955
 2653POPC   C4B36166  43.512  44.300   7.517
 2654POPC   NC336167  17.070  42.285   9.542
 2654POPC   PO436168  16.826  42.853   9.580
 2654POPC   GL136169  16.990  42.645   9.198
 2654POPC   GL236170  16.659  42.626   9.064
 2654POPC   C1A36171  17.007  42.268   8.843
 2654POPC   D2A36172  17.274  42.156   8.424
 2654POPC   C3A36173  17.032  42.214   7.990
 2654POPC   C4A36174  16.581  42.154   7.788
 2654POPC   C1B36175  16.923  42.770   8.720
 2654POPC   C2B36176  17.057  42.609   8.335
 2654POPC   C3B36177  16.906  42.698   7.920
 2654POPC   C4B36178  16.750  42.755   7.513
 2655POPC   NC336179  19.319  20.590   9.600
 2655POPC   PO436180  18.738  20.256   9.425
 2655POPC   GL136181  18.750  20.540   9.109
 2655POPC   GL236182  19.014  20.724   9.227
 2655POPC   C1A36183  18.597  20.564   8.709
 2655POPC   D2A36184  18.743  20.450   8.317
 2655POPC   C3A36185  18.578  20.677   8.014
 2655POPC   C4A36186  18.718  20.619   7.596
 2655POPC   C1B36187  19.226  20.589   8.863
 2655POPC   C2B36188  19.211  20.635   8.395
 2655POPC   C3B36189  19.099  20.470   7.947
 2655POPC   C4B36190  19.222  20.668   7.556
 2656POPC   NC336191   1.731   3.182   9.750
 2656POPC   PO436192   2.184   3.679   9.460
 2656POPC   GL136193   2.202   3.685   9.042
 2656POPC   GL236194   1.851   3.708   9.014
 2656POPC   C1A36195   2.105   3.503   8.642
 2656POPC   D2A36196   1.807   3.505   8.350
 2656POPC   C3A36197   2.065   3.433   8.047
 2656POPC   C4A36198   2.036   3.593   7.673
 2656POPC   C1B36199   1.521   3.737   8.724
 2656POPC   C2B36200   1.518   3.935   8.319
 2656POPC   C3B36201   1.667   3.837   7.924
 2656POPC   C4B36202   1.518   3.711   7.513
 2657POPC   NC336203  22.034   4.860   9.430
 2657POPC   PO436204  22.518   5.339   9.260
 2657POPC   GL136205  22.238   5.130   9.058
 2657POPC   GL236206  21.987   5.327   9.168
 2657POPC   C1A36207  22.250   5.018   8.664
 2657POPC   D2A36208  22.504   5.030   8.373
 2657POPC   C3A36209  22.265   5.034   8.011
 2657POPC   C4A36210  22.370   5.207   7.602
 2657POPC   C1B36211  21.787   5.188   8.789
 2657POPC   C2B36212  21.825   5.031   8.377
 2657POPC   C3B36213  21.762   5.204   7.995
 2657POPC   C4B36214  21.883   5.114   7.596
 2658POPC   NC336215  30.334  26.399   9.478
 2658POPC   PO436216  29.971  25.841   9.505
 2658POPC   GL136217  30.058  26.051   9.135
 2658POPC   GL236218  29.909  26.360   9.146
 2658POPC   C1A36219  29.954  26.010   8.708
 2658POPC   D2A36220  29.819  25.854   8.344
 2658POPC   C3A36221  29.925  26.002   7.944
 2658POPC   C4A36222  29.846  25.820   7.528
 2658POPC   C1B36223  30.110  26.486   8.733
 2658POPC   C2B36224  30.131  26.322   8.307
 2658POPC   C3B36225  30.156  26.480   7.896
 2658POPC   C4B36226  30.092  26.248   7.524
 2659POPC   NC336227  11.841  19.158   9.698
 2659POPC   PO436228  11.148  19.099   9.535
 2659POPC   GL136229  11.382  19.214   9.202
 2659POPC   GL236230  11.624  19.452   9.317
 2659POPC   C1A36231  11.397  19.044   8.798
 2659POPC   D2A36232  11.235  19.124   8.392
 2659POPC   C3A36233  11.353  18.958   8.037
 2659POPC   C4A36234  11.349  18.682   7.715
 2659POPC   C1B36235  11.757  19.404   8.881
 2659POPC   C2B36236  11.747  19.238   8.464
 2659POPC   C3B36237  11.552  19.441   8.131
 2659POPC   C4B36238  11.588  19.317   7.749
 2660POPC   NC336239  41.882  41.121   9.258
 2660POPC   PO436240  41.548  40.617   9.666
 2660POPC   GL136241  41.559  40.504   9.246
 2660POPC   GL236242  41.432  40.844   9.192
 2660POPC   C1A36243  41.652  40.573   8.797
 2660POPC   D2A36244  41.875  40.852   8.507
 2660POPC   C3A36245  41.873  40.711   8.091
 2660POPC   C4A36246  41.733  40.995   7.816
 2660POPC   C1B36247  41.288  41.043   8.843
 2660POPC   C2B36248  41.257  40.877   8.432
 2660POPC   C3B36249  41.349  40.699   8.027
 2660POPC   C4B36250  41.258  40.868   7.633
 2661POPC   NC336251  23.168  20.846   9.444
 2661POPC   PO436252  23.750  20.475   9.463
 2661POPC   GL136253  23.516  20.445   9.075
 2661POPC   GL236254  23.494  20.792   9.015
 2661POPC   C1A36255  23.463  20.513   8.586
 2661POPC   D2A36256  23.569  20.432   8.132
 2661POPC   C3A36257  23.667  20.475   7.685
 2661POPC   C4A36258  23.887  20.271   7.339
 2661POPC   C1B36259  23.235  20.997   8.702
 2661POPC   C2B36260  23.268  20.885   8.271
 2661POPC   C3B36261  23.608  20.920   7.952
 2661POPC   C4B36262  23.527  20.950   7.511
 2662POPC   NC336263   1.215   8.534   9.369
 2662POPC   PO436264   1.485   7.838   9.483
 2662POPC   GL136265   1.357   8.091   9.158
 2662POPC   GL236266   0.991   8.047   9.236
 2662POPC   C1A36267   1.415   8.340   8.763
 2662POPC   D2A36268   1.497   8.191   8.308
 2662POPC   C3A36269   1.587   8.400   7.914
 2662POPC   C4A36270   1.363   8.391   7.494
 2662POPC   C1B36271   1.041   8.000   8.772
 2662POPC   C2B36272   1.009   8.344   8.454
 2662POPC   C3B36273   1.049   8.353   8.013
 2662POPC   C4B36274   0.979   7.983   7.785
 2663POPC   NC336275  14.473  15.632   9.641
 2663POPC   PO436276  14.490  16.290   9.600
 2663POPC   GL136277  14.346  16.120   9.171
 2663POPC   GL236278  14.175  15.793   9.030
 2663POPC   C1A36279  14.420  16.177   8.718
 2663POPC   D2A36280  14.231  16.137   8.312
 2663POPC   C3A36281  14.422  16.144   7.912
 2663POPC   C4A36282  14.598  16.109   7.478
 2663POPC   C1B36283  14.183  15.680   8.601
 2663POPC   C2B36284  14.463  15.638   8.276
 2663POPC   C3B36285  14.468  15.621   7.843
 2663POPC   C4B36286  14.140  15.850   7.630
 2664POPC   NC336287  21.721  42.191   9.254
 2664POPC   PO436288  22.254  42.510   9.601
 2664POPC   GL136289  22.085  42.614   9.171
 2664POPC   GL236290  22.133  42.295   8.983
 2664POPC   C1A36291  22.205  42.707   8.724
 2664POPC   D2A36292  22.261  42.419   8.388
 2664POPC   C3A36293  22.116  42.651   8.058
 2664POPC   C4A36294  22.082  42.825   7.671
 2664POPC   C1B36295  21.820  42.331   8.647
 2664POPC   C2B36296  21.763  42.150   8.281
 2664POPC   C3B36297  22.004  42.170   7.970
 2664POPC   C4B36298  21.991  42.346   7.563
 2665POPC   NC336299  35.294   2.252   9.516
 2665POPC   PO436300  35.413   2.950   9.676
 2665POPC   GL136301  35.232   2.859   9.228
 2665POPC   GL236302  35.270   2.526   9.070
 2665POPC   C1A36303  35.260   2.945   8.772
 2665POPC   D2A36304  35.431   2.736   8.387
 2665POPC   C3A36305  35.329   2.844   7.945
 2665POPC   C4A36306  35.499   3.092   7.578
 2665POPC   C1B36307  35.035   2.460   8.679
 2665POPC   C2B36308  35.022   2.495   8.231
 2665POPC   C3B36309  35.239   2.359   7.828
 2665POPC   C4B36310  35.244   2.272   7.368
 2666POPC   NC336311  27.227  36.968   9.683
 2666POPC   PO436312  27.774  36.855   9.390
 2666POPC   GL136313  27.673  37.098   9.094
 2666POPC   GL236314  27.607  36.799   8.888
 2666POPC   C1A36315  27.644  37.279   8.719
 2666POPC   D2A36316  27.574  36.988   8.401
 2666POPC   C3A36317  27.711  37.090   8.035
 2666POPC   C4A36318  27.609  36.885   7.676
 2666POPC   C1B36319  27.510  36.481   8.569
 2666POPC   C2B36320  27.247  36.461   8.183
 2666POPC   C3B36321  27.284  36.496   7.714
 2666POPC   C4B36322  27.535  36.451   7.325
 2667POPC   NC336323  13.124  40.802   9.294
 2667POPC   PO436324  12.460  40.711   9.511
 2667POPC   GL136325  12.702  40.496   9.141
 2667POPC   GL236326  13.054  40.324   9.141
 2667POPC   C1A36327  12.846  40.718   8.738
 2667POPC   D2A36328  12.678  40.899   8.377
 2667POPC   C3A36329  12.938  40.874   8.034
 2667POPC   C4A36330  12.738  40.940   7.675
 2667POPC   C1B36331  12.907  40.210   8.719
 2667POPC   C2B36332  12.618  40.375   8.421
 2667POPC   C3B36333  12.581  40.515   7.974
 2667POPC   C4B36334  12.979  40.482   7.709
 2668POPC   NC336335  26.204  11.554   9.625
 2668POPC   PO436336  25.745  11.064   9.393
 2668POPC   GL136337  26.052  11.190   9.110
 2668POPC   GL236338  26.077  11.530   8.991
 2668POPC   C1A36339  25.966  11.110   8.683
 2668POPC   D2A36340  25.753  11.177   8.329
 2668POPC   C3A36341  25.956  11.245   8.000
 2668POPC   C4A36342  26.083  10.904   7.841
 2668POPC   C1B36343  25.709  11.561   8.681
 2668POPC   C2B36344  25.713  11.675   8.262
 2668POPC   C3B36345  25.621  11.597   7.826
 2668POPC   C4B36346  25.660  11.488   7.380
 2669POPC   NC336347  42.548  42.616   9.498
 2669POPC   PO436348  41.939  42.322   9.471
 2669POPC   GL136349  42.203  42.470   9.086
 2669POPC   GL236350  42.534  42.343   9.077
 2669POPC   C1A36351  42.384  42.437   8.616
 2669POPC   D2A36352  42.395  42.620   8.198
 2669POPC   C3A36353  42.071  42.557   7.940
 2669POPC   C4A36354  42.221  42.198   7.744
 2669POPC   C1B36355  42.666  42.030   8.804
 2669POPC   C2B36356  42.455  41.972   8.417
 2669POPC   C3B36357  42.597  41.988   8.020
 2669POPC   C4B36358  42.726  42.303   7.766
 2670POPC   NC336359   4.544   7.960   9.493
 2670POPC   PO436360   4.118   8.425   9.707
 2670POPC   GL136361   4.276   8.344   9.247
 2670POPC   GL236362   4.595   8.191   9.053
 2670POPC   C1A36363   4.144   8.293   8.807
 2670POPC   D2A36364   4.355   8.191   8.407
 2670POPC   C3A36365   4.086   8.107   8.046
 2670POPC   C4A36366   4.227   8.163   7.613
 2670POPC   C1B36367   4.577   7.848   8.721
 2670POPC   C2B36368   4.479   7.690   8.295
 2670POPC   C3B36369   4.553   7.930   7.905
 2670POPC   C4B36370   4.588   7.817   7.419
 2671POPC   NC336371  43.423  23.810   9.451
 2671POPC   PO436372  44.094  23.664   9.441
 2671POPC   GL136373  43.861  23.708   9.055
 2671POPC   GL236374  43.589  23.943   8.984
 2671POPC   C1A36375  43.761  23.653   8.597
 2671POPC   D2A36376  43.470  23.592   8.274
 2671POPC   C3A36377  43.617  23.839   7.900
 2671POPC   C4A36378  43.880  23.677   7.571
 2671POPC   C1B36379  43.973  24.096   8.733
 2671POPC   C2B36380  44.086  24.184   8.326
 2671POPC   C3B36381  44.219  24.119   7.919
 2671POPC   C4B36382  43.939  24.165   7.591
 2672POPC   NC336383   5.769   9.915   9.496
 2672POPC   PO436384   6.429   9.527   9.491
 2672POPC   GL136385   6.104   9.627   9.161
 2672POPC   GL236386   5.721   9.673   9.054
 2672POPC   C1A36387   6.123   9.777   8.734
 2672POPC   D2A36388   6.044   9.788   8.300
 2672POPC   C3A36389   6.327   9.993   8.043
 2672POPC   C4A36390   6.170  10.088   7.667
 2672POPC   C1B36391   5.466   9.592   8.695
 2672POPC   C2B36392   5.511   9.795   8.278
 2672POPC   C3B36393   5.697   9.806   7.856
 2672POPC   C4B36394   5.468   9.797   7.427
 2673POPC   NC336395  27.068  40.951   9.335
 2673POPC   PO436396  26.411  40.720   9.476
 2673POPC   GL136397  26.639  40.660   9.088
 2673POPC   GL236398  27.004  40.513   9.091
 2673POPC   C1A36399  26.538  40.879   8.676
 2673POPC   D2A36400  26.785  41.034   8.308
 2673POPC   C3A36401  26.826  40.821   7.927
 2673POPC   C4A36402  26.585  40.435   7.793
 2673POPC   C1B36403  26.981  40.659   8.698
 2673POPC   C2B36404  26.798  40.489   8.321
 2673POPC   C3B36405  27.077  40.368   7.975
 2673POPC   C4B36406  27.040  40.537   7.571
 2674POPC   NC336407  27.441   1.397   9.557
 2674POPC   PO436408  27.842   0.922   9.555
 2674POPC   GL136409  27.597   1.020   9.172
 2674POPC   GL236410  27.594   1.386   9.090
 2674POPC   C1A36411  27.529   1.062   8.718
 2674POPC   D2A36412  27.732   0.841   8.397
 2674POPC   C3A36413  27.524   1.066   8.082
 2674POPC   C4A36414  27.537   1.055   7.645
 2674POPC   C1B36415  27.688   1.641   8.773
 2674POPC   C2B36416  27.781   1.824   8.385
 2674POPC   C3B36417  27.653   1.560   8.028
 2674POPC   C4B36418  27.504   1.569   7.613
 2675POPC   NC336419  29.697  30.694   9.332
 2675POPC   PO436420  30.180  30.204   9.381
 2675POPC   GL136421  30.145  30.541   9.027
 2675POPC   GL236422  30.413  30.848   8.988
 2675POPC   C1A36423  29.953  30.830   8.730
 2675POPC   D2A36424  30.077  31.037   8.333
 2675POPC   C3A36425  29.878  30.893   7.968
 2675POPC   C4A36426  29.807  30.623   7.568
 2675POPC   C1B36427  30.398  30.677   8.572
 2675POPC   C2B36428  30.053  30.503   8.327
 2675POPC   C3B36429  30.133  30.458   7.934
 2675POPC   C4B36430  30.348  30.844   7.822
 2676POPC   NC336431  25.128  42.825   9.522
 2676POPC   PO436432  25.245  43.510   9.586
 2676POPC   GL136433  25.346  43.209   9.281
 2676POPC   GL236434  25.019  43.122   9.117
 2676POPC   C1A36435  25.484  43.210   8.863
 2676POPC   D2A36436  25.601  43.044   8.469
 2676POPC   C3A36437  25.387  43.222   8.154
 2676POPC   C4A36438  25.308  43.290   7.726
 2676POPC   C1B36439  25.161  42.845   8.797
 2676POPC   C2B36440  25.121  42.821   8.367
 2676POPC   C3B36441  25.346  42.764   7.957
 2676POPC   C4B36442  25.036  42.871   7.653
 2677POPC   NC336443   4.904  14.015   9.557
 2677POPC   PO436444   4.902  13.402   9.696
 2677POPC   GL136445   5.063  13.690   9.227
 2677POPC   GL236446   5.333  13.524   9.018
 2677POPC   C1A36447   5.023  13.783   8.749
 2677POPC   D2A36448   4.882  13.880   8.339
 2677POPC   C3A36449   5.065  13.646   8.025
 2677POPC   C4A36450   5.014  13.820   7.651
 2677POPC   C1B36451   5.399  13.133   8.774
 2677POPC   C2B36452   5.468  13.120   8.344
 2677POPC   C3B36453   5.579  13.407   8.029
 2677POPC   C4B36454   5.402  13.500   7.618
 2678POPC   NC336455   9.545   8.872   9.488
 2678POPC   PO436456  10.059   9.343   9.479
 2678POPC   GL136457   9.853   9.123   9.140
 2678POPC   GL236458   9.857   8.778   9.104
 2678POPC   C1A36459   9.566   9.079   8.790
 2678POPC   D2A36460   9.402   9.167   8.381
 2678POPC   C3A36461   9.640   9.194   8.050
 2678POPC   C4A36462   9.535   9.094   7.656
 2678POPC   C1B36463   9.905   8.618   8.742
 2678POPC   C2B36464   9.709   8.756   8.380
 2678POPC   C3B36465   9.658   8.681   7.955
 2678POPC   C4B36466   9.965   8.702   7.641
 2679POPC   NC336467   4.838   9.587   9.657
 2679POPC   PO436468   5.508   9.527   9.505
 2679POPC   GL136469   5.196   9.731   9.232
 2679POPC   GL236470   5.166  10.090   9.312
 2679POPC   C1A36471   4.941   9.570   8.862
 2679POPC   D2A36472   4.948   9.259   8.506
 2679POPC   C3A36473   4.946   9.451   8.091
 2679POPC   C4A36474   5.155   9.812   7.901
 2679POPC   C1B36475   5.173  10.033   8.819
 2679POPC   C2B36476   5.033  10.072   8.354
 2679POPC   C3B36477   4.932  10.266   7.915
 2679POPC   C4B36478   5.034  10.114   7.440
 2680POPC   NC336479  13.151   9.324   9.766
 2680POPC   PO436480  13.565   9.862   9.766
 2680POPC   GL136481  13.689   9.851   9.250
 2680POPC   GL236482  13.743   9.510   9.092
 2680POPC   C1A36483  13.642   9.847   8.750
 2680POPC   D2A36484  13.370  10.072   8.450
 2680POPC   C3A36485  13.390   9.905   8.025
 2680POPC   C4A36486  13.517  10.028   7.615
 2680POPC   C1B36487  13.669   9.269   8.744
 2680POPC   C2B36488  13.557   9.275   8.341
 2680POPC   C3B36489  13.723   9.369   7.983
 2680POPC   C4B36490  13.509   9.511   7.672
 2681POPC   NC336491  23.693  15.706   9.376
 2681POPC   PO436492  23.785  16.339   9.456
 2681POPC   GL136493  23.789  16.127   9.117
 2681POPC   GL236494  23.483  16.070   9.092
 2681POPC   C1A36495  23.849  15.960   8.711
 2681POPC   D2A36496  23.930  16.097   8.317
 2681POPC   C3A36497  23.804  15.841   8.008
 2681POPC   C4A36498  23.769  16.021   7.622
 2681POPC   C1B36499  23.334  15.886   8.750
 2681POPC   C2B36500  23.405  16.005   8.349
 2681POPC   C3B36501  23.300  15.853   7.960
 2681POPC   C4B36502  23.518  15.581   7.661
 2682POPC   NC336503  33.166  37.898   9.386
 2682POPC   PO436504  32.870  37.631   9.913
 2682POPC   GL136505  32.967  37.446   9.366
 2682POPC   GL236506  32.779  37.734   9.135
 2682POPC   C1A36507  33.022  37.444   8.832
 2682POPC   D2A36508  33.050  37.286   8.389
 2682POPC   C3A36509  32.925  37.580   8.092
 2682POPC   C4A36510  33.092  37.529   7.706
 2682POPC   C1B36511  32.981  38.013   8.783
 2682POPC   C2B36512  33.064  38.190   8.369
 2682POPC   C3B36513  32.922  38.092   7.989
 2682POPC   C4B36514  32.914  37.975   7.579
 2683POPC   NC336515  23.208  28.668   9.482
 2683POPC   PO436516  23.241  28.084   9.272
 2683POPC   GL136517  22.965  28.336   9.072
 2683POPC   GL236518  23.205  28.552   8.974
 2683POPC   C1A36519  22.805  28.538   8.707
 2683POPC   D2A36520  22.727  28.570   8.292
 2683POPC   C3A36521  22.966  28.325   8.103
 2683POPC   C4A36522  22.907  28.323   7.709
 2683POPC   C1B36523  23.160  28.186   8.628
 2683POPC   C2B36524  23.254  27.930   8.279
 2683POPC   C3B36525  23.241  27.957   7.819
 2683POPC   C4B36526  23.247  28.090   7.392
 2684POPC   NC336527  40.970  10.588   9.573
 2684POPC   PO436528  40.389  10.493   9.251
 2684POPC   GL136529  40.769  10.547   9.108
 2684POPC   GL236530  41.018  10.279   9.181
 2684POPC   C1A36531  40.977  10.666   8.771
 2684POPC   D2A36532  40.977  10.859   8.382
 2684POPC   C3A36533  40.861  10.628   8.052
 2684POPC   C4A36534  40.747  10.552   7.653
 2684POPC   C1B36535  41.219  10.184   8.800
 2684POPC   C2B36536  41.115  10.311   8.404
 2684POPC   C3B36537  41.058  10.107   8.025
 2684POPC   C4B36538  41.164  10.254   7.606
 2685POPC   NC336539  38.779  14.638   9.509
 2685POPC   PO436540  38.138  14.486   9.566
 2685POPC   GL136541  38.363  14.346   9.199
 2685POPC   GL236542  38.657  14.159   9.296
 2685POPC   C1A36543  38.244  14.222   8.793
 2685POPC   D2A36544  38.469  14.040   8.431
 2685POPC   C3A36545  38.396  14.226   8.042
 2685POPC   C4A36546  38.146  14.058   7.731
 2685POPC   C1B36547  38.754  14.169   8.857
 2685POPC   C2B36548  38.990  14.026   8.495
 2685POPC   C3B36549  38.885  14.050   8.054
 2685POPC   C4B36550  38.751  14.158   7.627
 2686POPC   NC336551  28.988  37.406   9.826
 2686POPC   PO436552  29.353  36.809   9.581
 2686POPC   GL136553  29.180  36.948   9.216
 2686POPC   GL236554  29.231  36.630   9.087
 2686POPC   C1A36555  28.914  37.077   8.869
 2686POPC   D2A36556  29.113  37.205   8.441
 2686POPC   C3A36557  29.049  36.996   8.015
 2686POPC   C4A36558  29.113  37.192   7.592
 2686POPC   C1B36559  29.280  36.792   8.693
 2686POPC   C2B36560  29.303  36.593   8.290
 2686POPC   C3B36561  29.460  36.447   7.907
 2686POPC   C4B36562  29.429  36.794   7.621
 2687POPC   NC336563  39.964  24.085   9.800
 2687POPC   PO436564  39.671  23.516   9.618
 2687POPC   GL136565  39.843  23.690   9.194
 2687POPC   GL236566  39.939  24.035   9.081
 2687POPC   C1A36567  39.866  23.494   8.758
 2687POPC   D2A36568  39.654  23.538   8.352
 2687POPC   C3A36569  39.909  23.373   8.023
 2687POPC   C4A36570  39.962  23.505   7.615
 2687POPC   C1B36571  40.218  23.875   8.769
 2687POPC   C2B36572  40.173  23.703   8.344
 2687POPC   C3B36573  40.043  23.902   7.936
 2687POPC   C4B36574  40.279  23.942   7.520
 2688POPC   NC336575  18.552  31.265   9.835
 2688POPC   PO436576  18.131  31.672   9.538
 2688POPC   GL136577  18.030  31.506   9.100
 2688POPC   GL236578  17.818  31.273   9.166
 2688POPC   C1A36579  18.120  31.389   8.634
 2688POPC   D2A36580  18.291  31.360   8.180
 2688POPC   C3A36581  18.119  31.562   7.807
 2688POPC   C4A36582  18.278  31.777   7.450
 2688POPC   C1B36583  17.759  31.035   8.813
 2688POPC   C2B36584  17.936  30.936   8.381
 2688POPC   C3B36585  17.915  31.086   7.936
 2688POPC   C4B36586  18.303  31.112   7.661
 2689POPC   NC336587  26.628   6.847   9.371
 2689POPC   PO436588  26.333   6.304   9.577
 2689POPC   GL136589  26.619   6.312   9.210
 2689POPC   GL236590  26.850   6.579   9.002
 2689POPC   C1A36591  26.520   6.276   8.771
 2689POPC   D2A36592  26.766   6.475   8.489
 2689POPC   C3A36593  26.617   6.465   8.106
 2689POPC   C4A36594  26.949   6.410   7.856
 2689POPC   C1B36595  26.819   6.962   8.689
 2689POPC   C2B36596  26.666   6.988   8.236
 2689POPC   C3B36597  26.751   6.882   7.803
 2689POPC   C4B36598  26.660   7.036   7.368
 2690POPC   NC336599  35.455  10.883   9.374
 2690POPC   PO436600  35.478  10.207   9.560
 2690POPC   GL136601  35.497  10.356   9.155
 2690POPC   GL236602  35.135  10.452   9.189
 2690POPC   C1A36603  35.416  10.592   8.774
 2690POPC   D2A36604  35.223  10.813   8.454
 2690POPC   C3A36605  35.264  10.625   8.048
 2690POPC   C4A36606  35.380  10.776   7.642
 2690POPC   C1B36607  35.066  10.202   8.815
 2690POPC   C2B36608  35.227  10.192   8.396
 2690POPC   C3B36609  35.073  10.142   8.001
 2690POPC   C4B36610  34.957  10.427   7.689
 2691POPC   NC336611  36.169  16.136   9.531
 2691POPC   PO436612  35.820  15.578   9.413
 2691POPC   GL136613  36.054  15.821   9.112
 2691POPC   GL236614  36.194  16.162   9.033
 2691POPC   C1A36615  36.238  15.675   8.760
 2691POPC   D2A36616  36.336  15.801   8.402
 2691POPC   C3A36617  36.125  16.011   8.137
 2691POPC   C4A36618  36.266  15.858   7.722
 2691POPC   C1B36619  35.985  16.118   8.668
 2691POPC   C2B36620  35.807  16.443   8.478
 2691POPC   C3B36621  35.746  16.389   8.046
 2691POPC   C4B36622  35.915  16.208   7.731
 2692POPC   NC336623  33.593   6.602   9.601
 2692POPC   PO436624  34.248   6.400   9.706
 2692POPC   GL136625  34.055   6.650   9.321
 2692POPC   GL236626  33.841   6.383   9.195
 2692POPC   C1A36627  33.962   6.760   8.847
 2692POPC   D2A36628  33.797   6.654   8.385
 2692POPC   C3A36629  33.839   6.895   7.978
 2692POPC   C4A36630  33.974   6.811   7.553
 2692POPC   C1B36631  33.577   6.404   8.806
 2692POPC   C2B36632  33.357   6.395   8.414
 2692POPC   C3B36633  33.589   6.278   8.041
 2692POPC   C4B36634  33.985   6.398   7.852
 2693POPC   NC336635  29.364  20.272   9.587
 2693POPC   PO436636  28.947  19.651   9.561
 2693POPC   GL136637  29.224  19.782   9.246
 2693POPC   GL236638  29.009  20.033   9.142
 2693POPC   C1A36639  29.259  19.637   8.794
 2693POPC   D2A36640  29.345  19.820   8.406
 2693POPC   C3A36641  29.192  19.717   7.991
 2693POPC   C4A36642  28.882  19.875   7.724
 2693POPC   C1B36643  29.355  20.122   8.885
 2693POPC   C2B36644  29.546  20.273   8.550
 2693POPC   C3B36645  29.304  20.277   8.174
 2693POPC   C4B36646  29.369  20.193   7.751
 2694POPC   NC336647   1.657  32.217   9.539
 2694POPC   PO436648   1.038  32.500   9.569
 2694POPC   GL136649   1.254  32.509   9.206
 2694POPC   GL236650   1.267  32.172   9.144
 2694POPC   C1A36651   1.191  32.632   8.787
 2694POPC   D2A36652   1.181  32.440   8.385
 2694POPC   C3A36653   1.383  32.490   7.970
 2694POPC   C4A36654   1.108  32.458   7.631
 2694POPC   C1B36655   0.983  32.155   8.797
 2694POPC   C2B36656   0.963  31.984   8.409
 2694POPC   C3B36657   1.070  32.098   7.998
 2694POPC   C4B36658   1.467  32.016   7.776
 2695POPC   NC336659   7.565  11.545   9.605
 2695POPC   PO436660   7.092  11.112   9.553
 2695POPC   GL136661   7.447  11.139   9.265
 2695POPC   GL236662   7.791  11.319   9.186
 2695POPC   C1A36663   7.393  11.096   8.856
 2695POPC   D2A36664   7.259  11.272   8.494
 2695POPC   C3A36665   7.542  11.145   8.163
 2695POPC   C4A36666   7.291  11.107   7.794
 2695POPC   C1B36667   7.483  11.601   8.940
 2695POPC   C2B36668   7.443  11.761   8.517
 2695POPC   C3B36669   7.335  11.597   8.103
 2695POPC   C4B36670   7.397  11.696   7.699
 2696POPC   NC336671  43.775  28.341   9.545
 2696POPC   PO436672  44.093  27.835   9.227
 2696POPC   GL136673  43.770  28.086   9.074
 2696POPC   GL236674  43.769  28.480   9.057
 2696POPC   C1A36675  43.848  28.169   8.654
 2696POPC   D2A36676  43.602  28.254   8.323
 2696POPC   C3A36677  43.809  28.083   7.991
 2696POPC   C4A36678  43.921  28.163   7.593
 2696POPC   C1B36679  43.820  28.683   8.655
 2696POPC   C2B36680  43.852  28.665   8.205
 2696POPC   C3B36681  43.770  28.614   7.775
 2696POPC   C4B36682  43.613  28.662   7.324
 2697POPC   NC336683  22.333  20.375   9.729
 2697POPC   PO436684  21.961  20.890   9.547
 2697POPC   GL136685  22.026  20.497   9.261
 2697POPC   GL236686  22.355  20.307   9.216
 2697POPC   C1A36687  22.014  20.452   8.797
 2697POPC   D2A36688  22.198  20.775   8.507
 2697POPC   C3A36689  22.242  20.678   8.044
 2697POPC   C4A36690  22.265  20.787   7.577
 2697POPC   C1B36691  22.515  20.403   8.798
 2697POPC   C2B36692  22.395  20.307   8.406
 2697POPC   C3B36693  22.592  20.286   8.042
 2697POPC   C4B36694  22.632  20.449   7.646
 2698POPC   NC336695  37.302  12.543   9.338
 2698POPC   PO436696  36.758  12.895   9.660
 2698POPC   GL136697  36.918  12.881   9.226
 2698POPC   GL236698  37.095  13.193   9.128
 2698POPC   C1A36699  36.750  12.987   8.810
 2698POPC   D2A36700  36.764  13.207   8.444
 2698POPC   C3A36701  36.941  12.978   8.119
 2698POPC   C4A36702  36.956  13.161   7.712
 2698POPC   C1B36703  37.262  12.926   8.793
 2698POPC   C2B36704  37.212  12.547   8.548
 2698POPC   C3B36705  37.237  12.516   8.098
 2698POPC   C4B36706  37.067  12.656   7.718
 2699POPC   NC336707  35.403   8.078   9.513
 2699POPC   PO436708  35.302   8.702   9.481
 2699POPC   GL136709  35.449   8.497   9.112
 2699POPC   GL236710  35.361   8.163   9.025
 2699POPC   C1A36711  35.442   8.490   8.660
 2699POPC   D2A36712  35.263   8.322   8.299
 2699POPC   C3A36713  35.454   8.418   7.945
 2699POPC   C4A36714  35.251   8.262   7.649
 2699POPC   C1B36715  35.585   7.986   8.683
 2699POPC   C2B36716  35.473   7.826   8.275
 2699POPC   C3B36717  35.622   7.927   7.862
 2699POPC   C4B36718  35.573   7.993   7.385
 2700POPC   NC336719  31.123  40.101   9.441
 2700POPC   PO436720  31.636  39.723   9.518
 2700POPC   GL136721  31.547  40.049   9.205
 2700POPC   GL236722  31.467  39.767   9.006
 2700POPC   C1A36723  31.388  40.222   8.820
 2700POPC   D2A36724  31.396  39.940   8.499
 2700POPC   C3A36725  31.233  40.054   8.111
 2700POPC   C4A36726  31.512  40.030   7.801
 2700POPC   C1B36727  31.765  39.585   8.697
 2700POPC   C2B36728  31.939  39.631   8.284
 2700POPC   C3B36729  31.956  39.793   7.880
 2700POPC   C4B36730  31.894  39.934   7.438
 2701POPC   NC336731   5.535  12.333   9.539
 2701POPC   PO436732   5.821  12.941   9.432
 2701POPC   GL136733   5.650  12.769   9.057
 2701POPC   GL236734   5.779  12.444   8.947
 2701POPC   C1A36735   5.800  12.838   8.635
 2701POPC   D2A36736   5.962  13.090   8.329
 2701POPC   C3A36737   5.837  12.872   7.969
 2701POPC   C4A36738   5.566  13.012   7.673
 2701POPC   C1B36739   6.201  12.517   8.688
 2701POPC   C2B36740   6.265  12.676   8.312
 2701POPC   C3B36741   6.477  12.564   7.976
 2701POPC   C4B36742   6.360  12.550   7.536
 2702POPC   NC336743   3.723   1.479   9.675
 2702POPC   PO436744   3.265   1.828   9.385
 2702POPC   GL136745   3.411   2.032   9.060
 2702POPC   GL236746   3.753   1.937   9.108
 2702POPC   C1A36747   3.282   1.986   8.655
 2702POPC   D2A36748   3.386   1.675   8.377
 2702POPC   C3A36749   3.184   1.694   7.991
 2702POPC   C4A36750   3.332   1.882   7.600
 2702POPC   C1B36751   3.729   1.759   8.759
 2702POPC   C2B36752   3.868   1.898   8.387
 2702POPC   C3B36753   3.682   1.853   8.008
 2702POPC   C4B36754   3.753   2.112   7.705
 2703POPC   NC336755  29.253  44.082   9.544
 2703POPC   PO436756  28.778  43.568   9.468
 2703POPC   GL136757  28.972  43.793   9.193
 2703POPC   GL236758  28.908  44.108   9.141
 2703POPC   C1A36759  29.062  43.708   8.791
 2703POPC   D2A36760  29.329  43.506   8.493
 2703POPC   C3A36761  29.111  43.488   8.128
 2703POPC   C4A36762  29.301  43.480   7.739
 2703POPC   C1B36763  29.131  44.227   8.757
 2703POPC   C2B36764  29.171  44.009   8.377
 2703POPC   C3B36765  29.323  43.922   7.986
 2703POPC   C4B36766  29.187  43.974   7.559
 2704POPC   NC336767  42.029  30.214   9.609
 2704POPC   PO436768  42.435  29.718   9.467
 2704POPC   GL136769  42.231  29.787   9.107
 2704POPC   GL236770  42.574  29.838   8.952
 2704POPC   C1A36771  42.150  29.567   8.732
 2704POPC   D2A36772  42.354  29.651   8.372
 2704POPC   C3A36773  42.177  29.442   8.054
 2704POPC   C4A36774  42.092  29.718   7.765
 2704POPC   C1B36775  42.337  30.231   8.866
 2704POPC   C2B36776  42.229  30.375   8.431
 2704POPC   C3B36777  42.275  30.090   8.088
 2704POPC   C4B36778  42.543  29.992   7.729
 2705POPC   NC336779  19.465   1.346   9.517
 2705POPC   PO436780  20.090   1.037   9.449
 2705POPC   GL136781  19.903   1.268   9.084
 2705POPC   GL236782  19.554   1.316   9.025
 2705POPC   C1A36783  20.093   1.350   8.655
 2705POPC   D2A36784  20.209   1.135   8.276
 2705POPC   C3A36785  20.074   1.248   7.867
 2705POPC   C4A36786  19.868   1.161   7.456
 2705POPC   C1B36787  19.392   1.363   8.639
 2705POPC   C2B36788  19.642   1.389   8.269
 2705POPC   C3B36789  19.571   1.185   7.886
 2705POPC   C4B36790  19.350   1.052   7.511
 2706POPC   NC336791  29.708  26.997   9.979
 2706POPC   PO436792  30.114  26.831   9.513
 2706POPC   GL136793  30.034  26.852   9.081
 2706POPC   GL236794  29.679  26.841   9.091
 2706POPC   C1A36795  29.936  26.985   8.664
 2706POPC   D2A36796  29.888  26.780   8.289
 2706POPC   C3A36797  29.862  27.001   7.922
 2706POPC   C4A36798  30.126  27.047   7.614
 2706POPC   C1B36799  29.619  26.576   8.788
 2706POPC   C2B36800  29.627  26.356   8.422
 2706POPC   C3B36801  29.654  26.432   7.994
 2706POPC   C4B36802  29.758  26.603   7.589
 2707POPC   NC336803  28.436   9.438   9.802
 2707POPC   PO436804  28.716   8.868   9.525
 2707POPC   GL136805  28.410   8.952   9.229
 2707POPC   GL236806  28.276   9.266   9.322
 2707POPC   C1A36807  28.484   8.976   8.789
 2707POPC   D2A36808  28.745   9.080   8.449
 2707POPC   C3A36809  28.486   8.956   8.113
 2707POPC   C4A36810  28.641   8.937   7.707
 2707POPC   C1B36811  28.083   9.255   8.936
 2707POPC   C2B36812  28.088   9.264   8.498
 2707POPC   C3B36813  27.967   9.076   8.108
 2707POPC   C4B36814  28.208   9.215   7.770
 2708POPC   NC336815  35.162  39.458   9.563
 2708POPC   PO436816  35.459  38.813   9.656
 2708POPC   GL136817  35.516  38.910   9.227
 2708POPC   GL236818  35.237  39.095   9.197
 2708POPC   C1A36819  35.626  39.208   8.878
 2708POPC   D2A36820  35.469  39.487   8.522
 2708POPC   C3A36821  35.712  39.474   8.142
 2708POPC   C4A36822  35.577  39.516   7.719
 2708POPC   C1B36823  35.117  39.177   8.791
 2708POPC   C2B36824  35.260  39.030   8.412
 2708POPC   C3B36825  35.294  39.130   7.989
 2708POPC   C4B36826  35.212  38.743   7.707
 2709POPC   NC336827   4.800   0.753   9.350
 2709POPC   PO436828   4.953   1.359   9.562
 2709POPC   GL136829   5.069   1.215   9.182
 2709POPC   GL236830   5.286   0.943   9.114
 2709POPC   C1A36831   5.035   1.267   8.778
 2709POPC   D2A36832   4.826   1.091   8.478
 2709POPC   C3A36833   4.956   1.334   8.148
 2709POPC   C4A36834   4.797   1.268   7.741
 2709POPC   C1B36835   5.443   0.941   8.688
 2709POPC   C2B36836   5.235   0.854   8.278
 2709POPC   C3B36837   5.231   1.029   7.860
 2709POPC   C4B36838   5.541   1.325   7.712
 2710POPC   NC336839  16.416   7.935   9.503
 2710POPC   PO436840  16.973   8.384   9.523
 2710POPC   GL136841  16.801   8.229   9.159
 2710POPC   GL236842  16.469   8.350   9.197
 2710POPC   C1A36843  16.834   8.329   8.718
 2710POPC   D2A36844  16.888   8.176   8.296
 2710POPC   C3A36845  16.851   8.271   7.850
 2710POPC   C4A36846  16.863   7.946   7.507
 2710POPC   C1B36847  16.288   8.220   8.805
 2710POPC   C2B36848  16.374   8.102   8.391
 2710POPC   C3B36849  16.368   8.268   7.991
 2710POPC   C4B36850  16.452   8.254   7.525
 2711POPC   NC336851  27.669  35.255   9.279
 2711POPC   PO436852  27.187  35.598   9.611
 2711POPC   GL136853  27.350  35.664   9.145
 2711POPC   GL236854  27.714  35.737   9.137
 2711POPC   C1A36855  27.319  35.361   8.724
 2711POPC   D2A36856  27.536  35.064   8.388
 2711POPC   C3A36857  27.536  35.258   7.961
 2711POPC   C4A36858  27.293  35.632   7.952
 2711POPC   C1B36859  27.809  35.538   8.737
 2711POPC   C2B36860  27.641  35.582   8.374
 2711POPC   C3B36861  27.813  35.681   8.037
 2711POPC   C4B36862  27.686  35.644   7.631
 2712POPC   NC336863  28.765  30.567   9.443
 2712POPC   PO436864  29.335  30.977   9.458
 2712POPC   GL136865  29.196  30.698   9.130
 2712POPC   GL236866  28.872  30.885   9.059
 2712POPC   C1A36867  29.403  30.509   8.735
 2712POPC   D2A36868  29.587  30.733   8.396
 2712POPC   C3A36869  29.485  30.577   8.012
 2712POPC   C4A36870  29.306  30.502   7.623
 2712POPC   C1B36871  28.888  30.543   8.729
 2712POPC   C2B36872  29.089  30.584   8.319
 2712POPC   C3B36873  29.022  30.808   7.921
 2712POPC   C4B36874  28.846  30.758   7.509
 2713POPC   NC336875  30.354  31.593   9.466
 2713POPC   PO436876  30.102  30.934   9.387
 2713POPC   GL136877  29.835  31.158   9.100
 2713POPC   GL236878  29.968  31.487   9.102
 2713POPC   C1A36879  29.672  31.242   8.641
 2713POPC   D2A36880  29.818  31.483   8.267
 2713POPC   C3A36881  29.787  31.391   7.818
 2713POPC   C4A36882  29.631  31.714   7.567
 2713POPC   C1B36883  30.214  31.342   8.729
 2713POPC   C2B36884  30.331  31.583   8.334
 2713POPC   C3B36885  30.172  31.739   7.932
 2713POPC   C4B36886  30.221  31.867   7.500
 2714POPC   NC336887   3.286  29.430   9.589
 2714POPC   PO436888   2.534  29.373   9.458
 2714POPC   GL136889   2.556  29.347   9.047
 2714POPC   GL236890   2.890  29.489   9.092
 2714POPC   C1A36891   2.569  29.224   8.614
 2714POPC   D2A36892   2.353  29.138   8.215
 2714POPC   C3A36893   2.568  29.004   7.873
 2714POPC   C4A36894   2.953  28.900   7.687
 2714POPC   C1B36895   3.055  29.701   8.738
 2714POPC   C2B36896   3.122  29.577   8.305
 2714POPC   C3B36897   3.116  29.376   7.859
 2714POPC   C4B36898   2.976  29.327   7.413
 2715POPC   NC336899  24.178   2.583   9.489
 2715POPC   PO436900  24.605   3.062   9.468
 2715POPC   GL136901  24.420   2.847   9.114
 2715POPC   GL236902  24.640   2.994   8.879
 2715POPC   C1A36903  24.212   2.537   8.822
 2715POPC   D2A36904  24.206   2.655   8.392
 2715POPC   C3A36905  24.171   2.450   7.990
 2715POPC   C4A36906  24.397   2.720   7.714
 2715POPC   C1B36907  24.684   2.637   8.652
 2715POPC   C2B36908  24.922   2.537   8.359
 2715POPC   C3B36909  24.761   2.735   8.077
 2715POPC   C4B36910  24.882   2.577   7.738
 2716POPC   NC336911   9.769  30.801   9.565
 2716POPC   PO436912  10.135  30.204   9.442
 2716POPC   GL136913   9.842  30.445   9.110
 2716POPC   GL236914   9.656  30.788   9.081
 2716POPC   C1A36915   9.778  30.583   8.641
 2716POPC   D2A36916   9.969  30.812   8.286
 2716POPC   C3A36917   9.961  30.599   7.871
 2716POPC   C4A36918   9.569  30.369   7.719
 2716POPC   C1B36919   9.337  30.930   8.780
 2716POPC   C2B36920   9.238  30.909   8.341
 2716POPC   C3B36921   9.530  30.818   8.012
 2716POPC   C4B36922   9.625  30.921   7.573
 2717POPC   NC336923   2.945   9.152   9.541
 2717POPC   PO436924   2.341   9.230   9.337
 2717POPC   GL136925   2.555   8.958   9.070
 2717POPC   GL236926   2.891   8.841   9.126
 2717POPC   C1A36927   2.563   8.950   8.652
 2717POPC   D2A36928   2.855   9.140   8.385
 2717POPC   C3A36929   2.674   9.091   8.021
 2717POPC   C4A36930   2.695   8.928   7.630
 2717POPC   C1B36931   3.102   8.842   8.738
 2717POPC   C2B36932   3.309   8.708   8.356
 2717POPC   C3B36933   3.108   8.766   7.937
 2717POPC   C4B36934   2.993   8.521   7.533
 2718POPC   NC336935   8.133  28.890   9.481
 2718POPC   PO436936   8.601  29.436   9.551
 2718POPC   GL136937   8.390  29.257   9.133
 2718POPC   GL236938   8.062  29.153   9.067
 2718POPC   C1A36939   8.290  29.228   8.637
 2718POPC   D2A36940   8.034  28.898   8.386
 2718POPC   C3A36941   8.123  28.939   7.929
 2718POPC   C4A36942   8.345  29.300   7.763
 2718POPC   C1B36943   7.731  29.228   8.817
 2718POPC   C2B36944   7.678  29.301   8.426
 2718POPC   C3B36945   7.934  29.379   8.078
 2718POPC   C4B36946   7.821  29.428   7.658
 2719POPC   NC336947  32.662  11.474   9.697
 2719POPC   PO436948  32.172  11.070   9.391
 2719POPC   GL136949  32.302  11.387   9.115
 2719POPC   GL236950  32.671  11.448   9.158
 2719POPC   C1A36951  32.145  11.397   8.684
 2719POPC   D2A36952  31.869  11.336   8.351
 2719POPC   C3A36953  32.107  11.230   8.005
 2719POPC   C4A36954  32.063  11.489   7.641
 2719POPC   C1B36955  32.614  11.149   8.777
 2719POPC   C2B36956  32.557  11.113   8.313
 2719POPC   C3B36957  32.773  11.322   7.973
 2719POPC   C4B36958  32.647  11.733   7.816
 2720POPC   NC336959   4.330  13.590   9.372
 2720POPC   PO436960   4.900  13.231   9.165
 2720POPC   GL136961   4.633  13.533   8.967
 2720POPC   GL236962   4.360  13.328   8.856
 2720POPC   C1A36963   4.491  13.864   8.668
 2720POPC   D2A36964   4.305  13.912   8.275
 2720POPC   C3A36965   4.564  13.809   7.900
 2720POPC   C4A36966   4.574  13.724   7.439
 2720POPC   C1B36967   4.027  13.630   8.703
 2720POPC   C2B36968   3.778  13.669   8.327
 2720POPC   C3B36969   3.925  13.814   7.943
 2720POPC   C4B36970   4.193  13.518   7.703
 2721POPC   NC336971  38.737  27.001   9.514
 2721POPC   PO436972  38.076  27.269   9.444
 2721POPC   GL136973  38.302  26.979   9.081
 2721POPC   GL236974  38.661  26.957   9.009
 2721POPC   C1A36975  38.334  26.633   8.754
 2721POPC   D2A36976  38.316  26.384   8.350
 2721POPC   C3A36977  38.311  26.582   7.918
 2721POPC   C4A36978  38.563  26.857   7.637
 2721POPC   C1B36979  38.735  26.913   8.569
 2721POPC   C2B36980  38.377  26.920   8.325
 2721POPC   C3B36981  38.258  27.115   7.980
 2721POPC   C4B36982  38.146  27.362   7.642
 2722POPC   NC336983  44.783  24.854   9.767
 2722POPC   PO436984  44.324  25.188   9.489
 2722POPC   GL136985  44.529  25.390   9.175
 2722POPC   GL236986  44.790  25.159   9.215
 2722POPC   C1A36987  44.678  25.398   8.751
 2722POPC   D2A36988  44.793  25.206   8.375
 2722POPC   C3A36989  44.702  25.435   8.007
 2722POPC   C4A36990  44.428  25.437   7.593
 2722POPC   C1B36991  44.648  24.896   8.907
 2722POPC   C2B36992  44.742  24.714   8.497
 2722POPC   C3B36993  44.605  24.809   8.075
 2722POPC   C4B36994  44.740  25.033   7.707
 2723POPC   NC336995  39.945  42.890   9.428
 2723POPC   PO436996  40.439  43.455   9.422
 2723POPC   GL136997  40.225  43.131   9.100
 2723POPC   GL236998  39.863  43.057   8.941
 2723POPC   C1A36999  40.215  42.835   8.694
 2723POPC   D2A37000  39.967  43.023   8.365
 2723POPC   C3A37001  40.093  43.257   7.989
 2723POPC   C4A37002  39.877  43.481   7.646
 2723POPC   C1B37003  39.661  42.725   8.732
 2723POPC   C2B37004  39.681  42.607   8.304
 2723POPC   C3B37005  39.732  42.836   7.935
 2723POPC   C4B37006  39.609  42.686   7.563
 2724POPC   NC337007  23.581   7.154   9.426
 2724POPC   PO437008  24.023   7.637   9.464
 2724POPC   GL137009  23.818   7.489   9.146
 2724POPC   GL237010  24.012   7.197   9.093
 2724POPC   C1A37011  23.599   7.417   8.775
 2724POPC   D2A37012  23.409   7.555   8.392
 2724POPC   C3A37013  23.557   7.379   7.999
 2724POPC   C4A37014  23.470   7.613   7.656
 2724POPC   C1B37015  24.109   7.481   8.744
 2724POPC   C2B37016  23.920   7.527   8.363
 2724POPC   C3B37017  24.056   7.488   7.922
 2724POPC   C4B37018  23.942   7.179   7.640
 2725POPC   NC337019  16.558  10.669   9.464
 2725POPC   PO437020  17.001  10.159   9.490
 2725POPC   GL137021  16.878  10.416   9.120
 2725POPC   GL237022  17.114  10.303   8.892
 2725POPC   C1A37023  16.751  10.589   8.692
 2725POPC   D2A37024  16.481  10.539   8.299
 2725POPC   C3A37025  16.597  10.296   7.897
 2725POPC   C4A37026  16.587  10.589   7.482
 2725POPC   C1B37027  17.247  10.487   8.519
 2725POPC   C2B37028  17.051  10.815   8.290
 2725POPC   C3B37029  16.821  10.749   7.914
 2725POPC   C4B37030  17.031  10.397   7.665
 2726POPC   NC337031   2.188  44.710   9.579
 2726POPC   PO437032   1.565  44.806   9.644
 2726POPC   GL137033   1.851  44.787   9.214
 2726POPC   GL237034   2.128  44.572   9.109
 2726POPC   C1A37035   1.990  44.914   8.775
 2726POPC   D2A37036   2.196  44.759   8.418
 2726POPC   C3A37037   1.935  44.837   8.084
 2726POPC   C4A37038   2.051   0.029   7.712
 2726POPC   C1B37039   1.765  44.424   8.872
 2726POPC   C2B37040   1.785  44.455   8.444
 2726POPC   C3B37041   2.092  44.327   8.119
 2726POPC   C4B37042   2.209  44.554   7.740
 2727POPC   NC337043  37.454  28.173   9.597
 2727POPC   PO437044  38.071  28.383   9.403
 2727POPC   GL137045  37.791  28.338   9.069
 2727POPC   GL237046  37.706  28.034   9.134
 2727POPC   C1A37047  37.914  28.274   8.650
 2727POPC   D2A37048  37.927  28.569   8.321
 2727POPC   C3A37049  37.561  28.639   7.946
 2727POPC   C4A37050  37.870  28.582   7.553
 2727POPC   C1B37051  37.455  28.074   8.728
 2727POPC   C2B37052  37.538  28.252   8.305
 2727POPC   C3B37053  37.815  28.232   7.946
 2727POPC   C4B37054  37.517  28.205   7.625
 2728POPC   NC337055  41.608  21.037   9.355
 2728POPC   PO437056  41.467  21.732   9.567
 2728POPC   GL137057  41.581  21.529   9.185
 2728POPC   GL237058  41.901  21.626   9.122
 2728POPC   C1A37059  41.397  21.305   8.806
 2728POPC   D2A37060  41.527  21.107   8.410
 2728POPC   C3A37061  41.260  21.199   8.051
 2728POPC   C4A37062  41.311  21.443   7.682
 2728POPC   C1B37063  41.860  21.484   8.718
 2728POPC   C2B37064  41.634  21.602   8.348
 2728POPC   C3B37065  41.730  21.360   7.991
 2728POPC   C4B37066  41.977  21.454   7.659
 2729POPC   NC337067   5.329   1.065   9.615
 2729POPC   PO437068   5.950   1.342   9.488
 2729POPC   GL137069   5.680   1.310   9.140
 2729POPC   GL237070   5.870   1.030   9.032
 2729POPC   C1A37071   5.521   1.450   8.731
 2729POPC   D2A37072   5.488   1.306   8.279
 2729POPC   C3A37073   5.696   0.956   8.041
 2729POPC   C4A37074   6.024   0.841   7.727
 2729POPC   C1B37075   5.989   1.269   8.671
 2729POPC   C2B37076   6.116   1.120   8.257
 2729POPC   C3B37077   6.022   1.332   7.876
 2729POPC   C4B37078   6.022   1.629   7.560
 2730POPC   NC337079  17.707  20.995   9.783
 2730POPC   PO437080  17.439  20.440   9.629
 2730POPC   GL137081  17.386  20.477   9.201
 2730POPC   GL237082  17.414  20.860   9.241
 2730POPC   C1A37083  17.604  20.382   8.790
 2730POPC   D2A37084  17.768  20.214   8.373
 2730POPC   C3A37085  17.620  20.374   7.983
 2730POPC   C4A37086  17.698  20.747   7.745
 2730POPC   C1B37087  17.653  20.934   8.860
 2730POPC   C2B37088  17.646  20.808   8.415
 2730POPC   C3B37089  17.330  20.912   8.081
 2730POPC   C4B37090  17.139  21.191   7.732
 2731POPC   NC337091  39.983  20.214   9.400
 2731POPC   PO437092  39.640  19.728   9.514
 2731POPC   GL137093  39.925  19.707   9.132
 2731POPC   GL237094  40.257  19.901   9.097
 2731POPC   C1A37095  40.127  19.592   8.722
 2731POPC   D2A37096  40.116  19.809   8.338
 2731POPC   C3A37097  40.330  19.774   7.978
 2731POPC   C4A37098  40.049  19.591   7.721
 2731POPC   C1B37099  39.960  20.090   8.761
 2731POPC   C2B37100  39.801  20.190   8.341
 2731POPC   C3B37101  39.904  20.048   7.903
 2731POPC   C4B37102  40.239  20.064   7.567
 2732POPC   NC337103  28.001  27.859   9.526
 2732POPC   PO437104  28.454  27.352   9.560
 2732POPC   GL137105  28.422  27.533   9.159
 2732POPC   GL237106  28.065  27.510   9.141
 2732POPC   C1A37107  28.552  27.820   8.805
 2732POPC   D2A37108  28.471  27.901   8.355
 2732POPC   C3A37109  28.600  27.510   8.134
 2732POPC   C4A37110  28.323  27.381   7.804
 2732POPC   C1B37111  27.987  27.828   8.808
 2732POPC   C2B37112  27.835  27.791   8.379
 2732POPC   C3B37113  28.057  27.910   7.994
 2732POPC   C4B37114  28.492  27.875   7.801
 2733POPC   NC337115  24.188  26.787   9.887
 2733POPC   PO437116  24.578  26.865   9.292
 2733POPC   GL137117  24.485  26.696   8.950
 2733POPC   GL237118  24.241  26.492   9.153
 2733POPC   C1A37119  24.610  26.872   8.562
 2733POPC   D2A37120  24.420  27.124   8.263
 2733POPC   C3A37121  24.621  26.934   7.941
 2733POPC   C4A37122  24.926  27.170   7.831
 2733POPC   C1B37123  24.134  26.380   8.752
 2733POPC   C2B37124  24.153  26.705   8.440
 2733POPC   C3B37125  24.307  26.554   8.077
 2733POPC   C4B37126  24.671  26.406   7.877
 2734POPC   NC337127  14.605  14.716   9.847
 2734POPC   PO437128  14.290  14.299   9.381
 2734POPC   GL137129  14.221  14.342   8.993
 2734POPC   GL237130  14.548  14.245   8.912
 2734POPC   C1A37131  14.132  14.224   8.586
 2734POPC   D2A37132  14.130  14.483   8.205
 2734POPC   C3A37133  14.428  14.299   7.932
 2734POPC   C4A37134  14.360  14.023   7.598
 2734POPC   C1B37135  14.475  14.607   8.619
 2734POPC   C2B37136  14.624  14.688   8.226
 2734POPC   C3B37137  14.741  14.725   7.808
 2734POPC   C4B37138  14.814  14.699   7.339
 2735POPC   NC337139  33.229  43.390   9.556
 2735POPC   PO437140  32.780  42.941   9.334
 2735POPC   GL137141  32.977  43.272   9.103
 2735POPC   GL237142  33.307  43.083   9.148
 2735POPC   C1A37143  32.909  43.465   8.668
 2735POPC   D2A37144  32.874  43.172   8.307
 2735POPC   C3A37145  32.685  43.166   7.889
 2735POPC   C4A37146  32.807  42.911   7.505
 2735POPC   C1B37147  33.252  43.085   8.693
 2735POPC   C2B37148  33.377  43.368   8.350
 2735POPC   C3B37149  33.212  43.302   7.941
 2735POPC   C4B37150  33.117  42.870   7.910
 2736POPC   NC337151  41.180  17.975   9.567
 2736POPC   PO437152  40.529  18.218   9.532
 2736POPC   GL137153  40.701  18.267   9.168
 2736POPC   GL237154  41.028  18.287   9.165
 2736POPC   C1A37155  40.686  18.371   8.764
 2736POPC   D2A37156  40.859  18.563   8.435
 2736POPC   C3A37157  40.736  18.276   8.139
 2736POPC   C4A37158  40.727  18.342   7.726
 2736POPC   C1B37159  41.198  18.313   8.764
 2736POPC   C2B37160  41.170  18.117   8.374
 2736POPC   C3B37161  41.212  18.218   7.945
 2736POPC   C4B37162  41.191  18.469   7.570
 2737POPC   NC337163   0.691   9.382   9.449
 2737POPC   PO437164   0.556  10.031   9.605
 2737POPC   GL137165   0.424   9.933   9.149
 2737POPC   GL237166   0.395   9.543   9.056
 2737POPC   C1A37167   0.416   9.886   8.667
 2737POPC   D2A37168   0.177   9.563   8.425
 2737POPC   C3A37169   0.261   9.539   7.982
 2737POPC   C4A37170   0.472   9.929   7.860
 2737POPC   C1B37171   0.649   9.435   8.669
 2737POPC   C2B37172   0.714   9.586   8.242
 2737POPC   C3B37173   0.827   9.561   7.803
 2737POPC   C4B37174   0.621   9.357   7.476
 2738POPC   NC337175   4.039  30.801   9.415
 2738POPC   PO437176   3.572  30.389   9.200
 2738POPC   GL137177   3.822  30.662   8.986
 2738POPC   GL237178   3.662  30.968   9.116
 2738POPC   C1A37179   3.824  30.709   8.581
 2738POPC   D2A37180   3.468  30.544   8.452
 2738POPC   C3A37181   3.477  30.533   8.058
 2738POPC   C4A37182   3.494  30.905   7.886
 2738POPC   C1B37183   3.423  30.983   8.753
 2738POPC   C2B37184   3.532  31.097   8.347
 2738POPC   C3B37185   3.750  31.324   8.011
 2738POPC   C4B37186   3.821  31.147   7.566
 2739POPC   NC337187  42.954  28.490   9.501
 2739POPC   PO437188  43.432  27.998   9.533
 2739POPC   GL137189  43.312  28.294   9.208
 2739POPC   GL237190  42.950  28.280   9.045
 2739POPC   C1A37191  43.372  28.271   8.782
 2739POPC   D2A37192  43.089  28.413   8.474
 2739POPC   C3A37193  43.146  28.229   8.103
 2739POPC   C4A37194  42.965  28.380   7.767
 2739POPC   C1B37195  42.756  28.648   8.808
 2739POPC   C2B37196  42.900  28.924   8.456
 2739POPC   C3B37197  42.848  28.829   8.004
 2739POPC   C4B37198  42.744  28.764   7.559
 2740POPC   NC337199  37.376  13.474   9.465
 2740POPC   PO437200  37.793  13.899   9.635
 2740POPC   GL137201  37.975  13.709   9.219
 2740POPC   GL237202  37.800  13.388   9.135
 2740POPC   C1A37203  37.989  13.663   8.737
 2740POPC   D2A37204  37.792  13.390   8.395
 2740POPC   C3A37205  37.578  13.600   8.084
 2740POPC   C4A37206  37.779  13.718   7.722
 2740POPC   C1B37207  37.469  13.424   8.812
 2740POPC   C2B37208  37.276  13.301   8.425
 2740POPC   C3B37209  37.084  13.494   8.073
 2740POPC   C4B37210  37.286  13.549   7.638
 2741POPC   NC337211  39.103  44.194   9.556
 2741POPC   PO437212  39.569  43.901   9.309
 2741POPC   GL137213  39.409  44.090   9.012
 2741POPC   GL237214  39.106  43.947   9.070
 2741POPC   C1A37215  39.389  44.041   8.584
 2741POPC   D2A37216  39.619  43.842   8.302
 2741POPC   C3A37217  39.451  44.017   7.960
 2741POPC   C4A37218  39.391  43.701   7.715
 2741POPC   C1B37219  39.069  43.665   8.691
 2741POPC   C2B37220  39.076  43.777   8.259
 2741POPC   C3B37221  38.932  43.583   7.910
 2741POPC   C4B37222  38.958  43.972   7.736
 2742POPC   NC337223   8.616  27.753   9.532
 2742POPC   PO437224   8.146  27.393   9.596
 2742POPC   GL137225   8.116  27.744   9.315
 2742POPC   GL237226   7.806  27.676   9.212
 2742POPC   C1A37227   8.101  27.899   8.871
 2742POPC   D2A37228   8.434  27.927   8.569
 2742POPC   C3A37229   8.387  27.735   8.172
 2742POPC   C4A37230   8.353  27.504   7.818
 2742POPC   C1B37231   8.061  27.366   8.956
 2742POPC   C2B37232   8.190  27.408   8.534
 2742POPC   C3B37233   7.961  27.418   8.163
 2742POPC   C4B37234   7.859  27.356   7.746
 2743POPC   NC337235  31.027  23.244   9.515
 2743POPC   PO437236  30.742  23.908   9.591
 2743POPC   GL137237  30.719  23.746   9.200
 2743POPC   GL237238  31.046  23.661   9.199
 2743POPC   C1A37239  30.457  23.704   8.819
 2743POPC   D2A37240  30.294  23.914   8.447
 2743POPC   C3A37241  30.406  23.761   8.055
 2743POPC   C4A37242  30.487  23.987   7.698
 2743POPC   C1B37243  30.964  23.620   8.778
 2743POPC   C2B37244  30.783  23.772   8.418
 2743POPC   C3B37245  30.900  23.647   8.056
 2743POPC   C4B37246  30.943  23.759   7.700
 2744POPC   NC337247  43.395  19.113   9.582
 2744POPC   PO437248  42.817  18.769   9.499
 2744POPC   GL137249  42.950  18.948   9.159
 2744POPC   GL237250  43.276  18.815   9.186
 2744POPC   C1A37251  42.861  19.161   8.789
 2744POPC   D2A37252  42.940  18.962   8.404
 2744POPC   C3A37253  42.975  19.262   8.082
 2744POPC   C4A37254  43.152  19.216   7.700
 2744POPC   C1B37255  43.331  18.936   8.783
 2744POPC   C2B37256  43.406  18.710   8.425
 2744POPC   C3B37257  43.355  18.887   8.050
 2744POPC   C4B37258  43.473  18.744   7.676
 2745POPC   NC337259  10.315   2.453   9.537
 2745POPC   PO437260  10.535   1.731   9.381
 2745POPC   GL137261  10.311   1.853   9.043
 2745POPC   GL237262  10.303   2.222   9.063
 2745POPC   C1A37263  10.328   1.908   8.596
 2745POPC   D2A37264  10.778   1.894   8.451
 2745POPC   C3A37265  10.750   1.964   8.032
 2745POPC   C4A37266  10.386   1.857   7.835
 2745POPC   C1B37267  10.618   2.311   8.729
 2745POPC   C2B37268  10.515   2.338   8.339
 2745POPC   C3B37269  10.303   2.315   7.997
 2745POPC   C4B37270  10.587   2.334   7.668
 2746POPC   NC337271  11.701   1.783   9.445
 2746POPC   PO437272  12.281   1.900   9.444
 2746POPC   GL137273  11.998   2.137   9.153
 2746POPC   GL237274  11.704   1.970   8.974
 2746POPC   C1A37275  12.044   2.203   8.697
 2746POPC   D2A37276  11.800   2.082   8.338
 2746POPC   C3A37277  11.992   2.144   7.926
 2746POPC   C4A37278  12.278   1.894   7.672
 2746POPC   C1B37279  11.871   1.690   8.678
 2746POPC   C2B37280  11.828   1.560   8.236
 2746POPC   C3B37281  11.768   1.669   7.816
 2746POPC   C4B37282  11.613   2.019   7.590
 2747POPC   NC337283  36.262  30.970   9.676
 2747POPC   PO437284  35.763  30.564   9.505
 2747POPC   GL137285  35.917  30.780   9.183
 2747POPC   GL237286  36.236  30.839   9.191
 2747POPC   C1A37287  35.835  30.790   8.766
 2747POPC   D2A37288  36.037  30.585   8.432
 2747POPC   C3A37289  35.816  30.669   8.079
 2747POPC   C4A37290  35.948  30.811   7.721
 2747POPC   C1B37291  36.360  30.700   8.813
 2747POPC   C2B37292  36.485  30.902   8.447
 2747POPC   C3B37293  36.333  30.799   8.061
 2747POPC   C4B37294  36.215  30.392   7.878
 2748POPC   NC337295  33.106  40.949   9.317
 2748POPC   PO437296  32.534  41.436   9.471
 2748POPC   GL137297  32.631  41.096   9.146
 2748POPC   GL237298  32.865  41.263   8.978
 2748POPC   C1A37299  32.699  40.832   8.770
 2748POPC   D2A37300  33.073  40.719   8.525
 2748POPC   C3A37301  32.983  40.712   8.112
 2748POPC   C4A37302  32.957  40.427   7.775
 2748POPC   C1B37303  33.220  41.190   8.682
 2748POPC   C2B37304  33.593  41.166   8.424
 2748POPC   C3B37305  33.593  40.930   8.036
 2748POPC   C4B37306  33.259  40.867   7.715
 2749POPC   NC337307  41.430  38.688   9.457
 2749POPC   PO437308  40.680  38.553   9.475
 2749POPC   GL137309  40.736  38.355   9.137
 2749POPC   GL237310  41.079  38.550   9.097
 2749POPC   C1A37311  40.507  38.217   8.782
 2749POPC   D2A37312  40.637  38.012   8.417
 2749POPC   C3A37313  40.492  38.146   8.025
 2749POPC   C4A37314  40.203  38.040   7.732
 2749POPC   C1B37315  40.983  38.378   8.692
 2749POPC   C2B37316  40.828  38.469   8.300
 2749POPC   C3B37317  40.933  38.435   7.881
 2749POPC   C4B37318  41.027  38.289   7.455
 2750POPC   NC337319   0.398  44.225   9.618
 2750POPC   PO437320   0.630  43.545   9.622
 2750POPC   GL137321   0.652  43.652   9.162
 2750POPC   GL237322   0.623  44.002   9.149
 2750POPC   C1A37323   0.571  43.615   8.686
 2750POPC   D2A37324   0.608  43.822   8.264
 2750POPC   C3A37325   0.328  43.751   7.907
 2750POPC   C4A37326   0.510  43.702   7.458
 2750POPC   C1B37327   0.342  44.076   8.801
 2750POPC   C2B37328   0.394  44.270   8.390
 2750POPC   C3B37329   0.211  44.301   7.967
 2750POPC   C4B37330   0.213  44.100   7.566
 2751POPC   NC337331   1.552   5.594   9.550
 2751POPC   PO437332   1.055   6.192   9.571
 2751POPC   GL137333   1.081   6.014   9.147
 2751POPC   GL237334   1.304   5.746   9.132
 2751POPC   C1A37335   1.030   5.963   8.678
 2751POPC   D2A37336   0.860   6.181   8.304
 2751POPC   C3A37337   1.203   6.244   8.047
 2751POPC   C4A37338   1.424   5.954   7.809
 2751POPC   C1B37339   1.471   5.454   8.852
 2751POPC   C2B37340   1.463   5.489   8.412
 2751POPC   C3B37341   1.129   5.721   8.179
 2751POPC   C4B37342   0.990   5.642   7.768
 2752POPC   NC337343  17.253   9.529   9.365
 2752POPC   PO437344  17.719   9.981   9.520
 2752POPC   GL137345  17.418   9.967   9.154
 2752POPC   GL237346  17.029   9.858   9.088
 2752POPC   C1A37347  17.516   9.674   8.799
 2752POPC   D2A37348  17.685   9.445   8.466
 2752POPC   C3A37349  17.706   9.593   8.082
 2752POPC   C4A37350  17.734   9.549   7.656
 2752POPC   C1B37351  17.070   9.840   8.658
 2752POPC   C2B37352  17.151   9.553   8.327
 2752POPC   C3B37353  17.248   9.569   7.896
 2752POPC   C4B37354  17.448   9.954   7.720
 2753POPC   NC337355  43.697  27.642   9.377
 2753POPC   PO437356  44.329  27.478   9.576
 2753POPC   GL137357  44.115  27.334   9.126
 2753POPC   GL237358  43.734  27.342   8.988
 2753POPC   C1A37359  44.148  27.469   8.694
 2753POPC   D2A37360  44.100  27.779   8.377
 2753POPC   C3A37361  44.079  27.524   8.022
 2753POPC   C4A37362  43.862  27.656   7.674
 2753POPC   C1B37363  43.608  27.709   8.691
 2753POPC   C2B37364  43.353  27.799   8.293
 2753POPC   C3B37365  43.388  27.801   7.821
 2753POPC   C4B37366  43.496  27.786   7.362
 2754POPC   NC337367  39.437  36.993   9.378
 2754POPC   PO437368  38.819  36.639   9.483
 2754POPC   GL137369  39.058  36.750   9.094
 2754POPC   GL237370  39.352  36.497   9.148
 2754POPC   C1A37371  39.205  37.134   8.782
 2754POPC   D2A37372  39.388  37.340   8.385
 2754POPC   C3A37373  39.164  37.250   8.008
 2754POPC   C4A37374  39.260  36.910   7.700
 2754POPC   C1B37375  39.403  36.660   8.720
 2754POPC   C2B37376  39.442  36.782   8.298
 2754POPC   C3B37377  39.482  36.540   7.922
 2754POPC   C4B37378  39.474  36.510   7.450
 2755POPC   NC337379  31.740  43.320   9.680
 2755POPC   PO437380  32.390  43.335   9.639
 2755POPC   GL137381  32.174  43.340   9.231
 2755POPC   GL237382  32.434  43.158   9.037
 2755POPC   C1A37383  31.979  43.248   8.812
 2755POPC   D2A37384  31.980  43.549   8.471
 2755POPC   C3A37385  31.806  43.509   8.064
 2755POPC   C4A37386  31.939  43.212   7.825
 2755POPC   C1B37387  32.440  43.089   8.603
 2755POPC   C2B37388  32.111  43.067   8.279
 2755POPC   C3B37389  32.090  42.742   7.912
 2755POPC   C4B37390  32.319  42.968   7.601
 2756POPC   NC337391  39.450   7.573   9.481
 2756POPC   PO437392  39.035   7.068   9.651
 2756POPC   GL137393  39.080   7.251   9.220
 2756POPC   GL237394  39.019   7.632   9.125
 2756POPC   C1A37395  39.051   7.238   8.770
 2756POPC   D2A37396  39.028   7.575   8.442
 2756POPC   C3A37397  39.090   7.443   8.052
 2756POPC   C4A37398  39.170   7.503   7.622
 2756POPC   C1B37399  39.378   7.623   8.814
 2756POPC   C2B37400  39.540   7.492   8.367
 2756POPC   C3B37401  39.599   7.570   7.903
 2756POPC   C4B37402  39.644   7.424   7.446
 2757POPC   NC337403  14.145  23.475   9.556
 2757POPC   PO437404  14.718  23.759   9.408
 2757POPC   GL137405  14.469  23.544   9.121
 2757POPC   GL237406  14.166  23.757   9.121
 2757POPC   C1A37407  14.460  23.693   8.693
 2757POPC   D2A37408  14.450  24.011   8.376
 2757POPC   C3A37409  14.596  23.865   7.949
 2757POPC   C4A37410  14.586  23.533   7.624
 2757POPC   C1B37411  13.993  23.925   8.726
 2757POPC   C2B37412  14.031  23.670   8.358
 2757POPC   C3B37413  14.076  23.822   7.952
 2757POPC   C4B37414  14.107  23.908   7.531
 2758POPC   NC337415  10.000  29.143   9.510
 2758POPC   PO437416   9.351  28.976   9.439
 2758POPC   GL137417   9.558  29.302   9.209
 2758POPC   GL237418   9.824  29.114   9.020
 2758POPC   C1A37419   9.596  29.501   8.799
 2758POPC   D2A37420   9.782  29.256   8.452
 2758POPC   C3A37421   9.567  29.430   8.054
 2758POPC   C4A37422   9.326  29.273   7.700
 2758POPC   C1B37423   9.650  28.769   8.743
 2758POPC   C2B37424   9.534  28.534   8.365
 2758POPC   C3B37425   9.567  28.770   8.009
 2758POPC   C4B37426   9.888  29.044   7.994
 2759POPC   NC337427   0.573  37.159   9.371
 2759POPC   PO437428   0.661  36.451   9.491
 2759POPC   GL137429   0.674  36.713   9.144
 2759POPC   GL237430   0.338  36.835   9.049
 2759POPC   C1A37431   0.749  36.951   8.771
 2759POPC   D2A37432   0.511  37.014   8.418
 2759POPC   C3A37433   0.671  37.132   8.053
 2759POPC   C4A37434   0.813  36.772   7.875
 2759POPC   C1B37435   0.084  36.909   8.646
 2759POPC   C2B37436   0.078  37.001   8.167
 2759POPC   C3B37437   0.295  36.986   7.725
 2759POPC   C4B37438   0.287  37.228   7.292
 2760POPC   NC337439   5.520  23.902   9.423
 2760POPC   PO437440   6.073  23.602   9.446
 2760POPC   GL137441   5.844  23.685   9.091
 2760POPC   GL237442   5.659  23.416   8.995
 2760POPC   C1A37443   5.700  23.831   8.694
 2760POPC   D2A37444   5.378  23.628   8.465
 2760POPC   C3A37445   5.541  23.649   8.095
 2760POPC   C4A37446   5.796  23.928   7.887
 2760POPC   C1B37447   5.795  23.330   8.564
 2760POPC   C2B37448   6.184  23.197   8.338
 2760POPC   C3B37449   6.195  23.347   7.915
 2760POPC   C4B37450   5.805  23.418   7.738
 2761POPC   NC337451  10.563  25.231   9.692
 2761POPC   PO437452  10.839  25.254   9.123
 2761POPC   GL137453  10.455  25.148   8.971
 2761POPC   GL237454  10.322  25.461   9.001
 2761POPC   C1A37455  10.343  25.216   8.545
 2761POPC   D2A37456  10.231  25.205   8.126
 2761POPC   C3A37457  10.589  25.258   7.931
 2761POPC   C4A37458  10.871  25.095   7.665
 2761POPC   C1B37459  10.321  25.754   8.679
 2761POPC   C2B37460  10.343  25.704   8.253
 2761POPC   C3B37461  10.337  25.700   7.851
 2761POPC   C4B37462  10.194  25.333   7.616
 2762POPC   NC337463  25.188  12.185   9.737
 2762POPC   PO437464  25.751  11.841   9.620
 2762POPC   GL137465  25.519  12.064   9.281
 2762POPC   GL237466  25.146  12.057   9.210
 2762POPC   C1A37467  25.507  12.036   8.836
 2762POPC   D2A37468  25.295  11.901   8.479
 2762POPC   C3A37469  25.434  12.057   8.069
 2762POPC   C4A37470  25.454  12.257   7.699
 2762POPC   C1B37471  25.021  12.232   8.779
 2762POPC   C2B37472  25.124  12.363   8.339
 2762POPC   C3B37473  24.969  12.312   7.941
 2762POPC   C4B37474  24.779  12.677   7.797
 2763POPC   NC337475   6.504  20.937   9.477
 2763POPC   PO437476   6.590  20.252   9.616
 2763POPC   GL137477   6.791  20.577   9.234
 2763POPC   GL237478   6.714  20.919   9.037
 2763POPC   C1A37479   6.612  20.537   8.746
 2763POPC   D2A37480   6.393  20.488   8.377
 2763POPC   C3A37481   6.645  20.466   8.007
 2763POPC   C4A37482   6.825  20.461   7.620
 2763POPC   C1B37483   6.859  21.049   8.657
 2763POPC   C2B37484   6.845  20.916   8.243
 2763POPC   C3B37485   6.775  21.034   7.845
 2763POPC   C4B37486   6.661  20.944   7.427
 2764POPC   NC337487   6.974  25.992   9.437
 2764POPC   PO437488   7.650  26.120   9.555
 2764POPC   GL137489   7.467  26.104   9.164
 2764POPC   GL237490   7.749  26.319   9.097
 2764POPC   C1A37491   7.251  25.889   8.826
 2764POPC   D2A37492   7.123  25.602   8.517
 2764POPC   C3A37493   7.128  25.762   8.108
 2764POPC   C4A37494   7.157  26.013   7.761
 2764POPC   C1B37495   7.778  25.963   8.782
 2764POPC   C2B37496   7.562  25.852   8.375
 2764POPC   C3B37497   7.682  25.913   7.955
 2764POPC   C4B37498   7.657  26.141   7.587
 2765POPC   NC337499   4.286  11.285   9.422
 2765POPC   PO437500   3.761  11.150   9.766
 2765POPC   GL137501   3.990  10.988   9.177
 2765POPC   GL237502   4.395  10.898   9.119
 2765POPC   C1A37503   4.110  11.057   8.733
 2765POPC   D2A37504   3.960  11.268   8.388
 2765POPC   C3A37505   4.060  11.189   7.988
 2765POPC   C4A37506   3.886  11.268   7.591
 2765POPC   C1B37507   4.599  11.185   8.767
 2765POPC   C2B37508   4.488  11.377   8.344
 2765POPC   C3B37509   4.458  11.601   7.929
 2765POPC   C4B37510   4.690  11.510   7.501
 2766POPC   NC337511  33.201  15.101   9.516
 2766POPC   PO437512  32.820  15.572   9.733
 2766POPC   GL137513  32.932  15.529   9.245
 2766POPC   GL237514  32.966  15.179   9.087
 2766POPC   C1A37515  33.116  15.540   8.762
 2766POPC   D2A37516  33.129  15.263   8.344
 2766POPC   C3A37517  33.161  15.403   7.888
 2766POPC   C4A37518  33.191  15.275   7.416
 2766POPC   C1B37519  32.768  14.951   8.750
 2766POPC   C2B37520  32.714  14.747   8.367
 2766POPC   C3B37521  33.004  14.773   8.046
 2766POPC   C4B37522  32.879  14.972   7.702
 2767POPC   NC337523  19.268  42.611   9.494
 2767POPC   PO437524  18.843  42.164   9.766
 2767POPC   GL137525  18.890  42.268   9.271
 2767POPC   GL237526  19.068  42.513   9.053
 2767POPC   C1A37527  18.895  42.154   8.776
 2767POPC   D2A37528  18.784  42.329   8.359
 2767POPC   C3A37529  18.962  42.136   7.978
 2767POPC   C4A37530  19.296  42.302   7.737
 2767POPC   C1B37531  18.799  42.700   8.747
 2767POPC   C2B37532  19.145  42.661   8.535
 2767POPC   C3B37533  19.183  42.642   8.122
 2767POPC   C4B37534  19.188  42.794   7.744
 2768POPC   NC337535  37.385  11.126   9.397
 2768POPC   PO437536  37.884  11.578   9.669
 2768POPC   GL137537  37.791  11.452   9.185
 2768POPC   GL237538  37.797  11.085   9.084
 2768POPC   C1A37539  37.664  11.486   8.700
 2768POPC   D2A37540  37.856  11.510   8.281
 2768POPC   C3A37541  37.722  11.325   7.890
 2768POPC   C4A37542  37.758  11.394   7.423
 2768POPC   C1B37543  37.539  10.970   8.710
 2768POPC   C2B37544  37.640  10.946   8.263
 2768POPC   C3B37545  37.377  10.880   7.906
 2768POPC   C4B37546  37.306  11.197   7.616
 2769POPC   NC337547  12.280  40.220   9.424
 2769POPC   PO437548  12.070  39.559   9.486
 2769POPC   GL137549  12.232  39.789   9.119
 2769POPC   GL237550  11.898  39.914   9.003
 2769POPC   C1A37551  12.264  40.154   8.788
 2769POPC   D2A37552  11.865  40.241   8.598
 2769POPC   C3A37553  11.920  40.224   8.146
 2769POPC   C4A37554  11.652  40.229   7.779
 2769POPC   C1B37555  12.044  39.696   8.637
 2769POPC   C2B37556  11.908  39.655   8.214
 2769POPC   C3B37557  12.090  39.825   7.846
 2769POPC   C4B37558  12.363  39.928   7.494
 2770POPC   NC337559  27.168  32.620   9.376
 2770POPC   PO437560  27.420  32.850   9.920
 2770POPC   GL137561  27.456  33.041   9.398
 2770POPC   GL237562  27.250  33.032   9.119
 2770POPC   C1A37563  27.685  33.076   8.899
 2770POPC   D2A37564  27.761  33.118   8.433
 2770POPC   C3A37565  27.630  33.071   7.992
 2770POPC   C4A37566  27.915  32.941   7.675
 2770POPC   C1B37567  27.290  32.789   8.737
 2770POPC   C2B37568  27.277  32.884   8.322
 2770POPC   C3B37569  27.307  32.681   7.954
 2770POPC   C4B37570  27.255  32.719   7.523
 2771POPC   NC337571   2.941   8.364   9.526
 2771POPC   PO437572   2.301   8.413   9.532
 2771POPC   GL137573   2.571   8.442   9.178
 2771POPC   GL237574   2.665   8.098   9.147
 2771POPC   C1A37575   2.689   8.473   8.746
 2771POPC   D2A37576   2.814   8.632   8.339
 2771POPC   C3A37577   2.652   8.514   7.954
 2771POPC   C4A37578   2.503   8.364   7.591
 2771POPC   C1B37579   2.844   7.955   8.774
 2771POPC   C2B37580   3.063   8.210   8.487
 2771POPC   C3B37581   3.168   8.285   8.084
 2771POPC   C4B37582   3.161   8.081   7.706
 2772POPC   NC337583   5.711  34.426   9.412
 2772POPC   PO437584   6.341  34.678   9.399
 2772POPC   GL137585   6.048  34.678   9.097
 2772POPC   GL237586   6.055  34.347   9.038
 2772POPC   C1A37587   5.688  34.656   8.793
 2772POPC   D2A37588   5.806  34.545   8.375
 2772POPC   C3A37589   5.644  34.611   7.976
 2772POPC   C4A37590   5.704  34.417   7.588
 2772POPC   C1B37591   6.145  34.088   8.722
 2772POPC   C2B37592   6.116  34.141   8.318
 2772POPC   C3B37593   6.049  34.288   7.920
 2772POPC   C4B37594   6.257  34.274   7.518
 2773POPC   NC337595  30.040  19.542   9.496
 2773POPC   PO437596  29.818  20.139   9.534
 2773POPC   GL137597  29.769  19.847   9.174
 2773POPC   GL237598  30.133  19.746   9.051
 2773POPC   C1A37599  29.739  19.805   8.736
 2773POPC   D2A37600  29.918  19.985   8.365
 2773POPC   C3A37601  29.695  19.820   8.041
 2773POPC   C4A37602  29.748  19.607   7.682
 2773POPC   C1B37603  30.387  19.602   8.709
 2773POPC   C2B37604  30.369  19.715   8.267
 2773POPC   C3B37605  30.323  19.740   7.817
 2773POPC   C4B37606  30.513  19.572   7.434
 2774POPC   NC337607   0.239   1.348   9.382
 2774POPC   PO437608   0.767   1.449   9.702
 2774POPC   GL137609   0.651   1.144   9.175
 2774POPC   GL237610   0.301   0.992   9.015
 2774POPC   C1A37611   0.579   1.268   8.692
 2774POPC   D2A37612   0.321   1.424   8.305
 2774POPC   C3A37613   0.443   1.396   7.860
 2774POPC   C4A37614   0.259   1.299   7.458
 2774POPC   C1B37615   0.308   0.846   8.591
 2774POPC   C2B37616   0.716   0.920   8.349
 2774POPC   C3B37617   0.797   1.024   7.913
 2774POPC   C4B37618   0.528   0.888   7.560
 2775POPC   NC337619  35.567  23.492   9.326
 2775POPC   PO437620  35.422  24.032   9.738
 2775POPC   GL137621  35.324  23.974   9.297
 2775POPC   GL237622  35.092  23.723   9.165
 2775POPC   C1A37623  35.415  24.098   8.870
 2775POPC   D2A37624  35.310  23.899   8.495
 2775POPC   C3A37625  35.439  23.966   8.090
 2775POPC   C4A37626  35.266  24.025   7.728
 2775POPC   C1B37627  35.181  23.469   8.776
 2775POPC   C2B37628  35.290  23.415   8.330
 2775POPC   C3B37629  35.200  23.555   7.912
 2775POPC   C4B37630  34.941  23.331   7.610
 2776POPC   NC337631  28.114   1.461   9.657
 2776POPC   PO437632  28.598   1.896   9.582
 2776POPC   GL137633  28.364   1.660   9.211
 2776POPC   GL237634  28.000   1.732   9.179
 2776POPC   C1A37635  28.243   1.662   8.713
 2776POPC   D2A37636  28.270   1.917   8.297
 2776POPC   C3A37637  28.509   1.833   7.890
 2776POPC   C4A37638  28.674   2.044   7.475
 2776POPC   C1B37639  27.885   2.095   8.888
 2776POPC   C2B37640  27.940   2.337   8.490
 2776POPC   C3B37641  27.977   2.296   8.035
 2776POPC   C4B37642  27.994   1.888   7.844
 2777POPC   NC337643  44.930  13.591   9.507
 2777POPC   PO437644  44.404  13.987   9.301
 2777POPC   GL137645  44.639  13.718   9.081
 2777POPC   GL237646  44.987  13.817   9.065
 2777POPC   C1A37647  44.567  13.656   8.669
 2777POPC   D2A37648  44.304  13.729   8.331
 2777POPC   C3A37649  44.506  13.443   8.072
 2777POPC   C4A37650  44.668  13.417   7.673
 2777POPC   C1B37651   0.041  13.474   8.793
 2777POPC   C2B37652  44.961  13.382   8.349
 2777POPC   C3B37653   0.098  13.466   7.936
 2777POPC   C4B37654  44.969  13.840   7.744
 2778POPC   NC337655  26.914  40.409   9.574
 2778POPC   PO437656  26.576  39.877   9.490
 2778POPC   GL137657  26.661  40.123   9.136
 2778POPC   GL237658  26.517  39.875   8.924
 2778POPC   C1A37659  26.872  40.155   8.729
 2778POPC   D2A37660  26.638  39.998   8.365
 2778POPC   C3A37661  26.914  39.891   8.031
 2778POPC   C4A37662  26.933  40.029   7.609
 2778POPC   C1B37663  26.386  39.559   8.619
 2778POPC   C2B37664  26.353  39.586   8.185
 2778POPC   C3B37665  26.438  39.885   7.846
 2778POPC   C4B37666  26.535  39.801   7.402
 2779POPC   NC337667  11.077  20.535   9.619
 2779POPC   PO437668  11.408  21.137   9.672
 2779POPC   GL137669  11.442  20.831   9.263
 2779POPC   GL237670  11.206  20.538   9.131
 2779POPC   C1A37671  11.608  20.627   8.840
 2779POPC   D2A37672  11.370  20.488   8.500
 2779POPC   C3A37673  11.468  20.533   8.092
 2779POPC   C4A37674  11.498  20.304   7.740
 2779POPC   C1B37675  11.181  20.876   8.816
 2779POPC   C2B37676  11.062  20.893   8.415
 2779POPC   C3B37677  11.142  20.908   8.012
 2779POPC   C4B37678  11.237  20.742   7.611
 2780POPC   NC337679  34.862  44.613   9.630
 2780POPC   PO437680  34.377  44.942   9.484
 2780POPC   GL137681  34.482  44.700   9.124
 2780POPC   GL237682  34.683  44.381   9.187
 2780POPC   C1A37683  34.634  44.845   8.715
 2780POPC   D2A37684  34.933  44.681   8.339
 2780POPC   C3A37685  34.862  44.876   7.904
 2780POPC   C4A37686  34.636   0.022   7.505
 2780POPC   C1B37687  34.813  44.365   8.757
 2780POPC   C2B37688  34.491  44.462   8.443
 2780POPC   C3B37689  34.508  44.532   8.063
 2780POPC   C4B37690  34.430  44.518   7.668
 2781POPC   NC337691  29.583  41.710   9.361
 2781POPC   PO437692  30.080  41.241   9.473
 2781POPC   GL137693  30.139  41.281   9.067
 2781POPC   GL237694  29.986  41.585   9.052
 2781POPC   C1A37695  29.950  41.178   8.709
 2781POPC   D2A37696  29.797  41.365   8.325
 2781POPC   C3A37697  30.016  41.390   7.949
 2781POPC   C4A37698  30.143  41.222   7.534
 2781POPC   C1B37699  29.932  41.840   8.701
 2781POPC   C2B37700  30.107  41.768   8.318
 2781POPC   C3B37701  30.069  41.910   7.898
 2781POPC   C4B37702  29.903  41.683   7.543
 2782POPC   NC337703  20.068  27.199   9.375
 2782POPC   PO437704  19.682  27.785   9.326
 2782POPC   GL137705  19.932  27.588   9.052
 2782POPC   GL237706  19.730  27.299   8.977
 2782POPC   C1A37707  19.957  27.583   8.621
 2782POPC   D2A37708  19.740  27.421   8.261
 2782POPC   C3A37709  19.964  27.476   7.884
 2782POPC   C4A37710  20.140  27.700   7.557
 2782POPC   C1B37711  19.458  27.583   8.690
 2782POPC   C2B37712  19.342  27.781   8.274
 2782POPC   C3B37713  19.523  27.763   7.851
 2782POPC   C4B37714  19.462  27.886   7.406
 2783POPC   NC337715  28.837  28.408   9.523
 2783POPC   PO437716  28.146  28.329   9.577
 2783POPC   GL137717  28.357  28.491   9.197
 2783POPC   GL237718  28.703  28.691   9.133
 2783POPC   C1A37719  28.181  28.428   8.794
 2783POPC   D2A37720  28.051  28.256   8.406
 2783POPC   C3A37721  28.341  28.347   8.074
 2783POPC   C4A37722  28.217  28.292   7.664
 2783POPC   C1B37723  28.697  28.339   8.817
 2783POPC   C2B37724  28.827  28.285   8.383
 2783POPC   C3B37725  28.851  28.198   7.947
 2783POPC   C4B37726  28.682  28.526   7.708
 2784POPC   NC337727  39.296  41.497   9.514
 2784POPC   PO437728  38.903  41.044   9.325
 2784POPC   GL137729  39.065  41.368   9.073
 2784POPC   GL237730  39.002  41.716   9.141
 2784POPC   C1A37731  39.364  41.514   8.773
 2784POPC   D2A37732  39.468  41.314   8.397
 2784POPC   C3A37733  39.343  41.518   8.032
 2784POPC   C4A37734  39.518  41.724   7.710
 2784POPC   C1B37735  38.887  41.688   8.715
 2784POPC   C2B37736  39.156  41.836   8.396
 2784POPC   C3B37737  39.129  41.993   7.983
 2784POPC   C4B37738  39.055  41.843   7.574
 2785POPC   NC337739  20.792  30.383   9.512
 2785POPC   PO437740  20.224  30.549   9.350
 2785POPC   GL137741  20.470  30.529   9.025
 2785POPC   GL237742  20.764  30.714   9.096
 2785POPC   C1A37743  20.572  30.636   8.605
 2785POPC   D2A37744  20.758  30.438   8.271
 2785POPC   C3A37745  20.633  30.657   7.895
 2785POPC   C4A37746  20.470  30.538   7.482
 2785POPC   C1B37747  20.441  31.029   8.891
 2785POPC   C2B37748  20.314  31.085   8.438
 2785POPC   C3B37749  20.211  30.996   7.989
 2785POPC   C4B37750  20.466  31.150   7.667
 2786POPC   NC337751  24.190  41.576   9.758
 2786POPC   PO437752  24.700  41.332   9.564
 2786POPC   GL137753  24.611  41.627   9.259
 2786POPC   GL237754  24.288  41.751   9.197
 2786POPC   C1A37755  24.633  41.611   8.819
 2786POPC   D2A37756  24.626  41.454   8.403
 2786POPC   C3A37757  24.926  41.417   8.060
 2786POPC   C4A37758  24.767  41.585   7.695
 2786POPC   C1B37759  24.249  41.987   8.785
 2786POPC   C2B37760  24.189  41.804   8.394
 2786POPC   C3B37761  24.254  41.563   8.048
 2786POPC   C4B37762  24.312  41.802   7.708
 2787POPC   NC337763   9.665  25.619   9.481
 2787POPC   PO437764  10.109  25.192   9.744
 2787POPC   GL137765   9.967  25.264   9.294
 2787POPC   GL237766   9.751  25.047   9.130
 2787POPC   C1A37767   9.852  25.442   8.845
 2787POPC   D2A37768   9.845  25.207   8.459
 2787POPC   C3A37769   9.730  25.351   8.049
 2787POPC   C4A37770   9.314  25.401   7.855
 2787POPC   C1B37771   9.462  25.093   8.789
 2787POPC   C2B37772   9.343  25.147   8.349
 2787POPC   C3B37773   9.453  24.894   8.007
 2787POPC   C4B37774   9.271  24.767   7.645
 2788POPC   NC337775  25.533  28.946   9.596
 2788POPC   PO437776  24.902  29.164   9.624
 2788POPC   GL137777  25.159  29.093   9.219
 2788POPC   GL237778  25.522  29.213   9.153
 2788POPC   C1A37779  25.171  29.112   8.754
 2788POPC   D2A37780  24.973  29.285   8.386
 2788POPC   C3A37781  25.192  29.231   7.956
 2788POPC   C4A37782  25.288  29.263   7.474
 2788POPC   C1B37783  25.665  28.941   8.786
 2788POPC   C2B37784  25.618  28.925   8.300
 2788POPC   C3B37785  25.591  28.947   7.796
 2788POPC   C4B37786  25.769  29.124   7.415
 2789POPC   NC337787   6.462  29.682   9.504
 2789POPC   PO437788   7.068  29.944   9.734
 2789POPC   GL137789   6.813  29.997   9.266
 2789POPC   GL237790   6.484  30.137   9.281
 2789POPC   C1A37791   6.761  29.862   8.804
 2789POPC   D2A37792   6.778  29.702   8.329
 2789POPC   C3A37793   6.691  29.803   7.868
 2789POPC   C4A37794   6.957  30.071   7.563
 2789POPC   C1B37795   6.324  30.211   8.882
 2789POPC   C2B37796   6.429  30.088   8.476
 2789POPC   C3B37797   6.317  30.076   8.070
 2789POPC   C4B37798   6.465  30.207   7.688
 2790POPC   NC337799  17.054  17.703   9.563
 2790POPC   PO437800  16.361  17.519   9.570
 2790POPC   GL137801  16.683  17.502   9.270
 2790POPC   GL237802  16.689  17.835   9.217
 2790POPC   C1A37803  16.805  17.442   8.866
 2790POPC   D2A37804  16.595  17.408   8.455
 2790POPC   C3A37805  16.642  17.314   8.005
 2790POPC   C4A37806  16.773  17.158   7.622
 2790POPC   C1B37807  16.580  17.898   8.796
 2790POPC   C2B37808  16.913  17.809   8.510
 2790POPC   C3B37809  16.926  17.728   8.095
 2790POPC   C4B37810  17.193  17.434   7.921
 2791POPC   NC337811  37.119  15.831   9.456
 2791POPC   PO437812  36.546  16.044   9.776
 2791POPC   GL137813  36.641  16.128   9.282
 2791POPC   GL237814  36.977  16.124   9.093
 2791POPC   C1A37815  36.617  15.988   8.801
 2791POPC   D2A37816  36.880  15.996   8.451
 2791POPC   C3A37817  36.683  15.930   8.066
 2791POPC   C4A37818  36.740  16.033   7.658
 2791POPC   C1B37819  37.187  16.328   8.756
 2791POPC   C2B37820  37.332  16.230   8.350
 2791POPC   C3B37821  37.060  16.264   8.023
 2791POPC   C4B37822  37.032  16.450   7.674
 2792POPC   NC337823  15.293  35.910   9.268
 2792POPC   PO437824  14.785  36.300   9.302
 2792POPC   GL137825  15.095  36.342   9.029
 2792POPC   GL237826  15.443  36.408   9.165
 2792POPC   C1A37827  15.072  36.195   8.626
 2792POPC   D2A37828  15.115  36.311   8.238
 2792POPC   C3A37829  15.108  35.994   7.985
 2792POPC   C4A37830  15.108  36.259   7.618
 2792POPC   C1B37831  15.561  36.238   8.763
 2792POPC   C2B37832  15.554  36.105   8.354
 2792POPC   C3B37833  15.542  36.230   7.923
 2792POPC   C4B37834  15.522  35.877   7.683
 2793POPC   NC337835  10.675  19.107   9.627
 2793POPC   PO437836  10.074  19.083   9.468
 2793POPC   GL137837  10.408  19.216   9.164
 2793POPC   GL237838  10.789  19.269   9.139
 2793POPC   C1A37839  10.434  19.245   8.734
 2793POPC   D2A37840  10.212  19.102   8.374
 2793POPC   C3A37841  10.421  18.880   8.042
 2793POPC   C4A37842  10.400  18.992   7.614
 2793POPC   C1B37843  10.922  19.354   8.712
 2793POPC   C2B37844  10.739  19.209   8.291
 2793POPC   C3B37845  10.872  19.037   7.867
 2793POPC   C4B37846  10.868  18.754   7.519
 2794POPC   NC337847  20.151  42.141   9.511
 2794POPC   PO437848  19.722  42.671   9.544
 2794POPC   GL137849  19.663  42.428   9.145
 2794POPC   GL237850  19.785  42.059   9.132
 2794POPC   C1A37851  19.432  42.262   8.773
 2794POPC   D2A37852  19.320  42.191   8.344
 2794POPC   C3A37853  19.689  42.251   8.069
 2794POPC   C4A37854  19.817  42.330   7.648
 2794POPC   C1B37855  20.053  42.040   8.752
 2794POPC   C2B37856  20.012  41.901   8.302
 2794POPC   C3B37857  20.099  41.975   7.863
 2794POPC   C4B37858  20.156  42.027   7.374
 2795POPC   NC337859  42.321   0.894   9.450
 2795POPC   PO437860  41.946   1.415   9.481
 2795POPC   GL137861  42.228   1.271   9.116
 2795POPC   GL237862  42.562   1.149   9.044
 2795POPC   C1A37863  42.154   1.060   8.744
 2795POPC   D2A37864  42.208   1.266   8.382
 2795POPC   C3A37865  42.176   1.117   8.024
 2795POPC   C4A37866  42.039   1.353   7.713
 2795POPC   C1B37867  42.638   1.193   8.623
 2795POPC   C2B37868  42.662   1.230   8.162
 2795POPC   C3B37869  42.578   1.169   7.719
 2795POPC   C4B37870  42.669   1.033   7.307
 2796POPC   NC337871  22.174  18.826   9.324
 2796POPC   PO437872  21.726  19.283   9.708
 2796POPC   GL137873  22.138  19.316   9.201
 2796POPC   GL237874  22.419  19.146   9.023
 2796POPC   C1A37875  22.020  19.166   8.724
 2796POPC   D2A37876  21.990  18.872   8.346
 2796POPC   C3A37877  21.847  19.057   7.932
 2796POPC   C4A37878  22.122  19.302   7.636
 2796POPC   C1B37879  22.476  18.913   8.690
 2796POPC   C2B37880  22.517  19.073   8.333
 2796POPC   C3B37881  22.350  18.995   7.983
 2796POPC   C4B37882  22.530  18.772   7.723
 2797POPC   NC337883  21.645  16.889   9.630
 2797POPC   PO437884  20.924  16.673   9.686
 2797POPC   GL137885  21.229  16.908   9.345
 2797POPC   GL237886  21.447  16.676   9.207
 2797POPC   C1A37887  21.379  17.058   8.895
 2797POPC   D2A37888  21.355  16.867   8.471
 2797POPC   C3A37889  21.489  17.056   8.068
 2797POPC   C4A37890  21.318  16.909   7.680
 2797POPC   C1B37891  21.598  16.555   8.815
 2797POPC   C2B37892  21.590  16.400   8.409
 2797POPC   C3B37893  21.518  16.547   8.023
 2797POPC   C4B37894  21.709  16.432   7.662
 2798POPC   NC337895   3.164  44.928  10.052
 2798POPC   PO437896   2.610   0.006   9.611
 2798POPC   GL137897   2.616  44.741   9.260
 2798POPC   GL237898   2.957  44.757   9.203
 2798POPC   C1A37899   2.500  44.762   8.835
 2798POPC   D2A37900   2.715  44.690   8.437
 2798POPC   C3A37901   2.568  44.790   8.042
 2798POPC   C4A37902   2.796  44.720   7.661
 2798POPC   C1B37903   2.924  44.476   8.862
 2798POPC   C2B37904   3.046  44.310   8.480
 2798POPC   C3B37905   3.062  44.449   8.064
 2798POPC   C4B37906   3.038  44.270   7.645
 2799POPC   NC337907  15.597  26.759   9.673
 2799POPC   PO437908  16.245  26.527   9.531
 2799POPC   GL137909  15.964  26.780   9.255
 2799POPC   GL237910  15.689  26.576   9.201
 2799POPC   C1A37911  15.735  26.964   8.889
 2799POPC   D2A37912  15.734  26.819   8.477
 2799POPC   C3A37913  15.967  27.056   8.165
 2799POPC   C4A37914  16.237  26.873   7.857
 2799POPC   C1B37915  15.618  26.422   8.797
 2799POPC   C2B37916  15.647  26.336   8.323
 2799POPC   C3B37917  15.737  26.617   7.947
 2799POPC   C4B37918  15.713  26.692   7.487
 2800POPC   NC337919  20.422  40.360   9.494
 2800POPC   PO437920  21.000  40.006   9.638
 2800POPC   GL137921  20.771  40.040   9.208
 2800POPC   GL237922  20.394  39.994   9.124
 2800POPC   C1A37923  20.803  39.924   8.755
 2800POPC   D2A37924  20.589  39.940   8.334
 2800POPC   C3A37925  20.793  39.963   7.923
 2800POPC   C4A37926  21.044  39.612   7.774
 2800POPC   C1B37927  20.406  40.274   8.779
 2800POPC   C2B37928  20.420  40.417   8.339
 2800POPC   C3B37929  20.283  40.245   7.938
 2800POPC   C4B37930  20.471  40.096   7.544
 2801POPC   NC337931  35.649  25.087   9.322
 2801POPC   PO437932  35.092  25.413   9.361
 2801POPC   GL137933  35.219  25.137   9.032
 2801POPC   GL237934  35.011  24.907   9.207
 2801POPC   C1A37935  35.535  25.041   8.682
 2801POPC   D2A37936  35.604  24.854   8.258
 2801POPC   C3A37937  35.573  25.140   7.905
 2801POPC   C4A37938  35.400  25.549   7.757
 2801POPC   C1B37939  34.828  24.920   8.800
 2801POPC   C2B37940  35.101  24.941   8.441
 2801POPC   C3B37941  35.089  24.805   8.036
 2801POPC   C4B37942  35.047  25.068   7.705
 2802POPC   NC337943  12.162  35.203   9.419
 2802POPC   PO437944  11.778  35.768   9.323
 2802POPC   GL137945  11.979  35.445   8.991
 2802POPC   GL237946  11.883  35.080   9.018
 2802POPC   C1A37947  11.966  35.221   8.550
 2802POPC   D2A37948  11.748  35.258   8.156
 2802POPC   C3A37949  11.881  35.557   7.891
 2802POPC   C4A37950  12.227  35.739   7.766
 2802POPC   C1B37951  12.315  34.937   8.843
 2802POPC   C2B37952  12.445  34.897   8.437
 2802POPC   C3B37953  12.272  35.150   8.112
 2802POPC   C4B37954  12.252  35.071   7.672
 2803POPC   NC337955  40.214  21.498   9.695
 2803POPC   PO437956  39.893  21.061   9.342
 2803POPC   GL137957  39.907  21.455   9.122
 2803POPC   GL237958  40.211  21.668   9.151
 2803POPC   C1A37959  39.975  21.591   8.681
 2803POPC   D2A37960  40.131  21.514   8.252
 2803POPC   C3A37961  39.846  21.395   7.917
 2803POPC   C4A37962  39.897  21.103   7.586
 2803POPC   C1B37963  40.491  21.630   8.784
 2803POPC   C2B37964  40.602  21.726   8.359
 2803POPC   C3B37965  40.422  21.812   7.953
 2803POPC   C4B37966  40.011  21.861   7.809
 2804POPC   NC337967  24.039  14.888   9.478
 2804POPC   PO437968  23.583  14.382   9.556
 2804POPC   GL137969  23.655  14.344   9.152
 2804POPC   GL237970  23.653  14.715   9.162
 2804POPC   C1A37971  23.566  14.464   8.730
 2804POPC   D2A37972  23.281  14.507   8.405
 2804POPC   C3A37973  23.476  14.349   8.038
 2804POPC   C4A37974  23.844  14.345   7.790
 2804POPC   C1B37975  23.831  14.885   8.768
 2804POPC   C2B37976  23.792  14.694   8.323
 2804POPC   C3B37977  23.860  14.831   7.922
 2804POPC   C4B37978  23.832  14.791   7.481
 2805POPC   NC337979  43.092  13.191   9.324
 2805POPC   PO437980  42.932  12.592   9.564
 2805POPC   GL137981  43.120  12.641   9.157
 2805POPC   GL237982  43.446  12.763   9.253
 2805POPC   C1A37983  43.093  12.891   8.744
 2805POPC   D2A37984  42.898  12.761   8.353
 2805POPC   C3A37985  43.042  12.638   7.960
 2805POPC   C4A37986  42.834  12.914   7.711
 2805POPC   C1B37987  43.544  12.687   8.810
 2805POPC   C2B37988  43.399  12.744   8.361
 2805POPC   C3B37989  43.546  12.614   7.955
 2805POPC   C4B37990  43.379  12.830   7.611
 2806POPC   NC337991  10.386  32.868   9.381
 2806POPC   PO437992  10.936  33.333   9.447
 2806POPC   GL137993  10.718  33.140   9.115
 2806POPC   GL237994  10.367  33.253   8.974
 2806POPC   C1A37995  10.780  33.004   8.687
 2806POPC   D2A37996  10.823  33.077   8.263
 2806POPC   C3A37997  10.494  33.184   8.004
 2806POPC   C4A37998  10.569  33.356   7.566
 2806POPC   C1B37999  10.287  33.030   8.535
 2806POPC   C2B38000  10.420  32.700   8.212
 2806POPC   C3B38001  10.260  32.700   7.786
 2806POPC   C4B38002  10.135  33.086   7.666
 2807POPC   NC338003  16.227   7.329   9.760
 2807POPC   PO438004  15.738   6.940   9.597
 2807POPC   GL138005  15.968   7.205   9.223
 2807POPC   GL238006  16.120   7.106   8.946
 2807POPC   C1A38007  15.993   7.579   8.870
 2807POPC   D2A38008  16.113   7.683   8.461
 2807POPC   C3A38009  15.929   7.488   8.103
 2807POPC   C4A38010  15.774   7.607   7.705
 2807POPC   C1B38011  16.390   7.292   8.727
 2807POPC   C2B38012  16.339   7.224   8.372
 2807POPC   C3B38013  16.401   7.344   8.043
 2807POPC   C4B38014  16.206   7.248   7.713
 2808POPC   NC338015   4.935  16.606   9.556
 2808POPC   PO438016   4.231  16.841   9.527
 2808POPC   GL138017   4.165  16.587   9.134
 2808POPC   GL238018   3.815  16.389   9.111
 2808POPC   C1A38019   4.356  16.694   8.695
 2808POPC   D2A38020   4.332  17.052   8.383
 2808POPC   C3A38021   4.563  16.939   8.013
 2808POPC   C4A38022   4.507  16.560   7.776
 2808POPC   C1B38023   3.866  16.655   8.741
 2808POPC   C2B38024   3.832  16.546   8.343
 2808POPC   C3B38025   4.032  16.707   8.003
 2808POPC   C4B38026   4.176  16.963   7.689
 2809POPC   NC338027  29.543  43.169   9.698
 2809POPC   PO438028  30.113  42.853   9.510
 2809POPC   GL138029  29.801  43.050   9.227
 2809POPC   GL238030  29.953  42.864   8.984
 2809POPC   C1A38031  29.685  43.243   8.796
 2809POPC   D2A38032  29.953  43.235   8.411
 2809POPC   C3A38033  29.943  43.517   8.093
 2809POPC   C4A38034  29.909  43.418   7.733
 2809POPC   C1B38035  30.254  42.919   8.666
 2809POPC   C2B38036  30.239  42.783   8.238
 2809POPC   C3B38037  29.996  42.948   7.919
 2809POPC   C4B38038  30.052  43.028   7.478
 2810POPC   NC338039  29.552   4.460   9.828
 2810POPC   PO438040  29.061   4.282   9.616
 2810POPC   GL138041  28.962   4.231   9.140
 2810POPC   GL238042  29.019   4.555   9.003
 2810POPC   C1A38043  29.003   4.166   8.662
 2810POPC   D2A38044  29.059   4.407   8.263
 2810POPC   C3A38045  29.190   4.238   7.858
 2810POPC   C4A38046  29.509   4.131   7.570
 2810POPC   C1B38047  28.712   4.589   8.660
 2810POPC   C2B38048  28.547   4.462   8.274
 2810POPC   C3B38049  28.738   4.505   7.849
 2810POPC   C4B38050  28.876   4.848   7.595
 2811POPC   NC338051   2.769  38.247   9.370
 2811POPC   PO438052   2.963  38.919   9.474
 2811POPC   GL138053   2.761  38.735   9.091
 2811POPC   GL238054   2.453  38.491   9.044
 2811POPC   C1A38055   2.936  38.572   8.709
 2811POPC   D2A38056   2.832  38.553   8.252
 2811POPC   C3A38057   2.941  38.794   7.900
 2811POPC   C4A38058   3.012  38.639   7.472
 2811POPC   C1B38059   2.451  38.432   8.592
 2811POPC   C2B38060   2.353  38.341   8.155
 2811POPC   C3B38061   2.651  38.318   7.790
 2811POPC   C4B38062   2.600  38.359   7.332
 2812POPC   NC338063  31.214  11.547   9.569
 2812POPC   PO438064  30.622  11.100   9.501
 2812POPC   GL138065  30.507  11.206   9.073
 2812POPC   GL238066  30.811  11.451   9.086
 2812POPC   C1A38067  30.583  11.251   8.632
 2812POPC   D2A38068  30.995  11.120   8.420
 2812POPC   C3A38069  30.958  11.273   8.024
 2812POPC   C4A38070  30.538  11.285   7.900
 2812POPC   C1B38071  30.956  11.596   8.669
 2812POPC   C2B38072  30.738  11.658   8.244
 2812POPC   C3B38073  30.735  11.722   7.771
 2812POPC   C4B38074  30.809  11.427   7.447
 2813POPC   NC338075  40.984  30.935   9.566
 2813POPC   PO438076  40.655  30.364   9.452
 2813POPC   GL138077  40.759  30.596   9.115
 2813POPC   GL238078  40.612  30.917   9.186
 2813POPC   C1A38079  40.980  30.529   8.717
 2813POPC   D2A38080  41.169  30.477   8.313
 2813POPC   C3A38081  40.926  30.555   7.956
 2813POPC   C4A38082  41.045  30.736   7.571
 2813POPC   C1B38083  40.879  31.024   8.808
 2813POPC   C2B38084  40.976  30.967   8.373
 2813POPC   C3B38085  40.803  31.051   7.967
 2813POPC   C4B38086  41.058  31.232   7.668
 2814POPC   NC338087  25.721   8.075   9.516
 2814POPC   PO438088  26.073   8.598   9.249
 2814POPC   GL138089  26.035   8.211   9.113
 2814POPC   GL238090  26.357   8.093   9.152
 2814POPC   C1A38091  25.967   8.107   8.683
 2814POPC   D2A38092  25.914   8.453   8.363
 2814POPC   C3A38093  25.848   8.399   7.931
 2814POPC   C4A38094  26.061   8.299   7.529
 2814POPC   C1B38095  26.445   7.943   8.742
 2814POPC   C2B38096  26.248   7.841   8.337
 2814POPC   C3B38097  26.204   8.046   7.939
 2814POPC   C4B38098  26.367   7.864   7.509
 2815POPC   NC338099  19.283  37.951   9.558
 2815POPC   PO438100  18.658  37.784   9.579
 2815POPC   GL138101  18.837  37.894   9.162
 2815POPC   GL238102  18.628  37.660   8.986
 2815POPC   C1A38103  18.878  37.993   8.696
 2815POPC   D2A38104  18.841  37.714   8.348
 2815POPC   C3A38105  19.053  37.843   8.014
 2815POPC   C4A38106  18.758  38.086   7.836
 2815POPC   C1B38107  19.008  37.471   8.769
 2815POPC   C2B38108  19.173  37.298   8.354
 2815POPC   C3B38109  19.121  37.345   7.891
 2815POPC   C4B38110  19.289  37.380   7.475
 2816POPC   NC338111   4.020  38.298   9.737
 2816POPC   PO438112   4.620  38.468   9.493
 2816POPC   GL138113   4.405  38.555   9.128
 2816POPC   GL238114   4.349  38.252   9.123
 2816POPC   C1A38115   4.221  38.673   8.723
 2816POPC   D2A38116   4.049  38.594   8.311
 2816POPC   C3A38117   4.215  38.772   7.890
 2816POPC   C4A38118   4.361  38.549   7.527
 2816POPC   C1B38119   4.556  38.095   8.765
 2816POPC   C2B38120   4.631  38.191   8.350
 2816POPC   C3B38121   4.340  38.282   8.025
 2816POPC   C4B38122   3.970  38.152   7.816
 2817POPC   NC338123  18.022   7.360   9.539
 2817POPC   PO438124  18.629   7.581   9.583
 2817POPC   GL138125  18.378   7.599   9.232
 2817POPC   GL238126  18.007   7.686   9.149
 2817POPC   C1A38127  18.401   7.670   8.821
 2817POPC   D2A38128  18.121   7.646   8.522
 2817POPC   C3A38129  18.168   7.626   8.088
 2817POPC   C4A38130  18.291   7.930   7.787
 2817POPC   C1B38131  18.093   7.263   8.902
 2817POPC   C2B38132  18.108   7.149   8.457
 2817POPC   C3B38133  17.943   7.131   8.056
 2817POPC   C4B38134  18.063   7.361   7.672
 2818POPC   NC338135  33.946  16.878   9.456
 2818POPC   PO438136  33.962  16.247   9.600
 2818POPC   GL138137  33.937  16.459   9.176
 2818POPC   GL238138  33.588  16.650   9.154
 2818POPC   C1A38139  34.020  16.666   8.775
 2818POPC   D2A38140  34.156  16.546   8.348
 2818POPC   C3A38141  33.895  16.645   8.014
 2818POPC   C4A38142  33.967  16.717   7.605
 2818POPC   C1B38143  33.550  16.880   8.783
 2818POPC   C2B38144  33.535  16.630   8.422
 2818POPC   C3B38145  33.386  16.702   8.015
 2818POPC   C4B38146  33.569  17.026   7.783
 2819POPC   NC338147  10.915   1.504   9.209
 2819POPC   PO438148  10.689   1.062   9.639
 2819POPC   GL138149  10.516   1.014   9.187
 2819POPC   GL238150  10.441   1.329   9.080
 2819POPC   C1A38151  10.247   0.957   8.797
 2819POPC   D2A38152  10.428   1.019   8.385
 2819POPC   C3A38153  10.328   0.873   7.978
 2819POPC   C4A38154  10.207   0.894   7.540
 2819POPC   C1B38155  10.497   1.443   8.677
 2819POPC   C2B38156  10.503   1.502   8.252
 2819POPC   C3B38157  10.695   1.243   7.978
 2819POPC   C4B38158  10.725   1.553   7.668
 2820POPC   NC338159  21.083  39.632   9.370
 2820POPC   PO438160  20.492  39.170   9.477
 2820POPC   GL138161  20.664  39.245   9.099
 2820POPC   GL238162  20.635  39.553   9.102
 2820POPC   C1A38163  20.755  39.145   8.661
 2820POPC   D2A38164  21.010  38.934   8.315
 2820POPC   C3A38165  20.849  38.888   7.896
 2820POPC   C4A38166  20.735  39.155   7.566
 2820POPC   C1B38167  20.372  39.583   8.741
 2820POPC   C2B38168  20.357  39.391   8.332
 2820POPC   C3B38169  20.561  39.474   7.936
 2820POPC   C4B38170  20.455  39.566   7.507
 2821POPC   NC338171   6.101  12.612   9.288
 2821POPC   PO438172   6.753  12.673   9.489
 2821POPC   GL138173   6.635  12.879   9.116
 2821POPC   GL238174   6.327  13.054   9.168
 2821POPC   C1A38175   6.842  13.001   8.721
 2821POPC   D2A38176   6.776  12.783   8.357
 2821POPC   C3A38177   6.830  12.964   7.960
 2821POPC   C4A38178   7.010  12.775   7.617
 2821POPC   C1B38179   6.327  13.025   8.708
 2821POPC   C2B38180   6.451  13.172   8.279
 2821POPC   C3B38181   6.309  13.024   7.886
 2821POPC   C4B38182   6.529  13.019   7.527
 2822POPC   NC338183  25.286  15.419   9.536
 2822POPC   PO438184  25.161  14.803   9.478
 2822POPC   GL138185  24.908  15.073   9.211
 2822POPC   GL238186  24.943  15.423   9.126
 2822POPC   C1A38187  24.814  15.073   8.749
 2822POPC   D2A38188  24.808  14.882   8.302
 2822POPC   C3A38189  25.120  15.062   7.998
 2822POPC   C4A38190  25.530  15.139   7.775
 2822POPC   C1B38191  24.872  15.585   8.691
 2822POPC   C2B38192  25.037  15.506   8.253
 2822POPC   C3B38193  25.152  15.522   7.777
 2822POPC   C4B38194  25.014  15.673   7.374
 2823POPC   NC338195   1.513  18.982   9.704
 2823POPC   PO438196   2.218  19.080   9.555
 2823POPC   GL138197   1.952  19.137   9.196
 2823POPC   GL238198   1.688  19.350   9.309
 2823POPC   C1A38199   1.829  19.020   8.783
 2823POPC   D2A38200   1.978  18.875   8.414
 2823POPC   C3A38201   2.072  19.183   8.139
 2823POPC   C4A38202   2.127  19.221   7.732
 2823POPC   C1B38203   1.554  19.416   8.876
 2823POPC   C2B38204   1.623  19.353   8.379
 2823POPC   C3B38205   1.665  19.391   7.886
 2823POPC   C4B38206   1.717  19.233   7.429
 2824POPC   NC338207  30.306  28.112   9.508
 2824POPC   PO438208  29.868  28.502   9.543
 2824POPC   GL138209  29.956  28.353   9.150
 2824POPC   GL238210  29.633  28.375   8.992
 2824POPC   C1A38211  30.040  28.208   8.736
 2824POPC   D2A38212  29.713  28.191   8.452
 2824POPC   C3A38213  29.819  28.277   8.037
 2824POPC   C4A38214  30.180  28.536   7.920
 2824POPC   C1B38215  29.748  28.639   8.690
 2824POPC   C2B38216  29.862  28.741   8.299
 2824POPC   C3B38217  29.633  28.755   7.934
 2824POPC   C4B38218  29.775  28.542   7.588
 2825POPC   NC338219   0.688  11.684   9.324
 2825POPC   PO438220   0.494  12.237   9.634
 2825POPC   GL138221   0.534  12.217   9.154
 2825POPC   GL238222   0.828  12.052   8.990
 2825POPC   C1A38223   0.392  12.173   8.703
 2825POPC   D2A38224   0.080  11.953   8.427
 2825POPC   C3A38225   0.156  11.904   7.984
 2825POPC   C4A38226   0.140  12.005   7.533
 2825POPC   C1B38227   0.681  11.719   8.711
 2825POPC   C2B38228   0.522  11.718   8.354
 2825POPC   C3B38229   0.672  11.835   8.025
 2825POPC   C4B38230   0.528  11.732   7.655
 2826POPC   NC338231  13.879  40.189   9.527
 2826POPC   PO438232  13.331  39.796   9.691
 2826POPC   GL138233  13.476  40.016   9.272
 2826POPC   GL238234  13.794  39.969   9.092
 2826POPC   C1A38235  13.385  40.074   8.827
 2826POPC   D2A38236  13.508  40.082   8.406
 2826POPC   C3A38237  13.223  40.154   8.074
 2826POPC   C4A38238  13.326  40.076   7.673
 2826POPC   C1B38239  13.904  40.217   8.722
 2826POPC   C2B38240  14.005  40.126   8.296
 2826POPC   C3B38241  13.805  40.189   7.900
 2826POPC   C4B38242  13.719  40.292   7.455
 2827POPC   NC338243   0.916  10.158   9.335
 2827POPC   PO438244   1.399  10.566   9.662
 2827POPC   GL138245   1.283  10.546   9.206
 2827POPC   GL238246   1.535  10.776   9.115
 2827POPC   C1A38247   1.139  10.409   8.743
 2827POPC   D2A38248   1.301  10.387   8.284
 2827POPC   C3A38249   1.023  10.544   7.961
 2827POPC   C4A38250   1.160  10.546   7.546
 2827POPC   C1B38251   1.442  10.801   8.699
 2827POPC   C2B38252   1.162  10.866   8.363
 2827POPC   C3B38253   1.398  10.886   7.964
 2827POPC   C4B38254   1.483  10.928   7.526
 2828POPC   NC338255  28.655  10.928   9.461
 2828POPC   PO438256  28.271  10.451   9.779
 2828POPC   GL138257  28.318  10.322   9.301
 2828POPC   GL238258  28.616  10.482   9.184
 2828POPC   C1A38259  28.188  10.457   8.849
 2828POPC   D2A38260  27.910  10.552   8.455
 2828POPC   C3A38261  28.146  10.600   8.053
 2828POPC   C4A38262  28.211  10.233   7.776
 2828POPC   C1B38263  28.760  10.399   8.775
 2828POPC   C2B38264  28.843  10.510   8.369
 2828POPC   C3B38265  28.796  10.265   8.018
 2828POPC   C4B38266  28.638  10.517   7.746
 2829POPC   NC338267  21.260   4.627   9.534
 2829POPC   PO438268  21.594   5.197   9.440
 2829POPC   GL138269  21.416   4.947   9.126
 2829POPC   GL238270  21.670   4.781   9.058
 2829POPC   C1A38271  21.305   5.056   8.685
 2829POPC   D2A38272  21.340   4.946   8.251
 2829POPC   C3A38273  21.238   5.271   8.017
 2829POPC   C4A38274  21.428   5.483   7.711
 2829POPC   C1B38275  21.888   4.647   8.724
 2829POPC   C2B38276  22.020   4.557   8.329
 2829POPC   C3B38277  21.799   4.695   7.950
 2829POPC   C4B38278  21.434   4.897   7.728
 2830POPC   NC338279  16.246  21.590   9.548
 2830POPC   PO438280  15.811  20.994   9.570
 2830POPC   GL138281  15.899  21.309   9.291
 2830POPC   GL238282  16.137  21.094   9.152
 2830POPC   C1A38283  15.970  21.569   8.906
 2830POPC   D2A38284  15.869  21.516   8.462
 2830POPC   C3A38285  16.208  21.462   8.156
 2830POPC   C4A38286  16.230  21.502   7.709
 2830POPC   C1B38287  15.839  21.081   8.821
 2830POPC   C2B38288  15.879  20.994   8.398
 2830POPC   C3B38289  15.816  21.191   8.012
 2830POPC   C4B38290  15.841  21.080   7.618
 2831POPC   NC338291  30.493  37.806   9.523
 2831POPC   PO438292  30.849  37.310   9.383
 2831POPC   GL138293  30.801  37.693   9.122
 2831POPC   GL238294  30.551  37.975   9.055
 2831POPC   C1A38295  30.857  37.764   8.694
 2831POPC   D2A38296  31.021  37.690   8.307
 2831POPC   C3A38297  30.798  37.856   7.989
 2831POPC   C4A38298  30.612  37.566   7.665
 2831POPC   C1B38299  30.382  37.632   8.804
 2831POPC   C2B38300  30.411  37.550   8.354
 2831POPC   C3B38301  30.293  37.789   7.988
 2831POPC   C4B38302  30.437  38.071   7.683
 2832POPC   NC338303   1.384  11.010   9.571
 2832POPC   PO438304   0.983  11.473   9.602
 2832POPC   GL138305   1.128  11.287   9.203
 2832POPC   GL238306   1.485  11.302   9.143
 2832POPC   C1A38307   1.111  11.208   8.758
 2832POPC   D2A38308   0.935  11.403   8.388
 2832POPC   C3A38309   0.998  11.199   8.010
 2832POPC   C4A38310   0.954  11.473   7.696
 2832POPC   C1B38311   1.622  11.274   8.720
 2832POPC   C2B38312   1.426  11.292   8.304
 2832POPC   C3B38313   1.429  11.427   7.850
 2832POPC   C4B38314   1.694  11.377   7.500
 2833POPC   NC338315  36.291  15.567   9.510
 2833POPC   PO438316  35.990  15.000   9.646
 2833POPC   GL138317  35.968  15.085   9.189
 2833POPC   GL238318  36.186  15.315   9.096
 2833POPC   C1A38319  36.102  14.980   8.749
 2833POPC   D2A38320  36.237  15.258   8.444
 2833POPC   C3A38321  36.188  15.042   8.085
 2833POPC   C4A38322  36.248  15.170   7.672
 2833POPC   C1B38323  35.823  15.399   8.789
 2833POPC   C2B38324  35.846  15.609   8.401
 2833POPC   C3B38325  36.003  15.516   8.037
 2833POPC   C4B38326  35.856  15.560   7.663
 2834POPC   NC338327  39.613  15.907   9.470
 2834POPC   PO438328  39.471  16.384   9.885
 2834POPC   GL138329  39.160  16.261   9.468
 2834POPC   GL238330  39.106  15.955   9.244
 2834POPC   C1A38331  39.061  16.362   8.952
 2834POPC   D2A38332  38.981  16.275   8.493
 2834POPC   C3A38333  38.827  15.972   8.181
 2834POPC   C4A38334  38.971  16.088   7.760
 2834POPC   C1B38335  39.029  15.845   8.821
 2834POPC   C2B38336  39.265  15.778   8.453
 2834POPC   C3B38337  39.352  16.003   8.098
 2834POPC   C4B38338  39.501  15.768   7.766
 2835POPC   NC338339   0.327  12.679   9.609
 2835POPC   PO438340   0.781  13.194   9.622
 2835POPC   GL138341   0.708  12.793   9.297
 2835POPC   GL238342   0.945  12.499   9.294
 2835POPC   C1A38343   0.356  12.709   8.945
 2835POPC   D2A38344   0.199  13.009   8.612
 2835POPC   C3A38345   0.249  12.996   8.148
 2835POPC   C4A38346   0.388  12.735   7.818
 2835POPC   C1B38347   0.818  12.549   8.847
 2835POPC   C2B38348   0.554  12.612   8.472
 2835POPC   C3B38349   0.450  12.295   8.187
 2835POPC   C4B38350   0.498  12.242   7.767
 2836POPC   NC338351  34.176  23.555   9.394
 2836POPC   PO438352  34.754  23.965   9.533
 2836POPC   GL138353  34.560  23.854   9.158
 2836POPC   GL238354  34.270  24.029   9.071
 2836POPC   C1A38355  34.655  23.652   8.768
 2836POPC   D2A38356  34.850  23.719   8.378
 2836POPC   C3A38357  34.712  23.523   8.023
 2836POPC   C4A38358  34.808  23.811   7.678
 2836POPC   C1B38359  34.141  23.773   8.729
 2836POPC   C2B38360  34.321  23.669   8.326
 2836POPC   C3B38361  34.339  23.846   7.901
 2836POPC   C4B38362  34.376  23.894   7.424
 2837POPC   NC338363  27.725  38.033   9.488
 2837POPC   PO438364  27.464  37.360   9.527
 2837POPC   GL138365  27.595  37.653   9.139
 2837POPC   GL238366  27.509  38.047   9.040
 2837POPC   C1A38367  27.766  37.776   8.702
 2837POPC   D2A38368  27.752  37.562   8.300
 2837POPC   C3A38369  27.599  37.578   7.914
 2837POPC   C4A38370  27.320  37.320   7.739
 2837POPC   C1B38371  27.325  38.120   8.635
 2837POPC   C2B38372  27.356  37.932   8.217
 2837POPC   C3B38373  27.126  37.769   7.856
 2837POPC   C4B38374  26.978  37.835   7.437
 2838POPC   NC338375  21.803  19.601   9.385
 2838POPC   PO438376  21.247  19.805   9.473
 2838POPC   GL138377  21.459  19.914   9.084
 2838POPC   GL238378  21.805  20.039   9.048
 2838POPC   C1A38379  21.478  19.697   8.675
 2838POPC   D2A38380  21.111  19.663   8.387
 2838POPC   C3A38381  21.096  19.793   7.994
 2838POPC   C4A38382  21.406  19.779   7.713
 2838POPC   C1B38383  21.540  20.197   8.664
 2838POPC   C2B38384  21.499  20.005   8.256
 2838POPC   C3B38385  21.713  20.118   7.938
 2838POPC   C4B38386  21.606  20.220   7.526
 2839POPC   NC338387   3.966  26.631   9.419
 2839POPC   PO438388   4.590  26.954   9.535
 2839POPC   GL138389   4.318  26.966   9.189
 2839POPC   GL238390   4.269  26.618   9.021
 2839POPC   C1A38391   4.211  27.043   8.778
 2839POPC   D2A38392   4.292  26.785   8.433
 2839POPC   C3A38393   4.169  26.966   8.036
 2839POPC   C4A38394   4.388  27.130   7.683
 2839POPC   C1B38395   4.050  26.344   8.702
 2839POPC   C2B38396   3.971  26.447   8.240
 2839POPC   C3B38397   4.201  26.501   7.838
 2839POPC   C4B38398   4.179  26.389   7.397
 2840POPC   NC338399  29.958   0.035   9.506
 2840POPC   PO438400  29.632  44.386   9.580
 2840POPC   GL138401  29.864  44.588   9.262
 2840POPC   GL238402  29.641  44.833   9.152
 2840POPC   C1A38403  30.116  44.623   8.875
 2840POPC   D2A38404  29.967  44.703   8.463
 2840POPC   C3A38405  30.165  44.658   8.065
 2840POPC   C4A38406  30.124  44.324   7.779
 2840POPC   C1B38407  29.321  44.856   8.835
 2840POPC   C2B38408  29.471  44.815   8.405
 2840POPC   C3B38409  29.667  44.774   8.003
 2840POPC   C4B38410  29.584   0.012   7.630
 2841POPC   NC338411  39.821  34.867   9.381
 2841POPC   PO438412  39.947  34.280   9.432
 2841POPC   GL138413  40.065  34.499   9.084
 2841POPC   GL238414  40.302  34.751   9.225
 2841POPC   C1A38415  39.828  34.581   8.709
 2841POPC   D2A38416  39.705  34.370   8.325
 2841POPC   C3A38417  39.964  34.524   8.023
 2841POPC   C4A38418  39.853  34.766   7.709
 2841POPC   C1B38419  40.230  34.914   8.813
 2841POPC   C2B38420  40.112  34.879   8.392
 2841POPC   C3B38421  40.352  34.969   8.052
 2841POPC   C4B38422  40.327  34.918   7.637
 2842POPC   NC338423   3.193  16.329   9.588
 2842POPC   PO438424   3.399  15.612   9.725
 2842POPC   GL138425   3.492  15.996   9.311
 2842POPC   GL238426   3.238  16.142   9.103
 2842POPC   C1A38427   3.583  15.937   8.797
 2842POPC   D2A38428   3.821  16.029   8.402
 2842POPC   C3A38429   3.675  15.840   8.026
 2842POPC   C4A38430   3.508  15.900   7.596
 2842POPC   C1B38431   3.098  16.026   8.708
 2842POPC   C2B38432   3.296  16.150   8.284
 2842POPC   C3B38433   3.154  16.238   7.846
 2842POPC   C4B38434   3.115  16.254   7.364
 2843POPC   NC338435   5.387  17.360  10.033
 2843POPC   PO438436   4.958  17.074   9.618
 2843POPC   GL138437   4.852  17.248   9.151
 2843POPC   GL238438   4.989  17.586   9.069
 2843POPC   C1A38439   4.683  17.369   8.692
 2843POPC   D2A38440   4.917  17.525   8.308
 2843POPC   C3A38441   4.858  17.382   7.875
 2843POPC   C4A38442   5.069  17.303   7.449
 2843POPC   C1B38443   4.824  17.877   8.726
 2843POPC   C2B38444   4.940  18.040   8.299
 2843POPC   C3B38445   5.089  18.039   7.862
 2843POPC   C4B38446   5.324  17.711   7.635
 2844POPC   NC338447  13.438  30.973   9.472
 2844POPC   PO438448  13.939  30.463   9.581
 2844POPC   GL138449  13.705  30.676   9.208
 2844POPC   GL238450  13.390  30.561   9.168
 2844POPC   C1A38451  13.685  30.794   8.778
 2844POPC   D2A38452  13.989  30.799   8.443
 2844POPC   C3A38453  13.955  30.533   8.094
 2844POPC   C4A38454  13.996  30.716   7.715
 2844POPC   C1B38455  13.189  30.644   8.784
 2844POPC   C2B38456  13.305  30.848   8.404
 2844POPC   C3B38457  13.504  30.790   8.003
 2844POPC   C4B38458  13.566  30.465   7.706
 2845POPC   NC338459  44.992  31.903   9.431
 2845POPC   PO438460   0.490  31.408   9.468
 2845POPC   GL138461   0.570  31.702   9.181
 2845POPC   GL238462   0.249  31.738   9.013
 2845POPC   C1A38463   0.747  31.682   8.798
 2845POPC   D2A38464   0.555  31.637   8.421
 2845POPC   C3A38465   0.645  31.819   8.075
 2845POPC   C4A38466   0.677  31.594   7.741
 2845POPC   C1B38467   0.259  31.381   8.736
 2845POPC   C2B38468   0.363  31.178   8.305
 2845POPC   C3B38469   0.531  31.123   7.881
 2845POPC   C4B38470   0.272  30.970   7.538
 2846POPC   NC338471   7.482  13.487   9.785
 2846POPC   PO438472   8.116  13.558   9.486
 2846POPC   GL138473   8.217  13.435   9.087
 2846POPC   GL238474   7.994  13.204   9.013
 2846POPC   C1A38475   8.107  13.593   8.666
 2846POPC   D2A38476   8.365  13.705   8.316
 2846POPC   C3A38477   8.170  13.713   7.916
 2846POPC   C4A38478   8.082  14.073   7.648
 2846POPC   C1B38479   8.270  13.120   8.668
 2846POPC   C2B38480   8.115  13.229   8.247
 2846POPC   C3B38481   8.249  13.235   7.800
 2846POPC   C4B38482   8.183  13.375   7.361
 2847POPC   NC338483  26.327  36.296   9.380
 2847POPC   PO438484  26.583  35.760   9.523
 2847POPC   GL138485  26.225  35.812   9.146
 2847POPC   GL238486  26.153  36.173   8.941
 2847POPC   C1A38487  26.086  35.762   8.694
 2847POPC   D2A38488  26.067  36.112   8.371
 2847POPC   C3A38489  25.981  36.023   7.907
 2847POPC   C4A38490  25.834  35.828   7.467
 2847POPC   C1B38491  25.870  36.487   8.752
 2847POPC   C2B38492  25.802  36.556   8.327
 2847POPC   C3B38493  25.842  36.525   7.893
 2847POPC   C4B38494  25.863  36.330   7.482
 2848POPC   NC338495  31.162  36.988   9.438
 2848POPC   PO438496  31.750  36.604   9.356
 2848POPC   GL138497  31.612  36.551   8.986
 2848POPC   GL238498  31.441  36.874   9.014
 2848POPC   C1A38499  31.652  36.671   8.595
 2848POPC   D2A38500  31.375  36.752   8.300
 2848POPC   C3A38501  31.485  36.902   7.909
 2848POPC   C4A38502  31.620  36.659   7.549
 2848POPC   C1B38503  31.246  37.189   8.754
 2848POPC   C2B38504  31.219  37.229   8.312
 2848POPC   C3B38505  31.044  37.312   7.917
 2848POPC   C4B38506  31.264  37.271   7.526
 2849POPC   NC338507   5.535  28.143   9.406
 2849POPC   PO438508   6.114  28.601   9.472
 2849POPC   GL138509   5.933  28.576   9.089
 2849POPC   GL238510   5.604  28.545   9.053
 2849POPC   C1A38511   6.017  28.648   8.665
 2849POPC   D2A38512   6.082  28.359   8.346
 2849POPC   C3A38513   5.902  28.372   7.941
 2849POPC   C4A38514   5.769  28.031   7.665
 2849POPC   C1B38515   5.660  28.268   8.671
 2849POPC   C2B38516   5.444  28.168   8.260
 2849POPC   C3B38517   5.386  28.395   7.861
 2849POPC   C4B38518   5.614  28.444   7.434
 2850POPC   NC338519   0.609   5.706   9.414
 2850POPC   PO438520   0.670   6.331   9.152
 2850POPC   GL138521   0.576   5.948   8.937
 2850POPC   GL238522   0.486   5.569   8.948
 2850POPC   C1A38523   0.419   6.128   8.579
 2850POPC   D2A38524   0.220   6.074   8.252
 2850POPC   C3A38525   0.529   5.805   8.118
 2850POPC   C4A38526   0.676   6.032   7.798
 2850POPC   C1B38527   0.161   5.693   8.658
 2850POPC   C2B38528  44.980   5.648   8.248
 2850POPC   C3B38529   0.133   5.769   7.821
 2850POPC   C4B38530   0.484   5.555   7.608
 2851POPC   NC338531   2.434   4.491   9.514
 2851POPC   PO438532   3.151   4.571   9.350
 2851POPC   GL138533   2.874   4.437   9.076
 2851POPC   GL238534   2.601   4.667   9.074
 2851POPC   C1A38535   2.932   4.542   8.664
 2851POPC   D2A38536   2.806   4.528   8.259
 2851POPC   C3A38537   2.879   4.156   7.982
 2851POPC   C4A38538   2.962   4.523   7.754
 2851POPC   C1B38539   2.439   4.395   8.759
 2851POPC   C2B38540   2.506   4.133   8.414
 2851POPC   C3B38541   2.406   4.324   8.039
 2851POPC   C4B38542   2.422   4.464   7.638
 2852POPC   NC338543  25.963   9.039   9.433
 2852POPC   PO438544  26.446   9.502   9.295
 2852POPC   GL138545  26.177   9.184   8.996
 2852POPC   GL238546  25.818   8.971   8.970
 2852POPC   C1A38547  26.205   8.851   8.671
 2852POPC   D2A38548  26.159   8.965   8.298
 2852POPC   C3A38549  26.273   8.710   7.984
 2852POPC   C4A38550  26.311   9.094   7.755
 2852POPC   C1B38551  25.666   8.860   8.564
 2852POPC   C2B38552  25.705   8.882   8.094
 2852POPC   C3B38553  25.862   8.822   7.662
 2852POPC   C4B38554  25.843   8.731   7.230
 2853POPC   NC338555  33.768  40.266   9.624
 2853POPC   PO438556  33.840  40.879   9.462
 2853POPC   GL138557  33.982  41.060   9.064
 2853POPC   GL238558  33.665  41.197   8.950
 2853POPC   C1A38559  34.050  40.896   8.647
 2853POPC   D2A38560  34.117  40.515   8.397
 2853POPC   C3A38561  33.986  40.602   7.995
 2853POPC   C4A38562  34.081  40.996   7.784
 2853POPC   C1B38563  33.549  40.782   8.775
 2853POPC   C2B38564  33.579  40.525   8.386
 2853POPC   C3B38565  33.473  40.430   7.951
 2853POPC   C4B38566  33.683  40.625   7.582
 2854POPC   NC338567  12.683  37.625   9.473
 2854POPC   PO438568  13.100  38.213   9.512
 2854POPC   GL138569  13.045  37.910   9.190
 2854POPC   GL238570  13.245  37.605   9.218
 2854POPC   C1A38571  13.126  37.805   8.761
 2854POPC   D2A38572  12.852  37.773   8.417
 2854POPC   C3A38573  12.962  37.932   8.038
 2854POPC   C4A38574  12.811  37.785   7.701
 2854POPC   C1B38575  13.268  37.308   8.844
 2854POPC   C2B38576  13.250  37.359   8.419
 2854POPC   C3B38577  13.003  37.422   8.069
 2854POPC   C4B38578  13.008  37.334   7.682
 2855POPC   NC338579  12.939  16.558   9.666
 2855POPC   PO438580  12.647  17.008   9.406
 2855POPC   GL138581  12.837  16.749   9.107
 2855POPC   GL238582  13.163  16.648   9.213
 2855POPC   C1A38583  12.836  16.701   8.655
 2855POPC   D2A38584  12.609  16.521   8.298
 2855POPC   C3A38585  12.816  16.815   8.026
 2855POPC   C4A38586  12.668  17.119   7.763
 2855POPC   C1B38587  13.129  16.357   8.878
 2855POPC   C2B38588  13.027  16.270   8.416
 2855POPC   C3B38589  12.991  16.339   7.981
 2855POPC   C4B38590  13.190  16.627   7.734
 2856POPC   NC338591   7.991  24.734   9.552
 2856POPC   PO438592   8.479  24.456   9.269
 2856POPC   GL138593   8.231  24.694   9.024
 2856POPC   GL238594   7.982  24.930   9.075
 2856POPC   C1A38595   8.063  24.609   8.641
 2856POPC   D2A38596   7.947  24.279   8.411
 2856POPC   C3A38597   8.162  24.297   8.055
 2856POPC   C4A38598   7.977  24.287   7.686
 2856POPC   C1B38599   7.763  25.017   8.710
 2856POPC   C2B38600   7.838  24.948   8.278
 2856POPC   C3B38601   7.901  24.720   7.949
 2856POPC   C4B38602   8.256  24.705   7.711
 2857POPC   NC338603  36.969  20.585   9.590
 2857POPC   PO438604  37.410  20.208   9.248
 2857POPC   GL138605  37.083  20.471   9.084
 2857POPC   GL238606  37.006  20.824   9.144
 2857POPC   C1A38607  36.925  20.452   8.676
 2857POPC   D2A38608  36.928  20.202   8.314
 2857POPC   C3A38609  36.659  20.418   8.047
 2857POPC   C4A38610  36.583  20.547   7.643
 2857POPC   C1B38611  36.870  20.960   8.736
 2857POPC   C2B38612  37.031  20.839   8.313
 2857POPC   C3B38613  36.963  20.802   7.861
 2857POPC   C4B38614  36.938  20.995   7.452
 2858POPC   NC338615  24.912   1.905   9.456
 2858POPC   PO438616  24.245   2.129   9.504
 2858POPC   GL138617  24.515   2.094   9.154
 2858POPC   GL238618  24.650   2.391   9.085
 2858POPC   C1A38619  24.484   2.106   8.700
 2858POPC   D2A38620  24.529   2.206   8.286
 2858POPC   C3A38621  24.259   1.904   8.079
 2858POPC   C4A38622  24.076   1.977   7.706
 2858POPC   C1B38623  24.978   2.234   8.782
 2858POPC   C2B38624  25.047   2.013   8.382
 2858POPC   C3B38625  24.817   1.858   8.009
 2858POPC   C4B38626  24.569   2.147   7.753
 2859POPC   NC338627  34.361  41.996   9.479
 2859POPC   PO438628  34.685  42.633   9.523
 2859POPC   GL138629  34.664  42.294   9.171
 2859POPC   GL238630  34.328  42.206   9.001
 2859POPC   C1A38631  34.742  42.271   8.718
 2859POPC   D2A38632  34.647  42.544   8.398
 2859POPC   C3A38633  34.649  42.412   8.003
 2859POPC   C4A38634  34.498  42.726   7.741
 2859POPC   C1B38635  34.349  41.880   8.734
 2859POPC   C2B38636  34.226  41.786   8.339
 2859POPC   C3B38637  34.293  42.076   8.063
 2859POPC   C4B38638  34.192  42.330   7.691
 2860POPC   NC338639  35.828  31.855   9.509
 2860POPC   PO438640  36.233  31.416   9.731
 2860POPC   GL138641  36.179  31.386   9.243
 2860POPC   GL238642  36.480  31.259   9.049
 2860POPC   C1A38643  36.239  31.664   8.839
 2860POPC   D2A38644  36.039  31.639   8.416
 2860POPC   C3A38645  36.246  31.716   8.046
 2860POPC   C4A38646  35.984  31.704   7.691
 2860POPC   C1B38647  36.153  31.175   8.753
 2860POPC   C2B38648  35.975  31.112   8.343
 2860POPC   C3B38649  36.104  31.242   7.932
 2860POPC   C4B38650  36.352  31.095   7.593
 2861POPC   NC338651   0.184  36.450   9.459
 2861POPC   PO438652   0.407  35.746   9.438
 2861POPC   GL138653   0.535  36.086   9.141
 2861POPC   GL238654   0.367  36.325   9.013
 2861POPC   C1A38655   0.661  36.014   8.721
 2861POPC   D2A38656   0.476  35.743   8.417
 2861POPC   C3A38657   0.259  36.009   8.188
 2861POPC   C4A38658   0.303  36.023   7.766
 2861POPC   C1B38659   0.460  36.529   8.662
 2861POPC   C2B38660   0.589  36.520   8.270
 2861POPC   C3B38661   0.396  36.499   7.884
 2861POPC   C4B38662   0.664  36.346   7.585
 2862POPC   NC338663  23.609   7.909   9.445
 2862POPC   PO438664  24.037   8.339   9.449
 2862POPC   GL138665  23.800   8.271   9.130
 2862POPC   GL238666  23.976   7.965   9.049
 2862POPC   C1A38667  23.784   8.404   8.738
 2862POPC   D2A38668  23.903   8.620   8.405
 2862POPC   C3A38669  23.795   8.382   8.046
 2862POPC   C4A38670  23.524   8.456   7.692
 2862POPC   C1B38671  23.594   7.923   8.798
 2862POPC   C2B38672  23.666   8.016   8.403
 2862POPC   C3B38673  23.744   7.865   8.041
 2862POPC   C4B38674  23.804   8.004   7.675
 2863POPC   NC338675   8.975  21.691   9.545
 2863POPC   PO438676   8.950  22.340   9.570
 2863POPC   GL138677   9.065  22.117   9.173
 2863POPC   GL238678   8.756  22.252   9.003
 2863POPC   C1A38679   9.261  22.183   8.735
 2863POPC   D2A38680   9.006  22.216   8.339
 2863POPC   C3A38681   9.110  21.914   8.059
 2863POPC   C4A38682   9.243  22.076   7.684
 2863POPC   C1B38683   8.843  21.908   8.703
 2863POPC   C2B38684   8.636  21.798   8.334
 2863POPC   C3B38685   8.607  21.688   7.954
 2863POPC   C4B38686   8.742  22.011   7.737
 2864POPC   NC338687  39.221  35.541   9.540
 2864POPC   PO438688  39.649  35.175   9.099
 2864POPC   GL138689  39.266  35.364   9.058
 2864POPC   GL238690  38.926  35.228   8.959
 2864POPC   C1A38691  39.208  35.641   8.723
 2864POPC   D2A38692  39.383  35.778   8.349
 2864POPC   C3A38693  39.238  35.436   8.122
 2864POPC   C4A38694  39.051  35.374   7.726
 2864POPC   C1B38695  39.182  35.142   8.574
 2864POPC   C2B38696  39.554  35.069   8.308
 2864POPC   C3B38697  39.478  35.068   7.871
 2864POPC   C4B38698  39.422  35.176   7.444
 2865POPC   NC338699  21.122  22.462   9.513
 2865POPC   PO438700  21.423  21.910   9.543
 2865POPC   GL138701  21.191  22.067   9.187
 2865POPC   GL238702  21.380  22.376   9.056
 2865POPC   C1A38703  21.095  22.001   8.758
 2865POPC   D2A38704  21.360  22.146   8.434
 2865POPC   C3A38705  21.420  21.872   8.093
 2865POPC   C4A38706  21.738  21.924   7.793
 2865POPC   C1B38707  21.076  22.517   8.738
 2865POPC   C2B38708  21.081  22.531   8.274
 2865POPC   C3B38709  21.394  22.415   7.945
 2865POPC   C4B38710  21.344  22.475   7.466
 2866POPC   NC338711   1.732  22.009   9.481
 2866POPC   PO438712   2.284  22.354   9.446
 2866POPC   GL138713   2.168  22.029   9.115
 2866POPC   GL238714   1.823  21.838   9.021
 2866POPC   C1A38715   2.098  22.165   8.697
 2866POPC   D2A38716   2.236  22.328   8.336
 2866POPC   C3A38717   2.047  22.240   7.957
 2866POPC   C4A38718   2.342  22.425   7.701
 2866POPC   C1B38719   1.616  22.026   8.642
 2866POPC   C2B38720   1.692  22.388   8.349
 2866POPC   C3B38721   1.525  22.438   7.925
 2866POPC   C4B38722   1.569  22.153   7.572
 2867POPC   NC338723  17.975  21.919   9.713
 2867POPC   PO438724  18.232  22.577   9.643
 2867POPC   GL138725  18.168  22.497   9.114
 2867POPC   GL238726  18.026  22.129   9.112
 2867POPC   C1A38727  18.109  22.462   8.647
 2867POPC   D2A38728  18.454  22.414   8.337
 2867POPC   C3A38729  18.375  22.480   7.916
 2867POPC   C4A38730  18.628  22.294   7.549
 2867POPC   C1B38731  18.014  21.962   8.674
 2867POPC   C2B38732  18.236  21.959   8.269
 2867POPC   C3B38733  18.309  21.977   7.810
 2867POPC   C4B38734  18.062  21.977   7.436
 2868POPC   NC338735  14.146  16.548   9.459
 2868POPC   PO438736  14.674  16.945   9.572
 2868POPC   GL138737  14.455  16.838   9.184
 2868POPC   GL238738  14.081  16.953   9.152
 2868POPC   C1A38739  14.632  16.657   8.824
 2868POPC   D2A38740  14.460  16.618   8.410
 2868POPC   C3A38741  14.704  16.526   8.063
 2868POPC   C4A38742  14.512  16.638   7.715
 2868POPC   C1B38743  14.115  16.628   8.818
 2868POPC   C2B38744  13.945  16.552   8.427
 2868POPC   C3B38745  14.078  16.561   8.014
 2868POPC   C4B38746  14.052  16.857   7.689
 2869POPC   NC338747  33.260  35.035   9.634
 2869POPC   PO438748  33.096  34.361   9.559
 2869POPC   GL138749  32.978  34.608   9.202
 2869POPC   GL238750  32.692  34.889   9.218
 2869POPC   C1A38751  33.219  34.552   8.825
 2869POPC   D2A38752  33.273  34.779   8.453
 2869POPC   C3A38753  33.149  34.637   8.085
 2869POPC   C4A38754  33.135  34.484   7.704
 2869POPC   C1B38755  32.860  34.936   8.803
 2869POPC   C2B38756  32.759  34.824   8.391
 2869POPC   C3B38757  32.610  35.013   8.056
 2869POPC   C4B38758  32.904  34.952   7.733
 2870POPC   NC338759  18.854   3.690   9.410
 2870POPC   PO438760  19.367   3.190   9.403
 2870POPC   GL138761  19.111   3.371   9.103
 2870POPC   GL238762  19.284   3.725   9.104
 2870POPC   C1A38763  18.766   3.292   8.797
 2870POPC   D2A38764  18.602   3.410   8.406
 2870POPC   C3A38765  18.828   3.382   8.013
 2870POPC   C4A38766  18.783   3.218   7.623
 2870POPC   C1B38767  19.100   3.648   8.676
 2870POPC   C2B38768  19.168   3.304   8.393
 2870POPC   C3B38769  19.354   3.426   7.988
 2870POPC   C4B38770  19.176   3.790   7.829
 2871POPC   NC338771   3.306  33.973   9.493
 2871POPC   PO438772   3.147  33.385   9.493
 2871POPC   GL138773   3.363  33.557   9.145
 2871POPC   GL238774   3.719  33.641   9.168
 2871POPC   C1A38775   3.376  33.820   8.782
 2871POPC   D2A38776   3.635  33.953   8.420
 2871POPC   C3A38777   3.483  33.983   7.982
 2871POPC   C4A38778   3.633  34.205   7.593
 2871POPC   C1B38779   3.725  33.446   8.737
 2871POPC   C2B38780   3.422  33.482   8.386
 2871POPC   C3B38781   3.503  33.475   7.944
 2871POPC   C4B38782   3.161  33.635   7.701
 2872POPC   NC338783  38.862  27.587   9.627
 2872POPC   PO438784  39.510  27.767   9.715
 2872POPC   GL138785  39.312  27.695   9.272
 2872POPC   GL238786  39.468  28.029   9.223
 2872POPC   C1A38787  39.327  27.369   8.888
 2872POPC   D2A38788  39.173  27.234   8.452
 2872POPC   C3A38789  39.058  27.570   8.120
 2872POPC   C4A38790  39.039  27.755   7.698
 2872POPC   C1B38791  39.526  27.838   8.801
 2872POPC   C2B38792  39.484  27.645   8.422
 2872POPC   C3B38793  39.548  27.393   8.072
 2872POPC   C4B38794  39.534  27.619   7.727
 2873POPC   NC338795  10.270  28.025   9.514
 2873POPC   PO438796  10.491  27.394   9.530
 2873POPC   GL138797  10.434  27.629   9.180
 2873POPC   GL238798  10.680  27.873   9.137
 2873POPC   C1A38799  10.340  27.683   8.757
 2873POPC   D2A38800  10.396  27.747   8.331
 2873POPC   C3A38801  10.110  27.683   8.043
 2873POPC   C4A38802  10.211  27.633   7.617
 2873POPC   C1B38803  10.813  27.517   8.811
 2873POPC   C2B38804  10.591  27.296   8.443
 2873POPC   C3B38805  10.522  27.357   7.996
 2873POPC   C4B38806  10.656  27.747   7.836
 2874POPC   NC338807  21.539   0.345   9.359
 2874POPC   PO438808  21.005   0.774   9.484
 2874POPC   GL138809  21.052   0.552   9.046
 2874POPC   GL238810  21.214   0.252   8.972
 2874POPC   C1A38811  21.069   0.492   8.550
 2874POPC   D2A38812  21.376   0.694   8.252
 2874POPC   C3A38813  21.464   0.478   7.874
 2874POPC   C4A38814  21.635   0.612   7.490
 2874POPC   C1B38815  21.547   0.398   8.694
 2874POPC   C2B38816  21.537   0.197   8.300
 2874POPC   C3B38817  21.581  44.972   7.910
 2874POPC   C4B38818  21.628   0.029   7.493
 2875POPC   NC338819  33.564  31.843   9.550
 2875POPC   PO438820  33.919  32.461   9.574
 2875POPC   GL138821  33.736  32.374   9.205
 2875POPC   GL238822  33.832  32.037   9.152
 2875POPC   C1A38823  33.690  32.512   8.794
 2875POPC   D2A38824  33.821  32.292   8.439
 2875POPC   C3A38825  33.866  32.434   8.034
 2875POPC   C4A38826  34.168  32.192   7.783
 2875POPC   C1B38827  33.569  32.016   8.806
 2875POPC   C2B38828  33.572  31.841   8.381
 2875POPC   C3B38829  33.757  31.893   7.981
 2875POPC   C4B38830  33.629  32.088   7.619
 2876POPC   NC338831   1.208  44.507   9.576
 2876POPC   PO438832   0.767  44.992   9.334
 2876POPC   GL138833   1.042  44.721   9.069
 2876POPC   GL238834   1.373  44.688   9.129
 2876POPC   C1A38835   1.232  44.464   8.691
 2876POPC   D2A38836   1.326  44.609   8.248
 2876POPC   C3A38837   1.152  44.409   7.855
 2876POPC   C4A38838   1.072  44.181   7.473
 2876POPC   C1B38839   1.466  44.930   8.738
 2876POPC   C2B38840   1.533   0.199   8.351
 2876POPC   C3B38841   1.554   0.141   7.894
 2876POPC   C4B38842   1.185  44.978   7.721
 2877POPC   NC338843  34.854  33.354   9.512
 2877POPC   PO438844  34.725  32.766   9.731
 2877POPC   GL138845  34.634  32.972   9.241
 2877POPC   GL238846  34.879  33.131   9.043
 2877POPC   C1A38847  34.411  33.247   8.885
 2877POPC   D2A38848  34.300  33.215   8.496
 2877POPC   C3A38849  34.633  33.105   8.219
 2877POPC   C4A38850  34.548  33.001   7.822
 2877POPC   C1B38851  34.672  32.852   8.710
 2877POPC   C2B38852  34.835  32.630   8.351
 2877POPC   C3B38853  34.960  32.691   7.933
 2877POPC   C4B38854  34.997  33.022   7.621
 2878POPC   NC338855  16.740   6.471   9.747
 2878POPC   PO438856  16.514   6.536   9.111
 2878POPC   GL138857  16.919   6.615   9.021
 2878POPC   GL238858  16.924   6.967   9.028
 2878POPC   C1A38859  17.137   6.643   8.633
 2878POPC   D2A38860  17.093   6.761   8.235
 2878POPC   C3A38861  16.894   6.495   7.964
 2878POPC   C4A38862  16.822   6.547   7.535
 2878POPC   C1B38863  16.715   6.924   8.610
 2878POPC   C2B38864  16.564   6.783   8.233
 2878POPC   C3B38865  16.531   6.864   7.838
 2878POPC   C4B38866  16.572   7.008   7.457
 2879POPC   NC338867  40.246  18.026   9.214
 2879POPC   PO438868  39.551  18.115   9.347
 2879POPC   GL138869  39.861  18.338   9.134
 2879POPC   GL238870  40.222  18.529   9.260
 2879POPC   C1A38871  39.867  18.230   8.716
 2879POPC   D2A38872  39.841  18.104   8.323
 2879POPC   C3A38873  39.695  18.354   8.046
 2879POPC   C4A38874  39.908  18.139   7.752
 2879POPC   C1B38875  40.218  18.585   8.827
 2879POPC   C2B38876  40.291  18.384   8.424
 2879POPC   C3B38877  40.262  18.451   7.975
 2879POPC   C4B38878  40.375  18.642   7.563
 2880POPC   NC338879  23.163  43.362   9.415
 2880POPC   PO438880  22.767  43.923   9.442
 2880POPC   GL138881  23.054  43.840   9.156
 2880POPC   GL238882  22.859  43.577   9.047
 2880POPC   C1A38883  23.169  43.952   8.743
 2880POPC   D2A38884  23.345  44.087   8.344
 2880POPC   C3A38885  23.132  44.093   7.958
 2880POPC   C4A38886  23.178  44.254   7.597
 2880POPC   C1B38887  22.658  43.695   8.671
 2880POPC   C2B38888  22.863  43.840   8.321
 2880POPC   C3B38889  23.067  43.593   8.021
 2880POPC   C4B38890  22.674  43.535   7.846
 2881POPC   NC338891   9.815  26.274   9.800
 2881POPC   PO438892  10.056  25.843   9.327
 2881POPC   GL138893   9.686  25.952   9.096
 2881POPC   GL238894   9.922  26.027   8.865
 2881POPC   C1A38895   9.488  25.803   8.714
 2881POPC   D2A38896   9.850  25.734   8.426
 2881POPC   C3A38897   9.880  25.851   8.015
 2881POPC   C4A38898   9.515  25.893   7.784
 2881POPC   C1B38899   9.687  26.264   8.572
 2881POPC   C2B38900   9.649  26.303   8.112
 2881POPC   C3B38901   9.861  26.264   7.705
 2881POPC   C4B38902   9.994  26.387   7.286
 2882POPC   NC338903  35.171  18.636   9.463
 2882POPC   PO438904  35.772  18.126   9.531
 2882POPC   GL138905  35.526  18.325   9.242
 2882POPC   GL238906  35.282  18.113   9.062
 2882POPC   C1A38907  35.489  18.561   8.866
 2882POPC   D2A38908  35.226  18.461   8.536
 2882POPC   C3A38909  35.363  18.513   8.121
 2882POPC   C4A38910  35.431  18.219   7.818
 2882POPC   C1B38911  35.071  17.944   8.695
 2882POPC   C2B38912  35.260  18.009   8.272
 2882POPC   C3B38913  35.121  17.807   7.898
 2882POPC   C4B38914  35.094  17.971   7.498
 2883POPC   NC338915   0.241  33.479   9.519
 2883POPC   PO438916   0.557  34.121   9.433
 2883POPC   GL138917   0.450  33.794   9.140
 2883POPC   GL238918   0.116  33.719   9.047
 2883POPC   C1A38919   0.483  33.628   8.722
 2883POPC   D2A38920   0.221  33.661   8.343
 2883POPC   C3A38921   0.526  33.624   8.019
 2883POPC   C4A38922   0.453  33.510   7.611
 2883POPC   C1B38923   0.187  34.046   8.737
 2883POPC   C2B38924   0.466  34.120   8.412
 2883POPC   C3B38925   0.353  34.099   7.999
 2883POPC   C4B38926   0.645  34.072   7.691
 2884POPC   NC338927  22.382  43.674   9.518
 2884POPC   PO438928  21.817  43.533   9.250
 2884POPC   GL138929  22.079  43.826   9.117
 2884POPC   GL238930  22.326  43.591   9.032
 2884POPC   C1A38931  22.243  44.040   8.754
 2884POPC   D2A38932  22.062  44.038   8.335
 2884POPC   C3A38933  22.372  44.013   8.001
 2884POPC   C4A38934  22.086  44.057   7.648
 2884POPC   C1B38935  22.093  43.557   8.663
 2884POPC   C2B38936  22.284  43.582   8.297
 2884POPC   C3B38937  22.034  43.643   7.960
 2884POPC   C4B38938  22.258  43.586   7.589
 2885POPC   NC338939   7.641   2.197   9.690
 2885POPC   PO438940   8.140   1.806   9.455
 2885POPC   GL138941   8.284   1.841   9.043
 2885POPC   GL238942   8.651   1.818   9.093
 2885POPC   C1A38943   8.060   2.118   8.742
 2885POPC   D2A38944   7.895   2.192   8.321
 2885POPC   C3A38945   7.949   1.787   8.117
 2885POPC   C4A38946   8.194   1.692   7.730
 2885POPC   C1B38947   8.574   2.120   8.729
 2885POPC   C2B38948   8.405   2.007   8.347
 2885POPC   C3B38949   8.369   2.120   7.942
 2885POPC   C4B38950   8.470   2.090   7.494
 2886POPC   NC338951   7.054  27.625   9.412
 2886POPC   PO438952   6.470  27.703   9.730
 2886POPC   GL138953   6.533  27.535   9.287
 2886POPC   GL238954   6.715  27.204   9.327
 2886POPC   C1A38955   6.563  27.674   8.819
 2886POPC   D2A38956   6.785  27.792   8.437
 2886POPC   C3A38957   6.561  27.747   8.048
 2886POPC   C4A38958   6.256  27.975   7.826
 2886POPC   C1B38959   6.702  27.196   8.889
 2886POPC   C2B38960   6.562  27.270   8.462
 2886POPC   C3B38961   6.609  27.240   8.007
 2886POPC   C4B38962   6.936  27.291   7.781
 2887POPC   NC338963  27.468   9.828   9.527
 2887POPC   PO438964  28.080   9.637   9.599
 2887POPC   GL138965  27.790   9.525   9.231
 2887POPC   GL238966  27.432   9.444   9.192
 2887POPC   C1A38967  27.790   9.651   8.783
 2887POPC   D2A38968  28.027   9.780   8.398
 2887POPC   C3A38969  27.870   9.578   8.005
 2887POPC   C4A38970  27.733   9.587   7.574
 2887POPC   C1B38971  27.271   9.574   8.787
 2887POPC   C2B38972  27.163   9.707   8.362
 2887POPC   C3B38973  27.289   9.671   7.930
 2887POPC   C4B38974  27.569   9.989   7.831
 2888POPC   NC338975   0.490   4.054   9.467
 2888POPC   PO438976   0.800   4.574   9.722
 2888POPC   GL138977   0.600   4.484   9.227
 2888POPC   GL238978   0.674   4.110   9.004
 2888POPC   C1A38979   0.485   4.501   8.781
 2888POPC   D2A38980   0.568   4.251   8.414
 2888POPC   C3A38981   0.407   4.416   8.056
 2888POPC   C4A38982   0.649   4.533   7.727
 2888POPC   C1B38983   0.258   4.028   8.728
 2888POPC   C2B38984   0.085   4.098   8.314
 2888POPC   C3B38985   0.146   3.976   7.927
 2888POPC   C4B38986   0.210   4.246   7.602
 2889POPC   NC338987  41.168  33.471   9.367
 2889POPC   PO438988  41.560  34.003   9.613
 2889POPC   GL138989  41.281  34.009   9.275
 2889POPC   GL238990  41.508  33.768   9.125
 2889POPC   C1A38991  41.265  34.088   8.835
 2889POPC   D2A38992  41.368  33.788   8.512
 2889POPC   C3A38993  41.270  33.925   8.088
 2889POPC   C4A38994  41.528  33.969   7.742
 2889POPC   C1B38995  41.803  33.647   8.819
 2889POPC   C2B38996  41.932  33.444   8.442
 2889POPC   C3B38997  42.059  33.478   7.997
 2889POPC   C4B38998  41.881  33.625   7.621
 2890POPC   NC338999   7.408  44.712   9.421
 2890POPC   PO439000   6.880  44.875   9.154
 2890POPC   GL139001   7.296  44.899   8.961
 2890POPC   GL239002   7.627   0.020   9.072
 2890POPC   C1A39003   7.595  44.616   8.738
 2890POPC   D2A39004   7.762  44.652   8.305
 2890POPC   C3A39005   7.506  44.638   7.925
 2890POPC   C4A39006   7.061  44.715   7.852
 2890POPC   C1B39007   7.619   0.100   8.617
 2890POPC   C2B39008   7.713   0.151   8.210
 2890POPC   C3B39009   7.477   0.148   7.837
 2890POPC   C4B39010   7.507  44.908   7.468
 2891POPC   NC339011  34.329  24.206   9.545
 2891POPC   PO439012  34.665  24.670   9.878
 2891POPC   GL139013  34.703  24.522   9.368
 2891POPC   GL239014  34.396  24.541   9.149
 2891POPC   C1A39015  34.778  24.277   8.941
 2891POPC   D2A39016  34.525  24.110   8.568
 2891POPC   C3A39017  34.491  24.370   8.184
 2891POPC   C4A39018  34.592  24.268   7.761
 2891POPC   C1B39019  34.440  24.602   8.694
 2891POPC   C2B39020  34.148  24.704   8.362
 2891POPC   C3B39021  34.121  24.799   7.911
 2891POPC   C4B39022  34.196  24.925   7.484
 2892POPC   NC339023  22.673  23.892   9.412
 2892POPC   PO439024  22.973  23.244   9.524
 2892POPC   GL139025  22.906  23.511   9.153
 2892POPC   GL239026  22.588  23.412   9.075
 2892POPC   C1A39027  23.032  23.856   8.845
 2892POPC   D2A39028  23.315  24.007   8.525
 2892POPC   C3A39029  23.234  23.949   8.095
 2892POPC   C4A39030  22.964  23.955   7.778
 2892POPC   C1B39031  22.623  23.635   8.660
 2892POPC   C2B39032  22.765  23.643   8.216
 2892POPC   C3B39033  22.592  23.634   7.791
 2892POPC   C4B39034  22.419  23.413   7.433
 2893POPC   NC339035  21.573  43.291   5.581
 2893POPC   PO439036  21.143  42.722   5.424
 2893POPC   GL139037  21.279  42.940   5.787
 2893POPC   GL239038  21.650  42.868   5.883
 2893POPC   C1A39039  21.176  43.213   6.171
 2893POPC   D2A39040  21.319  43.132   6.571
 2893POPC   C3A39041  21.180  43.300   6.945
 2893POPC   C4A39042  21.339  43.261   7.354
 2893POPC   C1B39043  21.719  42.823   6.342
 2893POPC   C2B39044  21.572  42.759   6.792
 2893POPC   C3B39045  21.307  42.796   7.165
 2893POPC   C4B39046  21.559  42.868   7.570
 2894POPC   NC339047  43.694  23.645   5.427
 2894POPC   PO439048  44.278  24.029   5.431
 2894POPC   GL139049  43.907  24.002   5.761
 2894POPC   GL239050  44.002  23.672   5.873
 2894POPC   C1A39051  43.744  23.914   6.235
 2894POPC   D2A39052  43.898  23.666   6.628
 2894POPC   C3A39053  43.837  23.806   7.072
 2894POPC   C4A39054  43.518  24.002   7.342
 2894POPC   C1B39055  44.295  23.442   6.151
 2894POPC   C2B39056  44.388  23.439   6.545
 2894POPC   C3B39057  44.322  23.287   6.933
 2894POPC   C4B39058  44.281  23.400   7.328
 2895POPC   NC339059   5.214   8.429   5.285
 2895POPC   PO439060   5.428   7.761   5.314
 2895POPC   GL139061   5.129   7.991   5.686
 2895POPC   GL239062   5.070   8.384   5.773
 2895POPC   C1A39063   4.914   8.011   6.106
 2895POPC   D2A39064   5.161   7.963   6.500
 2895POPC   C3A39065   4.994   8.098   6.890
 2895POPC   C4A39066   5.083   7.991   7.298
 2895POPC   C1B39067   5.321   8.344   6.176
 2895POPC   C2B39068   5.410   8.397   6.646
 2895POPC   C3B39069   5.443   8.295   7.090
 2895POPC   C4B39070   5.193   8.510   7.462
 2896POPC   NC339071   2.179  14.358   5.529
 2896POPC   PO439072   1.588  14.036   5.331
 2896POPC   GL139073   1.718  14.165   5.733
 2896POPC   GL239074   1.760  14.528   5.792
 2896POPC   C1A39075   1.890  14.168   6.155
 2896POPC   D2A39076   2.041  14.429   6.491
 2896POPC   C3A39077   1.849  14.323   6.868
 2896POPC   C4A39078   2.032  14.333   7.273
 2896POPC   C1B39079   1.729  14.750   6.206
 2896POPC   C2B39080   1.703  14.785   6.657
 2896POPC   C3B39081   1.996  14.773   6.987
 2896POPC   C4B39082   1.875  14.798   7.405
 2897POPC   NC339083  35.786  11.263   5.085
 2897POPC   PO439084  36.250  11.014   5.504
 2897POPC   GL139085  36.175  11.206   5.890
 2897POPC   GL239086  35.994  11.476   5.829
 2897POPC   C1A39087  35.995  11.111   6.270
 2897POPC   D2A39088  35.826  11.349   6.591
 2897POPC   C3A39089  36.039  11.121   6.902
 2897POPC   C4A39090  36.111  10.832   7.162
 2897POPC   C1B39091  36.188  11.584   6.241
 2897POPC   C2B39092  36.343  11.432   6.646
 2897POPC   C3B39093  36.249  11.527   7.098
 2897POPC   C4B39094  36.218  11.277   7.515
 2898POPC   NC339095  43.553  26.912   5.189
 2898POPC   PO439096  44.248  27.123   5.228
 2898POPC   GL139097  43.950  26.849   5.554
 2898POPC   GL239098  44.079  26.509   5.688
 2898POPC   C1A39099  43.894  26.840   6.048
 2898POPC   D2A39100  43.842  26.657   6.485
 2898POPC   C3A39101  43.649  26.928   6.787
 2898POPC   C4A39102  43.719  26.943   7.224
 2898POPC   C1B39103  44.166  26.405   6.149
 2898POPC   C2B39104  44.329  26.580   6.570
 2898POPC   C3B39105  44.096  26.657   6.956
 2898POPC   C4B39106  44.064  26.282   7.223
 2899POPC   NC339107  33.991  23.263   5.654
 2899POPC   PO439108  33.795  22.685   5.344
 2899POPC   GL139109  33.715  22.815   5.766
 2899POPC   GL239110  33.520  23.101   5.794
 2899POPC   C1A39111  33.799  22.927   6.216
 2899POPC   D2A39112  33.994  22.871   6.634
 2899POPC   C3A39113  33.730  22.918   7.006
 2899POPC   C4A39114  33.865  23.283   7.258
 2899POPC   C1B39115  33.352  23.187   6.191
 2899POPC   C2B39116  33.459  23.108   6.602
 2899POPC   C3B39117  33.390  23.309   6.994
 2899POPC   C4B39118  33.395  23.116   7.404
 2900POPC   NC339119  18.149   8.402   5.372
 2900POPC   PO439120  18.470   7.845   5.234
 2900POPC   GL139121  18.242   7.989   5.675
 2900POPC   GL239122  18.318   8.321   5.845
 2900POPC   C1A39123  18.266   7.955   6.174
 2900POPC   D2A39124  18.315   8.202   6.547
 2900POPC   C3A39125  18.276   7.973   6.927
 2900POPC   C4A39126  18.228   8.151   7.337
 2900POPC   C1B39127  18.110   8.588   6.196
 2900POPC   C2B39128  18.166   8.740   6.632
 2900POPC   C3B39129  18.073   8.530   7.030
 2900POPC   C4B39130  18.069   8.616   7.493
 2901POPC   NC339131  26.110  42.573   5.218
 2901POPC   PO439132  26.336  42.050   5.551
 2901POPC   GL139133  26.001  42.095   5.809
 2901POPC   GL239134  25.991  42.484   5.812
 2901POPC   C1A39135  25.960  42.174   6.235
 2901POPC   D2A39136  25.959  42.339   6.644
 2901POPC   C3A39137  25.895  42.015   6.930
 2901POPC   C4A39138  25.823  41.975   7.328
 2901POPC   C1B39139  26.136  42.674   6.231
 2901POPC   C2B39140  25.963  42.866   6.619
 2901POPC   C3B39141  25.923  42.729   7.057
 2901POPC   C4B39142  26.202  42.412   7.273
 2902POPC   NC339143  43.492   1.048   5.308
 2902POPC   PO439144  42.889   1.441   5.171
 2902POPC   GL139145  43.112   1.290   5.561
 2902POPC   GL239146  43.205   1.590   5.705
 2902POPC   C1A39147  43.373   1.112   5.961
 2902POPC   D2A39148  43.238   1.110   6.426
 2902POPC   C3A39149  43.306   0.881   6.826
 2902POPC   C4A39150  43.161   0.916   7.237
 2902POPC   C1B39151  42.954   1.391   6.054
 2902POPC   C2B39152  42.884   1.488   6.489
 2902POPC   C3B39153  42.960   1.270   6.878
 2902POPC   C4B39154  42.861   1.489   7.230
 2903POPC   NC339155  15.156  22.851   5.493
 2903POPC   PO439156  14.805  23.320   5.335
 2903POPC   GL139157  14.811  23.168   5.823
 2903POPC   GL239158  14.954  22.839   5.963
 2903POPC   C1A39159  15.050  23.236   6.266
 2903POPC   D2A39160  15.192  22.958   6.649
 2903POPC   C3A39161  14.989  23.035   7.056
 2903POPC   C4A39162  14.990  23.284   7.423
 2903POPC   C1B39163  15.356  22.748   6.191
 2903POPC   C2B39164  15.461  22.394   6.493
 2903POPC   C3B39165  15.555  22.446   6.925
 2903POPC   C4B39166  15.384  22.724   7.229
 2904POPC   NC339167  27.430  43.431   5.467
 2904POPC   PO439168  27.730  42.798   5.485
 2904POPC   GL139169  27.493  42.992   5.896
 2904POPC   GL239170  27.310  43.325   5.938
 2904POPC   C1A39171  27.378  43.082   6.373
 2904POPC   D2A39172  27.639  43.339   6.676
 2904POPC   C3A39173  27.801  43.056   7.012
 2904POPC   C4A39174  27.518  42.836   7.326
 2904POPC   C1B39175  27.134  43.549   6.281
 2904POPC   C2B39176  27.121  43.424   6.712
 2904POPC   C3B39177  27.329  43.259   7.082
 2904POPC   C4B39178  27.522  43.503   7.447
 2905POPC   NC339179  28.688  25.161   5.394
 2905POPC   PO439180  29.251  25.338   5.373
 2905POPC   GL139181  29.244  25.510   5.816
 2905POPC   GL239182  28.885  25.437   5.866
 2905POPC   C1A39183  29.442  25.421   6.283
 2905POPC   D2A39184  29.615  25.342   6.738
 2905POPC   C3A39185  29.296  25.293   7.109
 2905POPC   C4A39186  29.314  25.286   7.599
 2905POPC   C1B39187  28.965  25.626   6.291
 2905POPC   C2B39188  29.145  25.671   6.722
 2905POPC   C3B39189  28.929  25.681   7.129
 2905POPC   C4B39190  28.836  25.340   7.416
 2906POPC   NC339191  27.816  29.831   5.479
 2906POPC   PO439192  27.512  30.486   5.355
 2906POPC   GL139193  27.525  30.194   5.703
 2906POPC   GL239194  27.287  29.944   5.674
 2906POPC   C1A39195  27.726  30.044   6.081
 2906POPC   D2A39196  27.748  30.087   6.497
 2906POPC   C3A39197  27.604  29.785   6.743
 2906POPC   C4A39198  27.721  29.813   7.152
 2906POPC   C1B39199  27.240  29.902   6.134
 2906POPC   C2B39200  27.164  29.644   6.500
 2906POPC   C3B39201  27.052  29.784   6.883
 2906POPC   C4B39202  27.207  29.848   7.275
 2907POPC   NC339203   4.584   5.203   5.402
 2907POPC   PO439204   3.925   5.098   5.348
 2907POPC   GL139205   4.017   5.131   5.813
 2907POPC   GL239206   4.383   5.100   5.874
 2907POPC   C1A39207   4.045   5.205   6.304
 2907POPC   D2A39208   4.011   5.402   6.770
 2907POPC   C3A39209   4.061   5.147   7.154
 2907POPC   C4A39210   4.211   5.250   7.607
 2907POPC   C1B39211   4.427   4.853   6.268
 2907POPC   C2B39212   4.361   5.040   6.689
 2907POPC   C3B39213   4.550   5.252   7.051
 2907POPC   C4B39214   4.734   5.257   7.475
 2908POPC   NC339215   2.091  29.543   5.411
 2908POPC   PO439216   2.145  30.138   5.778
 2908POPC   GL139217   1.892  29.886   5.978
 2908POPC   GL239218   1.926  29.516   5.900
 2908POPC   C1A39219   1.854  30.017   6.404
 2908POPC   D2A39220   1.722  29.733   6.715
 2908POPC   C3A39221   1.898  29.842   7.098
 2908POPC   C4A39222   1.836  30.105   7.457
 2908POPC   C1B39223   2.331  29.649   6.128
 2908POPC   C2B39224   2.315  29.847   6.526
 2908POPC   C3B39225   2.395  29.788   6.929
 2908POPC   C4B39226   2.290  29.572   7.299
 2909POPC   NC339227  44.974   7.679   5.036
 2909POPC   PO439228   0.428   7.232   5.336
 2909POPC   GL139229   0.386   7.242   5.799
 2909POPC   GL239230   0.705   7.140   5.954
 2909POPC   C1A39231   0.432   7.580   6.122
 2909POPC   D2A39232   0.608   7.737   6.511
 2909POPC   C3A39233   0.615   7.477   6.871
 2909POPC   C4A39234   0.389   7.535   7.255
 2909POPC   C1B39235   0.598   7.187   6.412
 2909POPC   C2B39236   0.197   7.299   6.618
 2909POPC   C3B39237   0.092   7.160   7.029
 2909POPC   C4B39238   0.474   7.054   7.247
 2910POPC   NC339239   1.619  13.590   5.473
 2910POPC   PO439240   2.280  13.583   5.575
 2910POPC   GL139241   1.948  13.698   5.866
 2910POPC   GL239242   1.694  13.433   5.959
 2910POPC   C1A39243   2.020  13.671   6.307
 2910POPC   D2A39244   1.852  13.591   6.702
 2910POPC   C3A39245   2.092  13.885   6.945
 2910POPC   C4A39246   2.271  13.892   7.326
 2910POPC   C1B39247   1.536  13.765   6.218
 2910POPC   C2B39248   1.572  14.018   6.562
 2910POPC   C3B39249   1.578  13.916   7.003
 2910POPC   C4B39250   1.549  14.248   7.286
 2911POPC   NC339251   8.561   1.546   5.673
 2911POPC   PO439252   8.866   1.098   5.248
 2911POPC   GL139253   8.977   1.152   5.686
 2911POPC   GL239254   9.306   1.250   5.658
 2911POPC   C1A39255   9.100   1.082   6.120
 2911POPC   D2A39256   8.925   1.128   6.543
 2911POPC   C3A39257   8.961   1.036   7.004
 2911POPC   C4A39258   8.938   1.397   7.306
 2911POPC   C1B39259   9.332   1.540   6.033
 2911POPC   C2B39260   9.379   1.366   6.437
 2911POPC   C3B39261   9.380   1.317   6.885
 2911POPC   C4B39262   9.409   1.191   7.312
 2912POPC   NC339263   5.979   9.531   5.290
 2912POPC   PO439264   5.688  10.045   5.567
 2912POPC   GL139265   6.028   9.792   5.758
 2912POPC   GL239266   5.787   9.503   5.781
 2912POPC   C1A39267   6.252   9.901   6.169
 2912POPC   D2A39268   6.124   9.800   6.586
 2912POPC   C3A39269   6.144   9.999   6.980
 2912POPC   C4A39270   5.978   9.774   7.322
 2912POPC   C1B39271   5.787   9.689   6.190
 2912POPC   C2B39272   5.622   9.774   6.579
 2912POPC   C3B39273   5.442   9.589   6.919
 2912POPC   C4B39274   5.446   9.297   7.187
 2913POPC   NC339275  22.300   3.105   5.376
 2913POPC   PO439276  22.209   2.446   5.459
 2913POPC   GL139277  22.137   2.784   5.782
 2913POPC   GL239278  22.383   3.085   5.870
 2913POPC   C1A39279  22.174   2.774   6.221
 2913POPC   D2A39280  22.034   2.628   6.615
 2913POPC   C3A39281  21.946   2.862   6.983
 2913POPC   C4A39282  21.982   2.517   7.243
 2913POPC   C1B39283  22.528   3.184   6.256
 2913POPC   C2B39284  22.555   2.873   6.567
 2913POPC   C3B39285  22.447   2.757   6.956
 2913POPC   C4B39286  22.364   2.910   7.370
 2914POPC   NC339287  37.373  13.969   5.521
 2914POPC   PO439288  36.677  13.664   5.423
 2914POPC   GL139289  36.995  13.645   5.725
 2914POPC   GL239290  37.096  13.277   5.734
 2914POPC   C1A39291  37.029  13.700   6.171
 2914POPC   D2A39292  37.215  13.511   6.542
 2914POPC   C3A39293  37.023  13.691   6.897
 2914POPC   C4A39294  37.035  13.847   7.284
 2914POPC   C1B39295  36.794  13.234   6.079
 2914POPC   C2B39296  36.719  13.375   6.499
 2914POPC   C3B39297  36.824  13.216   6.897
 2914POPC   C4B39298  36.796  13.395   7.273
 2915POPC   NC339299  37.270  30.720   5.530
 2915POPC   PO439300  36.640  30.728   5.232
 2915POPC   GL139301  36.799  30.706   5.711
 2915POPC   GL239302  36.989  30.958   5.883
 2915POPC   C1A39303  36.961  30.511   6.129
 2915POPC   D2A39304  37.142  30.517   6.551
 2915POPC   C3A39305  36.905  30.660   6.908
 2915POPC   C4A39306  36.668  30.666   7.273
 2915POPC   C1B39307  37.342  30.845   6.198
 2915POPC   C2B39308  37.523  30.871   6.632
 2915POPC   C3B39309  37.391  30.718   7.056
 2915POPC   C4B39310  37.110  30.882   7.384
 2916POPC   NC339311   3.274  29.340   5.487
 2916POPC   PO439312   2.572  29.360   5.364
 2916POPC   GL139313   2.803  29.331   5.735
 2916POPC   GL239314   2.751  29.011   5.882
 2916POPC   C1A39315   2.800  29.426   6.187
 2916POPC   D2A39316   2.558  29.393   6.562
 2916POPC   C3A39317   2.674  29.335   6.997
 2916POPC   C4A39318   2.506  29.113   7.376
 2916POPC   C1B39319   2.919  28.946   6.337
 2916POPC   C2B39320   3.048  29.035   6.781
 2916POPC   C3B39321   2.909  28.869   7.151
 2916POPC   C4B39322   2.510  28.645   7.127
 2917POPC   NC339323  16.546  18.233   5.454
 2917POPC   PO439324  16.894  18.748   5.440
 2917POPC   GL139325  16.865  18.457   5.798
 2917POPC   GL239326  17.158  18.236   5.892
 2917POPC   C1A39327  16.521  18.451   6.108
 2917POPC   D2A39328  16.408  18.252   6.518
 2917POPC   C3A39329  16.489  18.503   6.861
 2917POPC   C4A39330  16.806  18.407   7.145
 2917POPC   C1B39331  17.122  18.482   6.248
 2917POPC   C2B39332  16.934  18.384   6.620
 2917POPC   C3B39333  17.144  18.115   6.934
 2917POPC   C4B39334  17.166  18.081   7.374
 2918POPC   NC339335  30.172  18.897   5.419
 2918POPC   PO439336  29.744  19.332   5.224
 2918POPC   GL139337  30.127  19.341   5.676
 2918POPC   GL239338  30.180  19.000   5.893
 2918POPC   C1A39339  30.061  19.380   6.204
 2918POPC   D2A39340  29.746  19.243   6.543
 2918POPC   C3A39341  29.878  19.200   6.972
 2918POPC   C4A39342  29.747  19.185   7.403
 2918POPC   C1B39343  30.031  18.864   6.287
 2918POPC   C2B39344  29.872  18.750   6.695
 2918POPC   C3B39345  29.764  18.745   7.140
 2918POPC   C4B39346  30.152  18.868   7.328
 2919POPC   NC339347  19.004  38.269   5.248
 2919POPC   PO439348  19.394  38.821   5.444
 2919POPC   GL139349  19.159  38.525   5.740
 2919POPC   GL239350  18.829  38.328   5.731
 2919POPC   C1A39351  18.966  38.624   6.136
 2919POPC   D2A39352  18.901  38.796   6.538
 2919POPC   C3A39353  19.224  38.597   6.813
 2919POPC   C4A39354  19.229  38.333   7.150
 2919POPC   C1B39355  18.804  38.130   6.145
 2919POPC   C2B39356  18.923  38.285   6.536
 2919POPC   C3B39357  18.761  38.380   6.940
 2919POPC   C4B39358  18.764  38.135   7.316
 2920POPC   NC339359  19.185  26.456   5.462
 2920POPC   PO439360  18.874  27.066   5.400
 2920POPC   GL139361  18.952  26.813   5.774
 2920POPC   GL239362  18.794  26.451   5.763
 2920POPC   C1A39363  19.217  26.838   6.152
 2920POPC   D2A39364  19.314  26.684   6.590
 2920POPC   C3A39365  19.235  26.908   6.983
 2920POPC   C4A39366  19.012  27.019   7.381
 2920POPC   C1B39367  18.866  26.462   6.190
 2920POPC   C2B39368  18.640  26.499   6.543
 2920POPC   C3B39369  18.833  26.608   6.891
 2920POPC   C4B39370  18.786  26.431   7.260
 2921POPC   NC339371   0.609  14.615   5.460
 2921POPC   PO439372  44.959  14.510   5.259
 2921POPC   GL139373   0.175  14.428   5.631
 2921POPC   GL239374   0.416  14.172   5.643
 2921POPC   C1A39375   0.216  14.544   6.078
 2921POPC   D2A39376   0.175  14.454   6.528
 2921POPC   C3A39377   0.396  14.677   6.854
 2921POPC   C4A39378   0.442  14.553   7.282
 2921POPC   C1B39379   0.623  14.221   6.057
 2921POPC   C2B39380   0.541  14.032   6.439
 2921POPC   C3B39381   0.598  13.855   6.823
 2921POPC   C4B39382   0.602  14.094   7.194
 2922POPC   NC339383  44.042  29.232   5.415
 2922POPC   PO439384  43.571  28.686   5.400
 2922POPC   GL139385  43.782  28.852   5.861
 2922POPC   GL239386  43.979  29.160   5.920
 2922POPC   C1A39387  43.865  28.836   6.286
 2922POPC   D2A39388  44.009  29.068   6.618
 2922POPC   C3A39389  43.735  28.997   6.944
 2922POPC   C4A39390  44.063  28.869   7.161
 2922POPC   C1B39391  43.937  29.443   6.279
 2922POPC   C2B39392  44.224  29.554   6.655
 2922POPC   C3B39393  44.048  29.387   7.035
 2922POPC   C4B39394  43.683  29.468   7.240
 2923POPC   NC339395  42.682  43.891   5.307
 2923POPC   PO439396  43.335  43.919   5.338
 2923POPC   GL139397  43.129  44.028   5.690
 2923POPC   GL239398  42.992  43.719   5.804
 2923POPC   C1A39399  43.094  44.152   6.138
 2923POPC   D2A39400  43.208  43.968   6.553
 2923POPC   C3A39401  43.357  44.228   6.905
 2923POPC   C4A39402  43.050  44.296   7.207
 2923POPC   C1B39403  43.225  43.584   6.189
 2923POPC   C2B39404  43.205  43.451   6.646
 2923POPC   C3B39405  43.167  43.658   7.046
 2923POPC   C4B39406  43.097  43.538   7.475
 2924POPC   NC339407  31.916  20.750   5.441
 2924POPC   PO439408  32.505  20.592   5.126
 2924POPC   GL139409  32.406  20.564   5.636
 2924POPC   GL239410  32.071  20.483   5.864
 2924POPC   C1A39411  32.463  20.689   6.107
 2924POPC   D2A39412  32.591  20.857   6.535
 2924POPC   C3A39413  32.255  20.794   6.862
 2924POPC   C4A39414  32.307  20.656   7.280
 2924POPC   C1B39415  31.844  20.231   6.228
 2924POPC   C2B39416  31.763  20.199   6.690
 2924POPC   C3B39417  31.915  20.387   7.096
 2924POPC   C4B39418  31.929  20.387   7.557
 2925POPC   NC339419  19.148  18.745   5.432
 2925POPC   PO439420  19.049  19.422   5.508
 2925POPC   GL139421  19.060  19.097   5.791
 2925POPC   GL239422  18.766  18.899   5.732
 2925POPC   C1A39423  19.130  19.049   6.219
 2925POPC   D2A39424  19.037  19.143   6.616
 2925POPC   C3A39425  19.218  18.980   6.991
 2925POPC   C4A39426  19.159  19.130   7.443
 2925POPC   C1B39427  18.636  19.093   6.127
 2925POPC   C2B39428  18.569  18.951   6.556
 2925POPC   C3B39429  18.701  19.050   7.007
 2925POPC   C4B39430  18.705  18.896   7.447
 2926POPC   NC339431  41.226  32.797   5.396
 2926POPC   PO439432  41.491  33.370   5.646
 2926POPC   GL139433  41.526  32.995   5.845
 2926POPC   GL239434  41.824  32.825   5.739
 2926POPC   C1A39435  41.646  33.087   6.256
 2926POPC   D2A39436  41.791  33.266   6.641
 2926POPC   C3A39437  41.458  33.287   6.888
 2926POPC   C4A39438  41.360  33.216   7.305
 2926POPC   C1B39439  42.003  32.761   6.177
 2926POPC   C2B39440  41.857  32.758   6.609
 2926POPC   C3B39441  41.641  32.806   7.035
 2926POPC   C4B39442  41.801  32.748   7.479
 2927POPC   NC339443  27.409  41.534   5.230
 2927POPC   PO439444  27.944  41.822   5.442
 2927POPC   GL139445  27.623  41.645   5.716
 2927POPC   GL239446  27.594  41.286   5.776
 2927POPC   C1A39447  27.692  41.604   6.167
 2927POPC   D2A39448  27.815  41.847   6.509
 2927POPC   C3A39449  27.725  41.666   6.909
 2927POPC   C4A39450  27.835  41.871   7.273
 2927POPC   C1B39451  27.537  41.120   6.230
 2927POPC   C2B39452  27.507  41.234   6.682
 2927POPC   C3B39453  27.469  41.242   7.152
 2927POPC   C4B39454  27.556  41.319   7.633
 2928POPC   NC339455  43.703  35.767   5.386
 2928POPC   PO439456  44.282  35.342   5.481
 2928POPC   GL139457  43.957  35.397   5.855
 2928POPC   GL239458  43.603  35.586   5.832
 2928POPC   C1A39459  43.814  35.033   6.154
 2928POPC   D2A39460  43.547  34.924   6.543
 2928POPC   C3A39461  43.798  35.005   6.922
 2928POPC   C4A39462  44.158  35.233   7.110
 2928POPC   C1B39463  43.488  35.406   6.192
 2928POPC   C2B39464  43.733  35.405   6.585
 2928POPC   C3B39465  43.621  35.477   7.010
 2928POPC   C4B39466  43.674  35.613   7.434
 2929POPC   NC339467  22.079  30.298   5.222
 2929POPC   PO439468  22.602  30.679   5.409
 2929POPC   GL139469  22.324  30.766   5.797
 2929POPC   GL239470  21.959  30.858   5.708
 2929POPC   C1A39471  22.381  30.620   6.240
 2929POPC   D2A39472  22.666  30.495   6.566
 2929POPC   C3A39473  22.405  30.529   6.927
 2929POPC   C4A39474  22.036  30.526   7.149
 2929POPC   C1B39475  21.974  30.941   6.181
 2929POPC   C2B39476  22.025  30.837   6.648
 2929POPC   C3B39477  22.020  31.022   7.074
 2929POPC   C4B39478  22.412  30.974   7.234
 2930POPC   NC339479  38.622  32.727   5.493
 2930POPC   PO439480  38.153  33.141   5.290
 2930POPC   GL139481  38.335  33.120   5.719
 2930POPC   GL239482  38.558  33.393   5.805
 2930POPC   C1A39483  38.434  32.925   6.121
 2930POPC   D2A39484  38.272  32.897   6.537
 2930POPC   C3A39485  38.539  32.943   6.907
 2930POPC   C4A39486  38.572  32.995   7.337
 2930POPC   C1B39487  38.350  33.442   6.183
 2930POPC   C2B39488  38.479  33.353   6.606
 2930POPC   C3B39489  38.467  33.473   7.027
 2930POPC   C4B39490  38.310  33.425   7.439
 2931POPC   NC339491  12.364  37.235   5.496
 2931POPC   PO439492  12.886  37.668   5.237
 2931POPC   GL139493  12.895  37.786   5.698
 2931POPC   GL239494  12.571  37.844   5.762
 2931POPC   C1A39495  12.953  37.636   6.128
 2931POPC   D2A39496  13.052  37.796   6.534
 2931POPC   C3A39497  12.906  37.616   6.918
 2931POPC   C4A39498  13.091  37.692   7.298
 2931POPC   C1B39499  12.456  37.651   6.176
 2931POPC   C2B39500  12.633  37.414   6.545
 2931POPC   C3B39501  12.512  37.265   6.962
 2931POPC   C4B39502  12.606  37.452   7.365
 2932POPC   NC339503   7.981  24.767   5.395
 2932POPC   PO439504   8.471  24.251   5.278
 2932POPC   GL139505   8.418  24.598   5.623
 2932POPC   GL239506   8.766  24.534   5.727
 2932POPC   C1A39507   8.164  24.778   6.037
 2932POPC   D2A39508   8.158  24.947   6.511
 2932POPC   C3A39509   7.949  24.722   6.908
 2932POPC   C4A39510   7.823  24.699   7.403
 2932POPC   C1B39511   8.534  24.419   6.092
 2932POPC   C2B39512   8.482  24.509   6.527
 2932POPC   C3B39513   8.448  24.303   6.913
 2932POPC   C4B39514   8.227  24.428   7.257
 2933POPC   NC339515  13.086  33.435   5.542
 2933POPC   PO439516  13.570  32.915   5.570
 2933POPC   GL139517  13.763  33.052   5.907
 2933POPC   GL239518  13.773  33.401   5.877
 2933POPC   C1A39519  13.687  32.919   6.311
 2933POPC   D2A39520  13.726  33.150   6.689
 2933POPC   C3A39521  13.791  32.880   7.030
 2933POPC   C4A39522  13.823  32.952   7.441
 2933POPC   C1B39523  13.506  33.412   6.260
 2933POPC   C2B39524  13.250  33.091   6.517
 2933POPC   C3B39525  13.286  33.109   6.948
 2933POPC   C4B39526  13.327  33.067   7.371
 2934POPC   NC339527  43.061  34.243   5.313
 2934POPC   PO439528  43.381  34.914   5.407
 2934POPC   GL139529  43.035  34.656   5.641
 2934POPC   GL239530  43.159  34.350   5.800
 2934POPC   C1A39531  42.844  34.656   6.071
 2934POPC   D2A39532  43.108  34.635   6.446
 2934POPC   C3A39533  42.990  34.622   6.878
 2934POPC   C4A39534  43.064  34.776   7.322
 2934POPC   C1B39535  43.121  34.165   6.203
 2934POPC   C2B39536  43.062  34.155   6.661
 2934POPC   C3B39537  43.165  34.211   7.142
 2934POPC   C4B39538  43.423  34.094   7.534
 2935POPC   NC339539  22.040  10.781   5.169
 2935POPC   PO439540  22.042  11.418   5.288
 2935POPC   GL139541  21.995  11.275   5.711
 2935POPC   GL239542  21.828  11.547   5.879
 2935POPC   C1A39543  22.055  11.199   6.159
 2935POPC   D2A39544  21.980  11.087   6.560
 2935POPC   C3A39545  22.047  11.263   6.959
 2935POPC   C4A39546  22.073  11.078   7.345
 2935POPC   C1B39547  21.664  11.498   6.286
 2935POPC   C2B39548  21.873  11.610   6.620
 2935POPC   C3B39549  21.733  11.692   7.001
 2935POPC   C4B39550  21.943  11.606   7.369
 2936POPC   NC339551  21.445  10.464   5.341
 2936POPC   PO439552  20.965  10.201   5.616
 2936POPC   GL139553  21.092  10.411   5.949
 2936POPC   GL239554  21.353  10.624   5.826
 2936POPC   C1A39555  21.152  10.329   6.384
 2936POPC   D2A39556  21.359  10.499   6.704
 2936POPC   C3A39557  21.134  10.478   7.062
 2936POPC   C4A39558  21.085  10.788   7.375
 2936POPC   C1B39559  21.622  10.456   6.145
 2936POPC   C2B39560  21.836  10.574   6.542
 2936POPC   C3B39561  21.807  10.393   6.949
 2936POPC   C4B39562  21.568  10.453   7.328
 2937POPC   NC339563   9.122  11.609   5.623
 2937POPC   PO439564   8.862  11.074   5.317
 2937POPC   GL139565   8.869  11.182   5.737
 2937POPC   GL239566   8.646  11.435   5.804
 2937POPC   C1A39567   9.058  11.170   6.144
 2937POPC   D2A39568   8.863  11.139   6.544
 2937POPC   C3A39569   9.172  11.058   6.863
 2937POPC   C4A39570   9.246  11.274   7.258
 2937POPC   C1B39571   8.753  11.589   6.199
 2937POPC   C2B39572   8.968  11.698   6.571
 2937POPC   C3B39573   8.874  11.470   6.935
 2937POPC   C4B39574   8.715  11.099   7.153
 2938POPC   NC339575  15.194  34.895   5.384
 2938POPC   PO439576  15.226  35.520   5.371
 2938POPC   GL139577  15.096  35.385   5.806
 2938POPC   GL239578  15.014  35.032   5.844
 2938POPC   C1A39579  15.048  35.283   6.276
 2938POPC   D2A39580  15.249  35.390   6.633
 2938POPC   C3A39581  15.109  35.394   7.051
 2938POPC   C4A39582  15.388  35.509   7.369
 2938POPC   C1B39583  15.358  34.908   6.126
 2938POPC   C2B39584  15.532  34.986   6.566
 2938POPC   C3B39585  15.294  34.926   6.969
 2938POPC   C4B39586  14.818  34.977   7.092
 2939POPC   NC339587  37.234  13.113   5.259
 2939POPC   PO439588  36.665  12.887   5.433
 2939POPC   GL139589  36.837  12.797   5.791
 2939POPC   GL239590  37.135  12.716   5.662
 2939POPC   C1A39591  36.708  12.642   6.175
 2939POPC   D2A39592  36.779  12.857   6.537
 2939POPC   C3A39593  36.664  12.705   6.935
 2939POPC   C4A39594  36.809  12.880   7.326
 2939POPC   C1B39595  37.223  12.630   6.111
 2939POPC   C2B39596  37.190  12.529   6.567
 2939POPC   C3B39597  37.161  12.824   6.944
 2939POPC   C4B39598  37.250  13.165   7.259
 2940POPC   NC339599  27.809   2.832   5.605
 2940POPC   PO439600  27.456   2.491   5.140
 2940POPC   GL139601  27.404   2.550   5.741
 2940POPC   GL239602  27.451   2.830   6.008
 2940POPC   C1A39603  27.377   2.435   6.264
 2940POPC   D2A39604  27.486   2.733   6.633
 2940POPC   C3A39605  27.461   2.623   7.080
 2940POPC   C4A39606  27.714   2.414   7.405
 2940POPC   C1B39607  27.783   3.002   6.308
 2940POPC   C2B39608  27.932   2.978   6.751
 2940POPC   C3B39609  27.832   3.212   7.127
 2940POPC   C4B39610  27.918   3.274   7.579
 2941POPC   NC339611   8.202  12.240   5.527
 2941POPC   PO439612   8.144  11.668   5.184
 2941POPC   GL139613   8.177  11.754   5.684
 2941POPC   GL239614   7.848  11.623   5.797
 2941POPC   C1A39615   8.192  12.065   6.131
 2941POPC   D2A39616   8.324  12.286   6.526
 2941POPC   C3A39617   8.240  12.086   6.923
 2941POPC   C4A39618   8.099  12.112   7.329
 2941POPC   C1B39619   7.749  11.823   6.201
 2941POPC   C2B39620   7.940  11.874   6.575
 2941POPC   C3B39621   7.899  11.646   6.986
 2941POPC   C4B39622   7.821  11.715   7.445
 2942POPC   NC339623  32.707  22.797   5.528
 2942POPC   PO439624  32.161  22.772   5.225
 2942POPC   GL139625  32.170  22.853   5.713
 2942POPC   GL239626  31.966  22.581   5.744
 2942POPC   C1A39627  32.308  22.894   6.209
 2942POPC   D2A39628  32.186  23.167   6.614
 2942POPC   C3A39629  32.145  23.031   7.070
 2942POPC   C4A39630  32.523  22.921   7.326
 2942POPC   C1B39631  31.894  22.617   6.165
 2942POPC   C2B39632  31.824  22.779   6.576
 2942POPC   C3B39633  31.861  22.584   7.000
 2942POPC   C4B39634  32.168  22.549   7.349
 2943POPC   NC339635   1.928  26.821   5.323
 2943POPC   PO439636   2.552  27.131   5.384
 2943POPC   GL139637   2.261  26.933   5.707
 2943POPC   GL239638   2.079  26.587   5.781
 2943POPC   C1A39639   1.999  26.992   6.082
 2943POPC   D2A39640   1.915  27.104   6.517
 2943POPC   C3A39641   1.968  26.825   6.869
 2943POPC   C4A39642   1.992  26.900   7.308
 2943POPC   C1B39643   1.785  26.528   6.189
 2943POPC   C2B39644   1.788  26.341   6.614
 2943POPC   C3B39645   1.649  26.446   7.037
 2943POPC   C4B39646   1.560  26.493   7.497
 2944POPC   NC339647  31.479  38.846   5.492
 2944POPC   PO439648  31.290  38.217   5.299
 2944POPC   GL139649  31.502  38.367   5.671
 2944POPC   GL239650  31.149  38.379   5.788
 2944POPC   C1A39651  31.790  38.560   6.011
 2944POPC   D2A39652  31.859  38.570   6.464
 2944POPC   C3A39653  31.586  38.667   6.810
 2944POPC   C4A39654  31.577  38.584   7.248
 2944POPC   C1B39655  31.308  38.509   6.169
 2944POPC   C2B39656  31.143  38.569   6.566
 2944POPC   C3B39657  31.146  38.445   7.005
 2944POPC   C4B39658  31.107  38.751   7.341
 2945POPC   NC339659  23.368  14.038   5.548
 2945POPC   PO439660  23.417  13.403   5.455
 2945POPC   GL139661  23.667  13.375   5.813
 2945POPC   GL239662  23.642  13.736   5.882
 2945POPC   C1A39663  23.688  13.399   6.266
 2945POPC   D2A39664  23.634  13.668   6.566
 2945POPC   C3A39665  23.490  13.626   6.964
 2945POPC   C4A39666  23.637  13.716   7.400
 2945POPC   C1B39667  23.979  13.832   6.172
 2945POPC   C2B39668  24.011  13.997   6.592
 2945POPC   C3B39669  23.947  13.881   7.011
 2945POPC   C4B39670  24.163  13.876   7.414
 2946POPC   NC339671  13.702  16.352   5.534
 2946POPC   PO439672  13.292  16.885   5.319
 2946POPC   GL139673  13.511  16.844   5.771
 2946POPC   GL239674  13.856  16.744   5.806
 2946POPC   C1A39675  13.578  16.774   6.230
 2946POPC   D2A39676  13.576  16.464   6.543
 2946POPC   C3A39677  13.475  16.628   6.926
 2946POPC   C4A39678  13.231  16.457   7.254
 2946POPC   C1B39679  14.111  16.790   6.127
 2946POPC   C2B39680  14.015  16.733   6.517
 2946POPC   C3B39681  14.077  16.888   6.891
 2946POPC   C4B39682  13.883  16.693   7.238
 2947POPC   NC339683  35.390  35.762   5.549
 2947POPC   PO439684  35.135  36.330   5.529
 2947POPC   GL139685  35.168  36.075   5.885
 2947POPC   GL239686  35.305  36.381   6.021
 2947POPC   C1A39687  35.425  35.876   6.206
 2947POPC   D2A39688  35.376  36.058   6.565
 2947POPC   C3A39689  35.307  35.847   6.933
 2947POPC   C4A39690  35.515  36.090   7.216
 2947POPC   C1B39691  35.698  36.311   6.227
 2947POPC   C2B39692  35.846  36.250   6.671
 2947POPC   C3B39693  35.779  36.494   7.058
 2947POPC   C4B39694  35.652  36.469   7.531
 2948POPC   NC339695  36.769  29.099   5.413
 2948POPC   PO439696  36.977  29.788   5.282
 2948POPC   GL139697  37.074  29.470   5.600
 2948POPC   GL239698  36.770  29.537   5.781
 2948POPC   C1A39699  37.048  29.189   6.008
 2948POPC   D2A39700  36.846  29.117   6.440
 2948POPC   C3A39701  37.028  29.189   6.888
 2948POPC   C4A39702  36.998  29.030   7.342
 2948POPC   C1B39703  36.957  29.653   6.184
 2948POPC   C2B39704  36.848  29.605   6.607
 2948POPC   C3B39705  36.540  29.405   6.829
 2948POPC   C4B39706  36.639  29.366   7.235
 2949POPC   NC339707   0.256  33.379   5.445
 2949POPC   PO439708   0.574  32.804   5.486
 2949POPC   GL139709   0.670  33.014   5.856
 2949POPC   GL239710   0.581  33.378   5.850
 2949POPC   C1A39711   0.613  33.086   6.291
 2949POPC   D2A39712   0.254  33.032   6.552
 2949POPC   C3A39713   0.520  33.007   6.892
 2949POPC   C4A39714   0.287  32.977   7.248
 2949POPC   C1B39715   0.256  33.446   6.196
 2949POPC   C2B39716   0.396  33.515   6.632
 2949POPC   C3B39717   0.394  33.447   7.087
 2949POPC   C4B39718   0.759  33.208   7.305
 2950POPC   NC339719  23.695   7.722   5.249
 2950POPC   PO439720  24.142   7.299   5.435
 2950POPC   GL139721  23.960   7.379   5.810
 2950POPC   GL239722  23.582   7.317   5.837
 2950POPC   C1A39723  23.899   7.292   6.226
 2950POPC   D2A39724  23.696   7.406   6.564
 2950POPC   C3A39725  23.787   7.233   6.968
 2950POPC   C4A39726  23.489   7.271   7.287
 2950POPC   C1B39727  23.447   7.635   6.158
 2950POPC   C2B39728  23.293   7.759   6.553
 2950POPC   C3B39729  23.464   7.673   6.936
 2950POPC   C4B39730  23.494   7.950   7.273
 2951POPC   NC339731  37.263  24.706   5.471
 2951POPC   PO439732  36.831  24.159   5.390
 2951POPC   GL139733  36.917  24.262   5.848
 2951POPC   GL239734  37.066  24.588   5.921
 2951POPC   C1A39735  37.096  24.182   6.268
 2951POPC   D2A39736  37.039  24.442   6.637
 2951POPC   C3A39737  37.056  24.340   7.073
 2951POPC   C4A39738  36.711  24.233   7.335
 2951POPC   C1B39739  36.775  24.731   6.255
 2951POPC   C2B39740  36.594  24.710   6.688
 2951POPC   C3B39741  36.659  24.680   7.132
 2951POPC   C4B39742  36.977  24.634   7.514
 2952POPC   NC339743  32.093  35.532   5.294
 2952POPC   PO439744  32.049  34.922   5.648
 2952POPC   GL139745  32.224  35.302   5.861
 2952POPC   GL239746  32.574  35.370   5.782
 2952POPC   C1A39747  32.152  35.424   6.293
 2952POPC   D2A39748  32.095  35.734   6.627
 2952POPC   C3A39749  32.055  35.471   6.960
 2952POPC   C4A39750  32.170  35.274   7.339
 2952POPC   C1B39751  32.632  35.590   6.178
 2952POPC   C2B39752  32.548  35.472   6.600
 2952POPC   C3B39753  32.570  35.384   7.028
 2952POPC   C4B39754  32.560  35.593   7.434
 2953POPC   NC339755  43.511  32.237   5.391
 2953POPC   PO439756  44.160  31.999   5.536
 2953POPC   GL139757  43.863  32.202   5.809
 2953POPC   GL239758  43.769  32.557   5.707
 2953POPC   C1A39759  43.764  32.120   6.242
 2953POPC   D2A39760  43.859  32.287   6.637
 2953POPC   C3A39761  43.978  32.119   7.021
 2953POPC   C4A39762  44.295  32.306   7.216
 2953POPC   C1B39763  43.588  32.710   6.079
 2953POPC   C2B39764  43.613  32.722   6.523
 2953POPC   C3B39765  43.554  32.550   6.943
 2953POPC   C4B39766  43.802  32.509   7.316
 2954POPC   NC339767  26.992  11.268   4.938
 2954POPC   PO439768  27.091  11.115   5.575
 2954POPC   GL139769  26.909  11.267   5.924
 2954POPC   GL239770  26.753  10.998   6.006
 2954POPC   C1A39771  26.971  11.523   6.280
 2954POPC   D2A39772  27.249  11.634   6.636
 2954POPC   C3A39773  27.136  11.681   7.064
 2954POPC   C4A39774  26.948  11.359   7.264
 2954POPC   C1B39775  27.021  11.029   6.372
 2954POPC   C2B39776  26.873  11.231   6.740
 2954POPC   C3B39777  26.602  11.075   7.045
 2954POPC   C4B39778  26.461  11.296   7.381
 2955POPC   NC339779  42.091   4.382   5.009
 2955POPC   PO439780  41.523   4.249   5.325
 2955POPC   GL139781  41.472   4.351   5.776
 2955POPC   GL239782  41.563   4.678   5.882
 2955POPC   C1A39783  41.335   4.401   6.234
 2955POPC   D2A39784  41.559   4.301   6.594
 2955POPC   C3A39785  41.396   4.361   7.018
 2955POPC   C4A39786  41.286   4.061   7.324
 2955POPC   C1B39787  41.855   4.402   6.140
 2955POPC   C2B39788  42.076   4.375   6.522
 2955POPC   C3B39789  41.933   4.299   6.929
 2955POPC   C4B39790  41.817   4.261   7.337
 2956POPC   NC339791  22.660  14.349   5.407
 2956POPC   PO439792  23.249  14.469   5.387
 2956POPC   GL139793  23.014  14.386   5.789
 2956POPC   GL239794  22.679  14.252   5.902
 2956POPC   C1A39795  23.094  14.237   6.201
 2956POPC   D2A39796  23.102  14.487   6.574
 2956POPC   C3A39797  22.965  14.227   6.893
 2956POPC   C4A39798  23.013  14.314   7.292
 2956POPC   C1B39799  22.682  14.545   6.260
 2956POPC   C2B39800  22.583  14.523   6.708
 2956POPC   C3B39801  22.737  14.684   7.122
 2956POPC   C4B39802  22.660  14.547   7.593
 2957POPC   NC339803  12.807  24.571   4.954
 2957POPC   PO439804  12.754  24.852   5.544
 2957POPC   GL139805  12.908  24.640   5.932
 2957POPC   GL239806  12.962  24.289   5.905
 2957POPC   C1A39807  12.768  24.435   6.342
 2957POPC   D2A39808  12.561  24.576   6.720
 2957POPC   C3A39809  12.863  24.550   7.082
 2957POPC   C4A39810  12.784  24.440   7.532
 2957POPC   C1B39811  13.119  24.064   6.314
 2957POPC   C2B39812  13.096  23.993   6.786
 2957POPC   C3B39813  12.983  24.094   7.233
 2957POPC   C4B39814  13.135  24.035   7.670
 2958POPC   NC339815  40.304  38.120   5.527
 2958POPC   PO439816  39.796  38.519   5.355
 2958POPC   GL139817  39.964  38.419   5.780
 2958POPC   GL239818  40.306  38.574   5.818
 2958POPC   C1A39819  40.080  38.358   6.225
 2958POPC   D2A39820  39.875  38.393   6.620
 2958POPC   C3A39821  40.125  38.350   6.995
 2958POPC   C4A39822  40.065  38.450   7.434
 2958POPC   C1B39823  40.304  38.841   6.213
 2958POPC   C2B39824  40.183  38.911   6.669
 2958POPC   C3B39825  40.303  38.824   7.126
 2958POPC   C4B39826  40.309  38.893   7.587
 2959POPC   NC339827  44.518  33.324   5.318
 2959POPC   PO439828  44.825  32.692   5.450
 2959POPC   GL139829  44.657  32.812   5.832
 2959POPC   GL239830  44.460  33.136   5.803
 2959POPC   C1A39831  44.862  32.929   6.212
 2959POPC   D2A39832  44.652  32.950   6.600
 2959POPC   C3A39833  44.857  32.865   6.986
 2959POPC   C4A39834  44.624  32.669   7.313
 2959POPC   C1B39835  44.547  33.346   6.204
 2959POPC   C2B39836  44.866  33.408   6.545
 2959POPC   C3B39837  44.745  33.371   6.957
 2959POPC   C4B39838  44.520  33.187   7.273
 2960POPC   NC339839  43.440  44.439   5.325
 2960POPC   PO439840  42.820  44.767   5.216
 2960POPC   GL139841  42.884  44.515   5.643
 2960POPC   GL239842  43.229  44.525   5.771
 2960POPC   C1A39843  42.901  44.639   6.134
 2960POPC   D2A39844  43.057  44.493   6.557
 2960POPC   C3A39845  42.992  44.748   6.941
 2960POPC   C4A39846  42.837  44.723   7.382
 2960POPC   C1B39847  43.429  44.550   6.177
 2960POPC   C2B39848  43.491  44.820   6.535
 2960POPC   C3B39849  43.481  44.966   6.946
 2960POPC   C4B39850  43.361  44.706   7.296
 2961POPC   NC339851  30.259  31.196   5.524
 2961POPC   PO439852  29.690  31.468   5.357
 2961POPC   GL139853  29.818  31.644   5.726
 2961POPC   GL239854  30.073  31.476   5.928
 2961POPC   C1A39855  29.621  31.692   6.125
 2961POPC   D2A39856  29.491  31.566   6.538
 2961POPC   C3A39857  29.734  31.706   6.882
 2961POPC   C4A39858  29.954  31.546   7.223
 2961POPC   C1B39859  29.960  31.380   6.360
 2961POPC   C2B39860  30.089  31.309   6.784
 2961POPC   C3B39861  30.398  31.345   7.129
 2961POPC   C4B39862  30.280  31.329   7.598
 2962POPC   NC339863  11.447  22.491   5.617
 2962POPC   PO439864  11.414  23.152   5.621
 2962POPC   GL139865  11.234  22.877   5.898
 2962POPC   GL239866  10.900  22.975   5.847
 2962POPC   C1A39867  11.334  22.628   6.276
 2962POPC   D2A39868  11.450  22.461   6.686
 2962POPC   C3A39869  11.456  22.817   6.968
 2962POPC   C4A39870  11.194  23.123   7.195
 2962POPC   C1B39871  10.825  22.719   6.228
 2962POPC   C2B39872  10.980  22.698   6.679
 2962POPC   C3B39873  10.802  22.757   7.090
 2962POPC   C4B39874  10.933  22.843   7.543
 2963POPC   NC339875   0.740  40.401   5.461
 2963POPC   PO439876   0.339  41.006   5.393
 2963POPC   GL139877   0.351  40.914   5.818
 2963POPC   GL239878   0.367  40.547   5.834
 2963POPC   C1A39879   0.396  40.880   6.263
 2963POPC   D2A39880   0.342  41.084   6.651
 2963POPC   C3A39881   0.426  40.937   7.069
 2963POPC   C4A39882  44.987  40.977   7.191
 2963POPC   C1B39883   0.124  40.456   6.215
 2963POPC   C2B39884   0.073  40.653   6.629
 2963POPC   C3B39885   0.146  40.520   7.042
 2963POPC   C4B39886   0.211  40.287   7.409
 2964POPC   NC339887  32.983  10.087   5.393
 2964POPC   PO439888  33.155  10.748   5.376
 2964POPC   GL139889  33.127  10.502   5.758
 2964POPC   GL239890  32.761  10.431   5.773
 2964POPC   C1A39891  33.286  10.538   6.201
 2964POPC   D2A39892  33.376  10.322   6.591
 2964POPC   C3A39893  33.366  10.610   6.932
 2964POPC   C4A39894  33.240  10.674   7.349
 2964POPC   C1B39895  32.817  10.357   6.229
 2964POPC   C2B39896  32.929  10.539   6.639
 2964POPC   C3B39897  32.835  10.689   7.059
 2964POPC   C4B39898  32.584  10.684   7.478
 2965POPC   NC339899  15.021  28.758   5.526
 2965POPC   PO439900  14.897  28.066   5.549
 2965POPC   GL139901  14.916  28.366   5.875
 2965POPC   GL239902  15.262  28.456   5.873
 2965POPC   C1A39903  14.972  28.495   6.297
 2965POPC   D2A39904  15.303  28.462   6.548
 2965POPC   C3A39905  15.212  28.184   6.849
 2965POPC   C4A39906  15.168  28.255   7.262
 2965POPC   C1B39907  15.544  28.700   6.143
 2965POPC   C2B39908  15.647  28.851   6.563
 2965POPC   C3B39909  15.474  28.731   6.959
 2965POPC   C4B39910  15.379  28.712   7.397
 2966POPC   NC339911  41.931  25.147   5.342
 2966POPC   PO439912  42.394  25.418   5.528
 2966POPC   GL139913  42.175  25.192   5.815
 2966POPC   GL239914  42.474  25.001   5.840
 2966POPC   C1A39915  42.196  25.369   6.227
 2966POPC   D2A39916  42.354  25.236   6.622
 2966POPC   C3A39917  42.130  25.402   6.934
 2966POPC   C4A39918  42.047  25.597   7.280
 2966POPC   C1B39919  42.336  24.874   6.243
 2966POPC   C2B39920  42.477  24.712   6.654
 2966POPC   C3B39921  42.372  24.911   7.053
 2966POPC   C4B39922  42.470  25.256   7.275
 2967POPC   NC339923  23.206  42.518   5.391
 2967POPC   PO439924  22.627  42.286   5.432
 2967POPC   GL139925  22.834  42.487   5.809
 2967POPC   GL239926  23.229  42.464   5.883
 2967POPC   C1A39927  22.647  42.417   6.221
 2967POPC   D2A39928  22.520  42.182   6.585
 2967POPC   C3A39929  22.649  42.406   6.951
 2967POPC   C4A39930  23.062  42.526   7.098
 2967POPC   C1B39931  23.144  42.222   6.218
 2967POPC   C2B39932  23.041  42.300   6.617
 2967POPC   C3B39933  23.237  42.076   6.934
 2967POPC   C4B39934  23.128  41.967   7.310
 2968POPC   NC339935  36.081   6.246   5.369
 2968POPC   PO439936  36.399   5.618   5.345
 2968POPC   GL139937  36.093   5.813   5.693
 2968POPC   GL239938  35.980   6.149   5.836
 2968POPC   C1A39939  36.058   5.798   6.178
 2968POPC   D2A39940  36.115   6.009   6.590
 2968POPC   C3A39941  36.260   5.769   6.927
 2968POPC   C4A39942  36.085   5.721   7.304
 2968POPC   C1B39943  35.771   6.241   6.224
 2968POPC   C2B39944  35.617   6.060   6.621
 2968POPC   C3B39945  35.843   6.099   7.043
 2968POPC   C4B39946  35.813   6.078   7.536
 2969POPC   NC339947  21.210   7.984   5.423
 2969POPC   PO439948  21.657   8.427   5.289
 2969POPC   GL139949  21.447   8.429   5.719
 2969POPC   GL239950  21.127   8.597   5.784
 2969POPC   C1A39951  21.488   8.360   6.181
 2969POPC   D2A39952  21.626   7.975   6.427
 2969POPC   C3A39953  21.709   8.039   6.870
 2969POPC   C4A39954  21.560   8.280   7.229
 2969POPC   C1B39955  21.021   8.201   6.028
 2969POPC   C2B39956  21.124   8.019   6.441
 2969POPC   C3B39957  21.170   8.235   6.840
 2969POPC   C4B39958  21.044   8.241   7.276
 2970POPC   NC339959  27.288  26.551   5.351
 2970POPC   PO439960  27.863  26.207   5.416
 2970POPC   GL139961  27.631  26.304   5.812
 2970POPC   GL239962  27.846  26.523   5.883
 2970POPC   C1A39963  27.549  26.380   6.304
 2970POPC   D2A39964  27.432  26.487   6.775
 2970POPC   C3A39965  27.320  26.208   7.167
 2970POPC   C4A39966  27.230  25.959   7.570
 2970POPC   C1B39967  28.053  26.405   6.255
 2970POPC   C2B39968  28.070  26.296   6.701
 2970POPC   C3B39969  27.823  26.324   7.089
 2970POPC   C4B39970  27.712  26.321   7.538
 2971POPC   NC339971   4.397  32.927   5.440
 2971POPC   PO439972   3.973  33.515   5.489
 2971POPC   GL139973   4.097  33.193   5.795
 2971POPC   GL239974   4.480  33.209   5.833
 2971POPC   C1A39975   4.208  33.076   6.224
 2971POPC   D2A39976   4.297  33.322   6.562
 2971POPC   C3A39977   4.214  33.101   6.939
 2971POPC   C4A39978   4.147  33.166   7.359
 2971POPC   C1B39979   4.629  32.828   6.069
 2971POPC   C2B39980   4.614  32.840   6.542
 2971POPC   C3B39981   4.707  32.960   6.989
 2971POPC   C4B39982   4.544  32.851   7.387
 2972POPC   NC339983   4.818  24.676   5.531
 2972POPC   PO439984   4.208  24.507   5.518
 2972POPC   GL139985   4.405  24.468   5.849
 2972POPC   GL239986   4.444  24.823   5.867
 2972POPC   C1A39987   4.258  24.391   6.247
 2972POPC   D2A39988   3.975  24.466   6.548
 2972POPC   C3A39989   4.110  24.388   6.962
 2972POPC   C4A39990   4.145  24.758   7.193
 2972POPC   C1B39991   4.674  24.673   6.221
 2972POPC   C2B39992   4.604  24.504   6.632
 2972POPC   C3B39993   4.603  24.554   7.062
 2972POPC   C4B39994   4.752  24.220   7.265
 2973POPC   NC339995  33.561  37.218   5.561
 2973POPC   PO439996  33.754  36.705   5.481
 2973POPC   GL139997  33.894  36.933   5.838
 2973POPC   GL239998  34.160  37.197   5.824
 2973POPC   C1A39999  33.928  36.774   6.252
 2973POPC   D2A40000  33.597  36.580   6.526
 2973POPC   C3A40001  33.646  36.666   6.947
 2973POPC   C4A40002  33.510  36.999   7.174
 2973POPC   C1B40003  33.950  37.297   6.196
 2973POPC   C2B40004  33.762  37.140   6.590
 2973POPC   C3B40005  33.958  37.077   6.977
 2973POPC   C4B40006  33.929  37.296   7.347
 2974POPC   NC340007  35.593  32.734   5.447
 2974POPC   PO440008  35.087  33.180   5.473
 2974POPC   GL140009  35.255  32.935   5.774
 2974POPC   GL240010  35.590  33.075   5.835
 2974POPC   C1A40011  35.338  32.822   6.191
 2974POPC   D2A40012  35.179  32.923   6.566
 2974POPC   C3A40013  35.403  33.118   6.887
 2974POPC   C4A40014  35.334  32.913   7.278
 2974POPC   C1B40015  35.845  33.341   6.089
 2974POPC   C2B40016  35.894  33.203   6.482
 2974POPC   C3B40017  35.916  33.304   6.882
 2974POPC   C4B40018  35.772  33.174   7.266
 2975POPC   NC340019  10.940  13.370   5.510
 2975POPC   PO440020  11.401  13.927   5.433
 2975POPC   GL140021  11.368  13.658   5.790
 2975POPC   GL240022  11.435  13.311   5.643
 2975POPC   C1A40023  11.350  13.887   6.213
 2975POPC   D2A40024  11.633  14.071   6.550
 2975POPC   C3A40025  11.498  13.925   6.959
 2975POPC   C4A40026  11.378  13.501   7.039
 2975POPC   C1B40027  11.270  13.178   6.074
 2975POPC   C2B40028  11.224  13.315   6.518
 2975POPC   C3B40029  11.000  13.191   6.885
 2975POPC   C4B40030  10.933  13.403   7.254
 2976POPC   NC340031  25.082   6.266   5.644
 2976POPC   PO440032  25.338   5.675   5.335
 2976POPC   GL140033  25.346   5.841   5.760
 2976POPC   GL240034  24.977   5.769   5.823
 2976POPC   C1A40035  25.294   5.911   6.210
 2976POPC   D2A40036  25.246   5.657   6.580
 2976POPC   C3A40037  25.167   5.985   6.811
 2976POPC   C4A40038  25.366   6.061   7.154
 2976POPC   C1B40039  24.880   5.551   6.242
 2976POPC   C2B40040  24.762   5.555   6.703
 2976POPC   C3B40041  24.979   5.621   7.117
 2976POPC   C4B40042  25.381   5.486   7.200
 2977POPC   NC340043  22.804   7.319   5.005
 2977POPC   PO440044  23.149   7.262   5.547
 2977POPC   GL140045  23.053   7.391   5.947
 2977POPC   GL240046  22.720   7.481   5.955
 2977POPC   C1A40047  23.166   7.258   6.378
 2977POPC   D2A40048  23.323   7.143   6.780
 2977POPC   C3A40049  23.042   7.103   7.105
 2977POPC   C4A40050  22.671   7.018   7.316
 2977POPC   C1B40051  22.832   7.659   6.362
 2977POPC   C2B40052  22.925   7.501   6.806
 2977POPC   C3B40053  23.081   7.603   7.247
 2977POPC   C4B40054  22.983   7.737   7.666
 2978POPC   NC340055   7.523  12.474   5.653
 2978POPC   PO440056   7.226  13.115   5.449
 2978POPC   GL140057   7.203  13.044   5.880
 2978POPC   GL240058   7.222  12.712   5.979
 2978POPC   C1A40059   7.512  13.047   6.236
 2978POPC   D2A40060   7.620  12.820   6.599
 2978POPC   C3A40061   7.537  13.003   6.982
 2978POPC   C4A40062   7.150  12.931   7.154
 2978POPC   C1B40063   7.037  12.480   6.308
 2978POPC   C2B40064   7.339  12.363   6.592
 2978POPC   C3B40065   7.402  12.510   6.987
 2978POPC   C4B40066   7.126  12.405   7.293
 2979POPC   NC340067  30.323  35.232   5.330
 2979POPC   PO440068  30.917  35.553   5.395
 2979POPC   GL140069  30.683  35.304   5.710
 2979POPC   GL240070  30.403  35.484   5.801
 2979POPC   C1A40071  30.501  35.123   6.119
 2979POPC   D2A40072  30.407  35.342   6.503
 2979POPC   C3A40073  30.714  35.246   6.810
 2979POPC   C4A40074  30.714  35.092   7.235
 2979POPC   C1B40075  30.238  35.730   6.135
 2979POPC   C2B40076  30.260  35.900   6.537
 2979POPC   C3B40077  30.210  35.863   6.992
 2979POPC   C4B40078  30.467  35.548   7.145
 2980POPC   NC340079  21.521  17.842   5.371
 2980POPC   PO440080  21.172  17.217   5.363
 2980POPC   GL140081  21.409  17.437   5.699
 2980POPC   GL240082  21.633  17.174   5.785
 2980POPC   C1A40083  21.427  17.625   6.148
 2980POPC   D2A40084  21.210  17.615   6.582
 2980POPC   C3A40085  21.366  17.699   6.982
 2980POPC   C4A40086  21.676  17.797   7.304
 2980POPC   C1B40087  21.279  17.136   6.089
 2980POPC   C2B40088  21.278  17.116   6.533
 2980POPC   C3B40089  21.151  17.110   6.969
 2980POPC   C4B40090  21.276  17.343   7.342
 2981POPC   NC340091  32.963  36.542   5.328
 2981POPC   PO440092  33.129  37.224   5.404
 2981POPC   GL140093  33.135  37.063   5.839
 2981POPC   GL240094  33.292  36.759   5.704
 2981POPC   C1A40095  33.053  37.067   6.323
 2981POPC   D2A40096  33.273  36.980   6.725
 2981POPC   C3A40097  33.007  36.912   7.102
 2981POPC   C4A40098  32.829  37.227   7.379
 2981POPC   C1B40099  33.248  36.628   6.130
 2981POPC   C2B40100  33.030  36.571   6.538
 2981POPC   C3B40101  33.177  36.451   6.947
 2981POPC   C4B40102  33.344  36.567   7.369
 2982POPC   NC340103  15.675   6.996   5.438
 2982POPC   PO440104  16.165   7.445   5.265
 2982POPC   GL140105  15.961   7.369   5.669
 2982POPC   GL240106  15.722   7.625   5.757
 2982POPC   C1A40107  16.014   7.300   6.110
 2982POPC   D2A40108  15.786   7.271   6.492
 2982POPC   C3A40109  15.963   7.277   6.894
 2982POPC   C4A40110  16.075   7.469   7.292
 2982POPC   C1B40111  15.624   7.635   6.168
 2982POPC   C2B40112  15.765   7.858   6.530
 2982POPC   C3B40113  15.769   7.736   6.946
 2982POPC   C4B40114  15.584   7.447   7.239
 2983POPC   NC340115  32.185  44.443   5.681
 2983POPC   PO440116  32.618  44.825   5.562
 2983POPC   GL140117  32.414  44.792   5.941
 2983POPC   GL240118  32.045  44.907   5.834
 2983POPC   C1A40119  32.527  44.596   6.315
 2983POPC   D2A40120  32.327  44.303   6.575
 2983POPC   C3A40121  32.282  44.522   6.966
 2983POPC   C4A40122  32.529  44.719   7.270
 2983POPC   C1B40123  32.055  44.998   6.250
 2983POPC   C2B40124  31.898  44.856   6.593
 2983POPC   C3B40125  31.951  44.918   6.995
 2983POPC   C4B40126  32.028  44.840   7.398
 2984POPC   NC340127  40.817   6.287   5.374
 2984POPC   PO440128  40.543   6.947   5.410
 2984POPC   GL140129  40.803   6.839   5.799
 2984POPC   GL240130  40.807   6.475   5.849
 2984POPC   C1A40131  40.784   6.784   6.278
 2984POPC   D2A40132  40.657   6.901   6.711
 2984POPC   C3A40133  40.687   6.646   7.085
 2984POPC   C4A40134  40.871   6.701   7.483
 2984POPC   C1B40135  41.059   6.362   6.211
 2984POPC   C2B40136  40.930   6.426   6.654
 2984POPC   C3B40137  40.859   6.156   7.040
 2984POPC   C4B40138  40.751   6.195   7.465
 2985POPC   NC340139  21.077  29.234   5.022
 2985POPC   PO440140  21.486  29.042   5.575
 2985POPC   GL140141  21.418  29.142   5.974
 2985POPC   GL240142  21.119  29.018   6.013
 2985POPC   C1A40143  21.565  29.163   6.392
 2985POPC   D2A40144  21.629  29.313   6.803
 2985POPC   C3A40145  21.433  29.217   7.198
 2985POPC   C4A40146  21.310  29.382   7.638
 2985POPC   C1B40147  21.230  28.774   6.341
 2985POPC   C2B40148  21.272  28.921   6.746
 2985POPC   C3B40149  21.057  28.844   7.077
 2985POPC   C4B40150  21.152  28.473   7.306
 2986POPC   NC340151  40.168  39.895   5.510
 2986POPC   PO440152  40.116  40.526   5.590
 2986POPC   GL140153  39.904  40.204   5.838
 2986POPC   GL240154  39.865  39.809   5.918
 2986POPC   C1A40155  39.928  40.188   6.257
 2986POPC   D2A40156  39.807  39.954   6.560
 2986POPC   C3A40157  39.809  40.237   6.903
 2986POPC   C4A40158  39.889  39.979   7.249
 2986POPC   C1B40159  40.150  39.674   6.265
 2986POPC   C2B40160  40.287  39.459   6.633
 2986POPC   C3B40161  40.255  39.668   7.035
 2986POPC   C4B40162  40.347  39.807   7.441
 2987POPC   NC340163  23.082  20.186   5.280
 2987POPC   PO440164  22.676  19.654   5.447
 2987POPC   GL140165  23.058  19.781   5.688
 2987POPC   GL240166  22.924  20.112   5.767
 2987POPC   C1A40167  23.197  19.747   6.148
 2987POPC   D2A40168  23.163  19.616   6.612
 2987POPC   C3A40169  22.802  19.719   6.926
 2987POPC   C4A40170  22.846  19.800   7.376
 2987POPC   C1B40171  22.707  19.902   6.081
 2987POPC   C2B40172  22.650  19.951   6.494
 2987POPC   C3B40173  22.633  20.237   6.838
 2987POPC   C4B40174  22.505  20.155   7.249
 2988POPC   NC340175   3.722   1.855   5.464
 2988POPC   PO440176   3.473   2.528   5.395
 2988POPC   GL140177   3.383   2.250   5.755
 2988POPC   GL240178   3.730   2.148   5.866
 2988POPC   C1A40179   3.357   1.940   6.119
 2988POPC   D2A40180   3.466   1.701   6.479
 2988POPC   C3A40181   3.458   1.796   6.910
 2988POPC   C4A40182   3.167   1.576   7.208
 2988POPC   C1B40183   3.866   1.873   6.198
 2988POPC   C2B40184   3.924   1.969   6.623
 2988POPC   C3B40185   3.788   2.275   6.890
 2988POPC   C4B40186   3.589   2.154   7.240
 2989POPC   NC340187  16.905   5.518   5.414
 2989POPC   PO440188  16.737   6.151   5.419
 2989POPC   GL140189  16.740   5.978   5.833
 2989POPC   GL240190  16.908   5.678   5.920
 2989POPC   C1A40191  16.680   6.215   6.203
 2989POPC   D2A40192  16.894   6.300   6.610
 2989POPC   C3A40193  16.824   6.127   7.043
 2989POPC   C4A40194  16.650   6.058   7.485
 2989POPC   C1B40195  16.820   5.784   6.383
 2989POPC   C2B40196  16.623   5.723   6.792
 2989POPC   C3B40197  16.740   5.639   7.227
 2989POPC   C4B40198  16.994   5.613   7.607
 2990POPC   NC340199  39.704  39.361   5.604
 2990POPC   PO440200  39.134  39.423   5.292
 2990POPC   GL140201  39.179  39.384   5.792
 2990POPC   GL240202  39.474  39.438   6.028
 2990POPC   C1A40203  38.998  39.451   6.243
 2990POPC   D2A40204  38.855  39.468   6.680
 2990POPC   C3A40205  39.111  39.499   7.025
 2990POPC   C4A40206  39.098  39.243   7.373
 2990POPC   C1B40207  39.351  39.068   6.247
 2990POPC   C2B40208  39.311  39.200   6.654
 2990POPC   C3B40209  39.467  39.127   7.026
 2990POPC   C4B40210  39.332  38.807   7.236
 2991POPC   NC340211  35.202  16.306   5.274
 2991POPC   PO440212  35.594  15.827   5.570
 2991POPC   GL140213  35.317  15.848   5.899
 2991POPC   GL240214  35.117  15.552   5.979
 2991POPC   C1A40215  35.033  16.033   6.182
 2991POPC   D2A40216  34.960  16.210   6.567
 2991POPC   C3A40217  35.097  16.002   6.935
 2991POPC   C4A40218  35.522  15.966   7.054
 2991POPC   C1B40219  35.416  15.546   6.293
 2991POPC   C2B40220  35.355  15.636   6.681
 2991POPC   C3B40221  35.185  15.499   7.035
 2991POPC   C4B40222  35.505  15.528   7.310
 2992POPC   NC340223   4.896  29.550   5.392
 2992POPC   PO440224   5.117  30.155   5.455
 2992POPC   GL140225   4.981  30.094   5.866
 2992POPC   GL240226   4.728  29.864   5.805
 2992POPC   C1A40227   4.904  29.965   6.309
 2992POPC   D2A40228   5.065  29.745   6.678
 2992POPC   C3A40229   5.064  29.981   7.030
 2992POPC   C4A40230   5.390  30.049   7.251
 2992POPC   C1B40231   4.625  29.561   6.144
 2992POPC   C2B40232   4.572  29.648   6.602
 2992POPC   C3B40233   4.697  29.624   7.044
 2992POPC   C4B40234   4.723  29.635   7.510
 2993POPC   NC340235   5.272   4.972   5.452
 2993POPC   PO440236   4.655   4.743   5.413
 2993POPC   GL140237   4.840   4.854   5.791
 2993POPC   GL240238   4.918   5.209   5.823
 2993POPC   C1A40239   4.933   4.749   6.221
 2993POPC   D2A40240   4.861   5.029   6.579
 2993POPC   C3A40241   4.762   4.799   6.905
 2993POPC   C4A40242   4.914   4.815   7.280
 2993POPC   C1B40243   5.172   5.196   6.203
 2993POPC   C2B40244   5.368   4.925   6.539
 2993POPC   C3B40245   5.289   4.999   6.955
 2993POPC   C4B40246   5.049   5.348   7.094
 2994POPC   NC340247  31.124  40.288   5.183
 2994POPC   PO440248  30.856  39.746   5.413
 2994POPC   GL140249  30.668  39.825   5.807
 2994POPC   GL240250  30.474  40.093   5.808
 2994POPC   C1A40251  30.712  39.777   6.242
 2994POPC   D2A40252  30.610  39.964   6.610
 2994POPC   C3A40253  30.942  39.977   6.901
 2994POPC   C4A40254  30.884  40.069   7.319
 2994POPC   C1B40255  30.274  40.097   6.200
 2994POPC   C2B40256  30.225  40.317   6.586
 2994POPC   C3B40257  30.254  40.063   6.964
 2994POPC   C4B40258  30.366  40.187   7.359
 2995POPC   NC340259  18.131  17.609   5.345
 2995POPC   PO440260  18.785  17.569   5.355
 2995POPC   GL140261  18.455  17.741   5.724
 2995POPC   GL240262  18.034  17.769   5.805
 2995POPC   C1A40263  18.389  17.763   6.186
 2995POPC   D2A40264  18.290  17.946   6.593
 2995POPC   C3A40265  18.315  17.675   6.977
 2995POPC   C4A40266  18.507  17.277   7.177
 2995POPC   C1B40267  17.866  17.748   6.241
 2995POPC   C2B40268  17.779  17.885   6.678
 2995POPC   C3B40269  17.762  17.716   7.115
 2995POPC   C4B40270  18.036  17.413   7.326
 2996POPC   NC340271   6.290   4.968   5.292
 2996POPC   PO440272   5.643   5.142   5.227
 2996POPC   GL140273   5.730   5.061   5.683
 2996POPC   GL240274   5.481   5.305   5.816
 2996POPC   C1A40275   6.005   4.917   6.049
 2996POPC   D2A40276   6.139   5.105   6.466
 2996POPC   C3A40277   5.851   5.038   6.818
 2996POPC   C4A40278   5.903   4.922   7.240
 2996POPC   C1B40279   5.668   5.242   6.274
 2996POPC   C2B40280   5.529   5.422   6.692
 2996POPC   C3B40281   5.559   5.392   7.158
 2996POPC   C4B40282   5.643   5.188   7.584
 2997POPC   NC340283   2.857   5.856   5.348
 2997POPC   PO440284   3.323   5.432   5.628
 2997POPC   GL140285   2.979   5.724   5.907
 2997POPC   GL240286   2.635   5.884   5.804
 2997POPC   C1A40287   3.094   5.896   6.361
 2997POPC   D2A40288   2.931   6.226   6.662
 2997POPC   C3A40289   2.865   6.081   7.073
 2997POPC   C4A40290   2.934   5.659   7.122
 2997POPC   C1B40291   2.618   5.967   6.230
 2997POPC   C2B40292   2.682   5.766   6.636
 2997POPC   C3B40293   2.398   5.637   6.925
 2997POPC   C4B40294   2.481   5.771   7.305
 2998POPC   NC340295  16.351   8.233   5.556
 2998POPC   PO440296  16.978   8.054   5.448
 2998POPC   GL140297  16.814   8.213   5.808
 2998POPC   GL240298  16.644   7.908   5.833
 2998POPC   C1A40299  16.712   8.253   6.233
 2998POPC   D2A40300  16.929   8.221   6.619
 2998POPC   C3A40301  16.945   8.542   6.918
 2998POPC   C4A40302  16.881   8.445   7.330
 2998POPC   C1B40303  16.966   7.774   6.121
 2998POPC   C2B40304  17.034   7.717   6.563
 2998POPC   C3B40305  16.907   7.827   6.964
 2998POPC   C4B40306  16.583   8.135   7.038
 2999POPC   NC340307  31.495  21.621   5.298
 2999POPC   PO440308  31.514  20.956   5.326
 2999POPC   GL140309  31.669  21.278   5.651
 2999POPC   GL240310  31.350  21.459   5.754
 2999POPC   C1A40311  31.857  21.533   6.032
 2999POPC   D2A40312  31.777  21.611   6.504
 2999POPC   C3A40313  31.819  21.248   6.791
 2999POPC   C4A40314  31.509  21.154   7.122
 2999POPC   C1B40315  31.074  21.662   6.038
 2999POPC   C2B40316  31.187  21.639   6.474
 2999POPC   C3B40317  31.210  21.485   6.886
 2999POPC   C4B40318  31.269  21.562   7.336
 3000POPC   NC340319  14.994  25.409   5.387
 3000POPC   PO440320  15.448  24.986   5.258
 3000POPC   GL140321  15.299  25.229   5.727
 3000POPC   GL240322  15.121  25.556   5.844
 3000POPC   C1A40323  14.940  25.162   6.092
 3000POPC   D2A40324  15.091  25.104   6.508
 3000POPC   C3A40325  15.050  25.282   6.885
 3000POPC   C4A40326  15.136  25.066   7.254
 3000POPC   C1B40327  15.206  25.549   6.280
 3000POPC   C2B40328  15.341  25.665   6.695
 3000POPC   C3B40329  15.331  25.619   7.140
 3000POPC   C4B40330  14.965  25.518   7.421
 3001POPC   NC340331   2.444  18.826   5.277
 3001POPC   PO440332   2.934  19.289   5.359
 3001POPC   GL140333   2.719  19.056   5.706
 3001POPC   GL240334   2.506  18.750   5.775
 3001POPC   C1A40335   2.632  19.087   6.143
 3001POPC   D2A40336   2.835  18.933   6.510
 3001POPC   C3A40337   2.760  19.097   6.848
 3001POPC   C4A40338   3.033  19.102   7.156
 3001POPC   C1B40339   2.628  18.577   6.209
 3001POPC   C2B40340   2.468  18.620   6.685
 3001POPC   C3B40341   2.500  18.773   7.130
 3001POPC   C4B40342   2.486  18.657   7.579
 3002POPC   NC340343   3.223  30.854   5.485
 3002POPC   PO440344   3.890  30.632   5.534
 3002POPC   GL140345   3.598  30.750   5.843
 3002POPC   GL240346   3.325  30.456   5.810
 3002POPC   C1A40347   3.717  30.905   6.276
 3002POPC   D2A40348   3.799  30.692   6.689
 3002POPC   C3A40349   3.580  30.826   7.076
 3002POPC   C4A40350   3.441  30.662   7.466
 3002POPC   C1B40351   3.275  30.641   6.231
 3002POPC   C2B40352   3.255  30.748   6.677
 3002POPC   C3B40353   3.236  30.429   7.007
 3002POPC   C4B40354   3.006  30.379   7.387
 3003POPC   NC340355  16.683  37.352   5.438
 3003POPC   PO440356  17.045  37.905   5.328
 3003POPC   GL140357  16.839  37.755   5.705
 3003POPC   GL240358  17.013  37.443   5.836
 3003POPC   C1A40359  16.585  37.739   6.103
 3003POPC   D2A40360  16.406  37.447   6.433
 3003POPC   C3A40361  16.503  37.389   6.885
 3003POPC   C4A40362  16.650  37.316   7.296
 3003POPC   C1B40363  17.012  37.521   6.292
 3003POPC   C2B40364  16.858  37.697   6.676
 3003POPC   C3B40365  16.875  37.733   7.129
 3003POPC   C4B40366  16.994  38.034   7.446
 3004POPC   NC340367  41.313  43.294   5.403
 3004POPC   PO440368  41.690  42.768   5.340
 3004POPC   GL140369  41.649  43.035   5.705
 3004POPC   GL240370  41.310  43.031   5.822
 3004POPC   C1A40371  41.738  43.250   6.081
 3004POPC   D2A40372  41.874  43.128   6.472
 3004POPC   C3A40373  41.818  43.356   6.826
 3004POPC   C4A40374  41.789  43.192   7.238
 3004POPC   C1B40375  41.230  43.385   6.086
 3004POPC   C2B40376  41.259  43.381   6.526
 3004POPC   C3B40377  41.349  43.158   6.911
 3004POPC   C4B40378  41.293  43.374   7.285
 3005POPC   NC340379  41.282   5.401   5.363
 3005POPC   PO440380  40.595   5.253   5.252
 3005POPC   GL140381  40.781   5.280   5.631
 3005POPC   GL240382  41.058   5.047   5.662
 3005POPC   C1A40383  40.611   5.473   6.019
 3005POPC   D2A40384  40.599   5.597   6.436
 3005POPC   C3A40385  40.643   5.278   6.747
 3005POPC   C4A40386  40.660   5.035   7.121
 3005POPC   C1B40387  41.112   5.367   6.009
 3005POPC   C2B40388  41.063   5.378   6.460
 3005POPC   C3B40389  41.138   5.232   6.918
 3005POPC   C4B40390  41.126   4.992   7.319
 3006POPC   NC340391  38.155  15.348   5.690
 3006POPC   PO440392  38.691  15.135   5.270
 3006POPC   GL140393  38.556  15.042   5.734
 3006POPC   GL240394  38.598  15.360   5.925
 3006POPC   C1A40395  38.333  14.987   6.193
 3006POPC   D2A40396  38.411  15.061   6.639
 3006POPC   C3A40397  38.344  14.862   7.044
 3006POPC   C4A40398  38.604  14.885   7.382
 3006POPC   C1B40399  38.354  15.508   6.307
 3006POPC   C2B40400  38.066  15.419   6.662
 3006POPC   C3B40401  38.254  15.366   7.078
 3006POPC   C4B40402  38.077  15.346   7.516
 3007POPC   NC340403   6.390  24.614   5.386
 3007POPC   PO440404   6.997  24.246   5.087
 3007POPC   GL140405   6.759  24.238   5.563
 3007POPC   GL240406   6.790  24.591   5.709
 3007POPC   C1A40407   6.630  24.166   6.062
 3007POPC   D2A40408   6.637  24.007   6.557
 3007POPC   C3A40409   6.565  24.309   6.929
 3007POPC   C4A40410   6.450  24.775   6.995
 3007POPC   C1B40411   6.904  24.622   6.137
 3007POPC   C2B40412   6.741  24.753   6.543
 3007POPC   C3B40413   6.944  24.678   6.931
 3007POPC   C4B40414   6.806  24.556   7.340
 3008POPC   NC340415  34.852  33.587   5.446
 3008POPC   PO440416  34.447  34.183   5.574
 3008POPC   GL140417  34.738  33.941   5.805
 3008POPC   GL240418  34.570  33.607   5.867
 3008POPC   C1A40419  34.925  33.846   6.212
 3008POPC   D2A40420  34.733  33.710   6.606
 3008POPC   C3A40421  34.654  33.874   7.019
 3008POPC   C4A40422  34.831  33.550   7.308
 3008POPC   C1B40423  34.393  33.796   6.236
 3008POPC   C2B40424  34.226  33.813   6.663
 3008POPC   C3B40425  34.130  33.937   7.060
 3008POPC   C4B40426  34.201  33.787   7.426
 3009POPC   NC340427   8.625  10.047   5.509
 3009POPC   PO440428   9.133  10.246   5.813
 3009POPC   GL140429   8.847   9.868   5.939
 3009POPC   GL240430   9.099   9.589   6.076
 3009POPC   C1A40431   8.661   9.630   6.312
 3009POPC   D2A40432   8.984   9.446   6.598
 3009POPC   C3A40433   8.901   9.584   7.024
 3009POPC   C4A40434   8.661   9.974   7.105
 3009POPC   C1B40435   9.057   9.940   6.395
 3009POPC   C2B40436   9.370  10.172   6.550
 3009POPC   C3B40437   9.568  10.003   6.906
 3009POPC   C4B40438   9.293   9.949   7.250
 3010POPC   NC340439  39.264  40.984   4.958
 3010POPC   PO440440  39.177  40.414   5.266
 3010POPC   GL140441  39.113  40.693   5.634
 3010POPC   GL240442  39.384  40.850   5.805
 3010POPC   C1A40443  39.013  40.698   6.115
 3010POPC   D2A40444  38.942  40.503   6.542
 3010POPC   C3A40445  38.965  40.744   6.924
 3010POPC   C4A40446  39.013  40.843   7.364
 3010POPC   C1B40447  39.459  40.946   6.250
 3010POPC   C2B40448  39.434  40.753   6.667
 3010POPC   C3B40449  39.614  40.748   7.088
 3010POPC   C4B40450  39.501  40.976   7.475
 3011POPC   NC340451   3.725  20.978   5.569
 3011POPC   PO440452   3.092  20.791   5.427
 3011POPC   GL140453   3.355  20.627   5.758
 3011POPC   GL240454   3.341  20.259   5.786
 3011POPC   C1A40455   3.376  20.817   6.180
 3011POPC   D2A40456   3.211  20.698   6.586
 3011POPC   C3A40457   3.572  20.629   6.857
 3011POPC   C4A40458   3.695  20.892   7.210
 3011POPC   C1B40459   3.409  20.293   6.245
 3011POPC   C2B40460   3.194  20.201   6.633
 3011POPC   C3B40461   3.278  20.221   7.078
 3011POPC   C4B40462   3.557  20.434   7.335
 3012POPC   NC340463  29.773  42.341   5.444
 3012POPC   PO440464  29.554  42.998   5.562
 3012POPC   GL140465  29.641  42.602   5.882
 3012POPC   GL240466  30.006  42.426   5.884
 3012POPC   C1A40467  29.761  42.377   6.331
 3012POPC   D2A40468  29.731  42.222   6.771
 3012POPC   C3A40469  29.971  42.369   7.083
 3012POPC   C4A40470  29.765  42.645   7.393
 3012POPC   C1B40471  30.156  42.093   6.176
 3012POPC   C2B40472  30.253  42.183   6.605
 3012POPC   C3B40473  30.410  42.107   7.007
 3012POPC   C4B40474  30.245  42.051   7.424
 3013POPC   NC340475  38.429  41.360   5.359
 3013POPC   PO440476  38.876  41.777   5.562
 3013POPC   GL140477  38.575  41.508   5.840
 3013POPC   GL240478  38.201  41.400   5.805
 3013POPC   C1A40479  38.455  41.413   6.266
 3013POPC   D2A40480  38.271  41.638   6.610
 3013POPC   C3A40481  38.570  41.766   6.927
 3013POPC   C4A40482  38.692  41.607   7.306
 3013POPC   C1B40483  37.950  41.367   6.160
 3013POPC   C2B40484  37.928  41.221   6.562
 3013POPC   C3B40485  38.146  41.250   6.933
 3013POPC   C4B40486  38.112  41.451   7.292
 3014POPC   NC340487   1.755  21.948   5.292
 3014POPC   PO440488   1.086  22.303   5.332
 3014POPC   GL140489   1.250  22.362   5.746
 3014POPC   GL240490   1.450  22.055   5.755
 3014POPC   C1A40491   1.343  22.374   6.201
 3014POPC   D2A40492   1.569  22.186   6.534
 3014POPC   C3A40493   1.286  22.198   6.820
 3014POPC   C4A40494   1.225  22.097   7.216
 3014POPC   C1B40495   1.051  21.973   6.031
 3014POPC   C2B40496   0.891  22.141   6.436
 3014POPC   C3B40497   0.773  22.159   6.867
 3014POPC   C4B40498   0.923  22.493   7.119
 3015POPC   NC340499   5.041   0.559   5.343
 3015POPC   PO440500   5.416   0.049   5.393
 3015POPC   GL140501   5.184   0.306   5.768
 3015POPC   GL240502   5.086   0.693   5.842
 3015POPC   C1A40503   5.322   0.426   6.209
 3015POPC   D2A40504   5.507   0.646   6.551
 3015POPC   C3A40505   5.271   0.584   6.935
 3015POPC   C4A40506   5.356   0.351   7.303
 3015POPC   C1B40507   4.900   0.715   6.250
 3015POPC   C2B40508   4.697   0.739   6.651
 3015POPC   C3B40509   4.769   0.610   7.100
 3015POPC   C4B40510   5.033   0.758   7.467
 3016POPC   NC340511  25.346  13.248   5.461
 3016POPC   PO440512  25.040  12.676   5.357
 3016POPC   GL140513  25.026  12.661   5.771
 3016POPC   GL240514  25.344  12.734   5.822
 3016POPC   C1A40515  24.978  12.777   6.187
 3016POPC   D2A40516  25.151  12.879   6.577
 3016POPC   C3A40517  25.223  12.626   6.952
 3016POPC   C4A40518  25.025  12.988   7.159
 3016POPC   C1B40519  25.500  12.724   6.221
 3016POPC   C2B40520  25.658  12.861   6.603
 3016POPC   C3B40521  25.499  13.046   6.942
 3016POPC   C4B40522  25.579  12.896   7.301
 3017POPC   NC340523   3.126   0.065   5.312
 3017POPC   PO440524   3.473   0.611   5.231
 3017POPC   GL140525   3.533   0.273   5.605
 3017POPC   GL240526   3.470   0.565   5.814
 3017POPC   C1A40527   3.539   0.167   6.100
 3017POPC   D2A40528   3.470   0.501   6.463
 3017POPC   C3A40529   3.561   0.394   6.878
 3017POPC   C4A40530   3.603   0.191   7.254
 3017POPC   C1B40531   3.648   0.844   6.136
 3017POPC   C2B40532   3.683   0.978   6.559
 3017POPC   C3B40533   3.801   0.901   6.961
 3017POPC   C4B40534   3.648   0.695   7.311
 3018POPC   NC340535  34.657  13.317   5.340
 3018POPC   PO440536  34.127  13.677   5.562
 3018POPC   GL140537  34.498  13.605   5.773
 3018POPC   GL240538  34.653  13.922   5.830
 3018POPC   C1A40539  34.617  13.496   6.194
 3018POPC   D2A40540  34.209  13.636   6.417
 3018POPC   C3A40541  34.211  13.770   6.833
 3018POPC   C4A40542  34.483  13.558   7.130
 3018POPC   C1B40543  34.536  13.985   6.217
 3018POPC   C2B40544  34.664  13.834   6.609
 3018POPC   C3B40545  34.688  14.012   6.993
 3018POPC   C4B40546  34.347  14.044   7.246
 3019POPC   NC340547   1.932  19.689   5.319
 3019POPC   PO440548   2.491  20.008   5.591
 3019POPC   GL140549   2.085  19.973   5.738
 3019POPC   GL240550   1.846  20.226   5.638
 3019POPC   C1A40551   2.092  19.863   6.172
 3019POPC   D2A40552   2.295  19.985   6.562
 3019POPC   C3A40553   2.108  19.811   6.928
 3019POPC   C4A40554   1.774  19.688   7.186
 3019POPC   C1B40555   1.695  20.155   6.064
 3019POPC   C2B40556   1.772  20.126   6.517
 3019POPC   C3B40557   1.725  20.161   6.971
 3019POPC   C4B40558   1.986  20.125   7.340
 3020POPC   NC340559  27.187  37.476   5.485
 3020POPC   PO440560  26.662  37.964   5.500
 3020POPC   GL140561  26.930  37.849   5.818
 3020POPC   GL240562  26.804  37.534   5.901
 3020POPC   C1A40563  26.968  37.888   6.269
 3020POPC   D2A40564  26.784  37.721   6.590
 3020POPC   C3A40565  26.974  37.700   6.934
 3020POPC   C4A40566  26.643  37.555   7.164
 3020POPC   C1B40567  27.224  37.496   6.107
 3020POPC   C2B40568  27.246  37.388   6.493
 3020POPC   C3B40569  27.268  37.256   6.880
 3020POPC   C4B40570  27.151  37.384   7.283
 3021POPC   NC340571  17.115  35.958   5.254
 3021POPC   PO440572  16.508  36.251   5.436
 3021POPC   GL140573  16.613  36.191   5.832
 3021POPC   GL240574  16.956  36.194   5.712
 3021POPC   C1A40575  16.510  36.050   6.267
 3021POPC   D2A40576  16.442  35.747   6.623
 3021POPC   C3A40577  16.339  35.980   7.003
 3021POPC   C4A40578  16.571  36.388   7.123
 3021POPC   C1B40579  17.028  36.154   6.141
 3021POPC   C2B40580  16.896  36.223   6.568
 3021POPC   C3B40581  16.868  35.976   6.926
 3021POPC   C4B40582  16.971  36.129   7.303
 3022POPC   NC340583  10.392  30.387   5.084
 3022POPC   PO440584  10.274  29.852   5.470
 3022POPC   GL140585  10.522  29.958   5.809
 3022POPC   GL240586  10.835  29.792   5.774
 3022POPC   C1A40587  10.396  29.929   6.228
 3022POPC   D2A40588  10.289  30.126   6.619
 3022POPC   C3A40589  10.268  29.830   6.946
 3022POPC   C4A40590  10.517  29.809   7.292
 3022POPC   C1B40591  10.909  29.991   6.152
 3022POPC   C2B40592  10.797  30.156   6.536
 3022POPC   C3B40593  10.935  30.103   6.947
 3022POPC   C4B40594  10.754  30.261   7.317
 3023POPC   NC340595  30.893  40.972   5.275
 3023POPC   PO440596  30.557  41.529   5.241
 3023POPC   GL140597  30.546  41.441   5.685
 3023POPC   GL240598  30.554  41.072   5.650
 3023POPC   C1A40599  30.540  41.609   6.126
 3023POPC   D2A40600  30.391  41.704   6.575
 3023POPC   C3A40601  30.689  41.602   6.889
 3023POPC   C4A40602  30.728  41.816   7.269
 3023POPC   C1B40603  30.500  41.078   6.084
 3023POPC   C2B40604  30.502  41.227   6.495
 3023POPC   C3B40605  30.303  41.227   6.879
 3023POPC   C4B40606  30.574  41.234   7.245
 3024POPC   NC340607  14.854  14.054   5.602
 3024POPC   PO440608  14.692  14.695   5.345
 3024POPC   GL140609  14.420  14.616   5.767
 3024POPC   GL240610  14.504  14.307   5.968
 3024POPC   C1A40611  14.338  14.698   6.246
 3024POPC   D2A40612  14.179  14.498   6.650
 3024POPC   C3A40613  14.331  14.705   7.063
 3024POPC   C4A40614  14.345  14.581   7.519
 3024POPC   C1B40615  14.655  14.228   6.383
 3024POPC   C2B40616  14.654  14.399   6.785
 3024POPC   C3B40617  14.565  14.249   7.195
 3024POPC   C4B40618  14.826  14.250   7.581
 3025POPC   NC340619  15.625  41.901   5.177
 3025POPC   PO440620  16.060  41.505   5.459
 3025POPC   GL140621  16.229  41.535   5.872
 3025POPC   GL240622  16.480  41.784   5.815
 3025POPC   C1A40623  16.081  41.477   6.323
 3025POPC   D2A40624  15.824  41.375   6.707
 3025POPC   C3A40625  15.899  41.657   7.072
 3025POPC   C4A40626  15.713  41.624   7.501
 3025POPC   C1B40627  16.544  41.691   6.247
 3025POPC   C2B40628  16.483  41.465   6.638
 3025POPC   C3B40629  16.423  41.648   7.047
 3025POPC   C4B40630  16.252  41.773   7.467
 3026POPC   NC340631   8.567   1.473   5.163
 3026POPC   PO440632   8.036   1.509   5.660
 3026POPC   GL140633   8.209   1.222   5.843
 3026POPC   GL240634   8.465   1.038   5.627
 3026POPC   C1A40635   8.241   1.352   6.262
 3026POPC   D2A40636   8.000   1.228   6.574
 3026POPC   C3A40637   8.141   1.331   6.962
 3026POPC   C4A40638   7.977   1.394   7.344
 3026POPC   C1B40639   8.597   1.024   6.092
 3026POPC   C2B40640   8.446   0.969   6.525
 3026POPC   C3B40641   8.407   0.880   6.949
 3026POPC   C4B40642   8.518   1.096   7.284
 3027POPC   NC340643  23.880   1.206   5.289
 3027POPC   PO440644  23.415   1.568   5.404
 3027POPC   GL140645  23.688   1.400   5.751
 3027POPC   GL240646  23.746   1.026   5.749
 3027POPC   C1A40647  23.623   1.470   6.204
 3027POPC   D2A40648  23.433   1.393   6.618
 3027POPC   C3A40649  23.752   1.298   6.942
 3027POPC   C4A40650  23.880   1.497   7.321
 3027POPC   C1B40651  23.896   1.035   6.163
 3027POPC   C2B40652  23.691   0.956   6.553
 3027POPC   C3B40653  23.525   0.792   6.918
 3027POPC   C4B40654  23.584   0.976   7.294
 3028POPC   NC340655  35.637   8.717   5.317
 3028POPC   PO440656  35.135   9.178   5.443
 3028POPC   GL140657  35.235   8.908   5.816
 3028POPC   GL240658  35.419   8.620   5.763
 3028POPC   C1A40659  35.069   8.647   6.209
 3028POPC   D2A40660  35.153   8.526   6.677
 3028POPC   C3A40661  35.058   8.869   7.034
 3028POPC   C4A40662  35.274   9.147   7.379
 3028POPC   C1B40663  35.568   8.774   6.167
 3028POPC   C2B40664  35.445   8.949   6.581
 3028POPC   C3B40665  35.563   8.804   6.992
 3028POPC   C4B40666  35.937   8.619   7.192
 3029POPC   NC340667  42.828   6.529   5.368
 3029POPC   PO440668  42.114   6.532   5.327
 3029POPC   GL140669  42.128   6.506   5.754
 3029POPC   GL240670  42.496   6.511   5.824
 3029POPC   C1A40671  42.126   6.742   6.119
 3029POPC   D2A40672  42.334   6.741   6.480
 3029POPC   C3A40673  42.117   6.647   6.829
 3029POPC   C4A40674  42.307   6.632   7.198
 3029POPC   C1B40675  42.683   6.316   6.211
 3029POPC   C2B40676  42.732   6.464   6.638
 3029POPC   C3B40677  42.615   6.250   7.030
 3029POPC   C4B40678  42.466   5.996   7.365
 3030POPC   NC340679  31.810  15.168   5.522
 3030POPC   PO440680  31.251  15.106   5.382
 3030POPC   GL140681  31.430  14.870   5.763
 3030POPC   GL240682  31.809  14.828   5.906
 3030POPC   C1A40683  31.423  15.051   6.177
 3030POPC   D2A40684  31.379  14.944   6.573
 3030POPC   C3A40685  31.337  15.152   6.959
 3030POPC   C4A40686  31.464  14.959   7.345
 3030POPC   C1B40687  31.899  15.216   6.170
 3030POPC   C2B40688  31.734  15.315   6.617
 3030POPC   C3B40689  31.800  15.351   7.077
 3030POPC   C4B40690  31.528  15.465   7.458
 3031POPC   NC340691  25.700   5.997   5.404
 3031POPC   PO440692  26.319   5.743   5.517
 3031POPC   GL140693  26.281   6.078   5.793
 3031POPC   GL240694  25.951   5.976   5.849
 3031POPC   C1A40695  26.293   6.263   6.192
 3031POPC   D2A40696  26.076   6.238   6.581
 3031POPC   C3A40697  26.162   6.015   6.910
 3031POPC   C4A40698  26.373   6.096   7.278
 3031POPC   C1B40699  25.788   5.780   6.184
 3031POPC   C2B40700  25.681   5.915   6.586
 3031POPC   C3B40701  25.733   5.760   6.971
 3031POPC   C4B40702  25.837   5.982   7.317
 3032POPC   NC340703  19.934  18.717   5.394
 3032POPC   PO440704  20.194  18.150   5.181
 3032POPC   GL140705  19.991  18.204   5.658
 3032POPC   GL240706  19.666  18.014   5.764
 3032POPC   C1A40707  20.043  18.136   6.153
 3032POPC   D2A40708  20.009  17.839   6.558
 3032POPC   C3A40709  19.904  18.002   6.991
 3032POPC   C4A40710  19.853  18.428   7.116
 3032POPC   C1B40711  19.563  18.315   6.117
 3032POPC   C2B40712  19.609  18.500   6.527
 3032POPC   C3B40713  19.391  18.486   6.914
 3032POPC   C4B40714  19.429  18.186   7.237
 3033POPC   NC340715   1.399  11.318   5.389
 3033POPC   PO440716   1.061  10.700   5.301
 3033POPC   GL140717   1.254  11.001   5.736
 3033POPC   GL240718   1.380  10.900   6.077
 3033POPC   C1A40719   1.298  11.406   6.055
 3033POPC   D2A40720   1.431  11.509   6.510
 3033POPC   C3A40721   1.290  11.218   6.796
 3033POPC   C4A40722   1.262  11.281   7.223
 3033POPC   C1B40723   0.987  11.079   6.312
 3033POPC   C2B40724   0.666  11.061   6.652
 3033POPC   C3B40725   0.757  11.086   7.097
 3033POPC   C4B40726   0.968  11.006   7.509
 3034POPC   NC340727  38.799  42.201   5.393
 3034POPC   PO440728  38.162  42.310   5.364
 3034POPC   GL140729  38.289  42.152   5.789
 3034POPC   GL240730  38.659  42.225   5.871
 3034POPC   C1A40731  38.326  42.313   6.235
 3034POPC   D2A40732  38.583  42.106   6.536
 3034POPC   C3A40733  38.455  42.264   6.938
 3034POPC   C4A40734  38.225  42.021   7.249
 3034POPC   C1B40735  38.778  42.572   6.146
 3034POPC   C2B40736  38.629  42.601   6.569
 3034POPC   C3B40737  38.810  42.674   6.971
 3034POPC   C4B40738  38.613  42.674   7.350
 3035POPC   NC340739  34.019   9.001   5.585
 3035POPC   PO440740  33.417   8.729   5.546
 3035POPC   GL140741  33.605   8.848   5.896
 3035POPC   GL240742  33.620   9.207   5.856
 3035POPC   C1A40743  33.538   8.810   6.311
 3035POPC   D2A40744  33.757   8.929   6.627
 3035POPC   C3A40745  33.529   8.914   6.943
 3035POPC   C4A40746  33.653   8.720   7.263
 3035POPC   C1B40747  33.922   9.194   6.208
 3035POPC   C2B40748  34.174   9.222   6.598
 3035POPC   C3B40749  33.904   9.323   6.931
 3035POPC   C4B40750  33.805   9.206   7.315
 3036POPC   NC340751  36.310  40.481   5.425
 3036POPC   PO440752  36.854  40.059   5.461
 3036POPC   GL140753  36.905  39.980   5.890
 3036POPC   GL240754  36.679  39.705   5.914
 3036POPC   C1A40755  37.160  39.952   6.283
 3036POPC   D2A40756  37.470  39.672   6.530
 3036POPC   C3A40757  37.330  39.584   6.944
 3036POPC   C4A40758  37.035  39.874   7.154
 3036POPC   C1B40759  36.611  39.937   6.305
 3036POPC   C2B40760  36.842  40.203   6.610
 3036POPC   C3B40761  36.671  40.250   7.001
 3036POPC   C4B40762  36.517  39.814   7.101
 3037POPC   NC340763  36.406   7.746   5.106
 3037POPC   PO440764  35.981   7.308   5.438
 3037POPC   GL140765  36.291   7.497   5.751
 3037POPC   GL240766  36.039   7.491   5.983
 3037POPC   C1A40767  36.412   7.671   6.227
 3037POPC   D2A40768  36.154   7.463   6.580
 3037POPC   C3A40769  36.384   7.419   6.961
 3037POPC   C4A40770  36.110   7.621   7.194
 3037POPC   C1B40771  35.818   7.170   6.238
 3037POPC   C2B40772  35.828   6.999   6.622
 3037POPC   C3B40773  35.837   7.206   6.997
 3037POPC   C4B40774  35.763   7.027   7.411
 3038POPC   NC340775  26.263  11.886   5.240
 3038POPC   PO440776  25.890  12.330   5.577
 3038POPC   GL140777  26.223  12.266   5.895
 3038POPC   GL240778  26.193  11.932   5.879
 3038POPC   C1A40779  26.324  12.119   6.348
 3038POPC   D2A40780  26.319  12.043   6.780
 3038POPC   C3A40781  26.296  12.307   7.134
 3038POPC   C4A40782  26.318  11.979   7.407
 3038POPC   C1B40783  25.855  12.021   6.190
 3038POPC   C2B40784  25.865  11.908   6.619
 3038POPC   C3B40785  25.885  12.043   7.047
 3038POPC   C4B40786  25.695  12.392   7.273
 3039POPC   NC340787   5.694  25.449   5.433
 3039POPC   PO440788   5.966  24.844   5.397
 3039POPC   GL140789   5.852  25.059   5.780
 3039POPC   GL240790   6.040  25.359   5.818
 3039POPC   C1A40791   5.873  24.998   6.233
 3039POPC   D2A40792   5.916  24.801   6.642
 3039POPC   C3A40793   5.823  25.181   6.836
 3039POPC   C4A40794   5.689  25.315   7.207
 3039POPC   C1B40795   5.819  25.536   6.183
 3039POPC   C2B40796   5.898  25.643   6.625
 3039POPC   C3B40797   6.026  25.699   7.060
 3039POPC   C4B40798   6.127  25.593   7.479
 3040POPC   NC340799  35.593  23.333   5.299
 3040POPC   PO440800  35.401  24.001   5.288
 3040POPC   GL140801  35.292  23.839   5.679
 3040POPC   GL240802  35.256  23.496   5.680
 3040POPC   C1A40803  35.425  23.880   6.109
 3040POPC   D2A40804  35.233  23.805   6.509
 3040POPC   C3A40805  35.418  23.955   6.890
 3040POPC   C4A40806  35.200  23.862   7.263
 3040POPC   C1B40807  35.304  23.394   6.133
 3040POPC   C2B40808  35.337  23.281   6.572
 3040POPC   C3B40809  35.204  23.470   6.925
 3040POPC   C4B40810  35.334  23.335   7.320
 3041POPC   NC340811  13.921  21.613   5.425
 3041POPC   PO440812  13.245  21.519   5.463
 3041POPC   GL140813  13.461  21.563   5.856
 3041POPC   GL240814  13.756  21.328   5.839
 3041POPC   C1A40815  13.493  21.398   6.278
 3041POPC   D2A40816  13.790  21.285   6.616
 3041POPC   C3A40817  13.557  21.309   6.990
 3041POPC   C4A40818  13.301  21.553   7.246
 3041POPC   C1B40819  13.991  21.561   6.192
 3041POPC   C2B40820  14.015  21.744   6.647
 3041POPC   C3B40821  13.987  21.553   7.091
 3041POPC   C4B40822  13.753  21.681   7.465
 3042POPC   NC340823  13.267   6.495   5.365
 3042POPC   PO440824  13.917   6.665   5.236
 3042POPC   GL140825  13.863   6.607   5.713
 3042POPC   GL240826  13.531   6.424   5.830
 3042POPC   C1A40827  13.762   6.752   6.161
 3042POPC   D2A40828  13.620   6.769   6.608
 3042POPC   C3A40829  13.612   6.433   6.905
 3042POPC   C4A40830  13.851   6.411   7.284
 3042POPC   C1B40831  13.308   6.497   6.241
 3042POPC   C2B40832  13.138   6.603   6.660
 3042POPC   C3B40833  13.258   6.870   7.009
 3042POPC   C4B40834  13.422   6.939   7.430
 3043POPC   NC340835   7.961   9.896   5.134
 3043POPC   PO440836   8.480   9.580   5.451
 3043POPC   GL140837   8.310   9.801   5.825
 3043POPC   GL240838   7.930   9.902   5.810
 3043POPC   C1A40839   8.160   9.624   6.207
 3043POPC   D2A40840   8.017   9.573   6.612
 3043POPC   C3A40841   8.358   9.628   6.898
 3043POPC   C4A40842   8.424   9.617   7.354
 3043POPC   C1B40843   8.109  10.145   6.134
 3043POPC   C2B40844   8.270  10.025   6.526
 3043POPC   C3B40845   8.215  10.135   6.922
 3043POPC   C4B40846   8.046   9.994   7.317
 3044POPC   NC340847  11.590   4.891   5.323
 3044POPC   PO440848  11.037   5.325   5.294
 3044POPC   GL140849  11.042   5.049   5.694
 3044POPC   GL240850  11.372   4.859   5.776
 3044POPC   C1A40851  10.961   4.802   6.080
 3044POPC   D2A40852  11.108   4.866   6.501
 3044POPC   C3A40853  10.864   4.849   6.900
 3044POPC   C4A40854  11.024   4.866   7.319
 3044POPC   C1B40855  11.493   5.059   6.152
 3044POPC   C2B40856  11.473   5.230   6.568
 3044POPC   C3B40857  11.354   5.039   6.953
 3044POPC   C4B40858  11.530   4.789   7.296
 3045POPC   NC340859  42.151  34.894   5.500
 3045POPC   PO440860  42.618  34.382   5.425
 3045POPC   GL140861  42.271  34.387   5.789
 3045POPC   GL240862  41.953  34.594   5.859
 3045POPC   C1A40863  42.152  34.367   6.252
 3045POPC   D2A40864  42.185  34.640   6.602
 3045POPC   C3A40865  42.266  34.422   6.981
 3045POPC   C4A40866  42.634  34.517   7.219
 3045POPC   C1B40867  42.329  34.818   6.110
 3045POPC   C2B40868  42.337  35.119   6.442
 3045POPC   C3B40869  42.246  35.072   6.892
 3045POPC   C4B40870  42.197  34.831   7.276
 3046POPC   NC340871  19.693  32.041   5.446
 3046POPC   PO440872  19.468  32.611   5.529
 3046POPC   GL140873  19.716  32.348   5.875
 3046POPC   GL240874  19.628  31.985   5.952
 3046POPC   C1A40875  19.793  32.321   6.349
 3046POPC   D2A40876  19.537  32.369   6.727
 3046POPC   C3A40877  19.750  32.334   7.113
 3046POPC   C4A40878  20.189  32.338   7.319
 3046POPC   C1B40879  19.465  31.788   6.341
 3046POPC   C2B40880  19.232  31.932   6.720
 3046POPC   C3B40881  19.255  31.895   7.165
 3046POPC   C4B40882  19.558  31.998   7.461
 3047POPC   NC340883  26.213  38.094   5.462
 3047POPC   PO440884  26.099  38.742   5.436
 3047POPC   GL140885  26.003  38.442   5.771
 3047POPC   GL240886  25.748  38.200   5.665
 3047POPC   C1A40887  26.140  38.347   6.184
 3047POPC   D2A40888  26.116  38.643   6.536
 3047POPC   C3A40889  26.211  38.459   6.889
 3047POPC   C4A40890  26.336  38.364   7.260
 3047POPC   C1B40891  25.626  38.244   6.106
 3047POPC   C2B40892  25.758  38.282   6.546
 3047POPC   C3B40893  25.789  38.192   6.985
 3047POPC   C4B40894  25.951  38.040   7.362
 3048POPC   NC340895  43.036  20.416   5.314
 3048POPC   PO440896  43.010  21.098   5.321
 3048POPC   GL140897  42.989  20.775   5.725
 3048POPC   GL240898  43.267  20.555   5.789
 3048POPC   C1A40899  42.939  20.684   6.199
 3048POPC   D2A40900  43.052  20.924   6.595
 3048POPC   C3A40901  43.061  20.718   6.971
 3048POPC   C4A40902  42.904  20.521   7.322
 3048POPC   C1B40903  43.451  20.699   6.168
 3048POPC   C2B40904  43.404  20.529   6.561
 3048POPC   C3B40905  43.571  20.631   6.941
 3048POPC   C4B40906  43.434  20.650   7.344
 3049POPC   NC340907  35.583  12.731   5.521
 3049POPC   PO440908  35.096  13.183   5.346
 3049POPC   GL140909  35.086  12.977   5.743
 3049POPC   GL240910  35.142  12.641   5.801
 3049POPC   C1A40911  35.030  13.095   6.190
 3049POPC   D2A40912  35.334  13.160   6.523
 3049POPC   C3A40913  35.257  13.042   6.946
 3049POPC   C4A40914  35.585  12.998   7.230
 3049POPC   C1B40915  35.109  12.518   6.221
 3049POPC   C2B40916  35.242  12.653   6.606
 3049POPC   C3B40917  35.143  12.524   7.013
 3049POPC   C4B40918  35.359  12.510   7.396
 3050POPC   NC340919  24.982   7.505   5.484
 3050POPC   PO440920  25.583   7.235   5.399
 3050POPC   GL140921  25.358   7.284   5.813
 3050POPC   GL240922  25.047   7.182   5.879
 3050POPC   C1A40923  25.363   7.282   6.287
 3050POPC   D2A40924  25.089   7.205   6.671
 3050POPC   C3A40925  25.269   7.289   7.071
 3050POPC   C4A40926  25.348   7.129   7.490
 3050POPC   C1B40927  24.824   7.299   6.239
 3050POPC   C2B40928  24.614   7.372   6.635
 3050POPC   C3B40929  24.748   7.397   7.068
 3050POPC   C4B40930  24.968   7.482   7.452
 3051POPC   NC340931  41.961  41.592   5.381
 3051POPC   PO440932  41.353  41.219   5.178
 3051POPC   GL140933  41.569  41.258   5.625
 3051POPC   GL240934  41.652  41.589   5.792
 3051POPC   C1A40935  41.625  41.204   6.127
 3051POPC   D2A40936  41.417  41.361   6.548
 3051POPC   C3A40937  41.607  41.348   6.971
 3051POPC   C4A40938  41.914  41.569   7.200
 3051POPC   C1B40939  41.710  41.736   6.248
 3051POPC   C2B40940  41.898  41.761   6.695
 3051POPC   C3B40941  41.617  41.920   7.026
 3051POPC   C4B40942  41.236  41.788   6.887
 3052POPC   NC340943  31.051  38.486   5.009
 3052POPC   PO440944  30.513  38.268   5.425
 3052POPC   GL140945  30.656  38.536   5.776
 3052POPC   GL240946  30.534  38.881   5.787
 3052POPC   C1A40947  30.768  38.426   6.223
 3052POPC   D2A40948  30.511  38.428   6.619
 3052POPC   C3A40949  30.643  38.367   7.044
 3052POPC   C4A40950  30.734  38.452   7.493
 3052POPC   C1B40951  30.342  38.715   6.163
 3052POPC   C2B40952  30.213  38.879   6.578
 3052POPC   C3B40953  30.300  38.759   6.990
 3052POPC   C4B40954  30.541  38.887   7.329
 3053POPC   NC340955  18.750  44.494   5.427
 3053POPC   PO440956  19.134   0.137   5.455
 3053POPC   GL140957  19.009  44.958   5.853
 3053POPC   GL240958  18.973  44.598   5.867
 3053POPC   C1A40959  18.829  44.897   6.282
 3053POPC   D2A40960  18.655  44.657   6.646
 3053POPC   C3A40961  18.800  44.905   6.983
 3053POPC   C4A40962  19.189  44.812   7.189
 3053POPC   C1B40963  18.907  44.369   6.236
 3053POPC   C2B40964  18.921  44.191   6.627
 3053POPC   C3B40965  18.914  44.390   7.018
 3053POPC   C4B40966  19.100  44.300   7.394
 3054POPC   NC340967  26.825  36.637   5.165
 3054POPC   PO440968  26.940  37.122   5.618
 3054POPC   GL140969  26.649  37.024   5.829
 3054POPC   GL240970  26.600  36.692   5.658
 3054POPC   C1A40971  26.544  37.154   6.276
 3054POPC   D2A40972  26.796  37.207   6.678
 3054POPC   C3A40973  26.866  36.996   7.095
 3054POPC   C4A40974  27.038  36.569   7.238
 3054POPC   C1B40975  26.367  36.703   6.075
 3054POPC   C2B40976  26.398  36.677   6.527
 3054POPC   C3B40977  26.539  36.639   6.956
 3054POPC   C4B40978  26.588  36.670   7.431
 3055POPC   NC340979  39.046  44.986   5.295
 3055POPC   PO440980  39.204  44.335   5.225
 3055POPC   GL140981  39.082  44.457   5.680
 3055POPC   GL240982  39.163  44.792   5.815
 3055POPC   C1A40983  39.011  44.405   6.142
 3055POPC   D2A40984  39.315  44.662   6.357
 3055POPC   C3A40985  39.447  44.667   6.768
 3055POPC   C4A40986  39.295  44.707   7.168
 3055POPC   C1B40987  39.313   0.117   6.131
 3055POPC   C2B40988  39.562   0.120   6.521
 3055POPC   C3B40989  39.504   0.137   6.977
 3055POPC   C4B40990  39.235   0.222   7.356
 3056POPC   NC340991  23.611  44.066   5.513
 3056POPC   PO440992  23.217  43.614   5.245
 3056POPC   GL140993  23.483  43.634   5.755
 3056POPC   GL240994  23.848  43.751   5.849
 3056POPC   C1A40995  23.558  43.794   6.254
 3056POPC   D2A40996  23.416  43.890   6.713
 3056POPC   C3A40997  23.632  43.875   7.127
 3056POPC   C4A40998  23.356  43.788   7.496
 3056POPC   C1B40999  23.952  44.117   6.127
 3056POPC   C2B41000  23.848  44.157   6.563
 3056POPC   C3B41001  24.095  44.175   6.951
 3056POPC   C4B41002  24.147  44.130   7.394
 3057POPC   NC341003  13.180   3.218   5.586
 3057POPC   PO441004  13.695   3.025   5.252
 3057POPC   GL141005  13.601   2.968   5.742
 3057POPC   GL241006  13.863   3.175   5.915
 3057POPC   C1A41007  13.431   3.072   6.207
 3057POPC   D2A41008  13.249   2.906   6.630
 3057POPC   C3A41009  13.419   2.789   7.038
 3057POPC   C4A41010  13.470   3.154   7.213
 3057POPC   C1B41011  13.890   2.845   6.244
 3057POPC   C2B41012  13.765   2.818   6.675
 3057POPC   C3B41013  13.950   2.790   7.105
 3057POPC   C4B41014  14.287   2.868   7.431
 3058POPC   NC341015  16.090   2.927   5.405
 3058POPC   PO441016  15.639   2.415   5.372
 3058POPC   GL141017  15.916   2.574   5.742
 3058POPC   GL241018  15.888   2.935   5.856
 3058POPC   C1A41019  16.136   2.666   6.172
 3058POPC   D2A41020  16.046   2.993   6.479
 3058POPC   C3A41021  16.091   2.871   6.878
 3058POPC   C4A41022  15.934   2.561   7.120
 3058POPC   C1B41023  15.645   2.819   6.210
 3058POPC   C2B41024  15.686   2.648   6.647
 3058POPC   C3B41025  15.586   2.915   7.025
 3058POPC   C4B41026  15.674   3.294   7.238
 3059POPC   NC341027   2.454   9.164   5.423
 3059POPC   PO441028   3.154   8.906   5.421
 3059POPC   GL141029   2.954   8.842   5.810
 3059POPC   GL241030   2.635   8.774   5.710
 3059POPC   C1A41031   2.979   9.071   6.216
 3059POPC   D2A41032   2.919   9.245   6.643
 3059POPC   C3A41033   3.017   9.012   7.043
 3059POPC   C4A41034   3.201   8.975   7.489
 3059POPC   C1B41035   2.471   8.994   6.081
 3059POPC   C2B41036   2.595   8.860   6.494
 3059POPC   C3B41037   2.513   9.024   6.872
 3059POPC   C4B41038   2.441   9.163   7.266
 3060POPC   NC341039  25.198  15.738   5.235
 3060POPC   PO441040  25.177  15.022   5.307
 3060POPC   GL141041  25.151  14.994   5.753
 3060POPC   GL241042  24.823  14.875   5.839
 3060POPC   C1A41043  25.176  15.112   6.208
 3060POPC   D2A41044  25.005  15.414   6.531
 3060POPC   C3A41045  25.009  15.344   6.976
 3060POPC   C4A41046  25.350  15.265   7.309
 3060POPC   C1B41047  24.859  14.705   6.274
 3060POPC   C2B41048  24.950  14.894   6.686
 3060POPC   C3B41049  25.093  14.851   7.120
 3060POPC   C4B41050  25.197  14.804   7.564
 3061POPC   NC341051  25.209  20.026   5.309
 3061POPC   PO441052  25.266  19.393   5.477
 3061POPC   GL141053  25.310  19.740   5.722
 3061POPC   GL241054  25.044  19.680   5.901
 3061POPC   C1A41055  25.472  19.933   6.106
 3061POPC   D2A41056  25.415  20.138   6.515
 3061POPC   C3A41057  25.500  19.953   6.912
 3061POPC   C4A41058  25.189  19.871   7.192
 3061POPC   C1B41059  25.170  19.560   6.299
 3061POPC   C2B41060  25.072  19.756   6.673
 3061POPC   C3B41061  24.860  19.566   6.989
 3061POPC   C4B41062  25.019  19.388   7.332
 3062POPC   NC341063   5.467   1.207   5.377
 3062POPC   PO441064   4.835   1.491   5.425
 3062POPC   GL141065   5.011   1.273   5.777
 3062POPC   GL241066   5.320   1.433   5.811
 3062POPC   C1A41067   5.071   1.304   6.251
 3062POPC   D2A41068   5.153   1.011   6.594
 3062POPC   C3A41069   5.048   1.032   7.013
 3062POPC   C4A41070   5.172   1.226   7.373
 3062POPC   C1B41071   5.553   1.554   6.164
 3062POPC   C2B41072   5.357   1.613   6.545
 3062POPC   C3B41073   5.353   1.429   6.926
 3062POPC   C4B41074   5.506   1.621   7.296
 3063POPC   NC341075  28.049   4.510   5.345
 3063POPC   PO441076  28.652   4.552   5.248
 3063POPC   GL141077  28.439   4.497   5.682
 3063POPC   GL241078  28.238   4.199   5.766
 3063POPC   C1A41079  28.415   4.530   6.165
 3063POPC   D2A41080  28.270   4.333   6.577
 3063POPC   C3A41081  28.463   4.354   6.998
 3063POPC   C4A41082  28.794   4.395   7.345
 3063POPC   C1B41083  27.997   4.209   6.170
 3063POPC   C2B41084  27.867   4.030   6.576
 3063POPC   C3B41085  28.182   3.913   6.875
 3063POPC   C4B41086  28.340   3.943   7.265
 3064POPC   NC341087   5.009  13.017   5.380
 3064POPC   PO441088   5.622  12.763   5.351
 3064POPC   GL141089   5.361  12.704   5.770
 3064POPC   GL241090   4.974  12.769   5.854
 3064POPC   C1A41091   5.326  12.775   6.233
 3064POPC   D2A41092   5.057  12.634   6.574
 3064POPC   C3A41093   5.175  12.779   6.982
 3064POPC   C4A41094   5.233  13.108   7.307
 3064POPC   C1B41095   4.822  12.990   6.271
 3064POPC   C2B41096   4.825  13.068   6.754
 3064POPC   C3B41097   4.750  12.994   7.221
 3064POPC   C4B41098   4.758  13.280   7.601
 3065POPC   NC341099   1.400  27.724   5.381
 3065POPC   PO441100   0.884  27.315   5.477
 3065POPC   GL141101   1.077  27.664   5.779
 3065POPC   GL241102   1.431  27.723   5.885
 3065POPC   C1A41103   1.077  27.914   6.203
 3065POPC   D2A41104   0.860  27.815   6.567
 3065POPC   C3A41105   1.130  27.831   6.904
 3065POPC   C4A41106   1.030  27.660   7.273
 3065POPC   C1B41107   1.246  27.452   6.225
 3065POPC   C2B41108   1.203  27.266   6.597
 3065POPC   C3B41109   1.339  27.355   7.000
 3065POPC   C4B41110   1.539  27.659   7.266
 3066POPC   NC341111  20.664  26.231   5.211
 3066POPC   PO441112  20.149  25.876   5.472
 3066POPC   GL141113  20.473  26.156   5.697
 3066POPC   GL241114  20.335  26.399   5.893
 3066POPC   C1A41115  20.754  26.123   6.093
 3066POPC   D2A41116  20.658  25.883   6.503
 3066POPC   C3A41117  20.934  25.931   6.880
 3066POPC   C4A41118  20.825  26.147   7.249
 3066POPC   C1B41119  20.255  26.082   6.182
 3066POPC   C2B41120  20.236  26.207   6.602
 3066POPC   C3B41121  20.408  26.005   6.956
 3066POPC   C4B41122  20.372  25.957   7.381
 3067POPC   NC341123  28.244  10.869   5.241
 3067POPC   PO441124  28.011  11.467   5.398
 3067POPC   GL141125  28.219  11.178   5.712
 3067POPC   GL241126  28.537  10.967   5.692
 3067POPC   C1A41127  28.242  11.259   6.155
 3067POPC   D2A41128  28.199  11.489   6.538
 3067POPC   C3A41129  28.146  11.270   6.910
 3067POPC   C4A41130  28.367  11.344   7.288
 3067POPC   C1B41131  28.524  10.829   6.130
 3067POPC   C2B41132  28.459  10.995   6.588
 3067POPC   C3B41133  28.459  10.862   7.050
 3067POPC   C4B41134  28.499  10.924   7.510
 3068POPC   NC341135  10.182  28.114   5.574
 3068POPC   PO441136  10.655  28.625   5.497
 3068POPC   GL141137  10.289  28.594   5.741
 3068POPC   GL241138  10.482  28.315   5.928
 3068POPC   C1A41139  10.111  28.572   6.162
 3068POPC   D2A41140  10.319  28.349   6.490
 3068POPC   C3A41141  10.161  28.490   6.872
 3068POPC   C4A41142  10.161  28.329   7.310
 3068POPC   C1B41143  10.690  28.602   6.206
 3068POPC   C2B41144  10.728  28.647   6.655
 3068POPC   C3B41145  10.628  28.554   7.066
 3068POPC   C4B41146  10.884  28.243   7.176
 3069POPC   NC341147  38.095   7.653   5.642
 3069POPC   PO441148  38.055   8.259   5.315
 3069POPC   GL141149  38.264   8.193   5.766
 3069POPC   GL241150  38.534   7.912   5.808
 3069POPC   C1A41151  38.222   8.336   6.232
 3069POPC   D2A41152  38.308   8.162   6.687
 3069POPC   C3A41153  38.458   8.444   7.003
 3069POPC   C4A41154  38.440   8.444   7.456
 3069POPC   C1B41155  38.507   7.918   6.268
 3069POPC   C2B41156  38.666   7.775   6.681
 3069POPC   C3B41157  38.651   7.968   7.115
 3069POPC   C4B41158  38.927   7.945   7.472
 3070POPC   NC341159  29.566  35.857   5.517
 3070POPC   PO441160  28.964  36.206   5.372
 3070POPC   GL141161  29.127  36.207   5.792
 3070POPC   GL241162  29.170  35.868   5.935
 3070POPC   C1A41163  29.249  36.277   6.233
 3070POPC   D2A41164  29.304  36.014   6.579
 3070POPC   C3A41165  29.218  36.136   6.998
 3070POPC   C4A41166  29.302  36.346   7.408
 3070POPC   C1B41167  28.898  35.813   6.331
 3070POPC   C2B41168  28.937  35.709   6.792
 3070POPC   C3B41169  28.933  35.786   7.247
 3070POPC   C4B41170  28.714  35.813   7.654
 3071POPC   NC341171  35.583  27.473   5.408
 3071POPC   PO441172  35.226  27.110   5.614
 3071POPC   GL141173  35.547  27.322   5.916
 3071POPC   GL241174  35.554  27.688   5.915
 3071POPC   C1A41175  35.609  27.419   6.392
 3071POPC   D2A41176  35.577  27.658   6.817
 3071POPC   C3A41177  35.436  27.400   7.189
 3071POPC   C4A41178  35.076  27.423   7.469
 3071POPC   C1B41179  35.476  27.907   6.334
 3071POPC   C2B41180  35.153  27.923   6.675
 3071POPC   C3B41181  35.072  27.757   7.092
 3071POPC   C4B41182  35.260  27.900   7.500
 3072POPC   NC341183   5.502  31.806   5.564
 3072POPC   PO441184   4.952  31.447   5.538
 3072POPC   GL141185   4.963  31.690   5.896
 3072POPC   GL241186   5.261  31.579   5.935
 3072POPC   C1A41187   4.861  31.788   6.317
 3072POPC   D2A41188   4.924  31.502   6.689
 3072POPC   C3A41189   4.657  31.591   7.016
 3072POPC   C4A41190   4.743  31.555   7.416
 3072POPC   C1B41191   5.228  31.405   6.294
 3072POPC   C2B41192   5.479  31.355   6.638
 3072POPC   C3B41193   5.318  31.391   7.030
 3072POPC   C4B41194   5.202  31.756   7.220
 3073POPC   NC341195  15.957  22.445   5.544
 3073POPC   PO441196  15.702  21.870   5.316
 3073POPC   GL141197  15.641  22.044   5.752
 3073POPC   GL241198  15.522  22.369   5.881
 3073POPC   C1A41199  15.756  22.034   6.206
 3073POPC   D2A41200  15.783  21.978   6.653
 3073POPC   C3A41201  15.945  22.138   7.063
 3073POPC   C4A41202  16.076  21.890   7.420
 3073POPC   C1B41203  15.850  22.545   6.189
 3073POPC   C2B41204  16.016  22.460   6.621
 3073POPC   C3B41205  16.022  22.668   7.044
 3073POPC   C4B41206  15.909  22.518   7.470
 3074POPC   NC341207   6.442  25.591   5.593
 3074POPC   PO441208   6.880  25.117   5.505
 3074POPC   GL141209   6.661  25.209   5.854
 3074POPC   GL241210   6.380  24.958   5.842
 3074POPC   C1A41211   6.746  25.546   6.195
 3074POPC   D2A41212   6.916  25.539   6.626
 3074POPC   C3A41213   6.781  25.191   6.880
 3074POPC   C4A41214   6.903  25.043   7.294
 3074POPC   C1B41215   6.324  25.232   6.223
 3074POPC   C2B41216   6.316  25.105   6.635
 3074POPC   C3B41217   6.301  25.278   7.046
 3074POPC   C4B41218   6.604  25.436   7.380
 3075POPC   NC341219   3.638  31.736   5.139
 3075POPC   PO441220   3.202  31.275   5.299
 3075POPC   GL141221   3.429  31.289   5.713
 3075POPC   GL241222   3.646  31.579   5.648
 3075POPC   C1A41223   3.372  31.313   6.198
 3075POPC   D2A41224   3.128  31.521   6.565
 3075POPC   C3A41225   3.262  31.424   7.000
 3075POPC   C4A41226   3.702  31.334   7.108
 3075POPC   C1B41227   3.701  31.697   6.098
 3075POPC   C2B41228   3.648  31.632   6.554
 3075POPC   C3B41229   3.594  31.844   6.950
 3075POPC   C4B41230   3.917  31.833   7.229
 3076POPC   NC341231   8.026   3.132   5.520
 3076POPC   PO441232   8.549   2.678   5.507
 3076POPC   GL141233   8.243   2.693   5.806
 3076POPC   GL241234   8.282   3.016   5.941
 3076POPC   C1A41235   8.045   2.599   6.201
 3076POPC   D2A41236   8.100   2.806   6.595
 3076POPC   C3A41237   7.959   2.774   7.005
 3076POPC   C4A41238   7.764   2.843   7.377
 3076POPC   C1B41239   8.549   2.813   6.214
 3076POPC   C2B41240   8.573   2.628   6.591
 3076POPC   C3B41241   8.537   2.849   6.928
 3076POPC   C4B41242   8.380   2.806   7.301
 3077POPC   NC341243  43.276  40.714   5.356
 3077POPC   PO441244  42.578  40.447   5.535
 3077POPC   GL141245  42.863  40.782   5.761
 3077POPC   GL241246  43.242  40.840   5.841
 3077POPC   C1A41247  42.866  40.963   6.176
 3077POPC   D2A41248  42.984  40.770   6.565
 3077POPC   C3A41249  42.995  40.996   6.945
 3077POPC   C4A41250  42.981  40.844   7.349
 3077POPC   C1B41251  43.395  40.922   6.251
 3077POPC   C2B41252  43.473  40.926   6.696
 3077POPC   C3B41253  43.469  40.898   7.142
 3077POPC   C4B41254  43.368  41.112   7.497
 3078POPC   NC341255   9.121  38.711   5.084
 3078POPC   PO441256   8.793  38.188   5.271
 3078POPC   GL141257   8.931  38.269   5.688
 3078POPC   GL241258   9.235  38.483   5.681
 3078POPC   C1A41259   8.969  38.375   6.117
 3078POPC   D2A41260   8.773  38.508   6.463
 3078POPC   C3A41261   8.993  38.451   6.821
 3078POPC   C4A41262   8.850  38.387   7.230
 3078POPC   C1B41263   9.460  38.550   6.084
 3078POPC   C2B41264   9.413  38.639   6.514
 3078POPC   C3B41265   9.496  38.487   6.919
 3078POPC   C4B41266   9.312  38.585   7.312
 3079POPC   NC341267  28.841  26.767   5.461
 3079POPC   PO441268  29.340  26.263   5.171
 3079POPC   GL141269  29.303  26.498   5.619
 3079POPC   GL241270  29.422  26.778   5.841
 3079POPC   C1A41271  29.096  26.487   6.071
 3079POPC   D2A41272  28.967  26.642   6.496
 3079POPC   C3A41273  29.164  26.684   6.863
 3079POPC   C4A41274  29.395  26.634   7.225
 3079POPC   C1B41275  29.109  26.996   6.160
 3079POPC   C2B41276  28.944  27.151   6.599
 3079POPC   C3B41277  28.809  27.064   7.033
 3079POPC   C4B41278  28.983  26.901   7.406
 3080POPC   NC341279  42.706   5.203   5.107
 3080POPC   PO441280  42.200   4.774   5.243
 3080POPC   GL141281  42.373   5.053   5.651
 3080POPC   GL241282  42.676   5.226   5.630
 3080POPC   C1A41283  42.331   5.326   6.074
 3080POPC   D2A41284  42.035   5.299   6.444
 3080POPC   C3A41285  42.168   5.258   6.847
 3080POPC   C4A41286  42.073   5.110   7.231
 3080POPC   C1B41287  42.741   5.039   6.045
 3080POPC   C2B41288  42.647   5.148   6.462
 3080POPC   C3B41289  42.668   5.225   6.899
 3080POPC   C4B41290  42.686   4.909   7.192
 3081POPC   NC341291  13.344  11.937   5.352
 3081POPC   PO441292  13.825  12.403   5.376
 3081POPC   GL141293  13.650  12.213   5.744
 3081POPC   GL241294  13.438  11.953   5.872
 3081POPC   C1A41295  13.631  12.296   6.192
 3081POPC   D2A41296  13.751  12.168   6.595
 3081POPC   C3A41297  13.590  12.283   6.984
 3081POPC   C4A41298  13.973  12.304   7.193
 3081POPC   C1B41299  13.355  11.867   6.310
 3081POPC   C2B41300  13.563  11.702   6.668
 3081POPC   C3B41301  13.734  11.790   7.054
 3081POPC   C4B41302  13.344  11.889   7.208
 3082POPC   NC341303  21.312  19.653   5.328
 3082POPC   PO441304  21.192  20.193   5.718
 3082POPC   GL141305  21.453  19.963   5.971
 3082POPC   GL241306  21.509  19.663   5.801
 3082POPC   C1A41307  21.451  20.018   6.421
 3082POPC   D2A41308  21.083  20.052   6.698
 3082POPC   C3A41309  21.206  20.044   7.115
 3082POPC   C4A41310  21.560  19.776   7.226
 3082POPC   C1B41311  21.332  19.560   6.220
 3082POPC   C2B41312  21.329  19.517   6.655
 3082POPC   C3B41313  21.075  19.575   7.004
 3082POPC   C4B41314  20.977  19.714   7.442
 3083POPC   NC341315   4.704  31.841   5.486
 3083POPC   PO441316   4.112  31.568   5.260
 3083POPC   GL141317   4.164  31.496   5.735
 3083POPC   GL241318   4.512  31.420   5.791
 3083POPC   C1A41319   4.125  31.389   6.207
 3083POPC   D2A41320   3.968  31.225   6.616
 3083POPC   C3A41321   4.159  31.473   6.942
 3083POPC   C4A41322   4.270  31.372   7.349
 3083POPC   C1B41323   4.667  31.341   6.206
 3083POPC   C2B41324   4.489  31.274   6.606
 3083POPC   C3B41325   4.582  31.084   7.022
 3083POPC   C4B41326   4.744  31.054   7.458
 3084POPC   NC341327   0.926  17.169   5.571
 3084POPC   PO441328   1.570  17.354   5.331
 3084POPC   GL141329   1.559  17.449   5.795
 3084POPC   GL241330   1.168  17.540   5.865
 3084POPC   C1A41331   1.514  17.687   6.196
 3084POPC   D2A41332   1.247  17.534   6.526
 3084POPC   C3A41333   1.283  17.683   6.942
 3084POPC   C4A41334   1.487  17.630   7.293
 3084POPC   C1B41335   0.858  17.408   6.231
 3084POPC   C2B41336   0.802  17.361   6.717
 3084POPC   C3B41337   0.850  17.528   7.154
 3084POPC   C4B41338   0.942  17.422   7.618
 3085POPC   NC341339  35.389  10.881   5.526
 3085POPC   PO441340  35.441  11.534   5.299
 3085POPC   GL141341  35.491  11.379   5.735
 3085POPC   GL241342  35.673  11.080   5.874
 3085POPC   C1A41343  35.556  11.489   6.165
 3085POPC   D2A41344  35.336  11.690   6.518
 3085POPC   C3A41345  35.230  11.533   6.908
 3085POPC   C4A41346  35.437  11.622   7.279
 3085POPC   C1B41347  35.319  11.035   6.174
 3085POPC   C2B41348  35.335  11.122   6.617
 3085POPC   C3B41349  35.567  11.192   7.012
 3085POPC   C4B41350  35.740  11.075   7.398
 3086POPC   NC341351  16.089  21.516   5.198
 3086POPC   PO441352  15.713  21.137   5.567
 3086POPC   GL141353  15.966  21.317   5.838
 3086POPC   GL241354  15.958  21.636   5.708
 3086POPC   C1A41355  15.894  21.517   6.241
 3086POPC   D2A41356  15.684  21.379   6.611
 3086POPC   C3A41357  15.728  21.590   6.984
 3086POPC   C4A41358  15.956  21.409   7.251
 3086POPC   C1B41359  16.208  21.887   5.974
 3086POPC   C2B41360  16.242  21.877   6.421
 3086POPC   C3B41361  16.272  21.796   6.868
 3086POPC   C4B41362  16.432  21.558   7.217
 3087POPC   NC341363  31.901  37.023   5.477
 3087POPC   PO441364  32.544  36.795   5.267
 3087POPC   GL141365  32.375  37.109   5.649
 3087POPC   GL241366  32.133  36.917   5.916
 3087POPC   C1A41367  32.384  37.330   6.085
 3087POPC   D2A41368  32.302  37.042   6.451
 3087POPC   C3A41369  32.544  37.031   6.837
 3087POPC   C4A41370  32.361  37.195   7.209
 3087POPC   C1B41371  31.873  36.766   6.274
 3087POPC   C2B41372  31.968  36.705   6.702
 3087POPC   C3B41373  32.201  36.714   7.057
 3087POPC   C4B41374  32.100  36.822   7.476
 3088POPC   NC341375   4.244  29.299   5.316
 3088POPC   PO441376   4.707  28.771   5.312
 3088POPC   GL141377   4.558  29.034   5.667
 3088POPC   GL241378   4.171  29.009   5.756
 3088POPC   C1A41379   4.534  29.019   6.129
 3088POPC   D2A41380   4.308  29.091   6.509
 3088POPC   C3A41381   4.517  29.162   6.897
 3088POPC   C4A41382   4.350  29.099   7.329
 3088POPC   C1B41383   4.125  29.362   6.074
 3088POPC   C2B41384   4.093  29.534   6.519
 3088POPC   C3B41385   4.040  29.345   6.919
 3088POPC   C4B41386   3.850  29.323   7.318
 3089POPC   NC341387  23.120  25.606   5.325
 3089POPC   PO441388  22.674  25.154   5.427
 3089POPC   GL141389  22.739  25.428   5.752
 3089POPC   GL241390  23.060  25.315   5.820
 3089POPC   C1A41391  22.666  25.314   6.188
 3089POPC   D2A41392  22.902  25.264   6.543
 3089POPC   C3A41393  22.780  25.441   6.912
 3089POPC   C4A41394  22.766  25.688   7.254
 3089POPC   C1B41395  23.111  24.991   6.142
 3089POPC   C2B41396  23.079  24.785   6.564
 3089POPC   C3B41397  22.890  24.927   6.950
 3089POPC   C4B41398  22.961  25.172   7.326
 3090POPC   NC341399  19.908  10.342   5.330
 3090POPC   PO441400  19.523  10.844   5.339
 3090POPC   GL141401  19.713  10.621   5.740
 3090POPC   GL241402  19.906  10.273   5.826
 3090POPC   C1A41403  19.954  10.656   6.129
 3090POPC   D2A41404  20.124  10.462   6.488
 3090POPC   C3A41405  19.831  10.507   6.824
 3090POPC   C4A41406  19.823  10.712   7.195
 3090POPC   C1B41407  19.752  10.171   6.270
 3090POPC   C2B41408  19.922  10.014   6.683
 3090POPC   C3B41409  20.208  10.172   7.006
 3090POPC   C4B41410  20.236  10.437   7.396
 3091POPC   NC341411  12.365  17.217   5.417
 3091POPC   PO441412  12.031  16.661   5.330
 3091POPC   GL141413  12.215  16.640   5.772
 3091POPC   GL241414  12.274  16.308   5.918
 3091POPC   C1A41415  12.195  16.694   6.246
 3091POPC   D2A41416  12.417  16.705   6.635
 3091POPC   C3A41417  12.194  16.884   6.932
 3091POPC   C4A41418  11.767  16.850   7.016
 3091POPC   C1B41419  12.527  16.306   6.298
 3091POPC   C2B41420  12.322  16.217   6.697
 3091POPC   C3B41421  12.130  16.410   7.072
 3091POPC   C4B41422  12.248  16.303   7.484
 3092POPC   NC341423  34.746   0.065   5.409
 3092POPC   PO441424  34.276  44.601   5.575
 3092POPC   GL141425  34.438  44.677   5.948
 3092POPC   GL241426  34.739  44.497   5.823
 3092POPC   C1A41427  34.470  44.865   6.365
 3092POPC   D2A41428  34.669   0.150   6.672
 3092POPC   C3A41429  34.745  44.881   7.023
 3092POPC   C4A41430  34.382  44.641   7.191
 3092POPC   C1B41431  34.784  44.471   6.288
 3092POPC   C2B41432  34.577  44.436   6.711
 3092POPC   C3B41433  34.779  44.364   7.109
 3092POPC   C4B41434  34.893  44.563   7.480
 3093POPC   NC341435  34.236   9.888   5.461
 3093POPC   PO441436  34.879  10.022   5.255
 3093POPC   GL141437  34.797   9.950   5.723
 3093POPC   GL241438  34.446   9.991   5.911
 3093POPC   C1A41439  34.809   9.770   6.155
 3093POPC   D2A41440  34.535   9.924   6.483
 3093POPC   C3A41441  34.571   9.666   6.846
 3093POPC   C4A41442  34.618   9.758   7.259
 3093POPC   C1B41443  34.177  10.232   6.202
 3093POPC   C2B41444  34.202  10.392   6.628
 3093POPC   C3B41445  34.322  10.107   6.967
 3093POPC   C4B41446  34.242  10.061   7.419
 3094POPC   NC341447  12.490  29.356   5.494
 3094POPC   PO441448  13.169  29.303   5.491
 3094POPC   GL141449  12.873  29.222   5.809
 3094POPC   GL241450  12.731  28.877   5.775
 3094POPC   C1A41451  12.729  29.477   6.143
 3094POPC   D2A41452  12.599  29.389   6.547
 3094POPC   C3A41453  12.802  29.600   6.888
 3094POPC   C4A41454  12.805  29.421   7.286
 3094POPC   C1B41455  12.601  28.982   6.197
 3094POPC   C2B41456  12.427  28.888   6.582
 3094POPC   C3B41457  12.626  29.031   6.935
 3094POPC   C4B41458  12.837  28.792   7.219
 3095POPC   NC341459   0.460  27.320   5.311
 3095POPC   PO441460  44.921  27.724   5.099
 3095POPC   GL141461   0.145  27.667   5.558
 3095POPC   GL241462   0.534  27.701   5.662
 3095POPC   C1A41463   0.172  27.557   6.026
 3095POPC   D2A41464   0.340  27.727   6.435
 3095POPC   C3A41465   0.368  27.554   6.870
 3095POPC   C4A41466   0.529  27.811   7.232
 3095POPC   C1B41467   0.698  27.577   6.096
 3095POPC   C2B41468   0.699  27.327   6.484
 3095POPC   C3B41469   0.825  27.365   6.916
 3095POPC   C4B41470   0.622  27.325   7.303
 3096POPC   NC341471   3.372  42.757   5.183
 3096POPC   PO441472   3.756  43.125   5.427
 3096POPC   GL141473   3.397  42.944   5.670
 3096POPC   GL241474   3.341  43.224   5.851
 3096POPC   C1A41475   3.190  42.817   6.109
 3096POPC   D2A41476   3.335  42.774   6.567
 3096POPC   C3A41477   3.249  42.774   7.024
 3096POPC   C4A41478   3.514  42.546   7.336
 3096POPC   C1B41479   3.291  43.268   6.344
 3096POPC   C2B41480   3.332  43.250   6.814
 3096POPC   C3B41481   3.520  43.177   7.253
 3096POPC   C4B41482   3.345  43.350   7.662
 3097POPC   NC341483  40.103  21.943   5.207
 3097POPC   PO441484  39.723  22.520   5.135
 3097POPC   GL141485  39.970  22.444   5.572
 3097POPC   GL241486  40.100  22.118   5.686
 3097POPC   C1A41487  39.986  22.453   6.058
 3097POPC   D2A41488  40.168  22.642   6.439
 3097POPC   C3A41489  39.923  22.567   6.825
 3097POPC   C4A41490  40.190  22.251   7.069
 3097POPC   C1B41491  39.717  22.021   5.963
 3097POPC   C2B41492  39.738  22.002   6.443
 3097POPC   C3B41493  39.718  22.104   6.907
 3097POPC   C4B41494  39.864  21.955   7.325
 3098POPC   NC341495  36.903   8.997   5.297
 3098POPC   PO441496  36.329   9.056   5.707
 3098POPC   GL141497  36.802   9.124   5.812
 3098POPC   GL241498  37.015   8.818   5.770
 3098POPC   C1A41499  37.116   9.118   6.174
 3098POPC   D2A41500  37.175   9.002   6.612
 3098POPC   C3A41501  36.871   9.243   6.865
 3098POPC   C4A41502  36.693   9.258   7.293
 3098POPC   C1B41503  37.225   8.621   6.144
 3098POPC   C2B41504  37.069   8.509   6.515
 3098POPC   C3B41505  37.123   8.557   6.938
 3098POPC   C4B41506  37.022   8.904   7.203
 3099POPC   NC341507  10.906  39.221   5.613
 3099POPC   PO441508  10.286  39.371   5.311
 3099POPC   GL141509  10.392  39.285   5.712
 3099POPC   GL241510  10.239  38.983   5.784
 3099POPC   C1A41511  10.491  39.458   6.103
 3099POPC   D2A41512  10.665  39.375   6.506
 3099POPC   C3A41513  10.492  39.435   6.908
 3099POPC   C4A41514  10.779  39.307   7.227
 3099POPC   C1B41515  10.396  38.967   6.234
 3099POPC   C2B41516  10.296  38.981   6.681
 3099POPC   C3B41517  10.297  39.026   7.156
 3099POPC   C4B41518  10.186  38.990   7.598
 3100POPC   NC341519  32.745  16.980   5.127
 3100POPC   PO441520  33.217  16.596   5.428
 3100POPC   GL141521  33.065  16.644   5.822
 3100POPC   GL241522  33.069  17.003   5.744
 3100POPC   C1A41523  33.089  16.497   6.251
 3100POPC   D2A41524  32.994  16.304   6.632
 3100POPC   C3A41525  32.980  16.532   7.008
 3100POPC   C4A41526  32.777  16.701   7.345
 3100POPC   C1B41527  33.004  17.044   6.191
 3100POPC   C2B41528  33.002  16.898   6.629
 3100POPC   C3B41529  32.992  17.069   7.056
 3100POPC   C4B41530  33.184  16.959   7.467
 3101POPC   NC341531  36.851  35.005   5.545
 3101POPC   PO441532  36.517  35.458   5.154
 3101POPC   GL141533  36.639  35.376   5.760
 3101POPC   GL241534  36.540  35.058   5.942
 3101POPC   C1A41535  36.726  35.459   6.236
 3101POPC   D2A41536  37.080  35.588   6.513
 3101POPC   C3A41537  37.136  35.521   6.957
 3101POPC   C4A41538  36.878  35.489   7.297
 3101POPC   C1B41539  36.776  34.944   6.296
 3101POPC   C2B41540  36.817  35.134   6.678
 3101POPC   C3B41541  36.828  35.027   7.084
 3101POPC   C4B41542  37.213  35.033   7.222
 3102POPC   NC341543   1.093  43.369   5.621
 3102POPC   PO441544   1.412  44.056   5.507
 3102POPC   GL141545   1.272  43.812   5.842
 3102POPC   GL241546   1.526  43.539   5.874
 3102POPC   C1A41547   0.983  43.888   6.193
 3102POPC   D2A41548   1.101  43.791   6.616
 3102POPC   C3A41549   1.019  43.910   7.036
 3102POPC   C4A41550   1.349  43.753   7.280
 3102POPC   C1B41551   1.517  43.587   6.335
 3102POPC   C2B41552   1.581  43.654   6.775
 3102POPC   C3B41553   1.486  44.066   6.889
 3102POPC   C4B41554   1.540  44.226   7.301
 3103POPC   NC341555  28.322   7.626   5.231
 3103POPC   PO441556  28.735   7.153   5.509
 3103POPC   GL141557  28.677   7.343   5.919
 3103POPC   GL241558  28.598   7.711   5.847
 3103POPC   C1A41559  28.583   7.105   6.321
 3103POPC   D2A41560  28.570   7.063   6.780
 3103POPC   C3A41561  28.264   7.307   7.003
 3103POPC   C4A41562  28.271   7.398   7.444
 3103POPC   C1B41563  28.492   7.649   6.313
 3103POPC   C2B41564  28.632   7.601   6.761
 3103POPC   C3B41565  28.555   7.757   7.189
 3103POPC   C4B41566  28.529   7.798   7.677
 3104POPC   NC341567  30.093  33.604   5.426
 3104POPC   PO441568  29.557  33.971   5.400
 3104POPC   GL141569  29.823  33.860   5.773
 3104POPC   GL241570  30.083  34.097   5.833
 3104POPC   C1A41571  29.730  33.508   6.098
 3104POPC   D2A41572  29.925  33.382   6.517
 3104POPC   C3A41573  29.805  33.487   6.950
 3104POPC   C4A41574  29.648  33.475   7.373
 3104POPC   C1B41575  30.116  33.814   6.189
 3104POPC   C2B41576  29.982  33.877   6.616
 3104POPC   C3B41577  30.214  33.807   6.981
 3104POPC   C4B41578  30.094  33.744   7.414
 3105POPC   NC341579  33.271  34.091   5.475
 3105POPC   PO441580  32.810  33.559   5.504
 3105POPC   GL141581  33.189  33.665   5.798
 3105POPC   GL241582  33.048  33.974   5.929
 3105POPC   C1A41583  33.445  33.555   6.219
 3105POPC   D2A41584  33.386  33.602   6.701
 3105POPC   C3A41585  33.197  34.000   6.861
 3105POPC   C4A41586  33.142  34.268   7.226
 3105POPC   C1B41587  32.941  33.634   6.234
 3105POPC   C2B41588  32.803  33.702   6.648
 3105POPC   C3B41589  32.946  33.565   7.033
 3105POPC   C4B41590  32.797  33.512   7.454
 3106POPC   NC341591   0.070  19.858   5.384
 3106POPC   PO441592   0.649  19.535   5.403
 3106POPC   GL141593   0.457  19.739   5.796
 3106POPC   GL241594   0.181  19.564   5.938
 3106POPC   C1A41595   0.336  19.943   6.246
 3106POPC   D2A41596   0.172  20.028   6.693
 3106POPC   C3A41597   0.274  19.994   7.151
 3106POPC   C4A41598   0.164  20.202   7.577
 3106POPC   C1B41599   0.508  19.468   6.236
 3106POPC   C2B41600   0.528  19.607   6.635
 3106POPC   C3B41601   0.805  19.562   6.953
 3106POPC   C4B41602   0.689  19.732   7.326
 3107POPC   NC341603  27.666  44.192   5.444
 3107POPC   PO441604  27.912  43.513   5.541
 3107POPC   GL141605  27.648  43.723   5.860
 3107POPC   GL241606  27.617  44.066   5.920
 3107POPC   C1A41607  27.600  43.760   6.323
 3107POPC   D2A41608  27.353  43.949   6.651
 3107POPC   C3A41609  27.489  43.747   6.997
 3107POPC   C4A41610  27.901  43.559   7.105
 3107POPC   C1B41611  27.752  44.257   6.265
 3107POPC   C2B41612  27.861  44.113   6.654
 3107POPC   C3B41613  27.844  44.092   7.097
 3107POPC   C4B41614  28.088  44.224   7.413
 3108POPC   NC341615  39.986  20.347   5.386
 3108POPC   PO441616  39.983  20.983   5.572
 3108POPC   GL141617  40.206  20.657   5.743
 3108POPC   GL241618  40.416  20.861   5.901
 3108POPC   C1A41619  40.061  20.525   6.152
 3108POPC   D2A41620  39.777  20.616   6.504
 3108POPC   C3A41621  39.984  20.484   6.859
 3108POPC   C4A41622  39.857  20.331   7.229
 3108POPC   C1B41623  40.242  21.053   6.244
 3108POPC   C2B41624  40.138  20.963   6.657
 3108POPC   C3B41625  40.383  20.896   7.023
 3108POPC   C4B41626  40.360  20.937   7.489
 3109POPC   NC341627  11.087  31.711   5.376
 3109POPC   PO441628  11.421  31.151   5.413
 3109POPC   GL141629  11.117  31.318   5.746
 3109POPC   GL241630  10.975  31.661   5.852
 3109POPC   C1A41631  11.236  31.328   6.183
 3109POPC   D2A41632  11.445  31.517   6.548
 3109POPC   C3A41633  11.509  31.330   6.947
 3109POPC   C4A41634  11.264  31.501   7.258
 3109POPC   C1B41635  11.111  31.820   6.223
 3109POPC   C2B41636  10.981  31.699   6.628
 3109POPC   C3B41637  11.014  31.884   7.017
 3109POPC   C4B41638  11.201  32.031   7.394
 3110POPC   NC341639  26.598   4.220   5.544
 3110POPC   PO441640  26.925   4.650   5.237
 3110POPC   GL141641  26.935   4.517   5.737
 3110POPC   GL241642  26.998   4.213   5.871
 3110POPC   C1A41643  26.628   4.442   6.145
 3110POPC   D2A41644  26.731   4.377   6.578
 3110POPC   C3A41645  26.450   4.404   6.911
 3110POPC   C4A41646  26.539   4.148   7.263
 3110POPC   C1B41647  27.146   4.466   6.234
 3110POPC   C2B41648  27.182   4.609   6.684
 3110POPC   C3B41649  26.954   4.463   7.073
 3110POPC   C4B41650  26.776   4.528   7.508
 3111POPC   NC341651  13.207   5.012   5.568
 3111POPC   PO441652  13.864   5.280   5.545
 3111POPC   GL141653  13.763   5.116   5.922
 3111POPC   GL241654  13.427   5.197   5.999
 3111POPC   C1A41655  13.891   5.178   6.344
 3111POPC   D2A41656  13.642   5.083   6.730
 3111POPC   C3A41657  13.818   5.002   7.144
 3111POPC   C4A41658  13.718   5.095   7.582
 3111POPC   C1B41659  13.470   4.851   6.273
 3111POPC   C2B41660  13.213   4.706   6.607
 3111POPC   C3B41661  13.184   4.849   7.043
 3111POPC   C4B41662  13.235   4.936   7.476
 3112POPC   NC341663  27.160  36.712   5.594
 3112POPC   PO441664  27.621  37.301   5.472
 3112POPC   GL141665  27.436  37.119   5.786
 3112POPC   GL241666  27.684  36.872   5.780
 3112POPC   C1A41667  27.311  36.968   6.187
 3112POPC   D2A41668  27.534  36.942   6.558
 3112POPC   C3A41669  27.457  36.711   6.895
 3112POPC   C4A41670  27.388  36.940   7.251
 3112POPC   C1B41671  27.763  36.669   6.181
 3112POPC   C2B41672  27.919  36.434   6.555
 3112POPC   C3B41673  27.937  36.428   7.002
 3112POPC   C4B41674  27.933  36.798   7.274
 3113POPC   NC341675  20.176  27.060   5.432
 3113POPC   PO441676  19.890  27.725   5.545
 3113POPC   GL141677  19.913  27.379   5.796
 3113POPC   GL241678  19.550  27.407   5.832
 3113POPC   C1A41679  19.925  27.394   6.246
 3113POPC   D2A41680  20.029  27.245   6.663
 3113POPC   C3A41681  20.138  27.524   7.029
 3113POPC   C4A41682  19.905  27.895   7.137
 3113POPC   C1B41683  19.367  27.332   6.240
 3113POPC   C2B41684  19.513  27.164   6.648
 3113POPC   C3B41685  19.709  27.153   7.079
 3113POPC   C4B41686  19.727  27.469   7.386
 3114POPC   NC341687  16.076   9.064   5.549
 3114POPC   PO441688  15.465   8.984   5.317
 3114POPC   GL141689  15.677   8.931   5.832
 3114POPC   GL241690  15.605   9.195   6.084
 3114POPC   C1A41691  16.067   9.019   6.184
 3114POPC   D2A41692  16.116   9.314   6.553
 3114POPC   C3A41693  15.912   9.142   6.942
 3114POPC   C4A41694  16.068   8.946   7.305
 3114POPC   C1B41695  15.633   8.884   6.402
 3114POPC   C2B41696  15.481   8.846   6.789
 3114POPC   C3B41697  15.598   8.701   7.187
 3114POPC   C4B41698  15.705   8.737   7.605
 3115POPC   NC341699  42.072  40.255   5.573
 3115POPC   PO441700  42.431  39.768   5.249
 3115POPC   GL141701  42.321  39.822   5.690
 3115POPC   GL241702  42.476  40.088   5.856
 3115POPC   C1A41703  42.125  39.815   6.113
 3115POPC   D2A41704  42.032  39.788   6.557
 3115POPC   C3A41705  42.204  40.099   6.857
 3115POPC   C4A41706  42.042  40.282   7.226
 3115POPC   C1B41707  42.666  39.852   6.160
 3115POPC   C2B41708  42.557  39.859   6.564
 3115POPC   C3B41709  42.674  39.961   6.968
 3115POPC   C4B41710  42.502  40.050   7.359
 3116POPC   NC341711   2.666  12.266   5.429
 3116POPC   PO441712   2.643  11.574   5.470
 3116POPC   GL141713   2.685  11.757   5.895
 3116POPC   GL241714   2.879  12.081   5.869
 3116POPC   C1A41715   2.644  11.952   6.290
 3116POPC   D2A41716   2.475  12.218   6.595
 3116POPC   C3A41717   2.553  12.032   6.981
 3116POPC   C4A41718   2.515  12.241   7.341
 3116POPC   C1B41719   3.165  12.208   6.256
 3116POPC   C2B41720   3.264  12.229   6.718
 3116POPC   C3B41721   3.052  12.249   7.150
 3116POPC   C4B41722   2.886  11.906   7.357
 3117POPC   NC341723   0.010  38.741   4.990
 3117POPC   PO441724  44.687  38.537   5.554
 3117POPC   GL141725  44.730  38.410   5.915
 3117POPC   GL241726  44.985  38.166   5.897
 3117POPC   C1A41727  44.673  38.581   6.306
 3117POPC   D2A41728  44.721  38.426   6.664
 3117POPC   C3A41729  44.506  38.556   6.975
 3117POPC   C4A41730  44.574  38.464   7.396
 3117POPC   C1B41731   0.159  38.492   6.218
 3117POPC   C2B41732   0.198  38.587   6.638
 3117POPC   C3B41733   0.025  38.550   7.053
 3117POPC   C4B41734   0.109  38.709   7.452
 3118POPC   NC341735   1.804  12.608   5.454
 3118POPC   PO441736   2.060  13.204   5.042
 3118POPC   GL141737   2.089  13.084   5.551
 3118POPC   GL241738   2.386  12.866   5.685
 3118POPC   C1A41739   1.980  13.011   6.046
 3118POPC   D2A41740   1.877  12.793   6.499
 3118POPC   C3A41741   1.931  13.021   6.930
 3118POPC   C4A41742   2.117  13.412   7.124
 3118POPC   C1B41743   2.481  12.921   6.157
 3118POPC   C2B41744   2.395  12.779   6.615
 3118POPC   C3B41745   2.247  12.605   7.043
 3118POPC   C4B41746   2.313  12.659   7.528
 3119POPC   NC341747  16.241  39.025   5.355
 3119POPC   PO441748  15.911  39.651   5.243
 3119POPC   GL141749  15.889  39.444   5.676
 3119POPC   GL241750  16.176  39.279   5.799
 3119POPC   C1A41751  15.815  39.373   6.154
 3119POPC   D2A41752  16.125  39.440   6.502
 3119POPC   C3A41753  15.997  39.358   6.916
 3119POPC   C4A41754  15.876  39.234   7.340
 3119POPC   C1B41755  16.230  39.035   6.186
 3119POPC   C2B41756  16.273  38.924   6.622
 3119POPC   C3B41757  16.192  38.923   7.074
 3119POPC   C4B41758  16.503  39.000   7.336
 3120POPC   NC341759   0.793  10.351   5.487
 3120POPC   PO441760   0.085  10.489   5.361
 3120POPC   GL141761   0.350  10.606   5.740
 3120POPC   GL241762   0.529  10.320   5.933
 3120POPC   C1A41763   0.293  10.673   6.209
 3120POPC   D2A41764   0.228  10.477   6.642
 3120POPC   C3A41765   0.321  10.748   6.998
 3120POPC   C4A41766   0.307  10.667   7.469
 3120POPC   C1B41767   0.666  10.311   6.389
 3120POPC   C2B41768   0.748  10.557   6.780
 3120POPC   C3B41769   0.752  10.610   7.255
 3120POPC   C4B41770   0.684  10.329   7.593
 3121POPC   NC341771   2.238  13.658   5.131
 3121POPC   PO441772   2.944  13.601   5.288
 3121POPC   GL141773   2.781  13.702   5.688
 3121POPC   GL241774   2.672  13.406   5.865
 3121POPC   C1A41775   2.867  13.785   6.134
 3121POPC   D2A41776   2.978  13.603   6.543
 3121POPC   C3A41777   3.095  13.864   6.883
 3121POPC   C4A41778   2.974  13.746   7.289
 3121POPC   C1B41779   2.482  13.436   6.247
 3121POPC   C2B41780   2.457  13.652   6.625
 3121POPC   C3B41781   2.631  13.517   6.992
 3121POPC   C4B41782   2.560  13.506   7.420
 3122POPC   NC341783  28.762   8.186   5.578
 3122POPC   PO441784  29.125   8.679   5.166
 3122POPC   GL141785  29.322   8.670   5.692
 3122POPC   GL241786  29.204   8.300   5.805
 3122POPC   C1A41787  29.456   8.521   6.166
 3122POPC   D2A41788  29.208   8.430   6.570
 3122POPC   C3A41789  29.418   8.222   6.906
 3122POPC   C4A41790  29.373   8.075   7.312
 3122POPC   C1B41791  28.921   8.255   6.193
 3122POPC   C2B41792  28.792   8.071   6.594
 3122POPC   C3B41793  28.933   8.049   7.012
 3122POPC   C4B41794  28.792   8.163   7.417
 3123POPC   NC341795  42.923  15.363   5.481
 3123POPC   PO441796  43.635  15.337   5.503
 3123POPC   GL141797  43.414  14.967   5.764
 3123POPC   GL241798  43.016  14.953   5.796
 3123POPC   C1A41799  43.343  15.000   6.225
 3123POPC   D2A41800  43.258  15.359   6.542
 3123POPC   C3A41801  43.424  15.316   6.954
 3123POPC   C4A41802  43.219  15.051   7.199
 3123POPC   C1B41803  42.884  15.230   6.158
 3123POPC   C2B41804  42.714  15.324   6.577
 3123POPC   C3B41805  42.899  15.387   6.976
 3123POPC   C4B41806  42.802  15.296   7.401
 3124POPC   NC341807   5.547  34.025   5.684
 3124POPC   PO441808   5.978  33.515   5.455
 3124POPC   GL141809   5.879  33.714   5.871
 3124POPC   GL241810   6.049  34.034   5.872
 3124POPC   C1A41811   5.667  33.839   6.297
 3124POPC   D2A41812   5.615  34.147   6.656
 3124POPC   C3A41813   5.676  33.914   7.067
 3124POPC   C4A41814   5.528  33.587   7.360
 3124POPC   C1B41815   6.174  33.920   6.274
 3124POPC   C2B41816   6.097  33.937   6.738
 3124POPC   C3B41817   6.220  33.801   7.164
 3124POPC   C4B41818   6.410  33.792   7.576
 3125POPC   NC341819  37.905  31.764   5.338
 3125POPC   PO441820  37.473  31.189   5.493
 3125POPC   GL141821  37.499  31.427   5.873
 3125POPC   GL241822  37.537  31.794   5.846
 3125POPC   C1A41823  37.649  31.511   6.298
 3125POPC   D2A41824  37.824  31.904   6.495
 3125POPC   C3A41825  37.959  31.766   6.892
 3125POPC   C4A41826  37.710  31.540   7.173
 3125POPC   C1B41827  37.351  31.909   6.246
 3125POPC   C2B41828  37.329  31.978   6.700
 3125POPC   C3B41829  37.276  31.796   7.105
 3125POPC   C4B41830  37.465  31.788   7.574
 3126POPC   NC341831   4.577   1.058   5.435
 3126POPC   PO441832   4.011   1.425   5.307
 3126POPC   GL141833   4.178   1.434   5.749
 3126POPC   GL241834   4.492   1.309   5.846
 3126POPC   C1A41835   4.191   1.469   6.224
 3126POPC   D2A41836   3.906   1.457   6.580
 3126POPC   C3A41837   4.114   1.351   6.913
 3126POPC   C4A41838   4.165   1.292   7.319
 3126POPC   C1B41839   4.601   1.128   6.230
 3126POPC   C2B41840   4.609   1.292   6.601
 3126POPC   C3B41841   4.614   1.289   7.001
 3126POPC   C4B41842   4.620   1.050   7.336
 3127POPC   NC341843  26.256   2.624   5.364
 3127POPC   PO441844  25.757   3.176   5.351
 3127POPC   GL141845  25.756   2.969   5.772
 3127POPC   GL241846  25.877   2.638   5.765
 3127POPC   C1A41847  25.752   2.815   6.206
 3127POPC   D2A41848  26.065   2.894   6.507
 3127POPC   C3A41849  25.981   2.992   6.938
 3127POPC   C4A41850  26.371   3.113   7.151
 3127POPC   C1B41851  26.218   2.635   6.043
 3127POPC   C2B41852  26.300   2.416   6.414
 3127POPC   C3B41853  26.164   2.500   6.810
 3127POPC   C4B41854  26.228   2.630   7.220
 3128POPC   NC341855   1.955  21.101   5.398
 3128POPC   PO441856   1.920  21.700   5.644
 3128POPC   GL141857   2.120  21.487   5.930
 3128POPC   GL241858   2.016  21.168   5.906
 3128POPC   C1A41859   2.000  21.550   6.339
 3128POPC   D2A41860   1.717  21.673   6.642
 3128POPC   C3A41861   1.991  21.634   6.988
 3128POPC   C4A41862   2.022  21.540   7.406
 3128POPC   C1B41863   1.731  21.130   6.254
 3128POPC   C2B41864   1.810  21.180   6.697
 3128POPC   C3B41865   1.663  21.262   7.122
 3128POPC   C4B41866   1.697  21.184   7.575
 3129POPC   NC341867  19.999  26.364   5.523
 3129POPC   PO441868  19.738  26.962   5.328
 3129POPC   GL141869  19.688  26.917   5.764
 3129POPC   GL241870  20.004  26.784   5.826
 3129POPC   C1A41871  19.718  26.922   6.232
 3129POPC   D2A41872  19.875  26.645   6.564
 3129POPC   C3A41873  19.688  26.651   6.962
 3129POPC   C4A41874  19.916  26.741   7.344
 3129POPC   C1B41875  20.238  26.969   6.167
 3129POPC   C2B41876  20.353  26.868   6.602
 3129POPC   C3B41877  20.250  27.006   7.062
 3129POPC   C4B41878  20.146  27.189   7.482
 3130POPC   NC341879   7.247   2.506   5.534
 3130POPC   PO441880   7.888   2.705   5.396
 3130POPC   GL141881   7.720   2.722   5.799
 3130POPC   GL241882   7.504   2.996   5.805
 3130POPC   C1A41883   7.493   2.576   6.186
 3130POPC   D2A41884   7.292   2.459   6.587
 3130POPC   C3A41885   7.505   2.501   6.994
 3130POPC   C4A41886   7.303   2.597   7.389
 3130POPC   C1B41887   7.759   3.024   6.226
 3130POPC   C2B41888   7.588   2.929   6.665
 3130POPC   C3B41889   7.266   2.952   7.028
 3130POPC   C4B41890   7.339   3.093   7.488
 3131POPC   NC341891  44.960  28.177   5.187
 3131POPC   PO441892   0.387  28.624   5.416
 3131POPC   GL141893   0.377  28.449   5.862
 3131POPC   GL241894   0.351  28.059   6.000
 3131POPC   C1A41895   0.286  28.638   6.250
 3131POPC   D2A41896   0.591  28.731   6.578
 3131POPC   C3A41897   0.429  28.689   6.970
 3131POPC   C4A41898   0.468  28.475   7.348
 3131POPC   C1B41899   0.075  28.164   6.327
 3131POPC   C2B41900   0.112  28.405   6.682
 3131POPC   C3B41901   0.236  28.165   7.012
 3131POPC   C4B41902   0.155  28.100   7.453
 3132POPC   NC341903  22.213  13.836   5.356
 3132POPC   PO441904  22.452  13.195   5.296
 3132POPC   GL141905  22.413  13.424   5.704
 3132POPC   GL241906  22.523  13.757   5.794
 3132POPC   C1A41907  22.132  13.506   6.061
 3132POPC   D2A41908  22.079  13.279   6.474
 3132POPC   C3A41909  22.089  13.512   6.867
 3132POPC   C4A41910  21.827  13.630   7.213
 3132POPC   C1B41911  22.712  13.860   6.212
 3132POPC   C2B41912  22.562  13.976   6.622
 3132POPC   C3B41913  22.556  13.723   7.004
 3132POPC   C4B41914  22.514  13.797   7.433
 3133POPC   NC341915  23.622  10.004   4.868
 3133POPC   PO441916  23.676  10.496   5.342
 3133POPC   GL141917  23.759  10.504   5.790
 3133POPC   GL241918  23.890  10.166   5.885
 3133POPC   C1A41919  23.628  10.442   6.231
 3133POPC   D2A41920  23.571  10.223   6.612
 3133POPC   C3A41921  23.557  10.521   6.949
 3133POPC   C4A41922  23.623  10.730   7.341
 3133POPC   C1B41923  24.053  10.087   6.303
 3133POPC   C2B41924  24.074  10.230   6.727
 3133POPC   C3B41925  23.904  10.182   7.135
 3133POPC   C4B41926  23.900  10.339   7.579
 3134POPC   NC341927   8.702  29.820   5.632
 3134POPC   PO441928   9.057  30.268   5.527
 3134POPC   GL141929   8.984  30.161   6.000
 3134POPC   GL241930   8.703  29.912   6.120
 3134POPC   C1A41931   9.007  30.066   6.479
 3134POPC   D2A41932   8.831  29.749   6.784
 3134POPC   C3A41933   8.736  29.883   7.195
 3134POPC   C4A41934   9.003  30.194   7.442
 3134POPC   C1B41935   9.125  29.682   6.146
 3134POPC   C2B41936   9.403  29.702   6.499
 3134POPC   C3B41937   9.323  29.593   6.919
 3134POPC   C4B41938   9.124  29.539   7.306
 3135POPC   NC341939   6.056  37.933   5.502
 3135POPC   PO441940   5.757  37.357   5.355
 3135POPC   GL141941   5.847  37.497   5.773
 3135POPC   GL241942   5.673  37.820   5.867
 3135POPC   C1A41943   5.974  37.583   6.205
 3135POPC   D2A41944   5.673  37.618   6.531
 3135POPC   C3A41945   5.840  37.835   6.867
 3135POPC   C4A41946   6.105  37.694   7.210
 3135POPC   C1B41947   5.575  38.069   6.249
 3135POPC   C2B41948   5.497  38.267   6.654
 3135POPC   C3B41949   5.619  38.249   7.093
 3135POPC   C4B41950   5.642  37.895   7.336
 3136POPC   NC341951  40.837   9.108   5.488
 3136POPC   PO441952  40.649   8.438   5.420
 3136POPC   GL141953  40.658   8.693   5.783
 3136POPC   GL241954  40.400   8.919   5.790
 3136POPC   C1A41955  40.759   8.688   6.224
 3136POPC   D2A41956  41.085   8.802   6.530
 3136POPC   C3A41957  40.901   9.007   6.876
 3136POPC   C4A41958  40.487   8.871   7.030
 3136POPC   C1B41959  40.584   9.159   6.140
 3136POPC   C2B41960  40.465   9.126   6.558
 3136POPC   C3B41961  40.419   9.388   6.862
 3136POPC   C4B41962  40.642   9.310   7.203
 3137POPC   NC341963   5.945   4.334   5.309
 3137POPC   PO441964   5.354   4.079   5.145
 3137POPC   GL141965   5.597   4.201   5.650
 3137POPC   GL241966   5.883   4.449   5.801
 3137POPC   C1A41967   5.715   4.085   6.126
 3137POPC   D2A41968   5.854   4.128   6.609
 3137POPC   C3A41969   5.745   4.453   6.971
 3137POPC   C4A41970   5.837   4.460   7.441
 3137POPC   C1B41971   6.091   4.408   6.232
 3137POPC   C2B41972   6.142   4.601   6.677
 3137POPC   C3B41973   6.250   4.493   7.136
 3137POPC   C4B41974   6.300   4.406   7.617
 3138POPC   NC341975  13.550  25.499   5.190
 3138POPC   PO441976  13.749  24.949   5.547
 3138POPC   GL141977  13.527  25.162   5.833
 3138POPC   GL241978  13.581  25.492   5.830
 3138POPC   C1A41979  13.322  25.046   6.204
 3138POPC   D2A41980  13.521  24.867   6.568
 3138POPC   C3A41981  13.308  24.943   6.942
 3138POPC   C4A41982  13.314  25.368   7.132
 3138POPC   C1B41983  13.751  25.303   6.262
 3138POPC   C2B41984  13.638  25.349   6.707
 3138POPC   C3B41985  13.792  25.576   7.050
 3138POPC   C4B41986  14.171  25.844   7.083
 3139POPC   NC341987   7.662  13.334   5.419
 3139POPC   PO441988   7.353  13.921   5.469
 3139POPC   GL141989   7.212  13.577   5.780
 3139POPC   GL241990   7.533  13.447   5.896
 3139POPC   C1A41991   7.134  13.403   6.230
 3139POPC   D2A41992   7.156  13.160   6.630
 3139POPC   C3A41993   7.175  13.434   6.999
 3139POPC   C4A41994   7.291  13.633   7.377
 3139POPC   C1B41995   7.505  13.751   6.226
 3139POPC   C2B41996   7.296  13.777   6.625
 3139POPC   C3B41997   7.456  13.941   7.021
 3139POPC   C4B41998   7.571  14.056   7.455
 3140POPC   NC341999  41.343   6.086   5.669
 3140POPC   PO442000  41.746   5.655   5.380
 3140POPC   GL142001  41.637   5.696   5.807
 3140POPC   GL242002  41.809   6.026   5.860
 3140POPC   C1A42003  41.468   5.793   6.230
 3140POPC   D2A42004  41.463   5.631   6.636
 3140POPC   C3A42005  41.382   5.940   6.939
 3140POPC   C4A42006  41.334   5.616   7.172
 3140POPC   C1B42007  41.991   5.736   6.176
 3140POPC   C2B42008  41.949   5.761   6.635
 3140POPC   C3B42009  41.841   5.708   7.089
 3140POPC   C4B42010  41.662   6.055   7.344
 3141POPC   NC342011  17.455  35.716   5.562
 3141POPC   PO442012  17.280  36.384   5.342
 3141POPC   GL142013  17.470  36.260   5.758
 3141POPC   GL242014  17.660  36.563   5.829
 3141POPC   C1A42015  17.510  35.988   6.168
 3141POPC   D2A42016  17.269  35.857   6.558
 3141POPC   C3A42017  17.408  35.966   7.007
 3141POPC   C4A42018  17.730  35.741   7.254
 3141POPC   C1B42019  17.693  36.457   6.233
 3141POPC   C2B42020  17.689  36.230   6.638
 3141POPC   C3B42021  17.841  36.276   7.066
 3141POPC   C4B42022  17.709  36.217   7.482
 3142POPC   NC342023  33.421   8.304   5.362
 3142POPC   PO442024  33.944   7.986   5.134
 3142POPC   GL142025  33.841   8.103   5.598
 3142POPC   GL242026  33.605   7.876   5.746
 3142POPC   C1A42027  33.685   8.273   6.052
 3142POPC   D2A42028  33.500   8.307   6.478
 3142POPC   C3A42029  33.751   8.431   6.831
 3142POPC   C4A42030  33.839   8.257   7.216
 3142POPC   C1B42031  33.926   7.760   6.069
 3142POPC   C2B42032  33.998   7.646   6.530
 3142POPC   C3B42033  33.757   7.762   6.917
 3142POPC   C4B42034  33.913   7.771   7.326
 3143POPC   NC342035  16.282  10.811   5.493
 3143POPC   PO442036  15.910  10.259   5.456
 3143POPC   GL142037  15.926  10.554   5.790
 3143POPC   GL242038  15.587  10.719   5.861
 3143POPC   C1A42039  16.186  10.642   6.156
 3143POPC   D2A42040  16.031  10.780   6.584
 3143POPC   C3A42041  16.162  10.589   6.955
 3143POPC   C4A42042  16.072  10.747   7.338
 3143POPC   C1B42043  15.673  10.592   6.288
 3143POPC   C2B42044  15.704  10.392   6.710
 3143POPC   C3B42045  15.656  10.522   7.140
 3143POPC   C4B42046  15.745  10.366   7.594
 3144POPC   NC342047  36.307  10.486   5.501
 3144POPC   PO442048  35.674  10.608   5.269
 3144POPC   GL142049  35.890  10.622   5.727
 3144POPC   GL242050  36.196  10.714   5.921
 3144POPC   C1A42051  36.016  10.283   6.111
 3144POPC   D2A42052  36.024  10.062   6.536
 3144POPC   C3A42053  36.001  10.338   6.892
 3144POPC   C4A42054  36.207  10.345   7.273
 3144POPC   C1B42055  36.389  10.748   6.268
 3144POPC   C2B42056  36.253  10.736   6.649
 3144POPC   C3B42057  36.513  10.629   6.942
 3144POPC   C4B42058  36.547  10.719   7.383
 3145POPC   NC342059   8.728   2.937   5.176
 3145POPC   PO442060   9.384   3.141   5.210
 3145POPC   GL142061   9.092   2.769   5.522
 3145POPC   GL242062   8.835   2.943   5.797
 3145POPC   C1A42063   9.000   2.493   5.959
 3145POPC   D2A42064   9.031   2.690   6.391
 3145POPC   C3A42065   9.010   2.578   6.854
 3145POPC   C4A42066   8.741   2.443   7.228
 3145POPC   C1B42067   8.941   3.141   6.164
 3145POPC   C2B42068   8.827   3.104   6.578
 3145POPC   C3B42069   9.036   3.132   6.950
 3145POPC   C4B42070   9.004   2.873   7.288
 3146POPC   NC342071  12.054  44.949   5.313
 3146POPC   PO442072  12.487  44.600   5.434
 3146POPC   GL142073  12.071  44.593   5.697
 3146POPC   GL242074  11.968  44.931   5.822
 3146POPC   C1A42075  11.946  44.558   6.168
 3146POPC   D2A42076  11.848  44.782   6.592
 3146POPC   C3A42077  11.995  44.586   6.983
 3146POPC   C4A42078  12.101  44.562   7.420
 3146POPC   C1B42079  12.178   0.010   6.256
 3146POPC   C2B42080  12.339  44.902   6.703
 3146POPC   C3B42081  12.437  44.860   7.147
 3146POPC   C4B42082  12.414   0.201   7.470
 3147POPC   NC342083  33.185  23.524   5.367
 3147POPC   PO442084  32.805  24.011   5.291
 3147POPC   GL142085  32.829  23.763   5.696
 3147POPC   GL242086  32.503  23.893   5.746
 3147POPC   C1A42087  33.030  23.570   6.085
 3147POPC   D2A42088  33.141  23.538   6.532
 3147POPC   C3A42089  32.943  23.655   6.906
 3147POPC   C4A42090  33.035  23.755   7.288
 3147POPC   C1B42091  32.610  23.815   6.169
 3147POPC   C2B42092  32.746  23.950   6.545
 3147POPC   C3B42093  32.588  24.098   6.941
 3147POPC   C4B42094  32.532  23.854   7.242
 3148POPC   NC342095   2.880  22.314   5.270
 3148POPC   PO442096   2.829  21.863   5.730
 3148POPC   GL142097   2.553  22.224   5.874
 3148POPC   GL242098   2.755  22.508   5.816
 3148POPC   C1A42099   2.374  22.246   6.314
 3148POPC   D2A42100   2.465  22.351   6.766
 3148POPC   C3A42101   2.411  22.038   7.100
 3148POPC   C4A42102   2.603  22.036   7.527
 3148POPC   C1B42103   2.882  22.303   6.237
 3148POPC   C2B42104   2.946  22.083   6.609
 3148POPC   C3B42105   2.908  22.165   7.021
 3148POPC   C4B42106   3.049  22.334   7.379
 3149POPC   NC342107  42.187   8.261   5.417
 3149POPC   PO442108  42.799   8.206   5.559
 3149POPC   GL142109  42.425   8.154   5.879
 3149POPC   GL242110  42.091   7.953   5.794
 3149POPC   C1A42111  42.241   8.288   6.300
 3149POPC   D2A42112  42.061   8.500   6.690
 3149POPC   C3A42113  42.311   8.481   7.074
 3149POPC   C4A42114  42.538   8.054   7.104
 3149POPC   C1B42115  41.860   7.965   6.189
 3149POPC   C2B42116  41.912   7.937   6.650
 3149POPC   C3B42117  41.997   8.083   7.102
 3149POPC   C4B42118  41.958   8.318   7.514
 3150POPC   NC342119  12.980   3.989   5.213
 3150POPC   PO442120  12.293   3.971   5.350
 3150POPC   GL142121  12.440   3.633   5.688
 3150POPC   GL242122  12.771   3.513   5.668
 3150POPC   C1A42123  12.412   3.594   6.163
 3150POPC   D2A42124  12.659   3.623   6.592
 3150POPC   C3A42125  12.612   3.554   7.078
 3150POPC   C4A42126  12.610   3.615   7.573
 3150POPC   C1B42127  12.894   3.438   6.121
 3150POPC   C2B42128  13.126   3.385   6.510
 3150POPC   C3B42129  13.050   3.280   6.945
 3150POPC   C4B42130  13.031   3.394   7.377
 3151POPC   NC342131   1.165   3.854   5.637
 3151POPC   PO442132   1.536   3.263   5.617
 3151POPC   GL142133   1.344   3.372   5.976
 3151POPC   GL242134   1.007   3.388   5.824
 3151POPC   C1A42135   1.443   3.570   6.375
 3151POPC   D2A42136   1.449   3.951   6.629
 3151POPC   C3A42137   1.346   3.828   7.028
 3151POPC   C4A42138   1.146   3.484   7.204
 3151POPC   C1B42139   0.924   3.620   6.237
 3151POPC   C2B42140   0.979   3.617   6.701
 3151POPC   C3B42141   0.813   3.831   7.051
 3151POPC   C4B42142   1.041   3.951   7.438
 3152POPC   NC342143   3.654  33.739   5.221
 3152POPC   PO442144   3.397  34.333   5.472
 3152POPC   GL142145   3.574  33.954   5.698
 3152POPC   GL242146   3.270  33.824   5.829
 3152POPC   C1A42147   3.646  33.920   6.160
 3152POPC   D2A42148   3.353  33.904   6.505
 3152POPC   C3A42149   3.431  33.724   6.905
 3152POPC   C4A42150   3.382  33.872   7.303
 3152POPC   C1B42151   3.269  33.517   6.175
 3152POPC   C2B42152   3.354  33.332   6.567
 3152POPC   C3B42153   3.070  33.361   6.944
 3152POPC   C4B42154   3.307  33.374   7.295
 3153POPC   NC342155  24.853   2.520   5.323
 3153POPC   PO442156  24.276   2.851   5.429
 3153POPC   GL142157  24.445   2.708   5.818
 3153POPC   GL242158  24.797   2.579   5.823
 3153POPC   C1A42159  24.563   2.752   6.248
 3153POPC   D2A42160  24.382   2.653   6.628
 3153POPC   C3A42161  24.504   2.768   7.023
 3153POPC   C4A42162  24.743   2.878   7.363
 3153POPC   C1B42163  24.759   2.286   6.174
 3153POPC   C2B42164  24.606   2.191   6.582
 3153POPC   C3B42165  24.771   2.341   6.932
 3153POPC   C4B42166  24.669   2.379   7.323
 3154POPC   NC342167  44.225  19.377   5.149
 3154POPC   PO442168  43.790  19.917   5.338
 3154POPC   GL142169  43.774  19.958   5.788
 3154POPC   GL242170  43.616  19.648   5.790
 3154POPC   C1A42171  43.953  19.754   6.187
 3154POPC   D2A42172  43.861  19.493   6.553
 3154POPC   C3A42173  44.033  19.668   6.926
 3154POPC   C4A42174  43.893  19.846   7.315
 3154POPC   C1B42175  43.447  19.776   6.176
 3154POPC   C2B42176  43.510  19.901   6.602
 3154POPC   C3B42177  43.497  19.720   7.015
 3154POPC   C4B42178  43.414  19.589   7.447
 3155POPC   NC342179  32.624  37.293   5.218
 3155POPC   PO442180  32.871  37.844   5.472
 3155POPC   GL142181  33.095  37.810   5.808
 3155POPC   GL242182  33.295  37.555   5.797
 3155POPC   C1A42183  32.965  37.567   6.175
 3155POPC   D2A42184  32.698  37.418   6.508
 3155POPC   C3A42185  32.937  37.379   6.884
 3155POPC   C4A42186  33.033  37.668   7.197
 3155POPC   C1B42187  33.446  37.362   6.178
 3155POPC   C2B42188  33.321  37.474   6.561
 3155POPC   C3B42189  33.496  37.452   6.949
 3155POPC   C4B42190  33.455  37.440   7.383
 3156POPC   NC342191  19.177   4.458   5.378
 3156POPC   PO442192  18.980   3.796   5.223
 3156POPC   GL142193  19.015   4.008   5.656
 3156POPC   GL242194  18.841   4.356   5.735
 3156POPC   C1A42195  19.047   4.029   6.137
 3156POPC   D2A42196  19.167   4.243   6.566
 3156POPC   C3A42197  19.265   4.075   7.019
 3156POPC   C4A42198  19.432   4.162   7.466
 3156POPC   C1B42199  18.848   4.487   6.159
 3156POPC   C2B42200  18.615   4.285   6.512
 3156POPC   C3B42201  18.795   4.251   6.917
 3156POPC   C4B42202  19.050   4.518   7.190
 3157POPC   NC342203  12.080   3.564   5.305
 3157POPC   PO442204  12.117   2.987   5.289
 3157POPC   GL142205  11.964   3.329   5.730
 3157POPC   GL242206  11.961   3.739   5.768
 3157POPC   C1A42207  11.903   3.474   6.202
 3157POPC   D2A42208  11.782   3.574   6.644
 3157POPC   C3A42209  12.123   3.521   6.907
 3157POPC   C4A42210  12.183   3.430   7.337
 3157POPC   C1B42211  12.049   3.964   6.129
 3157POPC   C2B42212  12.194   3.884   6.524
 3157POPC   C3B42213  12.193   4.039   6.918
 3157POPC   C4B42214  12.329   3.940   7.317
 3158POPC   NC342215  22.328  18.283   5.438
 3158POPC   PO442216  21.692  18.588   5.567
 3158POPC   GL142217  22.039  18.448   5.864
 3158POPC   GL242218  22.398  18.569   5.839
 3158POPC   C1A42219  22.271  18.113   6.090
 3158POPC   D2A42220  22.438  18.065   6.516
 3158POPC   C3A42221  22.241  18.079   6.928
 3158POPC   C4A42222  22.006  18.193   7.311
 3158POPC   C1B42223  22.592  18.511   6.212
 3158POPC   C2B42224  22.454  18.574   6.618
 3158POPC   C3B42225  22.254  18.577   6.993
 3158POPC   C4B42226  22.496  18.473   7.320
 3159POPC   NC342227  11.377  35.983   5.382
 3159POPC   PO442228  10.957  36.555   5.244
 3159POPC   GL142229  11.188  36.377   5.668
 3159POPC   GL242230  11.149  36.030   5.832
 3159POPC   C1A42231  11.473  36.333   6.093
 3159POPC   D2A42232  11.680  36.170   6.491
 3159POPC   C3A42233  11.398  36.293   6.842
 3159POPC   C4A42234  11.213  36.393   7.276
 3159POPC   C1B42235  10.941  36.322   6.114
 3159POPC   C2B42236  10.856  36.248   6.542
 3159POPC   C3B42237  10.979  36.019   6.903
 3159POPC   C4B42238  11.285  35.895   7.213
 3160POPC   NC342239  36.113  23.134   5.519
 3160POPC   PO442240  35.775  22.588   5.186
 3160POPC   GL142241  35.999  22.616   5.686
 3160POPC   GL242242  35.763  22.577   5.919
 3160POPC   C1A42243  36.105  22.910   6.138
 3160POPC   D2A42244  35.946  23.055   6.601
 3160POPC   C3A42245  36.172  23.267   6.991
 3160POPC   C4A42246  36.326  23.207   7.467
 3160POPC   C1B42247  35.838  22.549   6.362
 3160POPC   C2B42248  35.946  22.437   6.738
 3160POPC   C3B42249  35.763  22.545   7.083
 3160POPC   C4B42250  36.041  22.847   7.242
 3161POPC   NC342251  35.611  32.022   5.304
 3161POPC   PO442252  35.148  32.442   5.458
 3161POPC   GL142253  35.343  32.177   5.777
 3161POPC   GL242254  35.679  32.017   5.814
 3161POPC   C1A42255  35.513  32.342   6.159
 3161POPC   D2A42256  35.300  32.403   6.527
 3161POPC   C3A42257  35.505  32.603   6.847
 3161POPC   C4A42258  35.378  32.384   7.180
 3161POPC   C1B42259  35.560  31.849   6.259
 3161POPC   C2B42260  35.571  31.954   6.723
 3161POPC   C3B42261  35.494  31.900   7.177
 3161POPC   C4B42262  35.647  32.103   7.560
 3162POPC   NC342263   8.836  21.861   5.455
 3162POPC   PO442264   8.884  21.174   5.396
 3162POPC   GL142265   8.897  21.250   5.827
 3162POPC   GL242266   8.710  21.531   5.828
 3162POPC   C1A42267   8.900  21.305   6.278
 3162POPC   D2A42268   9.068  21.599   6.595
 3162POPC   C3A42269   9.219  21.429   6.974
 3162POPC   C4A42270   8.947  21.135   7.167
 3162POPC   C1B42271   8.468  21.606   6.209
 3162POPC   C2B42272   8.553  21.497   6.626
 3162POPC   C3B42273   8.677  21.541   7.024
 3162POPC   C4B42274   8.562  21.855   7.296
 3163POPC   NC342275   4.644   7.613   5.376
 3163POPC   PO442276   4.095   7.174   5.577
 3163POPC   GL142277   4.466   7.343   5.804
 3163POPC   GL242278   4.659   7.076   5.892
 3163POPC   C1A42279   4.510   7.625   6.180
 3163POPC   D2A42280   4.266   7.722   6.589
 3163POPC   C3A42281   4.442   7.564   6.980
 3163POPC   C4A42282   4.274   7.383   7.358
 3163POPC   C1B42283   4.723   7.177   6.291
 3163POPC   C2B42284   4.428   7.229   6.584
 3163POPC   C3B42285   4.367   7.050   6.970
 3163POPC   C4B42286   4.747   7.134   7.203
 3164POPC   NC342287  37.287  40.270   5.403
 3164POPC   PO442288  37.522  39.666   5.438
 3164POPC   GL142289  37.661  39.879   5.874
 3164POPC   GL242290  37.985  40.121   5.911
 3164POPC   C1A42291  37.648  40.129   6.292
 3164POPC   D2A42292  37.425  40.216   6.674
 3164POPC   C3A42293  37.515  40.042   7.068
 3164POPC   C4A42294  37.382  40.116   7.490
 3164POPC   C1B42295  38.043  39.809   6.202
 3164POPC   C2B42296  38.053  39.983   6.598
 3164POPC   C3B42297  38.119  40.153   7.000
 3164POPC   C4B42298  37.913  40.044   7.390
 3165POPC   NC342299  16.181   3.778   5.358
 3165POPC   PO442300  15.755   3.277   5.365
 3165POPC   GL142301  16.014   3.386   5.679
 3165POPC   GL242302  15.872   3.674   5.757
 3165POPC   C1A42303  15.890   3.348   6.141
 3165POPC   D2A42304  15.730   3.448   6.556
 3165POPC   C3A42305  16.048   3.367   6.870
 3165POPC   C4A42306  16.169   3.167   7.292
 3165POPC   C1B42307  15.789   3.853   6.147
 3165POPC   C2B42308  15.967   3.912   6.548
 3165POPC   C3B42309  15.796   3.821   6.946
 3165POPC   C4B42310  16.031   3.665   7.268
 3166POPC   NC342311   5.992   3.352   5.128
 3166POPC   PO442312   5.819   3.739   5.567
 3166POPC   GL142313   5.825   3.371   5.850
 3166POPC   GL242314   6.169   3.398   5.849
 3166POPC   C1A42315   5.643   3.148   6.245
 3166POPC   D2A42316   5.488   3.174   6.704
 3166POPC   C3A42317   5.877   3.298   6.923
 3166POPC   C4A42318   6.065   3.263   7.311
 3166POPC   C1B42319   6.077   3.660   6.220
 3166POPC   C2B42320   6.215   3.710   6.640
 3166POPC   C3B42321   6.005   3.806   6.995
 3166POPC   C4B42322   6.097   4.041   7.329
 3167POPC   NC342323  36.295  38.998   5.315
 3167POPC   PO442324  35.691  39.299   5.298
 3167POPC   GL142325  35.972  39.269   5.661
 3167POPC   GL242326  35.759  39.119   5.889
 3167POPC   C1A42327  36.198  39.436   6.050
 3167POPC   D2A42328  36.486  39.308   6.395
 3167POPC   C3A42329  36.388  39.401   6.819
 3167POPC   C4A42330  36.378  39.235   7.255
 3167POPC   C1B42331  35.714  39.114   6.318
 3167POPC   C2B42332  35.908  39.383   6.582
 3167POPC   C3B42333  35.953  39.207   6.975
 3167POPC   C4B42334  35.879  39.333   7.348
 3168POPC   NC342335  44.582  23.948   5.081
 3168POPC   PO442336  44.667  24.571   5.245
 3168POPC   GL142337  44.597  24.390   5.680
 3168POPC   GL242338  44.905  24.211   5.830
 3168POPC   C1A42339  44.597  24.453   6.159
 3168POPC   D2A42340  44.841  24.638   6.511
 3168POPC   C3A42341  44.716  24.519   6.935
 3168POPC   C4A42342  44.810  24.677   7.350
 3168POPC   C1B42343   0.043  24.189   6.272
 3168POPC   C2B42344   0.037  24.180   6.728
 3168POPC   C3B42345   0.139  24.328   7.164
 3168POPC   C4B42346   0.170  24.395   7.645
 3169POPC   NC342347  35.531  31.072   5.578
 3169POPC   PO442348  35.239  31.677   5.357
 3169POPC   GL142349  35.315  31.644   5.772
 3169POPC   GL242350  35.642  31.512   5.854
 3169POPC   C1A42351  35.082  31.721   6.121
 3169POPC   D2A42352  35.096  31.843   6.547
 3169POPC   C3A42353  35.261  31.554   6.874
 3169POPC   C4A42354  35.051  31.640   7.280
 3169POPC   C1B42355  35.422  31.337   6.210
 3169POPC   C2B42356  35.317  31.103   6.566
 3169POPC   C3B42357  35.538  31.079   6.917
 3169POPC   C4B42358  35.387  31.233   7.273
 3170POPC   NC342359  14.828   3.510   5.649
 3170POPC   PO442360  14.257   3.768   5.344
 3170POPC   GL142361  14.419   3.839   5.776
 3170POPC   GL242362  14.340   3.474   5.834
 3170POPC   C1A42363  14.472   3.743   6.246
 3170POPC   D2A42364  14.238   3.547   6.622
 3170POPC   C3A42365  14.100   3.793   6.982
 3170POPC   C4A42366  14.513   3.788   7.193
 3170POPC   C1B42367  14.277   3.214   6.224
 3170POPC   C2B42368  14.245   3.016   6.644
 3170POPC   C3B42369  14.536   3.031   7.003
 3170POPC   C4B42370  14.679   3.201   7.417
 3171POPC   NC342371  40.448  42.846   5.473
 3171POPC   PO442372  40.870  43.420   5.404
 3171POPC   GL142373  40.797  43.203   5.822
 3171POPC   GL242374  40.826  42.841   5.831
 3171POPC   C1A42375  40.511  43.068   6.186
 3171POPC   D2A42376  40.334  43.183   6.603
 3171POPC   C3A42377  40.411  42.985   7.012
 3171POPC   C4A42378  40.425  43.290   7.328
 3171POPC   C1B42379  41.020  42.925   6.236
 3171POPC   C2B42380  40.845  43.089   6.620
 3171POPC   C3B42381  40.853  43.259   7.024
 3171POPC   C4B42382  40.899  43.068   7.431
 3172POPC   NC342383  17.271  18.460   5.442
 3172POPC   PO442384  17.902  18.038   5.340
 3172POPC   GL142385  17.665  18.168   5.729
 3172POPC   GL242386  17.643  18.480   5.850
 3172POPC   C1A42387  17.550  18.138   6.203
 3172POPC   D2A42388  17.476  18.305   6.603
 3172POPC   C3A42389  17.616  18.213   7.038
 3172POPC   C4A42390  17.657  18.143   7.474
 3172POPC   C1B42391  17.645  18.663   6.231
 3172POPC   C2B42392  17.458  18.809   6.596
 3172POPC   C3B42393  17.242  18.625   6.937
 3172POPC   C4B42394  17.360  18.572   7.322
 3173POPC   NC342395  25.740  20.532   5.350
 3173POPC   PO442396  25.127  20.484   5.280
 3173POPC   GL142397  25.176  20.308   5.717
 3173POPC   GL242398  25.191  20.609   5.882
 3173POPC   C1A42399  25.034  20.166   6.134
 3173POPC   D2A42400  24.902  20.240   6.594
 3173POPC   C3A42401  25.160  20.339   6.974
 3173POPC   C4A42402  25.252  20.593   7.352
 3173POPC   C1B42403  25.228  20.591   6.339
 3173POPC   C2B42404  25.159  20.789   6.721
 3173POPC   C3B42405  25.238  21.021   7.093
 3173POPC   C4B42406  25.576  20.989   7.424
 3174POPC   NC342407   4.691  10.662   5.465
 3174POPC   PO442408   4.144  10.290   5.348
 3174POPC   GL142409   4.350  10.312   5.717
 3174POPC   GL242410   4.280  10.660   5.799
 3174POPC   C1A42411   4.280  10.232   6.141
 3174POPC   D2A42412   4.060  10.382   6.485
 3174POPC   C3A42413   4.263  10.290   6.877
 3174POPC   C4A42414   4.157  10.497   7.241
 3174POPC   C1B42415   4.580  10.630   6.141
 3174POPC   C2B42416   4.551  10.601   6.592
 3174POPC   C3B42417   4.424  10.821   6.976
 3174POPC   C4B42418   4.582  10.798   7.406
 3175POPC   NC342419  32.332  42.798   5.425
 3175POPC   PO442420  32.057  43.393   5.356
 3175POPC   GL142421  32.115  43.150   5.717
 3175POPC   GL242422  32.488  43.141   5.761
 3175POPC   C1A42423  32.121  43.053   6.152
 3175POPC   D2A42424  32.367  42.909   6.524
 3175POPC   C3A42425  32.128  42.932   6.916
 3175POPC   C4A42426  31.970  43.159   7.286
 3175POPC   C1B42427  32.566  43.290   6.163
 3175POPC   C2B42428  32.283  43.419   6.504
 3175POPC   C3B42429  32.239  43.445   6.945
 3175POPC   C4B42430  32.522  43.260   7.242
 3176POPC   NC342431  23.279   6.145   5.417
 3176POPC   PO442432  22.747   5.703   5.447
 3176POPC   GL142433  22.941   5.613   5.816
 3176POPC   GL242434  23.244   5.803   5.819
 3176POPC   C1A42435  22.883   5.782   6.207
 3176POPC   D2A42436  23.078   5.755   6.571
 3176POPC   C3A42437  22.855   5.884   6.908
 3176POPC   C4A42438  22.939   5.783   7.311
 3176POPC   C1B42439  23.300   6.090   6.199
 3176POPC   C2B42440  23.159   6.256   6.624
 3176POPC   C3B42441  23.197   6.223   7.071
 3176POPC   C4B42442  22.953   6.263   7.465
 3177POPC   NC342443  20.681   3.373   5.455
 3177POPC   PO442444  20.524   4.031   5.445
 3177POPC   GL142445  20.705   3.757   5.793
 3177POPC   GL242446  21.020   3.865   5.845
 3177POPC   C1A42447  20.531   3.522   6.177
 3177POPC   D2A42448  20.289   3.667   6.564
 3177POPC   C3A42449  20.379   3.479   6.948
 3177POPC   C4A42450  20.218   3.242   7.257
 3177POPC   C1B42451  21.017   3.695   6.268
 3177POPC   C2B42452  20.788   3.641   6.660
 3177POPC   C3B42453  20.712   3.867   7.078
 3177POPC   C4B42454  20.836   3.814   7.526
 3178POPC   NC342455  18.955  30.433   5.362
 3178POPC   PO442456  19.393  30.939   5.372
 3178POPC   GL142457  19.131  30.796   5.687
 3178POPC   GL242458  19.356  30.569   5.769
 3178POPC   C1A42459  19.054  30.846   6.144
 3178POPC   D2A42460  18.785  31.118   6.468
 3178POPC   C3A42461  18.881  31.083   6.945
 3178POPC   C4A42462  19.027  30.708   7.181
 3178POPC   C1B42463  19.344  30.414   6.172
 3178POPC   C2B42464  19.315  30.235   6.604
 3178POPC   C3B42465  19.411  30.340   7.071
 3178POPC   C4B42466  19.281  30.416   7.532
 3179POPC   NC342467  25.518  38.526   5.315
 3179POPC   PO442468  25.317  37.954   5.471
 3179POPC   GL142469  25.283  38.381   5.743
 3179POPC   GL242470  25.553  38.687   5.777
 3179POPC   C1A42471  25.228  38.590   6.152
 3179POPC   D2A42472  25.264  38.331   6.507
 3179POPC   C3A42473  25.233  38.565   6.876
 3179POPC   C4A42474  25.433  38.454   7.225
 3179POPC   C1B42475  25.778  38.736   6.148
 3179POPC   C2B42476  25.574  38.771   6.525
 3179POPC   C3B42477  25.729  38.731   6.915
 3179POPC   C4B42478  25.549  38.926   7.296
 3180POPC   NC342479  34.988  38.357   5.330
 3180POPC   PO442480  34.383  38.323   5.326
 3180POPC   GL142481  34.314  38.302   5.776
 3180POPC   GL242482  34.646  38.382   5.896
 3180POPC   C1A42483  34.258  38.433   6.217
 3180POPC   D2A42484  34.535  38.336   6.554
 3180POPC   C3A42485  34.682  38.415   6.943
 3180POPC   C4A42486  34.498  38.336   7.341
 3180POPC   C1B42487  34.734  38.663   6.236
 3180POPC   C2B42488  35.006  38.603   6.559
 3180POPC   C3B42489  35.099  38.764   6.949
 3180POPC   C4B42490  34.939  38.843   7.310
 3181POPC   NC342491  10.082  12.394   5.374
 3181POPC   PO442492  10.613  12.069   5.445
 3181POPC   GL142493  10.533  12.028   5.831
 3181POPC   GL242494  10.316  12.312   5.824
 3181POPC   C1A42495  10.673  11.901   6.231
 3181POPC   D2A42496  10.919  11.899   6.587
 3181POPC   C3A42497  10.740  11.873   6.974
 3181POPC   C4A42498  10.955  12.128   7.287
 3181POPC   C1B42499  10.534  12.396   6.202
 3181POPC   C2B42500  10.796  12.429   6.547
 3181POPC   C3B42501  10.647  12.355   6.947
 3181POPC   C4B42502  10.379  12.534   7.242
 3182POPC   NC342503  22.498  24.213   5.417
 3182POPC   PO442504  21.997  24.736   5.492
 3182POPC   GL142505  22.079  24.678   5.886
 3182POPC   GL242506  22.370  24.483   5.846
 3182POPC   C1A42507  22.073  24.488   6.259
 3182POPC   D2A42508  22.100  24.666   6.611
 3182POPC   C3A42509  21.927  24.443   6.900
 3182POPC   C4A42510  22.035  24.090   7.104
 3182POPC   C1B42511  22.520  24.275   6.228
 3182POPC   C2B42512  22.336  24.176   6.645
 3182POPC   C3B42513  22.552  24.181   7.045
 3182POPC   C4B42514  22.720  24.281   7.462
 3183POPC   NC342515   2.032   9.865   5.442
 3183POPC   PO442516   1.956   9.133   5.335
 3183POPC   GL142517   2.045   9.424   5.690
 3183POPC   GL242518   1.704   9.546   5.809
 3183POPC   C1A42519   2.260   9.511   6.095
 3183POPC   D2A42520   2.419   9.358   6.489
 3183POPC   C3A42521   2.303   9.502   6.913
 3183POPC   C4A42522   2.132   9.574   7.340
 3183POPC   C1B42523   1.851   9.814   6.166
 3183POPC   C2B42524   2.111   9.861   6.550
 3183POPC   C3B42525   1.916   9.840   6.965
 3183POPC   C4B42526   1.596   9.887   7.304
 3184POPC   NC342527   7.840  34.351   5.481
 3184POPC   PO442528   7.117  34.564   5.490
 3184POPC   GL142529   7.330  34.660   5.856
 3184POPC   GL242530   7.678  34.740   5.802
 3184POPC   C1A42531   7.252  34.711   6.283
 3184POPC   D2A42532   7.277  34.550   6.693
 3184POPC   C3A42533   7.195  34.817   7.063
 3184POPC   C4A42534   7.274  34.922   7.473
 3184POPC   C1B42535   7.746  34.614   6.177
 3184POPC   C2B42536   7.762  34.689   6.585
 3184POPC   C3B42537   7.656  34.573   7.010
 3184POPC   C4B42538   7.671  34.611   7.431
 3185POPC   NC342539  39.695  34.088   5.357
 3185POPC   PO442540  40.182  33.694   5.525
 3185POPC   GL142541  39.920  33.850   5.914
 3185POPC   GL242542  39.563  33.981   5.868
 3185POPC   C1A42543  40.028  33.830   6.383
 3185POPC   D2A42544  40.414  33.736   6.655
 3185POPC   C3A42545  40.242  33.767   7.046
 3185POPC   C4A42546  39.789  33.666   7.143
 3185POPC   C1B42547  39.621  34.177   6.271
 3185POPC   C2B42548  39.652  34.041   6.729
 3185POPC   C3B42549  39.869  34.191   7.094
 3185POPC   C4B42550  39.725  34.297   7.547
 3186POPC   NC342551   8.519  28.863   5.641
 3186POPC   PO442552   7.897  29.100   5.342
 3186POPC   GL142553   7.912  29.133   5.766
 3186POPC   GL242554   8.207  29.279   5.810
 3186POPC   C1A42555   7.895  29.159   6.214
 3186POPC   D2A42556   8.040  28.923   6.539
 3186POPC   C3A42557   7.961  29.108   6.921
 3186POPC   C4A42558   8.103  29.196   7.317
 3186POPC   C1B42559   8.421  29.152   6.203
 3186POPC   C2B42560   8.575  29.034   6.593
 3186POPC   C3B42561   8.472  29.064   6.998
 3186POPC   C4B42562   8.616  29.344   7.323
 3187POPC   NC342563  39.169  24.440   5.281
 3187POPC   PO442564  39.770  24.774   5.440
 3187POPC   GL142565  39.494  24.582   5.756
 3187POPC   GL242566  39.305  24.262   5.755
 3187POPC   C1A42567  39.376  24.562   6.189
 3187POPC   D2A42568  39.383  24.754   6.586
 3187POPC   C3A42569  39.078  24.707   6.899
 3187POPC   C4A42570  39.409  24.650   7.169
 3187POPC   C1B42571  38.959  24.314   6.056
 3187POPC   C2B42572  38.968  24.384   6.503
 3187POPC   C3B42573  39.055  24.206   6.909
 3187POPC   C4B42574  39.037  24.354   7.326
 3188POPC   NC342575  40.267   6.608   5.292
 3188POPC   PO442576  39.674   6.882   5.378
 3188POPC   GL142577  39.941   6.720   5.740
 3188POPC   GL242578  40.262   6.479   5.782
 3188POPC   C1A42579  40.017   6.878   6.165
 3188POPC   D2A42580  39.842   6.825   6.584
 3188POPC   C3A42581  40.149   6.830   6.907
 3188POPC   C4A42582  40.164   6.671   7.314
 3188POPC   C1B42583  40.090   6.360   6.186
 3188POPC   C2B42584  40.183   6.390   6.640
 3188POPC   C3B42585  40.321   6.267   7.064
 3188POPC   C4B42586  40.262   6.242   7.572
 3189POPC   NC342587  30.565  35.837   5.477
 3189POPC   PO442588  30.725  36.478   5.389
 3189POPC   GL142589  30.787  36.201   5.778
 3189POPC   GL242590  30.934  35.842   5.816
 3189POPC   C1A42591  30.635  36.078   6.185
 3189POPC   D2A42592  30.617  36.268   6.579
 3189POPC   C3A42593  30.670  36.070   6.942
 3189POPC   C4A42594  30.745  36.201   7.307
 3189POPC   C1B42595  30.756  35.591   6.155
 3189POPC   C2B42596  30.746  35.729   6.569
 3189POPC   C3B42597  31.003  35.660   6.916
 3189POPC   C4B42598  30.904  35.725   7.313
 3190POPC   NC342599  41.956  15.136   5.364
 3190POPC   PO442600  42.643  15.006   5.381
 3190POPC   GL142601  42.507  15.142   5.799
 3190POPC   GL242602  42.141  15.149   5.830
 3190POPC   C1A42603  42.431  14.994   6.239
 3190POPC   D2A42604  42.338  14.825   6.649
 3190POPC   C3A42605  42.519  15.030   7.018
 3190POPC   C4A42606  42.580  14.847   7.440
 3190POPC   C1B42607  41.963  15.259   6.208
 3190POPC   C2B42608  42.175  15.311   6.574
 3190POPC   C3B42609  42.083  15.337   6.974
 3190POPC   C4B42610  42.365  15.520   7.266
 3191POPC   NC342611  25.322  18.934   5.469
 3191POPC   PO442612  24.781  19.021   5.807
 3191POPC   GL142613  25.236  19.114   5.951
 3191POPC   GL242614  25.471  18.814   5.924
 3191POPC   C1A42615  25.417  19.094   6.377
 3191POPC   D2A42616  25.125  19.216   6.705
 3191POPC   C3A42617  25.371  19.434   6.972
 3191POPC   C4A42618  25.600  19.193   7.214
 3191POPC   C1B42619  25.242  18.611   6.262
 3191POPC   C2B42620  25.267  18.696   6.719
 3191POPC   C3B42621  25.189  18.906   7.134
 3191POPC   C4B42622  25.427  18.813   7.509
 3192POPC   NC342623  22.466  16.289   5.556
 3192POPC   PO442624  22.026  15.747   5.494
 3192POPC   GL142625  21.849  15.941   5.883
 3192POPC   GL242626  21.990  16.265   5.792
 3192POPC   C1A42627  21.866  15.946   6.375
 3192POPC   D2A42628  22.172  15.756   6.641
 3192POPC   C3A42629  22.399  15.923   6.983
 3192POPC   C4A42630  22.371  15.898   7.439
 3192POPC   C1B42631  22.271  16.177   6.160
 3192POPC   C2B42632  22.205  16.274   6.591
 3192POPC   C3B42633  21.963  16.182   6.916
 3192POPC   C4B42634  21.911  16.092   7.335
 3193POPC   NC342635  40.352   7.985   5.654
 3193POPC   PO442636  40.037   8.426   5.213
 3193POPC   GL142637  40.176   8.477   5.649
 3193POPC   GL242638  39.857   8.402   5.761
 3193POPC   C1A42639  40.241   8.421   6.111
 3193POPC   D2A42640  40.044   8.057   6.323
 3193POPC   C3A42641  40.141   7.894   6.734
 3193POPC   C4A42642  40.194   7.981   7.168
 3193POPC   C1B42643  39.744   8.535   6.178
 3193POPC   C2B42644  39.881   8.506   6.580
 3193POPC   C3B42645  39.701   8.493   7.000
 3193POPC   C4B42646  39.754   8.288   7.389
 3194POPC   NC342647   5.220   9.989   5.508
 3194POPC   PO442648   5.476   9.432   5.182
 3194POPC   GL142649   5.288   9.492   5.670
 3194POPC   GL242650   4.945   9.502   5.844
 3194POPC   C1A42651   5.294   9.746   6.118
 3194POPC   D2A42652   5.106   9.744   6.547
 3194POPC   C3A42653   5.097   9.954   6.948
 3194POPC   C4A42654   5.014   9.602   7.257
 3194POPC   C1B42655   4.747   9.822   6.192
 3194POPC   C2B42656   4.621   9.916   6.674
 3194POPC   C3B42657   4.638   9.921   7.165
 3194POPC   C4B42658   4.698   9.803   7.644
 3195POPC   NC342659  15.396  28.080   5.505
 3195POPC   PO442660  15.457  27.440   5.466
 3195POPC   GL142661  15.194  27.594   5.846
 3195POPC   GL242662  15.179  27.931   5.965
 3195POPC   C1A42663  15.048  27.541   6.296
 3195POPC   D2A42664  14.998  27.690   6.731
 3195POPC   C3A42665  15.249  27.743   7.111
 3195POPC   C4A42666  15.170  27.595   7.496
 3195POPC   C1B42667  14.822  28.009   6.275
 3195POPC   C2B42668  14.723  28.121   6.735
 3195POPC   C3B42669  14.786  27.936   7.191
 3195POPC   C4B42670  14.966  28.017   7.667
 3196POPC   NC342671  27.543  34.615   5.262
 3196POPC   PO442672  27.155  34.704   5.797
 3196POPC   GL142673  27.594  34.677   5.813
 3196POPC   GL242674  27.507  34.358   5.693
 3196POPC   C1A42675  27.815  34.731   6.217
 3196POPC   D2A42676  27.930  34.701   6.659
 3196POPC   C3A42677  27.686  34.581   7.039
 3196POPC   C4A42678  27.404  34.719   7.395
 3196POPC   C1B42679  27.528  34.292   6.146
 3196POPC   C2B42680  27.448  34.488   6.540
 3196POPC   C3B42681  27.319  34.244   6.875
 3196POPC   C4B42682  27.375  34.223   7.278
 3197POPC   NC342683  11.883  19.244   5.440
 3197POPC   PO442684  11.180  18.994   5.311
 3197POPC   GL142685  11.131  19.091   5.741
 3197POPC   GL242686  11.481  19.146   5.749
 3197POPC   C1A42687  11.104  19.348   6.153
 3197POPC   D2A42688  11.020  19.461   6.611
 3197POPC   C3A42689  11.041  19.203   7.010
 3197POPC   C4A42690  11.218  19.122   7.446
 3197POPC   C1B42691  11.400  18.931   6.139
 3197POPC   C2B42692  11.410  19.094   6.553
 3197POPC   C3B42693  11.513  19.015   6.985
 3197POPC   C4B42694  11.680  18.952   7.394
 3198POPC   NC342695  18.205  29.731   5.204
 3198POPC   PO442696  18.664  30.093   5.534
 3198POPC   GL142697  18.482  29.984   5.911
 3198POPC   GL242698  18.354  30.297   6.045
 3198POPC   C1A42699  18.309  29.700   6.233
 3198POPC   D2A42700  18.251  29.438   6.630
 3198POPC   C3A42701  18.215  29.699   7.025
 3198POPC   C4A42702  18.424  30.123   7.101
 3198POPC   C1B42703  17.986  30.120   6.213
 3198POPC   C2B42704  18.005  29.935   6.606
 3198POPC   C3B42705  17.862  30.089   6.985
 3198POPC   C4B42706  18.016  30.013   7.391
 3199POPC   NC342707  13.157  27.088   5.334
 3199POPC   PO442708  12.751  26.514   5.509
 3199POPC   GL142709  13.105  26.638   5.697
 3199POPC   GL242710  12.918  26.899   5.867
 3199POPC   C1A42711  13.238  26.632   6.142
 3199POPC   D2A42712  13.006  26.835   6.476
 3199POPC   C3A42713  13.022  26.719   6.884
 3199POPC   C4A42714  12.843  26.865   7.256
 3199POPC   C1B42715  12.687  27.129   6.223
 3199POPC   C2B42716  12.687  27.277   6.682
 3199POPC   C3B42717  12.450  27.124   7.069
 3199POPC   C4B42718  12.406  26.926   7.525
 3200POPC   NC342719  25.932   3.685   5.286
 3200POPC   PO442720  26.536   3.770   5.554
 3200POPC   GL142721  26.176   3.439   5.689
 3200POPC   GL242722  25.797   3.477   5.757
 3200POPC   C1A42723  26.093   3.222   6.099
 3200POPC   D2A42724  26.157   3.449   6.502
 3200POPC   C3A42725  25.865   3.490   6.823
 3200POPC   C4A42726  25.979   3.439   7.236
 3200POPC   C1B42727  25.794   3.647   6.190
 3200POPC   C2B42728  25.791   3.929   6.561
 3200POPC   C3B42729  25.604   3.931   6.991
 3200POPC   C4B42730  25.768   3.913   7.394
 3201POPC   NC342731  43.815  30.091   5.503
 3201POPC   PO442732  43.716  29.495   5.639
 3201POPC   GL142733  43.816  29.873   5.963
 3201POPC   GL242734  43.705  30.269   5.967
 3201POPC   C1A42735  43.820  29.915   6.399
 3201POPC   D2A42736  43.734  29.654   6.747
 3201POPC   C3A42737  43.940  29.891   7.101
 3201POPC   C4A42738  43.876  29.925   7.560
 3201POPC   C1B42739  44.079  30.324   6.255
 3201POPC   C2B42740  44.085  30.235   6.722
 3201POPC   C3B42741  44.263  30.306   7.148
 3201POPC   C4B42742  44.141  30.345   7.594
 3202POPC   NC342743  40.097  13.571   5.278
 3202POPC   PO442744  39.537  13.803   5.363
 3202POPC   GL142745  39.799  13.635   5.741
 3202POPC   GL242746  40.135  13.496   5.788
 3202POPC   C1A42747  39.811  13.730   6.186
 3202POPC   D2A42748  40.140  13.872   6.460
 3202POPC   C3A42749  40.133  13.766   6.879
 3202POPC   C4A42750  39.934  13.665   7.237
 3202POPC   C1B42751  40.179  13.339   6.204
 3202POPC   C2B42752  40.360  13.365   6.595
 3202POPC   C3B42753  40.216  13.264   6.997
 3202POPC   C4B42754  40.407  13.468   7.327
 3203POPC   NC342755  40.413  33.261   5.426
 3203POPC   PO442756  40.785  32.624   5.446
 3203POPC   GL142757  40.822  32.992   5.712
 3203POPC   GL242758  40.683  32.742   5.942
 3203POPC   C1A42759  40.748  33.187   6.140
 3203POPC   D2A42760  40.698  32.823   6.456
 3203POPC   C3A42761  40.617  32.916   6.891
 3203POPC   C4A42762  40.534  33.302   7.126
 3203POPC   C1B42763  41.131  32.841   6.160
 3203POPC   C2B42764  41.339  32.868   6.585
 3203POPC   C3B42765  41.122  32.909   6.985
 3203POPC   C4B42766  40.915  33.021   7.390
 3204POPC   NC342767  44.621  27.648   5.510
 3204POPC   PO442768   0.024  28.164   5.645
 3204POPC   GL142769  44.787  27.929   5.920
 3204POPC   GL242770  44.401  27.918   5.893
 3204POPC   C1A42771  44.776  27.727   6.320
 3204POPC   D2A42772  44.920  27.736   6.745
 3204POPC   C3A42773  44.974  27.713   7.174
 3204POPC   C4A42774  44.743  27.829   7.549
 3204POPC   C1B42775  44.257  27.751   6.318
 3204POPC   C2B42776  44.464  27.471   6.647
 3204POPC   C3B42777  44.488  27.570   7.087
 3204POPC   C4B42778  44.306  27.490   7.480
 3205POPC   NC342779  10.649  16.616   5.348
 3205POPC   PO442780  10.135  16.454   5.478
 3205POPC   GL142781  10.430  16.560   5.849
 3205POPC   GL242782  10.815  16.586   5.842
 3205POPC   C1A42783  10.393  16.612   6.324
 3205POPC   D2A42784  10.392  16.905   6.706
 3205POPC   C3A42785  10.277  16.768   7.135
 3205POPC   C4A42786  10.095  16.828   7.555
 3205POPC   C1B42787  10.862  16.798   6.283
 3205POPC   C2B42788  10.879  16.764   6.757
 3205POPC   C3B42789  10.787  16.939   7.190
 3205POPC   C4B42790  11.035  17.167   7.545
 3206POPC   NC342791  17.241  41.120   5.379
 3206POPC   PO442792  17.700  40.666   5.371
 3206POPC   GL142793  17.496  40.781   5.716
 3206POPC   GL242794  17.619  41.097   5.765
 3206POPC   C1A42795  17.551  40.657   6.159
 3206POPC   D2A42796  17.773  40.506   6.533
 3206POPC   C3A42797  17.546  40.554   6.902
 3206POPC   C4A42798  17.494  40.423   7.295
 3206POPC   C1B42799  17.241  41.045   6.060
 3206POPC   C2B42800  17.232  40.897   6.503
 3206POPC   C3B42801  17.499  41.065   6.840
 3206POPC   C4B42802  17.575  40.950   7.261
 3207POPC   NC342803  39.362   6.552   5.431
 3207POPC   PO442804  38.782   6.791   5.386
 3207POPC   GL142805  39.068   6.972   5.744
 3207POPC   GL242806  39.401   6.850   5.832
 3207POPC   C1A42807  39.047   6.924   6.209
 3207POPC   D2A42808  39.299   6.687   6.545
 3207POPC   C3A42809  39.208   6.728   7.006
 3207POPC   C4A42810  39.203   6.686   7.498
 3207POPC   C1B42811  39.608   6.564   6.124
 3207POPC   C2B42812  39.690   6.339   6.503
 3207POPC   C3B42813  39.598   6.359   6.894
 3207POPC   C4B42814  39.662   6.592   7.211
 3208POPC   NC342815  14.446  15.062   5.491
 3208POPC   PO442816  14.086  15.646   5.501
 3208POPC   GL142817  14.335  15.431   5.861
 3208POPC   GL242818  14.204  15.088   5.926
 3208POPC   C1A42819  14.558  15.214   6.240
 3208POPC   D2A42820  14.481  15.423   6.639
 3208POPC   C3A42821  14.420  15.216   7.033
 3208POPC   C4A42822  14.370  15.506   7.347
 3208POPC   C1B42823  14.051  15.229   6.312
 3208POPC   C2B42824  13.971  14.972   6.637
 3208POPC   C3B42825  13.908  15.035   7.035
 3208POPC   C4B42826  14.031  14.993   7.409
 3209POPC   NC342827  34.056   6.020   4.998
 3209POPC   PO442828  34.625   5.936   5.383
 3209POPC   GL142829  34.510   6.035   5.843
 3209POPC   GL242830  34.407   6.364   5.933
 3209POPC   C1A42831  34.529   5.843   6.278
 3209POPC   D2A42832  34.869   5.712   6.590
 3209POPC   C3A42833  34.823   5.536   7.027
 3209POPC   C4A42834  34.400   5.570   7.205
 3209POPC   C1B42835  34.748   6.308   6.205
 3209POPC   C2B42836  34.582   6.241   6.591
 3209POPC   C3B42837  34.638   6.011   6.937
 3209POPC   C4B42838  34.852   6.305   7.100
 3210POPC   NC342839  27.699  20.882   5.521
 3210POPC   PO442840  27.409  20.356   5.506
 3210POPC   GL142841  27.660  20.484   5.876
 3210POPC   GL242842  27.949  20.313   5.953
 3210POPC   C1A42843  27.616  20.399   6.335
 3210POPC   D2A42844  27.263  20.272   6.516
 3210POPC   C3A42845  27.175  20.381   6.936
 3210POPC   C4A42846  27.237  20.423   7.379
 3210POPC   C1B42847  28.043  20.637   6.241
 3210POPC   C2B42848  28.034  20.470   6.670
 3210POPC   C3B42849  27.809  20.527   7.060
 3210POPC   C4B42850  27.974  20.866   7.309
 3211POPC   NC342851  19.716   8.391   5.001
 3211POPC   PO442852  20.031   7.843   5.368
 3211POPC   GL142853  20.081   8.070   5.798
 3211POPC   GL242854  20.215   8.401   5.789
 3211POPC   C1A42855  19.896   8.208   6.249
 3211POPC   D2A42856  19.784   8.144   6.693
 3211POPC   C3A42857  19.703   8.312   7.111
 3211POPC   C4A42858  19.653   7.878   7.258
 3211POPC   C1B42859  20.392   8.220   6.182
 3211POPC   C2B42860  20.281   8.279   6.594
 3211POPC   C3B42861  20.200   8.224   7.002
 3211POPC   C4B42862  20.181   8.418   7.386
 3212POPC   NC342863  12.598  25.286   5.450
 3212POPC   PO442864  13.215  25.237   5.328
 3212POPC   GL142865  13.062  25.364   5.753
 3212POPC   GL242866  12.873  25.148   5.948
 3212POPC   C1A42867  13.127  25.519   6.219
 3212POPC   D2A42868  13.129  25.332   6.624
 3212POPC   C3A42869  12.849  25.502   6.944
 3212POPC   C4A42870  12.975  25.788   7.237
 3212POPC   C1B42871  12.848  24.941   6.377
 3212POPC   C2B42872  12.804  24.999   6.832
 3212POPC   C3B42873  12.834  24.995   7.300
 3212POPC   C4B42874  12.554  24.876   7.685
 3213POPC   NC342875  32.060  36.176   5.101
 3213POPC   PO442876  32.452  35.818   5.459
 3213POPC   GL142877  32.098  35.867   5.707
 3213POPC   GL242878  32.157  36.231   5.705
 3213POPC   C1A42879  32.170  35.899   6.138
 3213POPC   D2A42880  32.513  36.042   6.410
 3213POPC   C3A42881  32.530  35.921   6.856
 3213POPC   C4A42882  32.426  36.045   7.273
 3213POPC   C1B42883  32.194  36.406   6.121
 3213POPC   C2B42884  32.047  36.244   6.503
 3213POPC   C3B42885  32.123  36.233   6.911
 3213POPC   C4B42886  31.979  36.329   7.327
 3214POPC   NC342887  32.144  20.320   5.218
 3214POPC   PO442888  32.443  19.696   5.389
 3214POPC   GL142889  32.332  19.840   5.818
 3214POPC   GL242890  32.477  20.103   5.790
 3214POPC   C1A42891  32.031  19.748   6.185
 3214POPC   D2A42892  31.755  19.680   6.563
 3214POPC   C3A42893  31.985  19.645   6.943
 3214POPC   C4A42894  32.105  19.939   7.301
 3214POPC   C1B42895  32.367  20.182   6.202
 3214POPC   C2B42896  32.230  20.377   6.556
 3214POPC   C3B42897  32.371  20.239   6.941
 3214POPC   C4B42898  32.556  20.217   7.326
 3215POPC   NC342899  10.558  22.521   5.326
 3215POPC   PO442900  10.465  21.889   4.992
 3215POPC   GL142901  10.534  22.013   5.510
 3215POPC   GL242902  10.232  21.976   5.726
 3215POPC   C1A42903  10.587  22.233   5.981
 3215POPC   D2A42904  10.358  22.378   6.380
 3215POPC   C3A42905  10.534  22.346   6.826
 3215POPC   C4A42906  10.241  22.488   7.146
 3215POPC   C1B42907  10.348  21.793   6.131
 3215POPC   C2B42908  10.592  21.930   6.495
 3215POPC   C3B42909  10.620  21.816   6.939
 3215POPC   C4B42910  10.793  21.992   7.313
 3216POPC   NC342911  35.677  38.872   5.455
 3216POPC   PO442912  36.309  38.524   5.321
 3216POPC   GL142913  36.397  38.620   5.743
 3216POPC   GL242914  36.099  38.766   5.748
 3216POPC   C1A42915  36.222  38.440   6.148
 3216POPC   D2A42916  36.321  38.471   6.585
 3216POPC   C3A42917  36.034  38.337   6.933
 3216POPC   C4A42918  36.213  38.354   7.309
 3216POPC   C1B42919  36.184  38.942   6.145
 3216POPC   C2B42920  36.124  38.925   6.579
 3216POPC   C3B42921  36.239  38.795   6.988
 3216POPC   C4B42922  35.924  38.760   7.303
 3217POPC   NC342923  38.989  34.990   5.606
 3217POPC   PO442924  39.378  34.433   5.256
 3217POPC   GL142925  39.405  34.475   5.750
 3217POPC   GL242926  39.532  34.790   5.816
 3217POPC   C1A42927  39.162  34.638   6.159
 3217POPC   D2A42928  39.032  34.802   6.610
 3217POPC   C3A42929  39.019  34.585   7.040
 3217POPC   C4A42930  39.150  34.405   7.462
 3217POPC   C1B42931  39.517  34.998   6.177
 3217POPC   C2B42932  39.523  34.755   6.549
 3217POPC   C3B42933  39.496  34.507   6.917
 3217POPC   C4B42934  39.536  34.700   7.313
 3218POPC   NC342935   3.053   5.102   5.386
 3218POPC   PO442936   2.444   5.459   5.565
 3218POPC   GL142937   2.601   5.097   5.794
 3218POPC   GL242938   2.900   5.224   5.867
 3218POPC   C1A42939   2.527   4.903   6.190
 3218POPC   D2A42940   2.722   4.809   6.598
 3218POPC   C3A42941   2.602   4.810   7.020
 3218POPC   C4A42942   2.719   4.859   7.463
 3218POPC   C1B42943   2.628   5.446   6.181
 3218POPC   C2B42944   2.466   5.300   6.535
 3218POPC   C3B42945   2.753   5.268   6.843
 3218POPC   C4B42946   2.589   5.274   7.225
 3219POPC   NC342947   3.908  25.783   5.576
 3219POPC   PO442948   4.533  25.866   5.272
 3219POPC   GL142949   4.412  25.827   5.726
 3219POPC   GL242950   4.163  26.082   5.880
 3219POPC   C1A42951   4.430  25.801   6.190
 3219POPC   D2A42952   4.516  26.001   6.599
 3219POPC   C3A42953   4.302  25.733   6.918
 3219POPC   C4A42954   4.130  25.858   7.310
 3219POPC   C1B42955   4.297  26.306   6.199
 3219POPC   C2B42956   4.114  26.401   6.569
 3219POPC   C3B42957   4.116  26.214   6.923
 3219POPC   C4B42958   4.525  26.215   7.100
 3220POPC   NC342959  21.766   2.310   5.364
 3220POPC   PO442960  21.163   2.082   5.486
 3220POPC   GL142961  21.486   2.079   5.790
 3220POPC   GL242962  21.548   1.754   5.944
 3220POPC   C1A42963  21.289   2.131   6.198
 3220POPC   D2A42964  21.082   2.261   6.589
 3220POPC   C3A42965  21.303   2.070   6.937
 3220POPC   C4A42966  21.278   1.790   7.301
 3220POPC   C1B42967  21.784   2.001   6.233
 3220POPC   C2B42968  22.042   2.109   6.547
 3220POPC   C3B42969  21.916   2.116   6.927
 3220POPC   C4B42970  21.694   2.075   7.274
 3221POPC   NC342971   1.626  17.882   5.549
 3221POPC   PO442972   2.006  18.437   5.449
 3221POPC   GL142973   2.138  18.377   5.898
 3221POPC   GL242974   1.826  18.198   5.937
 3221POPC   C1A42975   2.194  18.336   6.358
 3221POPC   D2A42976   2.220  18.133   6.771
 3221POPC   C3A42977   2.069  18.352   7.096
 3221POPC   C4A42978   2.075  18.363   7.510
 3221POPC   C1B42979   1.746  18.535   6.236
 3221POPC   C2B42980   1.761  18.480   6.688
 3221POPC   C3B42981   1.608  18.558   7.105
 3221POPC   C4B42982   1.629  18.663   7.540
 3222POPC   NC342983   2.897  39.957   5.192
 3222POPC   PO442984   2.393  40.181   5.604
 3222POPC   GL142985   2.608  39.957   5.847
 3222POPC   GL242986   2.954  39.974   5.738
 3222POPC   C1A42987   2.648  40.083   6.246
 3222POPC   D2A42988   2.881  40.202   6.566
 3222POPC   C3A42989   2.665  40.128   6.916
 3222POPC   C4A42990   2.788  40.319   7.282
 3222POPC   C1B42991   2.994  39.721   6.121
 3222POPC   C2B42992   2.902  39.676   6.576
 3222POPC   C3B42993   3.087  39.889   6.935
 3222POPC   C4B42994   3.150  39.952   7.363
 3223POPC   NC342995  40.895  22.353   5.549
 3223POPC   PO442996  40.506  21.784   5.423
 3223POPC   GL142997  40.582  22.028   5.847
 3223POPC   GL242998  40.519  22.393   5.931
 3223POPC   C1A42999  40.510  22.004   6.318
 3223POPC   D2A43000  40.709  21.792   6.689
 3223POPC   C3A43001  40.704  22.031   7.072
 3223POPC   C4A43002  40.636  22.451   7.242
 3223POPC   C1B43003  40.929  22.258   6.182
 3223POPC   C2B43004  41.077  22.149   6.589
 3223POPC   C3B43005  41.078  22.359   6.966
 3223POPC   C4B43006  41.066  22.247   7.384
 3224POPC   NC343007  16.853  33.199   5.713
 3224POPC   PO443008  16.739  33.702   5.217
 3224POPC   GL143009  16.825  33.720   5.674
 3224POPC   GL243010  16.514  33.655   5.847
 3224POPC   C1A43011  16.919  33.769   6.149
 3224POPC   D2A43012  17.058  34.045   6.536
 3224POPC   C3A43013  16.858  33.928   6.936
 3224POPC   C4A43014  16.845  33.835   7.356
 3224POPC   C1B43015  16.530  33.435   6.246
 3224POPC   C2B43016  16.593  33.593   6.637
 3224POPC   C3B43017  16.594  33.464   7.082
 3224POPC   C4B43018  16.419  33.605   7.469
 3225POPC   NC343019   7.232  24.819   5.548
 3225POPC   PO443020   7.758  24.412   5.619
 3225POPC   GL143021   7.422  24.508   5.892
 3225POPC   GL243022   7.226  24.261   5.737
 3225POPC   C1A43023   7.408  24.576   6.327
 3225POPC   D2A43024   7.552  24.255   6.631
 3225POPC   C3A43025   7.588  24.372   7.068
 3225POPC   C4A43026   7.336  24.721   7.250
 3225POPC   C1B43027   7.138  24.158   6.171
 3225POPC   C2B43028   7.033  24.318   6.558
 3225POPC   C3B43029   7.081  24.174   6.945
 3225POPC   C4B43030   7.182  24.247   7.347
 3226POPC   NC343031  29.385   6.335   5.337
 3226POPC   PO443032  28.788   6.224   5.310
 3226POPC   GL143033  29.011   6.092   5.710
 3226POPC   GL243034  29.383   6.103   5.774
 3226POPC   C1A43035  29.134   5.780   6.077
 3226POPC   D2A43036  29.363   5.802   6.484
 3226POPC   C3A43037  29.109   5.697   6.880
 3226POPC   C4A43038  29.124   5.878   7.304
 3226POPC   C1B43039  29.201   6.272   6.154
 3226POPC   C2B43040  29.254   6.306   6.583
 3226POPC   C3B43041  29.443   6.073   6.934
 3226POPC   C4B43042  29.786   6.000   7.261
 3227POPC   NC343043  21.668  26.821   5.227
 3227POPC   PO443044  22.213  26.685   5.640
 3227POPC   GL143045  22.416  26.878   5.945
 3227POPC   GL243046  22.369  27.241   5.984
 3227POPC   C1A43047  22.517  26.618   6.262
 3227POPC   D2A43048  22.315  26.705   6.627
 3227POPC   C3A43049  22.231  26.461   6.923
 3227POPC   C4A43050  22.337  26.628   7.285
 3227POPC   C1B43051  22.111  27.073   6.308
 3227POPC   C2B43052  21.981  27.082   6.721
 3227POPC   C3B43053  22.092  27.030   7.132
 3227POPC   C4B43054  22.010  27.258   7.503
 3228POPC   NC343055  30.175   0.837   5.429
 3228POPC   PO443056  29.644   0.461   5.280
 3228POPC   GL143057  29.880   0.483   5.699
 3228POPC   GL243058  29.837   0.796   5.871
 3228POPC   C1A43059  30.137   0.474   6.111
 3228POPC   D2A43060  30.251   0.368   6.548
 3228POPC   C3A43061  30.227   0.620   6.897
 3228POPC   C4A43062  30.369   0.582   7.300
 3228POPC   C1B43063  29.631   0.607   6.207
 3228POPC   C2B43064  29.776   0.563   6.618
 3228POPC   C3B43065  29.756   0.486   7.038
 3228POPC   C4B43066  29.576   0.165   7.163
 3229POPC   NC343067  44.679  16.345   5.582
 3229POPC   PO443068  44.836  16.953   5.218
 3229POPC   GL143069  44.989  16.851   5.710
 3229POPC   GL243070  44.833  16.629   5.960
 3229POPC   C1A43071  44.913  17.085   6.142
 3229POPC   D2A43072  44.718  17.153   6.547
 3229POPC   C3A43073  44.566  16.855   6.850
 3229POPC   C4A43074  44.837  16.771   7.168
 3229POPC   C1B43075  44.906  16.333   6.293
 3229POPC   C2B43076   0.161  16.201   6.602
 3229POPC   C3B43077  44.954  16.292   7.007
 3229POPC   C4B43078  44.480  16.275   7.084
 3230POPC   NC343079  36.689  21.800   5.452
 3230POPC   PO443080  36.946  22.424   5.189
 3230POPC   GL143081  37.007  22.334   5.663
 3230POPC   GL243082  36.722  22.148   5.823
 3230POPC   C1A43083  37.127  22.262   6.134
 3230POPC   D2A43084  37.213  22.203   6.611
 3230POPC   C3A43085  36.915  21.963   6.921
 3230POPC   C4A43086  37.019  21.881   7.380
 3230POPC   C1B43087  36.655  22.052   6.270
 3230POPC   C2B43088  36.712  22.353   6.601
 3230POPC   C3B43089  36.730  22.447   7.023
 3230POPC   C4B43090  36.731  22.298   7.448
 3231POPC   NC343091   9.883  37.264   5.473
 3231POPC   PO443092   9.466  36.809   5.217
 3231POPC   GL143093   9.554  36.852   5.705
 3231POPC   GL243094   9.891  36.963   5.875
 3231POPC   C1A43095   9.538  36.777   6.185
 3231POPC   D2A43096   9.816  36.986   6.497
 3231POPC   C3A43097   9.634  36.916   6.880
 3231POPC   C4A43098   9.833  36.839   7.257
 3231POPC   C1B43099   9.646  37.282   6.115
 3231POPC   C2B43100   9.509  37.380   6.544
 3231POPC   C3B43101   9.580  37.413   6.986
 3231POPC   C4B43102   9.644  37.290   7.420
 3232POPC   NC343103   9.089   3.276   5.538
 3232POPC   PO443104   9.089   4.041   5.382
 3232POPC   GL143105   8.927   3.746   5.673
 3232POPC   GL243106   8.662   3.892   5.837
 3232POPC   C1A43107   9.096   3.659   6.102
 3232POPC   D2A43108   9.208   3.442   6.475
 3232POPC   C3A43109   9.083   3.655   6.856
 3232POPC   C4A43110   8.951   3.595   7.244
 3232POPC   C1B43111   8.606   3.520   6.090
 3232POPC   C2B43112   8.707   3.596   6.498
 3232POPC   C3B43113   8.605   3.431   6.883
 3232POPC   C4B43114   8.619   3.237   7.251
 3233POPC   NC343115  20.053   4.029   5.596
 3233POPC   PO443116  19.749   3.401   5.487
 3233POPC   GL143117  19.763   3.680   5.849
 3233POPC   GL243118  19.458   3.854   5.894
 3233POPC   C1A43119  19.988   3.483   6.194
 3233POPC   D2A43120  19.949   3.061   6.392
 3233POPC   C3A43121  20.015   3.040   6.845
 3233POPC   C4A43122  19.697   3.171   7.185
 3233POPC   C1B43123  19.540   4.028   6.279
 3233POPC   C2B43124  19.802   3.835   6.526
 3233POPC   C3B43125  19.829   3.500   6.749
 3233POPC   C4B43126  19.915   3.627   7.143
 3234POPC   NC343127  38.871   7.248   5.362
 3234POPC   PO443128  39.450   7.584   5.306
 3234POPC   GL143129  39.349   7.559   5.773
 3234POPC   GL243130  38.978   7.549   5.786
 3234POPC   C1A43131  39.352   7.580   6.254
 3234POPC   D2A43132  39.240   7.761   6.691
 3234POPC   C3A43133  39.352   7.511   7.044
 3234POPC   C4A43134  39.266   7.136   7.299
 3234POPC   C1B43135  38.829   7.521   6.198
 3234POPC   C2B43136  38.991   7.324   6.532
 3234POPC   C3B43137  38.967   7.189   6.906
 3234POPC   C4B43138  38.870   7.506   7.215
 3235POPC   NC343139  13.541   4.070   5.573
 3235POPC   PO443140  13.452   4.662   5.428
 3235POPC   GL143141  13.574   4.527   5.864
 3235POPC   GL243142  13.812   4.191   5.989
 3235POPC   C1A43143  13.406   4.348   6.228
 3235POPC   D2A43144  13.579   4.263   6.622
 3235POPC   C3A43145  13.618   4.589   6.892
 3235POPC   C4A43146  13.558   4.582   7.311
 3235POPC   C1B43147  13.892   4.520   6.291
 3235POPC   C2B43148  14.077   4.472   6.704
 3235POPC   C3B43149  13.989   4.314   7.135
 3235POPC   C4B43150  13.980   4.508   7.574
 3236POPC   NC343151  12.747  22.788   5.502
 3236POPC   PO443152  12.958  23.441   5.480
 3236POPC   GL143153  12.913  23.131   5.862
 3236POPC   GL243154  12.879  22.718   5.986
 3236POPC   C1A43155  12.858  23.108   6.299
 3236POPC   D2A43156  12.750  22.727   6.536
 3236POPC   C3A43157  12.807  22.873   6.951
 3236POPC   C4A43158  12.928  23.279   7.178
 3236POPC   C1B43159  13.148  22.461   6.285
 3236POPC   C2B43160  13.083  22.401   6.737
 3236POPC   C3B43161  13.161  22.541   7.139
 3236POPC   C4B43162  13.068  22.872   7.418
 3237POPC   NC343163  17.300  22.356   5.494
 3237POPC   PO443164  17.982  22.186   5.427
 3237POPC   GL143165  17.698  22.231   5.820
 3237POPC   GL243166  17.430  22.503   5.941
 3237POPC   C1A43167  17.552  22.115   6.235
 3237POPC   D2A43168  17.603  22.242   6.650
 3237POPC   C3A43169  17.432  21.980   6.987
 3237POPC   C4A43170  17.567  22.079   7.378
 3237POPC   C1B43171  17.167  22.743   6.193
 3237POPC   C2B43172  17.206  22.611   6.624
 3237POPC   C3B43173  17.408  22.532   7.010
 3237POPC   C4B43174  17.216  22.479   7.410
 3238POPC   NC343175  42.805  39.859   5.501
 3238POPC   PO443176  43.304  40.254   5.216
 3238POPC   GL143177  43.285  40.025   5.664
 3238POPC   GL243178  43.601  39.948   5.830
 3238POPC   C1A43179  43.213  39.894   6.152
 3238POPC   D2A43180  43.042  40.055   6.545
 3238POPC   C3A43181  43.183  39.954   6.965
 3238POPC   C4A43182  43.010  40.041   7.401
 3238POPC   C1B43183  43.384  40.360   6.048
 3238POPC   C2B43184  43.394  40.443   6.493
 3238POPC   C3B43185  43.273  40.474   6.910
 3238POPC   C4B43186  43.333  40.444   7.350
 3239POPC   NC343187  39.714  40.700   5.451
 3239POPC   PO443188  40.394  40.964   5.301
 3239POPC   GL143189  40.044  41.028   5.715
 3239POPC   GL243190  39.862  40.757   5.953
 3239POPC   C1A43191  40.091  41.141   6.176
 3239POPC   D2A43192  39.914  40.910   6.534
 3239POPC   C3A43193  39.929  41.128   6.924
 3239POPC   C4A43194  39.994  41.048   7.343
 3239POPC   C1B43195  40.228  40.639   6.203
 3239POPC   C2B43196  40.229  40.497   6.587
 3239POPC   C3B43197  40.173  40.681   6.954
 3239POPC   C4B43198  40.017  40.509   7.309
 3240POPC   NC343199   3.827  24.780   5.447
 3240POPC   PO443200   3.280  24.377   5.287
 3240POPC   GL143201   3.654  24.352   5.691
 3240POPC   GL243202   3.901  24.618   5.915
 3240POPC   C1A43203   3.753  24.191   6.139
 3240POPC   D2A43204   3.493  24.309   6.512
 3240POPC   C3A43205   3.604  24.497   6.910
 3240POPC   C4A43206   3.670  24.535   7.331
 3240POPC   C1B43207   3.536  24.676   6.142
 3240POPC   C2B43208   3.424  24.827   6.553
 3240POPC   C3B43209   3.238  24.857   6.928
 3240POPC   C4B43210   3.225  24.859   7.341
 3241POPC   NC343211   1.409  20.381   5.341
 3241POPC   PO443212   0.923  20.800   5.333
 3241POPC   GL143213   1.255  20.789   5.666
 3241POPC   GL243214   1.361  20.454   5.834
 3241POPC   C1A43215   1.058  20.765   6.093
 3241POPC   D2A43216   1.230  20.736   6.481
 3241POPC   C3A43217   1.017  20.742   6.856
 3241POPC   C4A43218   1.355  20.866   7.127
 3241POPC   C1B43219   1.188  20.264   6.225
 3241POPC   C2B43220   1.270  20.247   6.664
 3241POPC   C3B43221   1.286  20.377   7.094
 3241POPC   C4B43222   1.515  20.317   7.487
 3242POPC   NC343223  26.530  33.402   5.491
 3242POPC   PO443224  27.201  33.107   5.412
 3242POPC   GL143225  26.906  32.916   5.753
 3242POPC   GL243226  26.635  33.116   5.885
 3242POPC   C1A43227  26.888  32.835   6.219
 3242POPC   D2A43228  26.935  32.684   6.619
 3242POPC   C3A43229  27.201  32.893   6.851
 3242POPC   C4A43230  27.085  33.048   7.192
 3242POPC   C1B43231  26.658  33.294   6.266
 3242POPC   C2B43232  26.859  33.222   6.630
 3242POPC   C3B43233  26.779  33.408   7.004
 3242POPC   C4B43234  26.643  33.239   7.406
 3243POPC   NC343235  30.189  27.805   5.442
 3243POPC   PO443236  29.913  28.391   5.240
 3243POPC   GL143237  29.765  28.247   5.717
 3243POPC   GL243238  29.567  27.934   5.716
 3243POPC   C1A43239  29.733  28.372   6.204
 3243POPC   D2A43240  29.937  28.317   6.649
 3243POPC   C3A43241  29.966  28.406   7.110
 3243POPC   C4A43242  30.260  28.598   7.409
 3243POPC   C1B43243  29.439  27.955   6.165
 3243POPC   C2B43244  29.402  28.190   6.548
 3243POPC   C3B43245  29.466  28.121   6.940
 3243POPC   C4B43246  29.557  28.176   7.341
 3244POPC   NC343247   0.151  33.974   5.129
 3244POPC   PO443248   0.634  33.613   5.292
 3244POPC   GL143249   0.434  33.836   5.624
 3244POPC   GL243250   0.771  33.868   5.783
 3244POPC   C1A43251   0.158  33.941   6.006
 3244POPC   D2A43252   0.204  33.969   6.486
 3244POPC   C3A43253   0.037  33.803   6.884
 3244POPC   C4A43254   0.180  33.873   7.321
 3244POPC   C1B43255   0.621  33.800   6.184
 3244POPC   C2B43256   0.724  33.985   6.573
 3244POPC   C3B43257   0.574  33.894   6.932
 3244POPC   C4B43258   0.715  33.780   7.294
 3245POPC   NC343259  16.236   5.024   5.631
 3245POPC   PO443260  16.816   5.059   5.317
 3245POPC   GL143261  16.740   5.169   5.755
 3245POPC   GL243262  16.501   5.450   5.735
 3245POPC   C1A43263  16.857   4.976   6.156
 3245POPC   D2A43264  17.148   4.956   6.512
 3245POPC   C3A43265  16.948   4.895   6.915
 3245POPC   C4A43266  16.892   4.638   7.289
 3245POPC   C1B43267  16.528   5.386   6.183
 3245POPC   C2B43268  16.715   5.264   6.572
 3245POPC   C3B43269  16.570   5.234   6.979
 3245POPC   C4B43270  16.751   5.125   7.328
 3246POPC   NC343271  29.314  44.025   5.330
 3246POPC   PO443272  28.689  43.981   5.185
 3246POPC   GL143273  28.945  43.942   5.663
 3246POPC   GL243274  29.213  43.631   5.771
 3246POPC   C1A43275  29.121  43.989   6.113
 3246POPC   D2A43276  28.914  43.958   6.555
 3246POPC   C3A43277  29.146  43.989   6.961
 3246POPC   C4A43278  29.487  43.827   7.183
 3246POPC   C1B43279  29.157  43.501   6.264
 3246POPC   C2B43280  28.818  43.438   6.595
 3246POPC   C3B43281  28.764  43.655   7.007
 3246POPC   C4B43282  28.774  43.700   7.485
 3247POPC   NC343283  38.477  18.121   5.216
 3247POPC   PO443284  38.443  17.869   5.800
 3247POPC   GL143285  38.478  18.331   5.749
 3247POPC   GL243286  38.226  18.564   5.849
 3247POPC   C1A43287  38.646  18.503   6.152
 3247POPC   D2A43288  38.436  18.351   6.540
 3247POPC   C3A43289  38.657  18.378   6.940
 3247POPC   C4A43290  38.829  18.077   7.191
 3247POPC   C1B43291  38.014  18.472   6.221
 3247POPC   C2B43292  37.854  18.366   6.608
 3247POPC   C3B43293  38.146  18.328   6.959
 3247POPC   C4B43294  38.354  18.175   7.356
 3248POPC   NC343295  33.961  32.592   5.458
 3248POPC   PO443296  33.551  32.076   5.505
 3248POPC   GL143297  33.786  32.295   5.846
 3248POPC   GL243298  33.604  32.615   5.892
 3248POPC   C1A43299  33.869  32.320   6.302
 3248POPC   D2A43300  33.573  32.203   6.679
 3248POPC   C3A43301  33.745  32.070   7.085
 3248POPC   C4A43302  34.153  32.237   7.248
 3248POPC   C1B43303  33.496  32.653   6.330
 3248POPC   C2B43304  33.785  32.668   6.656
 3248POPC   C3B43305  33.820  32.560   7.079
 3248POPC   C4B43306  33.850  32.532   7.529
 3249POPC   NC343307  40.277  27.339   5.586
 3249POPC   PO443308  40.433  28.031   5.460
 3249POPC   GL143309  40.288  27.781   5.822
 3249POPC   GL243310  39.926  27.702   5.794
 3249POPC   C1A43311  40.221  27.544   6.213
 3249POPC   D2A43312  40.231  27.726   6.612
 3249POPC   C3A43313  39.979  27.489   6.842
 3249POPC   C4A43314  40.081  27.268   7.198
 3249POPC   C1B43315  39.715  27.565   6.200
 3249POPC   C2B43316  39.500  27.493   6.587
 3249POPC   C3B43317  39.540  27.719   6.958
 3249POPC   C4B43318  39.778  27.656   7.292
 3250POPC   NC343319  41.742  22.949   5.718
 3250POPC   PO443320  41.170  22.725   5.559
 3250POPC   GL143321  41.340  22.868   5.993
 3250POPC   GL243322  41.731  22.698   6.137
 3250POPC   C1A43323  41.452  23.079   6.382
 3250POPC   D2A43324  41.346  23.031   6.827
 3250POPC   C3A43325  41.654  22.982   7.094
 3250POPC   C4A43326  41.959  22.750   7.249
 3250POPC   C1B43327  41.410  22.446   6.232
 3250POPC   C2B43328  41.232  22.627   6.530
 3250POPC   C3B43329  41.526  22.561   6.822
 3250POPC   C4B43330  41.482  22.526   7.249
 3251POPC   NC343331  30.594  22.394   5.437
 3251POPC   PO443332  31.098  21.865   5.346
 3251POPC   GL143333  30.795  22.001   5.740
 3251POPC   GL243334  30.550  21.738   5.890
 3251POPC   C1A43335  30.618  22.241   6.134
 3251POPC   D2A43336  30.415  22.169   6.562
 3251POPC   C3A43337  30.536  22.334   6.973
 3251POPC   C4A43338  30.835  22.330   7.296
 3251POPC   C1B43339  30.654  21.762   6.336
 3251POPC   C2B43340  30.910  22.042   6.627
 3251POPC   C3B43341  30.992  21.916   7.042
 3251POPC   C4B43342  30.761  21.724   7.379
 3252POPC   NC343343  21.772  24.355   5.607
 3252POPC   PO443344  21.224  24.091   5.441
 3252POPC   GL143345  21.235  24.358   5.812
 3252POPC   GL243346  21.520  24.322   6.038
 3252POPC   C1A43347  21.072  24.410   6.238
 3252POPC   D2A43348  21.316  24.433   6.605
 3252POPC   C3A43349  21.133  24.276   6.956
 3252POPC   C4A43350  21.124  24.450   7.357
 3252POPC   C1B43351  21.613  24.690   6.271
 3252POPC   C2B43352  21.622  24.860   6.699
 3252POPC   C3B43353  21.482  24.672   7.064
 3252POPC   C4B43354  21.560  24.619   7.516
 3253POPC   NC343355  44.188   7.606   5.513
 3253POPC   PO443356  43.807   7.046   5.361
 3253POPC   GL143357  43.833   7.325   5.764
 3253POPC   GL243358  43.759   7.690   5.867
 3253POPC   C1A43359  43.892   7.302   6.230
 3253POPC   D2A43360  43.706   7.502   6.610
 3253POPC   C3A43361  43.800   7.343   7.033
 3253POPC   C4A43362  44.162   7.256   7.282
 3253POPC   C1B43363  44.048   7.780   6.251
 3253POPC   C2B43364  44.254   7.672   6.629
 3253POPC   C3B43365  44.011   7.794   6.956
 3253POPC   C4B43366  43.525   7.760   7.024
 3254POPC   NC343367  31.870   1.021   5.364
 3254POPC   PO443368  32.425   1.366   5.307
 3254POPC   GL143369  32.295   1.089   5.683
 3254POPC   GL243370  32.647   0.998   5.731
 3254POPC   C1A43371  32.068   1.052   6.129
 3254POPC   D2A43372  32.049   0.909   6.597
 3254POPC   C3A43373  32.086   1.259   6.919
 3254POPC   C4A43374  31.759   1.475   7.194
 3254POPC   C1B43375  32.556   0.949   6.171
 3254POPC   C2B43376  32.618   0.873   6.624
 3254POPC   C3B43377  32.388   0.845   7.004
 3254POPC   C4B43378  32.413   1.014   7.372
 3255POPC   NC343379  28.495  33.531   5.410
 3255POPC   PO443380  28.626  32.916   5.642
 3255POPC   GL143381  28.407  33.205   5.850
 3255POPC   GL243382  28.623  33.467   5.893
 3255POPC   C1A43383  28.232  33.093   6.217
 3255POPC   D2A43384  28.188  32.874   6.574
 3255POPC   C3A43385  28.074  33.053   6.970
 3255POPC   C4A43386  28.258  32.877   7.311
 3255POPC   C1B43387  28.556  33.534   6.301
 3255POPC   C2B43388  28.418  33.334   6.632
 3255POPC   C3B43389  28.572  33.046   6.887
 3255POPC   C4B43390  28.486  33.334   7.219
 3256POPC   NC343391  13.068  18.237   5.523
 3256POPC   PO443392  12.410  18.141   5.559
 3256POPC   GL143393  12.696  18.368   5.828
 3256POPC   GL243394  12.474  18.621   5.872
 3256POPC   C1A43395  13.017  18.338   6.196
 3256POPC   D2A43396  12.876  18.166   6.614
 3256POPC   C3A43397  12.977  18.178   7.041
 3256POPC   C4A43398  12.995  18.006   7.462
 3256POPC   C1B43399  12.507  18.389   6.286
 3256POPC   C2B43400  12.593  18.589   6.651
 3256POPC   C3B43401  12.521  18.579   7.075
 3256POPC   C4B43402  12.599  18.280   7.366
 3257POPC   NC343403   2.345  44.780   5.303
 3257POPC   PO443404   3.009  44.616   5.296
 3257POPC   GL143405   2.826  44.501   5.699
 3257POPC   GL243406   2.754  44.845   5.733
 3257POPC   C1A43407   2.787  44.412   6.184
 3257POPC   D2A43408   2.460  44.362   6.541
 3257POPC   C3A43409   2.602  44.527   6.947
 3257POPC   C4A43410   2.991  44.544   7.199
 3257POPC   C1B43411   2.650   0.055   6.152
 3257POPC   C2B43412   2.784  44.845   6.546
 3257POPC   C3B43413   2.632   0.049   6.924
 3257POPC   C4B43414   2.840   0.069   7.295
 3258POPC   NC343415  41.315  17.663   5.377
 3258POPC   PO443416  41.261  17.017   5.488
 3258POPC   GL143417  41.376  17.318   5.777
 3258POPC   GL243418  41.055  17.455   5.785
 3258POPC   C1A43419  41.561  17.595   6.111
 3258POPC   D2A43420  41.779  17.483   6.503
 3258POPC   C3A43421  41.662  17.553   6.945
 3258POPC   C4A43422  41.731  17.172   7.173
 3258POPC   C1B43423  41.116  17.339   6.220
 3258POPC   C2B43424  41.258  17.580   6.560
 3258POPC   C3B43425  41.171  17.447   6.956
 3258POPC   C4B43426  41.250  17.624   7.345
 3259POPC   NC343427   7.188  20.570   5.277
 3259POPC   PO443428   7.708  20.808   5.102
 3259POPC   GL143429   7.554  20.704   5.605
 3259POPC   GL243430   7.370  20.432   5.796
 3259POPC   C1A43431   7.539  20.828   6.104
 3259POPC   D2A43432   7.771  20.915   6.514
 3259POPC   C3A43433   7.671  20.930   6.985
 3259POPC   C4A43434   7.678  20.672   7.394
 3259POPC   C1B43435   7.205  20.477   6.229
 3259POPC   C2B43436   7.317  20.666   6.619
 3259POPC   C3B43437   7.405  20.475   7.012
 3259POPC   C4B43438   7.293  20.319   7.426
 3260POPC   NC343439   9.564  41.595   5.375
 3260POPC   PO443440   9.733  40.979   5.250
 3260POPC   GL143441   9.657  41.266   5.737
 3260POPC   GL243442   9.952  41.494   5.794
 3260POPC   C1A43443   9.629  41.570   6.140
 3260POPC   D2A43444   9.842  41.706   6.515
 3260POPC   C3A43445   9.708  41.524   6.904
 3260POPC   C4A43446   9.829  41.669   7.325
 3260POPC   C1B43447  10.097  41.316   6.223
 3260POPC   C2B43448  10.084  41.269   6.650
 3260POPC   C3B43449  10.178  41.429   7.044
 3260POPC   C4B43450  10.103  41.257   7.486
 3261POPC   NC343451  30.167  41.294   5.352
 3261POPC   PO443452  29.745  41.862   5.543
 3261POPC   GL143453  30.048  41.594   5.784
 3261POPC   GL243454  30.078  41.214   5.835
 3261POPC   C1A43455  30.046  41.541   6.234
 3261POPC   D2A43456  29.885  41.820   6.521
 3261POPC   C3A43457  30.002  41.815   6.934
 3261POPC   C4A43458  30.268  41.623   7.179
 3261POPC   C1B43459  29.731  41.163   6.098
 3261POPC   C2B43460  29.571  41.259   6.509
 3261POPC   C3B43461  29.523  41.370   6.924
 3261POPC   C4B43462  29.842  41.365   7.152
 3262POPC   NC343463   7.597  19.613   5.446
 3262POPC   PO443464   7.239  20.125   5.405
 3262POPC   GL143465   7.316  19.907   5.785
 3262POPC   GL243466   7.643  19.985   5.872
 3262POPC   C1A43467   7.262  19.981   6.238
 3262POPC   D2A43468   7.407  20.150   6.621
 3262POPC   C3A43469   7.392  19.964   7.040
 3262POPC   C4A43470   7.156  19.640   7.231
 3262POPC   C1B43471   7.735  19.827   6.292
 3262POPC   C2B43472   7.464  19.632   6.608
 3262POPC   C3B43473   7.596  19.497   7.006
 3262POPC   C4B43474   7.873  19.713   7.282
 3263POPC   NC343475  38.466  27.635   5.381
 3263POPC   PO443476  39.065  27.255   5.456
 3263POPC   GL143477  38.874  27.519   5.842
 3263POPC   GL243478  38.560  27.751   5.846
 3263POPC   C1A43479  38.554  27.386   6.196
 3263POPC   D2A43480  38.325  27.303   6.605
 3263POPC   C3A43481  38.563  27.514   6.916
 3263POPC   C4A43482  38.761  27.609   7.294
 3263POPC   C1B43483  38.244  27.870   6.157
 3263POPC   C2B43484  38.219  27.831   6.604
 3263POPC   C3B43485  38.073  27.624   6.992
 3263POPC   C4B43486  38.266  27.745   7.355
 3264POPC   NC343487  41.030  21.593   5.342
 3264POPC   PO443488  40.742  21.063   5.585
 3264POPC   GL143489  40.841  21.212   5.937
 3264POPC   GL243490  40.721  21.534   5.857
 3264POPC   C1A43491  40.836  21.050   6.364
 3264POPC   D2A43492  41.105  21.137   6.725
 3264POPC   C3A43493  40.816  21.162   7.075
 3264POPC   C4A43494  40.796  21.237   7.540
 3264POPC   C1B43495  40.541  21.479   6.282
 3264POPC   C2B43496  40.481  21.338   6.724
 3264POPC   C3B43497  40.526  21.550   7.151
 3264POPC   C4B43498  40.362  21.861   7.419
 3265POPC   NC343499  25.823  43.532   5.195
 3265POPC   PO443500  26.321  43.914   4.969
 3265POPC   GL143501  26.226  43.913   5.540
 3265POPC   GL243502  26.115  43.576   5.767
 3265POPC   C1A43503  26.179  44.006   6.059
 3265POPC   D2A43504  25.952  43.997   6.516
 3265POPC   C3A43505  26.073  44.053   6.989
 3265POPC   C4A43506  26.146  44.206   7.436
 3265POPC   C1B43507  25.797  43.635   6.146
 3265POPC   C2B43508  25.551  43.647   6.520
 3265POPC   C3B43509  25.699  43.675   6.915
 3265POPC   C4B43510  25.938  43.623   7.265
 3266POPC   NC343511  20.526  43.423   5.572
 3266POPC   PO443512  20.750  44.094   5.491
 3266POPC   GL143513  20.725  43.833   5.848
 3266POPC   GL243514  20.376  43.837   5.874
 3266POPC   C1A43515  20.674  43.675   6.293
 3266POPC   D2A43516  20.910  43.656   6.698
 3266POPC   C3A43517  20.846  43.731   7.186
 3266POPC   C4A43518  20.670  43.881   7.646
 3266POPC   C1B43519  20.295  44.037   6.265
 3266POPC   C2B43520  20.552  44.237   6.579
 3266POPC   C3B43521  20.690  44.170   7.016
 3266POPC   C4B43522  20.371  44.042   7.290
 3267POPC   NC343523  20.531  28.574   5.193
 3267POPC   PO443524  20.770  27.971   5.381
 3267POPC   GL143525  20.674  28.350   5.671
 3267POPC   GL243526  20.415  28.631   5.682
 3267POPC   C1A43527  20.780  28.539   6.093
 3267POPC   D2A43528  20.717  28.266   6.472
 3267POPC   C3A43529  20.876  28.346   6.885
 3267POPC   C4A43530  20.686  28.303   7.315
 3267POPC   C1B43531  20.313  28.690   6.107
 3267POPC   C2B43532  20.550  28.759   6.544
 3267POPC   C3B43533  20.483  28.639   7.016
 3267POPC   C4B43534  20.378  28.650   7.528
 3268POPC   NC343535  13.055  15.805   5.438
 3268POPC   PO443536  12.604  16.272   5.367
 3268POPC   GL143537  12.765  16.344   5.784
 3268POPC   GL243538  12.693  16.007   5.835
 3268POPC   C1A43539  13.032  16.416   6.179
 3268POPC   D2A43540  13.113  16.242   6.624
 3268POPC   C3A43541  12.795  16.119   6.929
 3268POPC   C4A43542  12.939  15.990   7.331
 3268POPC   C1B43543  12.929  15.912   6.172
 3268POPC   C2B43544  12.901  15.769   6.566
 3268POPC   C3B43545  12.835  15.608   6.959
 3268POPC   C4B43546  12.955  15.459   7.341
 3269POPC   NC343547  38.791  36.578   5.493
 3269POPC   PO443548  38.256  36.868   5.154
 3269POPC   GL143549  38.450  36.964   5.603
 3269POPC   GL243550  38.414  36.673   5.839
 3269POPC   C1A43551  38.572  37.109   6.069
 3269POPC   D2A43552  38.551  37.248   6.528
 3269POPC   C3A43553  38.689  37.075   6.941
 3269POPC   C4A43554  38.512  37.137   7.360
 3269POPC   C1B43555  38.191  36.775   6.241
 3269POPC   C2B43556  38.229  36.694   6.703
 3269POPC   C3B43557  38.358  36.702   7.164
 3269POPC   C4B43558  38.479  36.648   7.627
 3270POPC   NC343559  12.153  16.236   5.434
 3270POPC   PO443560  11.777  15.698   5.408
 3270POPC   GL143561  11.925  15.929   5.800
 3270POPC   GL243562  12.229  15.779   5.877
 3270POPC   C1A43563  12.004  16.042   6.276
 3270POPC   D2A43564  11.857  15.999   6.701
 3270POPC   C3A43565  12.074  15.912   7.081
 3270POPC   C4A43566  11.789  16.040   7.413
 3270POPC   C1B43567  12.443  15.816   6.278
 3270POPC   C2B43568  12.390  15.703   6.681
 3270POPC   C3B43569  12.340  15.465   7.035
 3270POPC   C4B43570  12.490  15.725   7.339
 3271POPC   NC343571  18.589  28.768   5.414
 3271POPC   PO443572  18.585  29.496   5.341
 3271POPC   GL143573  18.376  29.400   5.773
 3271POPC   GL243574  18.369  29.021   5.830
 3271POPC   C1A43575  18.028  29.292   6.118
 3271POPC   D2A43576  17.890  29.040   6.495
 3271POPC   C3A43577  17.963  29.155   6.950
 3271POPC   C4A43578  17.990  28.967   7.383
 3271POPC   C1B43579  18.452  29.069   6.283
 3271POPC   C2B43580  18.324  28.818   6.631
 3271POPC   C3B43581  18.347  28.826   7.057
 3271POPC   C4B43582  18.389  29.256   7.219
 3272POPC   NC343583  32.506  33.190   5.476
 3272POPC   PO443584  32.059  32.700   5.483
 3272POPC   GL143585  32.119  33.048   5.775
 3272POPC   GL243586  32.446  32.928   5.901
 3272POPC   C1A43587  32.119  33.256   6.177
 3272POPC   D2A43588  32.123  33.073   6.591
 3272POPC   C3A43589  31.917  33.272   6.918
 3272POPC   C4A43590  32.094  33.439   7.295
 3272POPC   C1B43591  32.146  32.739   6.179
 3272POPC   C2B43592  32.201  32.569   6.570
 3272POPC   C3B43593  32.440  32.750   6.881
 3272POPC   C4B43594  32.242  32.973   7.208
 3273POPC   NC343595   2.951  37.498   5.310
 3273POPC   PO443596   2.409  37.930   5.411
 3273POPC   GL143597   2.576  37.729   5.805
 3273POPC   GL243598   2.645  37.383   5.730
 3273POPC   C1A43599   2.826  37.736   6.230
 3273POPC   D2A43600   3.112  37.530   6.574
 3273POPC   C3A43601   2.945  37.702   6.984
 3273POPC   C4A43602   2.552  37.988   6.983
 3273POPC   C1B43603   2.723  37.246   6.162
 3273POPC   C2B43604   2.634  37.386   6.594
 3273POPC   C3B43605   2.664  37.250   7.007
 3273POPC   C4B43606   2.700  37.356   7.465
 3274POPC   NC343607   5.776  34.751   5.113
 3274POPC   PO443608   6.212  35.003   5.622
 3274POPC   GL143609   6.078  34.595   5.849
 3274POPC   GL243610   5.765  34.465   5.783
 3274POPC   C1A43611   5.933  34.384   6.249
 3274POPC   D2A43612   5.861  34.724   6.551
 3274POPC   C3A43613   6.040  34.726   6.956
 3274POPC   C4A43614   5.931  34.344   7.141
 3274POPC   C1B43615   5.499  34.627   6.141
 3274POPC   C2B43616   5.351  34.687   6.574
 3274POPC   C3B43617   5.533  34.990   6.861
 3274POPC   C4B43618   5.615  34.773   7.246
 3275POPC   NC343619  19.288   0.691   5.363
 3275POPC   PO443620  19.938   0.393   5.356
 3275POPC   GL143621  19.639   0.430   5.675
 3275POPC   GL243622  19.643   0.735   5.817
 3275POPC   C1A43623  19.702   0.325   6.121
 3275POPC   D2A43624  19.654   0.200   6.548
 3275POPC   C3A43625  19.982   0.254   6.850
 3275POPC   C4A43626  19.887   0.227   7.294
 3275POPC   C1B43627  19.457   0.763   6.199
 3275POPC   C2B43628  19.750   0.711   6.536
 3275POPC   C3B43629  19.623   0.601   6.921
 3275POPC   C4B43630  19.276   0.732   7.103
 3276POPC   NC343631  20.496   7.941   5.294
 3276POPC   PO443632  20.945   8.377   5.303
 3276POPC   GL143633  20.689   8.360   5.641
 3276POPC   GL243634  20.615   8.013   5.770
 3276POPC   C1A43635  20.684   8.599   6.048
 3276POPC   D2A43636  20.792   8.398   6.460
 3276POPC   C3A43637  20.670   8.437   6.903
 3276POPC   C4A43638  20.826   8.703   7.235
 3276POPC   C1B43639  20.704   7.790   6.153
 3276POPC   C2B43640  20.644   7.923   6.564
 3276POPC   C3B43641  20.627   7.868   6.981
 3276POPC   C4B43642  20.566   8.118   7.332
 3277POPC   NC343643   1.114  21.212   5.328
 3277POPC   PO443644   1.697  21.471   5.189
 3277POPC   GL143645   1.532  21.335   5.662
 3277POPC   GL243646   1.259  21.579   5.716
 3277POPC   C1A43647   1.260  21.239   6.097
 3277POPC   D2A43648   1.311  21.250   6.590
 3277POPC   C3A43649   1.041  21.234   6.990
 3277POPC   C4A43650   1.197  21.238   7.440
 3277POPC   C1B43651   1.481  21.699   6.135
 3277POPC   C2B43652   1.242  21.768   6.505
 3277POPC   C3B43653   1.294  21.672   6.946
 3277POPC   C4B43654   0.965  21.661   7.279
 3278POPC   NC343655  14.925  19.868   5.440
 3278POPC   PO443656  15.511  19.518   5.490
 3278POPC   GL143657  15.328  19.838   5.799
 3278POPC   GL243658  14.982  19.778   5.927
 3278POPC   C1A43659  15.361  20.011   6.231
 3278POPC   D2A43660  15.368  19.801   6.635
 3278POPC   C3A43661  15.297  19.995   7.034
 3278POPC   C4A43662  15.327  19.853   7.437
 3278POPC   C1B43663  14.841  19.957   6.298
 3278POPC   C2B43664  14.839  19.791   6.699
 3278POPC   C3B43665  14.762  19.541   7.003
 3278POPC   C4B43666  14.872  19.663   7.394
 3279POPC   NC343667  16.523  25.478   5.397
 3279POPC   PO443668  16.881  24.970   5.191
 3279POPC   GL143669  16.849  25.133   5.654
 3279POPC   GL243670  16.926  24.803   5.800
 3279POPC   C1A43671  16.640  25.338   6.066
 3279POPC   D2A43672  16.579  25.610   6.432
 3279POPC   C3A43673  16.528  25.385   6.807
 3279POPC   C4A43674  16.689  25.344   7.213
 3279POPC   C1B43675  16.718  24.846   6.191
 3279POPC   C2B43676  16.499  24.930   6.553
 3279POPC   C3B43677  16.724  24.920   6.907
 3279POPC   C4B43678  16.690  24.820   7.284
 3280POPC   NC343679  43.723  40.086   5.356
 3280POPC   PO443680  44.415  40.221   5.350
 3280POPC   GL143681  44.127  40.036   5.710
 3280POPC   GL243682  43.965  40.309   5.909
 3280POPC   C1A43683  44.118  39.767   6.125
 3280POPC   D2A43684  44.031  39.841   6.588
 3280POPC   C3A43685  44.236  39.790   6.980
 3280POPC   C4A43686  44.289  40.218   7.062
 3280POPC   C1B43687  43.748  40.116   6.282
 3280POPC   C2B43688  43.530  39.830   6.586
 3280POPC   C3B43689  43.703  39.783   7.008
 3280POPC   C4B43690  43.510  39.962   7.358
 3281POPC   NC343691   4.906  25.741   5.535
 3281POPC   PO443692   4.999  25.061   5.261
 3281POPC   GL143693   5.187  25.289   5.602
 3281POPC   GL243694   5.329  24.982   5.729
 3281POPC   C1A43695   5.337  25.413   6.030
 3281POPC   D2A43696   5.178  25.391   6.445
 3281POPC   C3A43697   5.282  25.306   6.870
 3281POPC   C4A43698   5.108  25.503   7.225
 3281POPC   C1B43699   5.047  24.995   6.113
 3281POPC   C2B43700   4.885  24.991   6.553
 3281POPC   C3B43701   4.956  24.917   6.995
 3281POPC   C4B43702   5.019  24.997   7.436
 3282POPC   NC343703  42.765  36.017   5.144
 3282POPC   PO443704  42.255  36.293   5.555
 3282POPC   GL143705  42.314  36.354   5.973
 3282POPC   GL243706  41.951  36.437   5.968
 3282POPC   C1A43707  42.514  36.113   6.301
 3282POPC   D2A43708  42.517  35.967   6.725
 3282POPC   C3A43709  42.703  36.050   7.111
 3282POPC   C4A43710  42.383  36.160   7.394
 3282POPC   C1B43711  41.922  36.542   6.318
 3282POPC   C2B43712  42.225  36.495   6.616
 3282POPC   C3B43713  42.158  36.253   6.941
 3282POPC   C4B43714  41.869  36.292   7.223
 3283POPC   NC343715   9.157  13.179   5.225
 3283POPC   PO443716   8.746  12.703   5.466
 3283POPC   GL143717   8.981  12.897   5.780
 3283POPC   GL243718   9.012  12.615   5.989
 3283POPC   C1A43719   9.198  13.034   6.171
 3283POPC   D2A43720   8.921  13.039   6.528
 3283POPC   C3A43721   8.988  12.906   6.958
 3283POPC   C4A43722   9.171  13.160   7.283
 3283POPC   C1B43723   8.686  12.622   6.322
 3283POPC   C2B43724   8.464  12.777   6.691
 3283POPC   C3B43725   8.415  12.546   7.054
 3283POPC   C4B43726   8.824  12.447   7.187
 3284POPC   NC343727   2.176  34.124   5.283
 3284POPC   PO443728   1.874  34.732   5.296
 3284POPC   GL143729   2.053  34.579   5.681
 3284POPC   GL243730   1.712  34.465   5.764
 3284POPC   C1A43731   2.046  34.415   6.144
 3284POPC   D2A43732   1.985  34.639   6.547
 3284POPC   C3A43733   2.222  34.505   6.899
 3284POPC   C4A43734   2.115  34.673   7.272
 3284POPC   C1B43735   1.564  34.683   6.158
 3284POPC   C2B43736   1.477  34.779   6.611
 3284POPC   C3B43737   1.663  34.811   7.042
 3284POPC   C4B43738   1.663  34.632   7.486
 3285POPC   NC343739  32.430  13.751   5.606
 3285POPC   PO443740  31.758  13.555   5.645
 3285POPC   GL143741  32.042  13.577   5.953
 3285POPC   GL243742  32.004  13.942   5.964
 3285POPC   C1A43743  32.397  13.437   6.279
 3285POPC   D2A43744  32.707  13.324   6.624
 3285POPC   C3A43745  32.463  13.266   6.989
 3285POPC   C4A43746  32.177  13.508   7.243
 3285POPC   C1B43747  32.030  13.783   6.392
 3285POPC   C2B43748  32.259  13.779   6.767
 3285POPC   C3B43749  32.303  13.991   7.170
 3285POPC   C4B43750  32.063  13.954   7.576
 3286POPC   NC343751  41.504   1.162   5.409
 3286POPC   PO443752  42.112   1.450   5.348
 3286POPC   GL143753  41.852   1.323   5.745
 3286POPC   GL243754  41.789   0.955   5.846
 3286POPC   C1A43755  41.495   1.282   6.081
 3286POPC   D2A43756  41.490   0.988   6.430
 3286POPC   C3A43757  41.467   1.058   6.898
 3286POPC   C4A43758  41.282   1.348   7.226
 3286POPC   C1B43759  41.987   1.152   6.211
 3286POPC   C2B43760  41.978   1.137   6.653
 3286POPC   C3B43761  41.900   1.280   7.099
 3286POPC   C4B43762  41.661   1.087   7.441
 3287POPC   NC343763   2.465  15.464   5.446
 3287POPC   PO443764   2.822  16.046   5.231
 3287POPC   GL143765   2.800  15.839   5.604
 3287POPC   GL243766   2.448  15.947   5.628
 3287POPC   C1A43767   2.898  15.829   6.055
 3287POPC   D2A43768   2.892  15.976   6.486
 3287POPC   C3A43769   2.924  15.692   6.846
 3287POPC   C4A43770   3.171  15.763   7.227
 3287POPC   C1B43771   2.471  16.108   6.050
 3287POPC   C2B43772   2.385  15.920   6.448
 3287POPC   C3B43773   2.489  16.074   6.829
 3287POPC   C4B43774   2.683  15.974   7.200
 3288POPC   NC343775  24.717  30.435   5.298
 3288POPC   PO443776  24.158  30.821   5.322
 3288POPC   GL143777  24.447  30.773   5.665
 3288POPC   GL243778  24.244  30.937   5.914
 3288POPC   C1A43779  24.668  30.522   6.003
 3288POPC   D2A43780  24.604  30.364   6.444
 3288POPC   C3A43781  24.532  30.656   6.791
 3288POPC   C4A43782  24.595  30.692   7.234
 3288POPC   C1B43783  24.332  30.785   6.304
 3288POPC   C2B43784  24.137  30.958   6.604
 3288POPC   C3B43785  24.199  31.102   6.957
 3288POPC   C4B43786  24.134  30.885   7.320
 3289POPC   NC343787   8.985  20.747   5.264
 3289POPC   PO443788   8.447  20.573   5.355
 3289POPC   GL143789   8.698  20.774   5.727
 3289POPC   GL243790   9.085  20.770   5.812
 3289POPC   C1A43791   8.732  20.804   6.199
 3289POPC   D2A43792   8.754  20.982   6.655
 3289POPC   C3A43793   8.792  20.680   6.997
 3289POPC   C4A43794   9.146  20.670   7.263
 3289POPC   C1B43795   9.219  20.660   6.286
 3289POPC   C2B43796   9.288  20.501   6.759
 3289POPC   C3B43797   9.260  20.200   7.144
 3289POPC   C4B43798   9.248  20.299   7.626
 3290POPC   NC343799  16.505   6.504   5.585
 3290POPC   PO443800  15.820   6.481   5.440
 3290POPC   GL143801  16.027   6.490   5.788
 3290POPC   GL243802  15.984   6.845   5.807
 3290POPC   C1A43803  16.169   6.316   6.171
 3290POPC   D2A43804  16.034   6.523   6.512
 3290POPC   C3A43805  15.938   6.349   6.898
 3290POPC   C4A43806  15.833   6.535   7.287
 3290POPC   C1B43807  16.224   6.844   6.138
 3290POPC   C2B43808  16.266   7.009   6.539
 3290POPC   C3B43809  16.152   6.815   6.917
 3290POPC   C4B43810  16.099   6.971   7.288
 3291POPC   NC343811  38.791  11.117   5.633
 3291POPC   PO443812  39.436  11.495   5.490
 3291POPC   GL143813  39.131  11.493   5.823
 3291POPC   GL243814  39.398  11.546   6.020
 3291POPC   C1A43815  38.966  11.343   6.238
 3291POPC   D2A43816  39.071  11.200   6.674
 3291POPC   C3A43817  39.101  11.458   7.047
 3291POPC   C4A43818  39.053  11.142   7.362
 3291POPC   C1B43819  39.465  11.239   6.348
 3291POPC   C2B43820  39.632  11.102   6.708
 3291POPC   C3B43821  39.500  11.090   7.118
 3291POPC   C4B43822  39.479  11.434   7.451
 3292POPC   NC343823  27.218  30.896   5.442
 3292POPC   PO443824  26.633  30.499   5.410
 3292POPC   GL143825  26.577  30.843   5.727
 3292POPC   GL243826  26.902  30.795   5.831
 3292POPC   C1A43827  26.584  30.954   6.172
 3292POPC   D2A43828  26.728  30.607   6.435
 3292POPC   C3A43829  26.645  30.720   6.845
 3292POPC   C4A43830  26.505  30.661   7.252
 3292POPC   C1B43831  27.116  30.889   6.244
 3292POPC   C2B43832  27.175  30.685   6.679
 3292POPC   C3B43833  27.079  30.618   7.123
 3292POPC   C4B43834  26.941  30.941   7.400
 3293POPC   NC343835   9.457  10.213   5.505
 3293POPC   PO443836   9.761  10.666   5.159
 3293POPC   GL143837   9.776  10.623   5.624
 3293POPC   GL243838   9.663  10.943   5.663
 3293POPC   C1A43839   9.800  10.452   6.093
 3293POPC   D2A43840   9.875  10.230   6.538
 3293POPC   C3A43841   9.891  10.397   6.983
 3293POPC   C4A43842  10.098  10.647   7.292
 3293POPC   C1B43843   9.806  10.991   6.070
 3293POPC   C2B43844   9.953  10.801   6.448
 3293POPC   C3B43845   9.947  10.905   6.870
 3293POPC   C4B43846   9.627  10.889   7.235
 3294POPC   NC343847  23.713  20.430   5.523
 3294POPC   PO443848  23.102  20.551   5.565
 3294POPC   GL143849  23.408  20.626   5.906
 3294POPC   GL243850  23.716  20.839   5.866
 3294POPC   C1A43851  23.716  20.374   6.186
 3294POPC   D2A43852  23.895  20.328   6.601
 3294POPC   C3A43853  23.598  20.244   6.926
 3294POPC   C4A43854  23.431  20.540   7.226
 3294POPC   C1B43855  23.576  20.851   6.323
 3294POPC   C2B43856  23.583  20.742   6.770
 3294POPC   C3B43857  23.891  20.742   7.123
 3294POPC   C4B43858  23.999  21.059   7.422
 3295POPC   NC343859  22.664  27.917   5.377
 3295POPC   PO443860  23.007  27.346   5.496
 3295POPC   GL143861  22.738  27.582   5.795
 3295POPC   GL243862  22.858  27.937   5.858
 3295POPC   C1A43863  22.667  27.622   6.223
 3295POPC   D2A43864  23.026  27.671   6.464
 3295POPC   C3A43865  22.944  27.423   6.796
 3295POPC   C4A43866  22.701  27.520   7.114
 3295POPC   C1B43867  23.147  28.113   6.162
 3295POPC   C2B43868  23.309  28.108   6.596
 3295POPC   C3B43869  23.062  27.928   6.938
 3295POPC   C4B43870  23.243  27.592   7.180
 3296POPC   NC343871  40.594  28.374   5.725
 3296POPC   PO443872  41.055  28.812   5.422
 3296POPC   GL143873  41.052  28.611   5.817
 3296POPC   GL243874  41.101  28.268   5.756
 3296POPC   C1A43875  40.914  28.520   6.263
 3296POPC   D2A43876  40.769  28.641   6.654
 3296POPC   C3A43877  40.768  28.389   6.982
 3296POPC   C4A43878  40.907  28.551   7.341
 3296POPC   C1B43879  41.115  28.045   6.157
 3296POPC   C2B43880  40.921  28.038   6.590
 3296POPC   C3B43881  40.831  27.886   7.025
 3296POPC   C4B43882  40.859  28.021   7.461
 3297POPC   NC343883  44.925  28.596   5.532
 3297POPC   PO443884  44.520  28.081   5.325
 3297POPC   GL143885  44.537  28.391   5.759
 3297POPC   GL243886  44.829  28.468   6.006
 3297POPC   C1A43887  44.417  28.693   6.174
 3297POPC   D2A43888  44.675  28.652   6.558
 3297POPC   C3A43889  44.494  28.596   6.979
 3297POPC   C4A43890  44.672  28.687   7.351
 3297POPC   C1B43891  44.559  28.217   6.284
 3297POPC   C2B43892  44.664  28.154   6.695
 3297POPC   C3B43893  44.736  28.168   7.126
 3297POPC   C4B43894  44.409  28.173   7.374
 3298POPC   NC343895  40.255  24.658   5.470
 3298POPC   PO443896  40.158  24.045   5.552
 3298POPC   GL143897  40.242  24.283   5.875
 3298POPC   GL243898  40.005  24.589   5.907
 3298POPC   C1A43899  40.282  24.404   6.295
 3298POPC   D2A43900  40.312  24.806   6.489
 3298POPC   C3A43901  40.084  24.767   6.855
 3298POPC   C4A43902  40.265  24.625   7.227
 3298POPC   C1B43903  39.774  24.231   6.112
 3298POPC   C2B43904  39.533  24.195   6.509
 3298POPC   C3B43905  39.550  24.190   6.945
 3298POPC   C4B43906  39.843  24.386   7.151
 3299POPC   NC343907  43.230  43.450   5.417
 3299POPC   PO443908  43.456  42.873   5.556
 3299POPC   GL143909  43.352  43.158   5.873
 3299POPC   GL243910  43.017  43.204   5.821
 3299POPC   C1A43911  43.209  43.054   6.304
 3299POPC   D2A43912  43.265  42.922   6.744
 3299POPC   C3A43913  43.202  43.127   7.127
 3299POPC   C4A43914  43.268  43.060   7.572
 3299POPC   C1B43915  42.780  43.322   6.180
 3299POPC   C2B43916  42.694  43.194   6.602
 3299POPC   C3B43917  42.735  43.306   7.039
 3299POPC   C4B43918  42.789  43.126   7.457
 3300POPC   NC343919  42.389  29.285   5.513
 3300POPC   PO443920  41.835  28.812   5.430
 3300POPC   GL143921  42.093  28.910   5.812
 3300POPC   GL243922  42.483  28.865   5.801
 3300POPC   C1A43923  42.063  29.286   6.112
 3300POPC   D2A43924  41.932  29.514   6.520
 3300POPC   C3A43925  41.963  29.277   6.933
 3300POPC   C4A43926  42.184  29.343   7.334
 3300POPC   C1B43927  42.554  29.131   6.165
 3300POPC   C2B43928  42.317  29.138   6.545
 3300POPC   C3B43929  42.441  29.102   6.945
 3300POPC   C4B43930  42.656  29.173   7.299
 3301POPC   NC343931   7.103  11.886   5.455
 3301POPC   PO443932   7.767  12.087   5.619
 3301POPC   GL143933   7.411  11.916   5.842
 3301POPC   GL243934   7.382  12.200   6.062
 3301POPC   C1A43935   7.215  11.771   6.238
 3301POPC   D2A43936   7.418  11.856   6.616
 3301POPC   C3A43937   7.215  12.022   6.962
 3301POPC   C4A43938   7.408  11.755   7.182
 3301POPC   C1B43939   7.758  12.344   6.269
 3301POPC   C2B43940   7.859  12.382   6.690
 3301POPC   C3B43941   7.723  12.118   6.969
 3301POPC   C4B43942   7.598  12.181   7.345
 3302POPC   NC343943  44.966   7.571   5.559
 3302POPC   PO443944  44.447   7.198   5.527
 3302POPC   GL143945  44.549   7.422   5.848
 3302POPC   GL243946  44.818   7.169   5.921
 3302POPC   C1A43947  44.431   7.357   6.252
 3302POPC   D2A43948  44.683   7.158   6.559
 3302POPC   C3A43949  44.613   7.393   6.912
 3302POPC   C4A43950  44.775   7.515   7.286
 3302POPC   C1B43951  44.933   7.485   6.213
 3302POPC   C2B43952   0.075   7.789   6.488
 3302POPC   C3B43953   0.056   7.694   6.900
 3302POPC   C4B43954   0.078   7.921   7.280
 3303POPC   NC343955  37.793  42.038   5.338
 3303POPC   PO443956  37.963  41.376   5.309
 3303POPC   GL143957  37.691  41.490   5.687
 3303POPC   GL243958  37.840  41.808   5.803
 3303POPC   C1A43959  37.500  41.603   6.119
 3303POPC   D2A43960  37.670  41.684   6.524
 3303POPC   C3A43961  37.523  41.420   6.844
 3303POPC   C4A43962  37.564  41.464   7.249
 3303POPC   C1B43963  38.043  41.887   6.211
 3303POPC   C2B43964  38.014  42.072   6.663
 3303POPC   C3B43965  37.835  41.814   7.010
 3303POPC   C4B43966  37.836  41.804   7.515
 3304POPC   NC343967  13.979  23.206   5.237
 3304POPC   PO443968  13.350  23.033   5.086
 3304POPC   GL143969  13.575  22.931   5.515
 3304POPC   GL243970  13.289  22.800   5.689
 3304POPC   C1A43971  13.782  22.838   5.967
 3304POPC   D2A43972  13.734  22.866   6.465
 3304POPC   C3A43973  13.852  23.118   6.868
 3304POPC   C4A43974  14.079  22.897   7.210
 3304POPC   C1B43975  13.316  22.935   6.142
 3304POPC   C2B43976  13.237  22.874   6.592
 3304POPC   C3B43977  13.315  23.017   6.980
 3304POPC   C4B43978  13.450  23.252   7.325
 3305POPC   NC343979  38.796  25.337   5.045
 3305POPC   PO443980  38.347  25.313   5.490
 3305POPC   GL143981  38.441  25.117   5.844
 3305POPC   GL243982  38.800  25.052   5.811
 3305POPC   C1A43983  38.505  25.197   6.255
 3305POPC   D2A43984  38.536  25.376   6.649
 3305POPC   C3A43985  38.204  25.302   6.944
 3305POPC   C4A43986  38.326  25.386   7.333
 3305POPC   C1B43987  38.838  24.809   6.224
 3305POPC   C2B43988  38.666  24.869   6.652
 3305POPC   C3B43989  38.641  25.069   7.080
 3305POPC   C4B43990  38.550  25.005   7.583
 3306POPC   NC343991  26.247  12.616   5.525
 3306POPC   PO443992  25.665  12.878   5.419
 3306POPC   GL143993  25.851  12.777   5.829
 3306POPC   GL243994  25.721  13.094   5.908
 3306POPC   C1A43995  25.970  12.548   6.230
 3306POPC   D2A43996  25.905  12.403   6.652
 3306POPC   C3A43997  25.971  12.695   6.975
 3306POPC   C4A43998  26.113  12.770   7.361
 3306POPC   C1B43999  25.983  13.069   6.281
 3306POPC   C2B44000  26.124  13.105   6.715
 3306POPC   C3B44001  25.953  13.215   7.141
 3306POPC   C4B44002  25.896  13.165   7.617
 3307POPC   NC344003  40.298  36.405   5.383
 3307POPC   PO444004  39.604  36.180   5.276
 3307POPC   GL144005  39.919  36.226   5.710
 3307POPC   GL244006  40.197  35.979   5.747
 3307POPC   C1A44007  40.002  36.287   6.213
 3307POPC   D2A44008  39.992  36.117   6.683
 3307POPC   C3A44009  39.831  36.389   7.057
 3307POPC   C4A44010  40.172  36.620   7.307
 3307POPC   C1B44011  40.102  35.741   6.159
 3307POPC   C2B44012  40.227  35.615   6.595
 3307POPC   C3B44013  40.078  35.708   7.038
 3307POPC   C4B44014  40.134  36.074   7.262
 3308POPC   NC344015   0.761  10.992   5.504
 3308POPC   PO444016   0.219  11.311   5.427
 3308POPC   GL144017   0.370  11.300   5.787
 3308POPC   GL244018   0.678  11.430   5.762
 3308POPC   C1A44019   0.429  11.193   6.204
 3308POPC   D2A44020   0.289  11.442   6.546
 3308POPC   C3A44021   0.273  11.262   6.975
 3308POPC   C4A44022   0.206  11.576   7.282
 3308POPC   C1B44023   0.784  11.568   6.142
 3308POPC   C2B44024   0.923  11.556   6.531
 3308POPC   C3B44025   0.694  11.530   6.863
 3308POPC   C4B44026   0.784  11.593   7.250
 3309POPC   NC344027  10.791  13.037   4.996
 3309POPC   PO444028  10.385  12.752   5.451
 3309POPC   GL144029  10.598  12.773   5.789
 3309POPC   GL244030  10.337  12.803   5.991
 3309POPC   C1A44031  10.840  12.806   6.138
 3309POPC   D2A44032  10.715  12.972   6.506
 3309POPC   C3A44033  10.636  12.843   6.894
 3309POPC   C4A44034  10.584  13.044   7.247
 3309POPC   C1B44035  10.224  12.951   6.351
 3309POPC   C2B44036  10.200  12.733   6.692
 3309POPC   C3B44037  10.120  12.963   7.050
 3309POPC   C4B44038  10.138  12.920   7.475
 3310POPC   NC344039  35.575  34.185   5.388
 3310POPC   PO444040  35.442  34.843   5.418
 3310POPC   GL144041  35.197  34.656   5.753
 3310POPC   GL244042  35.210  34.284   5.808
 3310POPC   C1A44043  35.110  34.634   6.205
 3310POPC   D2A44044  35.180  34.526   6.651
 3310POPC   C3A44045  35.313  34.867   6.912
 3310POPC   C4A44046  35.483  34.901   7.320
 3310POPC   C1B44047  35.508  34.269   6.190
 3310POPC   C2B44048  35.726  34.209   6.611
 3310POPC   C3B44049  35.577  34.401   7.011
 3310POPC   C4B44050  35.194  34.472   7.233
 3311POPC   NC344051  25.256  34.574   5.239
 3311POPC   PO444052  25.819  34.420   5.489
 3311POPC   GL144053  25.473  34.613   5.766
 3311POPC   GL244054  25.136  34.801   5.690
 3311POPC   C1A44055  25.218  34.594   6.175
 3311POPC   D2A44056  25.376  34.653   6.596
 3311POPC   C3A44057  25.146  34.562   6.981
 3311POPC   C4A44058  25.294  34.486   7.407
 3311POPC   C1B44059  24.832  34.910   6.029
 3311POPC   C2B44060  24.959  34.989   6.490
 3311POPC   C3B44061  24.823  34.958   6.948
 3311POPC   C4B44062  24.848  34.721   7.372
 3312POPC   NC344063   9.085  34.919   5.346
 3312POPC   PO444064   9.188  35.580   5.209
 3312POPC   GL144065   9.009  35.405   5.632
 3312POPC   GL244066   8.758  35.105   5.693
 3312POPC   C1A44067   9.053  35.518   6.098
 3312POPC   D2A44068   8.792  35.628   6.470
 3312POPC   C3A44069   8.772  35.568   6.942
 3312POPC   C4A44070   8.988  35.394   7.304
 3312POPC   C1B44071   8.995  35.003   6.050
 3312POPC   C2B44072   9.015  35.148   6.463
 3312POPC   C3B44073   9.033  35.098   6.883
 3312POPC   C4B44074   9.306  35.018   7.200
 3313POPC   NC344075  32.889  20.872   5.594
 3313POPC   PO444076  32.730  21.524   5.407
 3313POPC   GL144077  32.989  21.335   5.812
 3313POPC   GL244078  32.803  21.078   6.059
 3313POPC   C1A44079  33.236  21.247   6.243
 3313POPC   D2A44080  33.064  21.184   6.699
 3313POPC   C3A44081  33.217  21.464   7.060
 3313POPC   C4A44082  32.963  21.842   7.204
 3313POPC   C1B44083  32.774  21.483   6.315
 3313POPC   C2B44084  32.854  21.699   6.697
 3313POPC   C3B44085  32.727  21.429   7.002
 3313POPC   C4B44086  32.653  21.029   7.055
 3314POPC   NC344087  12.353  39.002   5.553
 3314POPC   PO444088  12.006  38.393   5.372
 3314POPC   GL144089  12.086  38.492   5.784
 3314POPC   GL244090  12.422  38.491   5.658
 3314POPC   C1A44091  11.856  38.401   6.190
 3314POPC   D2A44092  11.645  38.316   6.605
 3314POPC   C3A44093  11.866  38.458   6.980
 3314POPC   C4A44094  11.805  38.466   7.417
 3314POPC   C1B44095  12.542  38.567   6.073
 3314POPC   C2B44096  12.386  38.534   6.482
 3314POPC   C3B44097  12.390  38.379   6.896
 3314POPC   C4B44098  12.307  38.544   7.314
 3315POPC   NC344099  42.118  42.948   5.318
 3315POPC   PO444100  42.682  43.448   5.463
 3315POPC   GL144101  42.514  43.117   5.778
 3315POPC   GL244102  42.152  43.031   5.833
 3315POPC   C1A44103  42.521  42.872   6.162
 3315POPC   D2A44104  42.204  42.741   6.471
 3315POPC   C3A44105  42.285  42.950   6.858
 3315POPC   C4A44106  42.626  42.794   7.124
 3315POPC   C1B44107  42.261  43.326   6.194
 3315POPC   C2B44108  42.274  43.528   6.612
 3315POPC   C3B44109  42.249  43.449   7.068
 3315POPC   C4B44110  42.286  43.109   7.357
 3316POPC   NC344111  32.389  12.699   5.406
 3316POPC   PO444112  32.296  13.318   5.605
 3316POPC   GL144113  32.302  12.937   5.849
 3316POPC   GL244114  32.007  12.778   5.992
 3316POPC   C1A44115  32.486  12.760   6.180
 3316POPC   D2A44116  32.382  12.954   6.546
 3316POPC   C3A44117  32.356  12.726   6.890
 3316POPC   C4A44118  32.366  12.847   7.295
 3316POPC   C1B44119  31.971  13.154   6.264
 3316POPC   C2B44120  32.018  13.330   6.671
 3316POPC   C3B44121  31.984  13.082   7.023
 3316POPC   C4B44122  31.906  12.664   7.157
 3317POPC   NC344123  38.144  30.337   5.232
 3317POPC   PO444124  38.608  29.860   5.265
 3317POPC   GL144125  38.431  29.879   5.677
 3317POPC   GL244126  38.274  29.607   5.754
 3317POPC   C1A44127  38.218  29.990   6.084
 3317POPC   D2A44128  38.095  30.225   6.476
 3317POPC   C3A44129  38.142  30.042   6.859
 3317POPC   C4A44130  38.442  30.031   7.189
 3317POPC   C1B44131  38.499  29.573   6.138
 3317POPC   C2B44132  38.396  29.713   6.554
 3317POPC   C3B44133  38.357  29.553   6.985
 3317POPC   C4B44134  38.594  29.576   7.369
 3318POPC   NC344135  37.639  14.683   5.478
 3318POPC   PO444136  37.849  14.005   5.583
 3318POPC   GL144137  37.638  14.309   5.839
 3318POPC   GL244138  37.729  14.674   5.964
 3318POPC   C1A44139  37.707  14.238   6.256
 3318POPC   D2A44140  37.649  14.365   6.647
 3318POPC   C3A44141  37.828  14.187   6.979
 3318POPC   C4A44142  37.908  14.332   7.381
 3318POPC   C1B44143  37.429  14.674   6.288
 3318POPC   C2B44144  37.432  14.818   6.713
 3318POPC   C3B44145  37.577  14.639   7.112
 3318POPC   C4B44146  37.560  14.653   7.564
 3319POPC   NC344147  18.453  23.534   5.416
 3319POPC   PO444148  17.870  23.823   5.409
 3319POPC   GL144149  18.046  23.596   5.738
 3319POPC   GL244150  18.274  23.868   5.790
 3319POPC   C1A44151  17.929  23.503   6.167
 3319POPC   D2A44152  17.964  23.733   6.576
 3319POPC   C3A44153  17.890  23.399   6.844
 3319POPC   C4A44154  17.974  23.332   7.240
 3319POPC   C1B44155  18.349  23.798   6.225
 3319POPC   C2B44156  18.372  23.433   6.506
 3319POPC   C3B44157  18.389  23.516   6.962
 3319POPC   C4B44158  18.571  23.324   7.359
 3320POPC   NC344159  44.722  23.141   5.109
 3320POPC   PO444160  44.339  22.660   5.427
 3320POPC   GL144161  44.495  22.921   5.762
 3320POPC   GL244162  44.768  22.719   5.872
 3320POPC   C1A44163  44.566  23.013   6.213
 3320POPC   D2A44164  44.402  22.920   6.581
 3320POPC   C3A44165  44.613  22.856   6.980
 3320POPC   C4A44166  44.725  23.021   7.398
 3320POPC   C1B44167  44.876  22.423   6.209
 3320POPC   C2B44168  44.974  22.585   6.610
 3320POPC   C3B44169  44.899  22.380   6.957
 3320POPC   C4B44170  44.878  22.516   7.338
 3321POPC   NC344171  37.541  19.555   5.626
 3321POPC   PO444172  37.971  19.961   5.425
 3321POPC   GL144173  37.887  19.956   5.831
 3321POPC   GL244174  37.579  20.077   5.845
 3321POPC   C1A44175  37.831  19.825   6.245
 3321POPC   D2A44176  38.102  19.839   6.616
 3321POPC   C3A44177  37.971  19.608   6.984
 3321POPC   C4A44178  37.582  19.735   7.160
 3321POPC   C1B44179  37.328  19.979   6.196
 3321POPC   C2B44180  37.341  19.752   6.593
 3321POPC   C3B44181  37.269  20.042   6.921
 3321POPC   C4B44182  37.154  19.979   7.317
 3322POPC   NC344183  40.607   9.798   5.494
 3322POPC   PO444184  40.997   9.423   5.122
 3322POPC   GL144185  41.003   9.527   5.675
 3322POPC   GL244186  41.311   9.631   5.850
 3322POPC   C1A44187  40.773   9.693   6.107
 3322POPC   D2A44188  40.822   9.985   6.483
 3322POPC   C3A44189  40.628   9.875   6.895
 3322POPC   C4A44190  40.807   9.751   7.303
 3322POPC   C1B44191  41.121   9.321   6.148
 3322POPC   C2B44192  40.885   9.400   6.519
 3322POPC   C3B44193  41.012   9.535   6.888
 3322POPC   C4B44194  41.161   9.377   7.256
 3323POPC   NC344195  29.558  10.046   5.408
 3323POPC   PO444196  30.171   9.690   5.496
 3323POPC   GL144197  30.144   9.846   5.862
 3323POPC   GL244198  29.860   9.988   5.806
 3323POPC   C1A44199  29.942   9.640   6.209
 3323POPC   D2A44200  29.813   9.303   6.474
 3323POPC   C3A44201  29.732   9.522   6.853
 3323POPC   C4A44202  29.941   9.738   7.156
 3323POPC   C1B44203  29.712  10.173   6.137
 3323POPC   C2B44204  29.727   9.984   6.525
 3323POPC   C3B44205  29.744  10.131   6.897
 3323POPC   C4B44206  29.500  10.042   7.215
 3324POPC   NC344207  42.811   4.247   5.336
 3324POPC   PO444208  43.493   4.478   5.266
 3324POPC   GL144209  43.222   4.341   5.694
 3324POPC   GL244210  42.885   4.139   5.827
 3324POPC   C1A44211  43.217   4.351   6.177
 3324POPC   D2A44212  43.312   4.555   6.594
 3324POPC   C3A44213  43.275   4.327   6.993
 3324POPC   C4A44214  43.121   3.989   7.256
 3324POPC   C1B44215  42.767   4.532   5.985
 3324POPC   C2B44216  42.836   4.672   6.407
 3324POPC   C3B44217  42.841   4.566   6.843
 3324POPC   C4B44218  42.839   4.430   7.267
 3325POPC   NC344219  34.707   2.484   5.422
 3325POPC   PO444220  34.321   2.929   5.278
 3325POPC   GL144221  34.504   2.898   5.768
 3325POPC   GL244222  34.640   2.597   5.899
 3325POPC   C1A44223  34.409   2.858   6.253
 3325POPC   D2A44224  34.308   2.699   6.657
 3325POPC   C3A44225  34.580   2.815   6.996
 3325POPC   C4A44226  34.606   2.885   7.454
 3325POPC   C1B44227  34.915   2.805   6.205
 3325POPC   C2B44228  34.998   2.847   6.666
 3325POPC   C3B44229  34.997   2.516   6.972
 3325POPC   C4B44230  34.761   2.421   7.323
 3326POPC   NC344231  31.813  34.666   5.344
 3326POPC   PO444232  31.280  34.300   5.306
 3326POPC   GL144233  31.481  34.342   5.761
 3326POPC   GL244234  31.820  34.476   5.835
 3326POPC   C1A44235  31.394  34.518   6.189
 3326POPC   D2A44236  31.052  34.530   6.512
 3326POPC   C3A44237  31.098  34.412   6.945
 3326POPC   C4A44238  31.177  34.771   7.199
 3326POPC   C1B44239  31.909  34.415   6.277
 3326POPC   C2B44240  31.884  34.586   6.714
 3326POPC   C3B44241  31.691  34.609   7.124
 3326POPC   C4B44242  31.783  34.359   7.486
 3327POPC   NC344243  36.021  21.438   5.307
 3327POPC   PO444244  36.663  21.248   5.424
 3327POPC   GL144245  36.271  21.241   5.773
 3327POPC   GL244246  35.915  21.430   5.796
 3327POPC   C1A44247  36.066  21.269   6.235
 3327POPC   D2A44248  36.044  21.273   6.670
 3327POPC   C3A44249  36.247  21.581   6.865
 3327POPC   C4A44250  36.260  21.408   7.265
 3327POPC   C1B44251  35.659  21.584   6.160
 3327POPC   C2B44252  35.670  21.647   6.616
 3327POPC   C3B44253  35.745  21.483   7.030
 3327POPC   C4B44254  35.730  21.466   7.469
 3328POPC   NC344255   0.036  21.598   5.396
 3328POPC   PO444256   0.704  21.452   5.303
 3328POPC   GL144257   0.554  21.494   5.729
 3328POPC   GL244258   0.248  21.257   5.794
 3328POPC   C1A44259   0.787  21.483   6.144
 3328POPC   D2A44260   0.787  21.183   6.518
 3328POPC   C3A44261   0.564  21.394   6.876
 3328POPC   C4A44262   0.608  21.277   7.303
 3328POPC   C1B44263  44.987  21.134   6.182
 3328POPC   C2B44264   0.126  21.191   6.634
 3328POPC   C3B44265   0.094  21.178   7.090
 3328POPC   C4B44266   0.051  21.540   7.308
 3329POPC   NC344267  29.379  11.688   5.549
 3329POPC   PO444268  28.882  11.246   5.408
 3329POPC   GL144269  29.041  11.343   5.798
 3329POPC   GL244270  28.687  11.447   5.858
 3329POPC   C1A44271  29.283  11.235   6.224
 3329POPC   D2A44272  29.226  11.206   6.713
 3329POPC   C3A44273  29.270  11.049   7.181
 3329POPC   C4A44274  29.461  10.878   7.587
 3329POPC   C1B44275  28.765  11.272   6.237
 3329POPC   C2B44276  28.745  11.409   6.629
 3329POPC   C3B44277  28.807  11.219   6.999
 3329POPC   C4B44278  28.855  11.290   7.397
 3330POPC   NC344279  30.194  38.675   5.428
 3330POPC   PO444280  29.539  38.485   5.497
 3330POPC   GL144281  29.842  38.603   5.800
 3330POPC   GL244282  30.153  38.357   5.845
 3330POPC   C1A44283  29.855  38.604   6.226
 3330POPC   D2A44284  29.990  38.423   6.600
 3330POPC   C3A44285  29.810  38.595   6.983
 3330POPC   C4A44286  29.731  38.394   7.358
 3330POPC   C1B44287  30.296  38.116   6.234
 3330POPC   C2B44288  30.330  37.950   6.674
 3330POPC   C3B44289  30.152  38.167   7.014
 3330POPC   C4B44290  30.236  38.397   7.359
 3331POPC   NC344291  36.543  12.453   5.551
 3331POPC   PO444292  36.026  12.924   5.592
 3331POPC   GL144293  36.211  12.657   5.904
 3331POPC   GL244294  35.943  12.446   5.895
 3331POPC   C1A44295  36.224  12.696   6.361
 3331POPC   D2A44296  36.280  13.062   6.612
 3331POPC   C3A44297  36.041  13.068   6.970
 3331POPC   C4A44298  36.392  13.098   7.163
 3331POPC   C1B44299  35.720  12.729   6.208
 3331POPC   C2B44300  35.728  12.820   6.641
 3331POPC   C3B44301  35.645  12.541   6.961
 3331POPC   C4B44302  35.856  12.565   7.329
 3332POPC   NC344303  23.168  39.729   5.209
 3332POPC   PO444304  22.714  40.190   5.362
 3332POPC   GL144305  22.896  40.129   5.779
 3332POPC   GL244306  23.118  39.826   5.729
 3332POPC   C1A44307  22.655  40.107   6.175
 3332POPC   D2A44308  22.568  39.757   6.417
 3332POPC   C3A44309  22.567  39.922   6.794
 3332POPC   C4A44310  22.814  39.855   7.123
 3332POPC   C1B44311  23.066  39.782   6.182
 3332POPC   C2B44312  23.056  39.916   6.608
 3332POPC   C3B44313  23.289  39.804   6.973
 3332POPC   C4B44314  23.289  39.952   7.387
 3333POPC   NC344315  21.356  39.709   5.221
 3333POPC   PO444316  21.127  40.229   5.612
 3333POPC   GL144317  21.448  40.281   5.910
 3333POPC   GL244318  21.595  39.960   6.045
 3333POPC   C1A44319  21.398  40.322   6.342
 3333POPC   D2A44320  21.075  40.109   6.583
 3333POPC   C3A44321  21.116  40.218   6.997
 3333POPC   C4A44322  21.461  40.405   7.185
 3333POPC   C1B44323  21.267  39.703   6.270
 3333POPC   C2B44324  21.158  39.612   6.701
 3333POPC   C3B44325  21.310  39.747   7.077
 3333POPC   C4B44326  21.670  39.942   7.245
 3334POPC   NC344327  37.401  11.476   5.374
 3334POPC   PO444328  37.737  10.834   5.391
 3334POPC   GL144329  37.591  11.143   5.734
 3334POPC   GL244330  37.763  11.447   5.805
 3334POPC   C1A44331  37.640  11.168   6.212
 3334POPC   D2A44332  37.975  11.164   6.540
 3334POPC   C3A44333  37.775  11.246   6.922
 3334POPC   C4A44334  37.427  11.124   7.138
 3334POPC   C1B44335  37.805  11.730   6.130
 3334POPC   C2B44336  37.734  11.650   6.539
 3334POPC   C3B44337  38.027  11.730   6.835
 3334POPC   C4B44338  37.934  11.832   7.240
 3335POPC   NC344339   1.551  17.741   5.039
 3335POPC   PO444340   2.110  17.648   5.461
 3335POPC   GL144341   2.113  17.523   5.860
 3335POPC   GL244342   2.172  17.822   5.957
 3335POPC   C1A44343   1.928  17.377   6.245
 3335POPC   D2A44344   1.753  17.548   6.625
 3335POPC   C3A44345   1.899  17.457   7.006
 3335POPC   C4A44346   2.178  17.177   7.152
 3335POPC   C1B44347   2.183  17.813   6.359
 3335POPC   C2B44348   1.816  18.019   6.484
 3335POPC   C3B44349   1.736  17.976   6.935
 3335POPC   C4B44350   2.088  17.865   7.244
 3336POPC   NC344351   1.356  16.280   5.509
 3336POPC   PO444352   0.989  15.780   5.483
 3336POPC   GL144353   1.079  16.038   5.848
 3336POPC   GL244354   0.881  16.340   5.956
 3336POPC   C1A44355   1.301  16.181   6.216
 3336POPC   D2A44356   1.352  16.033   6.631
 3336POPC   C3A44357   1.049  15.808   6.912
 3336POPC   C4A44358   1.077  15.863   7.353
 3336POPC   C1B44359   0.684  16.427   6.351
 3336POPC   C2B44360   0.917  16.466   6.746
 3336POPC   C3B44361   1.186  16.274   7.057
 3336POPC   C4B44362   1.281  16.316   7.498
 3337POPC   NC344363  28.737  19.765   5.340
 3337POPC   PO444364  29.331  20.030   5.441
 3337POPC   GL144365  29.228  19.971   5.851
 3337POPC   GL244366  28.896  20.046   5.746
 3337POPC   C1A44367  29.248  19.784   6.294
 3337POPC   D2A44368  29.309  19.565   6.701
 3337POPC   C3A44369  29.082  19.775   7.049
 3337POPC   C4A44370  29.295  19.780   7.461
 3337POPC   C1B44371  28.870  20.114   6.170
 3337POPC   C2B44372  28.890  20.062   6.596
 3337POPC   C3B44373  29.056  20.287   6.928
 3337POPC   C4B44374  29.004  20.212   7.367
 3338POPC   NC344375  38.950  11.867   5.518
 3338POPC   PO444376  39.501  12.269   5.586
 3338POPC   GL144377  39.291  12.052   5.894
 3338POPC   GL244378  38.960  12.181   5.906
 3338POPC   C1A44379  39.392  11.950   6.310
 3338POPC   D2A44380  39.382  11.662   6.639
 3338POPC   C3A44381  39.384  11.918   7.003
 3338POPC   C4A44382  39.380  11.953   7.440
 3338POPC   C1B44383  39.040  12.351   6.294
 3338POPC   C2B44384  39.002  12.557   6.655
 3338POPC   C3B44385  39.040  12.328   7.012
 3338POPC   C4B44386  38.900  11.993   7.264
 3339POPC   NC344387   1.168  35.737   5.404
 3339POPC   PO444388   0.937  35.063   5.408
 3339POPC   GL144389   1.003  35.353   5.734
 3339POPC   GL244390   1.368  35.316   5.666
 3339POPC   C1A44391   1.136  35.392   6.169
 3339POPC   D2A44392   1.231  35.664   6.501
 3339POPC   C3A44393   1.152  35.521   6.898
 3339POPC   C4A44394   0.991  35.535   7.346
 3339POPC   C1B44395   1.597  35.195   6.035
 3339POPC   C2B44396   1.557  35.262   6.471
 3339POPC   C3B44397   1.637  35.320   6.890
 3339POPC   C4B44398   1.512  35.566   7.252
 3340POPC   NC344399  18.075  10.655   5.391
 3340POPC   PO444400  18.545  11.017   5.450
 3340POPC   GL144401  18.402  10.796   5.826
 3340POPC   GL244402  18.396  10.452   5.771
 3340POPC   C1A44403  18.289  10.650   6.259
 3340POPC   D2A44404  18.469  10.463   6.634
 3340POPC   C3A44405  18.289  10.691   7.002
 3340POPC   C4A44406  18.108  10.913   7.358
 3340POPC   C1B44407  18.412  10.173   6.121
 3340POPC   C2B44408  18.099  10.124   6.486
 3340POPC   C3B44409  18.048  10.235   6.920
 3340POPC   C4B44410  18.004  10.407   7.335
 3341POPC   NC344411  28.645  20.438   5.449
 3341POPC   PO444412  28.056  20.612   5.535
 3341POPC   GL144413  28.376  20.599   5.850
 3341POPC   GL244414  28.459  20.271   5.899
 3341POPC   C1A44415  28.533  20.807   6.214
 3341POPC   D2A44416  28.299  20.939   6.574
 3341POPC   C3A44417  28.395  20.921   7.003
 3341POPC   C4A44418  28.470  21.006   7.442
 3341POPC   C1B44419  28.437  20.333   6.341
 3341POPC   C2B44420  28.557  20.473   6.746
 3341POPC   C3B44421  28.318  20.432   7.132
 3341POPC   C4B44422  28.057  20.371   7.484
 3342POPC   NC344423  19.311  21.200   5.590
 3342POPC   PO444424  19.149  21.735   5.206
 3342POPC   GL144425  18.965  21.554   5.694
 3342POPC   GL244426  18.795  21.246   5.682
 3342POPC   C1A44427  19.028  21.694   6.177
 3342POPC   D2A44428  19.275  21.649   6.585
 3342POPC   C3A44429  19.184  21.354   6.918
 3342POPC   C4A44430  19.113  21.481   7.328
 3342POPC   C1B44431  18.822  21.247   6.105
 3342POPC   C2B44432  19.077  21.145   6.449
 3342POPC   C3B44433  19.061  20.865   6.782
 3342POPC   C4B44434  18.903  20.905   7.192
 3343POPC   NC344435  13.307  37.799   5.415
 3343POPC   PO444436  13.851  37.474   5.412
 3343POPC   GL144437  13.583  37.541   5.761
 3343POPC   GL244438  13.612  37.228   5.882
 3343POPC   C1A44439  13.447  37.691   6.159
 3343POPC   D2A44440  13.597  37.859   6.542
 3343POPC   C3A44441  13.426  37.721   6.908
 3343POPC   C4A44442  13.524  37.975   7.262
 3343POPC   C1B44443  13.630  37.231   6.322
 3343POPC   C2B44444  13.790  37.392   6.695
 3343POPC   C3B44445  13.704  37.340   7.124
 3343POPC   C4B44446  13.457  37.364   7.467
 3344POPC   NC344447  25.293   1.798   5.450
 3344POPC   PO444448  25.793   2.340   5.382
 3344POPC   GL144449  25.529   2.189   5.764
 3344POPC   GL244450  25.585   1.851   5.864
 3344POPC   C1A44451  25.199   2.031   6.106
 3344POPC   D2A44452  24.925   1.815   6.411
 3344POPC   C3A44453  25.003   1.881   6.846
 3344POPC   C4A44454  25.003   2.003   7.272
 3344POPC   C1B44455  25.644   1.817   6.323
 3344POPC   C2B44456  25.507   1.937   6.745
 3344POPC   C3B44457  25.536   1.946   7.225
 3344POPC   C4B44458  25.781   2.188   7.579
 3345POPC   NC344459  36.399  35.734   5.557
 3345POPC   PO444460  36.099  36.215   5.320
 3345POPC   GL144461  36.082  36.157   5.806
 3345POPC   GL244462  35.971  35.784   5.844
 3345POPC   C1A44463  36.222  36.330   6.256
 3345POPC   D2A44464  36.359  36.146   6.677
 3345POPC   C3A44465  36.445  36.342   7.081
 3345POPC   C4A44466  36.084  36.268   7.387
 3345POPC   C1B44467  35.949  35.863   6.297
 3345POPC   C2B44468  35.770  35.747   6.704
 3345POPC   C3B44469  36.001  35.877   7.072
 3345POPC   C4B44470  36.136  35.693   7.489
 3346POPC   NC344471   2.309  18.081   5.530
 3346POPC   PO444472   2.741  18.402   5.269
 3346POPC   GL144473   2.732  18.306   5.724
 3346POPC   GL244474   2.986  18.587   5.790
 3346POPC   C1A44475   2.568  18.086   6.115
 3346POPC   D2A44476   2.672  18.166   6.528
 3346POPC   C3A44477   2.687  18.035   6.944
 3346POPC   C4A44478   2.547  18.283   7.251
 3346POPC   C1B44479   3.135  18.701   6.186
 3346POPC   C2B44480   3.064  18.467   6.544
 3346POPC   C3B44481   2.917  18.512   6.941
 3346POPC   C4B44482   2.936  18.628   7.358
 3347POPC   NC344483   0.599  34.692   5.524
 3347POPC   PO444484   0.012  34.398   5.254
 3347POPC   GL144485   0.180  34.402   5.705
 3347POPC   GL244486   0.507  34.300   5.815
 3347POPC   C1A44487   0.243  34.693   6.089
 3347POPC   D2A44488   0.283  34.998   6.444
 3347POPC   C3A44489   0.583  34.929   6.751
 3347POPC   C4A44490   0.609  34.758   7.147
 3347POPC   C1B44491   0.502  34.295   6.231
 3347POPC   C2B44492   0.293  34.486   6.581
 3347POPC   C3B44493   0.365  34.336   6.979
 3347POPC   C4B44494   0.774  34.286   7.216
 3348POPC   NC344495  16.642  35.139   5.482
 3348POPC   PO444496  16.970  35.654   5.575
 3348POPC   GL144497  16.939  35.292   5.882
 3348POPC   GL244498  17.014  34.929   5.759
 3348POPC   C1A44499  16.866  35.306   6.349
 3348POPC   D2A44500  16.605  35.237   6.723
 3348POPC   C3A44501  16.658  35.523   7.044
 3348POPC   C4A44502  16.845  35.631   7.423
 3348POPC   C1B44503  17.188  34.924   6.195
 3348POPC   C2B44504  17.002  34.897   6.651
 3348POPC   C3B44505  17.058  35.035   7.090
 3348POPC   C4B44506  16.975  34.812   7.454
 3349POPC   NC344507   4.233   6.324   5.323
 3349POPC   PO444508   4.261   5.657   5.505
 3349POPC   GL144509   4.231   5.876   5.914
 3349POPC   GL244510   3.921   5.988   6.073
 3349POPC   C1A44511   4.457   5.846   6.289
 3349POPC   D2A44512   4.509   5.554   6.634
 3349POPC   C3A44513   4.693   5.778   6.981
 3349POPC   C4A44514   4.541   6.162   7.256
 3349POPC   C1B44515   3.890   5.701   6.351
 3349POPC   C2B44516   4.110   5.887   6.656
 3349POPC   C3B44517   4.151   5.873   7.036
 3349POPC   C4B44518   3.811   6.077   7.151
 3350POPC   NC344519  43.667  17.748   4.967
 3350POPC   PO444520  43.908  17.272   5.418
 3350POPC   GL144521  44.042  17.498   5.789
 3350POPC   GL244522  43.874  17.801   5.806
 3350POPC   C1A44523  44.082  17.657   6.235
 3350POPC   D2A44524  43.841  17.495   6.575
 3350POPC   C3A44525  44.056  17.636   6.920
 3350POPC   C4A44526  44.206  17.562   7.311
 3350POPC   C1B44527  43.618  17.530   6.105
 3350POPC   C2B44528  43.374  17.698   6.476
 3350POPC   C3B44529  43.541  17.693   6.934
 3350POPC   C4B44530  43.708  17.354   7.172
 3351POPC   NC344531  17.496  31.681   4.976
 3351POPC   PO444532  17.686  31.101   5.334
 3351POPC   GL144533  17.554  31.353   5.734
 3351POPC   GL244534  17.307  31.647   5.729
 3351POPC   C1A44535  17.722  31.319   6.178
 3351POPC   D2A44536  17.467  31.306   6.552
 3351POPC   C3A44537  17.666  31.409   6.914
 3351POPC   C4A44538  17.466  31.639   7.255
 3351POPC   C1B44539  17.598  31.778   6.085
 3351POPC   C2B44540  17.792  31.729   6.516
 3351POPC   C3B44541  17.756  31.921   6.928
 3351POPC   C4B44542  17.827  31.977   7.374
 3352POPC   NC344543  37.946  42.712   5.498
 3352POPC   PO444544  37.473  42.191   5.618
 3352POPC   GL144545  37.803  42.333   5.826
 3352POPC   GL244546  37.629  42.626   5.893
 3352POPC   C1A44547  37.806  42.345   6.268
 3352POPC   D2A44548  37.773  42.574   6.622
 3352POPC   C3A44549  37.593  42.303   6.908
 3352POPC   C4A44550  37.753  42.231   7.278
 3352POPC   C1B44551  37.525  42.872   6.256
 3352POPC   C2B44552  37.593  43.066   6.656
 3352POPC   C3B44553  37.460  42.812   6.969
 3352POPC   C4B44554  37.638  42.714   7.303
 3353POPC   NC344555  15.317  29.956   5.071
 3353POPC   PO444556  15.427  30.240   5.673
 3353POPC   GL144557  15.225  29.955   5.912
 3353POPC   GL244558  14.911  30.066   5.878
 3353POPC   C1A44559  15.228  29.866   6.372
 3353POPC   D2A44560  15.457  29.691   6.700
 3353POPC   C3A44561  15.434  29.837   7.109
 3353POPC   C4A44562  15.530  29.995   7.530
 3353POPC   C1B44563  14.740  29.896   6.275
 3353POPC   C2B44564  14.833  29.880   6.730
 3353POPC   C3B44565  14.969  29.596   7.053
 3353POPC   C4B44566  15.095  29.725   7.458
 3354POPC   NC344567  15.367  10.407   5.458
 3354POPC   PO444568  14.777  10.784   5.247
 3354POPC   GL144569  14.852  10.608   5.741
 3354POPC   GL244570  14.938  10.262   5.790
 3354POPC   C1A44571  15.043  10.679   6.189
 3354POPC   D2A44572  15.264  10.627   6.615
 3354POPC   C3A44573  15.122  10.685   7.067
 3354POPC   C4A44574  15.330  10.673   7.509
 3354POPC   C1B44575  14.745  10.128   6.193
 3354POPC   C2B44576  14.808   9.974   6.634
 3354POPC   C3B44577  14.909  10.200   7.050
 3354POPC   C4B44578  14.879  10.052   7.527
 3355POPC   NC344579  31.977  19.621   5.531
 3355POPC   PO444580  32.221  18.937   5.367
 3355POPC   GL144581  32.414  19.021   5.804
 3355POPC   GL244582  32.469  19.362   5.820
 3355POPC   C1A44583  32.302  19.138   6.280
 3355POPC   D2A44584  32.305  19.305   6.725
 3355POPC   C3A44585  32.134  19.034   7.057
 3355POPC   C4A44586  31.874  18.630   7.034
 3355POPC   C1B44587  32.535  19.602   6.214
 3355POPC   C2B44588  32.360  19.825   6.589
 3355POPC   C3B44589  32.490  19.741   7.008
 3355POPC   C4B44590  32.308  19.452   7.294
 3356POPC   NC344591  13.706   7.975   5.267
 3356POPC   PO444592  13.557   8.624   5.344
 3356POPC   GL144593  13.678   8.314   5.690
 3356POPC   GL244594  13.444   8.015   5.704
 3356POPC   C1A44595  13.545   8.366   6.152
 3356POPC   D2A44596  13.687   8.498   6.582
 3356POPC   C3A44597  13.438   8.372   6.965
 3356POPC   C4A44598  13.529   8.394   7.428
 3356POPC   C1B44599  13.560   7.842   6.104
 3356POPC   C2B44600  13.482   7.976   6.525
 3356POPC   C3B44601  13.472   7.831   6.940
 3356POPC   C4B44602  13.661   7.919   7.320
 3357POPC   NC344603  24.067  35.894   5.409
 3357POPC   PO444604  23.524  36.011   5.339
 3357POPC   GL144605  23.588  36.034   5.778
 3357POPC   GL244606  23.880  36.221   5.891
 3357POPC   C1A44607  23.476  36.156   6.216
 3357POPC   D2A44608  23.549  36.322   6.649
 3357POPC   C3A44609  23.478  36.072   7.070
 3357POPC   C4A44610  23.538  36.225   7.534
 3357POPC   C1B44611  24.001  36.137   6.365
 3357POPC   C2B44612  23.974  36.129   6.856
 3357POPC   C3B44613  23.998  36.126   7.310
 3357POPC   C4B44614  23.900  35.842   7.660
 3358POPC   NC344615  15.355  33.267   5.304
 3358POPC   PO444616  15.533  32.666   5.600
 3358POPC   GL144617  15.425  33.067   5.789
 3358POPC   GL244618  15.100  33.151   5.866
 3358POPC   C1A44619  15.452  33.195   6.202
 3358POPC   D2A44620  15.219  33.176   6.610
 3358POPC   C3A44621  15.341  32.923   6.988
 3358POPC   C4A44622  15.238  33.032   7.418
 3358POPC   C1B44623  14.869  33.260   6.207
 3358POPC   C2B44624  14.733  33.356   6.613
 3358POPC   C3B44625  14.846  33.159   7.006
 3358POPC   C4B44626  14.839  33.333   7.397
 3359POPC   NC344627  19.761  40.471   5.422
 3359POPC   PO444628  19.681  39.777   5.380
 3359POPC   GL144629  19.715  39.980   5.816
 3359POPC   GL244630  19.670  40.336   5.909
 3359POPC   C1A44631  19.772  39.906   6.284
 3359POPC   D2A44632  19.850  39.714   6.697
 3359POPC   C3A44633  19.792  39.882   7.115
 3359POPC   C4A44634  19.597  39.613   7.431
 3359POPC   C1B44635  19.825  40.437   6.327
 3359POPC   C2B44636  20.004  40.207   6.679
 3359POPC   C3B44637  20.095  40.335   7.095
 3359POPC   C4B44638  19.995  40.351   7.526
 3360POPC   NC344639   3.801  14.226   5.200
 3360POPC   PO444640   4.396  14.305   5.578
 3360POPC   GL144641   4.272  14.488   5.933
 3360POPC   GL244642   4.586  14.569   6.026
 3360POPC   C1A44643   4.091  14.406   6.341
 3360POPC   D2A44644   4.035  14.263   6.755
 3360POPC   C3A44645   4.008  14.601   7.042
 3360POPC   C4A44646   4.137  14.478   7.439
 3360POPC   C1B44647   4.484  14.726   6.380
 3360POPC   C2B44648   4.422  14.641   6.764
 3360POPC   C3B44649   4.538  14.386   7.093
 3360POPC   C4B44650   4.602  14.227   7.506
 3361POPC   NC344651  23.965  21.163   5.483
 3361POPC   PO444652  23.446  21.487   5.492
 3361POPC   GL144653  23.632  21.387   5.878
 3361POPC   GL244654  23.352  21.196   5.983
 3361POPC   C1A44655  23.726  21.347   6.326
 3361POPC   D2A44656  23.412  21.236   6.641
 3361POPC   C3A44657  23.609  21.209   7.062
 3361POPC   C4A44658  23.958  21.505   7.185
 3361POPC   C1B44659  23.293  21.593   6.252
 3361POPC   C2B44660  23.342  21.797   6.640
 3361POPC   C3B44661  23.521  21.722   7.041
 3361POPC   C4B44662  23.466  21.855   7.445
 3362POPC   NC344663  37.626   6.326   5.337
 3362POPC   PO444664  37.225   6.863   5.360
 3362POPC   GL144665  37.517   6.794   5.745
 3362POPC   GL244666  37.658   6.435   5.832
 3362POPC   C1A44667  37.565   6.805   6.224
 3362POPC   D2A44668  37.384   6.780   6.677
 3362POPC   C3A44669  37.665   6.847   7.046
 3362POPC   C4A44670  37.496   6.666   7.474
 3362POPC   C1B44671  37.952   6.407   6.198
 3362POPC   C2B44672  37.853   6.536   6.629
 3362POPC   C3B44673  37.756   6.359   7.041
 3362POPC   C4B44674  37.925   6.417   7.443
 3363POPC   NC344675  31.723  22.847   5.359
 3363POPC   PO444676  31.439  23.421   5.466
 3363POPC   GL144677  31.741  23.199   5.746
 3363POPC   GL244678  31.572  22.890   5.848
 3363POPC   C1A44679  31.869  23.158   6.177
 3363POPC   D2A44680  31.701  23.347   6.558
 3363POPC   C3A44681  31.499  23.060   6.877
 3363POPC   C4A44682  31.402  22.767   7.216
 3363POPC   C1B44683  31.410  22.945   6.249
 3363POPC   C2B44684  31.060  23.056   6.491
 3363POPC   C3B44685  31.001  23.243   6.859
 3363POPC   C4B44686  31.135  23.198   7.270
 3364POPC   NC344687  33.172  34.823   5.466
 3364POPC   PO444688  32.809  34.283   5.527
 3364POPC   GL144689  32.882  34.570   5.842
 3364POPC   GL244690  33.222  34.459   5.831
 3364POPC   C1A44691  32.798  34.620   6.284
 3364POPC   D2A44692  32.927  34.426   6.666
 3364POPC   C3A44693  32.772  34.631   7.014
 3364POPC   C4A44694  32.730  34.537   7.408
 3364POPC   C1B44695  33.283  34.735   6.146
 3364POPC   C2B44696  33.234  34.847   6.554
 3364POPC   C3B44697  33.283  34.689   6.948
 3364POPC   C4B44698  33.156  34.815   7.328
 3365POPC   NC344699  22.568  27.148   5.526
 3365POPC   PO444700  22.924  26.642   5.388
 3365POPC   GL144701  22.874  26.733   5.794
 3365POPC   GL244702  23.134  26.958   5.794
 3365POPC   C1A44703  23.033  26.686   6.222
 3365POPC   D2A44704  23.305  26.460   6.481
 3365POPC   C3A44705  23.194  26.536   6.869
 3365POPC   C4A44706  22.763  26.593   7.007
 3365POPC   C1B44707  22.864  27.159   6.113
 3365POPC   C2B44708  22.640  27.078   6.469
 3365POPC   C3B44709  22.578  27.058   6.916
 3365POPC   C4B44710  22.956  27.049   7.194
 3366POPC   NC344711  24.080  14.480   5.518
 3366POPC   PO444712  24.522  14.002   5.397
 3366POPC   GL144713  24.356  14.174   5.811
 3366POPC   GL244714  24.401  14.580   5.883
 3366POPC   C1A44715  24.299  14.252   6.256
 3366POPC   D2A44716  24.507  14.089   6.618
 3366POPC   C3A44717  24.381  14.230   7.028
 3366POPC   C4A44718  24.673  14.562   7.211
 3366POPC   C1B44719  24.358  14.785   6.288
 3366POPC   C2B44720  24.462  14.670   6.715
 3366POPC   C3B44721  24.195  14.696   7.074
 3366POPC   C4B44722  24.327  14.836   7.484
 3367POPC   NC344723  22.571  10.315   5.363
 3367POPC   PO444724  21.885  10.344   5.250
 3367POPC   GL144725  21.915  10.563   5.664
 3367POPC   GL244726  22.260  10.462   5.720
 3367POPC   C1A44727  22.070  10.705   6.105
 3367POPC   D2A44728  22.342  10.732   6.465
 3367POPC   C3A44729  22.190  10.754   6.892
 3367POPC   C4A44730  22.353  10.677   7.287
 3367POPC   C1B44731  22.076  10.194   6.024
 3367POPC   C2B44732  22.142  10.181   6.464
 3367POPC   C3B44733  22.310  10.242   6.866
 3367POPC   C4B44734  22.167  10.215   7.271
 3368POPC   NC344735  30.208  20.710   5.343
 3368POPC   PO444736  30.816  20.396   5.213
 3368POPC   GL144737  30.788  20.684   5.625
 3368POPC   GL244738  30.449  20.742   5.791
 3368POPC   C1A44739  30.977  20.612   6.053
 3368POPC   D2A44740  30.904  20.315   6.409
 3368POPC   C3A44741  30.946  20.455   6.862
 3368POPC   C4A44742  30.938  20.348   7.334
 3368POPC   C1B44743  30.486  20.561   6.201
 3368POPC   C2B44744  30.439  20.357   6.637
 3368POPC   C3B44745  30.487  20.394   7.096
 3368POPC   C4B44746  30.355  20.740   7.360
 3369POPC   NC344747  27.726   0.876   5.515
 3369POPC   PO444748  27.523   1.545   5.420
 3369POPC   GL144749  27.712   1.398   5.848
 3369POPC   GL244750  27.616   1.053   5.972
 3369POPC   C1A44751  27.524   1.413   6.307
 3369POPC   D2A44752  27.281   1.245   6.668
 3369POPC   C3A44753  27.481   1.484   6.958
 3369POPC   C4A44754  27.750   1.300   7.243
 3369POPC   C1B44755  27.343   0.872   6.298
 3369POPC   C2B44756  27.379   0.716   6.738
 3369POPC   C3B44757  27.442   0.881   7.154
 3369POPC   C4B44758  27.217   1.249   7.320
 3370POPC   NC344759   3.738  25.565   5.070
 3370POPC   PO444760   3.391  25.034   5.282
 3370POPC   GL144761   3.483  25.051   5.744
 3370POPC   GL244762   3.668  25.355   5.736
 3370POPC   C1A44763   3.422  25.186   6.197
 3370POPC   D2A44764   3.587  25.329   6.630
 3370POPC   C3A44765   3.343  25.354   7.045
 3370POPC   C4A44766   3.477  25.369   7.503
 3370POPC   C1B44767   3.905  25.319   6.112
 3370POPC   C2B44768   3.916  24.963   6.375
 3370POPC   C3B44769   3.865  24.915   6.797
 3370POPC   C4B44770   3.688  25.010   7.180
 3371POPC   NC344771  30.974  13.465   5.352
 3371POPC   PO444772  30.994  14.140   5.372
 3371POPC   GL144773  30.857  13.836   5.751
 3371POPC   GL244774  30.715  13.463   5.781
 3371POPC   C1A44775  30.664  13.779   6.183
 3371POPC   D2A44776  30.646  13.584   6.598
 3371POPC   C3A44777  30.645  13.823   6.989
 3371POPC   C4A44778  30.954  13.852   7.294
 3371POPC   C1B44779  30.623  13.247   6.190
 3371POPC   C2B44780  30.472  13.116   6.627
 3371POPC   C3B44781  30.619  13.308   7.046
 3371POPC   C4B44782  30.609  13.527   7.470
 3372POPC   NC344783  23.543   8.356   5.345
 3372POPC   PO444784  24.079   7.977   5.300
 3372POPC   GL144785  23.835   8.092   5.668
 3372POPC   GL244786  23.665   7.825   5.749
 3372POPC   C1A44787  23.747   8.264   6.093
 3372POPC   D2A44788  23.826   8.453   6.501
 3372POPC   C3A44789  23.680   8.287   6.903
 3372POPC   C4A44790  23.852   8.321   7.300
 3372POPC   C1B44791  23.936   7.798   6.122
 3372POPC   C2B44792  23.770   7.925   6.534
 3372POPC   C3B44793  23.936   7.856   6.974
 3372POPC   C4B44794  23.884   7.605   7.349
 3373POPC   NC344795  21.058  16.761   5.241
 3373POPC   PO444796  20.421  16.563   5.278
 3373POPC   GL144797  20.562  16.720   5.709
 3373POPC   GL244798  20.876  16.917   5.810
 3373POPC   C1A44799  20.684  16.592   6.157
 3373POPC   D2A44800  20.531  16.412   6.531
 3373POPC   C3A44801  20.638  16.543   6.933
 3373POPC   C4A44802  20.716  16.339   7.322
 3373POPC   C1B44803  20.783  17.078   6.222
 3373POPC   C2B44804  20.778  17.229   6.623
 3373POPC   C3B44805  20.603  17.091   7.022
 3373POPC   C4B44806  20.467  16.794   7.340
 3374POPC   NC344807   0.292   9.221   5.187
 3374POPC   PO444808   0.707   9.753   5.464
 3374POPC   GL144809   0.407   9.839   5.804
 3374POPC   GL244810   0.060   9.734   5.937
 3374POPC   C1A44811   0.411   9.884   6.246
 3374POPC   D2A44812   0.522   9.689   6.598
 3374POPC   C3A44813   0.702  10.007   6.850
 3374POPC   C4A44814   0.450  10.250   7.121
 3374POPC   C1B44815  44.884   9.905   6.311
 3374POPC   C2B44816   0.020   9.957   6.745
 3374POPC   C3B44817   0.283   9.780   7.049
 3374POPC   C4B44818   0.238   9.671   7.469
 3375POPC   NC344819  33.461  14.668   5.531
 3375POPC   PO444820  34.118  14.546   5.482
 3375POPC   GL144821  33.849  14.340   5.771
 3375POPC   GL244822  33.516  14.170   5.693
 3375POPC   C1A44823  33.876  14.414   6.225
 3375POPC   D2A44824  33.805  14.122   6.569
 3375POPC   C3A44825  33.939  14.236   6.980
 3375POPC   C4A44826  33.811  14.289   7.430
 3375POPC   C1B44827  33.379  14.321   6.134
 3375POPC   C2B44828  33.479  14.536   6.560
 3375POPC   C3B44829  33.453  14.416   7.002
 3375POPC   C4B44830  33.308  14.228   7.413
 3376POPC   NC344831  36.436  26.511   5.470
 3376POPC   PO444832  36.877  25.934   5.460
 3376POPC   GL144833  36.878  26.004   5.891
 3376POPC   GL244834  36.560  26.168   5.851
 3376POPC   C1A44835  36.964  25.854   6.348
 3376POPC   D2A44836  37.129  25.867   6.780
 3376POPC   C3A44837  36.929  26.010   7.139
 3376POPC   C4A44838  37.091  25.974   7.570
 3376POPC   C1B44839  36.560  26.174   6.291
 3376POPC   C2B44840  36.743  26.204   6.677
 3376POPC   C3B44841  36.553  26.386   7.015
 3376POPC   C4B44842  36.410  26.212   7.364
 3377POPC   NC344843  34.848  34.378   5.421
 3377POPC   PO444844  34.365  34.876   5.489
 3377POPC   GL144845  34.679  34.759   5.802
 3377POPC   GL244846  34.730  34.462   5.898
 3377POPC   C1A44847  34.629  34.813   6.273
 3377POPC   D2A44848  34.497  34.795   6.724
 3377POPC   C3A44849  34.728  34.487   6.970
 3377POPC   C4A44850  34.723  34.492   7.403
 3377POPC   C1B44851  34.635  34.261   6.224
 3377POPC   C2B44852  34.521  34.208   6.595
 3377POPC   C3B44853  34.200  34.370   6.806
 3377POPC   C4B44854  34.270  34.419   7.200
 3378POPC   NC344855   0.175  13.370   5.525
 3378POPC   PO444856   0.799  13.431   5.273
 3378POPC   GL144857   0.573  13.682   5.593
 3378POPC   GL244858   0.786  13.828   5.779
 3378POPC   C1A44859   0.337  13.786   6.028
 3378POPC   D2A44860   0.304  13.538   6.461
 3378POPC   C3A44861   0.145  13.593   6.907
 3378POPC   C4A44862   0.202  13.441   7.369
 3378POPC   C1B44863   0.729  13.491   6.143
 3378POPC   C2B44864   0.770  13.368   6.620
 3378POPC   C3B44865   0.699  13.424   7.087
 3378POPC   C4B44866   0.859  13.706   7.357
 3379POPC   NC344867  15.377  38.674   5.397
 3379POPC   PO444868  15.566  37.964   5.506
 3379POPC   GL144869  15.546  38.300   5.810
 3379POPC   GL244870  15.195  38.387   5.870
 3379POPC   C1A44871  15.515  38.318   6.287
 3379POPC   D2A44872  15.594  38.422   6.737
 3379POPC   C3A44873  15.255  38.528   7.012
 3379POPC   C4A44874  15.377  38.486   7.433
 3379POPC   C1B44875  15.000  38.319   6.305
 3379POPC   C2B44876  14.789  38.333   6.750
 3379POPC   C3B44877  14.920  38.146   7.177
 3379POPC   C4B44878  14.826  38.001   7.627
 3380POPC   NC344879  24.250  13.606   5.358
 3380POPC   PO444880  24.892  13.432   5.546
 3380POPC   GL144881  24.538  13.622   5.787
 3380POPC   GL244882  24.189  13.465   5.857
 3380POPC   C1A44883  24.488  13.745   6.204
 3380POPC   D2A44884  24.595  13.538   6.585
 3380POPC   C3A44885  24.439  13.713   6.957
 3380POPC   C4A44886  24.431  13.459   7.275
 3380POPC   C1B44887  24.196  13.312   6.298
 3380POPC   C2B44888  24.071  13.459   6.708
 3380POPC   C3B44889  23.926  13.367   7.139
 3380POPC   C4B44890  24.035  13.423   7.598
 3381POPC   NC344891  14.049   7.142   5.334
 3381POPC   PO444892  13.487   7.567   5.270
 3381POPC   GL144893  13.763   7.596   5.659
 3381POPC   GL244894  14.000   7.890   5.744
 3381POPC   C1A44895  13.702   7.320   6.028
 3381POPC   D2A44896  13.840   7.196   6.430
 3381POPC   C3A44897  13.593   7.267   6.808
 3381POPC   C4A44898  13.598   7.388   7.237
 3381POPC   C1B44899  14.040   7.671   6.175
 3381POPC   C2B44900  13.875   7.664   6.618
 3381POPC   C3B44901  14.025   7.661   7.046
 3381POPC   C4B44902  13.987   7.591   7.513
 3382POPC   NC344903   0.776  15.359   5.476
 3382POPC   PO444904   1.325  14.999   5.390
 3382POPC   GL144905   1.178  15.200   5.762
 3382POPC   GL244906   1.330  15.505   5.760
 3382POPC   C1A44907   1.244  15.056   6.181
 3382POPC   D2A44908   1.000  15.030   6.537
 3382POPC   C3A44909   1.247  15.095   6.879
 3382POPC   C4A44910   1.134  15.027   7.302
 3382POPC   C1B44911   1.284  15.661   6.159
 3382POPC   C2B44912   1.285  15.508   6.552
 3382POPC   C3B44913   1.528  15.631   6.915
 3382POPC   C4B44914   1.349  15.466   7.253
 3383POPC   NC344915  40.539  43.743   5.345
 3383POPC   PO444916  41.129  44.190   5.371
 3383POPC   GL144917  40.827  44.088   5.724
 3383POPC   GL244918  40.758  43.730   5.816
 3383POPC   C1A44919  40.754  44.063   6.197
 3383POPC   D2A44920  40.746  44.153   6.624
 3383POPC   C3A44921  40.469  44.046   6.951
 3383POPC   C4A44922  40.547  43.988   7.360
 3383POPC   C1B44923  40.765  43.541   6.245
 3383POPC   C2B44924  40.741  43.630   6.681
 3383POPC   C3B44925  40.948  43.792   7.050
 3383POPC   C4B44926  40.838  43.579   7.429
 3384POPC   NC344927   9.011  36.787   5.362
 3384POPC   PO444928   8.625  37.382   5.360
 3384POPC   GL144929   8.883  37.214   5.768
 3384POPC   GL244930   8.995  36.839   5.874
 3384POPC   C1A44931   8.805  37.109   6.249
 3384POPC   D2A44932   9.160  36.989   6.543
 3384POPC   C3A44933   9.082  36.847   6.964
 3384POPC   C4A44934   9.204  37.139   7.259
 3384POPC   C1B44935   9.048  36.563   6.280
 3384POPC   C2B44936   9.366  36.506   6.629
 3384POPC   C3B44937   9.443  36.485   7.084
 3384POPC   C4B44938   9.090  36.442   7.337
 3385POPC   NC344939  35.169  17.818   5.384
 3385POPC   PO444940  35.607  17.323   5.265
 3385POPC   GL144941  35.231  17.338   5.666
 3385POPC   GL244942  35.216  17.671   5.856
 3385POPC   C1A44943  35.222  17.293   6.182
 3385POPC   D2A44944  35.595  17.354   6.465
 3385POPC   C3A44945  35.516  17.419   6.897
 3385POPC   C4A44946  35.474  17.215   7.259
 3385POPC   C1B44947  35.071  17.824   6.254
 3385POPC   C2B44948  35.098  17.666   6.660
 3385POPC   C3B44949  35.081  17.667   7.096
 3385POPC   C4B44950  35.074  17.453   7.498
 3386POPC   NC344951  23.302  31.727   5.548
 3386POPC   PO444952  23.735  31.219   5.594
 3386POPC   GL144953  23.870  31.480   5.885
 3386POPC   GL244954  23.522  31.525   5.984
 3386POPC   C1A44955  23.936  31.293   6.275
 3386POPC   D2A44956  23.776  31.352   6.693
 3386POPC   C3A44957  23.942  31.569   7.038
 3386POPC   C4A44958  24.089  31.381   7.407
 3386POPC   C1B44959  23.578  31.712   6.361
 3386POPC   C2B44960  23.386  31.744   6.741
 3386POPC   C3B44961  23.492  31.792   7.145
 3386POPC   C4B44962  23.603  31.469   7.435
 3387POPC   NC344963  38.387  18.748   5.405
 3387POPC   PO444964  38.768  19.359   5.450
 3387POPC   GL144965  38.626  19.264   5.838
 3387POPC   GL244966  38.647  18.898   5.823
 3387POPC   C1A44967  38.636  19.359   6.268
 3387POPC   D2A44968  38.327  19.345   6.584
 3387POPC   C3A44969  38.514  19.280   6.976
 3387POPC   C4A44970  38.269  19.200   7.346
 3387POPC   C1B44971  38.371  18.926   6.196
 3387POPC   C2B44972  38.518  18.849   6.607
 3387POPC   C3B44973  38.358  18.793   7.026
 3387POPC   C4B44974  38.311  18.683   7.445
 3388POPC   NC344975  40.557  29.060   5.348
 3388POPC   PO444976  41.069  29.398   5.474
 3388POPC   GL144977  40.754  29.310   5.774
 3388POPC   GL244978  40.687  28.959   5.862
 3388POPC   C1A44979  40.673  29.321   6.215
 3388POPC   D2A44980  40.788  29.164   6.609
 3388POPC   C3A44981  40.632  29.422   6.942
 3388POPC   C4A44982  40.885  29.321   7.265
 3388POPC   C1B44983  40.456  28.826   6.272
 3388POPC   C2B44984  40.338  28.906   6.719
 3388POPC   C3B44985  40.620  28.912   7.080
 3388POPC   C4B44986  40.680  28.943   7.556
 3389POPC   NC344987  44.023  20.345   5.410
 3389POPC   PO444988  43.450  20.689   5.347
 3389POPC   GL144989  43.769  20.750   5.679
 3389POPC   GL244990  43.788  20.463   5.848
 3389POPC   C1A44991  43.942  20.856   6.122
 3389POPC   D2A44992  43.895  20.640   6.527
 3389POPC   C3A44993  44.037  20.811   6.929
 3389POPC   C4A44994  43.855  20.943   7.286
 3389POPC   C1B44995  43.725  20.240   6.219
 3389POPC   C2B44996  43.977  20.121   6.554
 3389POPC   C3B44997  43.817  20.174   6.935
 3389POPC   C4B44998  43.910  20.413   7.270
 3390POPC   NC344999  14.185  24.835   5.453
 3390POPC   PO445000  14.457  25.523   5.495
 3390POPC   GL145001  14.401  25.207   5.780
 3390POPC   GL245002  14.065  25.297   5.833
 3390POPC   C1A45003  14.418  25.135   6.241
 3390POPC   D2A45004  14.603  24.938   6.626
 3390POPC   C3A45005  14.640  25.061   7.056
 3390POPC   C4A45006  14.653  25.094   7.501
 3390POPC   C1B45007  14.178  25.582   6.221
 3390POPC   C2B45008  14.174  25.431   6.668
 3390POPC   C3B45009  14.214  25.318   7.104
 3390POPC   C4B45010  14.324  25.515   7.472
 3391POPC   NC345011  43.922   5.909   5.331
 3391POPC   PO445012  44.332   6.265   5.697
 3391POPC   GL145013  44.068   6.023   5.897
 3391POPC   GL245014  43.964   5.726   5.798
 3391POPC   C1A45015  43.899   5.898   6.284
 3391POPC   D2A45016  44.056   6.060   6.660
 3391POPC   C3A45017  43.838   6.068   7.037
 3391POPC   C4A45018  44.036   5.769   7.280
 3391POPC   C1B45019  43.535   5.662   5.966
 3391POPC   C2B45020  43.454   5.612   6.394
 3391POPC   C3B45021  43.679   5.622   6.804
 3391POPC   C4B45022  43.517   5.655   7.229
 3392POPC   NC345023  11.644  16.918   5.310
 3392POPC   PO445024  11.074  16.737   5.281
 3392POPC   GL145025  11.341  16.627   5.681
 3392POPC   GL245026  11.685  16.449   5.636
 3392POPC   C1A45027  11.338  16.648   6.180
 3392POPC   D2A45028  11.417  16.814   6.637
 3392POPC   C3A45029  11.263  16.770   7.094
 3392POPC   C4A45030  11.086  16.655   7.512
 3392POPC   C1B45031  11.793  16.451   6.080
 3392POPC   C2B45032  11.848  16.497   6.579
 3392POPC   C3B45033  11.618  16.366   6.990
 3392POPC   C4B45034  11.564  16.517   7.422
 3393POPC   NC345035  24.867  37.925   5.575
 3393POPC   PO445036  24.280  38.153   5.448
 3393POPC   GL145037  24.451  38.489   5.769
 3393POPC   GL245038  24.811  38.546   5.802
 3393POPC   C1A45039  24.526  38.649   6.205
 3393POPC   D2A45040  24.316  38.548   6.553
 3393POPC   C3A45041  24.509  38.640   6.921
 3393POPC   C4A45042  24.428  38.432   7.263
 3393POPC   C1B45043  24.844  38.254   6.170
 3393POPC   C2B45044  24.784  38.381   6.602
 3393POPC   C3B45045  24.860  38.261   7.051
 3393POPC   C4B45046  24.942  38.568   7.346
 3394POPC   NC345047  16.204  28.197   5.650
 3394POPC   PO445048  15.573  28.599   5.463
 3394POPC   GL145049  15.782  28.420   5.793
 3394POPC   GL245050  15.668  28.129   5.943
 3394POPC   C1A45051  16.039  28.564   6.159
 3394POPC   D2A45052  16.145  28.662   6.573
 3394POPC   C3A45053  15.962  28.547   6.968
 3394POPC   C4A45054  15.646  28.259   7.105
 3394POPC   C1B45055  15.977  28.046   6.272
 3394POPC   C2B45056  16.091  28.112   6.684
 3394POPC   C3B45057  16.000  27.886   7.057
 3394POPC   C4B45058  15.894  28.011   7.465
 3395POPC   NC345059  25.892   7.630   5.300
 3395POPC   PO445060  26.345   7.226   5.556
 3395POPC   GL145061  26.145   7.440   5.882
 3395POPC   GL245062  25.808   7.506   5.798
 3395POPC   C1A45063  25.894   7.254   6.234
 3395POPC   D2A45064  25.783   7.401   6.641
 3395POPC   C3A45065  26.124   7.525   6.916
 3395POPC   C4A45066  26.235   7.398   7.353
 3395POPC   C1B45067  25.676   7.724   6.203
 3395POPC   C2B45068  25.688   7.902   6.647
 3395POPC   C3B45069  25.613   7.709   7.074
 3395POPC   C4B45070  25.809   7.762   7.526
 3396POPC   NC345071  34.086   0.516   5.038
 3396POPC   PO445072  33.704   0.214   5.392
 3396POPC   GL145073  33.886   0.409   5.808
 3396POPC   GL245074  34.070   0.115   6.053
 3396POPC   C1A45075  33.947   0.569   6.211
 3396POPC   D2A45076  33.779   0.599   6.607
 3396POPC   C3A45077  33.997   0.643   6.963
 3396POPC   C4A45078  33.649   0.599   7.200
 3396POPC   C1B45079  33.666   0.096   6.248
 3396POPC   C2B45080  33.547   0.111   6.681
 3396POPC   C3B45081  33.844   0.172   6.994
 3396POPC   C4B45082  34.273   0.103   7.028
 3397POPC   NC345083  14.732   6.959   5.109
 3397POPC   PO445084  14.442   7.515   5.283
 3397POPC   GL145085  14.424   7.512   5.766
 3397POPC   GL245086  14.732   7.736   5.837
 3397POPC   C1A45087  14.307   7.240   6.175
 3397POPC   D2A45088  14.279   7.341   6.652
 3397POPC   C3A45089  14.107   7.151   7.070
 3397POPC   C4A45090  14.304   7.201   7.512
 3397POPC   C1B45091  14.691   7.598   6.265
 3397POPC   C2B45092  14.802   7.486   6.692
 3397POPC   C3B45093  14.582   7.368   7.069
 3397POPC   C4B45094  14.451   7.674   7.338
 3398POPC   NC345095   4.686  30.297   5.462
 3398POPC   PO445096   4.457  29.702   5.380
 3398POPC   GL145097   4.224  29.795   5.728
 3398POPC   GL245098   4.278  30.150   5.745
 3398POPC   C1A45099   4.197  29.881   6.168
 3398POPC   D2A45100   4.045  30.073   6.542
 3398POPC   C3A45101   4.219  29.881   6.916
 3398POPC   C4A45102   4.248  29.639   7.285
 3398POPC   C1B45103   4.530  30.272   6.104
 3398POPC   C2B45104   4.520  30.344   6.555
 3398POPC   C3B45105   4.218  30.400   6.937
 3398POPC   C4B45106   4.146  30.196   7.348
 3399POPC   NC345107  18.694   0.330   5.442
 3399POPC   PO445108  18.922   1.022   5.349
 3399POPC   GL145109  18.905   0.765   5.726
 3399POPC   GL245110  19.142   0.491   5.853
 3399POPC   C1A45111  18.944   0.850   6.177
 3399POPC   D2A45112  19.122   0.749   6.591
 3399POPC   C3A45113  18.813   0.512   6.807
 3399POPC   C4A45114  18.858   0.375   7.211
 3399POPC   C1B45115  19.190   0.298   6.312
 3399POPC   C2B45116  19.221   0.202   6.810
 3399POPC   C3B45117  19.382   0.266   7.257
 3399POPC   C4B45118  19.513   0.290   7.703
 3400POPC   NC345119  33.896  33.331   5.298
 3400POPC   PO445120  33.515  32.853   5.443
 3400POPC   GL145121  33.625  33.120   5.763
 3400POPC   GL245122  33.939  32.999   5.737
 3400POPC   C1A45123  33.720  33.093   6.199
 3400POPC   D2A45124  33.540  33.118   6.606
 3400POPC   C3A45125  33.719  33.036   6.993
 3400POPC   C4A45126  33.508  32.888   7.370
 3400POPC   C1B45127  34.091  32.758   6.073
 3400POPC   C2B45128  34.179  32.906   6.458
 3400POPC   C3B45129  34.248  32.781   6.872
 3400POPC   C4B45130  34.154  32.897   7.274
 3401POPC   NC345131  11.666   2.880   5.396
 3401POPC   PO445132  12.019   2.339   5.128
 3401POPC   GL145133  12.053   2.521   5.595
 3401POPC   GL245134  11.954   2.828   5.796
 3401POPC   C1A45135  12.248   2.547   6.065
 3401POPC   D2A45136  12.300   2.711   6.505
 3401POPC   C3A45137  12.004   2.577   6.822
 3401POPC   C4A45138  11.911   2.732   7.219
 3401POPC   C1B45139  11.936   2.968   6.240
 3401POPC   C2B45140  11.846   3.065   6.689
 3401POPC   C3B45141  11.741   3.216   7.121
 3401POPC   C4B45142  11.767   3.084   7.579
 3402POPC   NC345143   0.984  26.830   5.298
 3402POPC   PO445144   1.598  26.640   5.574
 3402POPC   GL145145   1.242  26.897   5.748
 3402POPC   GL245146   1.379  27.211   5.808
 3402POPC   C1A45147   0.972  27.033   6.122
 3402POPC   D2A45148   0.929  26.839   6.542
 3402POPC   C3A45149   1.020  26.896   6.965
 3402POPC   C4A45150   1.100  26.616   7.298
 3402POPC   C1B45151   1.485  26.989   6.238
 3402POPC   C2B45152   1.480  26.852   6.704
 3402POPC   C3B45153   1.504  26.917   7.176
 3402POPC   C4B45154   1.580  27.231   7.507
 3403POPC   NC345155  34.186   5.821   5.530
 3403POPC   PO445156  33.650   5.927   5.163
 3403POPC   GL145157  33.709   5.940   5.674
 3403POPC   GL245158  33.949   6.153   5.861
 3403POPC   C1A45159  33.681   5.895   6.190
 3403POPC   D2A45160  33.670   6.124   6.632
 3403POPC   C3A45161  33.606   5.963   7.084
 3403POPC   C4A45162  33.648   5.951   7.568
 3403POPC   C1B45163  34.118   6.170   6.300
 3403POPC   C2B45164  34.156   5.996   6.740
 3403POPC   C3B45165  34.101   5.987   7.204
 3403POPC   C4B45166  34.132   5.923   7.669
 3404POPC   NC345167   7.628   0.735   5.010
 3404POPC   PO445168   7.090   0.490   5.335
 3404POPC   GL145169   7.362   0.383   5.721
 3404POPC   GL245170   7.316   0.713   5.873
 3404POPC   C1A45171   7.443   0.322   6.179
 3404POPC   D2A45172   7.634   0.542   6.543
 3404POPC   C3A45173   7.444   0.612   6.947
 3404POPC   C4A45174   7.375   0.345   7.247
 3404POPC   C1B45175   7.123   0.691   6.299
 3404POPC   C2B45176   7.050   0.452   6.664
 3404POPC   C3B45177   6.882   0.373   7.072
 3404POPC   C4B45178   6.962   0.587   7.440
 3405POPC   NC345179  33.718  13.721   5.340
 3405POPC   PO445180  33.958  13.176   5.155
 3405POPC   GL145181  33.699  13.306   5.651
 3405POPC   GL245182  33.598  13.665   5.804
 3405POPC   C1A45183  33.853  13.401   6.127
 3405POPC   D2A45184  33.695  13.586   6.539
 3405POPC   C3A45185  33.821  13.480   6.986
 3405POPC   C4A45186  33.888  13.812   7.259
 3405POPC   C1B45187  33.339  13.796   6.122
 3405POPC   C2B45188  33.325  13.931   6.538
 3405POPC   C3B45189  33.514  13.906   6.932
 3405POPC   C4B45190  33.359  13.729   7.292
 3406POPC   NC345191  40.554  40.528   5.456
 3406POPC   PO445192  41.087  40.866   5.540
 3406POPC   GL145193  40.851  40.794   5.870
 3406POPC   GL245194  40.516  40.880   5.826
 3406POPC   C1A45195  40.740  40.557   6.223
 3406POPC   D2A45196  40.709  40.334   6.614
 3406POPC   C3A45197  40.747  40.546   7.010
 3406POPC   C4A45198  40.915  40.907   7.225
 3406POPC   C1B45199  40.592  41.063   6.236
 3406POPC   C2B45200  40.392  41.109   6.633
 3406POPC   C3B45201  40.463  41.147   7.071
 3406POPC   C4B45202  40.439  40.813   7.366
 3407POPC   NC345203   3.626   1.037   5.273
 3407POPC   PO445204   3.344   1.572   5.473
 3407POPC   GL145205   3.653   1.375   5.695
 3407POPC   GL245206   3.419   1.092   5.754
 3407POPC   C1A45207   3.677   1.361   6.127
 3407POPC   D2A45208   3.303   1.231   6.345
 3407POPC   C3A45209   3.345   1.307   6.800
 3407POPC   C4A45210   3.650   1.360   7.161
 3407POPC   C1B45211   3.114   0.866   6.032
 3407POPC   C2B45212   3.034   0.816   6.490
 3407POPC   C3B45213   3.280   0.819   6.878
 3407POPC   C4B45214   3.227   1.046   7.258
 3408POPC   NC345215  39.526  20.996   5.618
 3408POPC   PO445216  39.546  20.259   5.505
 3408POPC   GL145217  39.345  20.516   5.811
 3408POPC   GL245218  38.980  20.485   5.824
 3408POPC   C1A45219  39.338  20.732   6.214
 3408POPC   D2A45220  39.239  20.573   6.613
 3408POPC   C3A45221  39.455  20.649   6.975
 3408POPC   C4A45222  39.203  20.417   7.259
 3408POPC   C1B45223  38.833  20.801   6.113
 3408POPC   C2B45224  38.820  20.884   6.548
 3408POPC   C3B45225  39.060  20.962   6.912
 3408POPC   C4B45226  39.075  20.902   7.343
 3409POPC   NC345227  12.506   2.690   5.070
 3409POPC   PO445228  13.070   2.780   5.507
 3409POPC   GL145229  12.796   2.978   5.817
 3409POPC   GL245230  12.437   3.087   5.703
 3409POPC   C1A45231  12.891   2.945   6.272
 3409POPC   D2A45232  12.735   2.946   6.711
 3409POPC   C3A45233  12.928   2.647   7.042
 3409POPC   C4A45234  12.927   2.405   7.463
 3409POPC   C1B45235  12.417   3.086   6.141
 3409POPC   C2B45236  12.310   3.228   6.542
 3409POPC   C3B45237  12.292   3.039   6.975
 3409POPC   C4B45238  12.670   3.053   7.223
 3410POPC   NC345239  23.105  25.008   5.398
 3410POPC   PO445240  22.937  24.380   5.312
 3410POPC   GL145241  22.877  24.479   5.760
 3410POPC   GL245242  22.758  24.836   5.808
 3410POPC   C1A45243  23.006  24.413   6.201
 3410POPC   D2A45244  22.885  24.194   6.601
 3410POPC   C3A45245  22.988  24.428   6.978
 3410POPC   C4A45246  23.159  24.667   7.337
 3410POPC   C1B45247  22.652  24.779   6.240
 3410POPC   C2B45248  22.602  24.608   6.646
 3410POPC   C3B45249  22.433  24.692   7.042
 3410POPC   C4B45250  22.483  25.114   7.189
 3411POPC   NC345251  14.563  18.928   5.367
 3411POPC   PO445252  14.214  19.490   5.342
 3411POPC   GL145253  14.325  19.251   5.728
 3411POPC   GL245254  14.687  19.187   5.816
 3411POPC   C1A45255  14.358  19.144   6.195
 3411POPC   D2A45256  14.601  19.311   6.552
 3411POPC   C3A45257  14.409  19.146   6.915
 3411POPC   C4A45258  14.195  19.081   7.263
 3411POPC   C1B45259  14.784  18.838   6.122
 3411POPC   C2B45260  14.700  18.785   6.579
 3411POPC   C3B45261  14.888  19.012   6.935
 3411POPC   C4B45262  14.769  19.167   7.334
 3412POPC   NC345263  10.031  12.974   5.643
 3412POPC   PO445264   9.396  12.898   5.487
 3412POPC   GL145265   9.545  12.740   5.872
 3412POPC   GL245266   9.854  12.544   5.844
 3412POPC   C1A45267   9.696  12.913   6.281
 3412POPC   D2A45268   9.466  13.116   6.641
 3412POPC   C3A45269   9.513  12.863   7.030
 3412POPC   C4A45270   9.628  12.946   7.465
 3412POPC   C1B45271  10.013  12.474   6.240
 3412POPC   C2B45272   9.901  12.328   6.636
 3412POPC   C3B45273   9.896  12.513   7.048
 3412POPC   C4B45274   9.813  12.458   7.457
 3413POPC   NC345275  29.668  22.018   5.467
 3413POPC   PO445276  30.296  21.807   5.413
 3413POPC   GL145277  30.259  22.134   5.748
 3413POPC   GL245278  29.941  22.310   5.799
 3413POPC   C1A45279  30.150  22.000   6.166
 3413POPC   D2A45280  29.879  22.023   6.535
 3413POPC   C3A45281  30.012  22.281   6.841
 3413POPC   C4A45282  30.186  21.974   7.120
 3413POPC   C1B45283  29.752  22.389   6.215
 3413POPC   C2B45284  29.528  22.389   6.642
 3413POPC   C3B45285  29.620  22.540   7.059
 3413POPC   C4B45286  29.720  22.169   7.241
 3414POPC   NC345287   2.949  20.358   5.450
 3414POPC   PO445288   2.484  20.923   5.364
 3414POPC   GL145289   2.663  20.724   5.725
 3414POPC   GL245290   2.935  20.877   5.917
 3414POPC   C1A45291   2.490  20.801   6.135
 3414POPC   D2A45292   2.737  20.946   6.470
 3414POPC   C3A45293   2.509  20.786   6.813
 3414POPC   C4A45294   2.638  20.893   7.191
 3414POPC   C1B45295   2.911  20.490   6.201
 3414POPC   C2B45296   2.688  20.338   6.605
 3414POPC   C3B45297   2.805  20.427   7.040
 3414POPC   C4B45298   3.148  20.736   7.134
 3415POPC   NC345299   5.427  13.911   5.214
 3415POPC   PO445300   4.911  13.485   5.342
 3415POPC   GL145301   5.136  13.731   5.668
 3415POPC   GL245302   4.878  13.859   5.885
 3415POPC   C1A45303   5.241  13.571   6.109
 3415POPC   D2A45304   5.214  13.273   6.459
 3415POPC   C3A45305   5.283  13.394   6.876
 3415POPC   C4A45306   5.028  13.557   7.219
 3415POPC   C1B45307   4.696  13.540   6.136
 3415POPC   C2B45308   4.761  13.550   6.558
 3415POPC   C3B45309   4.950  13.858   6.796
 3415POPC   C4B45310   4.950  14.063   7.179
 3416POPC   NC345311  38.122  17.191   5.254
 3416POPC   PO445312  38.507  16.657   5.319
 3416POPC   GL145313  38.530  16.668   5.788
 3416POPC   GL245314  38.285  16.921   5.879
 3416POPC   C1A45315  38.644  16.545   6.231
 3416POPC   D2A45316  38.854  16.421   6.653
 3416POPC   C3A45317  38.645  16.523   7.056
 3416POPC   C4A45318  38.772  16.794   7.414
 3416POPC   C1B45319  38.266  16.942   6.331
 3416POPC   C2B45320  38.576  16.878   6.655
 3416POPC   C3B45321  38.522  17.044   7.057
 3416POPC   C4B45322  38.274  16.868   7.385
 3417POPC   NC345323  15.568  24.565   5.454
 3417POPC   PO445324  16.232  24.241   5.406
 3417POPC   GL145325  16.158  24.329   5.863
 3417POPC   GL245326  15.839  24.499   5.889
 3417POPC   C1A45327  16.218  24.561   6.274
 3417POPC   D2A45328  16.036  24.707   6.679
 3417POPC   C3A45329  16.157  24.558   7.095
 3417POPC   C4A45330  16.039  24.754   7.460
 3417POPC   C1B45331  15.705  24.682   6.278
 3417POPC   C2B45332  15.501  24.671   6.668
 3417POPC   C3B45333  15.685  24.750   7.067
 3417POPC   C4B45334  15.669  24.411   7.394
 3418POPC   NC345335  13.096  38.994   5.219
 3418POPC   PO445336  12.568  39.331   5.200
 3418POPC   GL145337  12.861  39.134   5.642
 3418POPC   GL245338  12.982  39.414   5.878
 3418POPC   C1A45339  12.761  39.022   6.137
 3418POPC   D2A45340  12.873  39.293   6.511
 3418POPC   C3A45341  12.870  39.209   6.969
 3418POPC   C4A45342  12.584  38.969   7.207
 3418POPC   C1B45343  13.249  39.099   6.091
 3418POPC   C2B45344  13.266  38.919   6.480
 3418POPC   C3B45345  13.365  39.073   6.874
 3418POPC   C4B45346  13.182  38.847   7.212
 3419POPC   NC345347   6.816  32.309   5.159
 3419POPC   PO445348   6.790  31.724   5.483
 3419POPC   GL145349   6.866  32.128   5.712
 3419POPC   GL245350   6.612  32.353   5.818
 3419POPC   C1A45351   6.969  32.293   6.164
 3419POPC   D2A45352   6.696  32.323   6.536
 3419POPC   C3A45353   6.670  32.078   6.913
 3419POPC   C4A45354   6.739  32.146   7.345
 3419POPC   C1B45355   6.485  32.633   6.170
 3419POPC   C2B45356   6.286  32.665   6.570
 3419POPC   C3B45357   6.315  32.523   6.983
 3419POPC   C4B45358   6.288  32.385   7.400
 3420POPC   NC345359  13.642  15.462   5.468
 3420POPC   PO445360  14.000  14.858   5.519
 3420POPC   GL145361  13.705  15.091   5.866
 3420POPC   GL245362  13.823  15.451   5.926
 3420POPC   C1A45363  13.532  15.037   6.327
 3420POPC   D2A45364  13.461  14.934   6.790
 3420POPC   C3A45365  13.464  15.269   7.108
 3420POPC   C4A45366  13.538  15.262   7.557
 3420POPC   C1B45367  13.565  15.545   6.255
 3420POPC   C2B45368  13.706  15.424   6.650
 3420POPC   C3B45369  14.022  15.526   6.896
 3420POPC   C4B45370  13.869  15.558   7.297
 3421POPC   NC345371  35.060   7.974   5.443
 3421POPC   PO445372  35.759   8.273   5.460
 3421POPC   GL145373  35.516   8.112   5.824
 3421POPC   GL245374  35.164   8.207   5.868
 3421POPC   C1A45375  35.428   8.286   6.276
 3421POPC   D2A45376  35.674   8.487   6.578
 3421POPC   C3A45377  35.570   8.275   6.943
 3421POPC   C4A45378  35.236   8.418   7.178
 3421POPC   C1B45379  35.175   7.867   6.112
 3421POPC   C2B45380  35.289   7.863   6.532
 3421POPC   C3B45381  35.123   7.999   6.870
 3421POPC   C4B45382  35.091   7.952   7.280
 3422POPC   NC345383  28.401  39.289   5.429
 3422POPC   PO445384  27.860  39.301   5.857
 3422POPC   GL145385  28.311  39.322   5.924
 3422POPC   GL245386  28.386  39.004   5.876
 3422POPC   C1A45387  28.616  39.347   6.266
 3422POPC   D2A45388  28.459  39.557   6.653
 3422POPC   C3A45389  28.557  39.374   7.075
 3422POPC   C4A45390  28.323  39.254   7.482
 3422POPC   C1B45391  28.221  38.989   6.316
 3422POPC   C2B45392  28.455  39.024   6.678
 3422POPC   C3B45393  28.401  38.897   7.088
 3422POPC   C4B45394  28.236  38.728   7.477
 3423POPC   NC345395  30.713  23.965   5.376
 3423POPC   PO445396  30.590  23.383   5.682
 3423POPC   GL145397  30.774  23.639   5.927
 3423POPC   GL245398  30.800  24.019   5.861
 3423POPC   C1A45399  30.773  23.524   6.346
 3423POPC   D2A45400  30.496  23.707   6.618
 3423POPC   C3A45401  30.722  23.644   6.956
 3423POPC   C4A45402  30.716  23.491   7.353
 3423POPC   C1B45403  30.697  24.032   6.234
 3423POPC   C2B45404  30.890  23.988   6.562
 3423POPC   C3B45405  30.669  24.143   6.919
 3423POPC   C4B45406  30.777  24.025   7.300
 3424POPC   NC345407  37.811  44.247   5.385
 3424POPC   PO445408  37.725  44.864   5.414
 3424POPC   GL145409  37.644  44.556   5.759
 3424POPC   GL245410  38.003  44.554   5.777
 3424POPC   C1A45411  37.457  44.364   6.160
 3424POPC   D2A45412  37.260  44.302   6.597
 3424POPC   C3A45413  37.418  44.546   6.942
 3424POPC   C4A45414  37.493  44.928   7.132
 3424POPC   C1B45415  37.996  44.404   6.210
 3424POPC   C2B45416  37.805  44.321   6.616
 3424POPC   C3B45417  37.925  44.530   7.002
 3424POPC   C4B45418  37.992  44.981   7.160
 3425POPC   NC345419  27.959   9.993   5.508
 3425POPC   PO445420  28.353  10.451   5.112
 3425POPC   GL145421  28.467  10.421   5.598
 3425POPC   GL245422  28.188  10.356   5.769
 3425POPC   C1A45423  28.551  10.296   6.097
 3425POPC   D2A45424  28.566  10.509   6.526
 3425POPC   C3A45425  28.581  10.350   6.925
 3425POPC   C4A45426  28.446  10.323   7.326
 3425POPC   C1B45427  28.063  10.192   6.178
 3425POPC   C2B45428  28.067  10.352   6.606
 3425POPC   C3B45429  28.100  10.519   7.014
 3425POPC   C4B45430  28.094  10.638   7.478
 3426POPC   NC345431  13.880   4.811   5.522
 3426POPC   PO445432  14.528   4.730   5.377
 3426POPC   GL145433  14.354   4.855   5.794
 3426POPC   GL245434  14.274   5.180   5.871
 3426POPC   C1A45435  14.294   4.831   6.257
 3426POPC   D2A45436  14.211   4.972   6.692
 3426POPC   C3A45437  14.269   4.742   7.099
 3426POPC   C4A45438  14.239   4.940   7.504
 3426POPC   C1B45439  14.403   5.382   6.272
 3426POPC   C2B45440  14.514   5.400   6.689
 3426POPC   C3B45441  14.463   5.209   7.075
 3426POPC   C4B45442  14.543   5.356   7.506
 3427POPC   NC345443  19.528  39.359   5.564
 3427POPC   PO445444  20.075  39.100   5.244
 3427POPC   GL145445  20.007  39.208   5.703
 3427POPC   GL245446  19.777  38.936   5.819
 3427POPC   C1A45447  19.911  39.316   6.160
 3427POPC   D2A45448  19.957  39.194   6.608
 3427POPC   C3A45449  19.690  39.315   6.977
 3427POPC   C4A45450  20.028  39.429   7.258
 3427POPC   C1B45451  19.771  38.809   6.284
 3427POPC   C2B45452  19.711  38.766   6.752
 3427POPC   C3B45453  19.986  38.916   7.103
 3427POPC   C4B45454  20.187  38.946   7.526
 3428POPC   NC345455  10.086   4.851   5.538
 3428POPC   PO445456   9.860   5.311   5.180
 3428POPC   GL145457   9.739   5.151   5.674
 3428POPC   GL245458  10.032   5.292   5.818
 3428POPC   C1A45459   9.651   5.092   6.196
 3428POPC   D2A45460   9.600   5.348   6.636
 3428POPC   C3A45461   9.414   5.099   7.012
 3428POPC   C4A45462   9.601   4.951   7.398
 3428POPC   C1B45463  10.152   5.045   6.190
 3428POPC   C2B45464   9.974   5.016   6.620
 3428POPC   C3B45465   9.919   5.157   7.054
 3428POPC   C4B45466  10.071   5.183   7.479
 3429POPC   NC345467  42.498  41.100   5.591
 3429POPC   PO445468  42.437  41.737   5.438
 3429POPC   GL145469  42.234  41.571   5.811
 3429POPC   GL245470  42.061  41.903   5.786
 3429POPC   C1A45471  42.127  41.452   6.258
 3429POPC   D2A45472  41.962  41.218   6.611
 3429POPC   C3A45473  42.239  41.248   6.987
 3429POPC   C4A45474  42.434  41.525   7.324
 3429POPC   C1B45475  42.182  41.950   6.174
 3429POPC   C2B45476  42.397  41.869   6.550
 3429POPC   C3B45477  42.344  41.900   6.988
 3429POPC   C4B45478  42.058  42.043   7.295
 3430POPC   NC345479  24.233  16.015   5.276
 3430POPC   PO445480  24.743  15.649   5.371
 3430POPC   GL145481  24.471  15.833   5.746
 3430POPC   GL245482  24.412  16.191   5.718
 3430POPC   C1A45483  24.523  15.875   6.240
 3430POPC   D2A45484  24.588  15.684   6.669
 3430POPC   C3A45485  24.612  15.833   7.106
 3430POPC   C4A45486  24.826  16.191   7.337
 3430POPC   C1B45487  24.354  16.351   6.125
 3430POPC   C2B45488  24.374  16.527   6.535
 3430POPC   C3B45489  24.452  16.321   6.944
 3430POPC   C4B45490  24.321  16.166   7.376
 3431POPC   NC345491  35.645  24.294   5.571
 3431POPC   PO445492  35.240  24.917   5.523
 3431POPC   GL145493  35.297  24.732   5.899
 3431POPC   GL245494  35.640  24.762   5.891
 3431POPC   C1A45495  35.210  24.701   6.349
 3431POPC   D2A45496  35.028  24.380   6.611
 3431POPC   C3A45497  35.163  24.377   7.048
 3431POPC   C4A45498  35.461  24.294   7.348
 3431POPC   C1B45499  35.713  24.630   6.305
 3431POPC   C2B45500  35.542  24.535   6.723
 3431POPC   C3B45501  35.615  24.748   7.113
 3431POPC   C4B45502  35.901  24.533   7.395
 3432POPC   NC345503  41.712  21.782   5.470
 3432POPC   PO445504  41.348  21.321   5.146
 3432POPC   GL145505  41.330  21.296   5.655
 3432POPC   GL245506  41.235  21.609   5.821
 3432POPC   C1A45507  41.544  21.310   6.109
 3432POPC   D2A45508  41.784  21.640   6.374
 3432POPC   C3A45509  41.810  21.631   6.844
 3432POPC   C4A45510  41.665  21.486   7.254
 3432POPC   C1B45511  41.080  21.537   6.258
 3432POPC   C2B45512  41.245  21.670   6.661
 3432POPC   C3B45513  41.146  21.569   7.074
 3432POPC   C4B45514  41.267  21.179   7.253
 3433POPC   NC345515  27.982  12.337   5.282
 3433POPC   PO445516  27.401  12.130   5.221
 3433POPC   GL145517  27.671  11.929   5.600
 3433POPC   GL245518  27.383  11.783   5.808
 3433POPC   C1A45519  27.800  11.967   6.079
 3433POPC   D2A45520  27.666  12.236   6.471
 3433POPC   C3A45521  27.811  12.206   6.916
 3433POPC   C4A45522  27.862  12.134   7.369
 3433POPC   C1B45523  27.273  11.947   6.217
 3433POPC   C2B45524  27.132  12.267   6.494
 3433POPC   C3B45525  27.264  12.369   6.904
 3433POPC   C4B45526  27.379  12.117   7.204
 3434POPC   NC345527  41.245  16.555   5.551
 3434POPC   PO445528  41.972  16.431   5.495
 3434POPC   GL145529  41.801  16.534   5.896
 3434POPC   GL245530  41.600  16.822   5.835
 3434POPC   C1A45531  41.788  16.628   6.337
 3434POPC   D2A45532  41.748  16.763   6.768
 3434POPC   C3A45533  41.667  16.590   7.161
 3434POPC   C4A45534  41.914  16.795   7.476
 3434POPC   C1B45535  41.598  17.086   6.203
 3434POPC   C2B45536  41.412  17.098   6.608
 3434POPC   C3B45537  41.292  16.953   7.021
 3434POPC   C4B45538  40.964  17.124   7.282
 3435POPC   NC345539  40.869  30.484   5.458
 3435POPC   PO445540  40.653  31.088   5.329
 3435POPC   GL145541  40.701  30.907   5.783
 3435POPC   GL245542  40.589  30.579   5.881
 3435POPC   C1A45543  40.796  30.989   6.228
 3435POPC   D2A45544  41.028  30.762   6.570
 3435POPC   C3A45545  40.925  30.747   7.015
 3435POPC   C4A45546  40.768  31.056   7.294
 3435POPC   C1B45547  40.627  30.359   6.286
 3435POPC   C2B45548  40.615  30.422   6.739
 3435POPC   C3B45549  40.556  30.293   7.161
 3435POPC   C4B45550  40.591  30.549   7.516
 3436POPC   NC345551   2.417  17.319   5.307
 3436POPC   PO445552   3.040  17.281   5.483
 3436POPC   GL145553   2.662  17.326   5.773
 3436POPC   GL245554   2.608  17.691   5.724
 3436POPC   C1A45555   2.448  17.341   6.201
 3436POPC   D2A45556   2.268  17.371   6.652
 3436POPC   C3A45557   2.480  17.564   7.030
 3436POPC   C4A45558   2.824  17.402   7.309
 3436POPC   C1B45559   2.843  17.668   6.123
 3436POPC   C2B45560   2.695  17.657   6.548
 3436POPC   C3B45561   2.974  17.627   6.886
 3436POPC   C4B45562   3.283  17.659   7.230
 3437POPC   NC345563   7.133  26.274   5.459
 3437POPC   PO445564   7.549  25.832   5.303
 3437POPC   GL145565   7.478  25.714   5.726
 3437POPC   GL245566   7.476  26.046   5.805
 3437POPC   C1A45567   7.237  25.748   6.142
 3437POPC   D2A45568   7.213  26.056   6.487
 3437POPC   C3A45569   7.196  25.903   6.884
 3437POPC   C4A45570   7.333  25.926   7.284
 3437POPC   C1B45571   7.639  26.108   6.220
 3437POPC   C2B45572   7.731  25.964   6.644
 3437POPC   C3B45573   7.745  26.104   7.058
 3437POPC   C4B45574   7.726  26.519   7.210
 3438POPC   NC345575  35.329   7.026   5.505
 3438POPC   PO445576  35.757   6.551   5.522
 3438POPC   GL145577  35.641   6.759   5.862
 3438POPC   GL245578  35.273   6.669   5.854
 3438POPC   C1A45579  35.540   6.740   6.277
 3438POPC   D2A45580  35.425   6.561   6.616
 3438POPC   C3A45581  35.592   6.722   6.991
 3438POPC   C4A45582  35.782   6.535   7.323
 3438POPC   C1B45583  35.015   6.782   6.201
 3438POPC   C2B45584  34.917   6.634   6.584
 3438POPC   C3B45585  35.068   6.727   6.936
 3438POPC   C4B45586  35.178   6.730   7.318
 3439POPC   NC345587  42.146  12.648   5.500
 3439POPC   PO445588  42.335  12.055   5.266
 3439POPC   GL145589  42.037  11.969   5.625
 3439POPC   GL245590  42.075  12.284   5.853
 3439POPC   C1A45591  42.042  11.818   6.082
 3439POPC   D2A45592  42.249  12.089   6.406
 3439POPC   C3A45593  42.269  11.987   6.851
 3439POPC   C4A45594  42.147  12.091   7.274
 3439POPC   C1B45595  42.067  12.573   6.245
 3439POPC   C2B45596  41.899  12.685   6.666
 3439POPC   C3B45597  42.064  12.592   7.097
 3439POPC   C4B45598  42.186  12.614   7.550
 3440POPC   NC345599  26.069   8.440   5.649
 3440POPC   PO445600  26.047   9.051   5.294
 3440POPC   GL145601  26.118   8.980   5.765
 3440POPC   GL245602  26.369   8.770   5.859
 3440POPC   C1A45603  26.075   8.849   6.261
 3440POPC   D2A45604  25.868   8.814   6.690
 3440POPC   C3A45605  25.922   9.178   6.946
 3440POPC   C4A45606  26.137   9.161   7.297
 3440POPC   C1B45607  26.487   8.533   6.236
 3440POPC   C2B45608  26.555   8.718   6.632
 3440POPC   C3B45609  26.301   8.756   6.998
 3440POPC   C4B45610  26.330   8.707   7.444
 3441POPC   NC345611  39.646  11.259   5.135
 3441POPC   PO445612  40.144  11.660   5.404
 3441POPC   GL145613  39.969  11.481   5.788
 3441POPC   GL245614  40.113  11.176   5.877
 3441POPC   C1A45615  39.854  11.563   6.236
 3441POPC   D2A45616  40.044  11.557   6.652
 3441POPC   C3A45617  39.766  11.547   6.993
 3441POPC   C4A45618  39.977  11.463   7.374
 3441POPC   C1B45619  40.302  11.276   6.250
 3441POPC   C2B45620  40.151  11.076   6.598
 3441POPC   C3B45621  40.036  11.105   7.031
 3441POPC   C4B45622  40.289  11.041   7.416
 3442POPC   NC345623  42.310  42.166   5.377
 3442POPC   PO445624  42.547  42.793   5.392
 3442POPC   GL145625  42.372  42.568   5.731
 3442POPC   GL245626  42.037  42.527   5.642
 3442POPC   C1A45627  42.479  42.367   6.137
 3442POPC   D2A45628  42.667  42.509   6.531
 3442POPC   C3A45629  42.408  42.404   6.880
 3442POPC   C4A45630  42.484  42.328   7.324
 3442POPC   C1B45631  41.969  42.435   6.097
 3442POPC   C2B45632  42.023  42.254   6.538
 3442POPC   C3B45633  41.891  42.352   6.945
 3442POPC   C4B45634  42.095  42.637   7.246
 3443POPC   NC345635  14.210  16.909   5.479
 3443POPC   PO445636  14.737  16.397   5.392
 3443POPC   GL145637  14.572  16.677   5.743
 3443POPC   GL245638  14.462  16.435   5.924
 3443POPC   C1A45639  14.618  16.909   6.141
 3443POPC   D2A45640  14.533  17.190   6.506
 3443POPC   C3A45641  14.629  17.018   6.926
 3443POPC   C4A45642  14.408  16.862   7.290
 3443POPC   C1B45643  14.383  16.393   6.312
 3443POPC   C2B45644  14.453  16.567   6.709
 3443POPC   C3B45645  14.283  16.432   7.082
 3443POPC   C4B45646  14.149  16.351   7.513
 3444POPC   NC345647  17.476  37.823   5.477
 3444POPC   PO445648  17.981  37.495   5.354
 3444POPC   GL145649  17.911  37.584   5.780
 3444POPC   GL245650  17.552  37.507   5.895
 3444POPC   C1A45651  17.929  37.797   6.156
 3444POPC   D2A45652  17.804  38.021   6.516
 3444POPC   C3A45653  17.687  37.681   6.811
 3444POPC   C4A45654  17.975  37.502   7.097
 3444POPC   C1B45655  17.407  37.836   6.195
 3444POPC   C2B45656  17.313  37.992   6.631
 3444POPC   C3B45657  17.327  37.974   7.052
 3444POPC   C4B45658  17.387  37.625   7.272
 3445POPC   NC345659  10.022   9.242   5.657
 3445POPC   PO445660   9.838   9.783   5.274
 3445POPC   GL145661   9.924   9.891   5.728
 3445POPC   GL245662  10.279   9.807   5.824
 3445POPC   C1A45663   9.665   9.931   6.141
 3445POPC   D2A45664   9.500   9.655   6.479
 3445POPC   C3A45665   9.783   9.499   6.811
 3445POPC   C4A45666   9.613   9.541   7.215
 3445POPC   C1B45667  10.161   9.852   6.250
 3445POPC   C2B45668  10.330   9.989   6.625
 3445POPC   C3B45669  10.110   9.919   6.972
 3445POPC   C4B45670  10.108   9.598   7.238
 3446POPC   NC345671  10.061  13.956   5.464
 3446POPC   PO445672  10.695  13.689   5.293
 3446POPC   GL145673  10.501  13.557   5.679
 3446POPC   GL245674  10.784  13.679   5.911
 3446POPC   C1A45675  10.553  13.268   6.075
 3446POPC   D2A45676  10.724  13.469   6.463
 3446POPC   C3A45677  10.467  13.312   6.821
 3446POPC   C4A45678  10.226  13.458   7.180
 3446POPC   C1B45679  10.329  13.730   6.109
 3446POPC   C2B45680  10.290  13.714   6.538
 3446POPC   C3B45681  10.588  13.791   6.879
 3446POPC   C4B45682  10.598  13.786   7.288
 3447POPC   NC345683  24.976  35.241   5.277
 3447POPC   PO445684  24.462  35.676   5.433
 3447POPC   GL145685  24.536  35.402   5.771
 3447POPC   GL245686  24.173  35.326   5.795
 3447POPC   C1A45687  24.777  35.406   6.198
 3447POPC   D2A45688  24.768  35.669   6.580
 3447POPC   C3A45689  24.686  35.595   7.026
 3447POPC   C4A45690  24.630  35.265   7.306
 3447POPC   C1B45691  24.368  35.102   6.149
 3447POPC   C2B45692  24.480  35.164   6.581
 3447POPC   C3B45693  24.257  35.218   6.961
 3447POPC   C4B45694  24.143  35.204   7.419
 3448POPC   NC345695  19.689  25.763   5.363
 3448POPC   PO445696  19.581  26.424   5.696
 3448POPC   GL145697  19.796  26.115   5.923
 3448POPC   GL245698  19.787  25.764   5.859
 3448POPC   C1A45699  19.789  26.176   6.352
 3448POPC   D2A45700  19.678  26.112   6.751
 3448POPC   C3A45701  19.961  26.235   7.073
 3448POPC   C4A45702  19.673  26.308   7.361
 3448POPC   C1B45703  19.927  25.681   6.264
 3448POPC   C2B45704  20.035  25.750   6.667
 3448POPC   C3B45705  19.878  25.738   7.049
 3448POPC   C4B45706  19.904  25.797   7.458
 3449POPC   NC345707   2.242  32.273   5.651
 3449POPC   PO445708   1.751  32.283   5.200
 3449POPC   GL145709   1.733  32.262   5.662
 3449POPC   GL245710   1.884  32.595   5.790
 3449POPC   C1A45711   1.684  32.107   6.113
 3449POPC   D2A45712   1.965  32.044   6.491
 3449POPC   C3A45713   1.844  32.166   6.933
 3449POPC   C4A45714   2.085  32.158   7.291
 3449POPC   C1B45715   1.934  32.553   6.212
 3449POPC   C2B45716   1.958  32.548   6.620
 3449POPC   C3B45717   2.227  32.560   6.956
 3449POPC   C4B45718   1.950  32.622   7.249
 3450POPC   NC345719   9.272  39.000   5.613
 3450POPC   PO445720   8.697  39.286   5.362
 3450POPC   GL145721   8.825  39.183   5.796
 3450POPC   GL245722   8.809  38.800   5.826
 3450POPC   C1A45723   9.102  39.380   6.144
 3450POPC   D2A45724   9.208  39.563   6.583
 3450POPC   C3A45725   9.070  39.361   6.995
 3450POPC   C4A45726   8.909  39.292   7.442
 3450POPC   C1B45727   9.042  38.876   6.222
 3450POPC   C2B45728   9.022  38.957   6.667
 3450POPC   C3B45729   8.958  38.874   7.117
 3450POPC   C4B45730   8.797  38.803   7.555
 3451POPC   NC345731  30.629  17.490   4.947
 3451POPC   PO445732  30.945  17.428   5.534
 3451POPC   GL145733  30.882  17.740   5.837
 3451POPC   GL245734  30.530  17.669   5.846
 3451POPC   C1A45735  31.076  17.901   6.234
 3451POPC   D2A45736  31.085  17.923   6.692
 3451POPC   C3A45737  30.905  17.621   6.943
 3451POPC   C4A45738  30.915  17.544   7.371
 3451POPC   C1B45739  30.618  17.667   6.302
 3451POPC   C2B45740  30.454  17.716   6.719
 3451POPC   C3B45741  30.448  17.660   7.184
 3451POPC   C4B45742  30.128  17.593   7.513
 3452POPC   NC345743   5.557  30.292   5.495
 3452POPC   PO445744   6.032  29.874   5.373
 3452POPC   GL145745   5.819  29.927   5.785
 3452POPC   GL245746   5.450  29.827   5.742
 3452POPC   C1A45747   5.932  30.031   6.229
 3452POPC   D2A45748   6.205  30.069   6.591
 3452POPC   C3A45749   6.248  29.789   6.961
 3452POPC   C4A45750   6.170  30.124   7.278
 3452POPC   C1B45751   5.411  30.007   6.163
 3452POPC   C2B45752   5.526  29.990   6.605
 3452POPC   C3B45753   5.784  29.957   6.970
 3452POPC   C4B45754   5.860  29.612   7.290
 3453POPC   NC345755   5.222   1.822   5.462
 3453POPC   PO445756   5.525   2.430   5.471
 3453POPC   GL145757   5.335   2.181   5.842
 3453POPC   GL245758   5.084   1.868   5.933
 3453POPC   C1A45759   5.404   2.055   6.255
 3453POPC   D2A45760   5.255   2.162   6.609
 3453POPC   C3A45761   5.299   1.941   6.942
 3453POPC   C4A45762   5.230   2.026   7.350
 3453POPC   C1B45763   4.858   2.141   6.209
 3453POPC   C2B45764   4.782   2.299   6.634
 3453POPC   C3B45765   4.800   2.044   7.018
 3453POPC   C4B45766   4.944   1.636   7.167
 3454POPC   NC345767  41.878   2.985   5.160
 3454POPC   PO445768  41.869   2.408   5.480
 3454POPC   GL145769  41.672   2.723   5.767
 3454POPC   GL245770  41.859   2.994   5.922
 3454POPC   C1A45771  41.681   2.689   6.266
 3454POPC   D2A45772  41.824   2.686   6.717
 3454POPC   C3A45773  41.475   2.720   7.044
 3454POPC   C4A45774  41.420   2.825   7.490
 3454POPC   C1B45775  41.993   3.132   6.351
 3454POPC   C2B45776  42.052   3.130   6.826
 3454POPC   C3B45777  41.911   2.910   7.200
 3454POPC   C4B45778  41.903   2.964   7.643
 3455POPC   NC345779   5.465  35.634   5.160
 3455POPC   PO445780   5.231  34.997   5.431
 3455POPC   GL145781   5.034  35.165   5.825
 3455POPC   GL245782   5.279  35.439   5.751
 3455POPC   C1A45783   4.816  35.297   6.251
 3455POPC   D2A45784   4.940  35.549   6.641
 3455POPC   C3A45785   4.951  35.316   7.049
 3455POPC   C4A45786   5.309  35.208   7.321
 3455POPC   C1B45787   5.315  35.397   6.194
 3455POPC   C2B45788   5.460  35.656   6.515
 3455POPC   C3B45789   5.397  35.530   6.918
 3455POPC   C4B45790   5.564  35.655   7.289
 3456POPC   NC345791   2.560  13.260   5.398
 3456POPC   PO445792   2.845  12.689   5.387
 3456POPC   GL145793   2.852  12.612   5.777
 3456POPC   GL245794   2.888  12.956   5.825
 3456POPC   C1A45795   2.732  12.478   6.177
 3456POPC   D2A45796   2.914  12.649   6.529
 3456POPC   C3A45797   2.732  12.531   6.911
 3456POPC   C4A45798   2.796  12.668   7.333
 3456POPC   C1B45799   2.949  13.129   6.223
 3456POPC   C2B45800   2.763  13.152   6.589
 3456POPC   C3B45801   2.807  13.023   6.957
 3456POPC   C4B45802   2.449  13.038   7.199
 3457POPC   NC345803  42.890   0.261   5.176
 3457POPC   PO445804  42.417   0.674   5.341
 3457POPC   GL145805  42.380   0.531   5.775
 3457POPC   GL245806  42.679   0.417   5.894
 3457POPC   C1A45807  42.240   0.313   6.172
 3457POPC   D2A45808  41.945   0.189   6.492
 3457POPC   C3A45809  42.156   0.185   6.878
 3457POPC   C4A45810  42.292   0.481   7.178
 3457POPC   C1B45811  42.694   0.112   6.200
 3457POPC   C2B45812  42.577   0.278   6.581
 3457POPC   C3B45813  42.679   0.181   6.977
 3457POPC   C4B45814  42.584   0.147   7.417
 3458POPC   NC345815  32.049  10.230   5.430
 3458POPC   PO445816  32.209  10.880   5.672
 3458POPC   GL145817  32.237  10.473   5.844
 3458POPC   GL245818  31.910  10.368   5.921
 3458POPC   C1A45819  32.328  10.416   6.257
 3458POPC   D2A45820  32.445  10.665   6.614
 3458POPC   C3A45821  32.384  10.472   7.010
 3458POPC   C4A45822  32.068  10.518   7.302
 3458POPC   C1B45823  31.943  10.722   6.264
 3458POPC   C2B45824  31.954  10.584   6.676
 3458POPC   C3B45825  32.043  10.879   6.962
 3458POPC   C4B45826  32.010  11.064   7.340
 3459POPC   NC345827  28.585  31.634   5.439
 3459POPC   PO445828  28.396  30.931   5.320
 3459POPC   GL145829  28.494  31.225   5.741
 3459POPC   GL245830  28.247  31.490   5.795
 3459POPC   C1A45831  28.592  31.523   6.151
 3459POPC   D2A45832  28.452  31.589   6.614
 3459POPC   C3A45833  28.620  31.464   7.058
 3459POPC   C4A45834  28.532  31.188   7.426
 3459POPC   C1B45835  28.094  31.624   6.197
 3459POPC   C2B45836  27.933  31.656   6.620
 3459POPC   C3B45837  28.121  31.622   7.036
 3459POPC   C4B45838  28.231  31.664   7.476
 3460POPC   NC345839  19.664  30.509   5.377
 3460POPC   PO445840  20.167  30.932   5.320
 3460POPC   GL145841  19.839  30.875   5.692
 3460POPC   GL245842  19.881  30.541   5.840
 3460POPC   C1A45843  19.606  30.873   6.111
 3460POPC   D2A45844  19.577  30.667   6.541
 3460POPC   C3A45845  19.460  30.865   6.943
 3460POPC   C4A45846  19.621  30.717   7.356
 3460POPC   C1B45847  20.111  30.769   6.162
 3460POPC   C2B45848  19.987  30.945   6.569
 3460POPC   C3B45849  19.967  30.781   6.993
 3460POPC   C4B45850  20.094  30.877   7.455
 3461POPC   NC345851  12.394  11.299   5.424
 3461POPC   PO445852  11.750  11.516   5.572
 3461POPC   GL145853  12.087  11.408   5.815
 3461POPC   GL245854  12.044  11.044   5.709
 3461POPC   C1A45855  12.185  11.486   6.234
 3461POPC   D2A45856  11.927  11.385   6.575
 3461POPC   C3A45857  12.061  11.555   6.943
 3461POPC   C4A45858  11.933  11.698   7.310
 3461POPC   C1B45859  12.045  10.985   6.146
 3461POPC   C2B45860  12.286  11.001   6.506
 3461POPC   C3B45861  12.174  11.061   6.914
 3461POPC   C4B45862  12.239  11.236   7.301
 3462POPC   NC345863  36.481  20.822   5.492
 3462POPC   PO445864  35.941  20.564   5.294
 3462POPC   GL145865  36.114  20.554   5.727
 3462POPC   GL245866  36.448  20.423   5.820
 3462POPC   C1A45867  36.217  20.808   6.094
 3462POPC   D2A45868  35.999  20.793   6.468
 3462POPC   C3A45869  36.200  20.777   6.863
 3462POPC   C4A45870  35.965  20.747   7.242
 3462POPC   C1B45871  36.191  20.309   6.193
 3462POPC   C2B45872  35.985  20.139   6.544
 3462POPC   C3B45873  35.996  20.288   6.965
 3462POPC   C4B45874  36.335  20.387   7.228
 3463POPC   NC345875  15.925  27.441   5.499
 3463POPC   PO445876  15.897  26.650   5.406
 3463POPC   GL145877  16.154  26.863   5.749
 3463POPC   GL245878  15.931  27.123   5.896
 3463POPC   C1A45879  16.261  26.669   6.181
 3463POPC   D2A45880  16.105  26.437   6.578
 3463POPC   C3A45881  16.179  26.696   6.963
 3463POPC   C4A45882  16.315  26.912   7.316
 3463POPC   C1B45883  15.840  26.984   6.315
 3463POPC   C2B45884  15.816  27.032   6.758
 3463POPC   C3B45885  15.864  27.064   7.178
 3463POPC   C4B45886  15.881  27.148   7.636
 3464POPC   NC345887  27.108   1.779   5.320
 3464POPC   PO445888  26.536   2.215   5.315
 3464POPC   GL145889  26.786   2.079   5.690
 3464POPC   GL245890  26.526   1.953   5.892
 3464POPC   C1A45891  26.968   2.160   6.129
 3464POPC   D2A45892  26.813   2.347   6.481
 3464POPC   C3A45893  27.078   2.466   6.790
 3464POPC   C4A45894  27.080   2.266   7.210
 3464POPC   C1B45895  26.808   1.697   6.139
 3464POPC   C2B45896  27.080   1.692   6.494
 3464POPC   C3B45897  26.986   1.954   6.828
 3464POPC   C4B45898  26.670   1.912   7.175
 3465POPC   NC345899  34.771  36.087   5.402
 3465POPC   PO445900  34.261  36.425   5.413
 3465POPC   GL145901  34.438  36.199   5.780
 3465POPC   GL245902  34.753  36.379   5.877
 3465POPC   C1A45903  34.497  36.021   6.200
 3465POPC   D2A45904  34.492  36.144   6.640
 3465POPC   C3A45905  34.325  35.939   7.026
 3465POPC   C4A45906  34.292  36.113   7.470
 3465POPC   C1B45907  34.902  36.319   6.313
 3465POPC   C2B45908  34.975  36.286   6.768
 3465POPC   C3B45909  34.957  36.139   7.166
 3465POPC   C4B45910  34.701  35.840   7.360
 3466POPC   NC345911  42.230  43.460   5.522
 3466POPC   PO445912  42.281  44.096   5.250
 3466POPC   GL145913  42.360  43.940   5.700
 3466POPC   GL245914  42.643  44.090   5.862
 3466POPC   C1A45915  42.223  43.857   6.140
 3466POPC   D2A45916  42.132  44.106   6.517
 3466POPC   C3A45917  41.994  43.893   6.878
 3466POPC   C4A45918  42.183  43.903   7.276
 3466POPC   C1B45919  42.724  43.823   6.245
 3466POPC   C2B45920  42.758  43.728   6.685
 3466POPC   C3B45921  42.666  43.819   7.111
 3466POPC   C4B45922  42.574  43.569   7.474
 3467POPC   NC345923  20.841  22.236   5.453
 3467POPC   PO445924  20.713  22.927   5.351
 3467POPC   GL145925  20.749  23.161   5.713
 3467POPC   GL245926  20.416  23.314   5.676
 3467POPC   C1A45927  20.686  23.031   6.158
 3467POPC   D2A45928  20.486  22.957   6.575
 3467POPC   C3A45929  20.706  22.725   6.889
 3467POPC   C4A45930  20.867  22.584   7.266
 3467POPC   C1B45931  20.232  23.263   6.124
 3467POPC   C2B45932  20.113  23.292   6.571
 3467POPC   C3B45933  20.194  23.152   7.001
 3467POPC   C4B45934  20.556  23.049   7.260
 3468POPC   NC345935   4.510  27.335   5.367
 3468POPC   PO445936   4.069  27.766   5.240
 3468POPC   GL145937   4.193  27.580   5.692
 3468POPC   GL245938   4.071  27.243   5.817
 3468POPC   C1A45939   4.233  27.684   6.143
 3468POPC   D2A45940   4.509  27.519   6.455
 3468POPC   C3A45941   4.505  27.610   6.887
 3468POPC   C4A45942   4.252  27.893   7.065
 3468POPC   C1B45943   4.188  27.176   6.250
 3468POPC   C2B45944   4.354  27.090   6.697
 3468POPC   C3B45945   4.275  27.215   7.136
 3468POPC   C4B45946   4.661  27.353   7.318
 3469POPC   NC345947  42.162  31.077   5.362
 3469POPC   PO445948  42.068  30.431   5.429
 3469POPC   GL145949  42.366  30.585   5.786
 3469POPC   GL245950  42.683  30.381   5.815
 3469POPC   C1A45951  42.312  30.780   6.224
 3469POPC   D2A45952  41.985  30.893   6.549
 3469POPC   C3A45953  42.024  30.605   6.903
 3469POPC   C4A45954  42.354  30.681   7.193
 3469POPC   C1B45955  42.761  30.529   6.236
 3469POPC   C2B45956  42.571  30.581   6.676
 3469POPC   C3B45957  42.773  30.449   7.074
 3469POPC   C4B45958  42.723  30.451   7.546
 3470POPC   NC345959   8.258  39.130   5.367
 3470POPC   PO445960   7.696  39.369   5.459
 3470POPC   GL145961   7.884  39.072   5.771
 3470POPC   GL245962   8.256  38.944   5.837
 3470POPC   C1A45963   7.874  38.928   6.195
 3470POPC   D2A45964   7.728  39.131   6.586
 3470POPC   C3A45965   8.087  39.181   6.870
 3470POPC   C4A45966   8.200  39.496   7.208
 3470POPC   C1B45967   8.401  38.778   6.245
 3470POPC   C2B45968   8.510  38.874   6.707
 3470POPC   C3B45969   8.560  39.160   7.063
 3470POPC   C4B45970   8.384  39.097   7.471
 3471POPC   NC345971  43.599  13.506   5.368
 3471POPC   PO445972  44.268  13.627   5.317
 3471POPC   GL145973  43.985  13.651   5.686
 3471POPC   GL245974  43.848  13.314   5.768
 3471POPC   C1A45975  43.993  13.617   6.142
 3471POPC   D2A45976  43.977  13.853   6.508
 3471POPC   C3A45977  44.054  13.639   6.909
 3471POPC   C4A45978  44.257  13.568   7.319
 3471POPC   C1B45979  43.607  13.283   6.125
 3471POPC   C2B45980  43.704  13.412   6.550
 3471POPC   C3B45981  43.653  13.261   6.951
 3471POPC   C4B45982  43.286  13.166   7.179
 3472POPC   NC345983   2.277  25.285   5.722
 3472POPC   PO445984   1.937  25.367   5.180
 3472POPC   GL145985   1.771  25.260   5.633
 3472POPC   GL245986   1.921  24.915   5.745
 3472POPC   C1A45987   1.776  25.472   6.079
 3472POPC   D2A45988   2.103  25.336   6.399
 3472POPC   C3A45989   2.210  25.526   6.803
 3472POPC   C4A45990   1.978  25.385   7.176
 3472POPC   C1B45991   2.039  24.863   6.172
 3472POPC   C2B45992   2.417  24.932   6.463
 3472POPC   C3B45993   2.277  24.988   6.897
 3472POPC   C4B45994   2.357  24.807   7.315
 3473POPC   NC345995  12.665  30.340   5.531
 3473POPC   PO445996  13.098  30.875   5.454
 3473POPC   GL145997  13.006  30.971   5.845
 3473POPC   GL245998  12.748  30.727   5.861
 3473POPC   C1A45999  13.022  30.836   6.268
 3473POPC   D2A46000  12.975  30.776   6.652
 3473POPC   C3A46001  13.070  30.458   6.881
 3473POPC   C4A46002  13.299  30.466   7.278
 3473POPC   C1B46003  12.779  30.413   6.171
 3473POPC   C2B46004  12.589  30.458   6.553
 3473POPC   C3B46005  12.579  30.671   6.947
 3473POPC   C4B46006  12.512  30.409   7.297
 3474POPC   NC346007  44.135  21.944   5.486
 3474POPC   PO446008  43.630  22.320   5.361
 3474POPC   GL146009  43.806  22.297   5.746
 3474POPC   GL246010  43.723  21.963   5.780
 3474POPC   C1A46011  43.950  22.270   6.170
 3474POPC   D2A46012  44.058  22.122   6.598
 3474POPC   C3A46013  43.851  22.363   6.926
 3474POPC   C4A46014  43.668  22.279   7.315
 3474POPC   C1B46015  43.799  21.785   6.192
 3474POPC   C2B46016  43.667  21.736   6.625
 3474POPC   C3B46017  43.755  21.802   7.077
 3474POPC   C4B46018  43.471  21.820   7.425
 3475POPC   NC346019  41.097  27.085   5.618
 3475POPC   PO446020  40.761  26.660   5.183
 3475POPC   GL146021  40.698  26.698   5.696
 3475POPC   GL246022  40.471  26.949   5.852
 3475POPC   C1A46023  40.648  26.620   6.205
 3475POPC   D2A46024  40.897  26.630   6.656
 3475POPC   C3A46025  40.753  26.505   7.118
 3475POPC   C4A46026  40.301  26.460   7.251
 3475POPC   C1B46027  40.572  27.170   6.247
 3475POPC   C2B46028  40.329  27.146   6.660
 3475POPC   C3B46029  40.467  26.942   7.060
 3475POPC   C4B46030  40.894  26.995   7.260
 3476POPC   NC346031   5.856   0.295   5.364
 3476POPC   PO446032   5.416   0.766   5.477
 3476POPC   GL146033   5.646   0.549   5.839
 3476POPC   GL246034   5.982   0.405   5.844
 3476POPC   C1A46035   5.906   0.746   6.213
 3476POPC   D2A46036   6.014   0.738   6.672
 3476POPC   C3A46037   5.780   0.485   6.987
 3476POPC   C4A46038   5.848   0.433   7.437
 3476POPC   C1B46039   6.190   0.304   6.249
 3476POPC   C2B46040   6.137   0.229   6.696
 3476POPC   C3B46041   6.018   0.020   7.094
 3476POPC   C4B46042   6.210  44.900   7.488
 3477POPC   NC346043  19.181  28.278   5.148
 3477POPC   PO446044  18.691  28.047   5.462
 3477POPC   GL146045  18.819  28.297   5.803
 3477POPC   GL246046  19.122  28.473   5.725
 3477POPC   C1A46047  18.952  28.329   6.231
 3477POPC   D2A46048  19.204  28.432   6.606
 3477POPC   C3A46049  19.045  28.230   6.982
 3477POPC   C4A46050  18.732  28.460   7.168
 3477POPC   C1B46051  19.304  28.701   6.118
 3477POPC   C2B46052  19.336  28.935   6.527
 3477POPC   C3B46053  19.190  28.887   6.955
 3477POPC   C4B46054  19.206  28.619   7.304
 3478POPC   NC346055  22.663   7.015   5.580
 3478POPC   PO446056  23.102   6.577   5.416
 3478POPC   GL146057  23.133   6.442   5.838
 3478POPC   GL246058  22.886   6.167   5.832
 3478POPC   C1A46059  23.167   6.622   6.269
 3478POPC   D2A46060  22.946   6.794   6.657
 3478POPC   C3A46061  22.904   6.622   7.081
 3478POPC   C4A46062  23.128   6.738   7.485
 3478POPC   C1B46063  22.750   6.308   6.263
 3478POPC   C2B46064  22.651   6.321   6.716
 3478POPC   C3B46065  22.547   6.247   7.151
 3478POPC   C4B46066  22.506   6.565   7.479
 3479POPC   NC346067  39.334  38.327   5.404
 3479POPC   PO446068  39.453  38.966   5.587
 3479POPC   GL146069  39.473  38.589   5.865
 3479POPC   GL246070  39.229  38.306   5.896
 3479POPC   C1A46071  39.418  38.485   6.330
 3479POPC   D2A46072  39.233  38.599   6.729
 3479POPC   C3A46073  39.476  38.368   6.960
 3479POPC   C4A46074  39.587  38.381   7.339
 3479POPC   C1B46075  38.932  38.514   6.162
 3479POPC   C2B46076  38.725  38.457   6.541
 3479POPC   C3B46077  38.787  38.215   6.895
 3479POPC   C4B46078  39.033  38.395   7.218
 3480POPC   NC346079  24.600   1.560   5.439
 3480POPC   PO446080  24.239   0.940   5.368
 3480POPC   GL146081  24.219   1.274   5.685
 3480POPC   GL246082  24.555   1.262   5.845
 3480POPC   C1A46083  24.134   1.481   6.077
 3480POPC   D2A46084  24.019   1.407   6.517
 3480POPC   C3A46085  24.276   1.185   6.815
 3480POPC   C4A46086  24.380   1.361   7.214
 3480POPC   C1B46087  24.856   1.182   6.177
 3480POPC   C2B46088  24.785   1.300   6.588
 3480POPC   C3B46089  24.840   1.419   6.984
 3480POPC   C4B46090  24.850   1.111   7.272
 3481POPC   NC346091  24.749  41.811   5.480
 3481POPC   PO446092  25.002  41.186   5.432
 3481POPC   GL146093  24.884  41.429   5.829
 3481POPC   GL246094  24.501  41.487   5.853
 3481POPC   C1A46095  24.794  41.772   6.125
 3481POPC   D2A46096  24.463  41.831   6.421
 3481POPC   C3A46097  24.468  41.581   6.799
 3481POPC   C4A46098  24.567  41.538   7.226
 3481POPC   C1B46099  24.505  41.309   6.324
 3481POPC   C2B46100  24.252  41.122   6.707
 3481POPC   C3B46101  24.043  41.237   7.127
 3481POPC   C4B46102  24.272  41.320   7.573
 3482POPC   NC346103  19.806  37.961   5.360
 3482POPC   PO446104  19.671  37.310   5.494
 3482POPC   GL146105  19.599  37.629   5.839
 3482POPC   GL246106  19.774  37.945   5.903
 3482POPC   C1A46107  19.618  37.571   6.312
 3482POPC   D2A46108  19.374  37.585   6.696
 3482POPC   C3A46109  19.570  37.475   7.056
 3482POPC   C4A46110  19.768  37.675   7.348
 3482POPC   C1B46111  20.022  37.868   6.291
 3482POPC   C2B46112  19.924  37.737   6.723
 3482POPC   C3B46113  20.113  37.921   7.095
 3482POPC   C4B46114  20.156  37.979   7.553
 3483POPC   NC346115  36.194   9.497   5.601
 3483POPC   PO446116  36.043   8.924   5.242
 3483POPC   GL146117  35.858   8.888   5.751
 3483POPC   GL246118  35.734   9.223   5.841
 3483POPC   C1A46119  36.072   8.724   6.199
 3483POPC   D2A46120  36.445   8.904   6.473
 3483POPC   C3A46121  36.456   8.917   6.946
 3483POPC   C4A46122  36.334   8.881   7.393
 3483POPC   C1B46123  35.859   9.179   6.293
 3483POPC   C2B46124  35.965   8.921   6.670
 3483POPC   C3B46125  35.982   9.101   7.056
 3483POPC   C4B46126  35.728   9.382   7.271
 3484POPC   NC346127  24.372  32.768   5.134
 3484POPC   PO446128  24.716  33.301   5.368
 3484POPC   GL146129  24.547  32.959   5.644
 3484POPC   GL246130  24.823  32.884   5.882
 3484POPC   C1A46131  24.395  32.988   6.112
 3484POPC   D2A46132  24.600  33.010   6.547
 3484POPC   C3A46133  24.337  32.865   6.891
 3484POPC   C4A46134  24.123  33.125   7.195
 3484POPC   C1B46135  24.736  32.602   6.216
 3484POPC   C2B46136  24.563  32.483   6.607
 3484POPC   C3B46137  24.754  32.562   6.983
 3484POPC   C4B46138  24.633  32.843   7.314
 3485POPC   NC346139  10.138  43.080   5.563
 3485POPC   PO446140   9.569  42.876   5.297
 3485POPC   GL146141   9.649  43.032   5.730
 3485POPC   GL246142   9.730  43.418   5.803
 3485POPC   C1A46143   9.680  43.103   6.194
 3485POPC   D2A46144   9.953  43.101   6.546
 3485POPC   C3A46145   9.805  43.045   6.970
 3485POPC   C4A46146   9.721  43.145   7.401
 3485POPC   C1B46147  10.025  43.489   6.185
 3485POPC   C2B46148  10.160  43.578   6.622
 3485POPC   C3B46149  10.038  43.524   7.084
 3485POPC   C4B46150  10.061  43.495   7.546
 3486POPC   NC346151  26.267  40.984   5.580
 3486POPC   PO446152  25.902  40.514   5.357
 3486POPC   GL146153  25.943  40.620   5.816
 3486POPC   GL246154  25.959  40.973   6.005
 3486POPC   C1A46155  26.160  40.551   6.219
 3486POPC   D2A46156  25.929  40.635   6.589
 3486POPC   C3A46157  26.124  40.515   6.981
 3486POPC   C4A46158  25.824  40.387   7.242
 3486POPC   C1B46159  26.342  41.021   6.287
 3486POPC   C2B46160  26.326  40.916   6.725
 3486POPC   C3B46161  26.189  41.040   7.108
 3486POPC   C4B46162  26.469  41.302   7.314
 3487POPC   NC346163  29.109  39.783   5.476
 3487POPC   PO446164  29.064  40.467   5.554
 3487POPC   GL146165  29.056  40.125   5.865
 3487POPC   GL246166  28.802  39.837   5.892
 3487POPC   C1A46167  29.318  39.927   6.170
 3487POPC   D2A46168  29.414  39.793   6.586
 3487POPC   C3A46169  29.300  40.140   6.822
 3487POPC   C4A46170  29.077  40.197   7.176
 3487POPC   C1B46171  28.827  39.831   6.340
 3487POPC   C2B46172  28.816  39.952   6.779
 3487POPC   C3B46173  28.716  39.836   7.205
 3487POPC   C4B46174  28.558  39.699   7.632
 3488POPC   NC346175  34.720   7.313   5.481
 3488POPC   PO446176  34.611   7.846   5.366
 3488POPC   GL146177  34.614   7.699   5.812
 3488POPC   GL246178  34.889   7.491   5.927
 3488POPC   C1A46179  34.435   7.731   6.232
 3488POPC   D2A46180  34.558   7.740   6.661
 3488POPC   C3A46181  34.302   7.543   6.983
 3488POPC   C4A46182  34.361   7.558   7.432
 3488POPC   C1B46183  34.931   7.520   6.370
 3488POPC   C2B46184  35.023   7.497   6.811
 3488POPC   C3B46185  34.936   7.481   7.259
 3488POPC   C4B46186  34.730   7.216   7.557
 3489POPC   NC346187  30.191  28.763   5.156
 3489POPC   PO446188  29.757  29.277   5.426
 3489POPC   GL146189  29.929  29.106   5.781
 3489POPC   GL246190  29.861  28.765   5.695
 3489POPC   C1A46191  29.964  29.229   6.208
 3489POPC   D2A46192  30.158  29.257   6.591
 3489POPC   C3A46193  29.978  29.339   6.960
 3489POPC   C4A46194  29.981  29.363   7.388
 3489POPC   C1B46195  30.078  28.730   6.098
 3489POPC   C2B46196  29.940  28.802   6.512
 3489POPC   C3B46197  30.095  28.846   6.901
 3489POPC   C4B46198  29.860  28.897   7.235
 3490POPC   NC346199  15.781  40.131   5.365
 3490POPC   PO446200  16.344  40.225   5.100
 3490POPC   GL146201  16.233  40.011   5.587
 3490POPC   GL246202  16.114  40.195   5.860
 3490POPC   C1A46203  16.136  39.749   6.033
 3490POPC   D2A46204  16.001  39.944   6.447
 3490POPC   C3A46205  15.789  39.827   6.822
 3490POPC   C4A46206  15.883  39.736   7.246
 3490POPC   C1B46207  15.727  40.223   6.105
 3490POPC   C2B46208  15.707  40.340   6.534
 3490POPC   C3B46209  15.682  40.339   6.946
 3490POPC   C4B46210  15.413  40.332   7.261
 3491POPC   NC346211  13.435  13.542   5.482
 3491POPC   PO446212  13.928  13.926   5.163
 3491POPC   GL146213  13.897  13.709   5.616
 3491POPC   GL246214  13.824  13.963   5.862
 3491POPC   C1A46215  13.934  13.542   6.105
 3491POPC   D2A46216  13.733  13.500   6.545
 3491POPC   C3A46217  13.874  13.586   6.978
 3491POPC   C4A46218  13.705  13.488   7.359
 3491POPC   C1B46219  13.504  13.805   6.206
 3491POPC   C2B46220  13.403  13.905   6.656
 3491POPC   C3B46221  13.481  13.945   7.101
 3491POPC   C4B46222  13.343  13.822   7.505
 3492POPC   NC346223   1.311  37.284   5.092
 3492POPC   PO446224   1.017  36.886   5.531
 3492POPC   GL146225   1.362  36.817   5.805
 3492POPC   GL246226   1.435  36.449   5.831
 3492POPC   C1A46227   1.308  37.049   6.192
 3492POPC   D2A46228   1.124  37.013   6.570
 3492POPC   C3A46229   1.190  37.280   6.887
 3492POPC   C4A46230   1.217  37.048   7.248
 3492POPC   C1B46231   1.150  36.550   6.195
 3492POPC   C2B46232   0.964  36.516   6.623
 3492POPC   C3B46233   1.176  36.465   7.013
 3492POPC   C4B46234   1.545  36.627   7.230
 3493POPC   NC346235   9.741  22.975   5.368
 3493POPC   PO446236   9.682  22.392   5.324
 3493POPC   GL146237   9.598  22.657   5.739
 3493POPC   GL246238   9.886  22.913   5.856
 3493POPC   C1A46239   9.444  22.902   6.138
 3493POPC   D2A46240   9.626  22.994   6.572
 3493POPC   C3A46241   9.411  23.216   6.936
 3493POPC   C4A46242   9.451  23.093   7.387
 3493POPC   C1B46243   9.904  22.655   6.238
 3493POPC   C2B46244  10.006  22.659   6.687
 3493POPC   C3B46245   9.856  22.870   7.055
 3493POPC   C4B46246   9.716  22.586   7.351
 3494POPC   NC346247  14.807  33.669   5.491
 3494POPC   PO446248  14.158  33.460   5.427
 3494POPC   GL146249  14.333  33.717   5.771
 3494POPC   GL246250  14.288  34.067   5.729
 3494POPC   C1A46251  14.460  33.588   6.210
 3494POPC   D2A46252  14.448  33.801   6.621
 3494POPC   C3A46253  14.532  33.587   7.023
 3494POPC   C4A46254  14.395  33.581   7.410
 3494POPC   C1B46255  14.511  34.085   6.164
 3494POPC   C2B46256  14.685  34.246   6.570
 3494POPC   C3B46257  14.697  34.076   6.995
 3494POPC   C4B46258  14.655  34.025   7.482
 3495POPC   NC346259  14.124  11.968   5.383
 3495POPC   PO446260  14.548  12.507   5.470
 3495POPC   GL146261  14.330  12.202   5.830
 3495POPC   GL246262  14.062  11.916   5.876
 3495POPC   C1A46263  14.391  12.006   6.288
 3495POPC   D2A46264  14.625  12.034   6.723
 3495POPC   C3A46265  14.457  12.219   7.115
 3495POPC   C4A46266  14.611  12.336   7.536
 3495POPC   C1B46267  13.890  11.780   6.256
 3495POPC   C2B46268  14.097  11.755   6.651
 3495POPC   C3B46269  14.288  11.714   7.030
 3495POPC   C4B46270  14.115  11.851   7.412
 3496POPC   NC346271  17.757  20.161   5.663
 3496POPC   PO446272  17.627  19.727   5.156
 3496POPC   GL146273  17.517  19.711   5.637
 3496POPC   GL246274  17.342  19.977   5.901
 3496POPC   C1A46275  17.689  19.648   6.076
 3496POPC   D2A46276  17.533  19.659   6.487
 3496POPC   C3A46277  17.667  19.958   6.773
 3496POPC   C4A46278  17.893  20.092   7.137
 3496POPC   C1B46279  17.268  20.194   6.300
 3496POPC   C2B46280  17.187  20.174   6.746
 3496POPC   C3B46281  17.289  19.992   7.155
 3496POPC   C4B46282  17.144  20.022   7.607
 3497POPC   NC346283  13.945  33.898   5.371
 3497POPC   PO446284  13.235  33.839   5.389
 3497POPC   GL146285  13.446  33.829   5.838
 3497POPC   GL246286  13.812  33.909   5.855
 3497POPC   C1A46287  13.557  34.084   6.262
 3497POPC   D2A46288  13.626  34.220   6.708
 3497POPC   C3A46289  13.509  34.026   7.127
 3497POPC   C4A46290  13.485  33.549   7.200
 3497POPC   C1B46291  13.943  33.743   6.257
 3497POPC   C2B46292  13.716  33.700   6.652
 3497POPC   C3B46293  13.965  33.841   6.979
 3497POPC   C4B46294  14.223  34.060   7.240
 3498POPC   NC346295   2.717  33.281   5.295
 3498POPC   PO446296   2.410  32.692   5.548
 3498POPC   GL146297   2.677  32.944   5.842
 3498POPC   GL246298   2.983  33.126   5.727
 3498POPC   C1A46299   2.704  33.221   6.207
 3498POPC   D2A46300   2.499  33.308   6.604
 3498POPC   C3A46301   2.654  33.032   6.918
 3498POPC   C4A46302   2.539  32.832   7.302
 3498POPC   C1B46303   3.153  33.007   6.129
 3498POPC   C2B46304   3.035  32.931   6.543
 3498POPC   C3B46305   3.243  32.887   6.916
 3498POPC   C4B46306   3.035  32.950   7.284
 3499POPC   NC346307  42.428  12.444   5.044
 3499POPC   PO446308  42.218  13.068   5.297
 3499POPC   GL146309  42.383  13.022   5.762
 3499POPC   GL246310  42.416  12.691   5.906
 3499POPC   C1A46311  42.460  13.037   6.246
 3499POPC   D2A46312  42.438  12.780   6.637
 3499POPC   C3A46313  42.214  13.069   6.872
 3499POPC   C4A46314  42.354  13.393   7.150
 3499POPC   C1B46315  42.640  12.502   6.240
 3499POPC   C2B46316  42.681  12.274   6.648
 3499POPC   C3B46317  42.554  12.394   7.059
 3499POPC   C4B46318  42.508  12.828   7.213
 3500POPC   NC346319  10.617  14.786   5.432
 3500POPC   PO446320  10.847  15.329   5.390
 3500POPC   GL146321  10.599  15.145   5.792
 3500POPC   GL246322  10.265  14.921   5.766
 3500POPC   C1A46323  10.713  15.172   6.262
 3500POPC   D2A46324  10.707  15.363   6.714
 3500POPC   C3A46325  10.864  15.146   7.101
 3500POPC   C4A46326  10.674  14.899   7.449
 3500POPC   C1B46327  10.218  15.033   6.210
 3500POPC   C2B46328  10.416  14.949   6.628
 3500POPC   C3B46329  10.359  15.098   7.068
 3500POPC   C4B46330  10.222  15.161   7.516
 3501POPC   NC346331  22.852  20.937   5.479
 3501POPC   PO446332  22.677  20.392   5.192
 3501POPC   GL146333  22.625  20.531   5.720
 3501POPC   GL246334  22.889  20.782   5.955
 3501POPC   C1A46335  22.641  20.421   6.185
 3501POPC   D2A46336  22.816  20.721   6.493
 3501POPC   C3A46337  23.043  20.578   6.872
 3501POPC   C4A46338  22.991  20.298   7.254
 3501POPC   C1B46339  22.532  21.012   6.115
 3501POPC   C2B46340  22.517  21.161   6.573
 3501POPC   C3B46341  22.811  21.062   6.900
 3501POPC   C4B46342  23.107  20.944   7.223
 3502POPC   NC346343  15.012   8.847   5.334
 3502POPC   PO446344  15.408   9.354   5.656
 3502POPC   GL146345  15.150   9.068   5.823
 3502POPC   GL246346  15.197   8.718   5.795
 3502POPC   C1A46347  15.140   8.986   6.253
 3502POPC   D2A46348  14.882   8.855   6.572
 3502POPC   C3A46349  14.999   9.119   6.911
 3502POPC   C4A46350  15.336   9.122   7.203
 3502POPC   C1B46351  15.336   8.523   6.188
 3502POPC   C2B46352  15.199   8.449   6.623
 3502POPC   C3B46353  15.103   8.631   7.056
 3502POPC   C4B46354  15.215   8.680   7.502
 3503POPC   NC346355  34.355  16.580   5.438
 3503POPC   PO446356  34.809  17.067   5.522
 3503POPC   GL146357  34.520  16.922   5.838
 3503POPC   GL246358  34.506  16.586   5.916
 3503POPC   C1A46359  34.474  16.944   6.294
 3503POPC   D2A46360  34.372  17.035   6.723
 3503POPC   C3A46361  34.574  16.783   7.042
 3503POPC   C4A46362  34.411  16.595   7.410
 3503POPC   C1B46363  34.848  16.562   6.191
 3503POPC   C2B46364  35.014  16.736   6.569
 3503POPC   C3B46365  35.031  16.521   6.949
 3503POPC   C4B46366  34.751  16.302   7.158
 3504POPC   NC346367  34.548  22.972   5.319
 3504POPC   PO446368  35.120  23.240   5.218
 3504POPC   GL146369  34.869  23.187   5.639
 3504POPC   GL246370  34.649  22.929   5.834
 3504POPC   C1A46371  34.800  23.386   6.025
 3504POPC   D2A46372  34.868  23.441   6.462
 3504POPC   C3A46373  34.708  23.251   6.819
 3504POPC   C4A46374  34.638  23.093   7.226
 3504POPC   C1B46375  34.546  23.004   6.325
 3504POPC   C2B46376  34.504  22.777   6.756
 3504POPC   C3B46377  34.213  22.781   7.118
 3504POPC   C4B46378  34.224  22.973   7.522
 3505POPC   NC346379   0.407  25.134   5.137
 3505POPC   PO446380   0.962  25.571   5.102
 3505POPC   GL146381   0.771  25.433   5.550
 3505POPC   GL246382   0.538  25.147   5.634
 3505POPC   C1A46383   0.664  25.424   6.040
 3505POPC   D2A46384   0.594  25.147   6.448
 3505POPC   C3A46385   0.563  25.382   6.864
 3505POPC   C4A46386   0.473  25.602   7.276
 3505POPC   C1B46387   0.191  25.186   5.981
 3505POPC   C2B46388   0.079  25.086   6.414
 3505POPC   C3B46389   0.082  25.200   6.846
 3505POPC   C4B46390   0.282  25.141   7.258
 3506POPC   NC346391  29.267  25.821   5.356
 3506POPC   PO446392  28.590  25.605   5.429
 3506POPC   GL146393  28.781  25.925   5.747
 3506POPC   GL246394  29.141  26.036   5.794
 3506POPC   C1A46395  28.815  26.095   6.184
 3506POPC   D2A46396  29.116  26.141   6.508
 3506POPC   C3A46397  29.038  26.167   6.934
 3506POPC   C4A46398  29.037  26.155   7.380
 3506POPC   C1B46399  29.382  25.901   6.136
 3506POPC   C2B46400  29.590  25.872   6.535
 3506POPC   C3B46401  29.590  25.792   6.972
 3506POPC   C4B46402  29.376  25.748   7.341
 3507POPC   NC346403  35.263  14.697   5.466
 3507POPC   PO446404  35.518  14.086   5.430
 3507POPC   GL146405  35.348  14.250   5.804
 3507POPC   GL246406  35.559  14.071   6.038
 3507POPC   C1A46407  35.370  14.606   6.125
 3507POPC   D2A46408  35.249  14.715   6.550
 3507POPC   C3A46409  35.435  14.492   6.867
 3507POPC   C4A46410  35.335  14.607   7.266
 3507POPC   C1B46411  35.292  14.181   6.403
 3507POPC   C2B46412  35.155  14.013   6.784
 3507POPC   C3B46413  35.183  14.108   7.220
 3507POPC   C4B46414  35.271  13.924   7.624
 3508POPC   NC346415  32.830   7.195   5.253
 3508POPC   PO446416  33.232   7.755   5.418
 3508POPC   GL146417  33.076   7.442   5.699
 3508POPC   GL246418  33.147   7.695   5.941
 3508POPC   C1A46419  33.062   7.135   6.040
 3508POPC   D2A46420  33.189   7.071   6.480
 3508POPC   C3A46421  32.923   7.158   6.843
 3508POPC   C4A46422  33.039   7.183   7.275
 3508POPC   C1B46423  33.037   7.545   6.357
 3508POPC   C2B46424  32.769   7.609   6.689
 3508POPC   C3B46425  32.747   7.592   7.138
 3508POPC   C4B46426  32.652   7.833   7.507
 3509POPC   NC346427  43.204  41.710   5.294
 3509POPC   PO446428  42.867  41.026   5.298
 3509POPC   GL146429  43.063  41.277   5.603
 3509POPC   GL246430  42.812  41.508   5.707
 3509POPC   C1A46431  43.183  41.367   6.056
 3509POPC   D2A46432  43.096  41.280   6.521
 3509POPC   C3A46433  43.297  41.428   6.919
 3509POPC   C4A46434  43.250  41.778   7.236
 3509POPC   C1B46435  42.634  41.430   6.144
 3509POPC   C2B46436  42.584  41.385   6.604
 3509POPC   C3B46437  42.796  41.569   6.965
 3509POPC   C4B46438  42.940  41.365   7.339
 3510POPC   NC346439  19.221  39.883   5.201
 3510POPC   PO446440  19.303  40.524   5.430
 3510POPC   GL146441  19.203  40.184   5.756
 3510POPC   GL246442  18.957  39.909   5.636
 3510POPC   C1A46443  19.319  40.146   6.245
 3510POPC   D2A46444  19.485  40.096   6.724
 3510POPC   C3A46445  19.303  39.995   7.179
 3510POPC   C4A46446  19.185  39.841   7.636
 3510POPC   C1B46447  18.944  39.812   6.073
 3510POPC   C2B46448  18.984  39.878   6.529
 3510POPC   C3B46449  18.865  39.897   6.960
 3510POPC   C4B46450  18.824  40.074   7.353
 3511POPC   NC346451  41.717  39.218   5.401
 3511POPC   PO446452  41.081  39.388   5.490
 3511POPC   GL146453  41.313  39.145   5.812
 3511POPC   GL246454  41.659  39.190   5.895
 3511POPC   C1A46455  41.338  39.212   6.276
 3511POPC   D2A46456  41.377  39.348   6.681
 3511POPC   C3A46457  41.548  39.054   6.969
 3511POPC   C4A46458  41.634  38.903   7.374
 3511POPC   C1B46459  41.830  39.399   6.257
 3511POPC   C2B46460  41.947  39.295   6.667
 3511POPC   C3B46461  41.743  39.567   6.952
 3511POPC   C4B46462  41.565  39.424   7.317
 3512POPC   NC346463  19.623  39.043   5.110
 3512POPC   PO446464  19.118  39.444   5.345
 3512POPC   GL146465  18.893  39.360   5.725
 3512POPC   GL246466  19.056  39.040   5.810
 3512POPC   C1A46467  18.818  39.326   6.183
 3512POPC   D2A46468  18.796  39.313   6.626
 3512POPC   C3A46469  19.154  39.504   6.844
 3512POPC   C4A46470  19.123  39.498   7.269
 3512POPC   C1B46471  19.309  39.013   6.177
 3512POPC   C2B46472  19.319  39.078   6.623
 3512POPC   C3B46473  19.027  39.029   6.990
 3512POPC   C4B46474  19.205  38.981   7.370
 3513POPC   NC346475  22.559  21.817   5.636
 3513POPC   PO446476  22.920  22.213   5.430
 3513POPC   GL146477  22.857  22.164   5.890
 3513POPC   GL246478  22.537  22.072   6.066
 3513POPC   C1A46479  22.897  22.422   6.279
 3513POPC   D2A46480  23.152  22.408   6.662
 3513POPC   C3A46481  22.957  22.433   7.068
 3513POPC   C4A46482  22.853  22.672   7.443
 3513POPC   C1B46483  22.878  21.921   6.336
 3513POPC   C2B46484  22.870  21.987   6.742
 3513POPC   C3B46485  23.060  21.917   7.096
 3513POPC   C4B46486  22.765  21.989   7.287
 3514POPC   NC346487   8.450  13.064   5.482
 3514POPC   PO446488   7.967  12.635   5.592
 3514POPC   GL146489   8.198  12.582   5.961
 3514POPC   GL246490   8.478  12.814   5.919
 3514POPC   C1A46491   8.080  12.733   6.361
 3514POPC   D2A46492   8.050  13.096   6.643
 3514POPC   C3A46493   8.049  12.967   7.038
 3514POPC   C4A46494   7.892  12.574   7.177
 3514POPC   C1B46495   8.400  13.110   6.257
 3514POPC   C2B46496   8.514  13.301   6.656
 3514POPC   C3B46497   8.545  13.149   7.058
 3514POPC   C4B46498   8.414  12.913   7.399
 3515POPC   NC346499  34.328  35.352   5.416
 3515POPC   PO446500  34.924  35.643   5.457
 3515POPC   GL146501  34.624  35.569   5.812
 3515POPC   GL246502  34.509  35.221   5.893
 3515POPC   C1A46503  34.265  35.583   6.120
 3515POPC   D2A46504  34.301  35.665   6.562
 3515POPC   C3A46505  34.462  35.338   6.836
 3515POPC   C4A46506  34.390  35.443   7.253
 3515POPC   C1B46507  34.671  35.328   6.335
 3515POPC   C2B46508  34.918  35.118   6.673
 3515POPC   C3B46509  34.838  34.965   7.102
 3515POPC   C4B46510  34.449  34.914   7.299
 3516POPC   NC346511  40.962  32.191   5.413
 3516POPC   PO446512  40.312  31.963   5.414
 3516POPC   GL146513  40.524  31.886   5.797
 3516POPC   GL246514  40.677  32.214   5.835
 3516POPC   C1A46515  40.594  31.949   6.268
 3516POPC   D2A46516  40.582  32.252   6.590
 3516POPC   C3A46517  40.516  32.201   7.000
 3516POPC   C4A46518  40.869  32.064   7.238
 3516POPC   C1B46519  40.906  32.380   6.209
 3516POPC   C2B46520  41.017  32.487   6.645
 3516POPC   C3B46521  41.196  32.404   7.019
 3516POPC   C4B46522  40.831  32.560   7.221
 3517POPC   NC346523   0.660  37.225   5.528
 3517POPC   PO446524   0.353  36.612   5.449
 3517POPC   GL146525   0.499  36.857   5.850
 3517POPC   GL246526   0.833  37.053   5.969
 3517POPC   C1A46527   0.305  37.112   6.217
 3517POPC   D2A46528   0.231  37.174   6.673
 3517POPC   C3A46529   0.218  36.791   6.943
 3517POPC   C4A46530   0.394  36.662   7.325
 3517POPC   C1B46531   0.726  36.830   6.300
 3517POPC   C2B46532   0.649  36.903   6.701
 3517POPC   C3B46533   0.803  36.831   7.064
 3517POPC   C4B46534   0.734  37.011   7.455
 3518POPC   NC346535  24.947  32.013   5.450
 3518POPC   PO446536  25.426  32.544   5.434
 3518POPC   GL146537  25.366  32.239   5.769
 3518POPC   GL246538  25.646  32.447   5.910
 3518POPC   C1A46539  25.249  32.069   6.192
 3518POPC   D2A46540  24.995  32.223   6.535
 3518POPC   C3A46541  25.160  32.155   6.940
 3518POPC   C4A46542  25.510  32.010   7.168
 3518POPC   C1B46543  25.756  32.099   6.181
 3518POPC   C2B46544  25.611  32.190   6.617
 3518POPC   C3B46545  25.480  32.559   6.854
 3518POPC   C4B46546  25.331  32.516   7.256
 3519POPC   NC346547  42.043   5.298   5.352
 3519POPC   PO446548  41.506   4.878   5.425
 3519POPC   GL146549  41.562   5.187   5.756
 3519POPC   GL246550  41.900   5.220   5.843
 3519POPC   C1A46551  41.563   5.299   6.209
 3519POPC   D2A46552  41.468   5.069   6.558
 3519POPC   C3A46553  41.657   5.240   6.922
 3519POPC   C4A46554  41.579   5.193   7.349
 3519POPC   C1B46555  41.878   4.901   6.202
 3519POPC   C2B46556  41.893   4.822   6.691
 3519POPC   C3B46557  41.728   4.741   7.133
 3519POPC   C4B46558  41.599   4.743   7.598
 3520POPC   NC346559  26.135   2.011   5.354
 3520POPC   PO446560  25.756   1.513   5.422
 3520POPC   GL146561  26.053   1.735   5.783
 3520POPC   GL246562  26.037   2.133   5.836
 3520POPC   C1A46563  26.156   1.859   6.246
 3520POPC   D2A46564  25.996   2.041   6.655
 3520POPC   C3A46565  25.950   1.718   6.980
 3520POPC   C4A46566  26.340   1.497   7.074
 3520POPC   C1B46567  25.818   2.300   6.214
 3520POPC   C2B46568  25.669   2.469   6.638
 3520POPC   C3B46569  25.781   2.363   7.089
 3520POPC   C4B46570  26.174   2.118   7.227
 3521POPC   NC346571   3.970  36.890   5.323
 3521POPC   PO446572   4.518  36.577   5.407
 3521POPC   GL146573   4.447  36.662   5.815
 3521POPC   GL246574   4.278  36.974   5.788
 3521POPC   C1A46575   4.306  36.628   6.246
 3521POPC   D2A46576   4.368  36.820   6.639
 3521POPC   C3A46577   4.429  36.644   7.083
 3521POPC   C4A46578   4.165  36.589   7.466
 3521POPC   C1B46579   4.522  37.094   6.162
 3521POPC   C2B46580   4.620  37.266   6.606
 3521POPC   C3B46581   4.403  37.152   7.009
 3521POPC   C4B46582   4.275  37.075   7.419
 3522POPC   NC346583   4.704  17.762   5.371
 3522POPC   PO446584   5.198  17.390   5.474
 3522POPC   GL146585   4.883  17.546   5.809
 3522POPC   GL246586   4.846  17.910   5.846
 3522POPC   C1A46587   4.673  17.423   6.225
 3522POPC   D2A46588   4.565  17.229   6.644
 3522POPC   C3A46589   4.660  17.380   7.105
 3522POPC   C4A46590   4.609  17.113   7.493
 3522POPC   C1B46591   5.051  17.756   6.251
 3522POPC   C2B46592   4.943  17.591   6.686
 3522POPC   C3B46593   5.082  17.703   7.111
 3522POPC   C4B46594   5.154  18.094   7.335
 3523POPC   NC346595   4.511  28.335   5.331
 3523POPC   PO446596   3.850  28.271   5.434
 3523POPC   GL146597   4.120  28.445   5.777
 3523POPC   GL246598   4.259  28.108   5.740
 3523POPC   C1A46599   4.341  28.530   6.221
 3523POPC   D2A46600   4.622  28.712   6.577
 3523POPC   C3A46601   4.471  28.676   7.032
 3523POPC   C4A46602   4.634  28.290   7.207
 3523POPC   C1B46603   4.568  28.065   6.057
 3523POPC   C2B46604   4.509  28.066   6.494
 3523POPC   C3B46605   4.271  28.323   6.760
 3523POPC   C4B46606   4.009  28.338   7.147
 3524POPC   NC346607  25.894  34.882   5.445
 3524POPC   PO446608  26.132  35.584   5.404
 3524POPC   GL146609  25.878  35.544   5.791
 3524POPC   GL246610  25.801  35.197   5.825
 3524POPC   C1A46611  25.889  35.490   6.248
 3524POPC   D2A46612  26.257  35.591   6.462
 3524POPC   C3A46613  26.199  35.444   6.860
 3524POPC   C4A46614  25.757  35.486   7.037
 3524POPC   C1B46615  25.785  34.912   6.162
 3524POPC   C2B46616  25.974  35.052   6.537
 3524POPC   C3B46617  26.170  34.938   6.888
 3524POPC   C4B46618  25.932  35.023   7.226
 3525POPC   NC346619  14.946  42.483   5.260
 3525POPC   PO446620  15.151  41.898   5.322
 3525POPC   GL146621  14.983  42.175   5.720
 3525POPC   GL246622  15.110  42.527   5.802
 3525POPC   C1A46623  14.906  42.235   6.201
 3525POPC   D2A46624  15.098  42.067   6.603
 3525POPC   C3A46625  15.090  42.145   7.090
 3525POPC   C4A46626  14.901  42.323   7.477
 3525POPC   C1B46627  15.190  42.656   6.265
 3525POPC   C2B46628  15.073  42.578   6.712
 3525POPC   C3B46629  15.241  42.627   7.148
 3525POPC   C4B46630  15.400  42.552   7.593
 3526POPC   NC346631   0.883   7.184   5.471
 3526POPC   PO446632   1.358   7.524   5.108
 3526POPC   GL146633   1.423   7.574   5.608
 3526POPC   GL246634   1.076   7.573   5.764
 3526POPC   C1A46635   1.447   7.471   6.113
 3526POPC   D2A46636   1.324   7.166   6.484
 3526POPC   C3A46637   1.541   7.168   6.908
 3526POPC   C4A46638   1.328   7.093   7.302
 3526POPC   C1B46639   0.953   7.504   6.199
 3526POPC   C2B46640   1.144   7.649   6.567
 3526POPC   C3B46641   1.136   7.466   6.967
 3526POPC   C4B46642   0.879   7.390   7.307
 3527POPC   NC346643   4.779   4.335   5.635
 3527POPC   PO446644   4.197   4.136   5.333
 3527POPC   GL146645   4.102   4.304   5.721
 3527POPC   GL246646   4.239   4.633   5.715
 3527POPC   C1A46647   4.310   4.295   6.134
 3527POPC   D2A46648   4.452   4.352   6.560
 3527POPC   C3A46649   4.300   4.002   6.793
 3527POPC   C4A46650   4.204   3.967   7.184
 3527POPC   C1B46651   3.963   4.693   6.088
 3527POPC   C2B46652   4.004   4.679   6.555
 3527POPC   C3B46653   4.233   4.640   6.973
 3527POPC   C4B46654   4.418   4.838   7.340
 3528POPC   NC346655  44.971  10.920   5.506
 3528POPC   PO446656  44.678  10.314   5.700
 3528POPC   GL146657  44.838  10.621   5.911
 3528POPC   GL246658  44.558  10.846   5.855
 3528POPC   C1A46659  44.782  10.607   6.361
 3528POPC   D2A46660  44.429  10.559   6.658
 3528POPC   C3A46661  44.592  10.244   6.931
 3528POPC   C4A46662  44.966  10.384   7.118
 3528POPC   C1B46663  44.452  10.989   6.322
 3528POPC   C2B46664  44.304  11.185   6.682
 3528POPC   C3B46665  44.342  11.092   7.103
 3528POPC   C4B46666  44.529  10.687   7.178
 3529POPC   NC346667   4.936  19.736   5.488
 3529POPC   PO446668   5.571  19.948   5.577
 3529POPC   GL146669   5.204  19.938   5.865
 3529POPC   GL246670   4.866  20.128   5.798
 3529POPC   C1A46671   4.930  19.674   6.156
 3529POPC   D2A46672   5.037  19.497   6.592
 3529POPC   C3A46673   5.272  19.773   6.881
 3529POPC   C4A46674   5.116  19.980   7.238
 3529POPC   C1B46675   4.977  20.223   6.201
 3529POPC   C2B46676   4.973  19.996   6.546
 3529POPC   C3B46677   4.756  19.845   6.906
 3529POPC   C4B46678   4.600  20.189   7.171
 3530POPC   NC346679  36.620  19.914   5.475
 3530POPC   PO446680  37.247  19.910   5.518
 3530POPC   GL146681  36.993  19.754   5.825
 3530POPC   GL246682  36.818  20.053   5.925
 3530POPC   C1A46683  36.939  19.662   6.253
 3530POPC   D2A46684  36.879  19.949   6.566
 3530POPC   C3A46685  36.889  19.702   6.914
 3530POPC   C4A46686  36.811  19.592   7.318
 3530POPC   C1B46687  36.716  20.321   6.254
 3530POPC   C2B46688  36.559  20.376   6.667
 3530POPC   C3B46689  36.768  20.194   7.029
 3530POPC   C4B46690  36.709  20.096   7.463
 3531POPC   NC346691  14.671  21.351   5.401
 3531POPC   PO446692  14.052  21.187   5.276
 3531POPC   GL146693  14.271  21.364   5.723
 3531POPC   GL246694  14.478  21.606   5.814
 3531POPC   C1A46695  14.427  21.273   6.190
 3531POPC   D2A46696  14.346  21.362   6.619
 3531POPC   C3A46697  14.235  21.100   6.964
 3531POPC   C4A46698  14.362  21.199   7.373
 3531POPC   C1B46699  14.667  21.774   6.177
 3531POPC   C2B46700  14.508  21.866   6.573
 3531POPC   C3B46701  14.447  21.697   6.999
 3531POPC   C4B46702  14.406  21.691   7.440
 3532POPC   NC346703  17.090  42.305   5.602
 3532POPC   PO446704  17.742  42.255   5.349
 3532POPC   GL146705  17.575  42.314   5.812
 3532POPC   GL246706  17.309  42.072   5.992
 3532POPC   C1A46707  17.630  42.325   6.274
 3532POPC   D2A46708  17.952  42.334   6.560
 3532POPC   C3A46709  17.912  42.422   6.997
 3532POPC   C4A46710  17.887  42.171   7.372
 3532POPC   C1B46711  17.177  42.161   6.415
 3532POPC   C2B46712  17.371  42.319   6.778
 3532POPC   C3B46713  17.416  42.281   7.208
 3532POPC   C4B46714  17.385  42.191   7.632
 3533POPC   NC346715  27.757   8.689   5.029
 3533POPC   PO446716  27.417   8.732   5.616
 3533POPC   GL146717  27.478   8.893   5.984
 3533POPC   GL246718  27.563   9.275   5.960
 3533POPC   C1A46719  27.746   8.888   6.300
 3533POPC   D2A46720  27.807   8.974   6.699
 3533POPC   C3A46721  27.562   8.756   6.975
 3533POPC   C4A46722  27.738   8.642   7.356
 3533POPC   C1B46723  27.556   9.353   6.408
 3533POPC   C2B46724  27.465   9.362   6.837
 3533POPC   C3B46725  27.681   9.212   7.180
 3533POPC   C4B46726  27.771   9.095   7.573
 3534POPC   NC346727  19.821  24.658   5.686
 3534POPC   PO446728  19.544  24.202   5.253
 3534POPC   GL146729  19.657  24.152   5.783
 3534POPC   GL246730  19.549  24.438   6.083
 3534POPC   C1A46731  19.734  24.005   6.207
 3534POPC   D2A46732  19.500  24.193   6.558
 3534POPC   C3A46733  19.772  24.385   6.833
 3534POPC   C4A46734  19.979  24.268   7.211
 3534POPC   C1B46735  19.925  24.521   6.355
 3534POPC   C2B46736  20.165  24.766   6.662
 3534POPC   C3B46737  19.984  24.775   7.095
 3534POPC   C4B46738  19.527  24.676   7.165
 3535POPC   NC346739   4.859  15.522   5.400
 3535POPC   PO446740   5.139  14.979   5.634
 3535POPC   GL146741   5.111  15.277   5.915
 3535POPC   GL246742   4.755  15.297   5.874
 3535POPC   C1A46743   5.330  15.270   6.324
 3535POPC   D2A46744   5.127  15.365   6.704
 3535POPC   C3A46745   5.198  15.226   7.125
 3535POPC   C4A46746   5.167  15.422   7.514
 3535POPC   C1B46747   4.863  15.032   6.251
 3535POPC   C2B46748   4.746  15.055   6.656
 3535POPC   C3B46749   4.858  14.830   7.000
 3535POPC   C4B46750   4.864  14.674   7.389
 3536POPC   NC346751  13.895   5.718   5.402
 3536POPC   PO446752  13.380   5.292   5.229
 3536POPC   GL146753  13.503   5.599   5.696
 3536POPC   GL246754  13.224   5.680   5.889
 3536POPC   C1A46755  13.612   5.952   6.084
 3536POPC   D2A46756  13.796   6.273   6.427
 3536POPC   C3A46757  14.029   6.112   6.831
 3536POPC   C4A46758  13.892   5.911   7.244
 3536POPC   C1B46759  13.100   5.998   6.211
 3536POPC   C2B46760  13.290   6.120   6.609
 3536POPC   C3B46761  13.551   5.879   6.883
 3536POPC   C4B46762  13.561   5.489   7.172
 3537POPC   NC346763  34.320   0.816   5.432
 3537POPC   PO446764  34.341   0.186   5.239
 3537POPC   GL146765  34.418   0.335   5.751
 3537POPC   GL246766  34.526   0.705   5.867
 3537POPC   C1A46767  34.502   0.339   6.200
 3537POPC   D2A46768  34.314   0.520   6.563
 3537POPC   C3A46769  34.486   0.551   6.950
 3537POPC   C4A46770  34.336   0.479   7.368
 3537POPC   C1B46771  34.631   0.835   6.290
 3537POPC   C2B46772  34.846   0.760   6.660
 3537POPC   C3B46773  34.819   0.891   7.111
 3537POPC   C4B46774  34.728   0.754   7.557
 3538POPC   NC346775  11.596   9.497   5.461
 3538POPC   PO446776  11.548   8.798   5.545
 3538POPC   GL146777  11.219   8.874   5.769
 3538POPC   GL246778  11.206   9.240   5.691
 3538POPC   C1A46779  11.136   8.753   6.174
 3538POPC   D2A46780  11.239   8.941   6.556
 3538POPC   C3A46781  11.273   8.727   6.924
 3538POPC   C4A46782  11.157   8.848   7.344
 3538POPC   C1B46783  11.219   9.298   6.126
 3538POPC   C2B46784  11.307   9.447   6.537
 3538POPC   C3B46785  11.376   9.253   6.943
 3538POPC   C4B46786  11.459   9.254   7.371
 3539POPC   NC346787  36.242  33.646   5.451
 3539POPC   PO446788  35.709  33.828   5.630
 3539POPC   GL146789  36.037  33.894   5.877
 3539POPC   GL246790  36.388  33.982   5.858
 3539POPC   C1A46791  35.995  33.877   6.276
 3539POPC   D2A46792  36.153  33.642   6.544
 3539POPC   C3A46793  36.067  33.806   6.849
 3539POPC   C4A46794  36.042  33.620   7.249
 3539POPC   C1B46795  36.494  33.649   6.165
 3539POPC   C2B46796  36.681  33.669   6.601
 3539POPC   C3B46797  36.483  33.568   6.989
 3539POPC   C4B46798  36.501  33.775   7.415
 3540POPC   NC346799  36.384  13.267   5.470
 3540POPC   PO446800  35.914  13.741   5.247
 3540POPC   GL146801  35.961  13.818   5.718
 3540POPC   GL246802  36.320  13.961   5.740
 3540POPC   C1A46803  35.927  13.610   6.131
 3540POPC   D2A46804  35.838  13.325   6.514
 3540POPC   C3A46805  35.906  13.558   6.907
 3540POPC   C4A46806  36.067  13.464   7.326
 3540POPC   C1B46807  36.449  13.682   6.101
 3540POPC   C2B46808  36.272  13.616   6.518
 3540POPC   C3B46809  36.428  13.553   6.921
 3540POPC   C4B46810  36.509  13.833   7.245
 3541POPC   NC346811   2.597  26.643   5.419
 3541POPC   PO446812   3.322  26.835   5.401
 3541POPC   GL146813   3.033  26.704   5.711
 3541POPC   GL246814   2.787  26.967   5.805
 3541POPC   C1A46815   2.966  26.660   6.176
 3541POPC   D2A46816   2.933  27.003   6.487
 3541POPC   C3A46817   2.867  26.887   6.913
 3541POPC   C4A46818   3.060  26.956   7.293
 3541POPC   C1B46819   2.499  26.875   6.170
 3541POPC   C2B46820   2.434  27.100   6.574
 3541POPC   C3B46821   2.365  27.133   7.012
 3541POPC   C4B46822   2.546  26.877   7.351
 3542POPC   NC346823   2.159   8.024   5.296
 3542POPC   PO446824   1.615   8.497   5.150
 3542POPC   GL146825   1.718   8.345   5.639
 3542POPC   GL246826   2.069   8.262   5.749
 3542POPC   C1A46827   1.688   8.311   6.134
 3542POPC   D2A46828   1.906   8.433   6.576
 3542POPC   C3A46829   1.784   8.279   6.999
 3542POPC   C4A46830   1.926   7.890   7.174
 3542POPC   C1B46831   2.155   8.105   6.168
 3542POPC   C2B46832   2.326   7.840   6.514
 3542POPC   C3B46833   2.403   7.969   6.926
 3542POPC   C4B46834   2.272   8.321   7.142
 3543POPC   NC346835  12.418   4.432   5.367
 3543POPC   PO446836  12.999   4.431   5.076
 3543POPC   GL146837  12.915   4.382   5.589
 3543POPC   GL246838  12.654   4.110   5.740
 3543POPC   C1A46839  12.927   4.486   6.090
 3543POPC   D2A46840  13.021   4.232   6.525
 3543POPC   C3A46841  13.166   4.281   6.971
 3543POPC   C4A46842  12.994   3.903   7.219
 3543POPC   C1B46843  12.600   4.095   6.223
 3543POPC   C2B46844  12.598   4.497   6.496
 3543POPC   C3B46845  12.765   4.593   6.888
 3543POPC   C4B46846  12.668   4.321   7.200
 3544POPC   NC346847  29.448  20.449   5.594
 3544POPC   PO446848  29.794  20.946   5.333
 3544POPC   GL146849  29.936  20.913   5.738
 3544POPC   GL246850  29.940  20.562   5.766
 3544POPC   C1A46851  30.060  20.905   6.166
 3544POPC   D2A46852  30.284  20.867   6.564
 3544POPC   C3A46853  30.121  20.706   6.921
 3544POPC   C4A46854  29.838  20.859   7.233
 3544POPC   C1B46855  30.025  20.385   6.161
 3544POPC   C2B46856  29.939  20.197   6.558
 3544POPC   C3B46857  30.035  20.182   6.965
 3544POPC   C4B46858  29.990  20.405   7.345
 3545POPC   NC346859  11.649   5.866   5.536
 3545POPC   PO446860  12.207   6.191   5.393
 3545POPC   GL146861  12.216   5.850   5.732
 3545POPC   GL246862  11.954   5.577   5.824
 3545POPC   C1A46863  12.105   5.955   6.171
 3545POPC   D2A46864  12.142   5.812   6.589
 3545POPC   C3A46865  11.953   6.061   6.901
 3545POPC   C4A46866  12.195   5.891   7.206
 3545POPC   C1B46867  11.709   5.564   6.216
 3545POPC   C2B46868  11.654   5.701   6.664
 3545POPC   C3B46869  11.835   5.533   7.018
 3545POPC   C4B46870  11.600   5.304   7.320
 3546POPC   NC346871  34.504  38.737   5.562
 3546POPC   PO446872  34.539  39.294   5.189
 3546POPC   GL146873  34.462  39.286   5.650
 3546POPC   GL246874  34.230  39.040   5.854
 3546POPC   C1A46875  34.576  39.351   6.085
 3546POPC   D2A46876  34.425  39.448   6.499
 3546POPC   C3A46877  34.544  39.290   6.901
 3546POPC   C4A46878  34.681  39.263   7.329
 3546POPC   C1B46879  34.323  38.966   6.302
 3546POPC   C2B46880  34.516  38.831   6.690
 3546POPC   C3B46881  34.464  38.829   7.141
 3546POPC   C4B46882  34.384  38.921   7.569
 3547POPC   NC346883  31.852  30.701   5.327
 3547POPC   PO446884  31.406  31.120   5.211
 3547POPC   GL146885  31.426  30.840   5.610
 3547POPC   GL246886  31.725  30.930   5.788
 3547POPC   C1A46887  31.319  30.752   6.096
 3547POPC   D2A46888  31.418  30.640   6.581
 3547POPC   C3A46889  31.226  30.636   7.047
 3547POPC   C4A46890  31.187  30.354   7.446
 3547POPC   C1B46891  31.846  30.851   6.238
 3547POPC   C2B46892  31.924  30.623   6.645
 3547POPC   C3B46893  31.756  30.746   7.040
 3547POPC   C4B46894  31.752  31.143   7.225
 3548POPC   NC346895   8.759  24.924   5.365
 3548POPC   PO446896   9.075  25.443   5.587
 3548POPC   GL146897   8.959  25.277   5.919
 3548POPC   GL246898   9.011  24.960   5.844
 3548POPC   C1A46899   8.925  25.318   6.334
 3548POPC   D2A46900   9.162  25.495   6.636
 3548POPC   C3A46901   8.934  25.554   7.027
 3548POPC   C4A46902   8.577  25.292   7.095
 3548POPC   C1B46903   9.091  24.739   6.220
 3548POPC   C2B46904   9.184  24.939   6.585
 3548POPC   C3B46905   9.052  25.069   6.967
 3548POPC   C4B46906   8.891  25.021   7.378
 3549POPC   NC346907  13.679  36.394   5.230
 3549POPC   PO446908  13.438  35.820   5.480
 3549POPC   GL146909  13.526  35.982   5.886
 3549POPC   GL246910  13.377  36.304   5.907
 3549POPC   C1A46911  13.429  36.023   6.342
 3549POPC   D2A46912  13.167  36.085   6.697
 3549POPC   C3A46913  13.407  36.150   7.049
 3549POPC   C4A46914  13.763  36.092   7.334
 3549POPC   C1B46915  13.698  36.441   6.228
 3549POPC   C2B46916  13.700  36.435   6.674
 3549POPC   C3B46917  13.728  36.550   7.097
 3549POPC   C4B46918  13.429  36.480   7.446
 3550POPC   NC346919  27.975  34.033   5.289
 3550POPC   PO446920  28.605  33.939   5.594
 3550POPC   GL146921  28.371  33.914   5.923
 3550POPC   GL246922  28.152  33.667   5.790
 3550POPC   C1A46923  28.430  34.020   6.330
 3550POPC   D2A46924  28.230  33.826   6.634
 3550POPC   C3A46925  28.487  33.806   6.938
 3550POPC   C4A46926  28.530  34.113   7.237
 3550POPC   C1B46927  28.051  33.557   6.202
 3550POPC   C2B46928  27.903  33.428   6.611
 3550POPC   C3B46929  28.016  33.573   7.034
 3550POPC   C4B46930  27.978  33.374   7.414
 3551POPC   NC346931  22.258  40.121   5.348
 3551POPC   PO446932  21.840  39.660   5.244
 3551POPC   GL146933  21.960  39.848   5.690
 3551POPC   GL246934  21.946  40.229   5.763
 3551POPC   C1A46935  22.110  39.859   6.152
 3551POPC   D2A46936  21.962  40.034   6.570
 3551POPC   C3A46937  22.111  39.911   6.998
 3551POPC   C4A46938  22.385  39.886   7.391
 3551POPC   C1B46939  22.096  40.374   6.185
 3551POPC   C2B46940  22.317  40.400   6.591
 3551POPC   C3B46941  22.067  40.479   6.960
 3551POPC   C4B46942  22.035  40.274   7.343
 3552POPC   NC346943   1.824  35.947   5.401
 3552POPC   PO446944   1.260  36.194   5.393
 3552POPC   GL146945   1.088  36.053   5.789
 3552POPC   GL246946   1.315  35.783   5.886
 3552POPC   C1A46947   0.878  35.854   6.158
 3552POPC   D2A46948   0.766  36.042   6.566
 3552POPC   C3A46949   0.836  35.903   6.974
 3552POPC   C4A46950   1.008  36.063   7.366
 3552POPC   C1B46951   1.353  36.079   6.210
 3552POPC   C2B46952   1.298  36.150   6.612
 3552POPC   C3B46953   1.347  35.975   6.998
 3552POPC   C4B46954   1.510  36.105   7.375
 3553POPC   NC346955  11.736  34.329   5.438
 3553POPC   PO446956  11.226  34.737   5.682
 3553POPC   GL146957  11.393  34.383   5.865
 3553POPC   GL246958  11.091  34.276   6.031
 3553POPC   C1A46959  11.563  34.340   6.274
 3553POPC   D2A46960  11.694  34.705   6.540
 3553POPC   C3A46961  11.631  34.613   6.985
 3553POPC   C4A46962  11.560  34.177   7.143
 3553POPC   C1B46963  11.123  34.604   6.330
 3553POPC   C2B46964  11.025  34.373   6.679
 3553POPC   C3B46965  11.130  34.457   7.056
 3553POPC   C4B46966  11.194  34.881   7.127
 3554POPC   NC346967  25.855   9.468   5.129
 3554POPC   PO446968  26.228  10.006   5.278
 3554POPC   GL146969  26.208   9.850   5.749
 3554POPC   GL246970  25.978  10.148   5.858
 3554POPC   C1A46971  26.363   9.820   6.216
 3554POPC   D2A46972  26.164   9.794   6.644
 3554POPC   C3A46973  26.307   9.601   7.048
 3554POPC   C4A46974  26.470   9.486   7.478
 3554POPC   C1B46975  25.878  10.049   6.273
 3554POPC   C2B46976  25.708  10.056   6.675
 3554POPC   C3B46977  25.749   9.698   6.933
 3554POPC   C4B46978  25.889   9.614   7.345
 3555POPC   NC346979  21.271  21.953   5.062
 3555POPC   PO446980  21.235  22.466   5.569
 3555POPC   GL146981  21.326  22.208   5.926
 3555POPC   GL246982  21.557  21.918   5.950
 3555POPC   C1A46983  21.432  22.239   6.331
 3555POPC   D2A46984  21.235  22.289   6.704
 3555POPC   C3A46985  21.544  22.382   7.004
 3555POPC   C4A46986  21.687  22.139   7.350
 3555POPC   C1B46987  21.235  21.747   6.253
 3555POPC   C2B46988  21.129  21.761   6.710
 3555POPC   C3B46989  21.274  21.953   7.108
 3555POPC   C4B46990  21.264  21.997   7.607
 3556POPC   NC346991  36.136  20.162   5.379
 3556POPC   PO446992  36.395  19.499   5.396
 3556POPC   GL146993  36.174  19.628   5.769
 3556POPC   GL246994  36.264  19.947   5.843
 3556POPC   C1A46995  35.933  19.726   6.171
 3556POPC   D2A46996  35.709  19.687   6.563
 3556POPC   C3A46997  35.952  19.773   6.910
 3556POPC   C4A46998  35.858  19.942   7.319
 3556POPC   C1B46999  36.440  19.860   6.274
 3556POPC   C2B47000  36.414  19.881   6.745
 3556POPC   C3B47001  36.364  19.836   7.199
 3556POPC   C4B47002  36.244  20.043   7.607
 3557POPC   NC347003  19.597  22.097   5.686
 3557POPC   PO447004  20.254  22.199   5.493
 3557POPC   GL147005  20.008  22.389   5.859
 3557POPC   GL247006  19.973  22.077   6.023
 3557POPC   C1A47007  19.725  22.484   6.228
 3557POPC   D2A47008  19.915  22.249   6.540
 3557POPC   C3A47009  19.780  22.150   6.945
 3557POPC   C4A47010  19.549  22.419   7.238
 3557POPC   C1B47011  20.186  21.811   6.303
 3557POPC   C2B47012  20.235  21.895   6.718
 3557POPC   C3B47013  20.135  21.676   7.026
 3557POPC   C4B47014  19.891  21.829   7.325
 3558POPC   NC347015  42.070  40.022   5.112
 3558POPC   PO447016  41.599  40.242   5.537
 3558POPC   GL147017  41.682  40.061   5.929
 3558POPC   GL247018  41.684  39.702   5.865
 3558POPC   C1A47019  41.598  40.160   6.385
 3558POPC   D2A47020  41.698  40.070   6.843
 3558POPC   C3A47021  41.554  40.132   7.270
 3558POPC   C4A47022  41.718  40.491   7.596
 3558POPC   C1B47023  41.392  39.716   6.235
 3558POPC   C2B47024  41.267  39.849   6.666
 3558POPC   C3B47025  41.219  39.696   7.087
 3558POPC   C4B47026  41.308  39.772   7.574
 3559POPC   NC347027   7.600   4.896   5.376
 3559POPC   PO447028   7.019   5.122   5.618
 3559POPC   GL147029   7.263   5.121   5.958
 3559POPC   GL247030   7.618   5.068   5.873
 3559POPC   C1A47031   7.333   5.424   6.235
 3559POPC   D2A47032   7.545   5.414   6.625
 3559POPC   C3A47033   7.432   5.322   7.023
 3559POPC   C4A47034   7.569   5.276   7.450
 3559POPC   C1B47035   7.690   5.047   6.319
 3559POPC   C2B47036   7.483   4.874   6.690
 3559POPC   C3B47037   7.536   4.840   7.136
 3559POPC   C4B47038   7.661   4.787   7.589
 3560POPC   NC347039  38.664  14.695   5.129
 3560POPC   PO447040  38.171  14.282   5.234
 3560POPC   GL147041  38.132  14.486   5.638
 3560POPC   GL247042  38.503  14.535   5.607
 3560POPC   C1A47043  38.160  14.459   6.106
 3560POPC   D2A47044  38.184  14.188   6.473
 3560POPC   C3A47045  38.298  14.382   6.858
 3560POPC   C4A47046  38.371  14.176   7.238
 3560POPC   C1B47047  38.630  14.625   6.015
 3560POPC   C2B47048  38.573  14.591   6.444
 3560POPC   C3B47049  38.750  14.691   6.808
 3560POPC   C4B47050  38.777  14.444   7.149
 3561POPC   NC347051  42.986   5.618   5.439
 3561POPC   PO447052  43.204   6.250   5.412
 3561POPC   GL147053  43.227   6.086   5.824
 3561POPC   GL247054  43.587   6.113   5.754
 3561POPC   C1A47055  43.101   5.992   6.287
 3561POPC   D2A47056  42.778   5.964   6.617
 3561POPC   C3A47057  42.824   5.764   7.014
 3561POPC   C4A47058  42.970   5.931   7.327
 3561POPC   C1B47059  43.537   6.245   6.190
 3561POPC   C2B47060  43.532   6.073   6.598
 3561POPC   C3B47061  43.300   6.028   6.956
 3561POPC   C4B47062  43.449   6.122   7.394
 3562POPC   NC347063   4.440   9.219   5.447
 3562POPC   PO447064   4.043   8.667   5.412
 3562POPC   GL147065   4.215   8.937   5.780
 3562POPC   GL247066   4.578   8.918   5.893
 3562POPC   C1A47067   4.105   9.121   6.172
 3562POPC   D2A47068   4.087   8.975   6.571
 3562POPC   C3A47069   4.111   9.225   6.938
 3562POPC   C4A47070   3.978   8.951   7.226
 3562POPC   C1B47071   4.609   8.924   6.381
 3562POPC   C2B47072   4.529   8.930   6.842
 3562POPC   C3B47073   4.496   9.046   7.289
 3562POPC   C4B47074   4.653   9.257   7.701
 3563POPC   NC347075  19.194   8.875   5.325
 3563POPC   PO447076  18.595   8.616   5.441
 3563POPC   GL147077  18.847   8.941   5.771
 3563POPC   GL247078  19.241   9.026   5.798
 3563POPC   C1A47079  18.984   9.094   6.217
 3563POPC   D2A47080  19.199   8.975   6.584
 3563POPC   C3A47081  19.098   8.911   7.012
 3563POPC   C4A47082  19.374   8.733   7.359
 3563POPC   C1B47083  19.425   9.347   6.081
 3563POPC   C2B47084  19.325   9.448   6.515
 3563POPC   C3B47085  19.290   9.382   6.950
 3563POPC   C4B47086  19.188   9.340   7.402
 3564POPC   NC347087  30.327   0.016   5.468
 3564POPC   PO447088  29.806  44.565   5.533
 3564POPC   GL147089  29.867  44.696   5.926
 3564POPC   GL247090  30.022   0.007   5.893
 3564POPC   C1A47091  30.138  44.553   6.255
 3564POPC   D2A47092  30.238  44.432   6.667
 3564POPC   C3A47093  30.039  44.587   7.032
 3564POPC   C4A47094  29.620  44.659   7.240
 3564POPC   C1B47095  29.853   0.095   6.313
 3564POPC   C2B47096  29.896   0.059   6.763
 3564POPC   C3B47097  30.076   0.072   7.169
 3564POPC   C4B47098  30.025  44.767   7.535
 3565POPC   NC347099   6.503  23.103   5.181
 3565POPC   PO447100   6.856  22.641   5.466
 3565POPC   GL147101   6.739  23.015   5.770
 3565POPC   GL247102   6.415  23.160   5.720
 3565POPC   C1A47103   6.615  23.146   6.205
 3565POPC   D2A47104   6.706  22.871   6.559
 3565POPC   C3A47105   6.689  23.058   6.960
 3565POPC   C4A47106   6.598  23.253   7.385
 3565POPC   C1B47107   6.342  22.765   5.994
 3565POPC   C2B47108   6.222  22.683   6.442
 3565POPC   C3B47109   6.287  22.738   6.890
 3565POPC   C4B47110   6.487  22.747   7.304
 3566POPC   NC347111  23.177   5.380   5.397
 3566POPC   PO447112  22.651   4.881   5.539
 3566POPC   GL147113  22.951   5.090   5.773
 3566POPC   GL247114  23.170   4.879   5.699
 3566POPC   C1A47115  22.961   5.158   6.203
 3566POPC   D2A47116  22.632   5.120   6.514
 3566POPC   C3A47117  22.670   5.404   6.839
 3566POPC   C4A47118  22.744   5.312   7.260
 3566POPC   C1B47119  23.305   4.776   6.115
 3566POPC   C2B47120  23.186   4.803   6.549
 3566POPC   C3B47121  22.994   4.996   6.913
 3566POPC   C4B47122  23.154   4.950   7.335
 3567POPC   NC347123  28.833  10.085   5.438
 3567POPC   PO447124  29.310   9.562   5.351
 3567POPC   GL147125  28.957   9.643   5.701
 3567POPC   GL247126  28.903   9.964   5.920
 3567POPC   C1A47127  28.988   9.520   6.152
 3567POPC   D2A47128  29.283   9.412   6.513
 3567POPC   C3A47129  29.259   9.715   6.871
 3567POPC   C4A47130  28.990   9.693   7.242
 3567POPC   C1B47131  29.231  10.003   6.263
 3567POPC   C2B47132  29.276  10.231   6.667
 3567POPC   C3B47133  29.040  10.172   7.029
 3567POPC   C4B47134  28.931  10.232   7.441
 3568POPC   NC347135  26.166  39.247   5.392
 3568POPC   PO447136  25.645  39.565   5.173
 3568POPC   GL147137  25.709  39.458   5.671
 3568POPC   GL247138  25.900  39.128   5.817
 3568POPC   C1A47139  25.746  39.480   6.151
 3568POPC   D2A47140  25.926  39.149   6.472
 3568POPC   C3A47141  25.843  39.228   6.942
 3568POPC   C4A47142  25.893  39.280   7.419
 3568POPC   C1B47143  26.249  39.357   6.099
 3568POPC   C2B47144  26.319  39.462   6.563
 3568POPC   C3B47145  26.373  39.177   6.931
 3568POPC   C4B47146  26.582  39.305   7.277
 3569POPC   NC347147   2.181   0.346   5.478
 3569POPC   PO447148   1.521   0.045   5.628
 3569POPC   GL147149   1.841   0.308   5.851
 3569POPC   GL247150   2.131   0.545   5.936
 3569POPC   C1A47151   2.030   0.156   6.231
 3569POPC   D2A47152   1.836   0.037   6.620
 3569POPC   C3A47153   2.045   0.313   6.895
 3569POPC   C4A47154   2.232   0.260   7.280
 3569POPC   C1B47155   1.934   0.758   6.309
 3569POPC   C2B47156   2.013   0.826   6.772
 3569POPC   C3B47157   2.127   0.747   7.208
 3569POPC   C4B47158   2.342   0.649   7.620
 3570POPC   NC347159  20.589  18.176   5.411
 3570POPC   PO447160  20.781  18.771   5.529
 3570POPC   GL147161  20.590  18.631   5.904
 3570POPC   GL247162  20.257  18.617   5.806
 3570POPC   C1A47163  20.495  18.437   6.325
 3570POPC   D2A47164  20.610  18.268   6.757
 3570POPC   C3A47165  20.889  18.528   7.072
 3570POPC   C4A47166  21.111  18.397   7.499
 3570POPC   C1B47167  20.039  18.666   6.210
 3570POPC   C2B47168  20.116  18.609   6.665
 3570POPC   C3B47169  20.337  18.545   7.074
 3570POPC   C4B47170  20.345  18.100   7.282
 3571POPC   NC347171  15.662  35.642   5.329
 3571POPC   PO447172  16.203  35.273   5.457
 3571POPC   GL147173  15.946  35.270   5.805
 3571POPC   GL247174  15.600  35.347   5.755
 3571POPC   C1A47175  16.097  35.391   6.218
 3571POPC   D2A47176  16.081  35.165   6.596
 3571POPC   C3A47177  16.155  35.429   6.934
 3571POPC   C4A47178  16.111  35.160   7.262
 3571POPC   C1B47179  15.591  35.364   6.213
 3571POPC   C2B47180  15.747  35.537   6.608
 3571POPC   C3B47181  15.658  35.313   6.980
 3571POPC   C4B47182  15.627  35.047   7.337
 3572POPC   NC347183  18.572   2.995   5.415
 3572POPC   PO447184  17.954   2.686   5.263
 3572POPC   GL147185  17.995   2.899   5.719
 3572POPC   GL247186  18.263   2.751   5.757
 3572POPC   C1A47187  18.084   3.101   6.156
 3572POPC   D2A47188  18.005   3.257   6.609
 3572POPC   C3A47189  18.194   3.053   6.987
 3572POPC   C4A47190  18.554   2.925   7.241
 3572POPC   C1B47191  18.371   2.691   6.175
 3572POPC   C2B47192  18.465   2.907   6.529
 3572POPC   C3B47193  18.517   2.608   6.848
 3572POPC   C4B47194  18.712   2.415   7.198
 3573POPC   NC347195  24.898  40.030   5.467
 3573POPC   PO447196  24.263  40.078   5.234
 3573POPC   GL147197  24.462  39.982   5.723
 3573POPC   GL247198  24.800  39.841   5.911
 3573POPC   C1A47199  24.372  39.803   6.143
 3573POPC   D2A47200  24.679  39.836   6.505
 3573POPC   C3A47201  24.496  39.785   6.932
 3573POPC   C4A47202  24.645  39.825   7.368
 3573POPC   C1B47203  25.054  40.088   6.203
 3573POPC   C2B47204  25.125  40.205   6.622
 3573POPC   C3B47205  24.887  40.108   6.964
 3573POPC   C4B47206  24.855  40.283   7.324
 3574POPC   NC347207  44.947  17.304   5.489
 3574POPC   PO447208   0.598  17.496   5.573
 3574POPC   GL147209   0.313  17.312   5.878
 3574POPC   GL247210   0.002  17.541   5.929
 3574POPC   C1A47211   0.366  17.249   6.315
 3574POPC   D2A47212   0.193  17.220   6.705
 3574POPC   C3A47213   0.395  17.157   7.061
 3574POPC   C4A47214   0.437  17.423   7.393
 3574POPC   C1B47215   0.299  17.793   6.119
 3574POPC   C2B47216   0.468  17.713   6.497
 3574POPC   C3B47217   0.426  17.655   6.911
 3574POPC   C4B47218   0.250  17.853   7.235
 3575POPC   NC347219  36.651  14.115   5.353
 3575POPC   PO447220  37.223  14.448   5.507
 3575POPC   GL147221  36.877  14.332   5.755
 3575POPC   GL247222  36.933  14.572   5.992
 3575POPC   C1A47223  36.679  14.137   6.128
 3575POPC   D2A47224  36.721  13.923   6.558
 3575POPC   C3A47225  36.773  14.199   6.974
 3575POPC   C4A47226  36.620  14.585   7.242
 3575POPC   C1B47227  37.198  14.216   6.153
 3575POPC   C2B47228  37.265  14.026   6.548
 3575POPC   C3B47229  37.289  14.182   6.958
 3575POPC   C4B47230  37.243  14.312   7.369
 3576POPC   NC347231   4.696  20.747   5.623
 3576POPC   PO447232   4.040  20.601   5.593
 3576POPC   GL147233   4.275  20.692   5.929
 3576POPC   GL247234   4.313  21.034   5.827
 3576POPC   C1A47235   4.519  20.448   6.235
 3576POPC   D2A47236   4.523  20.215   6.639
 3576POPC   C3A47237   4.172  20.259   6.871
 3576POPC   C4A47238   4.082  20.494   7.213
 3576POPC   C1B47239   4.407  21.013   6.293
 3576POPC   C2B47240   4.369  20.717   6.650
 3576POPC   C3B47241   4.561  20.678   7.040
 3576POPC   C4B47242   4.626  21.108   7.214
 3577POPC   NC347243  43.315  21.881   5.409
 3577POPC   PO447244  42.968  22.441   5.403
 3577POPC   GL147245  42.969  22.283   5.809
 3577POPC   GL247246  43.117  21.971   5.879
 3577POPC   C1A47247  42.934  22.387   6.234
 3577POPC   D2A47248  42.998  22.299   6.682
 3577POPC   C3A47249  42.780  22.451   7.054
 3577POPC   C4A47250  42.785  22.344   7.499
 3577POPC   C1B47251  43.420  22.204   6.108
 3577POPC   C2B47252  43.536  22.347   6.514
 3577POPC   C3B47253  43.414  22.108   6.882
 3577POPC   C4B47254  43.154  22.130   7.222
 3578POPC   NC347255  16.635  38.110   5.268
 3578POPC   PO447256  16.607  38.750   5.447
 3578POPC   GL147257  16.599  38.527   5.803
 3578POPC   GL247258  16.500  38.174   5.769
 3578POPC   C1A47259  16.690  38.620   6.229
 3578POPC   D2A47260  16.491  38.454   6.583
 3578POPC   C3A47261  16.585  38.633   6.958
 3578POPC   C4A47262  16.781  38.516   7.300
 3578POPC   C1B47263  16.903  38.162   6.005
 3578POPC   C2B47264  16.902  38.180   6.437
 3578POPC   C3B47265  16.869  38.194   6.895
 3578POPC   C4B47266  16.494  38.102   7.165
 3579POPC   NC347267  43.387   7.254   5.337
 3579POPC   PO447268  42.848   7.214   5.674
 3579POPC   GL147269  43.116   7.534   5.827
 3579POPC   GL247270  42.852   7.809   5.904
 3579POPC   C1A47271  43.391   7.505   6.185
 3579POPC   D2A47272  43.243   7.218   6.495
 3579POPC   C3A47273  43.283   7.308   6.931
 3579POPC   C4A47274  42.941   7.226   7.199
 3579POPC   C1B47275  42.900   7.615   6.310
 3579POPC   C2B47276  43.147   7.716   6.666
 3579POPC   C3B47277  43.010   7.760   7.112
 3579POPC   C4B47278  42.819   7.914   7.503
 3580POPC   NC347279   2.758   3.482   5.085
 3580POPC   PO447280   2.687   3.811   5.659
 3580POPC   GL147281   2.637   3.466   5.947
 3580POPC   GL247282   2.320   3.219   5.891
 3580POPC   C1A47283   2.855   3.567   6.333
 3580POPC   D2A47284   2.972   3.801   6.723
 3580POPC   C3A47285   2.910   3.575   7.132
 3580POPC   C4A47286   2.744   3.183   7.268
 3580POPC   C1B47287   2.506   3.180   6.346
 3580POPC   C2B47288   2.673   3.329   6.733
 3580POPC   C3B47289   2.381   3.432   7.030
 3580POPC   C4B47290   2.249   3.190   7.433
 3581POPC   NC347291  37.507  27.778   5.137
 3581POPC   PO447292  38.027  27.423   5.403
 3581POPC   GL147293  37.671  27.676   5.679
 3581POPC   GL247294  37.392  27.453   5.836
 3581POPC   C1A47295  37.599  27.807   6.151
 3581POPC   D2A47296  37.734  27.651   6.588
 3581POPC   C3A47297  37.560  27.735   7.017
 3581POPC   C4A47298  37.730  27.616   7.427
 3581POPC   C1B47299  37.432  27.298   6.294
 3581POPC   C2B47300  37.377  27.309   6.781
 3581POPC   C3B47301  37.368  27.267   7.255
 3581POPC   C4B47302  37.521  27.270   7.716
 3582POPC   NC347303  25.940   6.944   5.567
 3582POPC   PO447304  26.457   6.527   5.461
 3582POPC   GL147305  26.269   6.623   5.822
 3582POPC   GL247306  25.936   6.490   5.838
 3582POPC   C1A47307  26.124   6.779   6.218
 3582POPC   D2A47308  25.960   6.716   6.605
 3582POPC   C3A47309  26.036   7.007   6.892
 3582POPC   C4A47310  25.777   7.233   7.154
 3582POPC   C1B47311  25.752   6.304   6.209
 3582POPC   C2B47312  25.533   6.402   6.616
 3582POPC   C3B47313  25.761   6.376   6.998
 3582POPC   C4B47314  26.185   6.513   7.033
 3583POPC   NC347315  22.339   4.762   5.229
 3583POPC   PO447316  21.796   4.372   5.436
 3583POPC   GL147317  21.974   4.319   5.835
 3583POPC   GL247318  22.225   4.572   5.803
 3583POPC   C1A47319  21.900   4.234   6.278
 3583POPC   D2A47320  21.837   4.184   6.716
 3583POPC   C3A47321  21.975   4.466   7.055
 3583POPC   C4A47322  21.845   4.402   7.535
 3583POPC   C1B47323  22.387   4.326   6.169
 3583POPC   C2B47324  22.307   4.357   6.608
 3583POPC   C3B47325  22.430   4.193   6.999
 3583POPC   C4B47326  22.319   4.260   7.412
 3584POPC   NC347327  14.760  11.121   5.595
 3584POPC   PO447328  14.552  11.729   5.244
 3584POPC   GL147329  14.452  11.582   5.675
 3584POPC   GL247330  14.114  11.420   5.710
 3584POPC   C1A47331  14.544  11.502   6.130
 3584POPC   D2A47332  14.607  11.541   6.591
 3584POPC   C3A47333  14.568  11.273   6.955
 3584POPC   C4A47334  14.485  11.347   7.398
 3584POPC   C1B47335  14.106  11.247   6.142
 3584POPC   C2B47336  14.302  11.046   6.542
 3584POPC   C3B47337  14.110  11.038   6.978
 3584POPC   C4B47338  13.962  11.372   7.256
 3585POPC   NC347339  36.798  38.720   5.410
 3585POPC   PO447340  37.153  38.174   5.616
 3585POPC   GL147341  36.857  38.386   5.838
 3585POPC   GL247342  36.933  38.734   5.898
 3585POPC   C1A47343  36.733  38.383   6.257
 3585POPC   D2A47344  36.697  38.149   6.647
 3585POPC   C3A47345  36.620  38.413   7.022
 3585POPC   C4A47346  36.682  38.304   7.483
 3585POPC   C1B47347  36.903  38.858   6.334
 3585POPC   C2B47348  37.003  38.585   6.685
 3585POPC   C3B47349  37.119  38.488   7.105
 3585POPC   C4B47350  36.981  38.751   7.436
 3586POPC   NC347351  22.642   4.402   5.579
 3586POPC   PO447352  23.278   4.108   5.443
 3586POPC   GL147353  23.134   4.377   5.821
 3586POPC   GL247354  22.843   4.610   5.977
 3586POPC   C1A47355  23.130   4.284   6.273
 3586POPC   D2A47356  23.155   3.939   6.583
 3586POPC   C3A47357  23.026   4.144   6.932
 3586POPC   C4A47358  23.228   4.556   7.005
 3586POPC   C1B47359  22.726   4.636   6.390
 3586POPC   C2B47360  22.714   4.593   6.825
 3586POPC   C3B47361  22.789   4.478   7.244
 3586POPC   C4B47362  22.797   4.059   7.387
 3587POPC   NC347363  32.388  22.367   5.155
 3587POPC   PO447364  31.860  21.894   5.366
 3587POPC   GL147365  32.190  22.145   5.638
 3587POPC   GL247366  31.954  22.068   5.892
 3587POPC   C1A47367  32.359  22.315   6.088
 3587POPC   D2A47368  32.258  22.475   6.551
 3587POPC   C3A47369  32.446  22.335   6.978
 3587POPC   C4A47370  32.497  22.159   7.428
 3587POPC   C1B47371  31.939  22.117   6.344
 3587POPC   C2B47372  31.960  22.044   6.780
 3587POPC   C3B47373  32.000  22.082   7.205
 3587POPC   C4B47374  32.128  21.806   7.507
 3588POPC   NC347375  17.982  41.100   5.353
 3588POPC   PO447376  18.399  40.676   5.370
 3588POPC   GL147377  18.091  40.751   5.715
 3588POPC   GL247378  18.239  41.101   5.808
 3588POPC   C1A47379  18.039  40.802   6.160
 3588POPC   D2A47380  18.320  40.585   6.417
 3588POPC   C3A47381  18.216  40.547   6.836
 3588POPC   C4A47382  17.971  40.644   7.180
 3588POPC   C1B47383  18.499  41.064   6.206
 3588POPC   C2B47384  18.527  40.977   6.660
 3588POPC   C3B47385  18.206  41.070   6.938
 3588POPC   C4B47386  18.447  40.873   7.216
 3589POPC   NC347387   8.940  44.036   5.288
 3589POPC   PO447388   9.521  44.136   5.497
 3589POPC   GL147389   9.142  44.008   5.766
 3589POPC   GL247390   9.254  43.724   5.903
 3589POPC   C1A47391   8.812  43.814   6.116
 3589POPC   D2A47392   8.928  43.736   6.579
 3589POPC   C3A47393   8.735  43.901   6.994
 3589POPC   C4A47394   8.731  44.003   7.465
 3589POPC   C1B47395   9.220  44.057   6.272
 3589POPC   C2B47396   9.365  43.982   6.687
 3589POPC   C3B47397   9.232  43.912   7.107
 3589POPC   C4B47398   9.030  43.550   7.268
 3590POPC   NC347399  34.164  36.884   5.389
 3590POPC   PO447400  34.779  37.207   5.482
 3590POPC   GL147401  34.623  36.982   5.863
 3590POPC   GL247402  34.367  36.720   5.832
 3590POPC   C1A47403  34.409  37.051   6.250
 3590POPC   D2A47404  34.307  37.297   6.599
 3590POPC   C3A47405  34.442  37.017   6.889
 3590POPC   C4A47406  34.638  36.969   7.225
 3590POPC   C1B47407  34.414  36.534   6.237
 3590POPC   C2B47408  34.631  36.638   6.618
 3590POPC   C3B47409  34.555  36.475   7.057
 3590POPC   C4B47410  34.337  36.618   7.437
 3591POPC   NC347411  29.362  38.081   5.332
 3591POPC   PO447412  28.727  37.812   5.577
 3591POPC   GL147413  29.170  37.689   5.676
 3591POPC   GL247414  29.257  37.967   5.912
 3591POPC   C1A47415  29.373  37.498   6.052
 3591POPC   D2A47416  29.388  37.780   6.426
 3591POPC   C3A47417  29.447  37.633   6.842
 3591POPC   C4A47418  29.516  37.436   7.250
 3591POPC   C1B47419  28.929  37.744   6.215
 3591POPC   C2B47420  28.842  37.637   6.676
 3591POPC   C3B47421  29.011  37.469   7.079
 3591POPC   C4B47422  29.115  37.683   7.456
 3592POPC   NC347423  14.871  12.125   5.421
 3592POPC   PO447424  15.040  11.462   5.423
 3592POPC   GL147425  15.127  11.727   5.789
 3592POPC   GL247426  15.473  11.847   5.897
 3592POPC   C1A47427  15.136  11.699   6.255
 3592POPC   D2A47428  15.218  11.527   6.659
 3592POPC   C3A47429  14.977  11.746   6.987
 3592POPC   C4A47430  14.958  12.165   7.204
 3592POPC   C1B47431  15.322  12.175   6.228
 3592POPC   C2B47432  15.204  12.110   6.680
 3592POPC   C3B47433  15.429  12.034   7.077
 3592POPC   C4B47434  15.347  12.050   7.540
 3593POPC   NC347435  39.571  36.601   5.558
 3593POPC   PO447436  39.042  36.250   5.162
 3593POPC   GL147437  39.143  36.244   5.649
 3593POPC   GL247438  39.425  36.125   5.740
 3593POPC   C1A47439  39.147  36.224   6.153
 3593POPC   D2A47440  38.875  36.179   6.515
 3593POPC   C3A47441  39.002  36.031   6.917
 3593POPC   C4A47442  39.158  36.137   7.313
 3593POPC   C1B47443  39.610  35.997   6.130
 3593POPC   C2B47444  39.478  36.126   6.561
 3593POPC   C3B47445  39.534  35.969   6.987
 3593POPC   C4B47446  39.643  36.027   7.422
 3594POPC   NC347447  15.201  37.154   5.488
 3594POPC   PO447448  14.889  36.584   5.281
 3594POPC   GL147449  14.975  36.743   5.716
 3594POPC   GL247450  14.817  37.071   5.808
 3594POPC   C1A47451  15.183  36.907   6.132
 3594POPC   D2A47452  15.031  36.945   6.559
 3594POPC   C3A47453  15.193  36.766   6.940
 3594POPC   C4A47454  15.363  36.541   7.289
 3594POPC   C1B47455  14.866  37.330   6.196
 3594POPC   C2B47456  14.726  37.357   6.610
 3594POPC   C3B47457  14.851  37.190   7.008
 3594POPC   C4B47458  15.294  37.231   7.116
 3595POPC   NC347459  29.159   9.125   5.313
 3595POPC   PO447460  28.826   8.640   5.617
 3595POPC   GL147461  28.906   9.018   5.825
 3595POPC   GL247462  29.222   9.205   5.801
 3595POPC   C1A47463  29.009   9.018   6.259
 3595POPC   D2A47464  28.866   9.012   6.660
 3595POPC   C3A47465  29.086   9.231   6.988
 3595POPC   C4A47466  29.024   8.990   7.348
 3595POPC   C1B47467  29.498   9.037   6.094
 3595POPC   C2B47468  29.466   8.903   6.523
 3595POPC   C3B47469  29.324   8.785   6.919
 3595POPC   C4B47470  29.328   8.582   7.289
 3596POPC   NC347471  19.112  17.227   5.309
 3596POPC   PO447472  19.444  17.757   5.312
 3596POPC   GL147473  19.214  17.734   5.736
 3596POPC   GL247474  19.425  17.494   5.908
 3596POPC   C1A47475  18.959  17.623   6.133
 3596POPC   D2A47476  19.116  17.581   6.585
 3596POPC   C3A47477  18.834  17.652   6.946
 3596POPC   C4A47478  18.917  17.526   7.371
 3596POPC   C1B47479  19.412  17.847   6.227
 3596POPC   C2B47480  19.488  17.945   6.680
 3596POPC   C3B47481  19.339  17.725   7.072
 3596POPC   C4B47482  19.314  17.792   7.551
 3597POPC   NC347483  36.151  17.564   5.353
 3597POPC   PO447484  35.705  17.428   5.780
 3597POPC   GL147485  36.118  17.510   5.878
 3597POPC   GL247486  36.344  17.232   5.757
 3597POPC   C1A47487  36.074  17.578   6.322
 3597POPC   D2A47488  35.850  17.810   6.589
 3597POPC   C3A47489  35.988  17.613   6.927
 3597POPC   C4A47490  35.939  17.425   7.319
 3597POPC   C1B47491  36.485  17.329   6.187
 3597POPC   C2B47492  36.361  17.153   6.610
 3597POPC   C3B47493  36.343  17.256   7.051
 3597POPC   C4B47494  36.398  17.656   7.255
 3598POPC   NC347495   1.601   0.445   5.373
 3598POPC   PO447496   0.985   0.546   5.434
 3598POPC   GL147497   1.000   0.506   5.868
 3598POPC   GL247498   1.350   0.485   5.864
 3598POPC   C1A47499   1.048   0.350   6.305
 3598POPC   D2A47500   1.023   0.632   6.680
 3598POPC   C3A47501   1.074   0.423   7.056
 3598POPC   C4A47502   0.942   0.054   7.276
 3598POPC   C1B47503   1.559   0.380   6.264
 3598POPC   C2B47504   1.444   0.338   6.676
 3598POPC   C3B47505   1.603   0.496   7.071
 3598POPC   C4B47506   1.388   0.400   7.469
 3599POPC   NC347507  36.595  36.325   5.249
 3599POPC   PO447508  36.824  35.859   5.695
 3599POPC   GL147509  36.570  36.044   5.974
 3599POPC   GL247510  36.556  36.383   5.788
 3599POPC   C1A47511  36.756  35.995   6.398
 3599POPC   D2A47512  37.065  36.061   6.753
 3599POPC   C3A47513  36.841  35.980   7.128
 3599POPC   C4A47514  36.960  35.881   7.586
 3599POPC   C1B47515  36.827  36.455   6.166
 3599POPC   C2B47516  36.771  36.482   6.624
 3599POPC   C3B47517  36.989  36.514   7.022
 3599POPC   C4B47518  36.904  36.396   7.436
 3600POPC   NC347519  42.856  33.267   5.377
 3600POPC   PO447520  43.290  32.657   5.418
 3600POPC   GL147521  43.147  32.836   5.782
 3600POPC   GL247522  43.205  33.184   5.741
 3600POPC   C1A47523  43.068  32.728   6.207
 3600POPC   D2A47524  43.164  32.955   6.585
 3600POPC   C3A47525  43.103  32.832   7.008
 3600POPC   C4A47526  43.453  32.906   7.289
 3600POPC   C1B47527  43.091  33.262   6.166
 3600POPC   C2B47528  43.243  33.474   6.551
 3600POPC   C3B47529  43.343  33.316   6.972
 3600POPC   C4B47530  43.057  33.233   7.329
 3601POPC   NC347531   5.696  22.038   5.482
 3601POPC   PO447532   5.958  22.621   5.307
 3601POPC   GL147533   5.794  22.472   5.726
 3601POPC   GL247534   6.064  22.334   5.960
 3601POPC   C1A47535   5.560  22.312   6.117
 3601POPC   D2A47536   5.806  22.374   6.500
 3601POPC   C3A47537   5.656  22.476   6.871
 3601POPC   C4A47538   5.677  22.223   7.223
 3601POPC   C1B47539   5.980  21.970   6.242
 3601POPC   C2B47540   5.919  21.835   6.698
 3601POPC   C3B47541   6.022  21.827   7.182
 3601POPC   C4B47542   6.191  21.661   7.566
 3602POPC   NC347543  25.598   0.987   5.424
 3602POPC   PO447544  25.038   1.420   5.520
 3602POPC   GL147545  25.279   1.135   5.806
 3602POPC   GL247546  25.562   1.338   5.846
 3602POPC   C1A47547  25.593   0.911   6.116
 3602POPC   D2A47548  25.745   0.904   6.557
 3602POPC   C3A47549  25.393   1.010   6.843
 3602POPC   C4A47550  25.350   1.089   7.289
 3602POPC   C1B47551  25.276   1.508   6.152
 3602POPC   C2B47552  25.271   1.474   6.588
 3602POPC   C3B47553  25.362   1.514   6.995
 3602POPC   C4B47554  25.162   1.546   7.384
 3603POPC   NC347555  42.087   0.269   5.435
 3603POPC   PO447556  41.477   0.694   5.505
 3603POPC   GL147557  41.556   0.467   5.828
 3603POPC   GL247558  41.873   0.435   5.864
 3603POPC   C1A47559  41.393   0.505   6.211
 3603POPC   D2A47560  41.263   0.555   6.599
 3603POPC   C3A47561  41.432   0.311   6.905
 3603POPC   C4A47562  41.326   0.362   7.335
 3603POPC   C1B47563  41.883   0.661   6.262
 3603POPC   C2B47564  41.767   0.657   6.683
 3603POPC   C3B47565  41.813   0.685   7.093
 3603POPC   C4B47566  41.817   0.263   7.256
 3604POPC   NC347567  44.283  43.158   5.422
 3604POPC   PO447568  43.628  43.327   5.207
 3604POPC   GL147569  43.820  43.232   5.616
 3604POPC   GL247570  43.917  43.520   5.796
 3604POPC   C1A47571  43.833  43.080   6.063
 3604POPC   D2A47572  43.660  43.326   6.413
 3604POPC   C3A47573  43.709  43.224   6.855
 3604POPC   C4A47574  43.635  43.341   7.285
 3604POPC   C1B47575  44.229  43.398   6.118
 3604POPC   C2B47576  44.165  43.160   6.501
 3604POPC   C3B47577  44.252  43.262   6.927
 3604POPC   C4B47578  44.168  43.106   7.320
 3605POPC   NC347579   5.929  19.645   5.410
 3605POPC   PO447580   5.728  19.068   5.169
 3605POPC   GL147581   5.668  19.266   5.669
 3605POPC   GL247582   5.322  19.429   5.785
 3605POPC   C1A47583   5.701  19.171   6.176
 3605POPC   D2A47584   5.727  18.952   6.630
 3605POPC   C3A47585   5.963  19.055   7.031
 3605POPC   C4A47586   6.085  19.013   7.476
 3605POPC   C1B47587   5.419  19.588   6.225
 3605POPC   C2B47588   5.563  19.439   6.645
 3605POPC   C3B47589   5.492  19.255   7.071
 3605POPC   C4B47590   5.620  19.252   7.531
 3606POPC   NC347591   0.132  31.479   5.577
 3606POPC   PO447592   0.733  31.232   5.481
 3606POPC   GL147593   0.516  31.324   5.861
 3606POPC   GL247594   0.496  31.707   5.835
 3606POPC   C1A47595   0.186  31.295   6.214
 3606POPC   D2A47596  44.962  31.384   6.624
 3606POPC   C3A47597   0.140  31.214   7.028
 3606POPC   C4A47598   0.240  31.470   7.441
 3606POPC   C1B47599   0.225  31.805   6.179
 3606POPC   C2B47600   0.381  31.662   6.546
 3606POPC   C3B47601   0.438  31.616   6.963
 3606POPC   C4B47602   0.610  31.796   7.300
 3607POPC   NC347603  42.178  17.812   5.252
 3607POPC   PO447604  42.458  17.196   5.387
 3607POPC   GL147605  42.341  17.525   5.685
 3607POPC   GL247606  42.611  17.758   5.778
 3607POPC   C1A47607  42.114  17.522   6.098
 3607POPC   D2A47608  42.289  17.576   6.515
 3607POPC   C3A47609  42.139  17.403   6.891
 3607POPC   C4A47610  42.135  17.715   7.201
 3607POPC   C1B47611  42.627  17.454   6.156
 3607POPC   C2B47612  42.697  17.298   6.631
 3607POPC   C3B47613  42.592  17.589   6.999
 3607POPC   C4B47614  42.586  17.541   7.448
 3608POPC   NC347615  38.453  23.752   5.391
 3608POPC   PO447616  39.189  23.969   5.317
 3608POPC   GL147617  39.300  23.743   5.707
 3608POPC   GL247618  39.054  23.495   5.844
 3608POPC   C1A47619  39.363  23.863   6.125
 3608POPC   D2A47620  39.143  23.883   6.497
 3608POPC   C3A47621  39.292  23.758   6.858
 3608POPC   C4A47622  39.260  23.879   7.273
 3608POPC   C1B47623  39.054  23.440   6.270
 3608POPC   C2B47624  38.929  23.417   6.698
 3608POPC   C3B47625  39.066  23.404   7.125
 3608POPC   C4B47626  39.110  23.498   7.570
 3609POPC   NC347627  10.352  42.161   5.420
 3609POPC   PO447628  10.926  42.139   5.246
 3609POPC   GL147629  10.766  42.088   5.698
 3609POPC   GL247630  10.651  42.439   5.750
 3609POPC   C1A47631  10.590  42.137   6.138
 3609POPC   D2A47632  10.378  42.214   6.518
 3609POPC   C3A47633  10.620  42.317   6.884
 3609POPC   C4A47634  10.687  42.091   7.284
 3609POPC   C1B47635  10.392  42.605   6.135
 3609POPC   C2B47636  10.073  42.600   6.492
 3609POPC   C3B47637  10.154  42.644   6.935
 3609POPC   C4B47638  10.381  42.509   7.299
 3610POPC   NC347639  36.944  43.750   5.379
 3610POPC   PO447640  37.054  44.420   5.475
 3610POPC   GL147641  37.104  44.065   5.791
 3610POPC   GL247642  36.789  43.860   5.871
 3610POPC   C1A47643  37.090  43.953   6.250
 3610POPC   D2A47644  36.864  43.734   6.592
 3610POPC   C3A47645  37.000  43.793   7.010
 3610POPC   C4A47646  37.252  43.650   7.315
 3610POPC   C1B47647  36.604  44.082   6.298
 3610POPC   C2B47648  36.762  44.203   6.754
 3610POPC   C3B47649  36.650  44.112   7.225
 3610POPC   C4B47650  36.435  44.063   7.666
 3611POPC   NC347651   4.063   8.251   5.191
 3611POPC   PO447652   3.504   7.971   5.471
 3611POPC   GL147653   3.445   8.270   5.794
 3611POPC   GL247654   3.768   8.220   5.899
 3611POPC   C1A47655   3.354   8.172   6.226
 3611POPC   D2A47656   3.307   7.821   6.512
 3611POPC   C3A47657   3.483   7.877   6.942
 3611POPC   C4A47658   3.340   8.195   7.257
 3611POPC   C1B47659   3.847   8.349   6.329
 3611POPC   C2B47660   3.965   8.142   6.724
 3611POPC   C3B47661   3.823   8.261   7.130
 3611POPC   C4B47662   3.907   8.512   7.477
 3612POPC   NC347663  42.075   9.911   5.420
 3612POPC   PO447664  42.666   9.733   5.352
 3612POPC   GL147665  42.419   9.665   5.710
 3612POPC   GL247666  42.443  10.007   5.820
 3612POPC   C1A47667  42.443   9.603   6.132
 3612POPC   D2A47668  42.394   9.755   6.541
 3612POPC   C3A47669  42.630   9.557   6.859
 3612POPC   C4A47670  42.460   9.598   7.224
 3612POPC   C1B47671  42.130  10.009   6.167
 3612POPC   C2B47672  42.215  10.235   6.518
 3612POPC   C3B47673  42.245  10.073   6.926
 3612POPC   C4B47674  41.969   9.801   7.195
 3613POPC   NC347675   0.269  44.517   5.272
 3613POPC   PO447676   0.522   0.073   5.638
 3613POPC   GL147677   0.414  44.661   5.856
 3613POPC   GL247678   0.139  44.398   5.739
 3613POPC   C1A47679   0.530  44.695   6.309
 3613POPC   D2A47680   0.836  44.773   6.657
 3613POPC   C3A47681   0.689  44.644   7.074
 3613POPC   C4A47682   0.761  44.611   7.531
 3613POPC   C1B47683  44.975  44.561   6.128
 3613POPC   C2B47684   0.103  44.623   6.565
 3613POPC   C3B47685   0.121  44.760   6.994
 3613POPC   C4B47686   0.246  44.546   7.353
 3614POPC   NC347687   6.355  35.336   5.332
 3614POPC   PO447688   6.639  35.928   5.348
 3614POPC   GL147689   6.698  35.678   5.722
 3614POPC   GL247690   6.570  35.322   5.809
 3614POPC   C1A47691   6.715  35.631   6.167
 3614POPC   D2A47692   6.778  35.433   6.536
 3614POPC   C3A47693   6.786  35.663   6.889
 3614POPC   C4A47694   6.660  35.539   7.266
 3614POPC   C1B47695   6.853  35.076   6.139
 3614POPC   C2B47696   6.935  34.952   6.601
 3614POPC   C3B47697   6.732  35.057   6.993
 3614POPC   C4B47698   6.799  35.093   7.420
 3615POPC   NC347699  28.265  25.950   5.436
 3615POPC   PO447700  28.450  26.518   5.550
 3615POPC   GL147701  28.369  26.218   5.898
 3615POPC   GL247702  28.073  26.045   5.887
 3615POPC   C1A47703  28.356  26.003   6.346
 3615POPC   D2A47704  28.660  25.868   6.693
 3615POPC   C3A47705  28.588  26.065   7.114
 3615POPC   C4A47706  28.299  26.340   7.257
 3615POPC   C1B47707  27.849  25.931   6.240
 3615POPC   C2B47708  27.974  25.785   6.640
 3615POPC   C3B47709  28.129  25.876   7.047
 3615POPC   C4B47710  28.419  25.645   7.342
 3616POPC   NC347711  38.902  44.029   5.039
 3616POPC   PO447712  39.502  43.832   5.312
 3616POPC   GL147713  39.247  43.913   5.685
 3616POPC   GL247714  38.957  43.658   5.673
 3616POPC   C1A47715  39.362  44.025   6.131
 3616POPC   D2A47716  39.471  44.205   6.550
 3616POPC   C3A47717  39.194  44.250   6.940
 3616POPC   C4A47718  39.285  44.044   7.350
 3616POPC   C1B47719  38.919  43.782   6.112
 3616POPC   C2B47720  39.035  43.921   6.537
 3616POPC   C3B47721  39.123  43.752   6.948
 3616POPC   C4B47722  38.826  43.819   7.282
 3617POPC   NC347723  38.606  28.753   5.623
 3617POPC   PO447724  38.535  28.103   5.448
 3617POPC   GL147725  38.628  28.270   5.862
 3617POPC   GL247726  38.939  28.090   5.923
 3617POPC   C1A47727  38.409  28.357   6.271
 3617POPC   D2A47728  38.434  28.362   6.730
 3617POPC   C3A47729  38.237  28.403   7.172
 3617POPC   C4A47730  38.249  28.211   7.600
 3617POPC   C1B47731  38.753  27.894   6.277
 3617POPC   C2B47732  38.711  27.927   6.687
 3617POPC   C3B47733  38.574  28.024   7.067
 3617POPC   C4B47734  38.740  28.133   7.437
 3618POPC   NC347735  22.073  22.647   5.364
 3618POPC   PO447736  21.869  23.328   5.484
 3618POPC   GL147737  22.105  23.156   5.841
 3618POPC   GL247738  22.130  22.833   5.829
 3618POPC   C1A47739  22.324  23.138   6.262
 3618POPC   D2A47740  22.011  23.210   6.616
 3618POPC   C3A47741  22.171  23.207   7.034
 3618POPC   C4A47742  22.300  22.850   7.285
 3618POPC   C1B47743  21.938  22.837   6.216
 3618POPC   C2B47744  22.073  22.688   6.608
 3618POPC   C3B47745  21.885  22.774   7.000
 3618POPC   C4B47746  21.859  22.619   7.442
 3619POPC   NC347747  36.265  32.668   5.249
 3619POPC   PO447748  35.861  33.140   5.392
 3619POPC   GL147749  36.121  32.961   5.684
 3619POPC   GL247750  35.944  32.691   5.795
 3619POPC   C1A47751  36.282  33.037   6.113
 3619POPC   D2A47752  36.427  33.234   6.483
 3619POPC   C3A47753  36.384  33.091   6.868
 3619POPC   C4A47754  36.306  33.179   7.261
 3619POPC   C1B47755  35.867  32.736   6.208
 3619POPC   C2B47756  36.138  32.772   6.557
 3619POPC   C3B47757  35.979  32.797   6.965
 3619POPC   C4B47758  35.774  32.666   7.314
 3620POPC   NC347759  20.204  20.873   5.280
 3620POPC   PO447760  20.699  21.313   5.361
 3620POPC   GL147761  20.716  21.428   5.770
 3620POPC   GL247762  20.466  21.165   5.844
 3620POPC   C1A47763  20.657  21.584   6.198
 3620POPC   D2A47764  20.461  21.458   6.592
 3620POPC   C3A47765  20.653  21.652   6.960
 3620POPC   C4A47766  20.549  21.405   7.302
 3620POPC   C1B47767  20.763  21.067   6.166
 3620POPC   C2B47768  20.941  21.286   6.517
 3620POPC   C3B47769  20.946  21.210   6.948
 3620POPC   C4B47770  20.962  20.949   7.310
 3621POPC   NC347771   5.125  28.793   5.089
 3621POPC   PO447772   4.941  28.208   5.452
 3621POPC   GL147773   5.048  28.222   5.882
 3621POPC   GL247774   4.832  28.515   6.005
 3621POPC   C1A47775   5.017  28.143   6.312
 3621POPC   D2A47776   4.930  28.325   6.717
 3621POPC   C3A47777   5.230  28.344   7.054
 3621POPC   C4A47778   5.099  28.249   7.467
 3621POPC   C1B47779   5.196  28.599   6.277
 3621POPC   C2B47780   5.134  28.823   6.627
 3621POPC   C3B47781   4.971  28.773   7.025
 3621POPC   C4B47782   5.218  28.744   7.409
 3622POPC   NC347783  39.150  23.384   5.365
 3622POPC   PO447784  39.062  22.737   5.097
 3622POPC   GL147785  39.196  22.882   5.563
 3622POPC   GL247786  38.901  22.967   5.731
 3622POPC   C1A47787  39.301  23.004   6.067
 3622POPC   D2A47788  39.439  23.217   6.509
 3622POPC   C3A47789  39.507  23.050   6.923
 3622POPC   C4A47790  39.318  22.991   7.298
 3622POPC   C1B47791  38.757  23.060   6.122
 3622POPC   C2B47792  38.986  22.941   6.484
 3622POPC   C3B47793  38.990  22.890   6.907
 3622POPC   C4B47794  38.766  23.031   7.244
 3623POPC   NC347795   1.187   8.705   5.110
 3623POPC   PO447796   0.977   9.165   5.533
 3623POPC   GL147797   1.311   9.162   5.873
 3623POPC   GL247798   1.407   8.813   5.936
 3623POPC   C1A47799   1.245   9.113   6.333
 3623POPC   D2A47800   1.095   8.859   6.676
 3623POPC   C3A47801   1.127   9.156   7.017
 3623POPC   C4A47802   1.359   9.072   7.382
 3623POPC   C1B47803   1.630   8.787   6.320
 3623POPC   C2B47804   1.609   8.928   6.742
 3623POPC   C3B47805   1.587   8.718   7.123
 3623POPC   C4B47806   1.724   8.757   7.550
 3624POPC   NC347807  26.572  42.918   5.501
 3624POPC   PO447808  26.956  43.435   5.575
 3624POPC   GL147809  26.792  43.227   5.925
 3624POPC   GL247810  26.951  42.911   5.890
 3624POPC   C1A47811  26.827  43.158   6.371
 3624POPC   D2A47812  26.604  43.040   6.719
 3624POPC   C3A47813  26.746  43.304   7.049
 3624POPC   C4A47814  26.673  43.393   7.481
 3624POPC   C1B47815  26.664  42.722   6.191
 3624POPC   C2B47816  26.866  42.589   6.567
 3624POPC   C3B47817  27.093  42.881   6.799
 3624POPC   C4B47818  26.965  42.892   7.206
 3625POPC   NC347819  26.591  34.923   5.267
 3625POPC   PO447820  26.725  35.528   5.428
 3625POPC   GL147821  26.634  35.331   5.820
 3625POPC   GL247822  26.331  35.126   5.677
 3625POPC   C1A47823  26.887  35.292   6.248
 3625POPC   D2A47824  27.118  35.301   6.685
 3625POPC   C3A47825  27.024  35.394   7.145
 3625POPC   C4A47826  27.039  35.678   7.508
 3625POPC   C1B47827  26.256  35.155   6.118
 3625POPC   C2B47828  26.483  35.145   6.517
 3625POPC   C3B47829  26.668  35.120   6.895
 3625POPC   C4B47830  26.468  35.083   7.285
 3626POPC   NC347831  32.726  18.496   5.272
 3626POPC   PO447832  33.197  18.059   5.508
 3626POPC   GL147833  33.062  18.172   5.862
 3626POPC   GL247834  32.783  18.305   5.755
 3626POPC   C1A47835  33.032  18.527   6.157
 3626POPC   D2A47836  32.941  18.454   6.553
 3626POPC   C3A47837  33.137  18.582   6.921
 3626POPC   C4A47838  33.062  18.436   7.329
 3626POPC   C1B47839  32.663  18.154   6.180
 3626POPC   C2B47840  32.510  18.180   6.602
 3626POPC   C3B47841  32.691  18.320   6.981
 3626POPC   C4B47842  32.594  18.253   7.399
 3627POPC   NC347843  38.126  28.289   5.577
 3627POPC   PO447844  37.554  28.213   5.288
 3627POPC   GL147845  37.616  28.236   5.755
 3627POPC   GL247846  37.572  28.590   5.843
 3627POPC   C1A47847  37.864  28.259   6.185
 3627POPC   D2A47848  37.921  28.426   6.614
 3627POPC   C3A47849  37.920  28.112   6.903
 3627POPC   C4A47850  37.868  28.074   7.308
 3627POPC   C1B47851  37.619  28.704   6.287
 3627POPC   C2B47852  37.462  28.705   6.697
 3627POPC   C3B47853  37.664  28.708   7.090
 3627POPC   C4B47854  37.376  28.660   7.438
 3628POPC   NC347855  34.071   0.018   5.569
 3628POPC   PO447856  33.489  44.720   5.651
 3628POPC   GL147857  33.869  44.652   5.899
 3628POPC   GL247858  34.060  44.340   5.950
 3628POPC   C1A47859  33.986  44.689   6.323
 3628POPC   D2A47860  34.128  44.688   6.740
 3628POPC   C3A47861  33.805  44.678   7.058
 3628POPC   C4A47862  33.441  44.937   7.186
 3628POPC   C1B47863  34.271  44.272   6.313
 3628POPC   C2B47864  34.052  44.138   6.657
 3628POPC   C3B47865  34.109  44.250   7.032
 3628POPC   C4B47866  33.971  44.380   7.444
 3629POPC   NC347867  11.633  14.368   5.501
 3629POPC   PO447868  11.039  14.626   5.360
 3629POPC   GL147869  11.182  14.429   5.733
 3629POPC   GL247870  11.092  14.104   5.796
 3629POPC   C1A47871  11.430  14.427   6.141
 3629POPC   D2A47872  11.247  14.437   6.554
 3629POPC   C3A47873  11.505  14.430   6.912
 3629POPC   C4A47874  11.316  14.345   7.305
 3629POPC   C1B47875  10.932  14.271   6.154
 3629POPC   C2B47876  10.876  14.049   6.527
 3629POPC   C3B47877  10.954  14.177   6.939
 3629POPC   C4B47878  11.083  13.892   7.267
 3630POPC   NC347879  34.094  39.426   5.191
 3630POPC   PO447880  33.864  38.874   5.519
 3630POPC   GL147881  33.738  39.205   5.793
 3630POPC   GL247882  33.977  39.479   5.724
 3630POPC   C1A47883  33.499  39.276   6.199
 3630POPC   D2A47884  33.412  39.463   6.616
 3630POPC   C3A47885  33.564  39.257   6.978
 3630POPC   C4A47886  33.679  38.863   7.173
 3630POPC   C1B47887  34.009  39.368   6.181
 3630POPC   C2B47888  33.900  39.200   6.558
 3630POPC   C3B47889  34.075  39.078   6.932
 3630POPC   C4B47890  34.070  39.250   7.323
 3631POPC   NC347891  16.122  36.526   5.407
 3631POPC   PO447892  15.625  36.966   5.521
 3631POPC   GL147893  15.989  36.889   5.817
 3631POPC   GL247894  16.265  37.147   5.853
 3631POPC   C1A47895  15.862  36.886   6.256
 3631POPC   D2A47896  15.597  36.974   6.639
 3631POPC   C3A47897  15.701  36.840   7.059
 3631POPC   C4A47898  15.793  36.751   7.497
 3631POPC   C1B47899  16.381  36.965   6.232
 3631POPC   C2B47900  16.200  37.009   6.630
 3631POPC   C3B47901  16.017  37.214   6.947
 3631POPC   C4B47902  16.191  37.115   7.299
 3632POPC   NC347903   6.250   6.152   5.538
 3632POPC   PO447904   6.485   6.761   5.331
 3632POPC   GL147905   6.737   6.717   5.695
 3632POPC   GL247906   6.534   6.468   5.834
 3632POPC   C1A47907   6.803   6.749   6.165
 3632POPC   D2A47908   6.595   6.578   6.509
 3632POPC   C3A47909   6.571   6.819   6.848
 3632POPC   C4A47910   6.546   6.709   7.264
 3632POPC   C1B47911   6.260   6.378   6.180
 3632POPC   C2B47912   6.173   6.277   6.648
 3632POPC   C3B47913   6.469   6.286   6.993
 3632POPC   C4B47914   6.386   6.280   7.464
 3633POPC   NC347915  34.033  31.066   5.416
 3633POPC   PO447916  33.613  31.481   5.368
 3633POPC   GL147917  33.905  31.419   5.782
 3633POPC   GL247918  34.175  31.679   5.880
 3633POPC   C1A47919  34.011  31.357   6.255
 3633POPC   D2A47920  34.096  31.261   6.714
 3633POPC   C3A47921  33.793  31.323   7.067
 3633POPC   C4A47922  33.680  31.069   7.438
 3633POPC   C1B47923  33.867  31.832   6.188
 3633POPC   C2B47924  33.846  31.731   6.651
 3633POPC   C3B47925  34.102  31.726   7.041
 3633POPC   C4B47926  34.053  31.817   7.472
 3634POPC   NC347927  24.167  27.175   5.442
 3634POPC   PO447928  24.594  26.609   5.453
 3634POPC   GL147929  24.475  26.686   5.881
 3634POPC   GL247930  24.150  26.842   5.854
 3634POPC   C1A47931  24.582  26.962   6.255
 3634POPC   D2A47932  24.445  27.113   6.658
 3634POPC   C3A47933  24.713  27.092   7.009
 3634POPC   C4A47934  24.659  27.028   7.420
 3634POPC   C1B47935  24.103  26.790   6.277
 3634POPC   C2B47936  24.278  26.643   6.656
 3634POPC   C3B47937  24.345  26.744   7.096
 3634POPC   C4B47938  24.343  26.689   7.579
 3635POPC   NC347939  43.109  22.849   5.270
 3635POPC   PO447940  42.484  22.914   5.410
 3635POPC   GL147941  42.821  22.789   5.772
 3635POPC   GL247942  43.224  22.728   5.754
 3635POPC   C1A47943  43.015  22.898   6.211
 3635POPC   D2A47944  42.981  23.166   6.610
 3635POPC   C3A47945  42.826  23.009   7.040
 3635POPC   C4A47946  42.961  22.800   7.419
 3635POPC   C1B47947  43.572  22.692   6.038
 3635POPC   C2B47948  43.549  22.904   6.401
 3635POPC   C3B47949  43.560  22.854   6.838
 3635POPC   C4B47950  43.290  22.585   7.058
 3636POPC   NC347951  12.477   7.939   5.475
 3636POPC   PO447952  12.008   8.362   5.332
 3636POPC   GL147953  12.004   8.416   5.781
 3636POPC   GL247954  12.298   8.650   5.792
 3636POPC   C1A47955  12.067   8.072   6.127
 3636POPC   D2A47956  12.274   7.937   6.537
 3636POPC   C3A47957  12.024   8.058   6.901
 3636POPC   C4A47958  11.795   8.060   7.265
 3636POPC   C1B47959  12.354   8.490   6.200
 3636POPC   C2B47960  12.248   8.460   6.632
 3636POPC   C3B47961  12.483   8.236   6.980
 3636POPC   C4B47962  12.301   8.248   7.403
 3637POPC   NC347963  15.702  17.438   5.348
 3637POPC   PO447964  16.248  17.874   5.471
 3637POPC   GL147965  16.086  17.543   5.720
 3637POPC   GL247966  15.740  17.570   5.836
 3637POPC   C1A47967  16.179  17.458   6.137
 3637POPC   D2A47968  15.976  17.339   6.513
 3637POPC   C3A47969  16.155  17.441   6.905
 3637POPC   C4A47970  15.979  17.375   7.267
 3637POPC   C1B47971  15.514  17.216   6.047
 3637POPC   C2B47972  15.475  17.120   6.490
 3637POPC   C3B47973  15.597  17.378   6.864
 3637POPC   C4B47974  15.491  17.514   7.279
 3638POPC   NC347975  12.522  26.936   5.552
 3638POPC   PO447976  11.849  26.927   5.406
 3638POPC   GL147977  12.066  26.880   5.794
 3638POPC   GL247978  12.305  26.570   5.835
 3638POPC   C1A47979  12.206  26.923   6.197
 3638POPC   D2A47980  12.218  27.177   6.535
 3638POPC   C3A47981  12.053  26.900   6.811
 3638POPC   C4A47982  12.033  26.838   7.206
 3638POPC   C1B47983  12.632  26.589   6.177
 3638POPC   C2B47984  12.663  26.437   6.617
 3638POPC   C3B47985  12.461  26.591   6.986
 3638POPC   C4B47986  12.344  26.439   7.376
 3639POPC   NC347987  44.321  13.228   5.569
 3639POPC   PO447988  44.625  12.697   5.299
 3639POPC   GL147989  44.663  12.737   5.765
 3639POPC   GL247990  44.813  12.402   5.782
 3639POPC   C1A47991  44.662  12.960   6.227
 3639POPC   D2A47992  44.906  13.047   6.660
 3639POPC   C3A47993  44.819  13.102   7.135
 3639POPC   C4A47994  44.970  12.983   7.562
 3639POPC   C1B47995  44.723  12.437   6.191
 3639POPC   C2B47996  44.697  12.570   6.593
 3639POPC   C3B47997  44.939  12.625   6.951
 3639POPC   C4B47998  44.687  12.604   7.313
 3640POPC   NC347999  26.167  44.468   5.269
 3640POPC   PO448000  25.706  44.828   5.592
 3640POPC   GL148001  26.123  44.626   5.800
 3640POPC   GL248002  26.504  44.773   5.806
 3640POPC   C1A48003  26.335  44.482   6.214
 3640POPC   D2A48004  26.402  44.294   6.653
 3640POPC   C3A48005  26.254  44.544   7.011
 3640POPC   C4A48006  25.857  44.565   7.210
 3640POPC   C1B48007  26.317  44.992   6.135
 3640POPC   C2B48008  25.984  44.940   6.429
 3640POPC   C3B48009  25.915  44.931   6.869
 3640POPC   C4B48010  26.150   0.049   7.236
 3641POPC   NC348011  35.612  42.886   5.514
 3641POPC   PO448012  35.456  42.333   5.324
 3641POPC   GL148013  35.508  42.269   5.728
 3641POPC   GL248014  35.792  42.094   5.805
 3641POPC   C1A48015  35.370  42.473   6.101
 3641POPC   D2A48016  35.202  42.623   6.496
 3641POPC   C3A48017  35.273  42.367   6.860
 3641POPC   C4A48018  35.271  42.367   7.318
 3641POPC   C1B48019  35.612  42.038   6.202
 3641POPC   C2B48020  35.683  42.304   6.539
 3641POPC   C3B48021  35.757  42.203   6.949
 3641POPC   C4B48022  35.436  41.923   7.130
 3642POPC   NC348023  36.597  32.059   5.465
 3642POPC   PO448024  35.933  32.368   5.361
 3642POPC   GL148025  36.146  32.222   5.741
 3642POPC   GL248026  36.387  32.470   5.707
 3642POPC   C1A48027  36.005  32.134   6.200
 3642POPC   D2A48028  35.864  32.355   6.574
 3642POPC   C3A48029  35.884  32.260   7.018
 3642POPC   C4A48030  35.997  31.911   7.235
 3642POPC   C1B48031  36.348  32.529   6.140
 3642POPC   C2B48032  36.437  32.320   6.513
 3642POPC   C3B48033  36.360  32.450   6.918
 3642POPC   C4B48034  36.282  32.570   7.335
 3643POPC   NC348035  20.358  29.843   5.331
 3643POPC   PO448036  20.837  30.263   5.313
 3643POPC   GL148037  20.646  30.043   5.704
 3643POPC   GL248038  20.811  30.206   5.948
 3643POPC   C1A48039  20.554  29.828   6.155
 3643POPC   D2A48040  20.785  29.712   6.570
 3643POPC   C3A48041  20.726  29.814   7.006
 3643POPC   C4A48042  20.395  29.576   7.186
 3643POPC   C1B48043  20.909  30.152   6.358
 3643POPC   C2B48044  20.670  30.241   6.687
 3643POPC   C3B48045  20.742  30.391   7.063
 3643POPC   C4B48046  20.811  30.169   7.374
 3644POPC   NC348047  29.830   6.905   5.451
 3644POPC   PO448048  29.815   6.279   5.448
 3644POPC   GL148049  29.755   6.565   5.816
 3644POPC   GL248050  29.571   6.901   5.898
 3644POPC   C1A48051  30.009   6.824   6.161
 3644POPC   D2A48052  29.924   6.856   6.624
 3644POPC   C3A48053  30.183   6.762   6.986
 3644POPC   C4A48054  30.226   6.398   7.272
 3644POPC   C1B48055  29.584   6.580   6.274
 3644POPC   C2B48056  29.758   6.354   6.616
 3644POPC   C3B48057  29.768   6.453   7.025
 3644POPC   C4B48058  29.711   6.779   7.239
 3645POPC   NC348059  24.581  12.605   5.433
 3645POPC   PO448060  24.133  13.089   5.276
 3645POPC   GL148061  24.429  13.035   5.692
 3645POPC   GL248062  24.497  12.712   5.928
 3645POPC   C1A48063  24.646  13.179   6.094
 3645POPC   D2A48064  24.650  13.008   6.514
 3645POPC   C3A48065  24.266  12.977   6.740
 3645POPC   C4A48066  24.284  12.965   7.172
 3645POPC   C1B48067  24.246  12.671   6.322
 3645POPC   C2B48068  24.248  12.452   6.755
 3645POPC   C3B48069  24.209  12.409   7.197
 3645POPC   C4B48070  24.085  12.232   7.609
 3646POPC   NC348071   2.915  19.697   5.135
 3646POPC   PO448072   3.504  19.880   5.458
 3646POPC   GL148073   3.645  19.837   5.882
 3646POPC   GL248074   3.532  19.490   5.894
 3646POPC   C1A48075   3.834  19.984   6.308
 3646POPC   D2A48076   3.680  20.100   6.750
 3646POPC   C3A48077   3.819  20.046   7.192
 3646POPC   C4A48078   3.787  20.125   7.671
 3646POPC   C1B48079   3.488  19.605   6.301
 3646POPC   C2B48080   3.655  19.586   6.675
 3646POPC   C3B48081   3.360  19.694   7.001
 3646POPC   C4B48082   3.366  19.847   7.416
 3647POPC   NC348083  26.732   6.905   5.505
 3647POPC   PO448084  27.156   6.289   5.493
 3647POPC   GL148085  26.921   6.539   5.803
 3647POPC   GL248086  27.085   6.887   5.874
 3647POPC   C1A48087  26.641   6.717   6.157
 3647POPC   D2A48088  26.467   6.589   6.577
 3647POPC   C3A48089  26.650   6.693   7.000
 3647POPC   C4A48090  26.539   6.536   7.469
 3647POPC   C1B48091  27.131   6.661   6.276
 3647POPC   C2B48092  27.191   6.894   6.658
 3647POPC   C3B48093  27.089   6.963   7.082
 3647POPC   C4B48094  27.020   6.669   7.415
 3648POPC   NC348095   4.722  11.662   5.474
 3648POPC   PO448096   5.451  11.611   5.527
 3648POPC   GL148097   5.369  11.449   5.949
 3648POPC   GL248098   4.979  11.423   5.905
 3648POPC   C1A48099   5.397  11.174   6.315
 3648POPC   D2A48100   5.163  11.181   6.726
 3648POPC   C3A48101   5.296  11.034   7.150
 3648POPC   C4A48102   5.494  11.114   7.569
 3648POPC   C1B48103   4.697  11.253   6.208
 3648POPC   C2B48104   4.659  11.095   6.624
 3648POPC   C3B48105   4.748  11.226   7.046
 3648POPC   C4B48106   5.077  11.491   7.161
 3649POPC   NC348107  38.282  34.363   5.475
 3649POPC   PO448108  38.541  33.667   5.375
 3649POPC   GL148109  38.337  33.869   5.716
 3649POPC   GL248110  38.643  34.039   5.842
 3649POPC   C1A48111  38.223  33.985   6.131
 3649POPC   D2A48112  38.242  33.805   6.531
 3649POPC   C3A48113  38.452  33.989   6.854
 3649POPC   C4A48114  38.304  33.907   7.251
 3649POPC   C1B48115  38.733  33.776   6.255
 3649POPC   C2B48116  38.843  33.678   6.707
 3649POPC   C3B48117  38.849  33.783   7.143
 3649POPC   C4B48118  38.740  34.188   7.255
 3650POPC   NC348119  30.922  37.991   5.460
 3650POPC   PO448120  30.562  37.531   5.718
 3650POPC   GL148121  30.851  37.719   5.921
 3650POPC   GL248122  30.718  38.038   5.913
 3650POPC   C1A48123  30.719  37.739   6.375
 3650POPC   D2A48124  30.639  37.364   6.653
 3650POPC   C3A48125  30.443  37.423   7.037
 3650POPC   C4A48126  30.381  37.776   7.255
 3650POPC   C1B48127  31.106  38.044   6.199
 3650POPC   C2B48128  31.018  38.082   6.633
 3650POPC   C3B48129  30.774  37.876   6.926
 3650POPC   C4B48130  30.816  37.988   7.344
 3651POPC   NC348131   1.960  40.199   5.447
 3651POPC   PO448132   1.751  39.515   5.360
 3651POPC   GL148133   2.052  39.751   5.681
 3651POPC   GL248134   1.887  39.556   5.849
 3651POPC   C1A48135   2.130  39.937   6.146
 3651POPC   D2A48136   1.906  40.082   6.567
 3651POPC   C3A48137   2.152  40.058   6.966
 3651POPC   C4A48138   2.421  39.974   7.324
 3651POPC   C1B48139   2.041  39.420   6.178
 3651POPC   C2B48140   1.889  39.556   6.511
 3651POPC   C3B48141   1.829  39.655   6.893
 3651POPC   C4B48142   2.072  39.610   7.246
 3652POPC   NC348143  35.396   4.717   5.416
 3652POPC   PO448144  35.435   5.355   5.311
 3652POPC   GL148145  35.426   5.313   5.775
 3652POPC   GL248146  35.524   4.972   5.831
 3652POPC   C1A48147  35.309   5.164   6.229
 3652POPC   D2A48148  35.528   5.123   6.621
 3652POPC   C3A48149  35.319   5.243   6.957
 3652POPC   C4A48150  35.190   4.949   7.237
 3652POPC   C1B48151  35.628   4.739   6.202
 3652POPC   C2B48152  35.594   4.635   6.661
 3652POPC   C3B48153  35.651   4.822   7.100
 3652POPC   C4B48154  35.545   4.643   7.546
 3653POPC   NC348155  34.288  40.444   5.529
 3653POPC   PO448156  34.576  41.006   5.238
 3653POPC   GL148157  34.555  40.917   5.744
 3653POPC   GL248158  34.495  40.642   5.968
 3653POPC   C1A48159  34.732  41.053   6.159
 3653POPC   D2A48160  34.982  40.920   6.509
 3653POPC   C3A48161  34.794  40.835   6.928
 3653POPC   C4A48162  34.895  40.688   7.348
 3653POPC   C1B48163  34.496  40.714   6.429
 3653POPC   C2B48164  34.442  40.491   6.790
 3653POPC   C3B48165  34.396  40.600   7.175
 3653POPC   C4B48166  34.091  40.394   7.373
 3654POPC   NC348167  10.317  44.831   5.309
 3654POPC   PO448168  10.844  44.343   5.356
 3654POPC   GL148169  10.609  44.575   5.693
 3654POPC   GL248170  10.244  44.582   5.726
 3654POPC   C1A48171  10.548  44.679   6.145
 3654POPC   D2A48172  10.470  44.861   6.549
 3654POPC   C3A48173  10.511  44.653   6.935
 3654POPC   C4A48174  10.529  44.927   7.307
 3654POPC   C1B48175  10.068  44.558   6.105
 3654POPC   C2B48176  10.127  44.465   6.518
 3654POPC   C3B48177   9.970  44.453   6.924
 3654POPC   C4B48178  10.151  44.567   7.271
 3655POPC   NC348179  23.558   9.137   5.363
 3655POPC   PO448180  23.901   8.588   5.510
 3655POPC   GL148181  23.541   8.619   5.779
 3655POPC   GL248182  23.573   8.950   5.834
 3655POPC   C1A48183  23.423   8.667   6.218
 3655POPC   D2A48184  23.527   8.881   6.607
 3655POPC   C3A48185  23.801   8.785   6.913
 3655POPC   C4A48186  23.564   8.716   7.255
 3655POPC   C1B48187  23.779   9.082   6.213
 3655POPC   C2B48188  23.687   9.369   6.565
 3655POPC   C3B48189  23.521   9.268   6.974
 3655POPC   C4B48190  23.819   9.157   7.280
 3656POPC   NC348191  30.648  39.372   5.241
 3656POPC   PO448192  31.205  38.922   5.116
 3656POPC   GL148193  31.028  39.044   5.608
 3656POPC   GL248194  30.809  39.325   5.730
 3656POPC   C1A48195  31.013  38.915   6.079
 3656POPC   D2A48196  30.726  38.860   6.457
 3656POPC   C3A48197  30.811  38.835   6.883
 3656POPC   C4A48198  30.957  39.175   7.121
 3656POPC   C1B48199  30.652  39.267   6.154
 3656POPC   C2B48200  30.787  39.332   6.593
 3656POPC   C3B48201  30.509  39.273   6.923
 3656POPC   C4B48202  30.568  39.680   7.135
 3657POPC   NC348203  44.498  32.356   5.495
 3657POPC   PO448204  44.959  31.883   5.467
 3657POPC   GL148205  44.846  32.119   5.803
 3657POPC   GL248206  44.519  32.033   5.885
 3657POPC   C1A48207  44.835  32.395   6.154
 3657POPC   D2A48208   0.001  32.549   6.548
 3657POPC   C3A48209  44.796  32.361   6.913
 3657POPC   C4A48210  44.760  32.119   7.276
 3657POPC   C1B48211  44.304  32.294   6.174
 3657POPC   C2B48212  44.391  32.194   6.605
 3657POPC   C3B48213  44.451  31.914   6.919
 3657POPC   C4B48214  44.423  31.661   7.265
 3658POPC   NC348215  34.246  42.781   5.467
 3658POPC   PO448216  33.713  43.103   5.174
 3658POPC   GL148217  33.766  43.310   5.615
 3658POPC   GL248218  33.924  43.034   5.831
 3658POPC   C1A48219  33.842  43.474   6.056
 3658POPC   D2A48220  33.837  43.165   6.411
 3658POPC   C3A48221  33.873  43.263   6.850
 3658POPC   C4A48222  33.762  43.269   7.293
 3658POPC   C1B48223  34.132  42.779   6.156
 3658POPC   C2B48224  34.007  42.726   6.613
 3658POPC   C3B48225  34.155  42.861   7.003
 3658POPC   C4B48226  34.058  42.827   7.454
 3659POPC   NC348227  40.382  37.125   5.575
 3659POPC   PO448228  39.786  36.909   5.271
 3659POPC   GL148229  39.862  36.969   5.767
 3659POPC   GL248230  40.133  37.055   6.026
 3659POPC   C1A48231  39.698  36.796   6.189
 3659POPC   D2A48232  39.745  36.605   6.611
 3659POPC   C3A48233  39.841  36.886   7.012
 3659POPC   C4A48234  39.814  36.901   7.529
 3659POPC   C1B48235  40.184  36.739   6.369
 3659POPC   C2B48236  40.242  36.635   6.798
 3659POPC   C3B48237  40.330  37.032   7.032
 3659POPC   C4B48238  40.293  37.116   7.465
 3660POPC   NC348239  11.369  10.332   5.381
 3660POPC   PO448240  11.319   9.673   5.118
 3660POPC   GL148241  11.227   9.822   5.604
 3660POPC   GL248242  11.501   9.901   5.793
 3660POPC   C1A48243  11.138   9.832   6.125
 3660POPC   D2A48244  11.223   9.965   6.576
 3660POPC   C3A48245  11.117   9.687   6.953
 3660POPC   C4A48246  11.090   9.661   7.410
 3660POPC   C1B48247  11.606   9.640   6.112
 3660POPC   C2B48248  11.714   9.755   6.472
 3660POPC   C3B48249  11.617   9.792   6.864
 3660POPC   C4B48250  11.560   9.742   7.263
 3661POPC   NC348251   0.307   2.977   5.389
 3661POPC   PO448252   0.111   2.334   5.388
 3661POPC   GL148253   0.260   2.435   5.799
 3661POPC   GL248254   0.501   2.739   5.814
 3661POPC   C1A48255   0.241   2.347   6.236
 3661POPC   D2A48256   0.161   2.472   6.663
 3661POPC   C3A48257   0.510   2.447   6.925
 3661POPC   C4A48258   0.592   2.393   7.367
 3661POPC   C1B48259   0.632   2.701   6.260
 3661POPC   C2B48260   0.537   2.919   6.643
 3661POPC   C3B48261   0.293   2.918   7.005
 3661POPC   C4B48262   0.347   2.832   7.434
 3662POPC   NC348263  36.069   6.844   5.376
 3662POPC   PO448264  36.497   6.411   5.591
 3662POPC   GL148265  36.178   6.628   5.843
 3662POPC   GL248266  36.129   6.996   5.862
 3662POPC   C1A48267  36.053   6.662   6.273
 3662POPC   D2A48268  35.920   6.486   6.656
 3662POPC   C3A48269  36.160   6.508   6.994
 3662POPC   C4A48270  36.237   6.297   7.386
 3662POPC   C1B48271  36.302   7.091   6.290
 3662POPC   C2B48272  36.334   6.930   6.721
 3662POPC   C3B48273  36.235   6.969   7.183
 3662POPC   C4B48274  36.328   6.827   7.607
 3663POPC   NC348275  41.938  38.515   5.072
 3663POPC   PO448276  42.416  38.824   5.327
 3663POPC   GL148277  42.411  38.486   5.718
 3663POPC   GL248278  42.122  38.266   5.759
 3663POPC   C1A48279  42.494  38.233   6.162
 3663POPC   D2A48280  42.498  38.179   6.663
 3663POPC   C3A48281  42.376  38.395   7.059
 3663POPC   C4A48282  42.430  38.751   7.375
 3663POPC   C1B48283  42.070  38.490   6.185
 3663POPC   C2B48284  42.036  38.455   6.665
 3663POPC   C3B48285  41.993  38.711   7.066
 3663POPC   C4B48286  41.986  38.524   7.498
 3664POPC   NC348287  39.963  28.233   5.337
 3664POPC   PO448288  40.324  28.728   5.599
 3664POPC   GL148289  40.009  28.606   5.879
 3664POPC   GL248290  40.074  28.249   5.842
 3664POPC   C1A48291  39.984  28.487   6.320
 3664POPC   D2A48292  40.322  28.379   6.591
 3664POPC   C3A48293  40.264  28.470   7.012
 3664POPC   C4A48294  40.401  28.215   7.348
 3664POPC   C1B48295  39.744  28.077   6.097
 3664POPC   C2B48296  39.719  27.977   6.536
 3664POPC   C3B48297  39.941  28.045   6.924
 3664POPC   C4B48298  39.842  28.293   7.276
 3665POPC   NC348299  21.714   4.752   5.707
 3665POPC   PO448300  21.111   4.609   5.401
 3665POPC   GL148301  21.340   4.352   5.742
 3665POPC   GL248302  21.456   4.006   5.612
 3665POPC   C1A48303  21.447   4.449   6.209
 3665POPC   D2A48304  21.264   4.561   6.614
 3665POPC   C3A48305  21.454   4.400   7.002
 3665POPC   C4A48306  21.321   4.437   7.450
 3665POPC   C1B48307  21.470   3.956   6.068
 3665POPC   C2B48308  21.430   3.934   6.509
 3665POPC   C3B48309  21.574   3.775   6.904
 3665POPC   C4B48310  21.762   4.036   7.205
 3666POPC   NC348311  12.845  15.057   5.691
 3666POPC   PO448312  12.763  14.510   5.290
 3666POPC   GL148313  12.994  14.552   5.712
 3666POPC   GL248314  12.911  14.298   5.955
 3666POPC   C1A48315  13.177  14.698   6.127
 3666POPC   D2A48316  13.029  14.894   6.498
 3666POPC   C3A48317  13.013  14.636   6.870
 3666POPC   C4A48318  12.729  14.585   7.208
 3666POPC   C1B48319  12.676  14.568   6.266
 3666POPC   C2B48320  12.535  14.513   6.697
 3666POPC   C3B48321  12.492  14.185   6.995
 3666POPC   C4B48322  12.577  14.162   7.436
 3667POPC   NC348323   6.431  30.629   5.252
 3667POPC   PO448324   7.048  30.828   5.313
 3667POPC   GL148325   6.787  30.651   5.708
 3667POPC   GL248326   6.435  30.558   5.768
 3667POPC   C1A48327   6.768  30.721   6.182
 3667POPC   D2A48328   6.925  30.956   6.553
 3667POPC   C3A48329   6.900  30.753   6.954
 3667POPC   C4A48330   6.668  30.868   7.305
 3667POPC   C1B48331   6.388  30.378   6.200
 3667POPC   C2B48332   6.510  30.535   6.602
 3667POPC   C3B48333   6.266  30.608   6.994
 3667POPC   C4B48334   6.261  30.622   7.455
 3668POPC   NC348335  17.170  44.605   5.483
 3668POPC   PO448336  17.609  44.119   5.464
 3668POPC   GL148337  17.653  44.505   5.769
 3668POPC   GL248338  17.382  44.663   5.941
 3668POPC   C1A48339  17.816  44.804   6.170
 3668POPC   D2A48340  17.933  44.773   6.640
 3668POPC   C3A48341  17.652  44.816   7.045
 3668POPC   C4A48342  17.196  44.770   7.166
 3668POPC   C1B48343  17.550  44.387   6.281
 3668POPC   C2B48344  17.537  44.408   6.739
 3668POPC   C3B48345  17.488  44.341   7.196
 3668POPC   C4B48346  17.560  44.178   7.633
 3669POPC   NC348347  38.052  17.892   5.546
 3669POPC   PO448348  37.723  17.262   5.463
 3669POPC   GL148349  37.701  17.362   5.850
 3669POPC   GL248350  37.581  17.730   5.831
 3669POPC   C1A48351  37.740  17.109   6.234
 3669POPC   D2A48352  37.911  17.240   6.625
 3669POPC   C3A48353  37.753  17.617   6.881
 3669POPC   C4A48354  37.957  17.821   7.271
 3669POPC   C1B48355  37.481  17.550   6.258
 3669POPC   C2B48356  37.391  17.313   6.618
 3669POPC   C3B48357  37.273  17.449   7.013
 3669POPC   C4B48358  37.389  17.812   7.237
 3670POPC   NC348359  27.902  28.220   5.442
 3670POPC   PO448360  27.439  28.699   5.583
 3670POPC   GL148361  27.717  28.495   5.841
 3670POPC   GL248362  27.643  28.106   5.880
 3670POPC   C1A48363  27.715  28.467   6.261
 3670POPC   D2A48364  27.558  28.413   6.649
 3670POPC   C3A48365  27.810  28.349   6.981
 3670POPC   C4A48366  28.140  28.188   7.155
 3670POPC   C1B48367  27.393  28.031   6.293
 3670POPC   C2B48368  27.214  28.050   6.720
 3670POPC   C3B48369  27.393  28.073   7.110
 3670POPC   C4B48370  27.239  28.198   7.511
 3671POPC   NC348371  28.599  44.395   5.377
 3671POPC   PO448372  28.371   0.040   5.308
 3671POPC   GL148373  28.316  44.706   5.701
 3671POPC   GL248374  28.602  44.565   5.862
 3671POPC   C1A48375  28.210  44.423   6.115
 3671POPC   D2A48376  28.070  44.588   6.517
 3671POPC   C3A48377  28.185  44.436   6.932
 3671POPC   C4A48378  28.311  44.640   7.304
 3671POPC   C1B48379  28.541  44.784   6.282
 3671POPC   C2B48380  28.495  44.813   6.739
 3671POPC   C3B48381  28.771  44.699   7.095
 3671POPC   C4B48382  28.763  44.694   7.546
 3672POPC   NC348383  17.583  10.068   5.352
 3672POPC   PO448384  17.275   9.513   5.304
 3672POPC   GL148385  17.394   9.520   5.732
 3672POPC   GL248386  17.469   9.848   5.790
 3672POPC   C1A48387  17.334   9.540   6.208
 3672POPC   D2A48388  17.325   9.412   6.663
 3672POPC   C3A48389  17.392   9.638   6.984
 3672POPC   C4A48390  17.302   9.608   7.380
 3672POPC   C1B48391  17.644   9.995   6.172
 3672POPC   C2B48392  17.528   9.915   6.553
 3672POPC   C3B48393  17.539  10.107   6.913
 3672POPC   C4B48394  17.704   9.978   7.266
 3673POPC   NC348395  24.121  10.785   5.336
 3673POPC   PO448396  24.664  10.366   5.432
 3673POPC   GL148397  24.466  10.585   5.743
 3673POPC   GL248398  24.399  10.264   5.919
 3673POPC   C1A48399  24.635  10.642   6.148
 3673POPC   D2A48400  24.507  10.352   6.450
 3673POPC   C3A48401  24.439  10.570   6.821
 3673POPC   C4A48402  24.567  10.451   7.193
 3673POPC   C1B48403  24.129  10.581   6.135
 3673POPC   C2B48404  24.089  10.819   6.502
 3673POPC   C3B48405  23.952  10.857   6.913
 3673POPC   C4B48406  24.107  10.633   7.244
 3674POPC   NC348407  39.826  23.742   5.566
 3674POPC   PO448408  40.496  23.457   5.457
 3674POPC   GL148409  40.295  23.622   5.807
 3674POPC   GL248410  40.066  23.374   5.884
 3674POPC   C1A48411  40.150  23.816   6.195
 3674POPC   D2A48412  40.186  23.685   6.623
 3674POPC   C3A48413  40.015  23.966   6.908
 3674POPC   C4A48414  39.802  23.898   7.306
 3674POPC   C1B48415  39.727  23.468   6.165
 3674POPC   C2B48416  39.675  23.695   6.518
 3674POPC   C3B48417  39.728  23.523   6.901
 3674POPC   C4B48418  39.557  23.449   7.288
 3675POPC   NC348419  40.812  37.727   5.332
 3675POPC   PO448420  40.794  37.007   5.387
 3675POPC   GL148421  40.785  37.393   5.732
 3675POPC   GL248422  41.005  37.702   5.805
 3675POPC   C1A48423  40.633  37.371   6.195
 3675POPC   D2A48424  40.680  37.220   6.664
 3675POPC   C3A48425  40.611  37.507   7.026
 3675POPC   C4A48426  40.465  37.958   7.112
 3675POPC   C1B48427  41.049  37.715   6.276
 3675POPC   C2B48428  40.954  37.760   6.733
 3675POPC   C3B48429  40.957  37.847   7.186
 3675POPC   C4B48430  41.158  37.809   7.595
 3676POPC   NC348431  40.523  34.131   5.442
 3676POPC   PO448432  40.801  33.541   5.363
 3676POPC   GL148433  40.737  33.834   5.793
 3676POPC   GL248434  41.007  33.716   6.039
 3676POPC   C1A48435  40.695  34.052   6.237
 3676POPC   D2A48436  40.933  33.839   6.600
 3676POPC   C3A48437  40.763  33.924   7.049
 3676POPC   C4A48438  40.554  33.836   7.478
 3676POPC   C1B48439  41.213  33.380   6.272
 3676POPC   C2B48440  40.982  33.236   6.610
 3676POPC   C3B48441  40.993  33.460   6.962
 3676POPC   C4B48442  40.929  33.523   7.351
 3677POPC   NC348443   0.821  41.113   5.498
 3677POPC   PO448444   0.571  41.720   5.406
 3677POPC   GL148445   0.492  41.484   5.780
 3677POPC   GL248446   0.294  41.795   5.837
 3677POPC   C1A48447   0.329  41.384   6.197
 3677POPC   D2A48448   0.154  41.558   6.571
 3677POPC   C3A48449   0.261  41.422   7.007
 3677POPC   C4A48450   0.334  41.303   7.435
 3677POPC   C1B48451   0.560  41.848   6.193
 3677POPC   C2B48452   0.669  41.652   6.564
 3677POPC   C3B48453   0.880  41.792   6.930
 3677POPC   C4B48454   0.622  41.712   7.253
 3678POPC   NC348455  38.198  44.932   5.433
 3678POPC   PO448456  38.292  44.183   5.474
 3678POPC   GL148457  38.501  44.454   5.827
 3678POPC   GL248458  38.648  44.770   5.807
 3678POPC   C1A48459  38.511  44.493   6.284
 3678POPC   D2A48460  38.245  44.680   6.616
 3678POPC   C3A48461  38.408  44.719   7.048
 3678POPC   C4A48462  38.187  44.567   7.429
 3678POPC   C1B48463  38.844  44.895   6.239
 3678POPC   C2B48464  39.077   0.033   6.649
 3678POPC   C3B48465  38.881  44.974   7.086
 3678POPC   C4B48466  38.624   0.233   7.364
 3679POPC   NC348467  41.319  24.649   4.988
 3679POPC   PO448468  41.678  24.255   5.457
 3679POPC   GL148469  41.513  24.490   5.875
 3679POPC   GL248470  41.153  24.680   5.982
 3679POPC   C1A48471  41.515  24.627   6.308
 3679POPC   D2A48472  41.513  24.869   6.641
 3679POPC   C3A48473  41.561  24.543   6.893
 3679POPC   C4A48474  41.648  24.350   7.256
 3679POPC   C1B48475  41.166  24.264   6.225
 3679POPC   C2B48476  41.299  24.128   6.670
 3679POPC   C3B48477  41.151  24.284   7.107
 3679POPC   C4B48478  41.121  24.586   7.486
 3680POPC   NC348479  42.877  25.006   5.391
 3680POPC   PO448480  43.224  25.553   5.228
 3680POPC   GL148481  43.199  25.497   5.687
 3680POPC   GL248482  42.861  25.348   5.781
 3680POPC   C1A48483  43.206  25.421   6.154
 3680POPC   D2A48484  43.360  25.267   6.534
 3680POPC   C3A48485  43.174  25.468   6.882
 3680POPC   C4A48486  42.989  25.278   7.201
 3680POPC   C1B48487  42.715  25.254   6.224
 3680POPC   C2B48488  42.863  25.128   6.640
 3680POPC   C3B48489  42.894  24.832   6.975
 3680POPC   C4B48490  42.752  24.865   7.407
 3681POPC   NC348491  20.216   6.251   5.727
 3681POPC   PO448492  19.646   6.386   5.356
 3681POPC   GL148493  19.682   6.647   5.726
 3681POPC   GL248494  19.999   6.690   5.783
 3681POPC   C1A48495  19.653   6.847   6.145
 3681POPC   D2A48496  19.563   6.776   6.578
 3681POPC   C3A48497  19.841   6.875   6.910
 3681POPC   C4A48498  19.916   6.554   7.215
 3681POPC   C1B48499  20.167   6.823   6.150
 3681POPC   C2B48500  20.051   6.579   6.488
 3681POPC   C3B48501  20.283   6.532   6.835
 3681POPC   C4B48502  20.307   6.860   7.150
 3682POPC   NC348503  30.113  21.341   5.388
 3682POPC   PO448504  29.517  21.585   5.449
 3682POPC   GL148505  29.777  21.415   5.777
 3682POPC   GL248506  29.951  21.724   5.771
 3682POPC   C1A48507  30.140  21.430   6.121
 3682POPC   D2A48508  30.289  21.387   6.557
 3682POPC   C3A48509  29.970  21.207   6.847
 3682POPC   C4A48510  29.858  21.346   7.265
 3682POPC   C1B48511  29.694  21.764   6.132
 3682POPC   C2B48512  29.724  21.539   6.535
 3682POPC   C3B48513  29.743  21.736   6.959
 3682POPC   C4B48514  29.586  21.726   7.413
 3683POPC   NC348515   9.603  40.556   5.373
 3683POPC   PO448516  10.046  40.978   5.693
 3683POPC   GL148517   9.878  40.764   5.976
 3683POPC   GL248518   9.556  40.613   5.892
 3683POPC   C1A48519  10.053  40.806   6.392
 3683POPC   D2A48520  10.189  40.808   6.826
 3683POPC   C3A48521   9.911  40.985   7.098
 3683POPC   C4A48522   9.891  40.584   7.259
 3683POPC   C1B48523   9.635  40.480   6.346
 3683POPC   C2B48524   9.675  40.650   6.776
 3683POPC   C3B48525   9.411  40.750   7.157
 3683POPC   C4B48526   9.128  40.983   7.470
 3684POPC   NC348527  20.355  44.332   5.511
 3684POPC   PO448528  20.729  44.909   5.276
 3684POPC   GL148529  20.666  44.701   5.702
 3684POPC   GL248530  20.300  44.763   5.780
 3684POPC   C1A48531  20.773  44.421   6.081
 3684POPC   D2A48532  21.025  44.424   6.461
 3684POPC   C3A48533  20.826  44.610   6.807
 3684POPC   C4A48534  20.763  44.719   7.211
 3684POPC   C1B48535  20.269  44.548   6.183
 3684POPC   C2B48536  20.275  44.726   6.609
 3684POPC   C3B48537  20.339  44.514   6.983
 3684POPC   C4B48538  20.359  44.520   7.422
 3685POPC   NC348539  19.318   3.139   5.408
 3685POPC   PO448540  19.689   2.668   5.069
 3685POPC   GL148541  19.699   2.895   5.601
 3685POPC   GL248542  19.930   2.700   5.846
 3685POPC   C1A48543  19.529   2.905   6.066
 3685POPC   D2A48544  19.381   2.682   6.454
 3685POPC   C3A48545  19.581   2.762   6.876
 3685POPC   C4A48546  19.603   2.510   7.275
 3685POPC   C1B48547  19.891   2.540   6.244
 3685POPC   C2B48548  20.133   2.605   6.589
 3685POPC   C3B48549  20.046   2.510   6.976
 3685POPC   C4B48550  20.023   2.789   7.302
 3686POPC   NC348551  28.043  35.468   5.411
 3686POPC   PO448552  28.595  35.162   5.348
 3686POPC   GL148553  28.394  35.246   5.744
 3686POPC   GL248554  28.115  35.009   5.707
 3686POPC   C1A48555  28.274  35.506   6.126
 3686POPC   D2A48556  28.454  35.639   6.542
 3686POPC   C3A48557  28.364  35.481   6.952
 3686POPC   C4A48558  28.350  35.580   7.401
 3686POPC   C1B48559  28.271  34.971   6.160
 3686POPC   C2B48560  28.354  35.031   6.585
 3686POPC   C3B48561  28.139  35.019   6.996
 3686POPC   C4B48562  28.339  35.055   7.398
 3687POPC   NC348563  27.107  39.326   5.388
 3687POPC   PO448564  27.760  39.248   5.339
 3687POPC   GL148565  27.408  39.140   5.736
 3687POPC   GL248566  27.189  39.454   5.874
 3687POPC   C1A48567  27.310  39.070   6.199
 3687POPC   D2A48568  27.470  39.245   6.627
 3687POPC   C3A48569  27.929  39.208   6.777
 3687POPC   C4A48570  27.909  39.008   7.189
 3687POPC   C1B48571  27.435  39.591   6.248
 3687POPC   C2B48572  27.822  39.673   6.516
 3687POPC   C3B48573  27.800  39.656   6.969
 3687POPC   C4B48574  27.461  39.398   7.142
 3688POPC   NC348575  40.413   5.644   5.407
 3688POPC   PO448576  41.044   5.802   5.477
 3688POPC   GL148577  40.852   5.954   5.802
 3688POPC   GL248578  40.524   6.021   5.789
 3688POPC   C1A48579  40.952   5.841   6.178
 3688POPC   D2A48580  41.073   5.954   6.543
 3688POPC   C3A48581  40.934   5.696   6.841
 3688POPC   C4A48582  40.810   5.508   7.205
 3688POPC   C1B48583  40.571   6.185   6.216
 3688POPC   C2B48584  40.580   6.058   6.638
 3688POPC   C3B48585  40.425   5.735   6.900
 3688POPC   C4B48586  40.416   5.842   7.292
 3689POPC   NC348587  23.053  40.495   5.444
 3689POPC   PO448588  22.986  41.128   5.150
 3689POPC   GL148589  23.035  41.010   5.639
 3689POPC   GL248590  22.834  40.727   5.802
 3689POPC   C1A48591  23.044  40.978   6.160
 3689POPC   D2A48592  23.190  40.776   6.577
 3689POPC   C3A48593  23.016  40.887   7.014
 3689POPC   C4A48594  22.650  41.092   7.285
 3689POPC   C1B48595  23.036  40.465   6.163
 3689POPC   C2B48596  22.844  40.391   6.599
 3689POPC   C3B48597  23.047  40.307   7.003
 3689POPC   C4B48598  23.279  40.452   7.349
 3690POPC   NC348599  14.261  13.601   5.214
 3690POPC   PO448600  14.424  14.172   5.489
 3690POPC   GL148601  14.354  13.850   5.775
 3690POPC   GL248602  14.567  13.568   5.784
 3690POPC   C1A48603  14.303  13.883   6.215
 3690POPC   D2A48604  14.219  13.667   6.607
 3690POPC   C3A48605  14.361  13.795   7.030
 3690POPC   C4A48606  14.677  13.727   7.346
 3690POPC   C1B48607  14.415  13.351   6.187
 3690POPC   C2B48608  14.458  13.221   6.645
 3690POPC   C3B48609  14.560  13.284   7.090
 3690POPC   C4B48610  14.618  13.227   7.527
 3691POPC   NC348611  33.886  21.448   5.466
 3691POPC   PO448612  33.330  21.009   5.505
 3691POPC   GL148613  33.635  21.171   5.841
 3691POPC   GL248614  34.004  21.069   5.823
 3691POPC   C1A48615  33.841  21.492   6.126
 3691POPC   D2A48616  34.027  21.558   6.551
 3691POPC   C3A48617  33.691  21.530   6.872
 3691POPC   C4A48618  33.692  21.604   7.343
 3691POPC   C1B48619  34.187  21.136   6.255
 3691POPC   C2B48620  34.122  21.062   6.715
 3691POPC   C3B48621  33.930  21.164   7.129
 3691POPC   C4B48622  33.974  21.182   7.587
 3692POPC   NC348623  34.454  19.339   5.318
 3692POPC   PO448624  34.814  18.795   5.289
 3692POPC   GL148625  34.764  19.106   5.655
 3692POPC   GL248626  34.405  19.025   5.794
 3692POPC   C1A48627  34.692  19.322   6.090
 3692POPC   D2A48628  34.706  19.132   6.512
 3692POPC   C3A48629  34.835  19.242   6.912
 3692POPC   C4A48630  34.532  18.983   7.138
 3692POPC   C1B48631  34.294  18.927   6.258
 3692POPC   C2B48632  34.194  18.808   6.718
 3692POPC   C3B48633  34.090  18.723   7.167
 3692POPC   C4B48634  34.231  18.929   7.547
 3693POPC   NC348635   0.343   3.645   5.507
 3693POPC   PO448636   0.748   3.105   5.436
 3693POPC   GL148637   0.472   3.270   5.819
 3693POPC   GL248638   0.638   3.184   6.111
 3693POPC   C1A48639   0.416   3.677   6.132
 3693POPC   D2A48640   0.496   3.819   6.575
 3693POPC   C3A48641   0.292   3.790   6.985
 3693POPC   C4A48642   0.464   3.722   7.412
 3693POPC   C1B48643   0.290   3.251   6.335
 3693POPC   C2B48644   0.198   3.366   6.715
 3693POPC   C3B48645   0.558   3.380   6.916
 3693POPC   C4B48646   0.655   3.256   7.280
 3694POPC   NC348647  17.507  24.142   5.425
 3694POPC   PO448648  17.193  23.505   5.358
 3694POPC   GL148649  17.354  23.437   5.765
 3694POPC   GL248650  17.539  23.754   5.792
 3694POPC   C1A48651  17.382  23.514   6.198
 3694POPC   D2A48652  17.481  23.592   6.584
 3694POPC   C3A48653  17.220  23.527   6.903
 3694POPC   C4A48654  17.459  23.434   7.260
 3694POPC   C1B48655  17.668  23.947   6.204
 3694POPC   C2B48656  17.543  24.088   6.635
 3694POPC   C3B48657  17.641  23.873   7.030
 3694POPC   C4B48658  17.818  24.001   7.433
 3695POPC   NC348659  13.235  40.555   5.490
 3695POPC   PO448660  13.873  40.394   5.322
 3695POPC   GL148661  13.883  40.621   5.766
 3695POPC   GL248662  13.563  40.751   5.848
 3695POPC   C1A48663  13.840  40.511   6.232
 3695POPC   D2A48664  13.549  40.514   6.605
 3695POPC   C3A48665  13.650  40.681   7.013
 3695POPC   C4A48666  13.688  40.809   7.442
 3695POPC   C1B48667  13.454  40.884   6.280
 3695POPC   C2B48668  13.576  41.101   6.679
 3695POPC   C3B48669  13.771  41.224   7.083
 3695POPC   C4B48670  13.642  41.310   7.538
 3696POPC   NC348671  39.362  36.582   5.081
 3696POPC   PO448672  39.066  36.961   5.539
 3696POPC   GL148673  39.335  36.989   5.832
 3696POPC   GL248674  39.261  36.651   5.938
 3696POPC   C1A48675  39.215  37.022   6.257
 3696POPC   D2A48676  39.236  36.643   6.492
 3696POPC   C3A48677  39.342  36.871   6.836
 3696POPC   C4A48678  39.400  36.962   7.233
 3696POPC   C1B48679  38.852  36.664   6.138
 3696POPC   C2B48680  38.722  36.703   6.557
 3696POPC   C3B48681  38.937  36.581   6.933
 3696POPC   C4B48682  38.895  36.752   7.321
 3697POPC   NC348683  28.687  29.869   5.458
 3697POPC   PO448684  28.096  29.450   5.504
 3697POPC   GL148685  28.194  29.780   5.848
 3697POPC   GL248686  28.536  29.891   5.931
 3697POPC   C1A48687  28.197  29.951   6.307
 3697POPC   D2A48688  28.123  29.840   6.767
 3697POPC   C3A48689  28.146  30.115   7.117
 3697POPC   C4A48690  28.476  30.336   7.342
 3697POPC   C1B48691  28.475  29.538   6.207
 3697POPC   C2B48692  28.636  29.516   6.620
 3697POPC   C3B48693  28.541  29.670   7.007
 3697POPC   C4B48694  28.244  29.609   7.258
 3698POPC   NC348695   2.114  31.295   5.481
 3698POPC   PO448696   1.662  31.717   5.548
 3698POPC   GL148697   1.947  31.584   5.889
 3698POPC   GL248698   2.126  31.252   5.977
 3698POPC   C1A48699   1.814  31.548   6.302
 3698POPC   D2A48700   1.576  31.738   6.608
 3698POPC   C3A48701   1.902  31.663   6.880
 3698POPC   C4A48702   2.153  31.679   7.210
 3698POPC   C1B48703   1.939  31.032   6.319
 3698POPC   C2B48704   1.862  31.179   6.719
 3698POPC   C3B48705   1.974  31.183   7.128
 3698POPC   C4B48706   2.404  31.246   7.239
 3699POPC   NC348707  41.509  14.857   5.598
 3699POPC   PO448708  41.201  14.312   5.342
 3699POPC   GL148709  41.456  14.266   5.745
 3699POPC   GL248710  41.722  14.479   5.894
 3699POPC   C1A48711  41.553  14.080   6.165
 3699POPC   D2A48712  41.626  14.311   6.530
 3699POPC   C3A48713  41.631  14.140   6.934
 3699POPC   C4A48714  41.448  14.226   7.314
 3699POPC   C1B48715  41.949  14.742   6.189
 3699POPC   C2B48716  41.827  14.916   6.594
 3699POPC   C3B48717  41.783  14.630   6.919
 3699POPC   C4B48718  41.807  14.579   7.355
 3700POPC   NC348719  27.329   4.545   5.422
 3700POPC   PO448720  27.806   4.120   5.434
 3700POPC   GL148721  27.758   4.415   5.766
 3700POPC   GL248722  27.488   4.286   5.837
 3700POPC   C1A48723  27.653   4.581   6.222
 3700POPC   D2A48724  27.705   4.799   6.637
 3700POPC   C3A48725  27.995   4.589   6.947
 3700POPC   C4A48726  27.904   4.216   7.183
 3700POPC   C1B48727  27.475   4.049   6.206
 3700POPC   C2B48728  27.353   3.982   6.649
 3700POPC   C3B48729  27.408   4.202   7.043
 3700POPC   C4B48730  27.512   4.655   7.087
 3701POPC   NC348731  35.053  12.616   5.269
 3701POPC   PO448732  34.415  12.836   5.385
 3701POPC   GL148733  34.597  12.763   5.784
 3701POPC   GL248734  34.602  13.103   5.844
 3701POPC   C1A48735  34.659  12.735   6.243
 3701POPC   D2A48736  34.804  12.883   6.643
 3701POPC   C3A48737  34.695  12.743   7.056
 3701POPC   C4A48738  34.825  13.123   7.228
 3701POPC   C1B48739  34.311  13.105   6.194
 3701POPC   C2B48740  34.446  13.235   6.615
 3701POPC   C3B48741  34.345  13.087   6.995
 3701POPC   C4B48742  34.204  13.199   7.385
 3702POPC   NC348743   6.233  36.255   5.318
 3702POPC   PO448744   5.678  35.891   5.464
 3702POPC   GL148745   5.714  36.128   5.792
 3702POPC   GL248746   6.056  36.224   5.822
 3702POPC   C1A48747   5.760  35.980   6.198
 3702POPC   D2A48748   5.664  36.152   6.555
 3702POPC   C3A48749   5.758  35.941   6.917
 3702POPC   C4A48750   5.584  36.218   7.194
 3702POPC   C1B48751   6.156  36.267   6.287
 3702POPC   C2B48752   6.147  36.233   6.749
 3702POPC   C3B48753   6.105  36.346   7.197
 3702POPC   C4B48754   6.274  36.283   7.636
 3703POPC   NC348755  42.491  40.738   5.187
 3703POPC   PO448756  42.049  41.140   5.535
 3703POPC   GL148757  42.133  41.048   5.948
 3703POPC   GL248758  42.326  40.719   5.914
 3703POPC   C1A48759  42.360  40.998   6.342
 3703POPC   D2A48760  42.303  40.747   6.710
 3703POPC   C3A48761  42.526  40.843   7.097
 3703POPC   C4A48762  42.544  41.061   7.507
 3703POPC   C1B48763  42.585  40.527   6.256
 3703POPC   C2B48764  42.670  40.382   6.688
 3703POPC   C3B48765  42.812  40.422   7.118
 3703POPC   C4B48766  42.652  40.506   7.536
 3704POPC   NC348767  30.972  41.701   5.463
 3704POPC   PO448768  30.976  42.362   5.604
 3704POPC   GL148769  30.531  42.371   5.809
 3704POPC   GL248770  30.452  41.999   5.777
 3704POPC   C1A48771  30.398  42.557   6.215
 3704POPC   D2A48772  30.646  42.519   6.602
 3704POPC   C3A48773  30.471  42.621   7.011
 3704POPC   C4A48774  30.706  42.577   7.407
 3704POPC   C1B48775  30.677  42.097   6.211
 3704POPC   C2B48776  30.773  42.038   6.646
 3704POPC   C3B48777  30.891  42.295   7.002
 3704POPC   C4B48778  31.085  42.239   7.395
 3705POPC   NC348779  16.178  34.718   5.424
 3705POPC   PO448780  15.506  34.560   5.380
 3705POPC   GL148781  15.682  34.816   5.722
 3705POPC   GL248782  15.875  34.550   5.851
 3705POPC   C1A48783  15.864  34.919   6.170
 3705POPC   D2A48784  15.922  34.658   6.528
 3705POPC   C3A48785  15.868  34.815   6.941
 3705POPC   C4A48786  16.043  34.674   7.348
 3705POPC   C1B48787  16.088  34.311   6.179
 3705POPC   C2B48788  16.158  34.224   6.628
 3705POPC   C3B48789  15.904  34.302   7.012
 3705POPC   C4B48790  15.840  34.244   7.515
 3706POPC   NC348791   3.584   8.705   5.510
 3706POPC   PO448792   3.977   9.306   5.417
 3706POPC   GL148793   3.739   9.107   5.799
 3706POPC   GL248794   3.788   8.733   5.966
 3706POPC   C1A48795   3.587   9.094   6.242
 3706POPC   D2A48796   3.591   8.793   6.573
 3706POPC   C3A48797   3.505   9.092   6.869
 3706POPC   C4A48798   3.556   9.256   7.257
 3706POPC   C1B48799   3.330   8.672   6.123
 3706POPC   C2B48800   3.069   8.655   6.512
 3706POPC   C3B48801   3.167   8.541   6.934
 3706POPC   C4B48802   3.510   8.689   7.202
 3707POPC   NC348803  33.509  20.533   5.390
 3707POPC   PO448804  34.209  20.681   5.405
 3707POPC   GL148805  34.000  20.555   5.812
 3707POPC   GL248806  33.665  20.649   5.851
 3707POPC   C1A48807  33.939  20.701   6.275
 3707POPC   D2A48808  33.818  20.622   6.709
 3707POPC   C3A48809  34.133  20.653   7.051
 3707POPC   C4A48810  34.026  20.363   7.373
 3707POPC   C1B48811  33.355  20.730   6.138
 3707POPC   C2B48812  33.282  20.738   6.580
 3707POPC   C3B48813  33.517  20.993   6.878
 3707POPC   C4B48814  33.651  20.712   7.201
 3708POPC   NC348815   0.750  38.671   5.019
 3708POPC   PO448816   1.294  38.434   5.411
 3708POPC   GL148817   1.157  38.424   5.826
 3708POPC   GL248818   1.313  38.753   5.831
 3708POPC   C1A48819   1.336  38.419   6.236
 3708POPC   D2A48820   1.636  38.536   6.539
 3708POPC   C3A48821   1.515  38.251   6.849
 3708POPC   C4A48822   1.256  38.264   7.201
 3708POPC   C1B48823   1.360  38.917   6.233
 3708POPC   C2B48824   1.196  38.801   6.624
 3708POPC   C3B48825   1.031  38.682   7.021
 3708POPC   C4B48826   1.181  38.699   7.436
 3709POPC   NC348827  11.810  30.890   5.528
 3709POPC   PO448828  12.247  30.432   5.356
 3709POPC   GL148829  11.959  30.439   5.719
 3709POPC   GL248830  12.230  30.653   5.824
 3709POPC   C1A48831  11.869  30.541   6.180
 3709POPC   D2A48832  11.657  30.474   6.592
 3709POPC   C3A48833  11.653  30.797   6.921
 3709POPC   C4A48834  11.787  30.877   7.331
 3709POPC   C1B48835  12.359  30.787   6.228
 3709POPC   C2B48836  12.136  30.722   6.626
 3709POPC   C3B48837  12.093  30.566   7.048
 3709POPC   C4B48838  12.283  30.886   7.329
 3710POPC   NC348839  37.053  39.630   5.510
 3710POPC   PO448840  36.622  39.096   5.600
 3710POPC   GL148841  36.781  39.210   5.974
 3710POPC   GL248842  37.103  39.241   5.848
 3710POPC   C1A48843  36.971  39.476   6.291
 3710POPC   D2A48844  36.887  39.686   6.679
 3710POPC   C3A48845  36.860  39.396   7.012
 3710POPC   C4A48846  36.837  39.326   7.425
 3710POPC   C1B48847  37.335  39.093   6.197
 3710POPC   C2B48848  37.242  39.165   6.614
 3710POPC   C3B48849  37.185  38.989   6.988
 3710POPC   C4B48850  37.325  39.199   7.306
 3711POPC   NC348851  24.083   2.182   5.368
 3711POPC   PO448852  24.842   2.030   5.363
 3711POPC   GL148853  24.623   1.977   5.780
 3711POPC   GL248854  24.325   2.181   5.814
 3711POPC   C1A48855  24.444   1.868   6.216
 3711POPC   D2A48856  24.456   1.686   6.661
 3711POPC   C3A48857  24.532   1.862   7.092
 3711POPC   C4A48858  24.666   1.679   7.519
 3711POPC   C1B48859  24.234   2.353   6.210
 3711POPC   C2B48860  24.049   2.254   6.611
 3711POPC   C3B48861  24.255   2.296   6.997
 3711POPC   C4B48862  24.188   2.374   7.435
 3712POPC   NC348863   0.863  38.710   5.510
 3712POPC   PO448864   0.408  38.342   5.084
 3712POPC   GL148865   0.447  38.285   5.596
 3712POPC   GL248866   0.494  38.564   5.829
 3712POPC   C1A48867   0.469  38.121   6.083
 3712POPC   D2A48868   0.563  38.003   6.538
 3712POPC   C3A48869   0.335  38.162   6.902
 3712POPC   C4A48870   0.253  38.212   7.369
 3712POPC   C1B48871   0.763  38.564   6.218
 3712POPC   C2B48872   0.685  38.717   6.649
 3712POPC   C3B48873   0.534  38.612   7.082
 3712POPC   C4B48874   0.750  38.385   7.370
 3713POPC   NC348875  38.731  31.806   5.359
 3713POPC   PO448876  38.296  32.394   5.427
 3713POPC   GL148877  38.522  32.334   5.838
 3713POPC   GL248878  38.732  32.013   5.820
 3713POPC   C1A48879  38.468  32.413   6.291
 3713POPC   D2A48880  38.479  32.465   6.727
 3713POPC   C3A48881  38.253  32.187   6.958
 3713POPC   C4A48882  38.425  31.849   7.122
 3713POPC   C1B48883  38.899  32.127   6.198
 3713POPC   C2B48884  38.735  32.041   6.598
 3713POPC   C3B48885  38.840  32.193   6.976
 3713POPC   C4B48886  38.636  32.506   7.209
 3714POPC   NC348887  40.693  20.610   5.504
 3714POPC   PO448888  41.378  20.516   5.478
 3714POPC   GL148889  41.197  20.807   5.776
 3714POPC   GL248890  40.904  20.698   5.951
 3714POPC   C1A48891  41.301  20.852   6.224
 3714POPC   D2A48892  41.231  20.578   6.585
 3714POPC   C3A48893  40.866  20.700   6.857
 3714POPC   C4A48894  40.790  20.744   7.347
 3714POPC   C1B48895  40.573  20.432   6.131
 3714POPC   C2B48896  40.436  20.561   6.528
 3714POPC   C3B48897  40.496  20.380   6.916
 3714POPC   C4B48898  40.348  20.456   7.271
 3715POPC   NC348899  44.227  39.034   5.555
 3715POPC   PO448900  43.858  39.564   5.378
 3715POPC   GL148901  43.811  39.386   5.828
 3715POPC   GL248902  43.575  39.120   5.980
 3715POPC   C1A48903  43.989  39.250   6.252
 3715POPC   D2A48904  43.985  39.359   6.697
 3715POPC   C3A48905  43.999  39.337   7.137
 3715POPC   C4A48906  44.152  39.491   7.518
 3715POPC   C1B48907  43.497  39.426   6.258
 3715POPC   C2B48908  43.447  39.301   6.621
 3715POPC   C3B48909  43.506  39.328   6.998
 3715POPC   C4B48910  43.413  39.076   7.293
 3716POPC   NC348911  20.237   7.422   5.463
 3716POPC   PO448912  20.854   7.648   5.402
 3716POPC   GL148913  20.656   7.467   5.745
 3716POPC   GL248914  20.765   7.131   5.740
 3716POPC   C1A48915  20.414   7.313   6.109
 3716POPC   D2A48916  20.544   7.432   6.525
 3716POPC   C3A48917  20.307   7.305   6.872
 3716POPC   C4A48918  20.402   7.341   7.287
 3716POPC   C1B48919  20.920   7.295   6.158
 3716POPC   C2B48920  21.021   7.180   6.578
 3716POPC   C3B48921  20.939   7.399   6.977
 3716POPC   C4B48922  20.868   7.227   7.397
 3717POPC   NC348923  11.596  38.469   5.576
 3717POPC   PO448924  11.126  38.872   5.396
 3717POPC   GL148925  11.162  38.602   5.795
 3717POPC   GL248926  11.079  38.272   5.790
 3717POPC   C1A48927  11.350  38.543   6.219
 3717POPC   D2A48928  11.325  38.769   6.629
 3717POPC   C3A48929  11.342  38.515   7.007
 3717POPC   C4A48930  11.493  38.138   7.137
 3717POPC   C1B48931  10.954  38.225   6.194
 3717POPC   C2B48932  11.140  38.238   6.596
 3717POPC   C3B48933  10.964  38.170   6.983
 3717POPC   C4B48934  11.032  37.901   7.319
 3718POPC   NC348935  19.677  11.272   5.424
 3718POPC   PO448936  20.223  11.645   5.435
 3718POPC   GL148937  20.164  11.229   5.684
 3718POPC   GL248938  19.838  11.110   5.873
 3718POPC   C1A48939  20.283  11.051   6.108
 3718POPC   D2A48940  20.026  10.978   6.515
 3718POPC   C3A48941  20.131  11.050   6.954
 3718POPC   C4A48942  20.032  11.386   7.307
 3718POPC   C1B48943  19.545  10.959   6.209
 3718POPC   C2B48944  19.522  10.929   6.671
 3718POPC   C3B48945  19.625  11.174   7.062
 3718POPC   C4B48946  19.655  11.074   7.519
 3719POPC   NC348947  35.142  44.221   5.552
 3719POPC   PO448948  35.547  43.745   5.345
 3719POPC   GL148949  35.513  43.828   5.787
 3719POPC   GL248950  35.172  43.798   5.870
 3719POPC   C1A48951  35.564  43.838   6.257
 3719POPC   D2A48952  35.300  43.733   6.646
 3719POPC   C3A48953  35.501  43.659   7.061
 3719POPC   C4A48954  35.647  44.071   7.215
 3719POPC   C1B48955  35.099  44.058   6.256
 3719POPC   C2B48956  34.990  44.129   6.700
 3719POPC   C3B48957  35.096  43.970   7.134
 3719POPC   C4B48958  34.859  44.052   7.518
 3720POPC   NC348959  33.356  11.659   5.438
 3720POPC   PO448960  32.895  12.142   5.177
 3720POPC   GL148961  33.003  12.000   5.638
 3720POPC   GL248962  33.368  12.069   5.740
 3720POPC   C1A48963  32.937  11.858   6.107
 3720POPC   D2A48964  33.030  12.055   6.528
 3720POPC   C3A48965  33.006  11.935   6.980
 3720POPC   C4A48966  32.650  11.932   7.260
 3720POPC   C1B48967  33.453  11.970   6.166
 3720POPC   C2B48968  33.523  12.127   6.592
 3720POPC   C3B48969  33.262  12.369   6.886
 3720POPC   C4B48970  33.398  12.156   7.267
 3721POPC   NC348971  28.824  30.884   5.116
 3721POPC   PO448972  29.290  30.575   5.563
 3721POPC   GL148973  29.259  30.855   5.836
 3721POPC   GL248974  28.941  30.968   5.801
 3721POPC   C1A48975  29.175  30.724   6.247
 3721POPC   D2A48976  29.415  30.574   6.582
 3721POPC   C3A48977  29.117  30.592   6.868
 3721POPC   C4A48978  29.004  30.379   7.210
 3721POPC   C1B48979  28.905  31.144   6.214
 3721POPC   C2B48980  28.752  31.131   6.657
 3721POPC   C3B48981  28.979  31.076   7.052
 3721POPC   C4B48982  29.303  30.850   7.254
 3722POPC   NC348983  37.914  25.465   5.501
 3722POPC   PO448984  37.818  24.812   5.353
 3722POPC   GL148985  37.891  25.000   5.752
 3722POPC   GL248986  37.528  25.024   5.817
 3722POPC   C1A48987  37.941  25.193   6.156
 3722POPC   D2A48988  37.673  25.105   6.507
 3722POPC   C3A48989  37.762  25.003   6.941
 3722POPC   C4A48990  37.794  25.290   7.289
 3722POPC   C1B48991  37.459  25.399   6.072
 3722POPC   C2B48992  37.373  25.524   6.484
 3722POPC   C3B48993  37.422  25.412   6.912
 3722POPC   C4B48994  37.424  25.680   7.266
 3723POPC   NC348995  35.875  17.058   5.548
 3723POPC   PO448996  35.551  16.512   5.539
 3723POPC   GL148997  35.815  16.669   5.896
 3723POPC   GL248998  36.105  16.469   6.038
 3723POPC   C1A48999  36.014  16.935   6.239
 3723POPC   D2A49000  35.975  16.758   6.656
 3723POPC   C3A49001  35.904  16.987   7.017
 3723POPC   C4A49002  36.190  16.807   7.284
 3723POPC   C1B49003  36.502  16.282   6.194
 3723POPC   C2B49004  36.598  16.155   6.635
 3723POPC   C3B49005  36.355  16.381   6.980
 3723POPC   C4B49006  36.303  16.325   7.437
 3724POPC   NC349007  43.222  37.363   5.285
 3724POPC   PO449008  42.936  37.998   5.385
 3724POPC   GL149009  43.061  37.647   5.690
 3724POPC   GL249010  43.445  37.546   5.701
 3724POPC   C1A49011  43.130  37.535   6.142
 3724POPC   D2A49012  43.051  37.393   6.589
 3724POPC   C3A49013  43.091  37.699   6.925
 3724POPC   C4A49014  42.790  38.005   7.060
 3724POPC   C1B49015  43.570  37.287   6.046
 3724POPC   C2B49016  43.722  37.291   6.475
 3724POPC   C3B49017  43.503  37.372   6.840
 3724POPC   C4B49018  43.292  37.301   7.216
 3725POPC   NC349019  26.551   7.673   5.550
 3725POPC   PO449020  27.055   7.283   5.455
 3725POPC   GL149021  26.826   7.334   5.822
 3725POPC   GL249022  27.003   7.622   5.927
 3725POPC   C1A49023  26.595   7.461   6.201
 3725POPC   D2A49024  26.325   7.246   6.512
 3725POPC   C3A49025  26.525   7.205   6.908
 3725POPC   C4A49026  26.691   7.539   7.166
 3725POPC   C1B49027  27.075   7.288   6.276
 3725POPC   C2B49028  26.994   7.364   6.751
 3725POPC   C3B49029  27.204   7.452   7.178
 3725POPC   C4B49030  27.104   7.214   7.568
 3726POPC   NC349031  38.139  20.387   5.418
 3726POPC   PO449032  37.532  20.857   5.433
 3726POPC   GL149033  37.795  20.856   5.776
 3726POPC   GL249034  37.862  20.508   5.832
 3726POPC   C1A49035  37.819  20.870   6.223
 3726POPC   D2A49036  37.464  20.807   6.496
 3726POPC   C3A49037  37.647  20.589   6.821
 3726POPC   C4A49038  37.867  20.658   7.173
 3726POPC   C1B49039  37.671  20.374   6.243
 3726POPC   C2B49040  37.675  20.127   6.616
 3726POPC   C3B49041  37.840  20.152   7.031
 3726POPC   C4B49042  37.508  20.331   7.281
 3727POPC   NC349043  15.460  20.742   5.481
 3727POPC   PO449044  14.955  20.264   5.689
 3727POPC   GL149045  15.328  20.400   5.842
 3727POPC   GL249046  15.160  20.715   5.921
 3727POPC   C1A49047  15.603  20.499   6.190
 3727POPC   D2A49048  15.660  20.314   6.600
 3727POPC   C3A49049  15.436  20.498   6.933
 3727POPC   C4A49050  15.305  20.401   7.377
 3727POPC   C1B49051  15.092  20.454   6.296
 3727POPC   C2B49052  15.082  20.246   6.653
 3727POPC   C3B49053  14.921  20.422   7.030
 3727POPC   C4B49054  15.108  20.843   7.148
 3728POPC   NC349055   0.002   1.065   5.179
 3728POPC   PO449056   0.502   1.417   5.345
 3728POPC   GL149057   0.465   1.385   5.866
 3728POPC   GL249058   0.661   1.221   6.109
 3728POPC   C1A49059   0.237   1.371   6.321
 3728POPC   D2A49060   0.352   1.106   6.697
 3728POPC   C3A49061   0.540   1.223   7.061
 3728POPC   C4A49062   0.777   1.340   7.449
 3728POPC   C1B49063   0.281   0.863   6.255
 3728POPC   C2B49064   0.098   0.660   6.666
 3728POPC   C3B49065   0.123   0.861   7.132
 3728POPC   C4B49066   0.007   0.871   7.601
 3729POPC   NC349067   2.876  41.530   5.467
 3729POPC   PO449068   2.222  41.297   5.599
 3729POPC   GL149069   2.497  41.484   5.842
 3729POPC   GL249070   2.364  41.766   5.959
 3729POPC   C1A49071   2.528  41.387   6.262
 3729POPC   D2A49072   2.656  41.565   6.635
 3729POPC   C3A49073   2.763  41.363   6.979
 3729POPC   C4A49074   2.488  41.166   7.229
 3729POPC   C1B49075   2.667  41.905   6.248
 3729POPC   C2B49076   2.728  42.059   6.690
 3729POPC   C3B49077   2.697  41.857   7.084
 3729POPC   C4B49078   3.042  41.727   7.279
 3730POPC   NC349079  13.911   3.458   5.255
 3730POPC   PO449080  13.264   3.692   5.469
 3730POPC   GL149081  13.573   3.549   5.729
 3730POPC   GL249082  13.898   3.729   5.727
 3730POPC   C1A49083  13.477   3.581   6.162
 3730POPC   D2A49084  13.653   3.768   6.539
 3730POPC   C3A49085  13.485   3.566   6.886
 3730POPC   C4A49086  13.478   3.659   7.320
 3730POPC   C1B49087  13.975   3.625   6.160
 3730POPC   C2B49088  13.816   3.298   6.480
 3730POPC   C3B49089  13.901   3.272   6.937
 3730POPC   C4B49090  14.234   3.367   7.226
 3731POPC   NC349091  23.935  15.331   5.491
 3731POPC   PO449092  23.682  14.721   5.474
 3731POPC   GL149093  23.748  14.976   5.823
 3731POPC   GL249094  23.530  15.306   5.801
 3731POPC   C1A49095  23.921  15.058   6.233
 3731POPC   D2A49096  24.036  15.101   6.661
 3731POPC   C3A49097  23.720  15.368   6.866
 3731POPC   C4A49098  23.583  15.271   7.268
 3731POPC   C1B49099  23.405  15.110   6.192
 3731POPC   C2B49100  23.556  14.926   6.577
 3731POPC   C3B49101  23.699  14.851   6.983
 3731POPC   C4B49102  23.423  14.620   7.247
 3732POPC   NC349103  43.592   6.515   5.327
 3732POPC   PO449104  43.023   6.932   5.215
 3732POPC   GL149105  43.063   6.766   5.740
 3732POPC   GL249106  43.392   6.602   5.816
 3732POPC   C1A49107  42.777   6.811   6.180
 3732POPC   D2A49108  42.759   7.016   6.631
 3732POPC   C3A49109  42.799   6.759   7.048
 3732POPC   C4A49110  43.053   6.427   7.222
 3732POPC   C1B49111  43.235   6.644   6.264
 3732POPC   C2B49112  43.253   6.479   6.676
 3732POPC   C3B49113  43.514   6.496   7.030
 3732POPC   C4B49114  43.325   6.867   7.169
 3733POPC   NC349115  13.227  23.832   5.444
 3733POPC   PO449116  13.929  23.674   5.417
 3733POPC   GL149117  13.738  23.929   5.770
 3733POPC   GL249118  13.404  24.047   5.859
 3733POPC   C1A49119  13.763  24.025   6.197
 3733POPC   D2A49120  13.531  23.849   6.521
 3733POPC   C3A49121  13.609  23.954   6.912
 3733POPC   C4A49122  13.775  23.606   7.100
 3733POPC   C1B49123  13.341  23.640   6.076
 3733POPC   C2B49124  13.308  23.377   6.452
 3733POPC   C3B49125  13.305  23.515   6.882
 3733POPC   C4B49126  13.298  23.720   7.266
 3734POPC   NC349127  23.394  16.271   5.615
 3734POPC   PO449128  23.598  15.682   5.360
 3734POPC   GL149129  23.614  15.829   5.761
 3734POPC   GL249130  23.942  15.944   5.706
 3734POPC   C1A49131  23.515  15.984   6.175
 3734POPC   D2A49132  23.600  15.730   6.490
 3734POPC   C3A49133  23.677  15.959   6.809
 3734POPC   C4A49134  23.642  15.787   7.192
 3734POPC   C1B49135  24.025  15.913   6.146
 3734POPC   C2B49136  24.106  16.104   6.567
 3734POPC   C3B49137  24.128  15.925   6.992
 3734POPC   C4B49138  24.101  15.703   7.413
 3735POPC   NC349139  28.314  40.282   5.347
 3735POPC   PO449140  28.660  39.682   5.393
 3735POPC   GL149141  28.318  39.809   5.705
 3735POPC   GL249142  28.377  40.169   5.863
 3735POPC   C1A49143  28.275  39.771   6.168
 3735POPC   D2A49144  28.386  40.061   6.469
 3735POPC   C3A49145  28.304  39.980   6.894
 3735POPC   C4A49146  28.218  39.737   7.254
 3735POPC   C1B49147  28.713  40.339   6.166
 3735POPC   C2B49148  28.726  40.443   6.613
 3735POPC   C3B49149  28.637  40.395   7.035
 3735POPC   C4B49150  28.251  40.373   7.208
 3736POPC   NC349151  23.460  19.431   5.460
 3736POPC   PO449152  23.592  20.031   5.310
 3736POPC   GL149153  23.638  19.865   5.690
 3736POPC   GL249154  23.427  20.120   5.840
 3736POPC   C1A49155  23.724  19.815   6.110
 3736POPC   D2A49156  23.550  19.965   6.471
 3736POPC   C3A49157  23.648  19.729   6.811
 3736POPC   C4A49158  23.734  19.774   7.258
 3736POPC   C1B49159  23.175  20.259   6.229
 3736POPC   C2B49160  23.113  20.114   6.686
 3736POPC   C3B49161  23.255  19.898   7.081
 3736POPC   C4B49162  23.413  20.096   7.467
 3737POPC   NC349163  43.280  12.814   5.526
 3737POPC   PO449164  42.611  12.559   5.449
 3737POPC   GL149165  42.898  12.630   5.781
 3737POPC   GL249166  42.891  13.013   5.794
 3737POPC   C1A49167  43.157  12.705   6.156
 3737POPC   D2A49168  43.018  12.687   6.566
 3737POPC   C3A49169  43.272  12.729   6.905
 3737POPC   C4A49170  43.012  12.742   7.269
 3737POPC   C1B49171  43.095  13.242   6.148
 3737POPC   C2B49172  43.153  13.227   6.598
 3737POPC   C3B49173  42.851  13.076   6.905
 3737POPC   C4B49174  42.799  13.236   7.329
 3738POPC   NC349175  11.909  24.888   5.260
 3738POPC   PO449176  11.969  24.256   5.373
 3738POPC   GL149177  12.088  24.377   5.798
 3738POPC   GL249178  12.434  24.471   5.848
 3738POPC   C1A49179  11.894  24.567   6.175
 3738POPC   D2A49180  12.067  24.433   6.575
 3738POPC   C3A49181  11.819  24.370   6.938
 3738POPC   C4A49182  11.998  24.205   7.313
 3738POPC   C1B49183  12.374  24.717   6.239
 3738POPC   C2B49184  12.163  24.948   6.554
 3738POPC   C3B49185  12.116  24.813   6.958
 3738POPC   C4B49186  12.410  24.668   7.241
 3739POPC   NC349187  33.959  12.724   5.238
 3739POPC   PO449188  33.860  12.011   5.403
 3739POPC   GL149189  33.846  11.857   5.804
 3739POPC   GL249190  33.871  12.216   5.887
 3739POPC   C1A49191  33.972  11.860   6.248
 3739POPC   D2A49192  34.086  12.218   6.497
 3739POPC   C3A49193  33.948  12.127   6.888
 3739POPC   C4A49194  33.979  12.206   7.298
 3739POPC   C1B49195  33.700  12.421   6.218
 3739POPC   C2B49196  33.742  12.587   6.633
 3739POPC   C3B49197  33.693  12.540   7.070
 3739POPC   C4B49198  33.667  12.518   7.518
 3740POPC   NC349199  27.757   5.428   5.614
 3740POPC   PO449200  27.699   4.818   5.396
 3740POPC   GL149201  27.642   4.910   5.831
 3740POPC   GL249202  27.315   4.807   5.875
 3740POPC   C1A49203  27.770   5.127   6.244
 3740POPC   D2A49204  27.877   5.321   6.671
 3740POPC   C3A49205  27.850   5.090   7.088
 3740POPC   C4A49206  28.066   4.927   7.482
 3740POPC   C1B49207  27.297   4.960   6.293
 3740POPC   C2B49208  27.382   5.212   6.630
 3740POPC   C3B49209  27.351   5.208   7.067
 3740POPC   C4B49210  27.103   4.903   7.282
 3741POPC   NC349211  33.840  25.996   5.327
 3741POPC   PO449212  33.440  25.839   5.481
 3741POPC   GL149213  33.764  25.909   5.829
 3741POPC   GL249214  33.791  26.254   5.899
 3741POPC   C1A49215  33.943  25.882   6.271
 3741POPC   D2A49216  33.739  25.934   6.703
 3741POPC   C3A49217  33.888  25.840   7.120
 3741POPC   C4A49218  33.684  25.886   7.528
 3741POPC   C1B49219  33.691  26.325   6.360
 3741POPC   C2B49220  33.799  26.445   6.785
 3741POPC   C3B49221  34.019  26.367   7.160
 3741POPC   C4B49222  33.864  26.417   7.581
 3742POPC   NC349223  14.642  36.974   5.191
 3742POPC   PO449224  14.068  36.660   5.352
 3742POPC   GL149225  14.398  36.778   5.638
 3742POPC   GL249226  14.329  37.108   5.618
 3742POPC   C1A49227  14.592  36.692   6.065
 3742POPC   D2A49228  14.510  36.867   6.480
 3742POPC   C3A49229  14.671  36.712   6.862
 3742POPC   C4A49230  14.459  36.866   7.203
 3742POPC   C1B49231  14.387  37.168   6.065
 3742POPC   C2B49232  14.236  37.298   6.460
 3742POPC   C3B49233  14.306  37.410   6.885
 3742POPC   C4B49234  14.194  37.352   7.279
 3743POPC   NC349235   8.891  35.899   5.383
 3743POPC   PO449236   8.618  36.567   5.518
 3743POPC   GL149237   8.949  36.326   5.781
 3743POPC   GL249238   9.324  36.412   5.884
 3743POPC   C1A49239   8.981  36.046   6.161
 3743POPC   D2A49240   9.109  36.048   6.607
 3743POPC   C3A49241   8.889  36.349   6.860
 3743POPC   C4A49242   8.682  36.156   7.206
 3743POPC   C1B49243   9.490  36.135   6.255
 3743POPC   C2B49244   9.506  35.721   6.537
 3743POPC   C3B49245   9.307  35.653   6.977
 3743POPC   C4B49246   9.155  35.895   7.387
 3744POPC   NC349247  18.841  24.758   5.516
 3744POPC   PO449248  19.384  24.527   5.623
 3744POPC   GL149249  19.064  24.529   5.914
 3744POPC   GL249250  18.921  24.276   5.701
 3744POPC   C1A49251  18.984  24.583   6.348
 3744POPC   D2A49252  19.173  24.603   6.755
 3744POPC   C3A49253  18.836  24.617   7.073
 3744POPC   C4A49254  18.738  24.462   7.480
 3744POPC   C1B49255  18.733  24.159   6.108
 3744POPC   C2B49256  18.973  24.104   6.478
 3744POPC   C3B49257  18.933  24.155   6.882
 3744POPC   C4B49258  19.207  24.268   7.193
 3745POPC   NC349259  37.262  36.238   5.596
 3745POPC   PO449260  37.810  35.767   5.558
 3745POPC   GL149261  37.788  36.166   5.849
 3745POPC   GL249262  38.114  36.268   5.937
 3745POPC   C1A49263  37.750  36.423   6.289
 3745POPC   D2A49264  37.370  36.541   6.579
 3745POPC   C3A49265  37.508  36.347   6.952
 3745POPC   C4A49266  37.968  36.369   7.011
 3745POPC   C1B49267  38.004  35.968   6.272
 3745POPC   C2B49268  37.951  35.851   6.710
 3745POPC   C3B49269  37.634  35.823   6.993
 3745POPC   C4B49270  37.326  35.947   7.238
 3746POPC   NC349271   1.048  32.836   5.498
 3746POPC   PO449272   1.368  33.441   5.443
 3746POPC   GL149273   1.322  33.251   5.830
 3746POPC   GL249274   1.162  32.968   5.982
 3746POPC   C1A49275   1.353  33.329   6.269
 3746POPC   D2A49276   1.134  33.047   6.578
 3746POPC   C3A49277   1.291  33.173   6.990
 3746POPC   C4A49278   1.357  33.218   7.468
 3746POPC   C1B49279   0.910  32.650   6.186
 3746POPC   C2B49280   0.980  32.361   6.538
 3746POPC   C3B49281   0.858  32.533   6.946
 3746POPC   C4B49282   1.093  32.775   7.219
 3747POPC   NC349283  11.954  15.294   5.303
 3747POPC   PO449284  12.542  15.057   5.346
 3747POPC   GL149285  12.249  15.120   5.715
 3747POPC   GL249286  11.930  15.348   5.804
 3747POPC   C1A49287  12.124  15.027   6.140
 3747POPC   D2A49288  12.237  14.905   6.547
 3747POPC   C3A49289  11.965  15.033   6.872
 3747POPC   C4A49290  11.974  15.177   7.262
 3747POPC   C1B49291  11.986  15.515   6.248
 3747POPC   C2B49292  11.921  15.501   6.710
 3747POPC   C3B49293  11.696  15.573   7.118
 3747POPC   C4B49294  11.756  15.546   7.585
 3748POPC   NC349295   9.739   6.388   5.408
 3748POPC   PO449296   9.730   7.153   5.398
 3748POPC   GL149297   9.769   6.883   5.780
 3748POPC   GL249298   9.527   6.592   5.815
 3748POPC   C1A49299   9.512   6.945   6.178
 3748POPC   D2A49300   9.445   6.741   6.549
 3748POPC   C3A49301   9.779   6.794   6.843
 3748POPC   C4A49302   9.730   6.781   7.281
 3748POPC   C1B49303   9.784   6.512   6.156
 3748POPC   C2B49304   9.830   6.370   6.538
 3748POPC   C3B49305   9.756   6.290   6.945
 3748POPC   C4B49306   9.519   6.314   7.284
 3749POPC   NC349307  30.831  12.484   5.482
 3749POPC   PO449308  31.195  11.922   5.492
 3749POPC   GL149309  30.971  11.915   5.895
 3749POPC   GL249310  30.641  11.836   5.782
 3749POPC   C1A49311  31.008  11.973   6.357
 3749POPC   D2A49312  31.059  12.305   6.679
 3749POPC   C3A49313  30.679  12.248   6.927
 3749POPC   C4A49314  30.817  11.837   7.102
 3749POPC   C1B49315  30.498  11.968   6.197
 3749POPC   C2B49316  30.538  11.821   6.646
 3749POPC   C3B49317  30.332  11.893   7.060
 3749POPC   C4B49318  30.500  12.049   7.442
 3750POPC   NC349319  18.372   4.684   5.538
 3750POPC   PO449320  18.378   5.430   5.559
 3750POPC   GL149321  18.476   5.113   5.778
 3750POPC   GL249322  18.167   5.033   5.901
 3750POPC   C1A49323  18.593   5.142   6.195
 3750POPC   D2A49324  18.294   5.091   6.530
 3750POPC   C3A49325  18.471   5.168   6.931
 3750POPC   C4A49326  18.570   4.912   7.322
 3750POPC   C1B49327  17.927   4.862   6.212
 3750POPC   C2B49328  17.842   4.817   6.617
 3750POPC   C3B49329  17.962   5.075   6.920
 3750POPC   C4B49330  18.090   5.073   7.271
 3751POPC   NC349331   0.391   4.644   5.512
 3751POPC   PO449332   0.693   4.000   5.506
 3751POPC   GL149333   0.321   4.150   5.807
 3751POPC   GL249334   0.336   4.502   5.992
 3751POPC   C1A49335   0.186   4.123   6.272
 3751POPC   D2A49336   0.439   4.411   6.531
 3751POPC   C3A49337   0.512   4.244   6.909
 3751POPC   C4A49338   0.624   4.244   7.307
 3751POPC   C1B49339   0.691   4.745   6.158
 3751POPC   C2B49340   0.695   4.884   6.571
 3751POPC   C3B49341   0.774   4.697   6.959
 3751POPC   C4B49342   0.679   4.852   7.336
 3752POPC   NC349343  34.944  40.815   5.449
 3752POPC   PO449344  35.572  40.526   5.650
 3752POPC   GL149345  35.303  40.805   5.804
 3752POPC   GL249346  35.009  40.675   5.948
 3752POPC   C1A49347  35.339  41.044   6.163
 3752POPC   D2A49348  35.539  41.105   6.567
 3752POPC   C3A49349  35.262  41.038   6.934
 3752POPC   C4A49350  35.423  40.968   7.324
 3752POPC   C1B49351  35.301  40.547   6.272
 3752POPC   C2B49352  35.350  40.618   6.694
 3752POPC   C3B49353  35.361  40.516   7.099
 3752POPC   C4B49354  35.675  40.296   7.299
 3753POPC   NC349355  35.913  16.217   5.529
 3753POPC   PO449356  36.235  15.660   5.245
 3753POPC   GL149357  36.126  15.769   5.705
 3753POPC   GL249358  36.350  16.069   5.763
 3753POPC   C1A49359  35.990  15.979   6.133
 3753POPC   D2A49360  36.072  16.235   6.520
 3753POPC   C3A49361  36.100  15.952   6.873
 3753POPC   C4A49362  35.958  15.938   7.304
 3753POPC   C1B49363  36.481  15.769   6.104
 3753POPC   C2B49364  36.425  15.576   6.521
 3753POPC   C3B49365  36.555  15.553   6.951
 3753POPC   C4B49366  36.465  15.898   7.228
 3754POPC   NC349367   8.105  31.284   5.284
 3754POPC   PO449368   8.678  31.602   5.509
 3754POPC   GL149369   8.272  31.613   5.716
 3754POPC   GL249370   8.108  31.273   5.792
 3754POPC   C1A49371   8.235  31.629   6.152
 3754POPC   D2A49372   8.231  31.352   6.488
 3754POPC   C3A49373   8.322  31.549   6.853
 3754POPC   C4A49374   8.028  31.569   7.161
 3754POPC   C1B49375   7.866  31.163   6.159
 3754POPC   C2B49376   7.951  30.933   6.537
 3754POPC   C3B49377   7.881  31.144   6.912
 3754POPC   C4B49378   7.937  31.083   7.347
 3755POPC   NC349379  21.496  11.567   5.463
 3755POPC   PO449380  21.208  10.871   5.367
 3755POPC   GL149381  21.186  11.101   5.778
 3755POPC   GL249382  21.518  11.146   5.862
 3755POPC   C1A49383  21.178  11.276   6.217
 3755POPC   D2A49384  21.205  11.513   6.599
 3755POPC   C3A49385  21.244  11.343   7.016
 3755POPC   C4A49386  21.428  11.526   7.377
 3755POPC   C1B49387  21.574  10.954   6.286
 3755POPC   C2B49388  21.536  10.984   6.775
 3755POPC   C3B49389  21.567  11.008   7.254
 3755POPC   C4B49390  21.706  11.213   7.657
 3756POPC   NC349391   6.610  24.005   5.077
 3756POPC   PO449392   6.739  23.453   5.428
 3756POPC   GL149393   6.645  23.707   5.773
 3756POPC   GL249394   6.964  23.808   5.856
 3756POPC   C1A49395   6.455  23.676   6.205
 3756POPC   D2A49396   6.207  23.695   6.602
 3756POPC   C3A49397   6.447  23.750   7.006
 3756POPC   C4A49398   6.768  23.947   7.279
 3756POPC   C1B49399   6.947  23.535   6.213
 3756POPC   C2B49400   6.735  23.486   6.633
 3756POPC   C3B49401   6.913  23.489   7.068
 3756POPC   C4B49402   6.991  23.493   7.582
 3757POPC   NC349403  34.108  23.867   5.382
 3757POPC   PO449404  33.627  23.384   5.401
 3757POPC   GL149405  33.699  23.698   5.725
 3757POPC   GL249406  33.359  23.805   5.749
 3757POPC   C1A49407  33.959  23.879   6.109
 3757POPC   D2A49408  34.167  23.968   6.544
 3757POPC   C3A49409  33.983  23.829   6.923
 3757POPC   C4A49410  33.904  23.995   7.316
 3757POPC   C1B49411  33.469  23.788   6.195
 3757POPC   C2B49412  33.634  23.625   6.599
 3757POPC   C3B49413  33.481  23.806   7.006
 3757POPC   C4B49414  33.504  23.641   7.447
 3758POPC   NC349415   8.914  24.057   5.410
 3758POPC   PO449416   9.168  24.703   5.434
 3758POPC   GL149417   9.320  24.517   5.811
 3758POPC   GL249418   9.331  24.157   5.744
 3758POPC   C1A49419   9.433  24.343   6.213
 3758POPC   D2A49420   9.242  24.241   6.599
 3758POPC   C3A49421   8.953  24.511   6.788
 3758POPC   C4A49422   9.109  24.617   7.186
 3758POPC   C1B49423   8.986  24.186   6.052
 3758POPC   C2B49424   8.778  24.094   6.421
 3758POPC   C3B49425   8.851  23.981   6.827
 3758POPC   C4B49426   8.850  24.185   7.206
 3759POPC   NC349427   7.757  32.723   5.438
 3759POPC   PO449428   8.346  33.212   5.464
 3759POPC   GL149429   8.290  32.975   5.817
 3759POPC   GL249430   7.933  33.030   5.830
 3759POPC   C1A49431   8.229  33.118   6.238
 3759POPC   D2A49432   7.973  33.097   6.598
 3759POPC   C3A49433   8.260  32.945   6.882
 3759POPC   C4A49434   8.567  33.109   7.153
 3759POPC   C1B49435   7.876  32.734   6.193
 3759POPC   C2B49436   7.798  32.622   6.650
 3759POPC   C3B49437   8.055  32.509   7.053
 3759POPC   C4B49438   8.241  32.808   7.377
 3760POPC   NC349439   9.557  44.554   5.298
 3760POPC   PO449440   9.975   0.028   5.548
 3760POPC   GL149441   9.653  44.860   5.782
 3760POPC   GL249442   9.643  44.511   5.816
 3760POPC   C1A49443   9.654  44.845   6.213
 3760POPC   D2A49444   9.837  44.891   6.573
 3760POPC   C3A49445   9.620  44.847   6.945
 3760POPC   C4A49446   9.682  44.687   7.347
 3760POPC   C1B49447   9.653  44.316   6.228
 3760POPC   C2B49448   9.563  44.448   6.611
 3760POPC   C3B49449   9.449  44.364   7.024
 3760POPC   C4B49450   9.553  44.182   7.422
 3761POPC   NC349451  30.707  21.617   5.403
 3761POPC   PO449452  30.499  21.064   5.361
 3761POPC   GL149453  30.502  21.248   5.747
 3761POPC   GL249454  30.863  21.246   5.755
 3761POPC   C1A49455  30.536  21.083   6.175
 3761POPC   D2A49456  30.788  20.812   6.505
 3761POPC   C3A49457  30.635  20.883   6.943
 3761POPC   C4A49458  30.370  21.200   7.169
 3761POPC   C1B49459  31.020  21.168   6.175
 3761POPC   C2B49460  30.813  21.312   6.549
 3761POPC   C3B49461  30.699  21.493   6.909
 3761POPC   C4B49462  30.889  21.240   7.218
 3762POPC   NC349463  11.843  13.780   5.448
 3762POPC   PO449464  12.069  13.186   5.353
 3762POPC   GL149465  11.937  13.374   5.756
 3762POPC   GL249466  12.209  13.613   5.772
 3762POPC   C1A49467  11.817  13.577   6.164
 3762POPC   D2A49468  12.025  13.664   6.580
 3762POPC   C3A49469  11.887  13.564   7.016
 3762POPC   C4A49470  11.734  13.225   7.285
 3762POPC   C1B49471  12.364  13.573   6.176
 3762POPC   C2B49472  12.556  13.774   6.511
 3762POPC   C3B49473  12.418  13.681   6.913
 3762POPC   C4B49474  12.288  13.775   7.298
 3763POPC   NC349475  10.153   2.354   5.508
 3763POPC   PO449476  10.631   1.865   5.493
 3763POPC   GL149477  10.509   2.082   5.838
 3763POPC   GL249478  10.194   1.887   5.829
 3763POPC   C1A49479  10.706   2.169   6.239
 3763POPC   D2A49480  10.617   1.995   6.641
 3763POPC   C3A49481  10.387   2.077   7.023
 3763POPC   C4A49482  10.699   1.970   7.357
 3763POPC   C1B49483  10.237   1.937   6.282
 3763POPC   C2B49484  10.227   1.651   6.616
 3763POPC   C3B49485  10.421   1.560   6.985
 3763POPC   C4B49486  10.281   1.669   7.376
 3764POPC   NC349487  44.077  15.206   5.419
 3764POPC   PO449488  44.026  14.582   5.197
 3764POPC   GL149489  43.972  14.761   5.730
 3764POPC   GL249490  43.904  15.129   5.877
 3764POPC   C1A49491  43.854  14.818   6.247
 3764POPC   D2A49492  43.699  15.047   6.614
 3764POPC   C3A49493  43.724  14.895   7.052
 3764POPC   C4A49494  43.950  14.908   7.461
 3764POPC   C1B49495  44.030  15.296   6.274
 3764POPC   C2B49496  44.203  15.218   6.672
 3764POPC   C3B49497  44.004  15.321   7.051
 3764POPC   C4B49498  43.961  15.455   7.449
 3765POPC   NC349499  24.269  33.448   5.479
 3765POPC   PO449500  23.928  32.925   5.205
 3765POPC   GL149501  23.866  32.860   5.704
 3765POPC   GL249502  23.496  32.928   5.793
 3765POPC   C1A49503  23.901  32.804   6.191
 3765POPC   D2A49504  23.965  32.565   6.603
 3765POPC   C3A49505  23.874  32.689   7.066
 3765POPC   C4A49506  23.823  32.821   7.515
 3765POPC   C1B49507  23.384  32.824   6.248
 3765POPC   C2B49508  23.513  32.839   6.715
 3765POPC   C3B49509  23.427  32.948   7.176
 3765POPC   C4B49510  23.541  33.258   7.522
 3766POPC   NC349511   0.007  40.676   5.482
 3766POPC   PO449512  44.497  41.075   5.480
 3766POPC   GL149513  44.799  41.052   5.793
 3766POPC   GL249514  44.560  41.210   5.971
 3766POPC   C1A49515  44.806  40.840   6.209
 3766POPC   D2A49516  44.581  40.572   6.497
 3766POPC   C3A49517  44.632  40.670   6.930
 3766POPC   C4A49518  44.322  40.707   7.215
 3766POPC   C1B49519  44.752  41.328   6.339
 3766POPC   C2B49520  44.815  41.129   6.715
 3766POPC   C3B49521  44.504  41.154   7.021
 3766POPC   C4B49522  44.436  41.140   7.452
 3767POPC   NC349523  11.149   7.430   5.443
 3767POPC   PO449524  11.632   7.002   5.500
 3767POPC   GL149525  11.585   7.309   5.772
 3767POPC   GL249526  11.255   7.331   5.919
 3767POPC   C1A49527  11.678   7.454   6.164
 3767POPC   D2A49528  11.460   7.405   6.526
 3767POPC   C3A49529  11.600   7.212   6.847
 3767POPC   C4A49530  11.382   7.374   7.163
 3767POPC   C1B49531  11.161   7.653   6.205
 3767POPC   C2B49532  10.945   7.472   6.569
 3767POPC   C3B49533  11.027   7.131   6.866
 3767POPC   C4B49534  10.913   7.124   7.285
 3768POPC   NC349535  15.999   5.426   5.001
 3768POPC   PO449536  15.838   4.873   5.408
 3768POPC   GL149537  15.822   5.099   5.882
 3768POPC   GL249538  15.540   5.361   5.964
 3768POPC   C1A49539  16.132   5.029   6.268
 3768POPC   D2A49540  16.176   5.246   6.652
 3768POPC   C3A49541  16.129   4.986   7.025
 3768POPC   C4A49542  16.313   4.936   7.469
 3768POPC   C1B49543  15.733   5.325   6.357
 3768POPC   C2B49544  15.705   5.429   6.795
 3768POPC   C3B49545  15.840   5.397   7.194
 3768POPC   C4B49546  15.717   5.011   7.312
 3769POPC   NC349547  28.488   0.443   5.503
 3769POPC   PO449548  27.838   0.421   5.551
 3769POPC   GL149549  28.139   0.386   5.882
 3769POPC   GL249550  28.457   0.156   5.923
 3769POPC   C1A49551  28.173   0.705   6.168
 3769POPC   D2A49552  28.333   0.791   6.579
 3769POPC   C3A49553  28.274   0.464   6.855
 3769POPC   C4A49554  28.549   0.660   7.135
 3769POPC   C1B49555  28.467   0.322   6.356
 3769POPC   C2B49556  28.756   0.447   6.688
 3769POPC   C3B49557  28.750   0.211   7.001
 3769POPC   C4B49558  28.429   0.103   7.175
 3770POPC   NC349559   5.454  33.219   5.494
 3770POPC   PO449560   5.505  32.575   5.454
 3770POPC   GL149561   5.632  32.821   5.837
 3770POPC   GL249562   5.923  33.056   5.742
 3770POPC   C1A49563   5.631  32.875   6.305
 3770POPC   D2A49564   5.899  33.005   6.648
 3770POPC   C3A49565   5.668  33.019   7.018
 3770POPC   C4A49566   5.538  33.096   7.446
 3770POPC   C1B49567   5.872  33.285   6.123
 3770POPC   C2B49568   6.035  33.481   6.487
 3770POPC   C3B49569   5.906  33.471   6.912
 3770POPC   C4B49570   5.994  33.339   7.323
 3771POPC   NC349571   3.268  16.042   5.366
 3771POPC   PO449572   3.770  15.736   5.158
 3771POPC   GL149573   3.609  15.930   5.689
 3771POPC   GL249574   3.294  15.696   5.757
 3771POPC   C1A49575   3.382  16.062   6.113
 3771POPC   D2A49576   3.279  16.313   6.501
 3771POPC   C3A49577   3.383  16.140   6.917
 3771POPC   C4A49578   3.640  16.290   7.284
 3771POPC   C1B49579   3.305  15.532   6.173
 3771POPC   C2B49580   3.342  15.737   6.551
 3771POPC   C3B49581   3.555  15.623   6.903
 3771POPC   C4B49582   3.624  15.490   7.304
 3772POPC   NC349583   6.988  27.119   5.687
 3772POPC   PO449584   6.439  27.364   5.384
 3772POPC   GL149585   6.621  27.561   5.815
 3772POPC   GL249586   6.969  27.591   5.873
 3772POPC   C1A49587   6.630  27.731   6.270
 3772POPC   D2A49588   6.709  27.934   6.707
 3772POPC   C3A49589   6.512  27.809   7.115
 3772POPC   C4A49590   6.555  27.568   7.539
 3772POPC   C1B49591   6.967  27.356   6.272
 3772POPC   C2B49592   6.862  27.439   6.666
 3772POPC   C3B49593   6.763  27.382   7.051
 3772POPC   C4B49594   6.952  27.146   7.311
 3773POPC   NC349595  30.328  40.364   5.401
 3773POPC   PO449596  29.735  40.023   5.381
 3773POPC   GL149597  29.985  39.859   5.731
 3773POPC   GL249598  30.242  39.602   5.591
 3773POPC   C1A49599  29.815  39.756   6.165
 3773POPC   D2A49600  29.939  39.906   6.567
 3773POPC   C3A49601  29.751  39.959   6.972
 3773POPC   C4A49602  29.413  39.818   7.215
 3773POPC   C1B49603  30.275  39.583   6.048
 3773POPC   C2B49604  30.317  39.550   6.510
 3773POPC   C3B49605  30.108  39.586   6.930
 3773POPC   C4B49606  30.094  39.765   7.371
 3774POPC   NC349607  37.498  37.865   5.474
 3774POPC   PO449608  37.914  37.426   5.269
 3774POPC   GL149609  37.950  37.677   5.690
 3774POPC   GL249610  37.665  37.508   5.801
 3774POPC   C1A49611  37.914  37.780   6.188
 3774POPC   D2A49612  37.754  37.561   6.622
 3774POPC   C3A49613  37.819  37.771   7.045
 3774POPC   C4A49614  37.466  38.082   7.097
 3774POPC   C1B49615  37.544  37.373   6.189
 3774POPC   C2B49616  37.276  37.384   6.561
 3774POPC   C3B49617  37.384  37.477   7.004
 3774POPC   C4B49618  37.276  37.714   7.403
 3775POPC   NC349619  12.989  36.463   5.606
 3775POPC   PO449620  12.618  35.926   5.442
 3775POPC   GL149621  12.940  35.980   5.791
 3775POPC   GL249622  12.729  36.250   5.982
 3775POPC   C1A49623  12.950  35.888   6.252
 3775POPC   D2A49624  12.655  36.077   6.561
 3775POPC   C3A49625  12.741  36.087   7.006
 3775POPC   C4A49626  13.021  36.045   7.357
 3775POPC   C1B49627  13.012  36.423   6.315
 3775POPC   C2B49628  13.031  36.559   6.769
 3775POPC   C3B49629  12.977  36.533   7.194
 3775POPC   C4B49630  12.584  36.412   7.390
 3776POPC   NC349631  22.397  28.657   5.075
 3776POPC   PO449632  21.916  28.224   5.205
 3776POPC   GL149633  22.184  28.438   5.569
 3776POPC   GL249634  22.462  28.236   5.718
 3776POPC   C1A49635  22.193  28.508   6.059
 3776POPC   D2A49636  22.132  28.374   6.528
 3776POPC   C3A49637  22.083  28.490   7.000
 3776POPC   C4A49638  22.268  28.615   7.406
 3776POPC   C1B49639  22.399  28.051   6.153
 3776POPC   C2B49640  22.461  27.951   6.589
 3776POPC   C3B49641  22.470  27.984   7.031
 3776POPC   C4B49642  22.305  28.117   7.442
 3777POPC   NC349643  42.040  18.601   5.474
 3777POPC   PO449644  42.455  18.184   5.277
 3777POPC   GL149645  42.346  18.210   5.727
 3777POPC   GL249646  42.455  18.564   5.815
 3777POPC   C1A49647  42.369  17.987   6.157
 3777POPC   D2A49648  42.429  18.065   6.602
 3777POPC   C3A49649  42.268  18.196   7.012
 3777POPC   C4A49650  42.457  18.064   7.400
 3777POPC   C1B49651  42.145  18.459   6.142
 3777POPC   C2B49652  42.076  18.482   6.587
 3777POPC   C3B49653  42.285  18.708   6.921
 3777POPC   C4B49654  42.618  18.578   7.198
 3778POPC   NC349655   0.165  26.718   5.431
 3778POPC   PO449656   0.625  27.022   4.988
 3778POPC   GL149657   0.589  26.920   5.594
 3778POPC   GL249658   0.413  26.660   5.875
 3778POPC   C1A49659   0.469  27.115   6.053
 3778POPC   D2A49660   0.406  26.896   6.485
 3778POPC   C3A49661   0.420  27.021   6.937
 3778POPC   C4A49662   0.197  27.076   7.358
 3778POPC   C1B49663   0.672  26.530   6.232
 3778POPC   C2B49664   0.761  26.361   6.639
 3778POPC   C3B49665   0.667  26.503   7.035
 3778POPC   C4B49666   0.249  26.592   7.214
 3779POPC   NC349667  14.296  34.666   5.470
 3779POPC   PO449668  14.766  34.136   5.528
 3779POPC   GL149669  14.540  34.482   5.865
 3779POPC   GL249670  14.528  34.860   5.887
 3779POPC   C1A49671  14.415  34.574   6.301
 3779POPC   D2A49672  14.524  34.733   6.718
 3779POPC   C3A49673  14.502  34.516   7.135
 3779POPC   C4A49674  14.657  34.711   7.499
 3779POPC   C1B49675  14.253  35.042   6.238
 3779POPC   C2B49676  14.167  35.109   6.692
 3779POPC   C3B49677  14.235  34.943   7.122
 3779POPC   C4B49678  14.183  34.867   7.592
 3780POPC   NC349679   3.101  39.045   5.536
 3780POPC   PO449680   3.756  39.174   5.469
 3780POPC   GL149681   3.662  39.346   5.875
 3780POPC   GL249682   3.299  39.377   5.891
 3780POPC   C1A49683   3.756  39.252   6.319
 3780POPC   D2A49684   3.527  38.968   6.601
 3780POPC   C3A49685   3.431  39.044   7.032
 3780POPC   C4A49686   3.682  39.285   7.301
 3780POPC   C1B49687   3.245  39.314   6.356
 3780POPC   C2B49688   3.369  39.478   6.745
 3780POPC   C3B49689   3.257  39.492   7.173
 3780POPC   C4B49690   3.273  39.508   7.616
 3781POPC   NC349691  34.966  25.316   5.550
 3781POPC   PO449692  34.477  24.869   5.401
 3781POPC   GL149693  34.619  24.998   5.795
 3781POPC   GL249694  34.465  25.321   5.787
 3781POPC   C1A49695  34.681  25.158   6.228
 3781POPC   D2A49696  34.608  25.371   6.615
 3781POPC   C3A49697  34.818  25.209   6.998
 3781POPC   C4A49698  34.643  25.216   7.408
 3781POPC   C1B49699  34.188  25.160   6.137
 3781POPC   C2B49700  34.203  25.012   6.587
 3781POPC   C3B49701  34.307  25.149   7.009
 3781POPC   C4B49702  34.172  25.449   7.340
 3782POPC   NC349703   5.734  34.942   5.621
 3782POPC   PO449704   5.859  35.242   5.067
 3782POPC   GL149705   5.898  35.440   5.534
 3782POPC   GL249706   6.161  35.737   5.615
 3782POPC   C1A49707   5.799  35.497   6.004
 3782POPC   D2A49708   5.760  35.230   6.398
 3782POPC   C3A49709   5.858  35.404   6.797
 3782POPC   C4A49710   5.837  35.224   7.216
 3782POPC   C1B49711   6.237  35.788   6.058
 3782POPC   C2B49712   6.250  35.502   6.421
 3782POPC   C3B49713   6.355  35.389   6.856
 3782POPC   C4B49714   6.162  35.628   7.166
 3783POPC   NC349715  30.278  13.032   5.240
 3783POPC   PO449716  29.743  12.904   5.523
 3783POPC   GL149717  29.958  12.694   5.887
 3783POPC   GL249718  29.693  12.442   6.031
 3783POPC   C1A49719  30.087  12.600   6.304
 3783POPC   D2A49720  29.781  12.486   6.612
 3783POPC   C3A49721  29.923  12.700   6.979
 3783POPC   C4A49722  30.165  13.075   7.068
 3783POPC   C1B49723  29.628  12.840   6.247
 3783POPC   C2B49724  29.820  13.032   6.609
 3783POPC   C3B49725  29.648  13.131   7.019
 3783POPC   C4B49726  29.241  13.213   7.202
 3784POPC   NC349727  21.434   3.251   5.301
 3784POPC   PO449728  21.521   2.671   5.194
 3784POPC   GL149729  21.601   2.669   5.681
 3784POPC   GL249730  21.271   2.547   5.773
 3784POPC   C1A49731  21.693   2.552   6.142
 3784POPC   D2A49732  21.586   2.360   6.547
 3784POPC   C3A49733  21.536   2.542   6.937
 3784POPC   C4A49734  21.523   2.740   7.329
 3784POPC   C1B49735  21.036   2.589   6.161
 3784POPC   C2B49736  21.137   2.785   6.555
 3784POPC   C3B49737  21.126   2.882   6.988
 3784POPC   C4B49738  20.953   2.632   7.316
 3785POPC   NC349739  41.062   8.339   5.623
 3785POPC   PO449740  41.739   8.164   5.457
 3785POPC   GL149741  41.505   8.141   5.855
 3785POPC   GL249742  41.270   7.865   5.850
 3785POPC   C1A49743  41.536   8.370   6.263
 3785POPC   D2A49744  41.565   8.620   6.628
 3785POPC   C3A49745  41.585   8.274   6.857
 3785POPC   C4A49746  41.515   8.227   7.249
 3785POPC   C1B49747  41.359   7.844   6.288
 3785POPC   C2B49748  41.305   7.811   6.732
 3785POPC   C3B49749  41.588   7.752   7.081
 3785POPC   C4B49750  41.721   7.852   7.514
 3786POPC   NC349751   2.875  30.001   5.354
 3786POPC   PO449752   2.292  30.174   5.235
 3786POPC   GL149753   2.632  30.202   5.728
 3786POPC   GL249754   2.985  30.049   5.851
 3786POPC   C1A49755   2.637  30.073   6.201
 3786POPC   D2A49756   2.840  29.839   6.524
 3786POPC   C3A49757   2.887  30.010   6.909
 3786POPC   C4A49758   2.779  29.773   7.255
 3786POPC   C1B49759   3.189  29.745   6.166
 3786POPC   C2B49760   3.208  29.467   6.545
 3786POPC   C3B49761   3.204  29.564   6.995
 3786POPC   C4B49762   3.269  29.961   7.237
 3787POPC   NC349763  16.455  39.790   5.192
 3787POPC   PO449764  16.879  40.276   5.503
 3787POPC   GL149765  16.687  40.101   5.828
 3787POPC   GL249766  16.574  40.395   5.963
 3787POPC   C1A49767  16.865  39.864   6.185
 3787POPC   D2A49768  17.050  39.907   6.573
 3787POPC   C3A49769  16.840  39.798   6.912
 3787POPC   C4A49770  16.642  40.194   6.978
 3787POPC   C1B49771  16.432  40.124   6.267
 3787POPC   C2B49772  16.478  39.821   6.565
 3787POPC   C3B49773  16.321  39.770   6.970
 3787POPC   C4B49774  16.128  40.151   7.084
 3788POPC   NC349775  27.011  34.233   5.117
 3788POPC   PO449776  26.628  33.882   5.586
 3788POPC   GL149777  26.775  33.632   5.891
 3788POPC   GL249778  26.634  33.852   6.135
 3788POPC   C1A49779  27.069  33.590   6.243
 3788POPC   D2A49780  26.895  33.757   6.631
 3788POPC   C3A49781  27.065  33.836   7.061
 3788POPC   C4A49782  27.015  33.958   7.516
 3788POPC   C1B49783  26.251  34.069   6.274
 3788POPC   C2B49784  26.280  34.212   6.670
 3788POPC   C3B49785  26.491  33.899   6.911
 3788POPC   C4B49786  26.609  33.753   7.313
 3789POPC   NC349787  29.494  28.549   5.397
 3789POPC   PO449788  28.996  28.058   5.395
 3789POPC   GL149789  29.202  28.275   5.773
 3789POPC   GL249790  29.377  28.587   5.870
 3789POPC   C1A49791  29.073  28.361   6.200
 3789POPC   D2A49792  28.944  28.564   6.548
 3789POPC   C3A49793  29.083  28.446   6.918
 3789POPC   C4A49794  28.871  28.642   7.228
 3789POPC   C1B49795  29.579  28.841   6.151
 3789POPC   C2B49796  29.431  28.721   6.522
 3789POPC   C3B49797  29.573  28.633   6.885
 3789POPC   C4B49798  29.399  28.671   7.267
 3790POPC   NC349799  41.819  36.448   5.490
 3790POPC   PO449800  41.186  36.191   5.584
 3790POPC   GL149801  41.416  35.966   5.872
 3790POPC   GL249802  41.757  35.993   5.765
 3790POPC   C1A49803  41.557  35.980   6.313
 3790POPC   D2A49804  41.676  36.290   6.663
 3790POPC   C3A49805  41.441  36.342   6.972
 3790POPC   C4A49806  41.398  35.993   7.140
 3790POPC   C1B49807  42.036  35.967   6.115
 3790POPC   C2B49808  42.049  35.991   6.520
 3790POPC   C3B49809  41.836  35.849   6.901
 3790POPC   C4B49810  41.828  35.808   7.347
 3791POPC   NC349811   7.880  41.107   4.880
 3791POPC   PO449812   8.185  41.348   5.364
 3791POPC   GL149813   8.260  41.437   5.840
 3791POPC   GL249814   8.347  41.782   5.879
 3791POPC   C1A49815   8.451  41.375   6.288
 3791POPC   D2A49816   8.400  41.255   6.751
 3791POPC   C3A49817   8.069  41.505   6.952
 3791POPC   C4A49818   7.986  41.525   7.367
 3791POPC   C1B49819   8.232  41.840   6.326
 3791POPC   C2B49820   8.447  41.758   6.717
 3791POPC   C3B49821   8.538  41.613   7.136
 3791POPC   C4B49822   8.522  41.861   7.545
 3792POPC   NC349823  41.338  44.607   5.475
 3792POPC   PO449824  41.910  44.812   5.316
 3792POPC   GL149825  41.730  44.864   5.771
 3792POPC   GL249826  41.398  44.990   5.918
 3792POPC   C1A49827  41.618  44.595   6.155
 3792POPC   D2A49828  41.828  44.648   6.557
 3792POPC   C3A49829  41.667  44.414   6.898
 3792POPC   C4A49830  41.863  44.274   7.226
 3792POPC   C1B49831  41.456   0.029   6.383
 3792POPC   C2B49832  41.365  44.798   6.748
 3792POPC   C3B49833  41.530  44.867   7.170
 3792POPC   C4B49834  41.288  44.865   7.537
 3793POPC   NC349835   4.710  13.938   5.411
 3793POPC   PO449836   3.993  13.792   5.297
 3793POPC   GL149837   4.096  13.636   5.695
 3793POPC   GL249838   4.372  13.839   5.791
 3793POPC   C1A49839   4.170  13.538   6.148
 3793POPC   D2A49840   4.237  13.695   6.553
 3793POPC   C3A49841   4.052  13.431   6.859
 3793POPC   C4A49842   4.099  13.598   7.220
 3793POPC   C1B49843   4.441  14.033   6.191
 3793POPC   C2B49844   4.528  14.147   6.616
 3793POPC   C3B49845   4.461  13.891   6.977
 3793POPC   C4B49846   4.560  13.441   7.019
 3794POPC   NC349847   8.675  30.464   5.336
 3794POPC   PO449848   9.249  30.830   5.346
 3794POPC   GL149849   9.063  30.735   5.763
 3794POPC   GL249850   8.722  30.574   5.840
 3794POPC   C1A49851   8.975  30.821   6.212
 3794POPC   D2A49852   9.031  30.611   6.601
 3794POPC   C3A49853   8.792  30.732   6.953
 3794POPC   C4A49854   8.892  30.745   7.343
 3794POPC   C1B49855   8.650  30.421   6.300
 3794POPC   C2B49856   8.643  30.289   6.774
 3794POPC   C3B49857   8.563  30.371   7.246
 3794POPC   C4B49858   8.650  30.497   7.718
 3795POPC   NC349859  30.079  31.741   5.247
 3795POPC   PO449860  29.789  32.391   5.292
 3795POPC   GL149861  29.821  32.280   5.749
 3795POPC   GL249862  29.790  32.605   5.887
 3795POPC   C1A49863  30.018  32.265   6.199
 3795POPC   D2A49864  30.036  32.411   6.643
 3795POPC   C3A49865  30.134  32.091   6.944
 3795POPC   C4A49866  29.829  32.071   7.253
 3795POPC   C1B49867  29.596  32.545   6.301
 3795POPC   C2B49868  29.473  32.712   6.677
 3795POPC   C3B49869  29.623  32.504   7.016
 3795POPC   C4B49870  30.049  32.564   7.144
 3796POPC   NC349871  31.789  13.984   5.480
 3796POPC   PO449872  31.400  13.492   5.196
 3796POPC   GL149873  31.282  13.560   5.716
 3796POPC   GL249874  31.422  13.867   5.894
 3796POPC   C1A49875  31.098  13.501   6.120
 3796POPC   D2A49876  31.113  13.765   6.489
 3796POPC   C3A49877  31.089  13.566   6.894
 3796POPC   C4A49878  31.387  13.613   7.188
 3796POPC   C1B49879  31.565  14.030   6.322
 3796POPC   C2B49880  31.813  14.062   6.733
 3796POPC   C3B49881  31.798  13.896   7.130
 3796POPC   C4B49882  31.551  14.002   7.504
 3797POPC   NC349883  43.767   2.185   5.477
 3797POPC   PO449884  43.646   1.490   5.407
 3797POPC   GL149885  43.678   1.769   5.789
 3797POPC   GL249886  44.019   1.830   5.760
 3797POPC   C1A49887  43.706   1.957   6.242
 3797POPC   D2A49888  43.644   2.184   6.641
 3797POPC   C3A49889  43.717   1.962   7.060
 3797POPC   C4A49890  43.816   2.066   7.543
 3797POPC   C1B49891  44.213   1.868   6.165
 3797POPC   C2B49892  44.095   1.919   6.612
 3797POPC   C3B49893  44.226   2.141   6.981
 3797POPC   C4B49894  44.225   1.879   7.333
 3798POPC   NC349895  20.657  11.448   5.338
 3798POPC   PO449896  20.390  10.808   5.448
 3798POPC   GL149897  20.672  11.065   5.722
 3798POPC   GL249898  20.627  11.377   5.879
 3798POPC   C1A49899  20.791  10.938   6.137
 3798POPC   D2A49900  20.563  10.986   6.529
 3798POPC   C3A49901  20.773  11.170   6.860
 3798POPC   C4A49902  20.514  11.288   7.174
 3798POPC   C1B49903  20.716  11.452   6.330
 3798POPC   C2B49904  20.560  11.630   6.730
 3798POPC   C3B49905  20.707  11.747   7.133
 3798POPC   C4B49906  20.920  11.501   7.392
 3799POPC   NC349907  26.199   1.375   5.430
 3799POPC   PO449908  26.033   0.767   5.458
 3799POPC   GL149909  26.012   1.077   5.803
 3799POPC   GL249910  26.343   0.945   5.839
 3799POPC   C1A49911  25.926   1.336   6.208
 3799POPC   D2A49912  26.098   1.287   6.663
 3799POPC   C3A49913  25.851   1.198   7.027
 3799POPC   C4A49914  25.687   1.437   7.375
 3799POPC   C1B49915  26.237   0.931   6.272
 3799POPC   C2B49916  26.262   0.789   6.678
 3799POPC   C3B49917  26.342   0.956   7.084
 3799POPC   C4B49918  26.298   0.811   7.510
 3800POPC   NC349919  21.032  27.576   5.402
 3800POPC   PO449920  21.505  28.014   5.623
 3800POPC   GL149921  21.628  27.664   5.896
 3800POPC   GL249922  21.332  27.484   5.815
 3800POPC   C1A49923  21.616  27.594   6.370
 3800POPC   D2A49924  21.691  27.483   6.838
 3800POPC   C3A49925  21.454  27.727   7.138
 3800POPC   C4A49926  21.080  27.988   7.194
 3800POPC   C1B49927  21.135  27.387   6.205
 3800POPC   C2B49928  21.249  27.276   6.620
 3800POPC   C3B49929  21.171  27.275   7.040
 3800POPC   C4B49930  21.094  27.051   7.425
 3801POPC   NC349931  39.339  14.163   5.563
 3801POPC   PO449932  39.129  14.719   5.229
 3801POPC   GL149933  39.035  14.627   5.703
 3801POPC   GL249934  38.918  14.273   5.832
 3801POPC   C1A49935  39.106  14.553   6.193
 3801POPC   D2A49936  39.082  14.360   6.601
 3801POPC   C3A49937  39.230  14.636   6.973
 3801POPC   C4A49938  39.477  14.644   7.348
 3801POPC   C1B49939  38.677  14.131   6.223
 3801POPC   C2B49940  38.672  14.067   6.689
 3801POPC   C3B49941  39.017  14.010   6.988
 3801POPC   C4B49942  39.189  14.201   7.336
 3802POPC   NC349943  43.708  33.841   5.538
 3802POPC   PO449944  44.045  33.306   5.326
 3802POPC   GL149945  44.165  33.576   5.716
 3802POPC   GL249946  44.091  33.917   5.876
 3802POPC   C1A49947  44.020  33.512   6.167
 3802POPC   D2A49948  43.767  33.551   6.562
 3802POPC   C3A49949  44.052  33.503   6.881
 3802POPC   C4A49950  44.098  33.759   7.230
 3802POPC   C1B49951  43.970  34.003   6.321
 3802POPC   C2B49952  43.914  34.008   6.772
 3802POPC   C3B49953  43.736  34.184   7.125
 3802POPC   C4B49954  43.943  34.189   7.493
 3803POPC   NC349955  30.749  18.526   5.254
 3803POPC   PO449956  30.693  17.938   5.057
 3803POPC   GL149957  30.566  18.122   5.540
 3803POPC   GL249958  30.596  18.489   5.721
 3803POPC   C1A49959  30.559  18.121   6.043
 3803POPC   D2A49960  30.668  18.168   6.486
 3803POPC   C3A49961  30.572  18.164   6.943
 3803POPC   C4A49962  30.781  18.042   7.324
 3803POPC   C1B49963  30.522  18.628   6.144
 3803POPC   C2B49964  30.385  18.611   6.578
 3803POPC   C3B49965  30.546  18.746   6.973
 3803POPC   C4B49966  30.561  18.525   7.352
 3804POPC   NC349967  43.009   0.003   5.588
 3804POPC   PO449968  43.328   0.551   5.281
 3804POPC   GL149969  43.125   0.570   5.683
 3804POPC   GL249970  42.839   0.828   5.619
 3804POPC   C1A49971  43.126   0.377   6.129
 3804POPC   D2A49972  43.080   0.150   6.543
 3804POPC   C3A49973  43.148   0.384   6.907
 3804POPC   C4A49974  43.107   0.143   7.262
 3804POPC   C1B49975  42.912   0.862   6.073
 3804POPC   C2B49976  42.905   0.688   6.493
 3804POPC   C3B49977  42.745   0.721   6.899
 3804POPC   C4B49978  42.826   0.554   7.291
 3805POPC   NC349979   1.293  31.981   5.580
 3805POPC   PO449980   1.483  32.693   5.507
 3805POPC   GL149981   1.346  32.512   5.876
 3805POPC   GL249982   1.124  32.244   5.973
 3805POPC   C1A49983   1.413  32.558   6.287
 3805POPC   D2A49984   1.496  32.260   6.565
 3805POPC   C3A49985   1.337  32.331   6.945
 3805POPC   C4A49986   1.510  32.253   7.331
 3805POPC   C1B49987   1.196  31.907   6.264
 3805POPC   C2B49988   0.895  31.801   6.560
 3805POPC   C3B49989   0.774  32.027   6.891
 3805POPC   C4B49990   0.988  32.143   7.265
 3806POPC   NC349991   0.099  18.877   5.114
 3806POPC   PO449992   0.293  19.181   5.658
 3806POPC   GL149993   0.332  19.028   6.006
 3806POPC   GL249994   0.662  18.984   6.118
 3806POPC   C1A49995   0.178  19.108   6.378
 3806POPC   D2A49996   0.261  19.128   6.770
 3806POPC   C3A49997   0.184  19.480   7.008
 3806POPC   C4A49998   0.407  19.324   7.270
 3806POPC   C1B49999   0.560  18.750   6.450
 3806POPC   C2B50000   0.457  18.661   6.832
 3806POPC   C3B50001   0.354  18.825   7.208
 3806POPC   C4B50002   0.631  18.891   7.540
 3807POPC   NC350003  26.708  43.908   5.470
 3807POPC   PO450004  27.357  43.866   5.319
 3807POPC   GL150005  27.162  43.917   5.747
 3807POPC   GL250006  26.847  43.787   5.931
 3807POPC   C1A50007  27.171  44.056   6.185
 3807POPC   D2A50008  26.831  43.942   6.487
 3807POPC   C3A50009  26.910  43.837   6.917
 3807POPC   C4A50010  27.068  43.645   7.271
 3807POPC   C1B50011  26.550  43.602   6.206
 3807POPC   C2B50012  26.506  43.537   6.658
 3807POPC   C3B50013  26.424  43.685   7.091
 3807POPC   C4B50014  26.550  44.094   7.160
 3808POPC   NC350015  29.477  30.946   5.326
 3808POPC   PO450016  30.124  30.736   5.442
 3808POPC   GL150017  29.775  30.752   5.714
 3808POPC   GL250018  29.762  31.095   5.780
 3808POPC   C1A50019  29.668  30.729   6.158
 3808POPC   D2A50020  29.788  30.943   6.554
 3808POPC   C3A50021  29.713  30.742   6.961
 3808POPC   C4A50022  29.534  30.396   7.161
 3808POPC   C1B50023  30.102  30.961   6.091
 3808POPC   C2B50024  30.299  30.859   6.469
 3808POPC   C3B50025  30.220  30.835   6.918
 3808POPC   C4B50026  29.974  31.031   7.289
 3809POPC   NC350027  14.274   9.491   5.133
 3809POPC   PO450028  14.609   9.940   5.521
 3809POPC   GL150029  14.413   9.774   5.860
 3809POPC   GL250030  14.414   9.414   5.753
 3809POPC   C1A50031  14.610   9.618   6.223
 3809POPC   D2A50032  14.558   9.386   6.575
 3809POPC   C3A50033  14.422   9.673   6.830
 3809POPC   C4A50034  14.586   9.841   7.184
 3809POPC   C1B50035  14.187   9.302   6.142
 3809POPC   C2B50036  14.038   9.378   6.572
 3809POPC   C3B50037  14.069   9.334   7.026
 3809POPC   C4B50038  14.189   9.594   7.356
 3810POPC   NC350039  29.444   8.347   5.334
 3810POPC   PO450040  30.014   8.163   4.970
 3810POPC   GL150041  29.925   8.098   5.494
 3810POPC   GL250042  29.593   7.976   5.660
 3810POPC   C1A50043  29.949   8.202   5.993
 3810POPC   D2A50044  30.126   8.355   6.423
 3810POPC   C3A50045  29.827   8.509   6.783
 3810POPC   C4A50046  29.882   8.653   7.236
 3810POPC   C1B50047  29.492   7.964   6.129
 3810POPC   C2B50048  29.728   8.018   6.524
 3810POPC   C3B50049  30.069   8.061   6.842
 3810POPC   C4B50050  29.921   8.165   7.234
 3811POPC   NC350051  25.863  27.668   5.616
 3811POPC   PO450052  25.299  27.316   5.401
 3811POPC   GL150053  25.225  27.437   5.832
 3811POPC   GL250054  25.460  27.658   5.923
 3811POPC   C1A50055  25.082  27.527   6.257
 3811POPC   D2A50056  24.938  27.298   6.604
 3811POPC   C3A50057  25.081  27.452   7.018
 3811POPC   C4A50058  24.751  27.499   7.348
 3811POPC   C1B50059  25.535  27.851   6.283
 3811POPC   C2B50060  25.380  27.700   6.652
 3811POPC   C3B50061  25.528  27.778   7.037
 3811POPC   C4B50062  25.543  27.481   7.335
 3812POPC   NC350063   2.471  36.590   5.573
 3812POPC   PO450064   2.782  37.075   5.261
 3812POPC   GL150065   2.827  36.897   5.731
 3812POPC   GL250066   3.132  36.701   5.709
 3812POPC   C1A50067   2.587  36.760   6.168
 3812POPC   D2A50068   2.530  36.893   6.588
 3812POPC   C3A50069   2.518  36.725   7.002
 3812POPC   C4A50070   2.726  36.879   7.358
 3812POPC   C1B50071   3.096  36.737   6.164
 3812POPC   C2B50072   3.052  37.007   6.512
 3812POPC   C3B50073   3.006  36.857   6.914
 3812POPC   C4B50074   3.233  36.763   7.281
 3813POPC   NC350075   5.717  24.463   5.402
 3813POPC   PO450076   6.292  24.145   5.385
 3813POPC   GL150077   6.041  24.346   5.779
 3813POPC   GL250078   5.664  24.233   5.850
 3813POPC   C1A50079   5.950  24.472   6.231
 3813POPC   D2A50080   6.149  24.255   6.602
 3813POPC   C3A50081   6.049  24.414   7.004
 3813POPC   C4A50082   5.954  24.828   7.180
 3813POPC   C1B50083   5.473  24.211   6.255
 3813POPC   C2B50084   5.577  24.420   6.647
 3813POPC   C3B50085   5.564  24.286   7.072
 3813POPC   C4B50086   5.629  24.374   7.529
 3814POPC   NC350087  33.650  18.762   5.138
 3814POPC   PO450088  33.987  19.362   5.237
 3814POPC   GL150089  33.808  19.101   5.610
 3814POPC   GL250090  33.645  19.351   5.836
 3814POPC   C1A50091  33.805  18.897   6.046
 3814POPC   D2A50092  33.836  19.090   6.467
 3814POPC   C3A50093  33.673  18.890   6.842
 3814POPC   C4A50094  33.520  19.033   7.225
 3814POPC   C1B50095  34.053  19.361   6.032
 3814POPC   C2B50096  34.296  19.417   6.400
 3814POPC   C3B50097  34.296  19.329   6.809
 3814POPC   C4B50098  34.001  19.209   7.106
 3815POPC   NC350099   1.766  28.390   5.223
 3815POPC   PO450100   2.388  28.381   5.282
 3815POPC   GL150101   2.060  28.297   5.655
 3815POPC   GL250102   1.770  28.045   5.640
 3815POPC   C1A50103   1.995  28.413   6.123
 3815POPC   D2A50104   2.097  28.558   6.540
 3815POPC   C3A50105   1.913  28.394   6.908
 3815POPC   C4A50106   2.092  28.409   7.304
 3815POPC   C1B50107   1.866  27.936   6.067
 3815POPC   C2B50108   1.870  28.017   6.521
 3815POPC   C3B50109   1.627  27.986   6.905
 3815POPC   C4B50110   1.629  28.154   7.354
 3816POPC   NC350111  27.846  20.188   5.476
 3816POPC   PO450112  27.389  19.657   5.358
 3816POPC   GL150113  27.591  19.807   5.701
 3816POPC   GL250114  27.870  19.589   5.619
 3816POPC   C1A50115  27.508  19.955   6.111
 3816POPC   D2A50116  27.494  19.804   6.536
 3816POPC   C3A50117  27.604  20.076   6.854
 3816POPC   C4A50118  27.341  19.961   7.174
 3816POPC   C1B50119  27.791  19.537   6.093
 3816POPC   C2B50120  27.979  19.734   6.441
 3816POPC   C3B50121  27.912  19.664   6.883
 3816POPC   C4B50122  27.857  19.866   7.274
 3817POPC   NC350123  10.978   2.181   5.589
 3817POPC   PO450124  11.466   1.721   5.335
 3817POPC   GL150125  11.206   1.751   5.764
 3817POPC   GL250126  11.306   1.977   5.911
 3817POPC   C1A50127  11.014   1.761   6.247
 3817POPC   D2A50128  11.057   1.774   6.738
 3817POPC   C3A50129  11.464   1.806   6.905
 3817POPC   C4A50130  11.270   1.927   7.236
 3817POPC   C1B50131  11.423   2.221   6.186
 3817POPC   C2B50132  11.218   2.184   6.497
 3817POPC   C3B50133  11.240   2.284   6.890
 3817POPC   C4B50134  11.567   2.340   7.177
 3818POPC   NC350135  11.301  24.330   5.279
 3818POPC   PO450136  11.465  24.958   5.133
 3818POPC   GL150137  11.440  24.723   5.596
 3818POPC   GL250138  11.178  24.452   5.759
 3818POPC   C1A50139  11.393  24.772   6.096
 3818POPC   D2A50140  11.152  24.559   6.495
 3818POPC   C3A50141  11.328  24.626   6.926
 3818POPC   C4A50142  11.610  24.935   7.112
 3818POPC   C1B50143  11.358  24.258   6.118
 3818POPC   C2B50144  11.494  24.184   6.539
 3818POPC   C3B50145  11.279  24.116   6.904
 3818POPC   C4B50146  11.490  24.180   7.291
 3819POPC   NC350147   3.357  13.396   5.375
 3819POPC   PO450148   3.530  14.006   5.525
 3819POPC   GL150149   3.282  13.762   5.801
 3819POPC   GL250150   3.199  13.396   5.856
 3819POPC   C1A50151   3.368  13.738   6.249
 3819POPC   D2A50152   3.640  13.607   6.597
 3819POPC   C3A50153   3.586  13.678   7.055
 3819POPC   C4A50154   3.693  13.767   7.486
 3819POPC   C1B50155   3.450  13.202   6.215
 3819POPC   C2B50156   3.295  13.162   6.648
 3819POPC   C3B50157   3.166  13.377   7.009
 3819POPC   C4B50158   3.326  13.428   7.458
 3820POPC   NC350159  28.224  42.286   4.990
 3820POPC   PO450160  28.287  42.603   5.543
 3820POPC   GL150161  28.275  42.295   5.810
 3820POPC   GL250162  28.601  42.378   5.887
 3820POPC   C1A50163  28.105  42.323   6.221
 3820POPC   D2A50164  28.266  42.366   6.628
 3820POPC   C3A50165  28.087  42.091   6.884
 3820POPC   C4A50166  28.213  42.212   7.261
 3820POPC   C1B50167  28.573  42.114   6.226
 3820POPC   C2B50168  28.731  42.125   6.616
 3820POPC   C3B50169  28.663  42.217   7.030
 3820POPC   C4B50170  28.769  41.930   7.345
 3821POPC   NC350171  31.885  13.121   5.627
 3821POPC   PO450172  31.280  12.665   5.468
 3821POPC   GL150173  31.522  12.804   5.817
 3821POPC   GL250174  31.532  13.164   5.976
 3821POPC   C1A50175  31.560  12.702   6.254
 3821POPC   D2A50176  31.329  12.788   6.641
 3821POPC   C3A50177  31.396  12.671   7.086
 3821POPC   C4A50178  31.145  12.771   7.480
 3821POPC   C1B50179  31.591  13.520   6.265
 3821POPC   C2B50180  31.574  13.613   6.681
 3821POPC   C3B50181  31.506  13.234   6.868
 3821POPC   C4B50182  31.536  13.120   7.272
 3822POPC   NC350183  15.663  34.177   5.582
 3822POPC   PO450184  15.242  33.762   5.337
 3822POPC   GL150185  15.227  33.943   5.721
 3822POPC   GL250186  15.223  33.643   5.865
 3822POPC   C1A50187  15.063  34.086   6.106
 3822POPC   D2A50188  15.177  34.133   6.517
 3822POPC   C3A50189  15.142  33.806   6.804
 3822POPC   C4A50190  15.026  33.787   7.236
 3822POPC   C1B50191  15.223  33.640   6.313
 3822POPC   C2B50192  15.604  33.546   6.521
 3822POPC   C3B50193  15.666  33.350   6.856
 3822POPC   C4B50194  15.305  33.412   7.088
 3823POPC   NC350195  16.213  26.235   5.251
 3823POPC   PO450196  16.112  25.681   5.531
 3823POPC   GL150197  15.934  25.760   5.910
 3823POPC   GL250198  15.642  25.551   5.924
 3823POPC   C1A50199  16.151  25.895   6.311
 3823POPC   D2A50200  16.228  25.794   6.773
 3823POPC   C3A50201  16.205  26.168   7.015
 3823POPC   C4A50202  15.791  26.399   7.056
 3823POPC   C1B50203  15.723  25.632   6.362
 3823POPC   C2B50204  15.752  25.979   6.666
 3823POPC   C3B50205  15.787  25.869   7.090
 3823POPC   C4B50206  15.825  25.688   7.477
 3824POPC   NC350207  23.890  30.195   5.375
 3824POPC   PO450208  23.868  29.493   5.460
 3824POPC   GL150209  23.845  29.645   5.892
 3824POPC   GL250210  23.770  29.998   5.857
 3824POPC   C1A50211  23.524  29.735   6.241
 3824POPC   D2A50212  23.235  29.781   6.572
 3824POPC   C3A50213  23.408  29.744   6.975
 3824POPC   C4A50214  23.712  29.533   7.202
 3824POPC   C1B50215  23.640  30.233   6.193
 3824POPC   C2B50216  23.630  30.124   6.585
 3824POPC   C3B50217  23.875  30.049   6.909
 3824POPC   C4B50218  23.763  30.052   7.292
 3825POPC   NC350219  24.781  11.531   5.251
 3825POPC   PO450220  24.407  12.057   5.374
 3825POPC   GL150221  24.498  12.193   5.749
 3825POPC   GL250222  24.859  12.195   5.636
 3825POPC   C1A50223  24.327  12.187   6.173
 3825POPC   D2A50224  24.450  12.006   6.571
 3825POPC   C3A50225  24.204  11.918   6.931
 3825POPC   C4A50226  24.542  12.031   7.146
 3825POPC   C1B50227  24.854  12.282   6.091
 3825POPC   C2B50228  24.684  12.463   6.466
 3825POPC   C3B50229  24.722  12.575   6.882
 3825POPC   C4B50230  24.685  12.625   7.294
 3826POPC   NC350231  39.002   8.863   5.542
 3826POPC   PO450232  39.598   9.207   5.479
 3826POPC   GL150233  39.362   9.027   5.842
 3826POPC   GL250234  39.037   9.221   5.902
 3826POPC   C1A50235  39.262   8.744   6.187
 3826POPC   D2A50236  39.346   8.472   6.536
 3826POPC   C3A50237  39.218   8.664   6.899
 3826POPC   C4A50238  39.350   8.748   7.307
 3826POPC   C1B50239  39.186   9.285   6.272
 3826POPC   C2B50240  39.128   9.114   6.653
 3826POPC   C3B50241  39.308   9.188   7.036
 3826POPC   C4B50242  39.103   9.188   7.431
 3827POPC   NC350243   6.891  36.325   5.328
 3827POPC   PO450244   6.356  36.723   5.333
 3827POPC   GL150245   6.547  36.350   5.712
 3827POPC   GL250246   6.934  36.235   5.800
 3827POPC   C1A50247   6.618  36.149   6.151
 3827POPC   D2A50248   6.522  35.945   6.533
 3827POPC   C3A50249   6.649  36.186   6.910
 3827POPC   C4A50250   6.507  36.020   7.273
 3827POPC   C1B50251   7.069  36.473   6.200
 3827POPC   C2B50252   6.997  36.635   6.631
 3827POPC   C3B50253   7.114  36.475   7.035
 3827POPC   C4B50254   6.943  36.294   7.375
 3828POPC   NC350255  19.678  43.274   5.531
 3828POPC   PO450256  20.278  43.084   5.366
 3828POPC   GL150257  20.061  43.099   5.815
 3828POPC   GL250258  19.775  42.911   5.878
 3828POPC   C1A50259  19.997  43.336   6.219
 3828POPC   D2A50260  20.253  43.439   6.605
 3828POPC   C3A50261  20.115  43.302   7.029
 3828POPC   C4A50262  19.731  43.236   7.257
 3828POPC   C1B50263  19.561  42.998   6.212
 3828POPC   C2B50264  19.390  42.852   6.595
 3828POPC   C3B50265  19.434  42.718   6.995
 3828POPC   C4B50266  19.561  42.697   7.416
 3829POPC   NC350267  12.726   9.481   5.411
 3829POPC   PO450268  12.879   8.842   5.446
 3829POPC   GL150269  12.660   9.021   5.736
 3829POPC   GL250270  12.962   9.196   5.847
 3829POPC   C1A50271  12.658   8.926   6.173
 3829POPC   D2A50272  12.908   9.080   6.537
 3829POPC   C3A50273  12.738   9.002   6.946
 3829POPC   C4A50274  12.479   9.075   7.311
 3829POPC   C1B50275  13.165   8.843   6.108
 3829POPC   C2B50276  13.222   8.653   6.514
 3829POPC   C3B50277  13.268   8.877   6.909
 3829POPC   C4B50278  13.121   8.835   7.333
 3830POPC   NC350279  41.030  27.042   5.081
 3830POPC   PO450280  41.583  26.825   5.443
 3830POPC   GL150281  41.546  26.771   5.840
 3830POPC   GL250282  41.269  26.547   5.750
 3830POPC   C1A50283  41.763  26.947   6.196
 3830POPC   D2A50284  41.878  26.817   6.618
 3830POPC   C3A50285  41.699  27.055   6.972
 3830POPC   C4A50286  41.810  27.014   7.414
 3830POPC   C1B50287  41.160  26.652   6.164
 3830POPC   C2B50288  41.364  26.810   6.504
 3830POPC   C3B50289  41.436  26.604   6.862
 3830POPC   C4B50290  41.394  26.765   7.254
 3831POPC   NC350291   5.336  27.890   5.465
 3831POPC   PO450292   4.905  27.345   5.593
 3831POPC   GL150293   5.298  27.406   5.850
 3831POPC   GL250294   5.307  27.760   5.950
 3831POPC   C1A50295   5.317  27.377   6.320
 3831POPC   D2A50296   5.366  27.572   6.716
 3831POPC   C3A50297   5.038  27.377   6.963
 3831POPC   C4A50298   5.012  27.001   7.227
 3831POPC   C1B50299   4.924  27.673   6.179
 3831POPC   C2B50300   4.910  27.771   6.627
 3831POPC   C3B50301   4.991  27.890   7.037
 3831POPC   C4B50302   5.394  27.886   7.253
 3832POPC   NC350303   1.441   6.376   5.381
 3832POPC   PO450304   1.381   7.058   5.585
 3832POPC   GL150305   1.410   6.692   5.839
 3832POPC   GL250306   1.118   6.591   5.773
 3832POPC   C1A50307   1.422   6.670   6.281
 3832POPC   D2A50308   1.627   6.749   6.645
 3832POPC   C3A50309   1.331   6.680   6.995
 3832POPC   C4A50310   1.338   6.604   7.456
 3832POPC   C1B50311   0.922   6.713   6.143
 3832POPC   C2B50312   0.967   6.773   6.573
 3832POPC   C3B50313   0.912   7.004   6.937
 3832POPC   C4B50314   0.887   6.773   7.305
 3833POPC   NC350315   7.374  29.377   5.369
 3833POPC   PO450316   7.125  28.737   5.461
 3833POPC   GL150317   7.143  28.905   5.859
 3833POPC   GL250318   7.405  29.128   5.810
 3833POPC   C1A50319   7.387  28.896   6.255
 3833POPC   D2A50320   7.531  29.125   6.611
 3833POPC   C3A50321   7.519  28.858   6.942
 3833POPC   C4A50322   7.299  28.847   7.306
 3833POPC   C1B50323   7.453  29.401   6.171
 3833POPC   C2B50324   7.730  29.585   6.465
 3833POPC   C3B50325   7.798  29.598   6.896
 3833POPC   C4B50326   7.568  29.336   7.195
 3834POPC   NC350327   3.177  25.401   5.502
 3834POPC   PO450328   2.511  25.498   5.382
 3834POPC   GL150329   2.737  25.487   5.816
 3834POPC   GL250330   2.964  25.185   5.912
 3834POPC   C1A50331   2.654  25.352   6.276
 3834POPC   D2A50332   2.969  25.148   6.574
 3834POPC   C3A50333   2.774  25.059   6.987
 3834POPC   C4A50334   2.480  25.288   7.271
 3834POPC   C1B50335   3.098  25.567   6.194
 3834POPC   C2B50336   3.168  25.639   6.641
 3834POPC   C3B50337   2.882  25.562   7.035
 3834POPC   C4B50338   2.962  25.276   7.417
 3835POPC   NC350339  29.040  35.025   5.340
 3835POPC   PO450340  29.564  35.406   5.400
 3835POPC   GL150341  29.324  35.394   5.798
 3835POPC   GL250342  28.950  35.364   5.760
 3835POPC   C1A50343  29.247  35.446   6.278
 3835POPC   D2A50344  29.445  35.545   6.693
 3835POPC   C3A50345  29.310  35.452   7.094
 3835POPC   C4A50346  29.135  35.057   7.046
 3835POPC   C1B50347  28.743  35.326   6.173
 3835POPC   C2B50348  28.831  35.237   6.612
 3835POPC   C3B50349  28.657  34.998   6.980
 3835POPC   C4B50350  28.756  35.315   7.264
 3836POPC   NC350351  43.519  29.103   5.553
 3836POPC   PO450352  42.815  29.094   5.480
 3836POPC   GL150353  43.069  29.036   5.835
 3836POPC   GL250354  43.281  28.719   5.839
 3836POPC   C1A50355  43.051  29.276   6.224
 3836POPC   D2A50356  42.883  29.123   6.622
 3836POPC   C3A50357  42.847  29.437   6.929
 3836POPC   C4A50358  43.073  29.556   7.285
 3836POPC   C1B50359  43.331  28.836   6.257
 3836POPC   C2B50360  43.494  29.181   6.505
 3836POPC   C3B50361  43.342  29.333   6.886
 3836POPC   C4B50362  43.311  29.101   7.278
 3837POPC   NC350363  43.862  34.780   5.404
 3837POPC   PO450364  43.550  34.172   5.258
 3837POPC   GL150365  43.795  34.324   5.653
 3837POPC   GL250366  43.624  34.150   5.933
 3837POPC   C1A50367  44.038  34.429   6.052
 3837POPC   D2A50368  43.959  34.636   6.440
 3837POPC   C3A50369  43.980  34.528   6.833
 3837POPC   C4A50370  43.978  34.636   7.247
 3837POPC   C1B50371  43.541  34.447   6.237
 3837POPC   C2B50372  43.508  34.415   6.689
 3837POPC   C3B50373  43.482  34.634   7.060
 3837POPC   C4B50374  43.541  34.583   7.500
 3838POPC   NC350375  16.666  27.108   5.431
 3838POPC   PO450376  16.881  26.547   5.547
 3838POPC   GL150377  16.739  26.815   5.851
 3838POPC   GL250378  17.069  26.931   5.901
 3838POPC   C1A50379  16.767  26.729   6.287
 3838POPC   D2A50380  16.576  26.651   6.649
 3838POPC   C3A50381  16.602  27.005   6.901
 3838POPC   C4A50382  16.855  27.078   7.247
 3838POPC   C1B50383  17.196  26.515   6.133
 3838POPC   C2B50384  17.180  26.455   6.578
 3838POPC   C3B50385  17.067  26.668   6.950
 3838POPC   C4B50386  17.107  26.671   7.390
 3839POPC   NC350387  17.963  21.721   5.514
 3839POPC   PO450388  17.455  21.281   5.404
 3839POPC   GL150389  17.498  21.520   5.760
 3839POPC   GL250390  17.809  21.323   5.845
 3839POPC   C1A50391  17.251  21.637   6.152
 3839POPC   D2A50392  17.086  21.342   6.467
 3839POPC   C3A50393  17.210  21.464   6.860
 3839POPC   C4A50394  17.386  21.308   7.242
 3839POPC   C1B50395  17.776  21.656   6.163
 3839POPC   C2B50396  17.586  21.713   6.555
 3839POPC   C3B50397  17.715  21.519   6.911
 3839POPC   C4B50398  17.769  21.602   7.328
 3840POPC   NC350399  18.091   7.579   5.378
 3840POPC   PO450400  18.718   7.808   5.703
 3840POPC   GL150401  18.523   7.549   5.980
 3840POPC   GL250402  18.232   7.525   5.895
 3840POPC   C1A50403  18.411   7.485   6.413
 3840POPC   D2A50404  18.339   7.208   6.741
 3840POPC   C3A50405  18.492   7.351   7.090
 3840POPC   C4A50406  18.316   7.643   7.332
 3840POPC   C1B50407  17.945   7.562   6.248
 3840POPC   C2B50408  17.917   7.806   6.594
 3840POPC   C3B50409  17.918   7.583   6.984
 3840POPC   C4B50410  18.005   7.194   7.198
 3841POPC   NC350411   4.504   8.655   5.465
 3841POPC   PO450412   4.467   8.034   5.253
 3841POPC   GL150413   4.275   8.085   5.701
 3841POPC   GL250414   4.224   8.416   5.808
 3841POPC   C1A50415   4.308   8.101   6.198
 3841POPC   D2A50416   4.618   8.091   6.544
 3841POPC   C3A50417   4.433   8.095   6.980
 3841POPC   C4A50418   4.109   7.864   7.226
 3841POPC   C1B50419   4.252   8.623   6.175
 3841POPC   C2B50420   4.318   8.508   6.569
 3841POPC   C3B50421   4.173   8.576   6.948
 3841POPC   C4B50422   4.390   8.542   7.311
 3842POPC   NC350423  21.890  44.867   5.427
 3842POPC   PO450424  22.411  44.377   5.440
 3842POPC   GL150425  22.313  44.711   5.719
 3842POPC   GL250426  22.023  44.518   5.787
 3842POPC   C1A50427  22.399  44.796   6.168
 3842POPC   D2A50428  22.510  44.741   6.603
 3842POPC   C3A50429  22.307  44.593   6.966
 3842POPC   C4A50430  21.983  44.797   7.200
 3842POPC   C1B50431  21.898  44.786   6.107
 3842POPC   C2B50432  21.967  44.798   6.553
 3842POPC   C3B50433  21.834  44.444   6.807
 3842POPC   C4B50434  21.956  44.252   7.178
 3843POPC   NC350435  10.761  29.103   5.496
 3843POPC   PO450436  10.121  29.235   5.200
 3843POPC   GL150437  10.254  29.114   5.608
 3843POPC   GL250438  10.431  29.427   5.723
 3843POPC   C1A50439  10.380  29.006   6.042
 3843POPC   D2A50440  10.548  29.071   6.460
 3843POPC   C3A50441  10.392  29.004   6.901
 3843POPC   C4A50442  10.380  29.278   7.284
 3843POPC   C1B50443  10.633  29.476   6.135
 3843POPC   C2B50444  10.504  29.569   6.571
 3843POPC   C3B50445  10.710  29.479   6.950
 3843POPC   C4B50446  10.822  29.092   7.159
 3844POPC   NC350447   2.234  37.477   5.424
 3844POPC   PO450448   1.749  37.918   5.470
 3844POPC   GL150449   2.059  37.788   5.794
 3844POPC   GL250450   2.127  37.405   5.904
 3844POPC   C1A50451   2.043  37.790   6.237
 3844POPC   D2A50452   1.687  37.823   6.546
 3844POPC   C3A50453   1.705  37.522   6.890
 3844POPC   C4A50454   1.815  37.668   7.289
 3844POPC   C1B50455   2.206  37.234   6.314
 3844POPC   C2B50456   2.153  37.530   6.659
 3844POPC   C3B50457   2.266  37.572   7.076
 3844POPC   C4B50458   2.248  37.538   7.520
 3845POPC   NC350459  44.778  14.076   5.303
 3845POPC   PO450460  44.450  14.536   5.614
 3845POPC   GL150461  44.744  14.316   5.897
 3845POPC   GL250462  44.933  14.003   5.771
 3845POPC   C1A50463  44.695  14.334   6.362
 3845POPC   D2A50464  44.368  14.413   6.700
 3845POPC   C3A50465  44.530  14.456   7.126
 3845POPC   C4A50466  44.954  14.449   7.304
 3845POPC   C1B50467  44.851  13.863   6.160
 3845POPC   C2B50468   0.013  13.960   6.541
 3845POPC   C3B50469  44.906  14.118   6.918
 3845POPC   C4B50470   0.127  13.969   7.278
 3846POPC   NC350471  16.821   9.652   5.234
 3846POPC   PO450472  16.362   9.400   5.697
 3846POPC   GL150473  16.598   9.770   5.766
 3846POPC   GL250474  16.949   9.772   5.717
 3846POPC   C1A50475  16.640   9.710   6.218
 3846POPC   D2A50476  16.336   9.799   6.547
 3846POPC   C3A50477  16.486   9.755   6.988
 3846POPC   C4A50478  16.820   9.613   7.213
 3846POPC   C1B50479  17.063   9.971   6.101
 3846POPC   C2B50480  17.031   9.810   6.533
 3846POPC   C3B50481  17.018   9.981   6.915
 3846POPC   C4B50482  17.211  10.092   7.290
 3847POPC   NC350483  31.372  35.498   5.359
 3847POPC   PO450484  31.838  35.118   5.160
 3847POPC   GL150485  31.771  35.353   5.620
 3847POPC   GL250486  31.515  35.181   5.771
 3847POPC   C1A50487  31.744  35.596   6.042
 3847POPC   D2A50488  31.677  35.408   6.505
 3847POPC   C3A50489  31.537  35.534   6.949
 3847POPC   C4A50490  31.670  35.257   7.306
 3847POPC   C1B50491  31.247  35.469   6.034
 3847POPC   C2B50492  31.155  35.436   6.475
 3847POPC   C3B50493  31.214  35.157   6.834
 3847POPC   C4B50494  31.169  35.279   7.254
 3848POPC   NC350495  39.338  29.458   5.324
 3848POPC   PO450496  38.929  28.941   5.361
 3848POPC   GL150497  39.193  29.076   5.699
 3848POPC   GL250498  39.254  29.418   5.821
 3848POPC   C1A50499  39.309  28.926   6.118
 3848POPC   D2A50500  39.336  29.121   6.529
 3848POPC   C3A50501  39.337  28.861   6.910
 3848POPC   C4A50502  39.422  28.980   7.327
 3848POPC   C1B50503  39.233  29.633   6.221
 3848POPC   C2B50504  39.301  29.638   6.674
 3848POPC   C3B50505  39.448  29.419   7.050
 3848POPC   C4B50506  39.498  29.452   7.531
 3849POPC   NC350507   1.280  22.786   5.446
 3849POPC   PO450508   0.635  23.103   5.420
 3849POPC   GL150509   0.885  22.902   5.776
 3849POPC   GL250510   1.227  23.096   5.864
 3849POPC   C1A50511   1.021  22.805   6.228
 3849POPC   D2A50512   0.991  22.618   6.631
 3849POPC   C3A50513   1.148  22.929   6.955
 3849POPC   C4A50514   1.020  23.031   7.374
 3849POPC   C1B50515   1.533  22.901   6.196
 3849POPC   C2B50516   1.495  22.684   6.626
 3849POPC   C3B50517   1.513  22.562   7.101
 3849POPC   C4B50518   1.433  22.784   7.510
 3850POPC   NC350519   2.838  28.234   5.237
 3850POPC   PO450520   3.051  28.871   5.451
 3850POPC   GL150521   2.810  28.530   5.708
 3850POPC   GL250522   2.841  28.149   5.731
 3850POPC   C1A50523   2.843  28.448   6.179
 3850POPC   D2A50524   2.697  28.520   6.637
 3850POPC   C3A50525   2.935  28.353   7.018
 3850POPC   C4A50526   3.030  28.461   7.441
 3850POPC   C1B50527   2.449  28.209   5.969
 3850POPC   C2B50528   2.357  28.110   6.398
 3850POPC   C3B50529   2.356  28.174   6.848
 3850POPC   C4B50530   2.509  28.134   7.261
 3851POPC   NC350531  42.583  21.292   5.475
 3851POPC   PO450532  41.846  21.334   5.515
 3851POPC   GL150533  42.147  21.213   5.783
 3851POPC   GL250534  42.254  21.563   5.766
 3851POPC   C1A50535  42.239  21.276   6.211
 3851POPC   D2A50536  42.017  21.220   6.557
 3851POPC   C3A50537  42.268  21.162   6.839
 3851POPC   C4A50538  42.109  21.235   7.221
 3851POPC   C1B50539  42.230  21.797   6.148
 3851POPC   C2B50540  42.298  21.691   6.563
 3851POPC   C3B50541  42.366  21.629   6.975
 3851POPC   C4B50542  42.117  21.757   7.278
 3852POPC   NC350543  15.521  16.737   5.276
 3852POPC   PO450544  16.058  17.062   5.293
 3852POPC   GL150545  15.862  17.067   5.693
 3852POPC   GL250546  15.693  16.770   5.760
 3852POPC   C1A50547  15.934  16.969   6.150
 3852POPC   D2A50548  15.884  16.796   6.557
 3852POPC   C3A50549  16.073  16.920   6.961
 3852POPC   C4A50550  16.253  16.583   7.219
 3852POPC   C1B50551  15.554  16.528   6.119
 3852POPC   C2B50552  15.393  16.578   6.534
 3852POPC   C3B50553  15.613  16.549   6.939
 3852POPC   C4B50554  15.406  16.394   7.300
 3853POPC   NC350555  14.238  16.022   5.305
 3853POPC   PO450556  13.508  15.932   5.404
 3853POPC   GL150557  13.398  15.817   5.825
 3853POPC   GL250558  13.711  15.945   5.887
 3853POPC   C1A50559  13.406  16.043   6.251
 3853POPC   D2A50560  13.619  15.940   6.606
 3853POPC   C3A50561  13.334  15.807   6.914
 3853POPC   C4A50562  13.373  15.723   7.330
 3853POPC   C1B50563  13.898  16.262   6.194
 3853POPC   C2B50564  14.046  16.228   6.643
 3853POPC   C3B50565  13.805  16.245   6.989
 3853POPC   C4B50566  13.741  16.081   7.364
 3854POPC   NC350567  20.366  25.443   5.391
 3854POPC   PO450568  20.923  25.045   5.441
 3854POPC   GL150569  20.680  25.144   5.822
 3854POPC   GL250570  20.346  24.970   5.767
 3854POPC   C1A50571  20.714  25.258   6.287
 3854POPC   D2A50572  20.617  25.021   6.669
 3854POPC   C3A50573  20.441  25.022   7.056
 3854POPC   C4A50574  20.752  25.271   7.216
 3854POPC   C1B50575  20.253  25.332   6.045
 3854POPC   C2B50576  20.232  25.312   6.489
 3854POPC   C3B50577  20.441  25.494   6.842
 3854POPC   C4B50578  20.273  25.482   7.239
 3855POPC   NC350579   9.442   5.434   5.366
 3855POPC   PO450580   8.907   5.010   5.215
 3855POPC   GL150581   9.048   5.136   5.670
 3855POPC   GL250582   9.295   4.921   5.786
 3855POPC   C1A50583   9.066   5.134   6.174
 3855POPC   D2A50584   9.106   5.260   6.625
 3855POPC   C3A50585   8.860   5.152   6.989
 3855POPC   C4A50586   8.438   4.940   7.032
 3855POPC   C1B50587   9.350   4.684   6.181
 3855POPC   C2B50588   9.441   4.807   6.591
 3855POPC   C3B50589   9.135   4.677   6.894
 3855POPC   C4B50590   8.900   4.748   7.276
 3856POPC   NC350591  21.728   6.470   5.414
 3856POPC   PO450592  22.227   6.886   5.450
 3856POPC   GL150593  21.987   6.730   5.797
 3856POPC   GL250594  21.768   7.002   5.860
 3856POPC   C1A50595  22.176   6.518   6.186
 3856POPC   D2A50596  22.459   6.757   6.476
 3856POPC   C3A50597  22.409   6.739   6.931
 3856POPC   C4A50598  22.091   6.473   7.112
 3856POPC   C1B50599  21.917   6.937   6.267
 3856POPC   C2B50600  21.941   6.729   6.664
 3856POPC   C3B50601  21.952   6.979   7.025
 3856POPC   C4B50602  21.760   7.037   7.398
 3857POPC   NC350603  22.845  28.951   5.521
 3857POPC   PO450604  22.907  28.322   5.303
 3857POPC   GL150605  22.939  28.473   5.722
 3857POPC   GL250606  23.282  28.487   5.821
 3857POPC   C1A50607  22.730  28.443   6.116
 3857POPC   D2A50608  22.839  28.313   6.534
 3857POPC   C3A50609  22.607  28.485   6.855
 3857POPC   C4A50610  22.713  28.388   7.254
 3857POPC   C1B50611  23.184  28.620   6.260
 3857POPC   C2B50612  23.307  28.622   6.653
 3857POPC   C3B50613  23.177  28.437   7.017
 3857POPC   C4B50614  23.183  28.621   7.429
 3858POPC   NC350615  20.665  16.213   5.460
 3858POPC   PO450616  20.518  15.592   5.498
 3858POPC   GL150617  20.637  15.866   5.860
 3858POPC   GL250618  20.833  16.169   5.941
 3858POPC   C1A50619  20.589  15.939   6.325
 3858POPC   D2A50620  20.406  15.973   6.752
 3858POPC   C3A50621  20.617  15.873   7.136
 3858POPC   C4A50622  20.424  15.896   7.540
 3858POPC   C1B50623  21.001  16.238   6.361
 3858POPC   C2B50624  20.912  16.088   6.770
 3858POPC   C3B50625  21.101  16.064   7.198
 3858POPC   C4B50626  20.934  15.930   7.597
 3859POPC   NC350627   1.419  34.769   5.385
 3859POPC   PO450628   0.903  34.326   5.470
 3859POPC   GL150629   1.178  34.451   5.795
 3859POPC   GL250630   1.169  34.831   5.834
 3859POPC   C1A50631   1.021  34.365   6.198
 3859POPC   D2A50632   0.814  34.494   6.595
 3859POPC   C3A50633   1.068  34.609   6.915
 3859POPC   C4A50634   1.359  34.409   7.154
 3859POPC   C1B50635   0.993  34.884   6.247
 3859POPC   C2B50636   1.050  35.106   6.623
 3859POPC   C3B50637   1.006  35.080   7.074
 3859POPC   C4B50638   1.283  34.995   7.402
 3860POPC   NC350639  32.797  17.774   5.405
 3860POPC   PO450640  33.321  17.515   5.048
 3860POPC   GL150641  33.355  17.411   5.595
 3860POPC   GL250642  33.120  17.617   5.759
 3860POPC   C1A50643  33.385  17.417   6.124
 3860POPC   D2A50644  33.076  17.431   6.534
 3860POPC   C3A50645  33.213  17.600   6.943
 3860POPC   C4A50646  33.389  17.363   7.255
 3860POPC   C1B50647  33.007  17.774   6.164
 3860POPC   C2B50648  32.987  17.944   6.585
 3860POPC   C3B50649  32.752  17.828   6.949
 3860POPC   C4B50650  32.760  17.500   7.230
 3861POPC   NC350651  27.048   2.426   5.393
 3861POPC   PO450652  26.615   2.898   5.495
 3861POPC   GL150653  26.958   2.924   5.802
 3861POPC   GL250654  26.879   2.596   5.900
 3861POPC   C1A50655  27.063   3.111   6.227
 3861POPC   D2A50656  27.074   3.019   6.657
 3861POPC   C3A50657  26.866   3.108   7.007
 3861POPC   C4A50658  26.895   2.740   7.190
 3861POPC   C1B50659  26.657   2.808   6.275
 3861POPC   C2B50660  26.601   2.755   6.726
 3861POPC   C3B50661  26.615   2.373   6.974
 3861POPC   C4B50662  26.622   2.371   7.408
 3862POPC   NC350663  16.865  23.850   5.321
 3862POPC   PO450664  16.405  23.408   5.287
 3862POPC   GL150665  16.490  23.556   5.709
 3862POPC   GL250666  16.849  23.557   5.740
 3862POPC   C1A50667  16.591  23.596   6.176
 3862POPC   D2A50668  16.542  23.727   6.600
 3862POPC   C3A50669  16.560  23.420   6.941
 3862POPC   C4A50670  16.402  23.594   7.325
 3862POPC   C1B50671  17.025  23.858   6.065
 3862POPC   C2B50672  17.031  23.909   6.551
 3862POPC   C3B50673  16.847  23.857   7.015
 3862POPC   C4B50674  16.879  23.683   7.465
 3863POPC   NC350675   3.349  36.122   5.479
 3863POPC   PO450676   4.033  35.793   5.291
 3863POPC   GL150677   3.794  35.934   5.689
 3863POPC   GL250678   3.722  36.322   5.776
 3863POPC   C1A50679   3.645  35.972   6.138
 3863POPC   D2A50680   3.562  36.058   6.592
 3863POPC   C3A50681   3.775  35.971   6.994
 3863POPC   C4A50682   3.599  35.957   7.445
 3863POPC   C1B50683   3.568  36.504   6.206
 3863POPC   C2B50684   3.275  36.490   6.598
 3863POPC   C3B50685   3.367  36.316   7.032
 3863POPC   C4B50686   3.745  36.405   7.250
 3864POPC   NC350687  18.022  26.043   5.325
 3864POPC   PO450688  18.714  26.002   5.430
 3864POPC   GL150689  18.479  26.040   5.806
 3864POPC   GL250690  18.141  25.911   5.809
 3864POPC   C1A50691  18.343  26.282   6.170
 3864POPC   D2A50692  18.184  26.141   6.595
 3864POPC   C3A50693  18.352  26.323   6.962
 3864POPC   C4A50694  18.423  26.029   7.273
 3864POPC   C1B50695  18.080  25.625   6.164
 3864POPC   C2B50696  17.844  25.681   6.537
 3864POPC   C3B50697  17.893  25.869   6.924
 3864POPC   C4B50698  18.033  25.702   7.293
 3865POPC   NC350699  37.261  26.215   5.396
 3865POPC   PO450700  37.873  25.904   5.386
 3865POPC   GL150701  37.801  25.999   5.830
 3865POPC   GL250702  37.454  26.140   5.859
 3865POPC   C1A50703  37.931  25.844   6.253
 3865POPC   D2A50704  37.910  25.542   6.599
 3865POPC   C3A50705  37.885  25.719   7.014
 3865POPC   C4A50706  37.962  26.121   7.214
 3865POPC   C1B50707  37.443  26.005   6.271
 3865POPC   C2B50708  37.613  25.980   6.673
 3865POPC   C3B50709  37.467  26.147   7.067
 3865POPC   C4B50710  37.361  26.391   7.406
 3866POPC   NC350711  22.989  43.972   5.010
 3866POPC   PO450712  23.084  43.931   5.667
 3866POPC   GL150713  22.803  43.876   5.955
 3866POPC   GL250714  23.062  43.689   6.130
 3866POPC   C1A50715  22.652  43.888   6.371
 3866POPC   D2A50716  22.898  43.660   6.685
 3866POPC   C3A50717  22.885  43.871   7.084
 3866POPC   C4A50718  22.837  43.897   7.545
 3866POPC   C1B50719  23.127  44.071   6.331
 3866POPC   C2B50720  23.173  44.394   6.613
 3866POPC   C3B50721  23.157  44.296   7.015
 3866POPC   C4B50722  23.433  44.439   7.227
 3867POPC   NC350723  23.983  43.877   5.063
 3867POPC   PO450724  24.698  43.806   5.187
 3867POPC   GL150725  24.623  44.027   5.575
 3867POPC   GL250726  24.704  43.725   5.781
 3867POPC   C1A50727  24.512  44.117   6.037
 3867POPC   D2A50728  24.364  44.044   6.457
 3867POPC   C3A50729  24.625  43.958   6.787
 3867POPC   C4A50730  24.579  44.015   7.171
 3867POPC   C1B50731  24.707  43.585   6.212
 3867POPC   C2B50732  24.563  43.470   6.645
 3867POPC   C3B50733  24.638  43.481   7.108
 3867POPC   C4B50734  24.936  43.724   7.364
 3868POPC   NC350735  32.724  10.948   5.601
 3868POPC   PO450736  32.331  11.324   5.286
 3868POPC   GL150737  32.260  11.393   5.754
 3868POPC   GL250738  32.596  11.341   5.904
 3868POPC   C1A50739  32.134  11.244   6.184
 3868POPC   D2A50740  32.237  11.149   6.591
 3868POPC   C3A50741  32.090  11.407   6.935
 3868POPC   C4A50742  32.344  11.546   7.246
 3868POPC   C1B50743  32.650  11.055   6.276
 3868POPC   C2B50744  32.733  11.071   6.727
 3868POPC   C3B50745  32.502  11.071   7.137
 3868POPC   C4B50746  32.448  11.154   7.608
 3869POPC   NC350747  37.922  43.562   5.655
 3869POPC   PO450748  37.752  43.069   5.228
 3869POPC   GL150749  37.693  43.107   5.727
 3869POPC   GL250750  37.356  43.048   5.773
 3869POPC   C1A50751  37.851  43.242   6.185
 3869POPC   D2A50752  37.839  43.509   6.514
 3869POPC   C3A50753  38.043  43.399   6.895
 3869POPC   C4A50754  37.931  43.096   7.184
 3869POPC   C1B50755  37.352  43.366   6.105
 3869POPC   C2B50756  37.204  43.356   6.519
 3869POPC   C3B50757  37.174  43.258   6.942
 3869POPC   C4B50758  37.445  43.194   7.298
 3870POPC   NC350759  40.421  35.075   5.128
 3870POPC   PO450760  40.983  35.233   5.383
 3870POPC   GL150761  40.822  35.368   5.768
 3870POPC   GL250762  41.134  35.512   5.807
 3870POPC   C1A50763  40.700  35.247   6.207
 3870POPC   D2A50764  40.532  35.171   6.633
 3870POPC   C3A50765  40.838  35.053   6.958
 3870POPC   C4A50766  40.708  35.320   7.296
 3870POPC   C1B50767  41.059  35.729   6.167
 3870POPC   C2B50768  40.734  35.716   6.451
 3870POPC   C3B50769  40.886  35.532   6.804
 3870POPC   C4B50770  41.018  35.688   7.174
 3871POPC   NC350771  35.477  13.613   5.362
 3871POPC   PO450772  34.748  13.779   5.359
 3871POPC   GL150773  35.112  13.770   5.662
 3871POPC   GL250774  34.986  13.487   5.791
 3871POPC   C1A50775  35.422  13.568   6.035
 3871POPC   D2A50776  35.551  13.741   6.470
 3871POPC   C3A50777  35.399  13.558   6.866
 3871POPC   C4A50778  35.520  13.653   7.281
 3871POPC   C1B50779  35.016  13.818   6.150
 3871POPC   C2B50780  35.068  13.582   6.467
 3871POPC   C3B50781  34.899  13.418   6.819
 3871POPC   C4B50782  34.983  13.635   7.203
 3872POPC   NC350783   9.653  37.500   4.843
 3872POPC   PO450784  10.006  37.722   5.451
 3872POPC   GL150785   9.804  37.694   5.814
 3872POPC   GL250786  10.055  37.470   5.896
 3872POPC   C1A50787   9.584  37.807   6.209
 3872POPC   D2A50788   9.587  38.130   6.538
 3872POPC   C3A50789   9.472  37.950   6.945
 3872POPC   C4A50790   9.723  37.788   7.289
 3872POPC   C1B50791  10.070  37.683   6.272
 3872POPC   C2B50792   9.882  37.714   6.682
 3872POPC   C3B50793  10.155  37.705   7.031
 3872POPC   C4B50794  10.118  37.496   7.410
 3873POPC   NC350795  16.403  35.797   5.551
 3873POPC   PO450796  15.766  36.116   5.383
 3873POPC   GL150797  16.045  36.137   5.760
 3873POPC   GL250798  15.932  35.776   5.757
 3873POPC   C1A50799  16.154  36.418   6.166
 3873POPC   D2A50800  15.960  36.540   6.608
 3873POPC   C3A50801  16.067  36.477   7.046
 3873POPC   C4A50802  15.780  36.268   7.366
 3873POPC   C1B50803  15.825  35.837   6.161
 3873POPC   C2B50804  16.004  36.021   6.514
 3873POPC   C3B50805  15.822  36.059   6.889
 3873POPC   C4B50806  15.830  35.759   7.203
 3874POPC   NC350807  41.254  11.369   5.460
 3874POPC   PO450808  41.856  11.138   5.230
 3874POPC   GL150809  41.657  11.056   5.678
 3874POPC   GL250810  41.995  11.108   5.792
 3874POPC   C1A50811  41.411  11.227   6.102
 3874POPC   D2A50812  41.187  11.384   6.518
 3874POPC   C3A50813  41.444  11.291   6.903
 3874POPC   C4A50814  41.321  11.069   7.256
 3874POPC   C1B50815  41.843  10.953   6.165
 3874POPC   C2B50816  41.802  11.130   6.560
 3874POPC   C3B50817  41.944  11.114   6.974
 3874POPC   C4B50818  41.817  10.925   7.318
 3875POPC   NC350819  17.473  17.868   5.373
 3875POPC   PO450820  17.783  17.334   5.406
 3875POPC   GL150821  17.600  17.473   5.843
 3875POPC   GL250822  17.391  17.762   5.871
 3875POPC   C1A50823  17.509  17.377   6.319
 3875POPC   D2A50824  17.724  17.361   6.747
 3875POPC   C3A50825  17.587  17.225   7.178
 3875POPC   C4A50826  17.240  17.239   7.454
 3875POPC   C1B50827  17.199  17.781   6.277
 3875POPC   C2B50828  17.292  17.680   6.700
 3875POPC   C3B50829  17.250  17.634   7.131
 3875POPC   C4B50830  17.471  17.678   7.547
 3876POPC   NC350831   3.766  11.880   5.542
 3876POPC   PO450832   3.160  12.115   5.420
 3876POPC   GL150833   3.386  12.012   5.841
 3876POPC   GL250834   3.670  12.250   5.901
 3876POPC   C1A50835   3.568  11.815   6.232
 3876POPC   D2A50836   3.899  11.749   6.563
 3876POPC   C3A50837   3.777  11.929   6.940
 3876POPC   C4A50838   3.398  11.910   7.124
 3876POPC   C1B50839   3.703  12.285   6.351
 3876POPC   C2B50840   3.785  12.405   6.770
 3876POPC   C3B50841   3.674  12.382   7.224
 3876POPC   C4B50842   3.704  12.378   7.709
 3877POPC   NC350843   6.398   8.828   5.425
 3877POPC   PO450844   7.032   9.010   5.499
 3877POPC   GL150845   6.875   9.166   5.842
 3877POPC   GL250846   6.614   8.974   5.875
 3877POPC   C1A50847   6.986   9.038   6.255
 3877POPC   D2A50848   6.729   8.944   6.628
 3877POPC   C3A50849   6.902   8.936   7.068
 3877POPC   C4A50850   6.807   8.784   7.539
 3877POPC   C1B50851   6.437   8.718   6.166
 3877POPC   C2B50852   6.216   8.885   6.485
 3877POPC   C3B50853   6.285   8.996   6.904
 3877POPC   C4B50854   6.417   8.899   7.258
 3878POPC   NC350855  17.506  25.606   5.271
 3878POPC   PO450856  17.435  26.280   5.369
 3878POPC   GL150857  17.572  25.948   5.679
 3878POPC   GL250858  17.661  26.214   5.856
 3878POPC   C1A50859  17.482  25.793   6.144
 3878POPC   D2A50860  17.342  25.576   6.523
 3878POPC   C3A50861  17.367  25.790   6.908
 3878POPC   C4A50862  17.538  25.850   7.308
 3878POPC   C1B50863  17.863  26.102   6.210
 3878POPC   C2B50864  17.603  26.142   6.576
 3878POPC   C3B50865  17.544  26.269   7.003
 3878POPC   C4B50866  17.919  26.227   7.300
 3879POPC   NC350867  40.863   7.286   5.397
 3879POPC   PO450868  40.271   7.680   5.292
 3879POPC   GL150869  40.512   7.497   5.727
 3879POPC   GL250870  40.902   7.438   5.872
 3879POPC   C1A50871  40.436   7.510   6.200
 3879POPC   D2A50872  40.326   7.348   6.647
 3879POPC   C3A50873  40.500   7.598   6.978
 3879POPC   C4A50874  40.852   7.594   7.268
 3879POPC   C1B50875  40.901   7.304   6.308
 3879POPC   C2B50876  40.891   7.354   6.759
 3879POPC   C3B50877  40.937   7.115   7.172
 3879POPC   C4B50878  41.093   7.144   7.644
 3880POPC   NC350879  12.281  14.669   5.315
 3880POPC   PO450880  12.047  14.167   5.546
 3880POPC   GL150881  12.104  14.526   5.770
 3880POPC   GL250882  12.469  14.494   5.778
 3880POPC   C1A50883  12.132  14.532   6.200
 3880POPC   D2A50884  11.857  14.535   6.524
 3880POPC   C3A50885  12.039  14.550   6.917
 3880POPC   C4A50886  11.759  14.696   7.261
 3880POPC   C1B50887  12.435  14.131   6.120
 3880POPC   C2B50888  12.200  14.142   6.541
 3880POPC   C3B50889  12.003  14.054   6.946
 3880POPC   C4B50890  12.099  14.279   7.342
 3881POPC   NC350891  31.128  20.725   5.239
 3881POPC   PO450892  31.677  20.371   5.225
 3881POPC   GL150893  31.455  20.559   5.647
 3881POPC   GL250894  31.278  20.911   5.763
 3881POPC   C1A50895  31.553  20.639   6.095
 3881POPC   D2A50896  31.308  20.619   6.492
 3881POPC   C3A50897  31.494  20.597   6.911
 3881POPC   C4A50898  31.451  20.361   7.322
 3881POPC   C1B50899  31.517  21.143   6.118
 3881POPC   C2B50900  31.387  21.158   6.537
 3881POPC   C3B50901  31.128  20.980   6.833
 3881POPC   C4B50902  31.149  20.790   7.212
 3882POPC   NC350903  38.753  44.110   5.555
 3882POPC   PO450904  38.592  43.545   5.253
 3882POPC   GL150905  38.430  43.668   5.679
 3882POPC   GL250906  38.465  43.956   5.926
 3882POPC   C1A50907  38.485  43.497   6.109
 3882POPC   D2A50908  38.379  43.482   6.526
 3882POPC   C3A50909  38.580  43.742   6.842
 3882POPC   C4A50910  38.345  43.988   7.192
 3882POPC   C1B50911  38.547  43.994   6.388
 3882POPC   C2B50912  38.486  44.245   6.765
 3882POPC   C3B50913  38.706  44.330   7.161
 3882POPC   C4B50914  38.544  44.249   7.610
 3883POPC   NC350915  36.019  24.943   5.030
 3883POPC   PO450916  35.995  25.465   5.394
 3883POPC   GL150917  36.256  25.222   5.695
 3883POPC   GL250918  36.038  25.085   5.920
 3883POPC   C1A50919  36.504  25.142   6.098
 3883POPC   D2A50920  36.331  25.123   6.556
 3883POPC   C3A50921  36.505  25.219   6.982
 3883POPC   C4A50922  36.301  25.314   7.388
 3883POPC   C1B50923  36.111  25.436   6.207
 3883POPC   C2B50924  36.033  25.537   6.636
 3883POPC   C3B50925  35.937  25.315   7.019
 3883POPC   C4B50926  35.805  25.530   7.392
 3884POPC   NC350927   0.248  23.317   5.584
 3884POPC   PO450928   0.337  23.909   5.367
 3884POPC   GL150929   0.466  23.754   5.765
 3884POPC   GL250930   0.719  23.467   5.788
 3884POPC   C1A50931   0.257  23.720   6.179
 3884POPC   D2A50932   0.313  23.551   6.630
 3884POPC   C3A50933   0.105  23.768   7.005
 3884POPC   C4A50934   0.091  23.890   7.466
 3884POPC   C1B50935   0.758  23.605   6.227
 3884POPC   C2B50936   0.904  23.706   6.644
 3884POPC   C3B50937   0.849  23.468   6.990
 3884POPC   C4B50938   0.544  23.630   7.219
 3885POPC   NC350939  15.907  18.201   5.470
 3885POPC   PO450940  15.559  18.741   5.521
 3885POPC   GL150941  15.752  18.493   5.857
 3885POPC   GL250942  15.664  18.108   5.913
 3885POPC   C1A50943  16.016  18.340   6.200
 3885POPC   D2A50944  15.958  18.444   6.648
 3885POPC   C3A50945  16.080  18.269   7.042
 3885POPC   C4A50946  15.927  18.238   7.456
 3885POPC   C1B50947  15.878  17.858   6.241
 3885POPC   C2B50948  16.021  17.889   6.666
 3885POPC   C3B50949  15.828  17.829   7.074
 3885POPC   C4B50950  15.829  17.756   7.564
 3886POPC   NC350951  38.037  11.224   5.429
 3886POPC   PO450952  38.596  11.560   5.592
 3886POPC   GL150953  38.277  11.408   5.888
 3886POPC   GL250954  38.097  11.085   5.974
 3886POPC   C1A50955  38.265  11.538   6.325
 3886POPC   D2A50956  38.631  11.479   6.603
 3886POPC   C3A50957  38.614  11.236   6.977
 3886POPC   C4A50958  38.216  11.353   7.132
 3886POPC   C1B50959  38.448  11.046   6.282
 3886POPC   C2B50960  38.375  10.851   6.695
 3886POPC   C3B50961  38.178  10.850   7.091
 3886POPC   C4B50962  38.561  10.858   7.336
 3887POPC   NC350963  21.868  36.864   5.005
 3887POPC   PO450964  22.238  37.071   5.336
 3887POPC   GL150965  22.066  36.921   5.735
 3887POPC   GL250966  22.021  36.556   5.781
 3887POPC   C1A50967  22.171  36.943   6.202
 3887POPC   D2A50968  22.012  36.993   6.654
 3887POPC   C3A50969  22.126  37.258   7.054
 3887POPC   C4A50970  22.373  37.256   7.472
 3887POPC   C1B50971  22.017  36.445   6.239
 3887POPC   C2B50972  22.263  36.548   6.626
 3887POPC   C3B50973  22.279  36.750   7.056
 3887POPC   C4B50974  22.218  36.757   7.511
 3888POPC   NC350975   2.867  32.696   5.441
 3888POPC   PO450976   2.614  32.014   5.628
 3888POPC   GL150977   2.771  32.370   5.804
 3888POPC   GL250978   3.123  32.341   5.731
 3888POPC   C1A50979   2.844  32.591   6.180
 3888POPC   D2A50980   2.993  32.420   6.569
 3888POPC   C3A50981   2.858  32.537   6.991
 3888POPC   C4A50982   2.576  32.260   7.196
 3888POPC   C1B50983   3.181  32.065   6.096
 3888POPC   C2B50984   3.329  32.033   6.520
 3888POPC   C3B50985   3.088  31.937   6.895
 3888POPC   C4B50986   3.056  32.084   7.310
 3889POPC   NC350987  34.391  44.156   5.617
 3889POPC   PO450988  34.892  43.832   5.403
 3889POPC   GL150989  34.671  43.741   5.812
 3889POPC   GL250990  34.635  44.045   6.034
 3889POPC   C1A50991  34.747  43.640   6.288
 3889POPC   D2A50992  34.519  43.905   6.599
 3889POPC   C3A50993  34.578  43.899   7.038
 3889POPC   C4A50994  34.378  44.086   7.412
 3889POPC   C1B50995  34.267  43.781   6.146
 3889POPC   C2B50996  34.079  43.623   6.540
 3889POPC   C3B50997  34.093  43.723   7.004
 3889POPC   C4B50998  34.025  43.710   7.481
 3890POPC   NC350999  32.981  39.250   5.052
 3890POPC   PO451000  32.330  39.340   5.213
 3890POPC   GL151001  32.210  39.226   5.701
 3890POPC   GL251002  32.041  39.468   5.913
 3890POPC   C1A51003  32.102  38.971   6.064
 3890POPC   D2A51004  32.061  39.027   6.506
 3890POPC   C3A51005  32.414  39.070   6.770
 3890POPC   C4A51006  32.367  39.031   7.204
 3890POPC   C1B51007  32.342  39.400   6.249
 3890POPC   C2B51008  32.324  39.576   6.663
 3890POPC   C3B51009  32.144  39.478   7.061
 3890POPC   C4B51010  32.140  39.490   7.518
 3891POPC   NC351011  19.782  40.985   5.352
 3891POPC   PO451012  20.133  40.335   5.637
 3891POPC   GL151013  19.925  40.771   5.801
 3891POPC   GL251014  19.714  41.109   5.826
 3891POPC   C1A51015  20.016  40.929   6.186
 3891POPC   D2A51016  19.818  40.979   6.555
 3891POPC   C3A51017  19.765  40.688   6.867
 3891POPC   C4A51018  19.930  40.788   7.274
 3891POPC   C1B51019  19.478  41.006   6.179
 3891POPC   C2B51020  19.370  41.246   6.553
 3891POPC   C3B51021  19.538  41.165   6.944
 3891POPC   C4B51022  19.467  40.992   7.329
 3892POPC   NC351023  26.647  19.292   5.375
 3892POPC   PO451024  26.877  18.759   5.341
 3892POPC   GL151025  26.708  18.937   5.736
 3892POPC   GL251026  26.970  19.133   5.869
 3892POPC   C1A51027  26.471  19.102   6.066
 3892POPC   D2A51028  26.633  19.180   6.468
 3892POPC   C3A51029  26.814  18.914   6.749
 3892POPC   C4A51030  26.667  19.118   7.118
 3892POPC   C1B51031  27.097  19.002   6.304
 3892POPC   C2B51032  27.355  18.949   6.696
 3892POPC   C3B51033  27.179  19.036   7.096
 3892POPC   C4B51034  26.966  18.639   7.154
 3893POPC   NC351035   4.881  35.420   5.407
 3893POPC   PO451036   4.361  34.893   5.325
 3893POPC   GL151037   4.271  35.289   5.625
 3893POPC   GL251038   4.510  35.247   5.850
 3893POPC   C1A51039   4.184  35.641   5.986
 3893POPC   D2A51040   4.488  35.710   6.358
 3893POPC   C3A51041   4.433  35.482   6.776
 3893POPC   C4A51042   4.149  35.636   7.093
 3893POPC   C1B51043   4.111  35.151   6.111
 3893POPC   C2B51044   3.929  35.275   6.501
 3893POPC   C3B51045   3.967  35.175   6.932
 3893POPC   C4B51046   3.967  35.135   7.383
 3894POPC   NC351047  31.226  24.695   5.463
 3894POPC   PO451048  31.688  24.295   5.204
 3894POPC   GL151049  31.603  24.359   5.642
 3894POPC   GL251050  31.260  24.280   5.746
 3894POPC   C1A51051  31.689  24.355   6.105
 3894POPC   D2A51052  31.823  24.565   6.500
 3894POPC   C3A51053  31.564  24.520   6.865
 3894POPC   C4A51054  31.708  24.431   7.245
 3894POPC   C1B51055  31.232  24.099   6.134
 3894POPC   C2B51056  31.308  24.278   6.512
 3894POPC   C3B51057  31.186  24.136   6.924
 3894POPC   C4B51058  31.250  24.246   7.295
 3895POPC   NC351059   7.854  26.193   5.340
 3895POPC   PO451060   8.259  25.702   5.444
 3895POPC   GL151061   7.978  25.842   5.779
 3895POPC   GL251062   7.983  26.213   5.839
 3895POPC   C1A51063   8.086  25.872   6.233
 3895POPC   D2A51064   8.246  26.072   6.620
 3895POPC   C3A51065   8.196  25.840   7.023
 3895POPC   C4A51066   8.524  25.725   7.330
 3895POPC   C1B51067   8.060  26.411   6.253
 3895POPC   C2B51068   7.913  26.481   6.683
 3895POPC   C3B51069   8.181  26.378   7.029
 3895POPC   C4B51070   8.427  26.212   7.318
 3896POPC   NC351071  25.778  33.234   5.440
 3896POPC   PO451072  26.366  32.919   5.515
 3896POPC   GL151073  25.985  32.874   5.768
 3896POPC   GL251074  26.058  33.231   5.866
 3896POPC   C1A51075  25.758  32.904   6.187
 3896POPC   D2A51076  25.896  33.199   6.512
 3896POPC   C3A51077  26.021  33.039   6.920
 3896POPC   C4A51078  25.782  32.806   7.244
 3896POPC   C1B51079  26.262  32.979   6.195
 3896POPC   C2B51080  26.455  32.876   6.564
 3896POPC   C3B51081  26.529  32.974   6.986
 3896POPC   C4B51082  26.271  32.840   7.353
 3897POPC   NC351083   6.215  31.702   4.927
 3897POPC   PO451084   5.859  31.526   5.522
 3897POPC   GL151085   5.760  31.454   5.910
 3897POPC   GL251086   5.562  31.161   5.978
 3897POPC   C1A51087   5.674  31.676   6.268
 3897POPC   D2A51088   5.749  31.969   6.595
 3897POPC   C3A51089   5.656  31.763   6.959
 3897POPC   C4A51090   5.926  31.544   7.222
 3897POPC   C1B51091   5.834  31.117   6.315
 3897POPC   C2B51092   5.790  30.948   6.718
 3897POPC   C3B51093   5.620  30.896   7.117
 3897POPC   C4B51094   5.584  31.203   7.417
 3898POPC   NC351095   9.207  28.102   5.354
 3898POPC   PO451096   8.830  28.740   5.318
 3898POPC   GL151097   8.990  28.538   5.685
 3898POPC   GL251098   8.785  28.232   5.684
 3898POPC   C1A51099   9.234  28.394   6.059
 3898POPC   D2A51100   9.278  28.285   6.526
 3898POPC   C3A51101   9.092  28.589   6.806
 3898POPC   C4A51102   9.145  28.530   7.263
 3898POPC   C1B51103   8.701  28.333   6.137
 3898POPC   C2B51104   8.726  28.169   6.573
 3898POPC   C3B51105   8.821  28.212   7.011
 3898POPC   C4B51106   8.660  28.613   7.093
 3899POPC   NC351107  10.195   7.120   5.465
 3899POPC   PO451108  10.753   7.398   5.233
 3899POPC   GL151109  10.713   7.409   5.735
 3899POPC   GL251110  10.379   7.338   5.923
 3899POPC   C1A51111  10.664   7.658   6.151
 3899POPC   D2A51112  10.413   7.478   6.500
 3899POPC   C3A51113  10.562   7.413   6.939
 3899POPC   C4A51114  10.356   7.120   7.211
 3899POPC   C1B51115  10.143   7.719   6.125
 3899POPC   C2B51116   9.939   7.752   6.486
 3899POPC   C3B51117  10.148   7.744   6.861
 3899POPC   C4B51118  10.224   7.781   7.264
 3900POPC   NC351119   4.824  22.569   5.354
 3900POPC   PO451120   4.484  21.906   5.270
 3900POPC   GL151121   4.333  22.104   5.653
 3900POPC   GL251122   4.549  21.881   5.806
 3900POPC   C1A51123   4.232  22.176   6.124
 3900POPC   D2A51124   4.219  22.503   6.481
 3900POPC   C3A51125   4.211  22.321   6.902
 3900POPC   C4A51126   4.330  22.433   7.314
 3900POPC   C1B51127   4.686  21.935   6.222
 3900POPC   C2B51128   4.590  22.162   6.589
 3900POPC   C3B51129   4.683  22.101   7.036
 3900POPC   C4B51130   4.402  21.934   7.372
 3901POPC   NC351131  32.684  40.580   5.393
 3901POPC   PO451132  32.134  40.951   5.463
 3901POPC   GL151133  32.204  40.837   5.858
 3901POPC   GL251134  32.521  40.918   5.842
 3901POPC   C1A51135  32.374  40.728   6.292
 3901POPC   D2A51136  32.659  40.639   6.609
 3901POPC   C3A51137  32.478  40.653   7.001
 3901POPC   C4A51138  32.107  40.844   7.153
 3901POPC   C1B51139  32.443  41.218   6.188
 3901POPC   C2B51140  32.603  41.181   6.600
 3901POPC   C3B51141  32.457  41.187   7.029
 3901POPC   C4B51142  32.437  41.054   7.476
 3902POPC   NC351143  14.104  25.814   5.599
 3902POPC   PO451144  14.246  26.495   5.384
 3902POPC   GL151145  14.480  26.301   5.790
 3902POPC   GL251146  14.628  25.937   5.762
 3902POPC   C1A51147  14.457  26.090   6.211
 3902POPC   D2A51148  14.414  25.887   6.602
 3902POPC   C3A51149  14.531  26.189   6.901
 3902POPC   C4A51150  14.402  26.324   7.314
 3902POPC   C1B51151  14.691  25.628   6.123
 3902POPC   C2B51152  14.698  25.450   6.540
 3902POPC   C3B51153  14.634  25.579   6.969
 3902POPC   C4B51154  14.635  25.873   7.292
 3903POPC   NC351155   9.642  39.824   5.500
 3903POPC   PO451156   9.917  40.288   5.161
 3903POPC   GL151157   9.872  40.265   5.679
 3903POPC   GL251158   9.684  40.107   5.908
 3903POPC   C1A51159  10.064  40.324   6.126
 3903POPC   D2A51160  10.173  40.341   6.544
 3903POPC   C3A51161   9.910  40.210   6.890
 3903POPC   C4A51162   9.689  40.079   7.259
 3903POPC   C1B51163   9.782  39.777   6.167
 3903POPC   C2B51164   9.817  39.801   6.594
 3903POPC   C3B51165   9.574  39.705   6.918
 3903POPC   C4B51166   9.430  39.630   7.295
 3904POPC   NC351167   8.798   4.570   5.250
 3904POPC   PO451168   8.167   4.313   5.253
 3904POPC   GL151169   8.046   4.467   5.633
 3904POPC   GL251170   8.305   4.318   5.836
 3904POPC   C1A51171   7.951   4.689   6.025
 3904POPC   D2A51172   7.854   4.558   6.467
 3904POPC   C3A51173   8.103   4.588   6.829
 3904POPC   C4A51174   8.012   4.710   7.221
 3904POPC   C1B51175   7.879   4.184   6.053
 3904POPC   C2B51176   7.807   4.004   6.454
 3904POPC   C3B51177   7.919   4.105   6.853
 3904POPC   C4B51178   8.163   4.196   7.211
 3905POPC   NC351179   4.805  16.203   5.248
 3905POPC   PO451180   5.271  15.753   5.392
 3905POPC   GL151181   5.273  15.757   5.835
 3905POPC   GL251182   4.940  15.779   5.862
 3905POPC   C1A51183   5.396  15.772   6.286
 3905POPC   D2A51184   5.506  15.688   6.742
 3905POPC   C3A51185   5.134  15.767   7.022
 3905POPC   C4A51186   4.935  16.166   7.174
 3905POPC   C1B51187   4.902  15.581   6.266
 3905POPC   C2B51188   4.747  15.712   6.637
 3905POPC   C3B51189   4.691  15.504   6.997
 3905POPC   C4B51190   4.761  15.717   7.386
 3906POPC   NC351191  25.594  29.321   5.444
 3906POPC   PO451192  25.230  28.868   5.145
 3906POPC   GL151193  25.324  28.926   5.651
 3906POPC   GL251194  25.222  29.271   5.808
 3906POPC   C1A51195  25.453  28.831   6.123
 3906POPC   D2A51196  25.596  28.787   6.615
 3906POPC   C3A51197  25.423  29.083   6.972
 3906POPC   C4A51198  25.612  29.494   7.094
 3906POPC   C1B51199  25.136  29.300   6.282
 3906POPC   C2B51200  25.232  29.488   6.704
 3906POPC   C3B51201  24.993  29.399   7.078
 3906POPC   C4B51202  24.846  29.009   7.100
 3907POPC   NC351203  27.296  10.705   5.512
 3907POPC   PO451204  26.599  10.657   5.458
 3907POPC   GL151205  26.793  10.508   5.869
 3907POPC   GL251206  27.108  10.323   5.833
 3907POPC   C1A51207  26.684  10.634   6.334
 3907POPC   D2A51208  26.471  10.708   6.700
 3907POPC   C3A51209  26.676  10.568   7.061
 3907POPC   C4A51210  26.993  10.822   7.319
 3907POPC   C1B51211  27.163  10.540   6.245
 3907POPC   C2B51212  27.082  10.639   6.713
 3907POPC   C3B51213  27.215  10.397   7.095
 3907POPC   C4B51214  27.288  10.355   7.563
 3908POPC   NC351215   0.494  11.743   5.391
 3908POPC   PO451216   0.587  12.429   5.355
 3908POPC   GL151217   0.641  12.117   5.704
 3908POPC   GL251218   0.348  11.900   5.852
 3908POPC   C1A51219   0.737  12.080   6.135
 3908POPC   D2A51220   0.535  11.907   6.492
 3908POPC   C3A51221   0.716  12.026   6.872
 3908POPC   C4A51222   0.600  12.074   7.289
 3908POPC   C1B51223   0.193  12.171   6.192
 3908POPC   C2B51224   0.023  12.151   6.603
 3908POPC   C3B51225   0.163  12.177   7.044
 3908POPC   C4B51226   0.164  12.491   7.423
 3909POPC   NC351227  15.968  37.257   5.443
 3909POPC   PO451228  16.353  37.782   5.443
 3909POPC   GL151229  16.108  37.630   5.810
 3909POPC   GL251230  15.729  37.578   5.780
 3909POPC   C1A51231  15.963  37.376   6.168
 3909POPC   D2A51232  15.812  37.429   6.537
 3909POPC   C3A51233  16.097  37.696   6.783
 3909POPC   C4A51234  16.194  37.645   7.208
 3909POPC   C1B51235  15.721  37.844   6.173
 3909POPC   C2B51236  15.662  37.904   6.625
 3909POPC   C3B51237  15.628  37.619   7.000
 3909POPC   C4B51238  15.731  37.752   7.436
 3910POPC   NC351239  43.819  31.689   5.688
 3910POPC   PO451240  44.220  31.211   5.502
 3910POPC   GL151241  44.196  31.217   5.915
 3910POPC   GL251242  44.278  31.563   5.906
 3910POPC   C1A51243  44.050  31.302   6.330
 3910POPC   D2A51244  43.716  31.367   6.616
 3910POPC   C3A51245  43.802  31.162   7.034
 3910POPC   C4A51246  44.176  31.215   7.317
 3910POPC   C1B51247  44.225  31.796   6.247
 3910POPC   C2B51248  44.028  31.803   6.602
 3910POPC   C3B51249  44.016  31.612   6.974
 3910POPC   C4B51250  43.667  31.635   7.224
 3911POPC   NC351251  17.683   9.274   5.372
 3911POPC   PO451252  17.149   8.945   5.616
 3911POPC   GL151253  17.286   9.083   5.962
 3911POPC   GL251254  17.631   9.036   5.915
 3911POPC   C1A51255  17.319   9.018   6.374
 3911POPC   D2A51256  17.670   9.002   6.692
 3911POPC   C3A51257  17.513   9.140   7.113
 3911POPC   C4A51258  17.376   9.167   7.583
 3911POPC   C1B51259  17.569   8.641   6.178
 3911POPC   C2B51260  17.372   8.553   6.589
 3911POPC   C3B51261  17.556   8.586   6.993
 3911POPC   C4B51262  17.531   8.731   7.400
 3912POPC   NC351263  34.171  13.194   5.554
 3912POPC   PO451264  33.539  12.857   5.450
 3912POPC   GL151265  33.711  12.751   5.811
 3912POPC   GL251266  34.056  12.716   5.746
 3912POPC   C1A51267  33.834  12.907   6.212
 3912POPC   D2A51268  33.950  13.154   6.568
 3912POPC   C3A51269  33.865  12.982   6.925
 3912POPC   C4A51270  33.692  13.020   7.307
 3912POPC   C1B51271  34.200  12.563   6.123
 3912POPC   C2B51272  34.233  12.730   6.545
 3912POPC   C3B51273  34.201  12.569   6.945
 3912POPC   C4B51274  34.111  12.705   7.320
 3913POPC   NC351275  18.821  27.615   5.336
 3913POPC   PO451276  18.172  27.600   5.238
 3913POPC   GL151277  18.284  27.490   5.658
 3913POPC   GL251278  18.568  27.684   5.792
 3913POPC   C1A51279  18.354  27.342   6.097
 3913POPC   D2A51280  18.562  27.490   6.485
 3913POPC   C3A51281  18.352  27.363   6.865
 3913POPC   C4A51282  18.200  27.391   7.278
 3913POPC   C1B51283  18.483  28.011   6.105
 3913POPC   C2B51284  18.207  28.087   6.437
 3913POPC   C3B51285  18.314  27.871   6.810
 3913POPC   C4B51286  18.543  27.886   7.156
 3914POPC   NC351287  41.081  35.783   5.383
 3914POPC   PO451288  40.725  36.372   5.237
 3914POPC   GL151289  40.680  36.236   5.732
 3914POPC   GL251290  40.743  35.897   5.811
 3914POPC   C1A51291  40.943  36.228   6.193
 3914POPC   D2A51292  41.125  36.037   6.608
 3914POPC   C3A51293  40.945  36.203   6.991
 3914POPC   C4A51294  40.558  36.347   7.128
 3914POPC   C1B51295  40.474  36.086   6.172
 3914POPC   C2B51296  40.548  36.193   6.607
 3914POPC   C3B51297  40.544  35.883   6.929
 3914POPC   C4B51298  40.551  35.830   7.367
 3915POPC   NC351299  13.265   4.860   5.055
 3915POPC   PO451300  12.777   5.195   5.450
 3915POPC   GL151301  12.724   5.142   5.837
 3915POPC   GL251302  12.392   5.303   5.841
 3915POPC   C1A51303  12.957   5.008   6.196
 3915POPC   D2A51304  12.774   4.980   6.572
 3915POPC   C3A51305  12.897   5.242   6.853
 3915POPC   C4A51306  13.045   5.353   7.218
 3915POPC   C1B51307  12.340   5.507   6.191
 3915POPC   C2B51308  12.512   5.435   6.562
 3915POPC   C3B51309  12.582   5.654   6.929
 3915POPC   C4B51310  12.511   5.488   7.330
 3916POPC   NC351311  43.022  11.196   5.115
 3916POPC   PO451312  43.001  11.713   5.569
 3916POPC   GL151313  42.973  11.345   5.815
 3916POPC   GL251314  43.253  11.101   5.764
 3916POPC   C1A51315  43.096  11.303   6.225
 3916POPC   D2A51316  43.295  11.587   6.460
 3916POPC   C3A51317  43.182  11.543   6.846
 3916POPC   C4A51318  42.983  11.329   7.139
 3916POPC   C1B51319  43.536  11.070   6.153
 3916POPC   C2B51320  43.380  11.081   6.613
 3916POPC   C3B51321  43.354  10.980   7.084
 3916POPC   C4B51322  43.196  11.110   7.550
 3917POPC   NC351323   5.353  21.099   5.458
 3917POPC   PO451324   5.094  20.522   5.564
 3917POPC   GL151325   5.288  20.582   5.941
 3917POPC   GL251326   5.214  20.912   5.907
 3917POPC   C1A51327   5.266  20.623   6.371
 3917POPC   D2A51328   4.896  20.556   6.581
 3917POPC   C3A51329   5.001  20.350   6.912
 3917POPC   C4A51330   5.006  20.471   7.322
 3917POPC   C1B51331   4.926  20.992   6.234
 3917POPC   C2B51332   4.803  21.034   6.669
 3917POPC   C3B51333   5.026  20.856   6.996
 3917POPC   C4B51334   5.077  20.965   7.381
 3918POPC   NC351335  36.871   5.637   5.309
 3918POPC   PO451336  37.214   6.174   5.441
 3918POPC   GL151337  36.922   6.049   5.794
 3918POPC   GL251338  36.557   5.962   5.836
 3918POPC   C1A51339  36.837   6.158   6.238
 3918POPC   D2A51340  36.619   5.917   6.561
 3918POPC   C3A51341  36.849   5.761   6.947
 3918POPC   C4A51342  36.913   5.450   7.294
 3918POPC   C1B51343  36.339   6.234   6.182
 3918POPC   C2B51344  36.438   6.414   6.573
 3918POPC   C3B51345  36.550   6.187   6.985
 3918POPC   C4B51346  36.598   5.920   7.359
 3919POPC   NC351347  36.570  34.089   5.394
 3919POPC   PO451348  37.126  34.356   5.396
 3919POPC   GL151349  36.952  34.541   5.779
 3919POPC   GL251350  36.602  34.538   5.703
 3919POPC   C1A51351  37.094  34.507   6.239
 3919POPC   D2A51352  37.176  34.752   6.648
 3919POPC   C3A51353  37.122  34.544   7.066
 3919POPC   C4A51354  37.078  34.609   7.554
 3919POPC   C1B51355  36.539  34.518   6.151
 3919POPC   C2B51356  36.717  34.499   6.594
 3919POPC   C3B51357  36.593  34.587   7.010
 3919POPC   C4B51358  36.588  34.681   7.488
 3920POPC   NC351359  25.103  29.303   5.074
 3920POPC   PO451360  24.408  29.083   5.232
 3920POPC   GL151361  24.475  29.023   5.643
 3920POPC   GL251362  24.686  29.315   5.750
 3920POPC   C1A51363  24.405  28.961   6.081
 3920POPC   D2A51364  24.200  29.138   6.440
 3920POPC   C3A51365  24.416  29.012   6.801
 3920POPC   C4A51366  24.368  29.032   7.220
 3920POPC   C1B51367  24.625  29.494   6.168
 3920POPC   C2B51368  24.700  29.404   6.607
 3920POPC   C3B51369  24.482  29.493   6.996
 3920POPC   C4B51370  24.502  29.478   7.456
 3921POPC   NC351371  27.862  42.335   5.498
 3921POPC   PO451372  27.234  41.932   5.429
 3921POPC   GL151373  27.433  42.184   5.726
 3921POPC   GL251374  27.765  42.083   5.924
 3921POPC   C1A51375  27.359  42.515   6.047
 3921POPC   D2A51376  27.670  42.645   6.351
 3921POPC   C3A51377  27.568  42.640   6.790
 3921POPC   C4A51378  27.752  42.407   7.134
 3921POPC   C1B51379  27.408  42.036   6.193
 3921POPC   C2B51380  27.280  42.260   6.527
 3921POPC   C3B51381  27.478  42.105   6.850
 3921POPC   C4B51382  27.356  42.023   7.247
 3922POPC   NC351383   8.931  37.776   5.415
 3922POPC   PO451384   9.556  37.542   5.291
 3922POPC   GL151385   9.331  37.503   5.701
 3922POPC   GL251386   9.245  37.859   5.823
 3922POPC   C1A51387   9.169  37.468   6.145
 3922POPC   D2A51388   9.150  37.727   6.525
 3922POPC   C3A51389   9.070  37.487   6.900
 3922POPC   C4A51390   9.225  37.655   7.312
 3922POPC   C1B51391   8.852  37.882   6.111
 3922POPC   C2B51392   8.736  38.005   6.562
 3922POPC   C3B51393   8.926  37.962   6.991
 3922POPC   C4B51394   8.780  37.907   7.458
 3923POPC   NC351395   7.266  39.491   5.466
 3923POPC   PO451396   7.100  38.900   5.459
 3923POPC   GL151397   7.340  39.106   5.801
 3923POPC   GL251398   7.227  39.442   5.970
 3923POPC   C1A51399   7.373  39.006   6.226
 3923POPC   D2A51400   7.217  38.947   6.656
 3923POPC   C3A51401   7.509  38.941   7.004
 3923POPC   C4A51402   7.696  39.313   7.154
 3923POPC   C1B51403   7.279  39.463   6.440
 3923POPC   C2B51404   7.266  39.400   6.889
 3923POPC   C3B51405   7.092  39.135   7.211
 3923POPC   C4B51406   7.018  39.103   7.658
 3924POPC   NC351407  37.374  38.576   5.677
 3924POPC   PO451408  37.884  38.201   5.534
 3924POPC   GL151409  37.709  38.263   5.929
 3924POPC   GL251410  37.373  38.193   6.061
 3924POPC   C1A51411  37.867  38.365   6.321
 3924POPC   D2A51412  37.821  38.080   6.641
 3924POPC   C3A51413  37.932  38.287   7.007
 3924POPC   C4A51414  38.047  38.581   7.287
 3924POPC   C1B51415  37.383  38.561   6.328
 3924POPC   C2B51416  37.517  38.492   6.747
 3924POPC   C3B51417  37.591  38.697   7.111
 3924POPC   C4B51418  37.492  38.767   7.537
 3925POPC   NC351419  29.342  13.112   5.583
 3925POPC   PO451420  28.743  12.915   5.495
 3925POPC   GL151421  29.005  12.819   5.844
 3925POPC   GL251422  29.306  12.624   5.752
 3925POPC   C1A51423  29.151  13.038   6.239
 3925POPC   D2A51424  29.296  12.966   6.677
 3925POPC   C3A51425  28.974  12.810   7.022
 3925POPC   C4A51426  28.909  12.911   7.484
 3925POPC   C1B51427  29.213  12.534   6.204
 3925POPC   C2B51428  29.261  12.455   6.648
 3925POPC   C3B51429  29.436  12.612   7.034
 3925POPC   C4B51430  29.210  12.511   7.412
 3926POPC   NC351431  14.353  28.188   5.437
 3926POPC   PO451432  14.615  28.866   5.312
 3926POPC   GL151433  14.535  28.633   5.682
 3926POPC   GL251434  14.201  28.574   5.817
 3926POPC   C1A51435  14.560  28.719   6.126
 3926POPC   D2A51436  14.306  28.580   6.464
 3926POPC   C3A51437  14.521  28.590   6.847
 3926POPC   C4A51438  14.692  28.428   7.226
 3926POPC   C1B51439  14.344  28.210   6.116
 3926POPC   C2B51440  14.244  28.061   6.560
 3926POPC   C3B51441  14.284  28.141   7.015
 3926POPC   C4B51442  14.175  28.481   7.275
 3927POPC   NC351443  11.147  19.464   5.380
 3927POPC   PO451444  11.066  20.165   5.426
 3927POPC   GL151445  11.201  19.850   5.746
 3927POPC   GL251446  11.486  19.665   5.711
 3927POPC   C1A51447  11.243  19.856   6.203
 3927POPC   D2A51448  11.072  19.965   6.608
 3927POPC   C3A51449  11.310  19.910   6.990
 3927POPC   C4A51450  11.188  20.131   7.386
 3927POPC   C1B51451  11.592  19.490   6.107
 3927POPC   C2B51452  11.595  19.607   6.536
 3927POPC   C3B51453  11.784  19.688   6.936
 3927POPC   C4B51454  11.606  19.521   7.298
 3928POPC   NC351455   7.012   8.187   5.395
 3928POPC   PO451456   7.670   8.367   5.491
 3928POPC   GL151457   7.418   8.019   5.723
 3928POPC   GL251458   7.090   8.090   5.909
 3928POPC   C1A51459   7.444   7.793   6.130
 3928POPC   D2A51460   7.267   7.601   6.504
 3928POPC   C3A51461   7.313   7.860   6.817
 3928POPC   C4A51462   7.342   7.858   7.224
 3928POPC   C1B51463   7.070   8.075   6.388
 3928POPC   C2B51464   7.118   8.348   6.777
 3928POPC   C3B51465   7.143   8.346   7.251
 3928POPC   C4B51466   7.139   8.429   7.713
 3929POPC   NC351467   3.212  35.141   5.614
 3929POPC   PO451468   2.617  35.341   5.336
 3929POPC   GL151469   2.595  35.172   5.755
 3929POPC   GL251470   2.848  35.408   5.882
 3929POPC   C1A51471   2.531  35.142   6.229
 3929POPC   D2A51472   2.609  35.412   6.583
 3929POPC   C3A51473   2.636  35.311   7.005
 3929POPC   C4A51474   3.030  35.363   7.147
 3929POPC   C1B51475   3.054  35.246   6.271
 3929POPC   C2B51476   3.003  35.058   6.696
 3929POPC   C3B51477   3.077  34.859   7.107
 3929POPC   C4B51478   2.903  35.055   7.518
 3930POPC   NC351479   2.374   4.138   5.453
 3930POPC   PO451480   1.992   4.663   5.361
 3930POPC   GL151481   2.007   4.455   5.716
 3930POPC   GL251482   1.898   4.121   5.663
 3930POPC   C1A51483   1.861   4.546   6.120
 3930POPC   D2A51484   1.971   4.413   6.535
 3930POPC   C3A51485   2.013   4.564   6.949
 3930POPC   C4A51486   2.374   4.395   7.148
 3930POPC   C1B51487   2.083   4.077   6.075
 3930POPC   C2B51488   1.978   3.915   6.481
 3930POPC   C3B51489   2.059   4.028   6.893
 3930POPC   C4B51490   1.746   4.100   7.177
 3931POPC   NC351491  17.308  26.729   5.464
 3931POPC   PO451492  17.883  27.163   5.500
 3931POPC   GL151493  17.577  27.045   5.820
 3931POPC   GL251494  17.570  26.718   5.880
 3931POPC   C1A51495  17.424  27.008   6.268
 3931POPC   D2A51496  17.530  26.839   6.686
 3931POPC   C3A51497  17.328  27.102   6.988
 3931POPC   C4A51498  17.359  27.135   7.392
 3931POPC   C1B51499  17.707  26.576   6.259
 3931POPC   C2B51500  18.044  26.613   6.522
 3931POPC   C3B51501  17.929  26.605   6.946
 3931POPC   C4B51502  17.600  26.721   7.240
 3932POPC   NC351503  14.837   5.906   5.398
 3932POPC   PO451504  15.574   5.834   5.331
 3932POPC   GL151505  15.370   6.022   5.758
 3932POPC   GL251506  14.993   5.950   5.866
 3932POPC   C1A51507  15.314   6.008   6.223
 3932POPC   D2A51508  15.423   5.709   6.483
 3932POPC   C3A51509  15.410   5.872   6.869
 3932POPC   C4A51510  15.068   6.056   7.089
 3932POPC   C1B51511  14.938   5.633   6.227
 3932POPC   C2B51512  14.942   5.692   6.682
 3932POPC   C3B51513  14.834   5.584   7.092
 3932POPC   C4B51514  14.697   5.834   7.397
 3933POPC   NC351515   5.805  29.332   5.366
 3933POPC   PO451516   6.207  28.967   5.754
 3933POPC   GL151517   5.785  29.154   5.845
 3933POPC   GL251518   5.559  28.897   5.664
 3933POPC   C1A51519   5.707  29.531   6.145
 3933POPC   D2A51520   5.877  29.619   6.587
 3933POPC   C3A51521   5.882  29.256   6.894
 3933POPC   C4A51522   6.139  29.149   7.252
 3933POPC   C1B51523   5.662  28.711   6.088
 3933POPC   C2B51524   5.649  28.801   6.562
 3933POPC   C3B51525   5.485  28.918   6.988
 3933POPC   C4B51526   5.633  29.094   7.383
 3934POPC   NC351527  42.761  12.100   5.495
 3934POPC   PO451528  43.428  12.351   5.477
 3934POPC   GL151529  43.171  12.165   5.827
 3934POPC   GL251530  43.257  11.826   6.006
 3934POPC   C1A51531  43.064  12.211   6.272
 3934POPC   D2A51532  43.130  12.024   6.677
 3934POPC   C3A51533  43.063  12.273   7.054
 3934POPC   C4A51534  43.382  12.409   7.356
 3934POPC   C1B51535  42.842  11.748   6.228
 3934POPC   C2B51536  42.670  11.671   6.637
 3934POPC   C3B51537  42.763  11.845   7.013
 3934POPC   C4B51538  43.098  11.817   7.289
 3935POPC   NC351539  28.639   1.353   5.187
 3935POPC   PO451540  28.209   0.818   5.461
 3935POPC   GL151541  28.468   0.955   5.778
 3935POPC   GL251542  28.254   1.259   5.858
 3935POPC   C1A51543  28.614   0.969   6.199
 3935POPC   D2A51544  28.603   1.271   6.530
 3935POPC   C3A51545  28.480   1.144   6.935
 3935POPC   C4A51546  28.258   1.278   7.244
 3935POPC   C1B51547  28.050   1.203   6.266
 3935POPC   C2B51548  27.973   1.148   6.723
 3935POPC   C3B51549  28.016   0.864   7.053
 3935POPC   C4B51550  28.016   0.926   7.492
 3936POPC   NC351551   8.694  32.845   5.470
 3936POPC   PO451552   9.268  33.161   5.553
 3936POPC   GL151553   9.058  32.922   5.827
 3936POPC   GL251554   9.338  32.851   6.036
 3936POPC   C1A51555   8.724  32.990   6.128
 3936POPC   D2A51556   8.641  33.134   6.559
 3936POPC   C3A51557   8.925  32.930   6.831
 3936POPC   C4A51558   9.053  32.863   7.230
 3936POPC   C1B51559   9.175  33.210   6.252
 3936POPC   C2B51560   9.289  33.236   6.654
 3936POPC   C3B51561   9.314  33.262   7.073
 3936POPC   C4B51562   9.395  33.168   7.491
 3937POPC   NC351563  44.204  25.956   5.484
 3937POPC   PO451564  43.685  25.698   5.583
 3937POPC   GL151565  43.892  25.876   5.887
 3937POPC   GL251566  43.723  26.167   5.772
 3937POPC   C1A51567  43.858  25.963   6.301
 3937POPC   D2A51568  44.036  26.169   6.614
 3937POPC   C3A51569  43.872  25.946   6.898
 3937POPC   C4A51570  43.752  25.890   7.292
 3937POPC   C1B51571  43.619  26.365   6.125
 3937POPC   C2B51572  43.516  26.268   6.545
 3937POPC   C3B51573  43.621  26.418   6.922
 3937POPC   C4B51574  43.567  26.487   7.325
 3938POPC   NC351575  16.202  32.791   5.539
 3938POPC   PO451576  15.814  33.325   5.275
 3938POPC   GL151577  15.909  33.175   5.726
 3938POPC   GL251578  16.070  33.388   5.953
 3938POPC   C1A51579  15.871  32.890   6.121
 3938POPC   D2A51580  15.678  32.932   6.557
 3938POPC   C3A51581  15.851  32.896   6.965
 3938POPC   C4A51582  16.112  32.871   7.270
 3938POPC   C1B51583  16.043  33.281   6.382
 3938POPC   C2B51584  16.226  33.225   6.784
 3938POPC   C3B51585  16.087  33.373   7.165
 3938POPC   C4B51586  15.709  33.310   7.370
 3939POPC   NC351587  10.418  37.876   5.366
 3939POPC   PO451588  10.783  37.397   5.575
 3939POPC   GL151589  10.554  37.574   5.926
 3939POPC   GL251590  10.341  37.911   5.881
 3939POPC   C1A51591  10.690  37.380   6.328
 3939POPC   D2A51592  10.803  37.092   6.666
 3939POPC   C3A51593  10.611  37.282   7.026
 3939POPC   C4A51594  10.599  37.622   7.320
 3939POPC   C1B51595  10.551  37.904   6.315
 3939POPC   C2B51596  10.590  37.859   6.783
 3939POPC   C3B51597  10.479  38.096   7.174
 3939POPC   C4B51598  10.150  38.030   7.501
 3940POPC   NC351599  33.589  16.984   5.423
 3940POPC   PO451600  34.141  16.897   5.188
 3940POPC   GL151601  33.996  16.795   5.700
 3940POPC   GL251602  33.680  16.561   5.775
 3940POPC   C1A51603  34.057  16.658   6.162
 3940POPC   D2A51604  33.989  16.587   6.633
 3940POPC   C3A51605  34.045  16.817   7.050
 3940POPC   C4A51606  33.793  17.075   7.302
 3940POPC   C1B51607  33.589  16.351   6.205
 3940POPC   C2B51608  33.468  16.494   6.656
 3940POPC   C3B51609  33.470  16.696   7.086
 3940POPC   C4B51610  33.487  16.568   7.539
 3941POPC   NC351611  11.774  12.834   5.378
 3941POPC   PO451612  11.090  12.944   5.358
 3941POPC   GL151613  11.367  12.788   5.711
 3941POPC   GL251614  11.701  12.917   5.879
 3941POPC   C1A51615  11.327  12.638   6.129
 3941POPC   D2A51616  11.202  12.809   6.511
 3941POPC   C3A51617  11.101  12.655   6.899
 3941POPC   C4A51618  10.891  12.644   7.296
 3941POPC   C1B51619  11.817  12.634   6.247
 3941POPC   C2B51620  11.671  12.627   6.682
 3941POPC   C3B51621  11.491  12.993   6.895
 3941POPC   C4B51622  11.297  12.970   7.288
 3942POPC   NC351623  11.071  28.372   5.414
 3942POPC   PO451624  11.652  28.628   5.422
 3942POPC   GL151625  11.468  28.324   5.746
 3942POPC   GL251626  11.123  28.342   5.914
 3942POPC   C1A51627  11.564  28.174   6.152
 3942POPC   D2A51628  11.622  28.406   6.536
 3942POPC   C3A51629  11.616  28.189   6.929
 3942POPC   C4A51630  11.381  28.368   7.253
 3942POPC   C1B51631  11.125  28.354   6.352
 3942POPC   C2B51632  11.164  28.379   6.765
 3942POPC   C3B51633  11.114  28.713   7.000
 3942POPC   C4B51634  11.001  28.690   7.409
 3943POPC   NC351635  14.137  26.949   5.473
 3943POPC   PO451636  13.581  26.804   5.178
 3943POPC   GL151637  13.640  26.832   5.648
 3943POPC   GL251638  13.416  27.038   5.804
 3943POPC   C1A51639  13.765  26.781   6.113
 3943POPC   D2A51640  13.981  26.833   6.546
 3943POPC   C3A51641  13.849  26.748   7.008
 3943POPC   C4A51642  13.701  26.819   7.469
 3943POPC   C1B51643  13.396  27.098   6.263
 3943POPC   C2B51644  13.476  26.912   6.685
 3943POPC   C3B51645  13.360  27.013   7.127
 3943POPC   C4B51646  13.331  27.206   7.539
 3944POPC   NC351647  35.688  25.145   5.544
 3944POPC   PO451648  35.283  25.653   5.464
 3944POPC   GL151649  35.394  25.432   5.835
 3944POPC   GL251650  35.752  25.537   5.868
 3944POPC   C1A51651  35.179  25.170   6.143
 3944POPC   D2A51652  35.094  25.180   6.564
 3944POPC   C3A51653  35.146  24.840   6.842
 3944POPC   C4A51654  35.090  24.828   7.269
 3944POPC   C1B51655  35.666  25.207   6.229
 3944POPC   C2B51656  35.609  25.044   6.643
 3944POPC   C3B51657  35.412  25.236   6.998
 3944POPC   C4B51658  35.433  25.185   7.403
 3945POPC   NC351659   6.082  37.048   5.515
 3945POPC   PO451660   5.808  36.469   5.221
 3945POPC   GL151661   5.760  36.634   5.643
 3945POPC   GL251662   5.660  36.968   5.769
 3945POPC   C1A51663   5.775  36.572   6.103
 3945POPC   D2A51664   5.967  36.683   6.497
 3945POPC   C3A51665   5.772  36.574   6.857
 3945POPC   C4A51666   5.713  36.734   7.238
 3945POPC   C1B51667   5.974  37.069   6.142
 3945POPC   C2B51668   6.164  37.147   6.583
 3945POPC   C3B51669   5.898  37.238   6.953
 3945POPC   C4B51670   5.506  37.479   7.020
 3946POPC   NC351671  36.865  41.102   5.251
 3946POPC   PO451672  37.374  40.735   5.381
 3946POPC   GL151673  37.120  40.543   5.790
 3946POPC   GL251674  37.328  40.268   5.911
 3946POPC   C1A51675  36.781  40.448   6.159
 3946POPC   D2A51676  36.548  40.617   6.591
 3946POPC   C3A51677  36.768  40.788   6.984
 3946POPC   C4A51678  37.172  41.048   7.055
 3946POPC   C1B51679  37.277  40.525   6.278
 3946POPC   C2B51680  37.135  40.640   6.675
 3946POPC   C3B51681  37.215  40.497   7.090
 3946POPC   C4B51682  37.460  40.637   7.443
 3947POPC   NC351683  22.461  11.305   5.441
 3947POPC   PO451684  23.090  11.083   5.597
 3947POPC   GL151685  23.026  11.243   5.979
 3947POPC   GL251686  22.728  11.384   5.868
 3947POPC   C1A51687  23.140  11.188   6.417
 3947POPC   D2A51688  22.971  11.344   6.812
 3947POPC   C3A51689  23.062  11.231   7.262
 3947POPC   C4A51690  23.212  11.446   7.685
 3947POPC   C1B51691  22.567  11.130   6.190
 3947POPC   C2B51692  22.480  11.211   6.619
 3947POPC   C3B51693  22.550  11.119   7.053
 3947POPC   C4B51694  22.437  11.429   7.330
 3948POPC   NC351695  14.869  24.417   5.405
 3948POPC   PO451696  15.316  24.740   5.787
 3948POPC   GL151697  15.348  24.302   5.861
 3948POPC   GL251698  15.030  24.134   5.792
 3948POPC   C1A51699  15.289  24.302   6.283
 3948POPC   D2A51700  15.015  24.619   6.419
 3948POPC   C3A51701  15.003  24.707   6.846
 3948POPC   C4A51702  15.234  24.568   7.163
 3948POPC   C1B51703  14.800  24.213   6.142
 3948POPC   C2B51704  14.777  24.196   6.585
 3948POPC   C3B51705  14.529  24.296   6.924
 3948POPC   C4B51706  14.679  24.585   7.229
 3949POPC   NC351707   6.087  12.604   5.371
 3949POPC   PO451708   5.975  11.981   5.405
 3949POPC   GL151709   5.868  11.993   5.809
 3949POPC   GL251710   6.035  12.329   5.817
 3949POPC   C1A51711   5.589  11.917   6.152
 3949POPC   D2A51712   5.577  12.096   6.565
 3949POPC   C3A51713   5.863  11.893   6.821
 3949POPC   C4A51714   5.830  11.986   7.228
 3949POPC   C1B51715   5.958  12.277   6.256
 3949POPC   C2B51716   5.928  12.483   6.665
 3949POPC   C3B51717   5.831  12.501   7.114
 3949POPC   C4B51718   5.848  12.514   7.563
 3950POPC   NC351719  24.157  31.950   5.567
 3950POPC   PO451720  24.671  32.435   5.344
 3950POPC   GL151721  24.553  32.246   5.752
 3950POPC   GL251722  24.854  32.209   5.913
 3950POPC   C1A51723  24.382  32.217   6.191
 3950POPC   D2A51724  24.289  32.030   6.619
 3950POPC   C3A51725  24.217  32.300   6.956
 3950POPC   C4A51726  24.389  32.392   7.311
 3950POPC   C1B51727  24.751  31.851   6.179
 3950POPC   C2B51728  24.760  31.769   6.623
 3950POPC   C3B51729  24.673  32.058   6.989
 3950POPC   C4B51730  24.879  32.269   7.381
 3951POPC   NC351731  39.236  22.381   5.343
 3951POPC   PO451732  39.230  21.681   5.367
 3951POPC   GL151733  39.110  21.916   5.792
 3951POPC   GL251734  39.141  22.301   5.847
 3951POPC   C1A51735  39.255  21.998   6.232
 3951POPC   D2A51736  39.279  22.202   6.619
 3951POPC   C3A51737  39.237  21.973   7.007
 3951POPC   C4A51738  39.392  22.144   7.389
 3951POPC   C1B51739  39.446  22.487   6.160
 3951POPC   C2B51740  39.454  22.679   6.581
 3951POPC   C3B51741  39.342  22.528   7.025
 3951POPC   C4B51742  39.069  22.565   7.417
 3952POPC   NC351743  43.504  33.800   4.992
 3952POPC   PO451744  42.882  33.821   5.184
 3952POPC   GL151745  42.967  33.687   5.640
 3952POPC   GL251746  43.239  33.842   5.756
 3952POPC   C1A51747  42.877  33.723   6.122
 3952POPC   D2A51748  42.686  33.761   6.560
 3952POPC   C3A51749  42.937  33.654   6.966
 3952POPC   C4A51750  43.097  33.740   7.394
 3952POPC   C1B51751  43.438  33.708   6.130
 3952POPC   C2B51752  43.488  33.952   6.473
 3952POPC   C3B51753  43.415  33.852   6.875
 3952POPC   C4B51754  43.578  33.706   7.216
 3953POPC   NC351755  43.032  23.846   5.295
 3953POPC   PO451756  43.455  23.295   5.219
 3953POPC   GL151757  43.254  23.509   5.657
 3953POPC   GL251758  43.498  23.632   5.888
 3953POPC   C1A51759  43.066  23.795   6.056
 3953POPC   D2A51760  43.079  23.679   6.508
 3953POPC   C3A51761  43.308  23.814   6.879
 3953POPC   C4A51762  43.033  23.978   7.188
 3953POPC   C1B51763  43.307  23.342   6.187
 3953POPC   C2B51764  43.461  23.352   6.622
 3953POPC   C3B51765  43.282  23.304   7.011
 3953POPC   C4B51766  43.475  23.502   7.326
 3954POPC   NC351767  17.740  29.291   5.486
 3954POPC   PO451768  17.266  28.782   5.444
 3954POPC   GL151769  17.399  29.024   5.773
 3954POPC   GL251770  17.097  29.202   5.763
 3954POPC   C1A51771  17.519  29.199   6.167
 3954POPC   D2A51772  17.378  29.097   6.558
 3954POPC   C3A51773  17.536  28.901   6.862
 3954POPC   C4A51774  17.518  29.128   7.243
 3954POPC   C1B51775  17.050  29.001   6.160
 3954POPC   C2B51776  16.883  29.106   6.513
 3954POPC   C3B51777  16.971  28.980   6.868
 3954POPC   C4B51778  17.158  28.771   7.156
 3955POPC   NC351779  15.674  19.140   5.721
 3955POPC   PO451780  15.035  18.942   5.367
 3955POPC   GL151781  15.172  18.964   5.777
 3955POPC   GL251782  15.185  19.312   5.817
 3955POPC   C1A51783  15.295  18.936   6.218
 3955POPC   D2A51784  15.208  18.752   6.606
 3955POPC   C3A51785  15.387  18.933   6.958
 3955POPC   C4A51786  15.195  18.851   7.326
 3955POPC   C1B51787  15.298  19.471   6.225
 3955POPC   C2B51788  15.161  19.332   6.640
 3955POPC   C3B51789  15.256  19.453   7.067
 3955POPC   C4B51790  15.229  19.324   7.485
 3956POPC   NC351791  38.749  40.577   5.182
 3956POPC   PO451792  38.311  40.952   5.523
 3956POPC   GL151793  38.478  40.953   5.903
 3956POPC   GL251794  38.630  40.632   5.791
 3956POPC   C1A51795  38.271  40.922   6.300
 3956POPC   D2A51796  38.465  40.756   6.656
 3956POPC   C3A51797  38.219  40.751   7.010
 3956POPC   C4A51798  38.307  40.985   7.379
 3956POPC   C1B51799  38.532  40.478   6.204
 3956POPC   C2B51800  38.490  40.238   6.584
 3956POPC   C3B51801  38.587  40.373   6.988
 3956POPC   C4B51802  38.493  40.509   7.400
 3957POPC   NC351803  18.074   2.142   5.417
 3957POPC   PO451804  18.620   2.390   5.624
 3957POPC   GL151805  18.299   2.243   5.890
 3957POPC   GL251806  18.292   1.879   5.871
 3957POPC   C1A51807  18.408   2.185   6.315
 3957POPC   D2A51808  18.345   1.936   6.656
 3957POPC   C3A51809  18.278   2.167   7.017
 3957POPC   C4A51810  18.400   2.061   7.427
 3957POPC   C1B51811  18.228   1.615   6.259
 3957POPC   C2B51812  18.016   1.562   6.672
 3957POPC   C3B51813  18.117   1.676   7.099
 3957POPC   C4B51814  18.123   1.676   7.549
 3958POPC   NC351815  39.733  37.468   5.261
 3958POPC   PO451816  40.357  37.655   5.475
 3958POPC   GL151817  39.927  37.781   5.652
 3958POPC   GL251818  39.741  37.494   5.788
 3958POPC   C1A51819  39.772  37.973   6.041
 3958POPC   D2A51820  39.959  37.894   6.476
 3958POPC   C3A51821  39.770  37.948   6.891
 3958POPC   C4A51822  39.981  37.951   7.284
 3958POPC   C1B51823  40.095  37.550   6.100
 3958POPC   C2B51824  40.214  37.404   6.531
 3958POPC   C3B51825  40.108  37.528   6.961
 3958POPC   C4B51826  39.834  37.338   7.241
 3959POPC   NC351827   4.347  36.126   5.409
 3959POPC   PO451828   4.764  35.715   5.728
 3959POPC   GL151829   4.560  36.093   5.879
 3959POPC   GL251830   4.212  36.187   5.909
 3959POPC   C1A51831   4.617  36.217   6.275
 3959POPC   D2A51832   4.530  36.341   6.676
 3959POPC   C3A51833   4.705  36.103   7.009
 3959POPC   C4A51834   4.558  35.809   7.339
 3959POPC   C1B51835   4.064  36.190   6.345
 3959POPC   C2B51836   4.023  36.368   6.763
 3959POPC   C3B51837   4.211  36.185   7.136
 3959POPC   C4B51838   4.104  36.085   7.554
 3960POPC   NC351839  33.119  11.069   5.004
 3960POPC   PO451840  32.938  11.489   5.540
 3960POPC   GL151841  33.173  11.299   5.848
 3960POPC   GL251842  33.389  10.999   5.760
 3960POPC   C1A51843  33.080  11.378   6.291
 3960POPC   D2A51844  33.130  11.496   6.723
 3960POPC   C3A51845  32.796  11.482   7.009
 3960POPC   C4A51846  32.826  11.465   7.433
 3960POPC   C1B51847  33.444  11.020   6.217
 3960POPC   C2B51848  33.221  10.977   6.615
 3960POPC   C3B51849  33.160  11.105   7.087
 3960POPC   C4B51850  33.437  11.123   7.494
 3961POPC   NC351851  12.351  24.000   5.392
 3961POPC   PO451852  11.934  23.512   5.470
 3961POPC   GL151853  11.983  23.851   5.745
 3961POPC   GL251854  11.660  24.085   5.755
 3961POPC   C1A51855  12.145  23.659   6.153
 3961POPC   D2A51856  12.369  23.628   6.554
 3961POPC   C3A51857  12.224  23.751   6.984
 3961POPC   C4A51858  11.995  23.693   7.374
 3961POPC   C1B51859  11.846  24.068   6.178
 3961POPC   C2B51860  11.937  23.925   6.597
 3961POPC   C3B51861  11.711  23.843   6.992
 3961POPC   C4B51862  11.486  23.662   7.383
 3962POPC   NC351863  17.866  39.513   5.496
 3962POPC   PO451864  17.487  38.978   5.469
 3962POPC   GL151865  17.750  39.110   5.818
 3962POPC   GL251866  18.019  38.902   5.938
 3962POPC   C1A51867  17.544  39.351   6.155
 3962POPC   D2A51868  17.280  39.487   6.468
 3962POPC   C3A51869  17.156  39.354   6.885
 3962POPC   C4A51870  17.237  39.368   7.328
 3962POPC   C1B51871  17.953  39.130   6.322
 3962POPC   C2B51872  17.759  39.371   6.688
 3962POPC   C3B51873  17.693  39.394   7.153
 3962POPC   C4B51874  17.774  39.300   7.600
 3963POPC   NC351875  20.430  20.013   5.632
 3963POPC   PO451876  20.853  19.715   5.206
 3963POPC   GL151877  20.941  19.664   5.714
 3963POPC   GL251878  20.605  19.591   5.873
 3963POPC   C1A51879  20.904  19.852   6.193
 3963POPC   D2A51880  20.605  19.947   6.547
 3963POPC   C3A51881  20.688  19.917   7.023
 3963POPC   C4A51882  20.556  19.999   7.495
 3963POPC   C1B51883  20.373  19.532   6.297
 3963POPC   C2B51884  20.292  19.601   6.759
 3963POPC   C3B51885  20.353  19.592   7.206
 3963POPC   C4B51886  20.598  19.375   7.521
 3964POPC   NC351887  10.685  23.290   5.471
 3964POPC   PO451888  10.199  22.805   5.357
 3964POPC   GL151889  10.396  22.916   5.763
 3964POPC   GL251890  10.333  23.258   5.842
 3964POPC   C1A51891  10.340  22.941   6.237
 3964POPC   D2A51892  10.483  22.816   6.639
 3964POPC   C3A51893  10.340  22.997   6.994
 3964POPC   C4A51894  10.395  22.878   7.428
 3964POPC   C1B51895  10.663  23.342   6.126
 3964POPC   C2B51896  10.784  23.175   6.484
 3964POPC   C3B51897  10.769  23.306   6.865
 3964POPC   C4B51898  10.714  23.228   7.246
 3965POPC   NC351899  12.138   9.754   5.109
 3965POPC   PO451900  11.799  10.123   5.473
 3965POPC   GL151901  12.016   9.985   5.863
 3965POPC   GL251902  11.997   9.655   5.784
 3965POPC   C1A51903  12.179   9.936   6.300
 3965POPC   D2A51904  12.160   9.648   6.692
 3965POPC   C3A51905  12.168   9.833   7.096
 3965POPC   C4A51906  12.345  10.237   7.170
 3965POPC   C1B51907  12.064   9.448   6.206
 3965POPC   C2B51908  11.831   9.275   6.595
 3965POPC   C3B51909  11.870   9.388   7.050
 3965POPC   C4B51910  12.000   9.518   7.483
 3966POPC   NC351911  13.940  39.369   5.600
 3966POPC   PO451912  13.341  39.409   5.235
 3966POPC   GL151913  13.436  39.291   5.661
 3966POPC   GL251914  13.607  38.954   5.728
 3966POPC   C1A51915  13.503  39.535   6.081
 3966POPC   D2A51916  13.327  39.516   6.500
 3966POPC   C3A51917  13.574  39.558   6.865
 3966POPC   C4A51918  13.653  39.390   7.286
 3966POPC   C1B51919  13.763  39.056   6.156
 3966POPC   C2B51920  13.841  39.279   6.537
 3966POPC   C3B51921  13.969  39.155   6.972
 3966POPC   C4B51922  13.950  38.992   7.447
 3967POPC   NC351923  14.296  37.571   5.410
 3967POPC   PO451924  14.192  38.186   5.480
 3967POPC   GL151925  14.181  37.884   5.846
 3967POPC   GL251926  14.082  37.507   5.862
 3967POPC   C1A51927  14.462  37.697   6.184
 3967POPC   D2A51928  14.726  37.873   6.512
 3967POPC   C3A51929  14.544  37.885   6.921
 3967POPC   C4A51930  14.624  37.635   7.268
 3967POPC   C1B51931  13.946  37.646   6.234
 3967POPC   C2B51932  14.121  37.808   6.606
 3967POPC   C3B51933  13.943  37.773   7.013
 3967POPC   C4B51934  13.859  37.672   7.475
 3968POPC   NC351935   8.981   7.949   5.191
 3968POPC   PO451936   8.848   7.326   5.255
 3968POPC   GL151937   8.920   7.442   5.713
 3968POPC   GL251938   8.599   7.601   5.901
 3968POPC   C1A51939   9.057   7.523   6.145
 3968POPC   D2A51940   8.855   7.560   6.537
 3968POPC   C3A51941   9.105   7.535   6.897
 3968POPC   C4A51942   9.316   7.595   7.259
 3968POPC   C1B51943   8.533   7.247   6.177
 3968POPC   C2B51944   8.527   7.158   6.616
 3968POPC   C3B51945   8.620   7.365   7.006
 3968POPC   C4B51946   8.940   7.200   7.250
 3969POPC   NC351947  31.591  32.131   5.421
 3969POPC   PO451948  31.372  32.720   5.371
 3969POPC   GL151949  31.314  32.394   5.784
 3969POPC   GL251950  31.587  32.136   5.929
 3969POPC   C1A51951  31.225  32.285   6.271
 3969POPC   D2A51952  31.137  32.534   6.670
 3969POPC   C3A51953  31.365  32.513   7.080
 3969POPC   C4A51954  31.303  32.292   7.517
 3969POPC   C1B51955  31.665  32.065   6.399
 3969POPC   C2B51956  31.446  32.075   6.761
 3969POPC   C3B51957  31.538  32.010   7.176
 3969POPC   C4B51958  31.686  31.970   7.608
 3970POPC   NC351959  42.907  18.156   5.253
 3970POPC   PO451960  43.419  18.461   5.456
 3970POPC   GL151961  43.205  18.363   5.821
 3970POPC   GL251962  42.873  18.244   5.783
 3970POPC   C1A51963  43.279  18.317   6.253
 3970POPC   D2A51964  43.119  18.176   6.638
 3970POPC   C3A51965  43.321  18.129   7.075
 3970POPC   C4A51966  43.430  18.184   7.565
 3970POPC   C1B51967  42.708  18.381   6.229
 3970POPC   C2B51968  42.690  18.481   6.680
 3970POPC   C3B51969  42.782  18.151   7.004
 3970POPC   C4B51970  42.959  18.274   7.416
 3971POPC   NC351971  31.568  37.401   5.212
 3971POPC   PO451972  31.550  36.732   5.357
 3971POPC   GL151973  31.608  36.724   5.810
 3971POPC   GL251974  31.632  37.103   5.905
 3971POPC   C1A51975  31.393  36.570   6.198
 3971POPC   D2A51976  31.559  36.396   6.586
 3971POPC   C3A51977  31.575  36.543   7.031
 3971POPC   C4A51978  31.319  36.891   7.203
 3971POPC   C1B51979  31.885  37.283   6.248
 3971POPC   C2B51980  31.861  37.219   6.704
 3971POPC   C3B51981  31.804  37.031   7.096
 3971POPC   C4B51982  31.735  37.158   7.506
 3972POPC   NC351983   2.190  22.785   5.335
 3972POPC   PO451984   1.634  23.128   5.466
 3972POPC   GL151985   1.930  22.911   5.781
 3972POPC   GL251986   2.223  22.641   5.815
 3972POPC   C1A51987   2.091  23.057   6.165
 3972POPC   D2A51988   2.070  23.245   6.571
 3972POPC   C3A51989   1.780  23.072   6.829
 3972POPC   C4A51990   1.839  22.938   7.213
 3972POPC   C1B51991   2.466  22.712   6.172
 3972POPC   C2B51992   2.337  22.815   6.553
 3972POPC   C3B51993   2.346  22.823   6.969
 3972POPC   C4B51994   2.597  22.548   7.265
 3973POPC   NC351995  28.611  34.699   5.294
 3973POPC   PO451996  27.988  34.524   5.250
 3973POPC   GL151997  28.239  34.487   5.648
 3973POPC   GL251998  28.518  34.704   5.814
 3973POPC   C1A51999  28.214  34.427   6.096
 3973POPC   D2A52000  28.390  34.521   6.493
 3973POPC   C3A52001  28.233  34.322   6.861
 3973POPC   C4A52002  28.171  34.535   7.248
 3973POPC   C1B52003  28.745  34.396   6.141
 3973POPC   C2B52004  28.832  34.236   6.572
 3973POPC   C3B52005  28.700  34.468   6.917
 3973POPC   C4B52006  28.844  34.532   7.288
 3974POPC   NC352007  42.547   3.597   5.263
 3974POPC   PO452008  42.083   3.184   5.511
 3974POPC   GL152009  42.458   3.451   5.717
 3974POPC   GL252010  42.457   3.816   5.745
 3974POPC   C1A52011  42.635   3.481   6.131
 3974POPC   D2A52012  42.468   3.301   6.515
 3974POPC   C3A52013  42.365   3.520   6.917
 3974POPC   C4A52014  42.142   3.353   7.309
 3974POPC   C1B52015  42.190   3.733   6.159
 3974POPC   C2B52016  42.074   3.858   6.623
 3974POPC   C3B52017  41.981   3.815   7.102
 3974POPC   C4B52018  42.144   3.826   7.538
 3975POPC   NC352019  42.427  36.940   5.330
 3975POPC   PO452020  42.871  36.387   5.442
 3975POPC   GL152021  42.633  36.697   5.735
 3975POPC   GL252022  42.236  36.812   5.763
 3975POPC   C1A52023  42.586  36.983   6.101
 3975POPC   D2A52024  42.467  37.204   6.497
 3975POPC   C3A52025  42.422  36.938   6.895
 3975POPC   C4A52026  42.343  36.619   7.221
 3975POPC   C1B52027  42.071  36.990   6.138
 3975POPC   C2B52028  42.017  36.970   6.580
 3975POPC   C3B52029  41.934  36.780   7.003
 3975POPC   C4B52030  42.136  37.049   7.339
 3976POPC   NC352031  39.727  25.233   5.395
 3976POPC   PO452032  40.337  25.126   5.501
 3976POPC   GL152033  40.015  25.121   5.813
 3976POPC   GL252034  40.017  25.493   5.763
 3976POPC   C1A52035  39.895  25.028   6.264
 3976POPC   D2A52036  40.045  25.278   6.657
 3976POPC   C3A52037  39.937  25.176   7.109
 3976POPC   C4A52038  40.301  25.115   7.391
 3976POPC   C1B52039  39.842  25.523   6.189
 3976POPC   C2B52040  39.569  25.407   6.531
 3976POPC   C3B52041  39.711  25.616   6.914
 3976POPC   C4B52042  39.635  25.540   7.316
 3977POPC   NC352043  17.182  24.669   5.029
 3977POPC   PO452044  17.751  24.551   5.419
 3977POPC   GL152045  17.407  24.580   5.779
 3977POPC   GL252046  17.371  24.249   5.919
 3977POPC   C1A52047  17.254  24.778   6.229
 3977POPC   D2A52048  17.181  24.801   6.713
 3977POPC   C3A52049  17.521  24.917   7.067
 3977POPC   C4A52050  17.474  24.842   7.543
 3977POPC   C1B52051  17.649  24.456   6.243
 3977POPC   C2B52052  17.656  24.592   6.685
 3977POPC   C3B52053  17.650  24.407   7.110
 3977POPC   C4B52054  17.881  24.486   7.506
 3978POPC   NC352055   6.315  27.831   5.487
 3978POPC   PO452056   5.720  27.583   5.479
 3978POPC   GL152057   5.822  27.698   5.868
 3978POPC   GL252058   6.117  27.467   5.833
 3978POPC   C1A52059   5.666  27.762   6.311
 3978POPC   D2A52060   5.863  27.843   6.719
 3978POPC   C3A52061   5.742  27.568   7.051
 3978POPC   C4A52062   5.493  27.221   7.143
 3978POPC   C1B52063   6.143  27.633   6.258
 3978POPC   C2B52064   6.334  27.548   6.657
 3978POPC   C3B52065   6.213  27.407   7.050
 3978POPC   C4B52066   6.085  27.716   7.398
 3979POPC   NC352067  20.454   1.204   5.349
 3979POPC   PO452068  21.076   1.259   5.512
 3979POPC   GL152069  20.721   1.112   5.794
 3979POPC   GL252070  20.341   1.109   5.831
 3979POPC   C1A52071  20.731   0.964   6.198
 3979POPC   D2A52072  20.793   1.251   6.528
 3979POPC   C3A52073  20.869   1.017   6.860
 3979POPC   C4A52074  20.672   0.975   7.193
 3979POPC   C1B52075  20.312   1.234   6.256
 3979POPC   C2B52076  20.104   1.147   6.632
 3979POPC   C3B52077  20.213   1.173   7.064
 3979POPC   C4B52078  20.374   1.385   7.438
 3980POPC   NC352079  22.365  23.407   5.492
 3980POPC   PO452080  22.018  24.005   5.436
 3980POPC   GL152081  22.018  23.737   5.776
 3980POPC   GL252082  22.115  24.032   5.983
 3980POPC   C1A52083  22.027  23.531   6.185
 3980POPC   D2A52084  22.091  23.732   6.571
 3980POPC   C3A52085  21.876  23.637   6.931
 3980POPC   C4A52086  21.940  23.611   7.352
 3980POPC   C1B52087  22.456  23.781   6.187
 3980POPC   C2B52088  22.614  23.725   6.612
 3980POPC   C3B52089  22.390  23.701   7.015
 3980POPC   C4B52090  22.347  23.916   7.442
 3981POPC   NC352091  43.170   7.932   5.521
 3981POPC   PO452092  43.446   8.497   5.351
 3981POPC   GL152093  43.388   8.307   5.796
 3981POPC   GL252094  43.054   8.409   5.945
 3981POPC   C1A52095  43.270   8.018   6.175
 3981POPC   D2A52096  42.990   8.177   6.493
 3981POPC   C3A52097  43.224   8.193   6.867
 3981POPC   C4A52098  43.322   8.140   7.276
 3981POPC   C1B52099  42.945   8.684   6.272
 3981POPC   C2B52100  43.035   8.692   6.699
 3981POPC   C3B52101  42.827   8.483   7.024
 3981POPC   C4B52102  42.937   8.404   7.430
 3982POPC   NC352103  16.803  28.956   5.394
 3982POPC   PO452104  16.677  29.586   5.455
 3982POPC   GL152105  16.568  29.248   5.767
 3982POPC   GL252106  16.663  28.914   5.862
 3982POPC   C1A52107  16.532  29.307   6.209
 3982POPC   D2A52108  16.688  29.564   6.569
 3982POPC   C3A52109  16.705  29.400   6.993
 3982POPC   C4A52110  17.006  29.211   7.321
 3982POPC   C1B52111  16.529  28.794   6.239
 3982POPC   C2B52112  16.661  28.653   6.610
 3982POPC   C3B52113  16.460  28.697   6.968
 3982POPC   C4B52114  16.649  28.875   7.242
 3983POPC   NC352115  36.828  37.124   5.433
 3983POPC   PO452116  37.060  36.482   5.250
 3983POPC   GL152117  36.975  36.710   5.697
 3983POPC   GL252118  37.210  37.026   5.758
 3983POPC   C1A52119  36.698  36.929   6.052
 3983POPC   D2A52120  36.454  36.993   6.463
 3983POPC   C3A52121  36.598  36.901   6.878
 3983POPC   C4A52122  36.695  36.891   7.287
 3983POPC   C1B52123  37.204  36.981   6.208
 3983POPC   C2B52124  37.018  36.935   6.589
 3983POPC   C3B52125  37.102  37.019   7.010
 3983POPC   C4B52126  37.188  36.866   7.412
 3984POPC   NC352127   4.120   0.170   5.333
 3984POPC   PO452128   4.589   0.609   5.343
 3984POPC   GL152129   4.622   0.447   5.781
 3984POPC   GL252130   4.561   0.779   5.864
 3984POPC   C1A52131   4.415   0.489   6.257
 3984POPC   D2A52132   4.018   0.513   6.560
 3984POPC   C3A52133   4.071   0.408   7.009
 3984POPC   C4A52134   4.434   0.261   7.267
 3984POPC   C1B52135   4.167   0.929   6.079
 3984POPC   C2B52136   4.188   1.003   6.528
 3984POPC   C3B52137   4.313   0.872   6.944
 3984POPC   C4B52138   4.153   0.793   7.336
 3985POPC   NC352139  10.911   5.690   5.573
 3985POPC   PO452140  10.305   6.072   5.446
 3985POPC   GL152141  10.489   5.959   5.793
 3985POPC   GL252142  10.221   5.766   5.884
 3985POPC   C1A52143  10.755   6.093   6.126
 3985POPC   D2A52144  10.688   6.149   6.559
 3985POPC   C3A52145  10.604   5.768   6.797
 3985POPC   C4A52146  10.731   5.743   7.205
 3985POPC   C1B52147  10.463   5.668   6.243
 3985POPC   C2B52148  10.319   5.398   6.546
 3985POPC   C3B52149  10.093   5.561   6.813
 3985POPC   C4B52150  10.226   5.590   7.207
 3986POPC   NC352151  35.900   7.785   5.566
 3986POPC   PO452152  35.181   7.477   5.506
 3986POPC   GL152153  35.471   7.588   5.795
 3986POPC   GL252154  35.619   7.287   5.809
 3986POPC   C1A52155  35.631   7.664   6.208
 3986POPC   D2A52156  35.590   7.458   6.606
 3986POPC   C3A52157  35.502   7.665   6.984
 3986POPC   C4A52158  35.638   7.510   7.365
 3986POPC   C1B52159  35.311   7.220   6.163
 3986POPC   C2B52160  35.263   7.064   6.601
 3986POPC   C3B52161  35.326   7.166   7.062
 3986POPC   C4B52162  35.281   7.179   7.524
 3987POPC   NC352163  23.654  36.454   5.455
 3987POPC   PO452164  23.944  37.168   5.519
 3987POPC   GL152165  23.831  37.090   5.945
 3987POPC   GL252166  23.598  36.812   5.833
 3987POPC   C1A52167  23.856  37.296   6.400
 3987POPC   D2A52168  23.661  37.310   6.854
 3987POPC   C3A52169  23.797  36.944   7.103
 3987POPC   C4A52170  23.694  36.515   7.119
 3987POPC   C1B52171  23.777  36.607   6.225
 3987POPC   C2B52172  23.994  36.606   6.653
 3987POPC   C3B52173  24.193  36.576   7.064
 3987POPC   C4B52174  24.048  36.595   7.508
 3988POPC   NC352175  10.319  24.846   5.292
 3988POPC   PO452176  10.910  24.583   5.352
 3988POPC   GL152177  10.676  24.633   5.765
 3988POPC   GL252178  10.363  24.465   5.876
 3988POPC   C1A52179  10.760  24.443   6.186
 3988POPC   D2A52180  10.658  24.321   6.630
 3988POPC   C3A52181  10.784  24.626   6.962
 3988POPC   C4A52182  10.663  24.717   7.408
 3988POPC   C1B52183  10.321  24.166   6.263
 3988POPC   C2B52184  10.227  23.920   6.635
 3988POPC   C3B52185  10.256  24.034   7.080
 3988POPC   C4B52186  10.616  24.228   7.289
 3989POPC   NC352187  42.501  22.450   5.500
 3989POPC   PO452188  42.047  22.027   5.262
 3989POPC   GL152189  42.196  22.100   5.729
 3989POPC   GL252190  42.569  21.971   5.799
 3989POPC   C1A52191  42.385  22.319   6.130
 3989POPC   D2A52192  42.523  22.454   6.533
 3989POPC   C3A52193  42.399  22.163   6.842
 3989POPC   C4A52194  42.332  22.225   7.292
 3989POPC   C1B52195  42.741  21.894   6.254
 3989POPC   C2B52196  42.807  21.817   6.723
 3989POPC   C3B52197  42.716  21.923   7.162
 3989POPC   C4B52198  42.617  21.893   7.607
 3990POPC   NC352199   7.587  28.753   5.395
 3990POPC   PO452200   7.487  28.197   5.070
 3990POPC   GL152201   7.648  28.261   5.555
 3990POPC   GL252202   7.435  28.472   5.777
 3990POPC   C1A52203   7.768  28.184   6.041
 3990POPC   D2A52204   7.601  27.995   6.430
 3990POPC   C3A52205   7.588  28.124   6.885
 3990POPC   C4A52206   7.621  28.458   7.245
 3990POPC   C1B52207   7.302  28.370   6.189
 3990POPC   C2B52208   7.158  28.292   6.604
 3990POPC   C3B52209   7.159  28.354   7.055
 3990POPC   C4B52210   7.241  28.139   7.466
 3991POPC   NC352211  40.364  18.005   5.557
 3991POPC   PO452212  40.999  17.981   5.447
 3991POPC   GL152213  40.917  18.327   5.758
 3991POPC   GL252214  40.573  18.371   5.896
 3991POPC   C1A52215  41.027  18.468   6.177
 3991POPC   D2A52216  40.954  18.631   6.597
 3991POPC   C3A52217  40.808  18.308   6.871
 3991POPC   C4A52218  41.002  18.099   7.230
 3991POPC   C1B52219  40.600  18.162   6.296
 3991POPC   C2B52220  40.359  17.850   6.542
 3991POPC   C3B52221  40.330  17.799   6.987
 3991POPC   C4B52222  40.503  18.046   7.365
 3992POPC   NC352223   2.496  24.089   5.256
 3992POPC   PO452224   3.044  23.741   5.459
 3992POPC   GL152225   2.813  23.681   5.845
 3992POPC   GL252226   2.476  23.816   5.716
 3992POPC   C1A52227   2.867  23.672   6.313
 3992POPC   D2A52228   2.830  23.584   6.787
 3992POPC   C3A52229   3.045  23.818   7.139
 3992POPC   C4A52230   3.087  23.798   7.619
 3992POPC   C1B52231   2.404  23.900   6.135
 3992POPC   C2B52232   2.380  23.633   6.494
 3992POPC   C3B52233   2.326  23.552   6.932
 3992POPC   C4B52234   2.608  23.613   7.268
 3993POPC   NC352235   0.721  25.936   4.949
 3993POPC   PO452236   0.515  26.386   5.471
 3993POPC   GL152237   0.324  26.042   5.711
 3993POPC   GL252238   0.567  26.115   5.969
 3993POPC   C1A52239   0.176  25.794   6.097
 3993POPC   D2A52240   0.201  25.984   6.533
 3993POPC   C3A52241   0.144  25.726   6.892
 3993POPC   C4A52242  44.979  25.781   7.286
 3993POPC   C1B52243   0.934  26.068   6.239
 3993POPC   C2B52244   0.971  25.889   6.651
 3993POPC   C3B52245   0.621  25.903   6.880
 3993POPC   C4B52246   0.373  26.099   7.172
 3994POPC   NC352247  34.294  12.062   5.610
 3994POPC   PO452248  34.992  12.241   5.544
 3994POPC   GL152249  34.737  12.254   5.873
 3994POPC   GL252250  34.710  11.897   5.873
 3994POPC   C1A52251  34.574  12.224   6.281
 3994POPC   D2A52252  34.596  12.402   6.677
 3994POPC   C3A52253  34.704  12.219   7.077
 3994POPC   C4A52254  34.882  12.456   7.478
 3994POPC   C1B52255  34.481  11.728   6.237
 3994POPC   C2B52256  34.405  11.877   6.694
 3994POPC   C3B52257  34.317  11.857   7.170
 3994POPC   C4B52258  34.183  11.885   7.659
 3995POPC   NC352259   6.977  21.795   5.357
 3995POPC   PO452260   6.352  21.477   5.300
 3995POPC   GL152261   6.517  21.613   5.723
 3995POPC   GL252262   6.628  21.946   5.705
 3995POPC   C1A52263   6.497  21.405   6.148
 3995POPC   D2A52264   6.773  21.243   6.491
 3995POPC   C3A52265   6.813  21.425   6.921
 3995POPC   C4A52266   6.453  21.309   7.146
 3995POPC   C1B52267   6.507  21.927   6.137
 3995POPC   C2B52268   6.621  21.752   6.511
 3995POPC   C3B52269   6.402  21.748   6.851
 3995POPC   C4B52270   6.545  21.807   7.210
 3996POPC   NC352271  21.586  15.853   5.368
 3996POPC   PO452272  21.408  16.465   5.155
 3996POPC   GL152273  21.479  16.260   5.639
 3996POPC   GL252274  21.241  15.954   5.719
 3996POPC   C1A52275  21.447  16.159   6.129
 3996POPC   D2A52276  21.356  15.914   6.547
 3996POPC   C3A52277  21.527  15.944   6.966
 3996POPC   C4A52278  21.522  16.367   7.182
 3996POPC   C1B52279  21.080  15.762   6.111
 3996POPC   C2B52280  20.939  15.626   6.524
 3996POPC   C3B52281  21.074  15.624   6.952
 3996POPC   C4B52282  21.195  15.560   7.364
 3997POPC   NC352283  10.616  20.110   5.316
 3997POPC   PO452284  10.693  19.496   5.402
 3997POPC   GL152285  10.691  19.849   5.772
 3997POPC   GL252286  10.366  20.002   5.779
 3997POPC   C1A52287  10.751  20.107   6.203
 3997POPC   D2A52288  10.741  20.350   6.653
 3997POPC   C3A52289  10.801  20.079   7.053
 3997POPC   C4A52290  10.669  19.873   7.488
 3997POPC   C1B52291  10.344  19.788   6.191
 3997POPC   C2B52292  10.568  19.795   6.612
 3997POPC   C3B52293  10.520  19.647   7.051
 3997POPC   C4B52294  10.285  19.483   7.431
 3998POPC   NC352295  24.748  36.036   5.477
 3998POPC   PO452296  24.128  36.360   5.427
 3998POPC   GL152297  24.380  36.192   5.799
 3998POPC   GL252298  24.265  35.850   5.881
 3998POPC   C1A52299  24.536  36.081   6.246
 3998POPC   D2A52300  24.429  36.247   6.657
 3998POPC   C3A52301  24.464  36.099   7.059
 3998POPC   C4A52302  24.611  36.032   7.452
 3998POPC   C1B52303  24.309  35.617   6.279
 3998POPC   C2B52304  24.275  35.721   6.731
 3998POPC   C3B52305  24.199  35.673   7.197
 3998POPC   C4B52306  24.369  35.612   7.622
 3999POPC   NC352307   3.919  39.600   5.388
 3999POPC   PO452308   3.321  39.891   5.369
 3999POPC   GL152309   3.518  39.837   5.783
 3999POPC   GL252310   3.881  39.814   5.874
 3999POPC   C1A52311   3.506  39.728   6.238
 3999POPC   D2A52312   3.473  39.984   6.625
 3999POPC   C3A52313   3.593  39.872   7.072
 3999POPC   C4A52314   3.619  40.083   7.499
 3999POPC   C1B52315   3.920  40.013   6.305
 3999POPC   C2B52316   3.942  40.175   6.747
 3999POPC   C3B52317   3.694  40.386   7.078
 3999POPC   C4B52318   3.271  40.427   7.192
 4000POPC   NC352319  18.481   9.145   5.409
 4000POPC   PO452320  17.926   8.769   5.158
 4000POPC   GL152321  18.040   8.932   5.614
 4000POPC   GL252322  18.328   8.825   5.794
 4000POPC   C1A52323  18.107   9.145   6.090
 4000POPC   D2A52324  18.354   9.232   6.475
 4000POPC   C3A52325  18.266   9.348   6.901
 4000POPC   C4A52326  18.065   9.030   7.152
 4000POPC   C1B52327  18.585   8.765   6.174
 4000POPC   C2B52328  18.702   8.862   6.592
 4000POPC   C3B52329  18.569   8.943   6.992
 4000POPC   C4B52330  18.518   8.633   7.257
 4001POPC   NC352331  25.485  28.542   5.342
 4001POPC   PO452332  25.464  27.918   5.494
 4001POPC   GL152333  25.462  28.181   5.857
 4001POPC   GL252334  25.167  28.354   5.725
 4001POPC   C1A52335  25.577  28.360   6.312
 4001POPC   D2A52336  25.326  28.212   6.672
 4001POPC   C3A52337  25.471  28.295   7.090
 4001POPC   C4A52338  25.628  28.674   7.221
 4001POPC   C1B52339  25.100  28.347   6.176
 4001POPC   C2B52340  25.110  28.678   6.486
 4001POPC   C3B52341  25.151  28.642   6.924
 4001POPC   C4B52342  24.988  28.365   7.264
 4002POPC   NC352343  17.720  20.890   5.422
 4002POPC   PO452344  17.346  20.292   5.505
 4002POPC   GL152345  17.448  20.620   5.774
 4002POPC   GL252346  17.231  20.913   5.711
 4002POPC   C1A52347  17.641  20.679   6.169
 4002POPC   D2A52348  17.720  20.398   6.527
 4002POPC   C3A52349  17.554  20.435   6.974
 4002POPC   C4A52350  17.497  20.347   7.451
 4002POPC   C1B52351  17.393  21.128   6.097
 4002POPC   C2B52352  17.609  21.186   6.505
 4002POPC   C3B52353  17.657  20.964   6.915
 4002POPC   C4B52354  17.459  20.830   7.307
 4003POPC   NC352355  19.395   3.699   5.404
 4003POPC   PO452356  18.884   3.330   5.539
 4003POPC   GL152357  19.076   3.500   5.852
 4003POPC   GL252358  19.373   3.340   5.864
 4003POPC   C1A52359  18.971   3.556   6.284
 4003POPC   D2A52360  18.830   3.838   6.589
 4003POPC   C3A52361  18.915   3.692   6.968
 4003POPC   C4A52362  19.000   3.623   7.388
 4003POPC   C1B52363  19.480   3.490   6.269
 4003POPC   C2B52364  19.329   3.704   6.640
 4003POPC   C3B52365  19.403   3.573   7.052
 4003POPC   C4B52366  19.502   3.648   7.459
 4004POPC   NC352367  32.767  20.059   5.356
 4004POPC   PO452368  33.066  19.469   5.300
 4004POPC   GL152369  33.184  19.654   5.693
 4004POPC   GL252370  32.843  19.737   5.765
 4004POPC   C1A52371  33.153  19.585   6.153
 4004POPC   D2A52372  33.343  19.706   6.547
 4004POPC   C3A52373  33.106  19.597   6.905
 4004POPC   C4A52374  33.151  19.421   7.277
 4004POPC   C1B52375  32.843  19.996   6.146
 4004POPC   C2B52376  32.862  19.877   6.555
 4004POPC   C3B52377  32.894  20.046   6.969
 4004POPC   C4B52378  32.883  19.824   7.359
 4005POPC   NC352379   5.496   5.573   5.226
 4005POPC   PO452380   5.784   6.233   5.342
 4005POPC   GL152381   5.842   6.267   5.818
 4005POPC   GL252382   5.935   5.915   5.838
 4005POPC   C1A52383   5.837   6.144   6.280
 4005POPC   D2A52384   5.534   5.952   6.535
 4005POPC   C3A52385   5.732   5.860   6.922
 4005POPC   C4A52386   6.044   6.054   7.171
 4005POPC   C1B52387   5.683   5.706   6.103
 4005POPC   C2B52388   5.960   5.647   6.474
 4005POPC   C3B52389   6.247   5.722   6.821
 4005POPC   C4B52390   6.045   5.527   7.167
 4006POPC   NC352391   2.913  10.052   5.408
 4006POPC   PO452392   2.464   9.636   5.436
 4006POPC   GL152393   2.583   9.861   5.830
 4006POPC   GL252394   2.670  10.221   5.816
 4006POPC   C1A52395   2.755   9.752   6.253
 4006POPC   D2A52396   2.642   9.806   6.673
 4006POPC   C3A52397   2.867   9.604   7.005
 4006POPC   C4A52398   2.926   9.368   7.384
 4006POPC   C1B52399   2.990  10.216   6.171
 4006POPC   C2B52400   3.092  10.069   6.619
 4006POPC   C3B52401   2.889  10.131   7.047
 4006POPC   C4B52402   2.445   9.958   7.125
 4007POPC   NC352403  20.574  39.192   5.200
 4007POPC   PO452404  20.441  39.514   5.743
 4007POPC   GL152405  20.567  39.123   5.867
 4007POPC   GL252406  20.966  39.072   5.786
 4007POPC   C1A52407  20.429  39.164   6.313
 4007POPC   D2A52408  20.722  39.450   6.522
 4007POPC   C3A52409  20.787  39.360   6.958
 4007POPC   C4A52410  20.452  39.159   7.150
 4007POPC   C1B52411  20.883  38.935   6.222
 4007POPC   C2B52412  20.705  38.918   6.668
 4007POPC   C3B52413  20.899  38.889   7.092
 4007POPC   C4B52414  21.131  38.851   7.466
 4008POPC   NC352415  14.671  10.349   5.335
 4008POPC   PO452416  14.200  10.853   5.516
 4008POPC   GL152417  14.365  10.671   5.842
 4008POPC   GL252418  14.386  10.337   5.762
 4008POPC   C1A52419  14.519  10.586   6.240
 4008POPC   D2A52420  14.761  10.487   6.596
 4008POPC   C3A52421  14.554  10.709   6.887
 4008POPC   C4A52422  14.511  10.851   7.264
 4008POPC   C1B52423  14.151  10.223   6.113
 4008POPC   C2B52424  14.302  10.032   6.475
 4008POPC   C3B52425  14.399  10.195   6.861
 4008POPC   C4B52426  14.465  10.333   7.256
 4009POPC   NC352427  18.274  36.280   5.456
 4009POPC   PO452428  17.919  35.728   5.484
 4009POPC   GL152429  17.926  36.044   5.844
 4009POPC   GL252430  18.114  36.359   5.922
 4009POPC   C1A52431  18.024  36.044   6.304
 4009POPC   D2A52432  18.215  36.163   6.714
 4009POPC   C3A52433  18.192  35.857   7.064
 4009POPC   C4A52434  18.202  35.622   7.463
 4009POPC   C1B52435  18.187  36.561   6.320
 4009POPC   C2B52436  18.068  36.649   6.739
 4009POPC   C3B52437  18.289  36.537   7.102
 4009POPC   C4B52438  18.256  36.214   7.426
 4010POPC   NC352439   7.020  23.072   5.358
 4010POPC   PO452440   7.658  22.817   5.346
 4010POPC   GL152441   7.520  22.905   5.739
 4010POPC   GL252442   7.211  22.764   5.792
 4010POPC   C1A52443   7.563  22.736   6.158
 4010POPC   D2A52444   7.551  22.867   6.566
 4010POPC   C3A52445   7.641  22.636   6.916
 4010POPC   C4A52446   7.608  22.764   7.330
 4010POPC   C1B52447   7.105  23.007   6.148
 4010POPC   C2B52448   7.139  23.175   6.545
 4010POPC   C3B52449   7.179  22.924   6.904
 4010POPC   C4B52450   7.011  22.727   7.252
 4011POPC   NC352451  13.320  21.969   5.534
 4011POPC   PO452452  12.815  22.343   5.367
 4011POPC   GL152453  12.637  22.310   5.777
 4011POPC   GL252454  12.968  22.194   5.856
 4011POPC   C1A52455  12.667  22.279   6.257
 4011POPC   D2A52456  12.436  22.159   6.620
 4011POPC   C3A52457  12.590  22.387   6.948
 4011POPC   C4A52458  12.802  22.203   7.260
 4011POPC   C1B52459  13.117  21.934   6.175
 4011POPC   C2B52460  13.044  21.917   6.591
 4011POPC   C3B52461  13.187  21.991   7.028
 4011POPC   C4B52462  13.179  21.972   7.522
 4012POPC   NC352463  40.637  26.233   5.369
 4012POPC   PO452464  41.100  25.773   5.495
 4012POPC   GL152465  40.766  25.907   5.792
 4012POPC   GL252466  40.870  26.237   5.832
 4012POPC   C1A52467  40.503  26.096   6.135
 4012POPC   D2A52468  40.470  26.268   6.543
 4012POPC   C3A52469  40.819  26.133   6.777
 4012POPC   C4A52470  40.906  25.949   7.165
 4012POPC   C1B52471  41.239  26.147   6.077
 4012POPC   C2B52472  41.265  26.239   6.510
 4012POPC   C3B52473  41.336  26.092   6.909
 4012POPC   C4B52474  41.287  26.279   7.278
 4013POPC   NC352475  20.972   4.155   5.401
 4013POPC   PO452476  21.123   3.557   5.433
 4013POPC   GL152477  21.366   3.479   5.824
 4013POPC   GL252478  21.591   3.195   5.778
 4013POPC   C1A52479  21.480   3.458   6.301
 4013POPC   D2A52480  21.218   3.297   6.662
 4013POPC   C3A52481  21.124   3.553   7.041
 4013POPC   C4A52482  21.217   3.977   7.219
 4013POPC   C1B52483  21.409   2.975   6.130
 4013POPC   C2B52484  21.627   2.950   6.526
 4013POPC   C3B52485  21.715   3.286   6.816
 4013POPC   C4B52486  21.502   3.224   7.158
 4014POPC   NC352487  24.791  19.402   5.550
 4014POPC   PO452488  24.614  18.842   5.173
 4014POPC   GL152489  24.297  18.945   5.570
 4014POPC   GL252490  24.324  19.278   5.747
 4014POPC   C1A52491  24.143  18.901   6.030
 4014POPC   D2A52492  24.360  18.972   6.426
 4014POPC   C3A52493  24.316  18.800   6.846
 4014POPC   C4A52494  24.185  18.954   7.256
 4014POPC   C1B52495  24.366  19.440   6.176
 4014POPC   C2B52496  24.615  19.386   6.557
 4014POPC   C3B52497  24.447  19.301   6.967
 4014POPC   C4B52498  24.691  19.022   7.181
 4015POPC   NC352499  26.223  34.180   5.571
 4015POPC   PO452500  26.089  33.579   5.375
 4015POPC   GL152501  25.873  33.723   5.742
 4015POPC   GL252502  26.201  33.757   5.867
 4015POPC   C1A52503  25.777  33.844   6.186
 4015POPC   D2A52504  25.911  33.709   6.630
 4015POPC   C3A52505  25.969  33.963   6.972
 4015POPC   C4A52506  26.207  34.053   7.308
 4015POPC   C1B52507  26.209  33.531   6.246
 4015POPC   C2B52508  26.357  33.413   6.670
 4015POPC   C3B52509  26.222  33.495   7.085
 4015POPC   C4B52510  26.140  33.312   7.467
 4016POPC   NC352511  34.747  21.956   5.441
 4016POPC   PO452512  34.789  22.578   5.351
 4016POPC   GL152513  34.684  22.377   5.774
 4016POPC   GL252514  34.305  22.259   5.818
 4016POPC   C1A52515  34.655  22.050   6.123
 4016POPC   D2A52516  34.444  22.013   6.511
 4016POPC   C3A52517  34.666  22.251   6.814
 4016POPC   C4A52518  34.762  21.963   7.117
 4016POPC   C1B52519  34.295  22.446   6.271
 4016POPC   C2B52520  34.153  22.385   6.722
 4016POPC   C3B52521  34.293  22.279   7.151
 4016POPC   C4B52522  34.209  22.442   7.571
 4017POPC   NC352523   1.209  41.833   5.314
 4017POPC   PO452524   1.271  41.127   5.343
 4017POPC   GL152525   1.329  41.437   5.668
 4017POPC   GL252526   1.001  41.614   5.726
 4017POPC   C1A52527   1.382  41.568   6.106
 4017POPC   D2A52528   1.178  41.699   6.493
 4017POPC   C3A52529   1.349  41.561   6.875
 4017POPC   C4A52530   1.410  41.663   7.262
 4017POPC   C1B52531   0.878  41.425   6.122
 4017POPC   C2B52532   0.789  41.152   6.455
 4017POPC   C3B52533   0.786  41.265   6.899
 4017POPC   C4B52534   0.999  41.355   7.275
 4018POPC   NC352535  40.387  12.058   5.384
 4018POPC   PO452536  41.068  12.040   5.359
 4018POPC   GL152537  40.796  11.970   5.723
 4018POPC   GL252538  41.036  11.751   5.864
 4018POPC   C1A52539  40.722  12.055   6.183
 4018POPC   D2A52540  40.994  11.892   6.533
 4018POPC   C3A52541  40.804  11.910   6.947
 4018POPC   C4A52542  40.584  12.182   7.246
 4018POPC   C1B52543  41.195  12.165   6.085
 4018POPC   C2B52544  41.303  12.315   6.494
 4018POPC   C3B52545  41.107  12.425   6.875
 4018POPC   C4B52546  41.165  12.175   7.199
 4019POPC   NC352547   2.439  14.777   5.092
 4019POPC   PO452548   2.848  15.322   5.199
 4019POPC   GL152549   2.958  15.289   5.647
 4019POPC   GL252550   2.940  14.904   5.741
 4019POPC   C1A52551   2.837  15.303   6.106
 4019POPC   D2A52552   2.544  15.330   6.477
 4019POPC   C3A52553   2.673  15.224   6.908
 4019POPC   C4A52554   2.895  15.334   7.254
 4019POPC   C1B52555   2.664  14.789   6.115
 4019POPC   C2B52556   2.557  14.585   6.523
 4019POPC   C3B52557   2.521  14.723   6.946
 4019POPC   C4B52558   2.782  14.795   7.325
 4020POPC   NC352559  19.710   8.428   5.675
 4020POPC   PO452560  19.994   8.906   5.314
 4020POPC   GL152561  19.836   8.938   5.736
 4020POPC   GL252562  20.192   8.936   5.796
 4020POPC   C1A52563  19.604   8.871   6.153
 4020POPC   D2A52564  19.686   9.096   6.507
 4020POPC   C3A52565  19.612   8.982   6.915
 4020POPC   C4A52566  19.656   9.254   7.296
 4020POPC   C1B52567  20.089   8.703   6.166
 4020POPC   C2B52568  19.922   8.645   6.553
 4020POPC   C3B52569  20.067   8.705   6.937
 4020POPC   C4B52570  19.884   8.808   7.299
 4021POPC   NC352571  37.454  29.828   5.424
 4021POPC   PO452572  37.701  30.457   5.171
 4021POPC   GL152573  37.897  30.165   5.639
 4021POPC   GL252574  37.818  29.805   5.752
 4021POPC   C1A52575  37.738  30.134   6.125
 4021POPC   D2A52576  37.580  30.260   6.562
 4021POPC   C3A52577  37.647  30.146   6.987
 4021POPC   C4A52578  37.918  30.044   7.311
 4021POPC   C1B52579  37.559  29.665   6.101
 4021POPC   C2B52580  37.808  29.745   6.491
 4021POPC   C3B52581  37.839  29.653   6.917
 4021POPC   C4B52582  37.568  29.652   7.229
 4022POPC   NC352583  37.835  40.917   5.406
 4022POPC   PO452584  37.733  40.205   5.494
 4022POPC   GL152585  37.717  40.589   5.817
 4022POPC   GL252586  37.948  40.914   5.891
 4022POPC   C1A52587  37.767  40.662   6.288
 4022POPC   D2A52588  37.968  40.496   6.637
 4022POPC   C3A52589  37.755  40.484   7.046
 4022POPC   C4A52590  37.984  40.559   7.409
 4022POPC   C1B52591  37.540  41.067   6.052
 4022POPC   C2B52592  37.416  41.052   6.488
 4022POPC   C3B52593  37.637  40.926   6.865
 4022POPC   C4B52594  37.796  41.011   7.283
 4023POPC   NC352595  18.584   7.437   5.461
 4023POPC   PO452596  19.228   7.188   5.425
 4023POPC   GL152597  18.981   7.344   5.828
 4023POPC   GL252598  18.750   7.092   5.932
 4023POPC   C1A52599  18.912   7.479   6.313
 4023POPC   D2A52600  18.768   7.667   6.754
 4023POPC   C3A52601  18.999   7.497   7.141
 4023POPC   C4A52602  19.122   7.685   7.542
 4023POPC   C1B52603  18.673   7.015   6.377
 4023POPC   C2B52604  18.851   7.158   6.771
 4023POPC   C3B52605  18.866   6.996   7.205
 4023POPC   C4B52606  18.724   6.888   7.657
 4024POPC   NC352607  14.984   9.487   5.529
 4024POPC   PO452608  15.369   9.978   5.271
 4024POPC   GL152609  15.298   9.886   5.694
 4024POPC   GL252610  15.606  10.014   5.785
 4024POPC   C1A52611  15.120   9.777   6.129
 4024POPC   D2A52612  15.046   9.493   6.509
 4024POPC   C3A52613  15.028   9.637   6.963
 4024POPC   C4A52614  15.415   9.643   7.218
 4024POPC   C1B52615  15.380  10.231   6.092
 4024POPC   C2B52616  15.271  10.132   6.489
 4024POPC   C3B52617  15.365  10.039   6.892
 4024POPC   C4B52618  15.339  10.156   7.336
 4025POPC   NC352619   1.829  33.536   5.403
 4025POPC   PO452620   2.419  33.907   5.605
 4025POPC   GL152621   2.022  33.818   5.833
 4025POPC   GL252622   1.779  33.530   5.919
 4025POPC   C1A52623   1.950  33.889   6.294
 4025POPC   D2A52624   1.892  34.140   6.687
 4025POPC   C3A52625   2.085  34.035   7.116
 4025POPC   C4A52626   1.944  33.905   7.558
 4025POPC   C1B52627   1.906  33.368   6.339
 4025POPC   C2B52628   2.037  33.546   6.737
 4025POPC   C3B52629   1.877  33.570   7.153
 4025POPC   C4B52630   1.900  33.404   7.560
 4026POPC   NC352631  21.056  42.225   5.486
 4026POPC   PO452632  20.434  42.510   5.470
 4026POPC   GL152633  20.629  42.337   5.793
 4026POPC   GL252634  20.898  42.565   5.829
 4026POPC   C1A52635  20.526  42.175   6.205
 4026POPC   D2A52636  20.705  42.280   6.611
 4026POPC   C3A52637  20.452  42.358   6.971
 4026POPC   C4A52638  20.677  42.147   7.267
 4026POPC   C1B52639  21.137  42.703   6.205
 4026POPC   C2B52640  21.094  42.645   6.625
 4026POPC   C3B52641  20.830  42.712   6.953
 4026POPC   C4B52642  20.824  42.615   7.389
 4027POPC   NC352643  11.205  35.171   5.538
 4027POPC   PO452644  11.667  35.620   5.403
 4027POPC   GL152645  11.387  35.565   5.816
 4027POPC   GL252646  11.436  35.724   6.156
 4027POPC   C1A52647  10.996  35.472   6.100
 4027POPC   D2A52648  10.879  35.607   6.519
 4027POPC   C3A52649  11.202  35.568   6.801
 4027POPC   C4A52650  11.217  35.391   7.167
 4027POPC   C1B52651  11.372  35.312   6.386
 4027POPC   C2B52652  11.499  35.133   6.791
 4027POPC   C3B52653  11.663  35.123   7.222
 4027POPC   C4B52654  11.741  35.121   7.667
 4028POPC   NC352655  16.942  29.959   5.526
 4028POPC   PO452656  16.320  30.202   5.516
 4028POPC   GL152657  16.557  30.056   5.868
 4028POPC   GL252658  16.524  29.724   5.923
 4028POPC   C1A52659  16.560  30.017   6.336
 4028POPC   D2A52660  16.404  29.945   6.742
 4028POPC   C3A52661  16.790  29.924   6.949
 4028POPC   C4A52662  17.005  30.186   7.252
 4028POPC   C1B52663  16.950  29.572   6.101
 4028POPC   C2B52664  17.220  29.573   6.471
 4028POPC   C3B52665  17.219  29.446   6.919
 4028POPC   C4B52666  17.055  29.690   7.306
 4029POPC   NC352667  44.354  23.550   5.536
 4029POPC   PO452668  44.859  23.593   5.160
 4029POPC   GL152669  44.869  23.709   5.624
 4029POPC   GL252670  44.776  23.373   5.790
 4029POPC   C1A52671  44.721  23.801   6.084
 4029POPC   D2A52672  44.828  23.728   6.542
 4029POPC   C3A52673  44.552  23.776   6.907
 4029POPC   C4A52674  44.713  24.058   7.178
 4029POPC   C1B52675  44.933  23.345   6.220
 4029POPC   C2B52676  44.824  23.204   6.634
 4029POPC   C3B52677  44.817  23.352   7.029
 4029POPC   C4B52678   0.145  23.354   7.313
 4030POPC   NC352679  15.256  23.501   5.302
 4030POPC   PO452680  15.366  24.148   5.352
 4030POPC   GL152681  15.391  23.788   5.713
 4030POPC   GL252682  15.060  23.614   5.764
 4030POPC   C1A52683  15.558  23.553   6.101
 4030POPC   D2A52684  15.513  23.353   6.531
 4030POPC   C3A52685  15.317  23.542   6.917
 4030POPC   C4A52686  15.446  23.913   7.153
 4030POPC   C1B52687  15.103  23.780   6.183
 4030POPC   C2B52688  15.384  23.872   6.520
 4030POPC   C3B52689  15.270  24.209   6.786
 4030POPC   C4B52690  14.969  24.131   7.111
 4031POPC   NC352691   7.107   9.478   5.445
 4031POPC   PO452692   7.569   9.979   5.343
 4031POPC   GL152693   7.437   9.774   5.789
 4031POPC   GL252694   7.284   9.446   5.914
 4031POPC   C1A52695   7.649   9.618   6.197
 4031POPC   D2A52696   7.511   9.498   6.623
 4031POPC   C3A52697   7.670   9.696   7.016
 4031POPC   C4A52698   7.393   9.995   7.231
 4031POPC   C1B52699   7.083   9.550   6.293
 4031POPC   C2B52700   6.912   9.419   6.694
 4031POPC   C3B52701   7.107   9.483   7.067
 4031POPC   C4B52702   6.979   9.734   7.394
 4032POPC   NC352703   3.774  26.972   5.382
 4032POPC   PO452704   3.872  26.271   5.509
 4032POPC   GL152705   3.614  26.555   5.826
 4032POPC   GL252706   3.616  26.921   5.854
 4032POPC   C1A52707   3.460  26.627   6.257
 4032POPC   D2A52708   3.415  26.907   6.592
 4032POPC   C3A52709   3.450  26.771   6.984
 4032POPC   C4A52710   3.527  26.749   7.412
 4032POPC   C1B52711   3.671  27.175   6.225
 4032POPC   C2B52712   3.441  27.415   6.561
 4032POPC   C3B52713   3.346  27.283   6.968
 4032POPC   C4B52714   3.733  27.167   7.152
 4033POPC   NC352715  10.957  34.341   5.551
 4033POPC   PO452716  10.530  34.809   5.417
 4033POPC   GL152717  10.400  34.790   5.847
 4033POPC   GL252718  10.706  34.614   5.879
 4033POPC   C1A52719  10.213  34.801   6.260
 4033POPC   D2A52720  10.168  34.438   6.522
 4033POPC   C3A52721  10.242  34.541   6.954
 4033POPC   C4A52722  10.334  34.733   7.360
 4033POPC   C1B52723  10.634  34.501   6.264
 4033POPC   C2B52724  10.612  34.722   6.615
 4033POPC   C3B52725  10.710  34.731   7.027
 4033POPC   C4B52726  10.667  34.358   7.294
 4034POPC   NC352727  44.485  30.828   5.592
 4034POPC   PO452728   0.022  30.412   5.477
 4034POPC   GL152729  44.871  30.604   5.848
 4034POPC   GL252730  44.525  30.502   5.989
 4034POPC   C1A52731  44.867  30.889   6.197
 4034POPC   D2A52732  44.726  30.938   6.625
 4034POPC   C3A52733  44.983  30.702   6.911
 4034POPC   C4A52734  44.918  30.265   7.099
 4034POPC   C1B52735  44.345  30.851   6.270
 4034POPC   C2B52736  44.216  30.978   6.721
 4034POPC   C3B52737  44.402  30.802   7.130
 4034POPC   C4B52738  44.383  30.801   7.596
 4035POPC   NC352739   2.621  40.569   5.575
 4035POPC   PO452740   2.665  41.136   5.293
 4035POPC   GL152741   2.802  41.079   5.751
 4035POPC   GL252742   2.521  40.957   5.894
 4035POPC   C1A52743   2.865  41.012   6.249
 4035POPC   D2A52744   2.617  40.980   6.665
 4035POPC   C3A52745   2.884  40.848   7.063
 4035POPC   C4A52746   3.015  40.743   7.504
 4035POPC   C1B52747   2.526  40.615   6.249
 4035POPC   C2B52748   2.365  40.355   6.582
 4035POPC   C3B52749   2.456  40.580   6.980
 4035POPC   C4B52750   2.515  40.725   7.452
 4036POPC   NC352751  16.279  20.945   5.536
 4036POPC   PO452752  15.861  20.445   5.369
 4036POPC   GL152753  16.104  20.476   5.755
 4036POPC   GL252754  15.889  20.747   5.832
 4036POPC   C1A52755  16.215  20.611   6.206
 4036POPC   D2A52756  16.227  20.791   6.641
 4036POPC   C3A52757  16.007  20.565   6.980
 4036POPC   C4A52758  15.785  20.238   7.218
 4036POPC   C1B52759  15.853  20.975   6.218
 4036POPC   C2B52760  15.691  20.852   6.595
 4036POPC   C3B52761  15.699  21.013   6.983
 4036POPC   C4B52762  15.653  20.760   7.301
 4037POPC   NC352763  37.806  35.302   5.506
 4037POPC   PO452764  37.274  34.966   5.719
 4037POPC   GL152765  37.674  35.097   5.940
 4037POPC   GL252766  37.767  35.484   5.976
 4037POPC   C1A52767  37.696  35.167   6.360
 4037POPC   D2A52768  37.584  35.493   6.600
 4037POPC   C3A52769  37.603  35.297   6.979
 4037POPC   C4A52770  37.694  35.109   7.346
 4037POPC   C1B52771  38.091  35.472   6.260
 4037POPC   C2B52772  38.068  35.341   6.675
 4037POPC   C3B52773  38.062  35.501   7.077
 4037POPC   C4B52774  37.822  35.624   7.414
 4038POPC   NC352775  16.402  30.649   5.366
 4038POPC   PO452776  17.103  30.478   5.458
 4038POPC   GL152777  16.735  30.524   5.732
 4038POPC   GL252778  16.611  30.876   5.786
 4038POPC   C1A52779  16.568  30.488   6.140
 4038POPC   D2A52780  16.595  30.688   6.514
 4038POPC   C3A52781  16.729  30.400   6.777
 4038POPC   C4A52782  16.761  30.595   7.119
 4038POPC   C1B52783  16.946  30.833   6.120
 4038POPC   C2B52784  17.023  31.005   6.539
 4038POPC   C3B52785  17.137  30.928   6.985
 4038POPC   C4B52786  17.176  30.678   7.392
 4039POPC   NC352787   9.945  26.467   5.256
 4039POPC   PO452788   9.903  25.805   5.483
 4039POPC   GL152789   9.636  26.048   5.714
 4039POPC   GL252790   9.540  25.760   5.929
 4039POPC   C1A52791   9.724  26.220   6.114
 4039POPC   D2A52792   9.504  26.086   6.484
 4039POPC   C3A52793   9.700  26.234   6.877
 4039POPC   C4A52794   9.543  26.178   7.299
 4039POPC   C1B52795   9.857  25.727   6.256
 4039POPC   C2B52796   9.794  25.690   6.706
 4039POPC   C3B52797   9.791  25.765   7.129
 4039POPC   C4B52798  10.027  25.861   7.473
 4040POPC   NC352799  33.496  35.696   5.315
 4040POPC   PO452800  32.972  35.247   5.440
 4040POPC   GL152801  33.065  35.152   5.860
 4040POPC   GL252802  33.098  35.479   5.978
 4040POPC   C1A52803  32.907  35.144   6.286
 4040POPC   D2A52804  32.757  34.998   6.659
 4040POPC   C3A52805  33.006  35.123   6.964
 4040POPC   C4A52806  32.984  35.292   7.369
 4040POPC   C1B52807  33.239  35.653   6.356
 4040POPC   C2B52808  33.034  35.557   6.717
 4040POPC   C3B52809  32.945  35.747   7.104
 4040POPC   C4B52810  33.064  35.762   7.517
 4041POPC   NC352811  18.567   3.755   5.462
 4041POPC   PO452812  18.162   3.252   5.410
 4041POPC   GL152813  18.372   3.303   5.763
 4041POPC   GL252814  18.247   3.621   5.828
 4041POPC   C1A52815  18.561   3.281   6.149
 4041POPC   D2A52816  18.478   3.469   6.518
 4041POPC   C3A52817  18.626   3.285   6.848
 4041POPC   C4A52818  18.558   3.420   7.237
 4041POPC   C1B52819  18.080   3.611   6.218
 4041POPC   C2B52820  18.088   3.795   6.620
 4041POPC   C3B52821  18.200   3.610   6.962
 4041POPC   C4B52822  18.125   3.710   7.386
 4042POPC   NC352823  31.154  44.454   5.489
 4042POPC   PO452824  30.483  44.588   5.561
 4042POPC   GL152825  30.680  44.667   5.966
 4042POPC   GL252826  31.061  44.612   5.958
 4042POPC   C1A52827  30.665  44.556   6.422
 4042POPC   D2A52828  30.688  44.464   6.905
 4042POPC   C3A52829  30.510  44.759   7.228
 4042POPC   C4A52830  30.507  44.668   7.672
 4042POPC   C1B52831  31.171  44.590   6.385
 4042POPC   C2B52832  30.977  44.842   6.711
 4042POPC   C3B52833  31.018  44.856   7.132
 4042POPC   C4B52834  31.149  44.911   7.565
 4043POPC   NC352835  22.708  12.879   5.081
 4043POPC   PO452836  23.218  12.873   5.415
 4043POPC   GL152837  23.001  12.796   5.771
 4043POPC   GL252838  22.677  12.975   5.789
 4043POPC   C1A52839  23.183  12.583   6.129
 4043POPC   D2A52840  23.349  12.769   6.482
 4043POPC   C3A52841  23.323  12.619   6.921
 4043POPC   C4A52842  23.052  12.844   7.215
 4043POPC   C1B52843  22.843  12.955   6.242
 4043POPC   C2B52844  22.898  12.872   6.690
 4043POPC   C3B52845  22.618  12.705   7.000
 4043POPC   C4B52846  22.543  12.932   7.372
 4044POPC   NC352847   7.987  30.337   5.513
 4044POPC   PO452848   8.402  30.902   5.348
 4044POPC   GL152849   8.240  30.733   5.741
 4044POPC   GL252850   7.882  30.772   5.823
 4044POPC   C1A52851   8.310  30.833   6.170
 4044POPC   D2A52852   8.570  30.928   6.522
 4044POPC   C3A52853   8.387  31.048   6.909
 4044POPC   C4A52854   8.399  30.860   7.298
 4044POPC   C1B52855   7.913  30.496   6.196
 4044POPC   C2B52856   8.203  30.479   6.550
 4044POPC   C3B52857   8.185  30.560   6.943
 4044POPC   C4B52858   7.856  30.592   7.202
 4045POPC   NC352859  26.584  40.155   5.386
 4045POPC   PO452860  27.204  39.836   5.500
 4045POPC   GL152861  26.908  39.985   5.756
 4045POPC   GL252862  26.605  39.756   5.728
 4045POPC   C1A52863  26.700  40.180   6.117
 4045POPC   D2A52864  26.836  40.350   6.531
 4045POPC   C3A52865  26.884  40.139   6.938
 4045POPC   C4A52866  26.658  40.309   7.289
 4045POPC   C1B52867  26.782  39.665   6.129
 4045POPC   C2B52868  26.718  39.828   6.535
 4045POPC   C3B52869  26.659  39.658   6.911
 4045POPC   C4B52870  26.986  39.633   7.185
 4046POPC   NC352871   4.126  22.210   5.148
 4046POPC   PO452872   3.472  22.268   5.291
 4046POPC   GL152873   3.526  22.234   5.712
 4046POPC   GL252874   3.197  22.184   5.867
 4046POPC   C1A52875   3.699  22.130   6.105
 4046POPC   D2A52876   3.789  22.239   6.521
 4046POPC   C3A52877   3.826  21.953   6.856
 4046POPC   C4A52878   3.834  22.161   7.235
 4046POPC   C1B52879   3.288  21.841   6.168
 4046POPC   C2B52880   3.417  21.875   6.553
 4046POPC   C3B52881   3.297  21.745   6.929
 4046POPC   C4B52882   3.365  21.973   7.266
 4047POPC   NC352883  25.488  31.053   5.455
 4047POPC   PO452884  25.450  31.815   5.430
 4047POPC   GL152885  25.172  31.677   5.803
 4047POPC   GL252886  25.167  31.290   5.807
 4047POPC   C1A52887  25.171  31.555   6.264
 4047POPC   D2A52888  25.313  31.757   6.647
 4047POPC   C3A52889  25.188  31.616   7.065
 4047POPC   C4A52890  25.321  31.649   7.539
 4047POPC   C1B52891  25.564  31.250   6.066
 4047POPC   C2B52892  25.609  31.248   6.501
 4047POPC   C3B52893  25.409  31.109   6.884
 4047POPC   C4B52894  25.295  31.180   7.310
 4048POPC   NC352895  25.584   2.749   5.346
 4048POPC   PO452896  25.011   2.962   5.410
 4048POPC   GL152897  25.213   2.966   5.767
 4048POPC   GL252898  25.335   2.663   5.797
 4048POPC   C1A52899  25.047   2.931   6.192
 4048POPC   D2A52900  24.828   2.988   6.621
 4048POPC   C3A52901  25.052   2.803   6.959
 4048POPC   C4A52902  25.497   2.803   7.104
 4048POPC   C1B52903  25.335   2.507   6.209
 4048POPC   C2B52904  25.149   2.300   6.558
 4048POPC   C3B52905  25.279   2.327   6.973
 4048POPC   C4B52906  25.170   2.484   7.345
 4049POPC   NC352907  21.580  14.999   5.570
 4049POPC   PO452908  21.248  15.522   5.403
 4049POPC   GL152909  21.308  15.379   5.804
 4049POPC   GL252910  21.654  15.466   5.786
 4049POPC   C1A52911  21.354  15.130   6.216
 4049POPC   D2A52912  21.260  15.251   6.662
 4049POPC   C3A52913  21.120  15.109   7.095
 4049POPC   C4A52914  21.394  15.060   7.454
 4049POPC   C1B52915  21.551  15.596   6.206
 4049POPC   C2B52916  21.691  15.534   6.664
 4049POPC   C3B52917  21.560  15.383   7.069
 4049POPC   C4B52918  21.671  15.463   7.534
 4050POPC   NC352919  38.941  35.790   5.523
 4050POPC   PO452920  39.384  35.281   5.554
 4050POPC   GL152921  39.090  35.410   5.874
 4050POPC   GL252922  39.299  35.669   5.891
 4050POPC   C1A52923  39.069  35.228   6.286
 4050POPC   D2A52924  39.387  35.260   6.602
 4050POPC   C3A52925  39.332  35.029   6.963
 4050POPC   C4A52926  38.958  35.063   7.208
 4050POPC   C1B52927  39.222  35.729   6.313
 4050POPC   C2B52928  38.929  35.644   6.574
 4050POPC   C3B52929  39.060  35.495   6.945
 4050POPC   C4B52930  39.246  35.640   7.314
 4051POPC   NC352931   0.464  20.907   5.353
 4051POPC   PO452932   0.043  20.328   5.349
 4051POPC   GL152933   0.126  20.610   5.706
 4051POPC   GL252934   0.179  20.308   5.912
 4051POPC   C1A52935   0.334  20.773   6.090
 4051POPC   D2A52936   0.242  20.700   6.530
 4051POPC   C3A52937   0.490  20.897   6.879
 4051POPC   C4A52938   0.403  20.801   7.309
 4051POPC   C1B52939   0.634  20.352   6.080
 4051POPC   C2B52940   0.733  20.562   6.470
 4051POPC   C3B52941   0.531  20.404   6.873
 4051POPC   C4B52942   0.632  20.336   7.309
 4052POPC   NC352943  38.264   8.649   5.480
 4052POPC   PO452944  38.735   9.260   5.490
 4052POPC   GL152945  38.506   9.126   5.816
 4052POPC   GL252946  38.598   8.780   5.864
 4052POPC   C1A52947  38.463   9.322   6.200
 4052POPC   D2A52948  38.641   9.303   6.615
 4052POPC   C3A52949  38.380   9.193   6.954
 4052POPC   C4A52950  38.337   8.883   7.234
 4052POPC   C1B52951  38.776   8.919   6.259
 4052POPC   C2B52952  38.709   8.804   6.691
 4052POPC   C3B52953  38.826   8.934   7.085
 4052POPC   C4B52954  38.893   8.554   7.304
 4053POPC   NC352955  27.539  35.959   5.337
 4053POPC   PO452956  27.492  36.664   5.276
 4053POPC   GL152957  27.613  36.375   5.658
 4053POPC   GL252958  27.331  36.171   5.753
 4053POPC   C1A52959  27.810  36.165   6.067
 4053POPC   D2A52960  27.842  35.814   6.417
 4053POPC   C3A52961  28.020  35.895   6.866
 4053POPC   C4A52962  27.845  35.995   7.297
 4053POPC   C1B52963  27.333  35.982   6.149
 4053POPC   C2B52964  27.469  36.197   6.510
 4053POPC   C3B52965  27.538  36.087   6.915
 4053POPC   C4B52966  27.459  35.687   7.163
 4054POPC   NC352967  43.009  42.837   5.451
 4054POPC   PO452968  43.304  42.195   5.243
 4054POPC   GL152969  43.152  42.378   5.641
 4054POPC   GL252970  43.197  42.083   5.845
 4054POPC   C1A52971  42.986  42.539   6.084
 4054POPC   D2A52972  43.210  42.473   6.509
 4054POPC   C3A52973  43.014  42.488   6.930
 4054POPC   C4A52974  42.884  42.108   7.123
 4054POPC   C1B52975  43.339  41.996   6.284
 4054POPC   C2B52976  43.262  41.993   6.751
 4054POPC   C3B52977  43.446  42.244   7.088
 4054POPC   C4B52978  43.432  42.664   7.271
 4055POPC   NC352979  21.120  43.834   5.457
 4055POPC   PO452980  21.684  43.742   5.535
 4055POPC   GL152981  21.495  44.085   5.717
 4055POPC   GL252982  21.745  44.128   5.971
 4055POPC   C1A52983  21.229  44.104   6.090
 4055POPC   D2A52984  21.459  44.153   6.501
 4055POPC   C3A52985  21.174  44.070   6.829
 4055POPC   C4A52986  21.166  44.220   7.217
 4055POPC   C1B52987  21.571  43.729   6.178
 4055POPC   C2B52988  21.420  43.654   6.593
 4055POPC   C3B52989  21.641  43.873   6.923
 4055POPC   C4B52990  21.347  43.738   7.213
 4056POPC   NC352991  26.986  42.113   5.071
 4056POPC   PO452992  26.581  42.531   5.269
 4056POPC   GL152993  26.705  42.451   5.743
 4056POPC   GL252994  26.447  42.329   5.960
 4056POPC   C1A52995  26.900  42.245   6.168
 4056POPC   D2A52996  26.807  41.927   6.517
 4056POPC   C3A52997  26.954  42.100   6.910
 4056POPC   C4A52998  27.194  42.462   7.091
 4056POPC   C1B52999  26.439  42.316   6.417
 4056POPC   C2B53000  26.385  42.585   6.764
 4056POPC   C3B53001  26.673  42.511   7.069
 4056POPC   C4B53002  26.715  42.200   7.359
 4057POPC   NC353003  21.612   5.609   5.432
 4057POPC   PO453004  21.113   5.997   5.075
 4057POPC   GL153005  21.137   5.909   5.557
 4057POPC   GL253006  21.177   5.615   5.757
 4057POPC   C1A53007  21.316   6.102   5.951
 4057POPC   D2A53008  21.386   5.975   6.386
 4057POPC   C3A53009  21.126   6.134   6.719
 4057POPC   C4A53010  21.198   6.110   7.166
 4057POPC   C1B53011  21.514   5.539   6.083
 4057POPC   C2B53012  21.485   5.494   6.534
 4057POPC   C3B53013  21.443   5.758   6.888
 4057POPC   C4B53014  21.560   5.774   7.301
 4058POPC   NC353015  26.454  35.839   5.642
 4058POPC   PO453016  26.947  36.269   5.425
 4058POPC   GL153017  26.792  36.179   5.831
 4058POPC   GL253018  26.934  35.824   5.836
 4058POPC   C1A53019  26.481  36.231   6.195
 4058POPC   D2A53020  26.319  36.155   6.610
 4058POPC   C3A53021  26.639  36.077   6.894
 4058POPC   C4A53022  26.641  35.733   7.172
 4058POPC   C1B53023  26.692  35.763   6.236
 4058POPC   C2B53024  26.722  35.614   6.659
 4058POPC   C3B53025  27.077  35.797   6.838
 4058POPC   C4B53026  27.098  36.074   7.156
 4059POPC   NC353027  42.211  20.285   5.539
 4059POPC   PO453028  42.504  20.861   5.622
 4059POPC   GL153029  42.457  20.849   6.041
 4059POPC   GL253030  42.192  20.650   5.996
 4059POPC   C1A53031  42.538  20.851   6.486
 4059POPC   D2A53032  42.672  20.476   6.709
 4059POPC   C3A53033  42.468  20.500   7.062
 4059POPC   C4A53034  42.483  20.889   7.198
 4059POPC   C1B53035  42.206  20.479   6.422
 4059POPC   C2B53036  42.064  20.699   6.822
 4059POPC   C3B53037  42.021  20.665   7.301
 4059POPC   C4B53038  41.982  20.518   7.774
 4060POPC   NC353039  24.315  36.886   5.400
 4060POPC   PO453040  24.892  36.518   5.556
 4060POPC   GL153041  24.537  36.714   5.821
 4060POPC   GL253042  24.139  36.678   5.834
 4060POPC   C1A53043  24.481  37.032   6.154
 4060POPC   D2A53044  24.684  37.261   6.535
 4060POPC   C3A53045  24.521  37.126   6.953
 4060POPC   C4A53046  24.730  36.994   7.313
 4060POPC   C1B53047  24.298  36.547   6.239
 4060POPC   C2B53048  24.509  36.741   6.609
 4060POPC   C3B53049  24.698  36.578   7.005
 4060POPC   C4B53050  24.540  36.540   7.449
 4061POPC   NC353051   9.868  27.752   5.229
 4061POPC   PO453052   9.189  27.578   5.393
 4061POPC   GL153053   9.543  27.573   5.659
 4061POPC   GL253054   9.561  27.246   5.823
 4061POPC   C1A53055   9.647  27.694   6.092
 4061POPC   D2A53056   9.464  27.715   6.507
 4061POPC   C3A53057   9.645  27.701   6.929
 4061POPC   C4A53058   9.989  27.866   7.201
 4061POPC   C1B53059   9.461  27.224   6.262
 4061POPC   C2B53060   9.688  27.250   6.654
 4061POPC   C3B53061   9.564  27.222   7.100
 4061POPC   C4B53062   9.851  27.393   7.363
 4062POPC   NC353063  39.094  20.102   5.495
 4062POPC   PO453064  39.524  19.623   5.323
 4062POPC   GL153065  39.427  19.780   5.735
 4062POPC   GL253066  39.123  19.634   5.769
 4062POPC   C1A53067  39.331  20.019   6.112
 4062POPC   D2A53068  39.453  19.914   6.541
 4062POPC   C3A53069  39.505  20.151   6.897
 4062POPC   C4A53070  39.323  19.925   7.244
 4062POPC   C1B53071  39.126  19.531   6.224
 4062POPC   C2B53072  39.039  19.602   6.689
 4062POPC   C3B53073  38.907  19.592   7.136
 4062POPC   C4B53074  38.694  19.418   7.525
 4063POPC   NC353075   5.019  21.734   5.662
 4063POPC   PO453076   5.265  22.431   5.510
 4063POPC   GL153077   5.087  22.469   5.859
 4063POPC   GL253078   4.786  22.324   5.795
 4063POPC   C1A53079   5.030  22.327   6.258
 4063POPC   D2A53080   5.093  22.087   6.594
 4063POPC   C3A53081   5.193  22.262   6.967
 4063POPC   C4A53082   5.208  21.911   7.171
 4063POPC   C1B53083   4.597  22.543   6.117
 4063POPC   C2B53084   4.706  22.649   6.545
 4063POPC   C3B53085   4.823  22.617   6.969
 4063POPC   C4B53086   4.875  22.425   7.373
 4064POPC   NC353087  34.553   6.398   5.458
 4064POPC   PO453088  34.887   6.892   5.519
 4064POPC   GL153089  34.616   6.822   5.867
 4064POPC   GL253090  34.324   7.020   5.836
 4064POPC   C1A53091  34.494   6.725   6.316
 4064POPC   D2A53092  34.441   6.738   6.768
 4064POPC   C3A53093  34.319   6.415   7.009
 4064POPC   C4A53094  34.280   6.413   7.430
 4064POPC   C1B53095  34.524   7.223   6.196
 4064POPC   C2B53096  34.731   7.117   6.579
 4064POPC   C3B53097  34.728   7.098   7.010
 4064POPC   C4B53098  34.658   6.744   7.259
 4065POPC   NC353099  29.312  10.963   5.443
 4065POPC   PO453100  29.210  10.290   5.602
 4065POPC   GL153101  28.930  10.507   5.832
 4065POPC   GL253102  29.048  10.845   5.920
 4065POPC   C1A53103  29.003  10.471   6.261
 4065POPC   D2A53104  29.181  10.744   6.517
 4065POPC   C3A53105  28.968  10.720   6.889
 4065POPC   C4A53106  28.891  10.719   7.314
 4065POPC   C1B53107  29.472  10.659   6.101
 4065POPC   C2B53108  29.673  10.517   6.511
 4065POPC   C3B53109  29.521  10.673   6.893
 4065POPC   C4B53110  29.338  10.527   7.237
 4066POPC   NC353111   5.188  24.668   5.064
 4066POPC   PO453112   4.916  24.203   5.466
 4066POPC   GL153113   4.867  24.244   5.865
 4066POPC   GL253114   5.146  24.496   5.900
 4066POPC   C1A53115   4.940  24.241   6.281
 4066POPC   D2A53116   5.108  24.537   6.496
 4066POPC   C3A53117   5.088  24.422   6.898
 4066POPC   C4A53118   5.162  24.542   7.294
 4066POPC   C1B53119   5.467  24.705   6.149
 4066POPC   C2B53120   5.430  24.935   6.540
 4066POPC   C3B53121   5.469  24.821   6.983
 4066POPC   C4B53122   5.518  24.874   7.442
 4067POPC   NC353123  27.494   3.778   5.521
 4067POPC   PO453124  27.548   3.192   5.702
 4067POPC   GL153125  27.611   3.572   5.980
 4067POPC   GL253126  27.839   3.846   5.884
 4067POPC   C1A53127  27.622   3.599   6.412
 4067POPC   D2A53128  27.518   3.267   6.670
 4067POPC   C3A53129  27.328   3.316   7.051
 4067POPC   C4A53130  27.423   3.508   7.419
 4067POPC   C1B53131  28.101   3.692   6.248
 4067POPC   C2B53132  28.023   3.483   6.664
 4067POPC   C3B53133  27.716   3.676   6.941
 4067POPC   C4B53134  27.872   3.720   7.333
 4068POPC   NC353135  38.283   9.558   5.525
 4068POPC   PO453136  38.344  10.228   5.447
 4068POPC   GL153137  38.546   9.971   5.758
 4068POPC   GL253138  38.767   9.667   5.795
 4068POPC   C1A53139  38.355   9.836   6.138
 4068POPC   D2A53140  38.436   9.763   6.549
 4068POPC   C3A53141  38.204   9.892   6.883
 4068POPC   C4A53142  38.351   9.643   7.193
 4068POPC   C1B53143  38.847   9.666   6.244
 4068POPC   C2B53144  39.006   9.642   6.689
 4068POPC   C3B53145  38.860   9.495   7.092
 4068POPC   C4B53146  38.669   9.427   7.511
 4069POPC   NC353147   0.332   6.771   5.255
 4069POPC   PO453148   0.832   6.425   5.393
 4069POPC   GL153149   0.599   6.670   5.719
 4069POPC   GL253150   0.344   6.447   5.794
 4069POPC   C1A53151   0.414   6.766   6.159
 4069POPC   D2A53152   0.266   6.806   6.577
 4069POPC   C3A53153   0.484   6.675   6.916
 4069POPC   C4A53154   0.233   6.606   7.281
 4069POPC   C1B53155   0.624   6.262   6.105
 4069POPC   C2B53156   0.663   6.333   6.551
 4069POPC   C3B53157   0.581   6.184   6.983
 4069POPC   C4B53158   0.633   6.344   7.401
 4070POPC   NC353159   7.069  32.906   5.392
 4070POPC   PO453160   7.588  33.180   5.432
 4070POPC   GL153161   7.520  33.328   5.851
 4070POPC   GL253162   7.212  33.129   5.867
 4070POPC   C1A53163   7.527  33.117   6.275
 4070POPC   D2A53164   7.214  33.130   6.615
 4070POPC   C3A53165   7.453  33.165   6.977
 4070POPC   C4A53166   7.795  32.934   7.123
 4070POPC   C1B53167   7.274  32.717   6.092
 4070POPC   C2B53168   7.281  32.592   6.545
 4070POPC   C3B53169   7.263  32.677   7.011
 4070POPC   C4B53170   7.371  32.891   7.418
 4071POPC   NC353171  33.263  41.591   5.290
 4071POPC   PO453172  32.698  41.768   5.580
 4071POPC   GL153173  32.837  41.447   5.891
 4071POPC   GL253174  33.169  41.473   5.793
 4071POPC   C1A53175  33.024  41.426   6.327
 4071POPC   D2A53176  33.200  41.769   6.604
 4071POPC   C3A53177  33.063  41.769   7.067
 4071POPC   C4A53178  32.883  41.341   7.278
 4071POPC   C1B53179  33.483  41.586   6.110
 4071POPC   C2B53180  33.509  41.368   6.516
 4071POPC   C3B53181  33.248  41.328   6.851
 4071POPC   C4B53182  33.387  41.419   7.217
 4072POPC   NC353183  35.255   0.163   5.341
 4072POPC   PO453184  34.688   0.535   5.401
 4072POPC   GL153185  34.941   0.427   5.756
 4072POPC   GL253186  35.272   0.272   5.841
 4072POPC   C1A53187  34.995   0.459   6.218
 4072POPC   D2A53188  35.274   0.391   6.562
 4072POPC   C3A53189  35.119   0.243   6.919
 4072POPC   C4A53190  34.863   0.382   7.223
 4072POPC   C1B53191  35.507   0.067   6.226
 4072POPC   C2B53192  35.738   0.170   6.644
 4072POPC   C3B53193  35.781   0.399   7.039
 4072POPC   C4B53194  35.919   0.468   7.485
 4073POPC   NC353195   4.795  39.179   5.490
 4073POPC   PO453196   5.451  38.881   5.414
 4073POPC   GL153197   5.268  39.020   5.821
 4073POPC   GL253198   5.139  39.349   5.860
 4073POPC   C1A53199   4.951  38.957   6.174
 4073POPC   D2A53200   4.827  39.138   6.585
 4073POPC   C3A53201   4.943  39.002   7.020
 4073POPC   C4A53202   5.177  39.184   7.377
 4073POPC   C1B53203   5.296  39.332   6.306
 4073POPC   C2B53204   5.369  39.639   6.664
 4073POPC   C3B53205   5.346  39.610   7.123
 4073POPC   C4B53206   5.614  39.444   7.478
 4074POPC   NC353207  29.520  40.537   5.426
 4074POPC   PO453208  30.164  40.813   5.437
 4074POPC   GL153209  29.911  40.718   5.788
 4074POPC   GL253210  30.025  40.378   5.834
 4074POPC   C1A53211  30.039  40.737   6.222
 4074POPC   D2A53212  30.045  40.837   6.648
 4074POPC   C3A53213  29.688  40.882   6.875
 4074POPC   C4A53214  29.851  40.885   7.286
 4074POPC   C1B53215  29.776  40.279   6.214
 4074POPC   C2B53216  29.712  40.412   6.644
 4074POPC   C3B53217  29.959  40.455   7.026
 4074POPC   C4B53218  29.851  40.225   7.400
 4075POPC   NC353219  20.856   2.445   5.428
 4075POPC   PO453220  20.218   2.207   5.455
 4075POPC   GL153221  20.558   2.002   5.725
 4075POPC   GL253222  20.536   1.608   5.741
 4075POPC   C1A53223  20.771   2.127   6.128
 4075POPC   D2A53224  20.608   2.068   6.543
 4075POPC   C3A53225  20.792   1.952   6.908
 4075POPC   C4A53226  20.843   2.120   7.300
 4075POPC   C1B53227  20.518   1.684   6.201
 4075POPC   C2B53228  20.421   1.593   6.659
 4075POPC   C3B53229  20.666   1.480   7.043
 4075POPC   C4B53230  20.823   1.635   7.493
 4076POPC   NC353231  36.309  30.466   5.414
 4076POPC   PO453232  35.834  30.878   5.269
 4076POPC   GL153233  35.949  30.603   5.716
 4076POPC   GL253234  36.310  30.790   5.789
 4076POPC   C1A53235  36.084  30.614   6.205
 4076POPC   D2A53236  36.202  30.988   6.497
 4076POPC   C3A53237  36.064  30.995   6.949
 4076POPC   C4A53238  36.156  30.701   7.273
 4076POPC   C1B53239  36.562  30.826   6.166
 4076POPC   C2B53240  36.570  30.550   6.533
 4076POPC   C3B53241  36.489  30.337   6.948
 4076POPC   C4B53242  36.398  30.262   7.405
 4077POPC   NC353243  27.994  30.644   5.344
 4077POPC   PO453244  27.573  31.117   5.628
 4077POPC   GL153245  27.685  30.733   5.770
 4077POPC   GL253246  27.382  30.646   5.860
 4077POPC   C1A53247  27.837  30.559   6.179
 4077POPC   D2A53248  27.667  30.566   6.618
 4077POPC   C3A53249  27.692  30.919   6.898
 4077POPC   C4A53250  27.417  31.052   7.226
 4077POPC   C1B53251  27.338  30.400   6.218
 4077POPC   C2B53252  27.263  30.171   6.577
 4077POPC   C3B53253  27.377  30.214   6.974
 4077POPC   C4B53254  27.703  30.439   7.121
 4078POPC   NC353255  19.581   7.485   5.403
 4078POPC   PO453256  20.079   6.994   5.395
 4078POPC   GL153257  19.924   7.195   5.814
 4078POPC   GL253258  19.992   7.567   5.878
 4078POPC   C1A53259  19.922   7.268   6.286
 4078POPC   D2A53260  19.758   7.562   6.583
 4078POPC   C3A53261  19.801   7.407   7.006
 4078POPC   C4A53262  19.540   7.386   7.354
 4078POPC   C1B53263  20.180   7.753   6.274
 4078POPC   C2B53264  20.181   7.788   6.730
 4078POPC   C3B53265  20.148   7.755   7.176
 4078POPC   C4B53266  19.993   7.509   7.536
 4079POPC   NC353267  23.605  14.471   5.102
 4079POPC   PO453268  23.889  14.038   5.473
 4079POPC   GL153269  23.819  14.229   5.858
 4079POPC   GL253270  23.517  14.414   5.872
 4079POPC   C1A53271  23.899  14.557   6.159
 4079POPC   D2A53272  23.978  14.603   6.580
 4079POPC   C3A53273  23.816  14.369   6.881
 4079POPC   C4A53274  23.902  14.312   7.297
 4079POPC   C1B53275  23.587  14.153   6.288
 4079POPC   C2B53276  23.410  14.090   6.687
 4079POPC   C3B53277  23.450  14.110   7.119
 4079POPC   C4B53278  23.424  14.174   7.553
 4080POPC   NC353279  33.786  36.252   5.430
 4080POPC   PO453280  33.326  35.837   5.715
 4080POPC   GL153281  33.701  36.029   5.890
 4080POPC   GL253282  33.913  35.761   5.725
 4080POPC   C1A53283  33.957  36.225   6.284
 4080POPC   D2A53284  34.107  36.508   6.672
 4080POPC   C3A53285  34.019  36.357   7.108
 4080POPC   C4A53286  33.783  36.231   7.495
 4080POPC   C1B53287  33.766  35.617   6.173
 4080POPC   C2B53288  33.767  35.759   6.603
 4080POPC   C3B53289  33.806  35.859   7.057
 4080POPC   C4B53290  33.983  35.724   7.431
 4081POPC   NC353291  26.552  37.460   5.451
 4081POPC   PO453292  25.920  37.759   5.411
 4081POPC   GL153293  26.027  37.817   5.843
 4081POPC   GL253294  26.363  37.896   5.898
 4081POPC   C1A53295  25.945  37.865   6.267
 4081POPC   D2A53296  26.177  38.004   6.619
 4081POPC   C3A53297  26.187  37.778   6.989
 4081POPC   C4A53298  26.173  37.571   7.379
 4081POPC   C1B53299  26.427  37.682   6.237
 4081POPC   C2B53300  26.233  37.472   6.573
 4081POPC   C3B53301  26.343  37.177   6.910
 4081POPC   C4B53302  26.423  37.132   7.357
 4082POPC   NC353303  35.798  29.612   5.334
 4082POPC   PO453304  36.387  29.359   5.463
 4082POPC   GL153305  36.271  29.373   5.915
 4082POPC   GL253306  35.975  29.592   5.834
 4082POPC   C1A53307  36.310  29.209   6.394
 4082POPC   D2A53308  36.164  28.989   6.811
 4082POPC   C3A53309  36.262  29.009   7.259
 4082POPC   C4A53310  36.544  28.970   7.622
 4082POPC   C1B53311  35.953  29.611   6.296
 4082POPC   C2B53312  36.023  29.486   6.741
 4082POPC   C3B53313  35.896  29.350   7.168
 4082POPC   C4B53314  35.753  29.465   7.591
 4083POPC   NC353315  20.900  39.591   5.708
 4083POPC   PO453316  21.347  39.258   5.396
 4083POPC   GL153317  21.509  39.146   5.795
 4083POPC   GL253318  21.576  39.496   5.810
 4083POPC   C1A53319  21.381  39.139   6.221
 4083POPC   D2A53320  21.172  39.101   6.605
 4083POPC   C3A53321  21.321  39.200   6.974
 4083POPC   C4A53322  21.139  39.354   7.344
 4083POPC   C1B53323  21.751  39.495   6.227
 4083POPC   C2B53324  21.652  39.639   6.634
 4083POPC   C3B53325  21.753  39.485   7.020
 4083POPC   C4B53326  22.002  39.515   7.345
 4084POPC   NC353327  23.937  40.307   5.464
 4084POPC   PO453328  23.413  40.746   5.349
 4084POPC   GL153329  23.388  40.675   5.814
 4084POPC   GL253330  23.670  40.452   5.903
 4084POPC   C1A53331  23.542  40.891   6.199
 4084POPC   D2A53332  23.753  40.874   6.602
 4084POPC   C3A53333  23.545  40.662   6.932
 4084POPC   C4A53334  23.498  40.899   7.239
 4084POPC   C1B53335  23.999  40.633   6.193
 4084POPC   C2B53336  24.193  40.610   6.591
 4084POPC   C3B53337  24.058  40.726   7.016
 4084POPC   C4B53338  23.882  40.541   7.386
 4085POPC   NC353339  31.242  17.760   5.427
 4085POPC   PO453340  31.516  18.408   5.377
 4085POPC   GL153341  31.359  18.263   5.765
 4085POPC   GL253342  31.033  18.218   5.715
 4085POPC   C1A53343  31.498  18.252   6.188
 4085POPC   D2A53344  31.616  18.485   6.566
 4085POPC   C3A53345  31.545  18.206   6.888
 4085POPC   C4A53346  31.750  18.048   7.247
 4085POPC   C1B53347  30.990  18.394   6.137
 4085POPC   C2B53348  31.095  18.453   6.585
 4085POPC   C3B53349  31.068  18.313   7.023
 4085POPC   C4B53350  31.262  17.918   7.233
 4086POPC   NC353351  37.142  21.165   5.390
 4086POPC   PO453352  37.138  21.764   5.578
 4086POPC   GL153353  37.070  21.421   5.828
 4086POPC   GL253354  36.739  21.484   5.865
 4086POPC   C1A53355  37.026  21.213   6.235
 4086POPC   D2A53356  36.919  21.347   6.631
 4086POPC   C3A53357  37.085  21.112   6.967
 4086POPC   C4A53358  37.294  21.358   7.297
 4086POPC   C1B53359  36.548  21.408   6.234
 4086POPC   C2B53360  36.476  21.078   6.513
 4086POPC   C3B53361  36.552  21.172   6.927
 4086POPC   C4B53362  36.778  21.433   7.243
 4087POPC   NC353363   7.930  33.484   5.380
 4087POPC   PO453364   8.233  34.001   5.624
 4087POPC   GL153365   8.037  33.675   5.854
 4087POPC   GL253366   7.948  33.959   6.055
 4087POPC   C1A53367   7.878  33.498   6.258
 4087POPC   D2A53368   7.812  33.569   6.731
 4087POPC   C3A53369   8.215  33.462   6.944
 4087POPC   C4A53370   8.448  33.577   7.300
 4087POPC   C1B53371   8.427  33.948   6.230
 4087POPC   C2B53372   8.575  34.185   6.604
 4087POPC   C3B53373   8.396  34.011   6.987
 4087POPC   C4B53374   8.007  33.857   7.213
 4088POPC   NC353375  20.770  19.252   5.384
 4088POPC   PO453376  20.048  19.381   5.515
 4088POPC   GL153377  20.409  19.123   5.802
 4088POPC   GL253378  20.816  19.126   5.879
 4088POPC   C1A53379  20.461  18.991   6.258
 4088POPC   D2A53380  20.578  18.834   6.687
 4088POPC   C3A53381  20.414  19.067   7.055
 4088POPC   C4A53382  20.392  18.918   7.481
 4088POPC   C1B53383  20.863  19.339   6.260
 4088POPC   C2B53384  20.736  19.327   6.689
 4088POPC   C3B53385  20.927  19.077   7.037
 4088POPC   C4B53386  21.159  19.243   7.371
 4089POPC   NC353387  16.615   7.305   5.294
 4089POPC   PO453388  17.261   7.342   5.371
 4089POPC   GL153389  16.887   7.298   5.765
 4089POPC   GL253390  16.496   7.400   5.771
 4089POPC   C1A53391  16.657   7.185   6.191
 4089POPC   D2A53392  16.637   7.387   6.593
 4089POPC   C3A53393  16.570   7.171   6.981
 4089POPC   C4A53394  16.924   6.873   7.144
 4089POPC   C1B53395  16.397   7.634   6.159
 4089POPC   C2B53396  16.181   7.583   6.518
 4089POPC   C3B53397  16.329   7.671   6.890
 4089POPC   C4B53398  16.548   7.632   7.256
 4090POPC   NC353399  27.768   9.014   5.581
 4090POPC   PO453400  28.160   8.959   5.026
 4090POPC   GL153401  28.258   8.846   5.528
 4090POPC   GL253402  28.369   9.156   5.694
 4090POPC   C1A53403  28.185   8.854   6.056
 4090POPC   D2A53404  28.323   8.976   6.525
 4090POPC   C3A53405  28.244   8.749   6.941
 4090POPC   C4A53406  28.198   8.912   7.359
 4090POPC   C1B53407  28.537   9.238   6.126
 4090POPC   C2B53408  28.619   9.462   6.514
 4090POPC   C3B53409  28.612   9.467   6.938
 4090POPC   C4B53410  28.599   9.074   7.095
 4091POPC   NC353411  27.122  27.138   5.659
 4091POPC   PO453412  27.577  26.912   5.264
 4091POPC   GL153413  27.630  26.964   5.710
 4091POPC   GL253414  27.376  26.768   5.910
 4091POPC   C1A53415  27.826  26.972   6.130
 4091POPC   D2A53416  27.906  26.784   6.551
 4091POPC   C3A53417  27.679  26.913   6.930
 4091POPC   C4A53418  27.465  26.687   7.282
 4091POPC   C1B53419  27.340  27.085   6.279
 4091POPC   C2B53420  27.122  27.107   6.690
 4091POPC   C3B53421  27.235  27.110   7.128
 4091POPC   C4B53422  27.596  27.171   7.430
 4092POPC   NC353423   1.792  38.372   5.375
 4092POPC   PO453424   2.216  38.690   5.038
 4092POPC   GL153425   2.192  38.555   5.644
 4092POPC   GL253426   1.826  38.562   5.835
 4092POPC   C1A53427   2.263  38.551   6.130
 4092POPC   D2A53428   2.440  38.640   6.569
 4092POPC   C3A53429   2.250  38.485   6.965
 4092POPC   C4A53430   2.132  38.794   7.282
 4092POPC   C1B53431   1.829  38.253   6.142
 4092POPC   C2B53432   2.056  38.214   6.537
 4092POPC   C3B53433   1.978  38.031   6.934
 4092POPC   C4B53434   1.821  38.333   7.264
 4093POPC   NC353435   4.667  37.013   5.434
 4093POPC   PO453436   5.305  36.816   5.398
 4093POPC   GL153437   4.994  36.703   5.711
 4093POPC   GL253438   5.153  36.972   5.907
 4093POPC   C1A53439   4.836  36.664   6.151
 4093POPC   D2A53440   4.994  36.908   6.486
 4093POPC   C3A53441   4.863  36.920   6.912
 4093POPC   C4A53442   4.883  36.743   7.320
 4093POPC   C1B53443   5.464  37.266   6.133
 4093POPC   C2B53444   5.633  37.103   6.511
 4093POPC   C3B53445   5.443  36.984   6.847
 4093POPC   C4B53446   5.272  37.053   7.215
 4094POPC   NC353447  37.339  33.989   5.229
 4094POPC   PO453448  36.736  33.623   5.393
 4094POPC   GL153449  36.859  33.663   5.807
 4094POPC   GL253450  36.913  34.027   5.823
 4094POPC   C1A53451  37.056  33.637   6.217
 4094POPC   D2A53452  37.233  33.974   6.413
 4094POPC   C3A53453  37.015  34.081   6.792
 4094POPC   C4A53454  36.916  33.766   7.099
 4094POPC   C1B53455  36.752  34.075   6.254
 4094POPC   C2B53456  36.390  34.108   6.545
 4094POPC   C3B53457  36.483  34.079   6.987
 4094POPC   C4B53458  36.799  34.215   7.272
 4095POPC   NC353459  41.508  12.106   5.241
 4095POPC   PO453460  41.677  11.549   5.564
 4095POPC   GL153461  41.544  11.854   5.814
 4095POPC   GL253462  41.571  12.193   5.752
 4095POPC   C1A53463  41.434  11.746   6.213
 4095POPC   D2A53464  41.641  11.633   6.543
 4095POPC   C3A53465  41.405  11.808   6.880
 4095POPC   C4A53466  41.640  11.962   7.201
 4095POPC   C1B53467  41.710  12.196   6.198
 4095POPC   C2B53468  41.773  12.150   6.654
 4095POPC   C3B53469  41.608  12.401   7.000
 4095POPC   C4B53470  41.734  12.374   7.470
 4096POPC   NC353471  36.881   7.933   5.437
 4096POPC   PO453472  37.107   8.577   5.301
 4096POPC   GL153473  37.211   8.339   5.718
 4096POPC   GL253474  37.272   7.988   5.797
 4096POPC   C1A53475  36.898   8.221   6.084
 4096POPC   D2A53476  36.793   8.101   6.522
 4096POPC   C3A53477  36.600   8.398   6.790
 4096POPC   C4A53478  36.665   8.523   7.207
 4096POPC   C1B53479  37.368   8.117   6.266
 4096POPC   C2B53480  37.316   8.114   6.738
 4096POPC   C3B53481  37.102   8.032   7.167
 4096POPC   C4B53482  37.253   8.019   7.630
 4097POPC   NC353483   6.850   4.704   5.519
 4097POPC   PO453484   6.620   5.335   5.291
 4097POPC   GL153485   6.531   5.206   5.743
 4097POPC   GL253486   6.487   4.889   5.843
 4097POPC   C1A53487   6.724   5.159   6.197
 4097POPC   D2A53488   7.061   5.101   6.508
 4097POPC   C3A53489   7.012   5.007   6.956
 4097POPC   C4A53490   6.994   5.312   7.284
 4097POPC   C1B53491   6.458   4.735   6.262
 4097POPC   C2B53492   6.586   4.901   6.635
 4097POPC   C3B53493   6.363   4.974   6.983
 4097POPC   C4B53494   6.420   4.886   7.421
 4098POPC   NC353495  40.342  21.302   5.563
 4098POPC   PO453496  39.900  21.535   5.134
 4098POPC   GL153497  39.943  21.618   5.632
 4098POPC   GL253498  39.909  21.332   5.913
 4098POPC   C1A53499  40.135  21.741   6.065
 4098POPC   D2A53500  40.027  21.516   6.462
 4098POPC   C3A53501  40.109  21.712   6.876
 4098POPC   C4A53502  40.036  21.448   7.244
 4098POPC   C1B53503  39.722  21.100   6.279
 4098POPC   C2B53504  39.657  21.101   6.733
 4098POPC   C3B53505  39.880  20.896   7.123
 4098POPC   C4B53506  39.603  20.707   7.462
 4099POPC   NC353507  44.851  14.879   5.006
 4099POPC   PO453508   0.330  15.028   5.481
 4099POPC   GL153509   0.438  15.253   5.858
 4099POPC   GL253510   0.717  15.029   5.913
 4099POPC   C1A53511   0.393  15.252   6.320
 4099POPC   D2A53512   0.131  15.142   6.678
 4099POPC   C3A53513   0.262  15.381   7.038
 4099POPC   C4A53514   0.344  15.295   7.479
 4099POPC   C1B53515   0.853  15.391   6.161
 4099POPC   C2B53516   0.758  15.516   6.594
 4099POPC   C3B53517   0.819  15.351   7.003
 4099POPC   C4B53518   0.628  15.017   7.204
 4100POPC   NC353519  35.645  39.763   5.288
 4100POPC   PO453520  35.915  40.324   5.242
 4100POPC   GL153521  36.008  40.220   5.749
 4100POPC   GL253522  36.393  40.166   5.846
 4100POPC   C1A53523  36.024  39.920   6.148
 4100POPC   D2A53524  35.821  39.894   6.582
 4100POPC   C3A53525  36.001  39.739   6.966
 4100POPC   C4A53526  35.790  39.814   7.341
 4100POPC   C1B53527  36.268  40.344   6.257
 4100POPC   C2B53528  36.245  40.185   6.689
 4100POPC   C3B53529  36.155  40.215   7.133
 4100POPC   C4B53530  36.420  40.145   7.471
 4101POPC   NC353531  39.466  31.130   5.417
 4101POPC   PO453532  38.943  30.738   5.370
 4101POPC   GL153533  39.210  30.781   5.743
 4101POPC   GL253534  39.118  30.449   5.804
 4101POPC   C1A53535  39.398  30.698   6.195
 4101POPC   D2A53536  39.318  30.837   6.651
 4101POPC   C3A53537  39.531  30.679   7.028
 4101POPC   C4A53538  39.488  30.889   7.464
 4101POPC   C1B53539  38.897  30.649   6.148
 4101POPC   C2B53540  38.976  30.474   6.542
 4101POPC   C3B53541  39.052  30.445   6.959
 4101POPC   C4B53542  39.058  30.809   7.208
 4102POPC   NC353543  24.323   0.497   5.467
 4102POPC   PO453544  24.731   0.011   5.509
 4102POPC   GL153545  24.547   0.126   5.893
 4102POPC   GL253546  24.176   0.125   5.833
 4102POPC   C1A53547  24.654   0.469   6.193
 4102POPC   D2A53548  24.602   0.813   6.506
 4102POPC   C3A53549  24.891   0.812   6.851
 4102POPC   C4A53550  24.867   0.534   7.203
 4102POPC   C1B53551  24.201   0.237   6.264
 4102POPC   C2B53552  24.288   0.100   6.687
 4102POPC   C3B53553  24.384   0.283   7.110
 4102POPC   C4B53554  24.430   0.770   7.118
 4103POPC   NC353555   6.738   0.792   5.462
 4103POPC   PO453556   6.307   0.279   5.454
 4103POPC   GL153557   6.505   0.499   5.851
 4103POPC   GL253558   6.867   0.433   5.857
 4103POPC   C1A53559   6.622   0.574   6.318
 4103POPC   D2A53560   6.748   0.904   6.615
 4103POPC   C3A53561   6.558   0.782   7.001
 4103POPC   C4A53562   6.321   0.421   7.129
 4103POPC   C1B53563   6.927   0.176   6.249
 4103POPC   C2B53564   6.651   0.128   6.649
 4103POPC   C3B53565   6.565  44.970   7.079
 4103POPC   C4B53566   6.708  44.741   7.444
 4104POPC   NC353567  10.677   7.817   5.407
 4104POPC   PO453568  10.474   8.409   5.160
 4104POPC   GL153569  10.430   8.432   5.642
 4104POPC   GL253570  10.751   8.573   5.767
 4104POPC   C1A53571  10.478   8.155   6.039
 4104POPC   D2A53572  10.611   8.058   6.490
 4104POPC   C3A53573  10.527   8.153   6.943
 4104POPC   C4A53574  10.766   7.871   7.203
 4104POPC   C1B53575  10.649   8.611   6.203
 4104POPC   C2B53576  10.856   8.581   6.603
 4104POPC   C3B53577  10.780   8.737   7.019
 4104POPC   C4B53578  10.754   8.453   7.376
 4105POPC   NC353579  11.810  21.659   5.454
 4105POPC   PO453580  12.358  21.211   5.456
 4105POPC   GL153581  12.022  21.305   5.761
 4105POPC   GL253582  12.222  21.565   5.863
 4105POPC   C1A53583  11.839  21.422   6.158
 4105POPC   D2A53584  12.060  21.341   6.523
 4105POPC   C3A53585  11.826  21.352   6.858
 4105POPC   C4A53586  11.997  21.321   7.225
 4105POPC   C1B53587  12.462  21.287   6.124
 4105POPC   C2B53588  12.550  21.168   6.535
 4105POPC   C3B53589  12.423  21.323   6.935
 4105POPC   C4B53590  12.488  21.225   7.381
 4106POPC   NC353591  17.165   8.483   5.528
 4106POPC   PO453592  17.718   8.148   5.333
 4106POPC   GL153593  17.523   8.200   5.758
 4106POPC   GL253594  17.807   8.451   5.779
 4106POPC   C1A53595  17.269   8.218   6.195
 4106POPC   D2A53596  17.411   8.049   6.639
 4106POPC   C3A53597  17.273   8.167   7.066
 4106POPC   C4A53598  17.365   7.905   7.418
 4106POPC   C1B53599  17.808   8.179   6.177
 4106POPC   C2B53600  17.832   8.322   6.607
 4106POPC   C3B53601  17.781   8.098   7.008
 4106POPC   C4B53602  17.728   8.268   7.397
 4107POPC   NC353603  26.680   6.122   5.475
 4107POPC   PO453604  26.983   5.520   5.343
 4107POPC   GL153605  26.814   5.693   5.726
 4107POPC   GL253606  26.997   5.968   5.861
 4107POPC   C1A53607  26.606   5.772   6.143
 4107POPC   D2A53608  26.546   5.993   6.558
 4107POPC   C3A53609  26.611   5.779   6.942
 4107POPC   C4A53610  26.784   5.807   7.340
 4107POPC   C1B53611  26.823   6.238   6.202
 4107POPC   C2B53612  26.931   6.354   6.649
 4107POPC   C3B53613  26.853   6.244   7.089
 4107POPC   C4B53614  27.118   6.172   7.448
 4108POPC   NC353615  44.321  40.638   5.524
 4108POPC   PO453616  43.681  40.538   5.520
 4108POPC   GL153617  43.790  40.806   5.883
 4108POPC   GL253618  44.077  41.050   5.791
 4108POPC   C1A53619  43.835  40.653   6.317
 4108POPC   D2A53620  44.069  40.390   6.597
 4108POPC   C3A53621  43.789  40.291   6.940
 4108POPC   C4A53622  43.862  40.472   7.348
 4108POPC   C1B53623  44.271  40.858   6.166
 4108POPC   C2B53624  44.232  40.932   6.605
 4108POPC   C3B53625  43.935  40.823   6.921
 4108POPC   C4B53626  43.924  41.047   7.325
 4109POPC   NC353627  43.998  28.233   5.436
 4109POPC   PO453628  44.248  28.861   5.581
 4109POPC   GL153629  44.062  28.459   5.869
 4109POPC   GL253630  43.681  28.336   5.843
 4109POPC   C1A53631  44.032  28.346   6.269
 4109POPC   D2A53632  44.155  28.533   6.606
 4109POPC   C3A53633  44.191  28.201   6.858
 4109POPC   C4A53634  43.973  28.362   7.142
 4109POPC   C1B53635  43.688  27.996   6.182
 4109POPC   C2B53636  43.703  28.066   6.682
 4109POPC   C3B53637  43.483  28.222   7.099
 4109POPC   C4B53638  43.433  28.270   7.604
 4110POPC   NC353639  34.650  39.708   5.363
 4110POPC   PO453640  34.766  40.388   5.589
 4110POPC   GL153641  34.549  40.144   5.871
 4110POPC   GL253642  34.650  39.797   5.856
 4110POPC   C1A53643  34.400  40.214   6.318
 4110POPC   D2A53644  34.508  39.965   6.696
 4110POPC   C3A53645  34.441  40.105   7.113
 4110POPC   C4A53646  34.630  40.247   7.481
 4110POPC   C1B53647  34.260  39.781   6.064
 4110POPC   C2B53648  34.073  39.809   6.463
 4110POPC   C3B53649  34.095  39.600   6.868
 4110POPC   C4B53650  34.390  39.632   7.231
 4111POPC   NC353651   6.503   2.524   5.156
 4111POPC   PO453652   6.926   2.961   5.491
 4111POPC   GL153653   6.663   2.764   5.839
 4111POPC   GL253654   6.399   2.562   5.687
 4111POPC   C1A53655   6.573   2.827   6.300
 4111POPC   D2A53656   6.765   2.970   6.697
 4111POPC   C3A53657   6.646   2.849   7.104
 4111POPC   C4A53658   6.871   2.843   7.472
 4111POPC   C1B53659   6.339   2.389   6.139
 4111POPC   C2B53660   6.248   2.497   6.597
 4111POPC   C3B53661   6.434   2.379   7.021
 4111POPC   C4B53662   6.586   2.433   7.458
 4112POPC   NC353663  29.979  27.814   4.923
 4112POPC   PO453664  29.894  27.415   5.396
 4112POPC   GL153665  29.697  27.441   5.802
 4112POPC   GL253666  29.969  27.675   5.890
 4112POPC   C1A53667  29.702  27.493   6.274
 4112POPC   D2A53668  29.865  27.271   6.631
 4112POPC   C3A53669  29.816  27.437   7.030
 4112POPC   C4A53670  29.501  27.696   7.197
 4112POPC   C1B53671  29.957  27.926   6.275
 4112POPC   C2B53672  29.812  27.830   6.700
 4112POPC   C3B53673  29.961  27.907   7.147
 4112POPC   C4B53674  29.901  27.924   7.620
 4113POPC   NC353675  40.404   8.138   5.147
 4113POPC   PO453676  40.829   7.890   5.595
 4113POPC   GL153677  40.756   7.902   6.003
 4113POPC   GL253678  40.691   8.226   5.989
 4113POPC   C1A53679  40.800   7.818   6.442
 4113POPC   D2A53680  40.601   8.128   6.704
 4113POPC   C3A53681  40.703   8.078   7.130
 4113POPC   C4A53682  40.664   8.012   7.570
 4113POPC   C1B53683  41.034   8.254   6.290
 4113POPC   C2B53684  41.096   8.300   6.730
 4113POPC   C3B53685  41.052   8.462   7.151
 4113POPC   C4B53686  41.021   8.410   7.622
 4114POPC   NC353687   0.401  37.838   5.141
 4114POPC   PO453688   0.240  37.428   5.619
 4114POPC   GL153689   0.328  37.658   5.948
 4114POPC   GL253690   0.614  37.514   6.026
 4114POPC   C1A53691   0.278  37.609   6.401
 4114POPC   D2A53692   0.165  37.651   6.829
 4114POPC   C3A53693   0.424  37.738   7.184
 4114POPC   C4A53694   0.211  37.732   7.555
 4114POPC   C1B53695   0.726  37.338   6.419
 4114POPC   C2B53696   0.664  37.411   6.841
 4114POPC   C3B53697   0.846  37.438   7.230
 4114POPC   C4B53698   0.665  37.502   7.646
 4115POPC   NC353699   7.892  27.800   5.521
 4115POPC   PO453700   7.371  27.349   5.588
 4115POPC   GL153701   7.495  27.668   5.877
 4115POPC   GL253702   7.299  27.983   5.846
 4115POPC   C1A53703   7.453  27.517   6.282
 4115POPC   D2A53704   7.611  27.491   6.681
 4115POPC   C3A53705   7.325  27.418   7.013
 4115POPC   C4A53706   7.536  27.755   7.256
 4115POPC   C1B53707   7.118  27.890   6.262
 4115POPC   C2B53708   7.209  27.802   6.691
 4115POPC   C3B53709   7.035  27.852   7.085
 4115POPC   C4B53710   7.045  27.655   7.453
 4116POPC   NC353711  14.636  39.964   5.403
 4116POPC   PO453712  15.313  40.106   5.308
 4116POPC   GL153713  15.053  40.022   5.681
 4116POPC   GL253714  15.059  39.658   5.705
 4116POPC   C1A53715  15.042  40.001   6.126
 4116POPC   D2A53716  15.226  40.263   6.418
 4116POPC   C3A53717  15.197  40.168   6.836
 4116POPC   C4A53718  14.945  39.969   7.169
 4116POPC   C1B53719  15.474  39.787   5.913
 4116POPC   C2B53720  15.504  39.814   6.377
 4116POPC   C3B53721  15.293  39.687   6.772
 4116POPC   C4B53722  15.397  39.794   7.228
 4117POPC   NC353723   9.952  29.526   5.545
 4117POPC   PO453724   9.946  30.143   5.227
 4117POPC   GL153725   9.759  30.027   5.645
 4117POPC   GL253726   9.997  29.942   5.874
 4117POPC   C1A53727   9.502  30.043   6.056
 4117POPC   D2A53728   9.436  30.343   6.420
 4117POPC   C3A53729   9.357  30.111   6.860
 4117POPC   C4A53730   9.498  30.059   7.307
 4117POPC   C1B53731   9.954  30.196   6.220
 4117POPC   C2B53732   9.794  30.035   6.598
 4117POPC   C3B53733   9.874  30.209   6.978
 4117POPC   C4B53734  10.041  30.060   7.368
 4118POPC   NC353735   1.730  36.653   5.327
 4118POPC   PO453736   2.288  37.030   5.581
 4118POPC   GL153737   1.909  36.898   5.768
 4118POPC   GL253738   1.939  36.550   5.854
 4118POPC   C1A53739   1.795  36.903   6.206
 4118POPC   D2A53740   2.010  36.755   6.564
 4118POPC   C3A53741   2.126  37.068   6.860
 4118POPC   C4A53742   2.254  37.085   7.264
 4118POPC   C1B53743   1.746  36.398   6.272
 4118POPC   C2B53744   1.490  36.634   6.576
 4118POPC   C3B53745   1.599  36.970   6.836
 4118POPC   C4B53746   1.736  37.132   7.217
 4119POPC   NC353747   5.434  15.352   5.553
 4119POPC   PO453748   5.823  14.887   5.520
 4119POPC   GL153749   5.789  15.130   5.900
 4119POPC   GL253750   5.515  14.944   5.981
 4119POPC   C1A53751   5.974  15.294   6.311
 4119POPC   D2A53752   6.048  15.076   6.737
 4119POPC   C3A53753   5.717  15.234   7.009
 4119POPC   C4A53754   5.566  15.603   7.253
 4119POPC   C1B53755   5.727  14.861   6.385
 4119POPC   C2B53756   5.671  14.699   6.816
 4119POPC   C3B53757   5.857  14.776   7.223
 4119POPC   C4B53758   6.140  15.065   7.413
 4120POPC   NC353759  23.457  37.345   5.632
 4120POPC   PO453760  23.728  37.866   5.322
 4120POPC   GL153761  23.920  37.901   5.751
 4120POPC   GL253762  23.731  38.166   5.891
 4120POPC   C1A53763  23.950  37.785   6.217
 4120POPC   D2A53764  23.792  37.783   6.673
 4120POPC   C3A53765  23.967  37.636   7.095
 4120POPC   C4A53766  23.764  37.343   7.431
 4120POPC   C1B53767  23.441  37.962   6.189
 4120POPC   C2B53768  23.307  37.992   6.622
 4120POPC   C3B53769  23.522  38.081   7.006
 4120POPC   C4B53770  23.469  37.707   7.207
 4121POPC   NC353771  27.590  32.885   5.287
 4121POPC   PO453772  27.931  33.530   5.343
 4121POPC   GL153773  27.874  33.233   5.757
 4121POPC   GL253774  27.988  32.854   5.791
 4121POPC   C1A53775  27.722  33.098   6.206
 4121POPC   D2A53776  27.686  32.937   6.662
 4121POPC   C3A53777  27.584  33.236   7.021
 4121POPC   C4A53778  27.505  33.181   7.474
 4121POPC   C1B53779  27.930  32.589   6.196
 4121POPC   C2B53780  27.937  32.444   6.644
 4121POPC   C3B53781  27.936  32.468   7.093
 4121POPC   C4B53782  27.691  32.780   7.235
 4122POPC   NC353783  26.428  18.632   5.447
 4122POPC   PO453784  25.945  18.158   5.204
 4122POPC   GL153785  26.048  18.328   5.639
 4122POPC   GL253786  25.764  18.388   5.848
 4122POPC   C1A53787  26.145  18.260   6.137
 4122POPC   D2A53788  26.188  18.090   6.566
 4122POPC   C3A53789  26.070  18.322   6.961
 4122POPC   C4A53790  26.083  18.072   7.325
 4122POPC   C1B53791  25.752  18.571   6.256
 4122POPC   C2B53792  25.811  18.673   6.670
 4122POPC   C3B53793  25.645  18.656   7.061
 4122POPC   C4B53794  25.752  18.445   7.402
 4123POPC   NC353795   5.605  31.141   5.488
 4123POPC   PO453796   6.085  30.895   5.051
 4123POPC   GL153797   5.979  30.748   5.527
 4123POPC   GL253798   6.038  31.023   5.771
 4123POPC   C1A53799   5.949  30.546   5.987
 4123POPC   D2A53800   6.002  30.561   6.463
 4123POPC   C3A53801   5.726  30.445   6.814
 4123POPC   C4A53802   5.746  30.411   7.272
 4123POPC   C1B53803   6.285  30.914   6.150
 4123POPC   C2B53804   6.289  30.985   6.594
 4123POPC   C3B53805   6.166  31.144   6.979
 4123POPC   C4B53806   6.058  31.066   7.381
 4124POPC   NC353807  44.306  21.346   5.385
 4124POPC   PO453808  44.968  21.091   5.395
 4124POPC   GL153809  44.716  21.307   5.699
 4124POPC   GL253810  44.419  21.130   5.811
 4124POPC   C1A53811  44.665  21.541   6.079
 4124POPC   D2A53812  44.631  21.363   6.484
 4124POPC   C3A53813  44.787  21.535   6.856
 4124POPC   C4A53814  44.543  21.577   7.230
 4124POPC   C1B53815  44.441  20.962   6.188
 4124POPC   C2B53816  44.218  21.055   6.534
 4124POPC   C3B53817  44.384  21.195   6.911
 4124POPC   C4B53818  44.589  20.946   7.174
 4125POPC   NC353819   7.840  11.353   5.320
 4125POPC   PO453820   7.155  11.489   5.229
 4125POPC   GL153821   7.433  11.382   5.624
 4125POPC   GL253822   7.704  11.086   5.732
 4125POPC   C1A53823   7.495  11.376   6.090
 4125POPC   D2A53824   7.707  11.423   6.506
 4125POPC   C3A53825   7.479  11.338   6.892
 4125POPC   C4A53826   7.468  11.289   7.359
 4125POPC   C1B53827   7.875  11.031   6.185
 4125POPC   C2B53828   7.780  10.942   6.644
 4125POPC   C3B53829   7.693  10.906   7.091
 4125POPC   C4B53830   7.718  10.862   7.569
 4126POPC   NC353831   1.543   4.693   5.464
 4126POPC   PO453832   0.800   4.831   5.307
 4126POPC   GL153833   1.117   4.980   5.642
 4126POPC   GL253834   1.248   5.307   5.819
 4126POPC   C1A53835   1.238   4.884   6.075
 4126POPC   D2A53836   1.156   5.074   6.448
 4126POPC   C3A53837   1.352   4.939   6.830
 4126POPC   C4A53838   1.181   4.916   7.241
 4126POPC   C1B53839   1.467   5.428   6.216
 4126POPC   C2B53840   1.406   5.439   6.683
 4126POPC   C3B53841   1.394   5.351   7.119
 4126POPC   C4B53842   1.366   5.276   7.576
 4127POPC   NC353843  12.836  33.813   5.146
 4127POPC   PO453844  12.645  33.464   5.715
 4127POPC   GL153845  12.915  33.704   5.914
 4127POPC   GL253846  12.943  34.010   5.780
 4127POPC   C1A53847  13.130  33.821   6.242
 4127POPC   D2A53848  13.096  34.107   6.546
 4127POPC   C3A53849  13.156  33.813   6.842
 4127POPC   C4A53850  13.024  33.783   7.246
 4127POPC   C1B53851  12.685  34.067   6.169
 4127POPC   C2B53852  12.651  33.792   6.492
 4127POPC   C3B53853  12.643  33.883   6.902
 4127POPC   C4B53854  12.655  34.181   7.228
 4128POPC   NC353855  38.273  24.854   5.438
 4128POPC   PO453856  38.365  24.224   5.359
 4128POPC   GL153857  38.518  24.270   5.755
 4128POPC   GL253858  38.537  24.607   5.831
 4128POPC   C1A53859  38.460  24.256   6.201
 4128POPC   D2A53860  38.358  24.464   6.549
 4128POPC   C3A53861  38.605  24.415   6.894
 4128POPC   C4A53862  38.593  24.605   7.274
 4128POPC   C1B53863  38.228  24.753   6.142
 4128POPC   C2B53864  38.169  24.957   6.555
 4128POPC   C3B53865  38.219  24.771   6.953
 4128POPC   C4B53866  38.118  24.902   7.365
 4129POPC   NC353867  35.264  38.097   5.668
 4129POPC   PO453868  35.319  38.663   5.235
 4129POPC   GL153869  35.433  38.561   5.736
 4129POPC   GL253870  35.204  38.498   6.033
 4129POPC   C1A53871  35.718  38.640   6.089
 4129POPC   D2A53872  35.818  38.477   6.490
 4129POPC   C3A53873  35.608  38.630   6.866
 4129POPC   C4A53874  35.461  38.546   7.295
 4129POPC   C1B53875  34.950  38.162   6.230
 4129POPC   C2B53876  34.937  38.047   6.624
 4129POPC   C3B53877  35.169  38.260   6.927
 4129POPC   C4B53878  35.001  38.342   7.331
 4130POPC   NC353879  20.497  41.089   5.416
 4130POPC   PO453880  20.831  41.775   5.501
 4130POPC   GL153881  20.502  41.529   5.739
 4130POPC   GL253882  20.370  41.215   5.907
 4130POPC   C1A53883  20.402  41.652   6.167
 4130POPC   D2A53884  20.674  41.769   6.517
 4130POPC   C3A53885  20.460  41.841   6.905
 4130POPC   C4A53886  20.341  41.573   7.228
 4130POPC   C1B53887  20.672  41.118   6.240
 4130POPC   C2B53888  20.784  41.006   6.681
 4130POPC   C3B53889  20.722  41.237   7.091
 4130POPC   C4B53890  20.883  41.667   7.211
 4131POPC   NC353891  12.881  27.869   5.519
 4131POPC   PO453892  12.693  27.256   5.268
 4131POPC   GL153893  12.744  27.393   5.757
 4131POPC   GL253894  13.062  27.369   5.969
 4131POPC   C1A53895  12.734  27.648   6.195
 4131POPC   D2A53896  12.832  27.940   6.546
 4131POPC   C3A53897  12.910  27.752   6.944
 4131POPC   C4A53898  12.923  27.350   7.164
 4131POPC   C1B53899  13.218  27.567   6.331
 4131POPC   C2B53900  13.194  27.348   6.692
 4131POPC   C3B53901  13.386  27.532   6.982
 4131POPC   C4B53902  13.280  27.675   7.342
 4132POPC   NC353903  29.327  31.743   5.475
 4132POPC   PO453904  28.869  31.265   5.372
 4132POPC   GL153905  28.977  31.476   5.762
 4132POPC   GL253906  29.325  31.360   5.797
 4132POPC   C1A53907  29.103  31.640   6.172
 4132POPC   D2A53908  29.057  31.845   6.572
 4132POPC   C3A53909  29.140  31.566   6.926
 4132POPC   C4A53910  29.183  31.674   7.347
 4132POPC   C1B53911  29.431  31.187   6.192
 4132POPC   C2B53912  29.290  31.089   6.611
 4132POPC   C3B53913  29.548  31.221   6.935
 4132POPC   C4B53914  29.523  31.298   7.332
 4133POPC   NC353915  33.076  44.822   5.432
 4133POPC   PO453916  33.393  44.296   5.219
 4133POPC   GL153917  33.149  44.330   5.696
 4133POPC   GL253918  32.849  44.482   5.850
 4133POPC   C1A53919  33.250  44.477   6.173
 4133POPC   D2A53920  33.508  44.627   6.507
 4133POPC   C3A53921  33.258  44.606   6.862
 4133POPC   C4A53922  33.031  44.634   7.269
 4133POPC   C1B53923  32.938  44.871   6.109
 4133POPC   C2B53924  33.080  44.959   6.508
 4133POPC   C3B53925  32.875  44.956   6.909
 4133POPC   C4B53926  32.894   0.125   7.297
 4134POPC   NC353927   4.175  23.328   5.405
 4134POPC   PO453928   4.224  22.647   5.281
 4134POPC   GL153929   4.361  22.848   5.720
 4134POPC   GL253930   4.473  23.209   5.833
 4134POPC   C1A53931   4.268  22.936   6.189
 4134POPC   D2A53932   4.439  23.100   6.583
 4134POPC   C3A53933   4.357  22.846   6.933
 4134POPC   C4A53934   3.940  22.751   7.081
 4134POPC   C1B53935   4.562  23.477   6.241
 4134POPC   C2B53936   4.674  23.536   6.702
 4134POPC   C3B53937   4.396  23.437   7.075
 4134POPC   C4B53938   4.423  23.413   7.541
 4135POPC   NC353939  41.825   8.972   5.568
 4135POPC   PO453940  41.175   8.826   5.674
 4135POPC   GL153941  41.526   8.733   5.921
 4135POPC   GL253942  41.858   8.515   5.830
 4135POPC   C1A53943  41.511   9.005   6.286
 4135POPC   D2A53944  41.372   9.216   6.671
 4135POPC   C3A53945  41.417   8.961   7.051
 4135POPC   C4A53946  41.684   9.051   7.454
 4135POPC   C1B53947  41.935   8.718   6.230
 4135POPC   C2B53948  41.932   9.015   6.573
 4135POPC   C3B53949  42.005   8.933   6.977
 4135POPC   C4B53950  41.805   8.624   7.147
 4136POPC   NC353951  37.945  33.457   5.559
 4136POPC   PO453952  37.442  32.915   5.422
 4136POPC   GL153953  37.532  32.777   5.806
 4136POPC   GL253954  37.841  32.949   5.796
 4136POPC   C1A53955  37.503  32.870   6.237
 4136POPC   D2A53956  37.765  32.894   6.607
 4136POPC   C3A53957  37.579  32.817   6.998
 4136POPC   C4A53958  37.420  33.218   7.148
 4136POPC   C1B53959  37.933  33.156   6.187
 4136POPC   C2B53960  37.974  33.363   6.589
 4136POPC   C3B53961  38.058  33.190   6.961
 4136POPC   C4B53962  37.917  33.057   7.328
 4137POPC   NC353963  41.537  20.083   5.407
 4137POPC   PO453964  42.015  19.601   5.244
 4137POPC   GL153965  41.866  19.774   5.677
 4137POPC   GL253966  42.049  19.504   5.852
 4137POPC   C1A53967  41.681  19.809   6.130
 4137POPC   D2A53968  41.404  19.997   6.485
 4137POPC   C3A53969  41.559  19.963   6.934
 4137POPC   C4A53970  41.338  20.113   7.325
 4137POPC   C1B53971  41.980  19.359   6.260
 4137POPC   C2B53972  41.775  19.507   6.610
 4137POPC   C3B53973  41.862  19.486   7.041
 4137POPC   C4B53974  41.704  19.715   7.386
 4138POPC   NC353975  32.233   9.433   5.288
 4138POPC   PO453976  32.533  10.019   5.531
 4138POPC   GL153977  32.195   9.928   5.822
 4138POPC   GL253978  32.063   9.588   5.861
 4138POPC   C1A53979  32.123   9.949   6.256
 4138POPC   D2A53980  32.365  10.077   6.629
 4138POPC   C3A53981  32.068  10.066   6.962
 4138POPC   C4A53982  32.023   9.941   7.362
 4138POPC   C1B53983  32.276   9.459   6.258
 4138POPC   C2B53984  32.192   9.566   6.667
 4138POPC   C3B53985  32.097   9.523   7.091
 4138POPC   C4B53986  32.301   9.549   7.508
 4139POPC   NC353987  11.160  30.742   5.358
 4139POPC   PO453988  11.556  30.247   5.408
 4139POPC   GL153989  11.431  30.480   5.753
 4139POPC   GL253990  11.137  30.277   5.785
 4139POPC   C1A53991  11.413  30.786   6.108
 4139POPC   D2A53992  11.431  30.994   6.514
 4139POPC   C3A53993  11.152  30.983   6.869
 4139POPC   C4A53994  11.301  30.974   7.269
 4139POPC   C1B53995  11.006  30.488   6.175
 4139POPC   C2B53996  11.144  30.544   6.609
 4139POPC   C3B53997  11.222  30.517   7.062
 4139POPC   C4B53998  11.063  30.601   7.512
 4140POPC   NC353999  16.969   3.897   5.146
 4140POPC   PO454000  16.562   3.415   5.399
 4140POPC   GL154001  16.462   3.612   5.770
 4140POPC   GL254002  16.769   3.783   5.836
 4140POPC   C1A54003  16.288   3.687   6.180
 4140POPC   D2A54004  16.511   3.790   6.563
 4140POPC   C3A54005  16.499   3.619   6.975
 4140POPC   C4A54006  16.868   3.701   7.227
 4140POPC   C1B54007  16.764   3.479   6.180
 4140POPC   C2B54008  16.931   3.149   6.451
 4140POPC   C3B54009  17.037   2.990   6.858
 4140POPC   C4B54010  17.050   3.154   7.276
 4141POPC   NC354011   3.215  34.634   5.156
 4141POPC   PO454012   2.623  34.357   5.233
 4141POPC   GL154013   2.608  34.673   5.552
 4141POPC   GL254014   2.925  34.727   5.737
 4141POPC   C1A54015   2.477  34.696   5.982
 4141POPC   D2A54016   2.496  34.558   6.412
 4141POPC   C3A54017   2.537  34.871   6.707
 4141POPC   C4A54018   2.585  34.811   7.146
 4141POPC   C1B54019   2.983  34.737   6.228
 4141POPC   C2B54020   3.038  34.546   6.672
 4141POPC   C3B54021   2.836  34.358   7.048
 4141POPC   C4B54022   2.498  34.251   7.364
 4142POPC   NC354023  43.048  29.505   5.519
 4142POPC   PO454024  43.336  30.202   5.430
 4142POPC   GL154025  43.060  30.014   5.747
 4142POPC   GL254026  43.318  29.788   5.863
 4142POPC   C1A54027  42.884  29.805   6.150
 4142POPC   D2A54028  43.091  29.688   6.557
 4142POPC   C3A54029  42.953  29.944   6.914
 4142POPC   C4A54030  42.925  30.040   7.353
 4142POPC   C1B54031  43.339  30.035   6.251
 4142POPC   C2B54032  43.441  30.054   6.703
 4142POPC   C3B54033  43.427  29.893   7.128
 4142POPC   C4B54034  43.374  29.949   7.566
 4143POPC   NC354035   1.858   7.242   5.657
 4143POPC   PO454036   1.782   6.679   5.215
 4143POPC   GL154037   1.884   6.736   5.679
 4143POPC   GL254038   2.058   6.507   5.808
 4143POPC   C1A54039   1.956   6.852   6.196
 4143POPC   D2A54040   2.160   6.713   6.611
 4143POPC   C3A54041   2.222   6.889   7.039
 4143POPC   C4A54042   2.201   6.737   7.482
 4143POPC   C1B54043   1.801   6.379   6.116
 4143POPC   C2B54044   1.863   6.303   6.500
 4143POPC   C3B54045   1.723   6.328   6.902
 4143POPC   C4B54046   1.795   6.612   7.210
 4144POPC   NC354047  28.257   7.209   5.618
 4144POPC   PO454048  28.217   6.510   5.413
 4144POPC   GL154049  28.139   6.675   5.789
 4144POPC   GL254050  28.465   6.824   5.893
 4144POPC   C1A54051  28.044   6.852   6.204
 4144POPC   D2A54052  28.212   6.739   6.602
 4144POPC   C3A54053  28.010   6.688   6.993
 4144POPC   C4A54054  28.319   6.841   7.262
 4144POPC   C1B54055  28.366   6.467   6.177
 4144POPC   C2B54056  28.552   6.369   6.548
 4144POPC   C3B54057  28.372   6.308   6.924
 4144POPC   C4B54058  28.173   6.294   7.292
 4145POPC   NC354059  41.503  43.976   5.217
 4145POPC   PO454060  41.771  43.424   5.408
 4145POPC   GL154061  41.555  43.599   5.749
 4145POPC   GL254062  41.239  43.743   5.627
 4145POPC   C1A54063  41.688  43.764   6.162
 4145POPC   D2A54064  41.622  44.024   6.527
 4145POPC   C3A54065  41.478  43.731   6.855
 4145POPC   C4A54066  41.708  43.676   7.244
 4145POPC   C1B54067  41.208  43.905   6.033
 4145POPC   C2B54068  41.143  43.880   6.468
 4145POPC   C3B54069  41.215  44.175   6.806
 4145POPC   C4B54070  41.399  44.073   7.209
 4146POPC   NC354071  27.904   8.013   5.441
 4146POPC   PO454072  27.432   8.401   5.183
 4146POPC   GL154073  27.531   8.262   5.663
 4146POPC   GL254074  27.868   8.485   5.687
 4146POPC   C1A54075  27.400   8.331   6.121
 4146POPC   D2A54076  27.541   8.482   6.525
 4146POPC   C3A54077  27.371   8.260   6.864
 4146POPC   C4A54078  27.299   8.416   7.264
 4146POPC   C1B54079  27.923   8.411   6.117
 4146POPC   C2B54080  28.073   8.515   6.523
 4146POPC   C3B54081  27.907   8.366   6.920
 4146POPC   C4B54082  27.705   8.101   7.220
 4147POPC   NC354083  21.961   3.927   5.501
 4147POPC   PO454084  21.888   3.344   5.360
 4147POPC   GL154085  22.106   3.492   5.737
 4147POPC   GL254086  21.837   3.641   5.918
 4147POPC   C1A54087  22.252   3.620   6.192
 4147POPC   D2A54088  21.940   3.672   6.532
 4147POPC   C3A54089  22.117   3.783   6.942
 4147POPC   C4A54090  22.396   3.754   7.318
 4147POPC   C1B54091  21.920   3.230   6.151
 4147POPC   C2B54092  22.103   3.153   6.529
 4147POPC   C3B54093  22.346   3.332   6.777
 4147POPC   C4B54094  22.177   3.318   7.150
 4148POPC   NC354095  29.122  27.620   5.401
 4148POPC   PO454096  29.229  27.071   5.496
 4148POPC   GL154097  29.174  27.396   5.858
 4148POPC   GL254098  29.087  27.770   5.865
 4148POPC   C1A54099  29.207  27.487   6.303
 4148POPC   D2A54100  29.398  27.528   6.701
 4148POPC   C3A54101  29.088  27.476   7.017
 4148POPC   C4A54102  29.208  27.369   7.437
 4148POPC   C1B54103  28.895  27.884   6.224
 4148POPC   C2B54104  29.013  27.852   6.653
 4148POPC   C3B54105  28.981  27.962   7.082
 4148POPC   C4B54106  28.933  27.788   7.506
 4149POPC   NC354107  35.287  16.907   5.356
 4149POPC   PO454108  34.745  16.335   5.424
 4149POPC   GL154109  34.994  16.601   5.688
 4149POPC   GL254110  35.160  16.336   5.814
 4149POPC   C1A54111  35.264  16.805   6.039
 4149POPC   D2A54112  35.527  16.817   6.424
 4149POPC   C3A54113  35.425  16.837   6.893
 4149POPC   C4A54114  35.068  16.930   7.223
 4149POPC   C1B54115  35.465  16.330   6.184
 4149POPC   C2B54116  35.524  16.330   6.649
 4149POPC   C3B54117  35.821  16.394   6.995
 4149POPC   C4B54118  35.744  16.530   7.397
 4150POPC   NC354119  16.072  23.067   5.354
 4150POPC   PO454120  15.536  22.597   5.430
 4150POPC   GL154121  15.740  22.882   5.753
 4150POPC   GL254122  16.109  22.844   5.820
 4150POPC   C1A54123  15.794  23.070   6.187
 4150POPC   D2A54124  15.705  22.871   6.609
 4150POPC   C3A54125  15.600  23.111   6.994
 4150POPC   C4A54126  15.772  23.014   7.405
 4150POPC   C1B54127  16.286  23.197   6.027
 4150POPC   C2B54128  16.263  23.304   6.474
 4150POPC   C3B54129  16.081  23.178   6.849
 4150POPC   C4B54130  16.264  23.099   7.237
 4151POPC   NC354131  39.692  31.628   5.573
 4151POPC   PO454132  39.016  31.361   5.424
 4151POPC   GL154133  39.108  31.606   5.772
 4151POPC   GL254134  39.376  31.454   5.935
 4151POPC   C1A54135  38.996  31.632   6.230
 4151POPC   D2A54136  39.169  31.801   6.627
 4151POPC   C3A54137  39.013  31.664   7.017
 4151POPC   C4A54138  39.266  31.303   7.153
 4151POPC   C1B54139  39.509  31.818   6.209
 4151POPC   C2B54140  39.668  31.892   6.639
 4151POPC   C3B54141  39.537  31.765   7.047
 4151POPC   C4B54142  39.627  31.762   7.511
 4152POPC   NC354143   6.674  34.778   5.539
 4152POPC   PO454144   6.091  34.447   5.342
 4152POPC   GL154145   6.440  34.298   5.659
 4152POPC   GL254146   6.807  34.185   5.665
 4152POPC   C1A54147   6.451  34.336   6.132
 4152POPC   D2A54148   6.301  34.386   6.593
 4152POPC   C3A54149   6.424  34.256   7.017
 4152POPC   C4A54150   6.474  34.664   7.259
 4152POPC   C1B54151   6.978  34.292   6.083
 4152POPC   C2B54152   6.823  34.443   6.477
 4152POPC   C3B54153   6.821  34.524   6.903
 4152POPC   C4B54154   7.108  34.313   7.176
 4153POPC   NC354155  29.437   0.753   5.575
 4153POPC   PO454156  28.943   0.970   5.155
 4153POPC   GL154157  28.993   1.097   5.603
 4153POPC   GL254158  29.336   1.229   5.695
 4153POPC   C1A54159  28.983   1.278   6.061
 4153POPC   D2A54160  29.147   1.297   6.493
 4153POPC   C3A54161  28.960   1.410   6.888
 4153POPC   C4A54162  29.208   1.458   7.245
 4153POPC   C1B54163  29.481   1.094   6.125
 4153POPC   C2B54164  29.599   1.040   6.557
 4153POPC   C3B54165  29.376   1.021   6.935
 4153POPC   C4B54166  29.392   0.958   7.361
 4154POPC   NC354167  28.453  18.706   5.350
 4154POPC   PO454168  28.765  19.296   5.319
 4154POPC   GL154169  28.694  19.204   5.784
 4154POPC   GL254170  28.384  19.007   5.846
 4154POPC   C1A54171  28.659  19.135   6.263
 4154POPC   D2A54172  28.468  18.894   6.619
 4154POPC   C3A54173  28.339  19.071   7.015
 4154POPC   C4A54174  28.490  19.148   7.431
 4154POPC   C1B54175  28.123  18.976   6.230
 4154POPC   C2B54176  27.933  18.807   6.605
 4154POPC   C3B54177  28.049  18.658   7.023
 4154POPC   C4B54178  28.038  18.879   7.430
 4155POPC   NC354179  15.156  34.243   5.313
 4155POPC   PO454180  14.750  34.825   5.404
 4155POPC   GL154181  15.011  34.543   5.717
 4155POPC   GL254182  15.322  34.459   5.839
 4155POPC   C1A54183  14.948  34.579   6.175
 4155POPC   D2A54184  15.025  34.806   6.549
 4155POPC   C3A54185  14.975  34.523   6.901
 4155POPC   C4A54186  14.997  34.351   7.315
 4155POPC   C1B54187  15.533  34.435   6.235
 4155POPC   C2B54188  15.464  34.500   6.678
 4155POPC   C3B54189  15.387  34.250   7.006
 4155POPC   C4B54190  15.524  34.551   7.255
 4156POPC   NC354191  21.436  18.656   5.183
 4156POPC   PO454192  21.214  19.213   5.520
 4156POPC   GL154193  21.382  19.176   5.919
 4156POPC   GL254194  21.630  18.941   5.972
 4156POPC   C1A54195  21.325  19.067   6.361
 4156POPC   D2A54196  21.492  18.960   6.754
 4156POPC   C3A54197  21.544  19.271   7.073
 4156POPC   C4A54198  21.628  19.362   7.533
 4156POPC   C1B54199  21.677  18.598   6.243
 4156POPC   C2B54200  21.548  18.455   6.638
 4156POPC   C3B54201  21.708  18.565   7.027
 4156POPC   C4B54202  21.346  18.776   7.214
 4157POPC   NC354203  42.212  23.279   5.373
 4157POPC   PO454204  42.026  22.606   5.602
 4157POPC   GL154205  42.225  22.951   5.850
 4157POPC   GL254206  42.056  23.322   5.857
 4157POPC   C1A54207  42.469  22.870   6.206
 4157POPC   D2A54208  42.485  23.001   6.631
 4157POPC   C3A54209  42.353  22.710   6.943
 4157POPC   C4A54210  42.454  22.724   7.377
 4157POPC   C1B54211  41.965  23.194   6.280
 4157POPC   C2B54212  41.940  22.935   6.640
 4157POPC   C3B54213  42.120  23.178   6.960
 4157POPC   C4B54214  42.379  23.255   7.299
 4158POPC   NC354215  15.565  32.189   5.543
 4158POPC   PO454216  16.245  32.334   5.405
 4158POPC   GL154217  16.024  32.225   5.798
 4158POPC   GL254218  16.043  31.869   5.701
 4158POPC   C1A54219  15.767  32.363   6.200
 4158POPC   D2A54220  15.606  32.447   6.663
 4158POPC   C3A54221  15.898  32.389   7.029
 4158POPC   C4A54222  15.977  32.437   7.483
 4158POPC   C1B54223  15.877  31.841   6.141
 4158POPC   C2B54224  15.752  31.964   6.539
 4158POPC   C3B54225  15.565  31.993   6.926
 4158POPC   C4B54226  15.766  32.005   7.334
 4159POPC   NC354227  14.063  17.588   5.594
 4159POPC   PO454228  14.591  17.187   5.472
 4159POPC   GL154229  14.595  17.423   5.820
 4159POPC   GL254230  14.286  17.239   5.917
 4159POPC   C1A54231  14.798  17.753   6.080
 4159POPC   D2A54232  14.725  17.841   6.506
 4159POPC   C3A54233  14.663  17.577   6.846
 4159POPC   C4A54234  14.626  17.836   7.188
 4159POPC   C1B54235  14.333  17.580   6.226
 4159POPC   C2B54236  14.194  17.723   6.622
 4159POPC   C3B54237  14.178  17.602   7.048
 4159POPC   C4B54238  14.148  17.621   7.531
 4160POPC   NC354239   1.698   2.538   5.532
 4160POPC   PO454240   1.927   1.963   5.309
 4160POPC   GL154241   1.859   1.776   5.692
 4160POPC   GL254242   1.987   2.108   5.810
 4160POPC   C1A54243   1.633   1.672   6.070
 4160POPC   D2A54244   1.692   1.760   6.508
 4160POPC   C3A54245   1.672   1.763   6.956
 4160POPC   C4A54246   1.985   1.662   7.284
 4160POPC   C1B54247   2.116   2.304   6.184
 4160POPC   C2B54248   2.014   2.157   6.571
 4160POPC   C3B54249   2.124   2.007   6.938
 4160POPC   C4B54250   1.980   2.164   7.318
 4161POPC   NC354251  37.926  22.965   5.460
 4161POPC   PO454252  37.437  22.595   5.492
 4161POPC   GL154253  37.601  22.818   5.873
 4161POPC   GL254254  37.714  23.168   5.866
 4161POPC   C1A54255  37.732  22.867   6.331
 4161POPC   D2A54256  37.943  22.868   6.762
 4161POPC   C3A54257  37.664  22.964   7.099
 4161POPC   C4A54258  37.513  22.685   7.395
 4161POPC   C1B54259  37.561  23.340   6.223
 4161POPC   C2B54260  37.487  23.215   6.663
 4161POPC   C3B54261  37.429  23.452   7.058
 4161POPC   C4B54262  37.521  23.229   7.523
 4162POPC   NC354263  21.296  30.181   5.256
 4162POPC   PO454264  21.348  29.496   5.277
 4162POPC   GL154265  21.350  29.587   5.718
 4162POPC   GL254266  21.112  29.830   5.758
 4162POPC   C1A54267  21.441  29.612   6.180
 4162POPC   D2A54268  21.293  29.750   6.579
 4162POPC   C3A54269  21.451  29.743   7.010
 4162POPC   C4A54270  21.156  29.764   7.322
 4162POPC   C1B54271  21.335  30.099   6.058
 4162POPC   C2B54272  21.396  30.239   6.502
 4162POPC   C3B54273  21.185  30.173   6.920
 4162POPC   C4B54274  21.311  30.252   7.358
 4163POPC   NC354275  27.230   9.802   5.346
 4163POPC   PO454276  27.784   9.445   5.392
 4163POPC   GL154277  27.580   9.739   5.738
 4163POPC   GL254278  27.225   9.791   5.844
 4163POPC   C1A54279  27.736   9.771   6.163
 4163POPC   D2A54280  27.876   9.884   6.570
 4163POPC   C3A54281  27.821   9.708   7.003
 4163POPC   C4A54282  28.000   9.994   7.359
 4163POPC   C1B54283  27.294  10.020   6.200
 4163POPC   C2B54284  27.359   9.800   6.570
 4163POPC   C3B54285  27.287   9.843   6.989
 4163POPC   C4B54286  27.500   9.957   7.329
 4164POPC   NC354287  17.117  10.554   5.437
 4164POPC   PO454288  17.777  10.391   5.626
 4164POPC   GL154289  17.362  10.343   5.874
 4164POPC   GL254290  17.190  10.651   5.942
 4164POPC   C1A54291  17.312  10.345   6.353
 4164POPC   D2A54292  17.697  10.465   6.607
 4164POPC   C3A54293  17.610  10.593   7.059
 4164POPC   C4A54294  17.507  10.456   7.488
 4164POPC   C1B54295  17.527  10.801   6.246
 4164POPC   C2B54296  17.658  10.978   6.682
 4164POPC   C3B54297  17.600  11.103   7.150
 4164POPC   C4B54298  17.671  10.956   7.585
 4165POPC   NC354299  27.468  10.622   4.905
 4165POPC   PO454300  27.457  10.191   5.465
 4165POPC   GL154301  27.647  10.268   5.841
 4165POPC   GL254302  27.743  10.575   5.718
 4165POPC   C1A54303  27.658  10.472   6.247
 4165POPC   D2A54304  27.470  10.300   6.604
 4165POPC   C3A54305  27.695  10.204   6.934
 4165POPC   C4A54306  27.687  10.439   7.283
 4165POPC   C1B54307  28.006  10.798   6.002
 4165POPC   C2B54308  27.985  10.835   6.448
 4165POPC   C3B54309  27.691  10.735   6.798
 4165POPC   C4B54310  27.798  10.952   7.184
 4166POPC   NC354311  37.140  28.157   5.477
 4166POPC   PO454312  37.160  28.818   5.442
 4166POPC   GL154313  37.043  28.541   5.810
 4166POPC   GL254314  37.138  28.694   6.126
 4166POPC   C1A54315  36.850  28.280   6.171
 4166POPC   D2A54316  37.050  28.341   6.594
 4166POPC   C3A54317  36.839  28.361   6.981
 4166POPC   C4A54318  36.651  28.699   7.192
 4166POPC   C1B54319  37.352  28.267   6.195
 4166POPC   C2B54320  37.512  28.132   6.606
 4166POPC   C3B54321  37.423  28.249   7.066
 4166POPC   C4B54322  37.080  28.154   7.381
 4167POPC   NC354323   6.192  13.814   5.407
 4167POPC   PO454324   5.701  13.534   5.109
 4167POPC   GL154325   5.747  13.640   5.583
 4167POPC   GL254326   6.048  13.431   5.704
 4167POPC   C1A54327   5.754  13.716   6.070
 4167POPC   D2A54328   5.718  13.547   6.526
 4167POPC   C3A54329   5.956  13.758   6.854
 4167POPC   C4A54330   5.884  13.785   7.266
 4167POPC   C1B54331   6.120  13.326   6.123
 4167POPC   C2B54332   6.238  13.454   6.528
 4167POPC   C3B54333   6.101  13.277   6.905
 4167POPC   C4B54334   6.261  13.381   7.287
 4168POPC   NC354335  39.205  19.276   5.329
 4168POPC   PO454336  39.629  18.782   5.414
 4168POPC   GL154337  39.485  19.053   5.766
 4168POPC   GL254338  39.130  19.129   5.824
 4168POPC   C1A54339  39.596  19.186   6.186
 4168POPC   D2A54340  39.495  19.407   6.559
 4168POPC   C3A54341  39.544  19.228   6.951
 4168POPC   C4A54342  39.179  19.174   7.169
 4168POPC   C1B54343  38.981  18.969   6.217
 4168POPC   C2B54344  38.956  19.099   6.638
 4168POPC   C3B54345  38.886  18.828   6.968
 4168POPC   C4B54346  38.735  18.956   7.334
 4169POPC   NC354347   9.188   2.250   5.265
 4169POPC   PO454348   8.967   1.585   5.426
 4169POPC   GL154349   9.024   1.848   5.744
 4169POPC   GL254350   9.366   1.970   5.709
 4169POPC   C1A54351   8.830   1.931   6.142
 4169POPC   D2A54352   8.869   2.226   6.455
 4169POPC   C3A54353   8.680   2.128   6.824
 4169POPC   C4A54354   8.863   1.916   7.178
 4169POPC   C1B54355   9.317   2.093   6.148
 4169POPC   C2B54356   9.220   1.855   6.535
 4169POPC   C3B54357   9.363   1.828   6.979
 4169POPC   C4B54358   9.314   1.727   7.429
 4170POPC   NC354359  15.458  11.294   5.490
 4170POPC   PO454360  16.122  11.232   5.367
 4170POPC   GL154361  15.894  11.128   5.744
 4170POPC   GL254362  15.858  11.475   5.878
 4170POPC   C1A54363  15.917  11.080   6.192
 4170POPC   D2A54364  16.104  11.283   6.574
 4170POPC   C3A54365  15.991  11.115   6.975
 4170POPC   C4A54366  15.900  11.271   7.377
 4170POPC   C1B54367  15.684  11.533   6.335
 4170POPC   C2B54368  15.712  11.552   6.790
 4170POPC   C3B54369  15.502  11.536   7.178
 4170POPC   C4B54370  15.672  11.659   7.610
 4171POPC   NC354371   3.777  22.724   5.438
 4171POPC   PO454372   3.440  23.266   5.233
 4171POPC   GL154373   3.363  22.953   5.644
 4171POPC   GL254374   3.206  22.641   5.622
 4171POPC   C1A54375   3.362  23.083   6.099
 4171POPC   D2A54376   3.596  23.175   6.487
 4171POPC   C3A54377   3.474  22.935   6.849
 4171POPC   C4A54378   3.464  23.072   7.264
 4171POPC   C1B54379   3.409  22.588   6.053
 4171POPC   C2B54380   3.308  22.452   6.479
 4171POPC   C3B54381   3.405  22.299   6.879
 4171POPC   C4B54382   3.484  22.556   7.231
 4172POPC   NC354383  41.677  19.338   5.480
 4172POPC   PO454384  41.354  18.754   5.279
 4172POPC   GL154385  41.339  18.711   5.753
 4172POPC   GL254386  41.701  18.688   5.855
 4172POPC   C1A54387  41.323  18.885   6.189
 4172POPC   D2A54388  41.452  18.820   6.636
 4172POPC   C3A54389  41.443  19.200   6.895
 4172POPC   C4A54390  41.500  19.244   7.344
 4172POPC   C1B54391  41.850  18.861   6.268
 4172POPC   C2B54392  41.943  19.019   6.686
 4172POPC   C3B54393  41.810  18.901   7.100
 4172POPC   C4B54394  41.922  18.989   7.543
 4173POPC   NC354395  27.104  20.037   5.394
 4173POPC   PO454396  26.523  19.725   5.362
 4173POPC   GL154397  26.769  19.878   5.761
 4173POPC   GL254398  27.073  19.663   5.781
 4173POPC   C1A54399  26.998  19.940   6.232
 4173POPC   D2A54400  27.033  19.891   6.748
 4173POPC   C3A54401  26.764  20.076   7.086
 4173POPC   C4A54402  26.506  20.084   7.482
 4173POPC   C1B54403  26.760  19.519   6.103
 4173POPC   C2B54404  26.636  19.679   6.491
 4173POPC   C3B54405  26.621  19.596   6.894
 4173POPC   C4B54406  26.928  19.585   7.192
 4174POPC   NC354407  17.049  26.103   5.547
 4174POPC   PO454408  16.512  25.904   5.152
 4174POPC   GL154409  16.537  26.019   5.616
 4174POPC   GL254410  16.710  25.759   5.788
 4174POPC   C1A54411  16.612  26.190   6.081
 4174POPC   D2A54412  16.540  26.129   6.540
 4174POPC   C3A54413  16.763  26.250   6.896
 4174POPC   C4A54414  16.631  26.523   7.190
 4174POPC   C1B54415  16.969  25.797   6.161
 4174POPC   C2B54416  17.028  25.964   6.545
 4174POPC   C3B54417  16.855  25.755   6.882
 4174POPC   C4B54418  16.575  25.852   7.221
 4175POPC   NC354419  24.899  37.021   5.549
 4175POPC   PO454420  25.575  36.822   5.357
 4175POPC   GL154421  25.463  36.876   5.790
 4175POPC   GL254422  25.384  37.235   5.856
 4175POPC   C1A54423  25.570  36.846   6.247
 4175POPC   D2A54424  25.369  36.984   6.628
 4175POPC   C3A54425  25.517  36.910   7.021
 4175POPC   C4A54426  25.219  36.831   7.351
 4175POPC   C1B54427  25.166  37.298   6.258
 4175POPC   C2B54428  25.161  37.464   6.681
 4175POPC   C3B54429  25.113  37.237   7.057
 4175POPC   C4B54430  25.465  37.278   7.382
 4176POPC   NC354431  22.538  26.401   5.486
 4176POPC   PO454432  22.606  25.732   5.341
 4176POPC   GL154433  22.868  25.948   5.685
 4176POPC   GL254434  23.173  25.810   5.803
 4176POPC   C1A54435  22.946  26.177   6.109
 4176POPC   D2A54436  22.810  26.295   6.550
 4176POPC   C3A54437  22.937  26.103   6.947
 4176POPC   C4A54438  22.708  26.195   7.328
 4176POPC   C1B54439  23.046  25.663   6.214
 4176POPC   C2B54440  23.155  25.715   6.647
 4176POPC   C3B54441  23.247  25.737   7.098
 4176POPC   C4B54442  23.162  25.969   7.489
 4177POPC   NC354443  11.995   8.810   5.408
 4177POPC   PO454444  12.239   9.403   5.388
 4177POPC   GL154445  12.099   9.144   5.766
 4177POPC   GL254446  11.742   9.186   5.846
 4177POPC   C1A54447  12.140   8.957   6.184
 4177POPC   D2A54448  12.362   9.149   6.533
 4177POPC   C3A54449  12.196   9.028   6.894
 4177POPC   C4A54450  12.190   8.653   7.106
 4177POPC   C1B54451  11.623   8.966   6.218
 4177POPC   C2B54452  11.742   8.775   6.638
 4177POPC   C3B54453  11.721   8.884   7.081
 4177POPC   C4B54454  11.952   9.022   7.404
 4178POPC   NC354455  14.162  40.217   5.650
 4178POPC   PO454456  14.312  39.643   5.285
 4178POPC   GL154457  14.558  39.703   5.813
 4178POPC   GL254458  14.559  40.082   5.935
 4178POPC   C1A54459  14.623  39.771   6.313
 4178POPC   D2A54460  14.691  40.142   6.624
 4178POPC   C3A54461  14.429  40.044   7.006
 4178POPC   C4A54462  14.073  39.709   7.076
 4178POPC   C1B54463  14.236  40.127   6.307
 4178POPC   C2B54464  14.022  40.307   6.676
 4178POPC   C3B54465  14.062  40.393   7.098
 4178POPC   C4B54466  14.419  40.451   7.324
 4179POPC   NC354467  38.770  20.713   5.401
 4179POPC   PO454468  38.144  20.777   5.161
 4179POPC   GL154469  38.296  20.816   5.692
 4179POPC   GL254470  38.445  20.517   5.841
 4179POPC   C1A54471  38.334  20.782   6.240
 4179POPC   D2A54472  38.576  20.423   6.500
 4179POPC   C3A54473  38.778  20.519   6.910
 4179POPC   C4A54474  38.579  20.868   7.090
 4179POPC   C1B54475  38.190  20.284   6.158
 4179POPC   C2B54476  38.078  20.426   6.584
 4179POPC   C3B54477  38.281  20.445   6.990
 4179POPC   C4B54478  38.333  20.221   7.377
 4180POPC   NC354479  27.475  11.484   5.411
 4180POPC   PO454480  27.693  10.831   5.261
 4180POPC   GL154481  27.628  11.072   5.704
 4180POPC   GL254482  27.762  11.396   5.839
 4180POPC   C1A54483  27.549  11.008   6.181
 4180POPC   D2A54484  27.665  11.217   6.612
 4180POPC   C3A54485  27.369  11.198   6.960
 4180POPC   C4A54486  27.409  11.288   7.402
 4180POPC   C1B54487  27.577  11.528   6.218
 4180POPC   C2B54488  27.736  11.743   6.585
 4180POPC   C3B54489  27.678  11.713   7.023
 4180POPC   C4B54490  27.864  11.445   7.303
 4181POPC   NC354491  39.417  13.385   5.501
 4181POPC   PO454492  38.836  13.849   5.585
 4181POPC   GL154493  39.034  13.553   5.843
 4181POPC   GL254494  39.318  13.741   5.862
 4181POPC   C1A54495  39.159  13.391   6.243
 4181POPC   D2A54496  39.345  13.319   6.629
 4181POPC   C3A54497  39.148  13.416   6.998
 4181POPC   C4A54498  39.202  13.297   7.414
 4181POPC   C1B54499  39.178  13.977   6.202
 4181POPC   C2B54500  39.253  13.824   6.583
 4181POPC   C3B54501  39.565  13.725   6.870
 4181POPC   C4B54502  39.429  13.753   7.274
 4182POPC   NC354503  39.899  19.797   5.523
 4182POPC   PO454504  40.427  20.214   5.412
 4182POPC   GL154505  40.201  20.125   5.812
 4182POPC   GL254506  39.817  20.127   5.905
 4182POPC   C1A54507  40.181  19.998   6.231
 4182POPC   D2A54508  40.220  20.102   6.623
 4182POPC   C3A54509  40.179  19.926   7.040
 4182POPC   C4A54510  40.418  19.635   7.322
 4182POPC   C1B54511  39.754  19.719   6.165
 4182POPC   C2B54512  39.929  19.677   6.580
 4182POPC   C3B54513  39.725  19.698   6.972
 4182POPC   C4B54514  39.811  19.861   7.382
 4183POPC   NC354515  21.307  13.516   5.079
 4183POPC   PO454516  21.745  13.878   5.390
 4183POPC   GL154517  21.798  13.837   5.850
 4183POPC   GL254518  21.530  14.031   5.970
 4183POPC   C1A54519  21.649  13.536   6.224
 4183POPC   D2A54520  21.277  13.494   6.521
 4183POPC   C3A54521  21.290  13.347   6.953
 4183POPC   C4A54522  21.371  13.360   7.370
 4183POPC   C1B54523  21.543  13.988   6.421
 4183POPC   C2B54524  21.612  13.887   6.838
 4183POPC   C3B54525  21.336  13.833   7.186
 4183POPC   C4B54526  21.060  13.789   7.568
 4184POPC   NC354527  30.269   7.757   5.222
 4184POPC   PO454528  29.715   7.342   5.457
 4184POPC   GL154529  29.938   7.321   5.834
 4184POPC   GL254530  29.965   7.682   5.871
 4184POPC   C1A54531  29.840   7.303   6.273
 4184POPC   D2A54532  29.608   7.244   6.667
 4184POPC   C3A54533  29.898   7.209   7.029
 4184POPC   C4A54534  29.882   7.328   7.485
 4184POPC   C1B54535  30.133   7.772   6.288
 4184POPC   C2B54536  30.007   7.584   6.677
 4184POPC   C3B54537  29.617   7.681   6.932
 4184POPC   C4B54538  29.477   7.591   7.347
 4185POPC   NC354539   9.296  34.313   5.537
 4185POPC   PO454540   8.672  34.735   5.344
 4185POPC   GL154541   8.881  34.569   5.738
 4185POPC   GL254542   8.663  34.299   5.874
 4185POPC   C1A54543   9.147  34.535   6.166
 4185POPC   D2A54544   9.289  34.730   6.589
 4185POPC   C3A54545   9.109  34.594   7.005
 4185POPC   C4A54546   9.304  34.554   7.420
 4185POPC   C1B54547   8.634  34.617   6.200
 4185POPC   C2B54548   8.777  34.679   6.619
 4185POPC   C3B54549   8.581  34.598   7.036
 4185POPC   C4B54550   8.782  34.897   7.340
 4186POPC   NC354551  26.977  34.260   5.779
 4186POPC   PO454552  27.002  34.687   5.250
 4186POPC   GL154553  26.670  34.686   5.712
 4186POPC   GL254554  26.519  34.370   5.929
 4186POPC   C1A54555  26.644  34.827   6.157
 4186POPC   D2A54556  27.004  34.834   6.479
 4186POPC   C3A54557  27.053  34.691   6.911
 4186POPC   C4A54558  26.957  34.912   7.283
 4186POPC   C1B54559  26.668  34.366   6.361
 4186POPC   C2B54560  26.549  34.662   6.674
 4186POPC   C3B54561  26.569  34.620   7.083
 4186POPC   C4B54562  26.770  34.247   7.168
 4187POPC   NC354563  39.788  33.447   5.604
 4187POPC   PO454564  40.078  32.911   5.466
 4187POPC   GL154565  40.089  32.740   5.859
 4187POPC   GL254566  39.770  32.563   5.883
 4187POPC   C1A54567  40.271  32.964   6.200
 4187POPC   D2A54568  40.410  33.240   6.551
 4187POPC   C3A54569  40.097  33.308   6.878
 4187POPC   C4A54570  39.979  33.035   7.215
 4187POPC   C1B54571  39.796  32.740   6.302
 4187POPC   C2B54572  39.852  32.885   6.744
 4187POPC   C3B54573  39.626  32.676   7.130
 4187POPC   C4B54574  39.653  32.797   7.582
 4188POPC   NC354575  13.209  20.138   5.652
 4188POPC   PO454576  13.533  19.619   5.327
 4188POPC   GL154577  13.585  19.790   5.714
 4188POPC   GL254578  13.293  19.612   5.783
 4188POPC   C1A54579  13.725  19.946   6.126
 4188POPC   D2A54580  13.834  19.745   6.527
 4188POPC   C3A54581  13.660  19.850   6.932
 4188POPC   C4A54582  13.913  19.796   7.281
 4188POPC   C1B54583  13.269  19.726   6.203
 4188POPC   C2B54584  13.349  19.558   6.624
 4188POPC   C3B54585  13.184  19.671   7.021
 4188POPC   C4B54586  13.351  19.787   7.396
 4189POPC   NC354587  15.868  30.306   5.577
 4189POPC   PO454588  16.040  30.939   5.400
 4189POPC   GL154589  15.898  30.834   5.803
 4189POPC   GL254590  16.173  30.601   5.853
 4189POPC   C1A54591  15.802  30.716   6.244
 4189POPC   D2A54592  15.588  30.587   6.612
 4189POPC   C3A54593  15.743  30.778   6.984
 4189POPC   C4A54594  15.963  30.483   7.227
 4189POPC   C1B54595  16.267  30.900   6.187
 4189POPC   C2B54596  16.111  30.910   6.631
 4189POPC   C3B54597  16.309  30.830   7.061
 4189POPC   C4B54598  16.316  30.681   7.526
 4190POPC   NC354599  32.606   0.429   5.360
 4190POPC   PO454600  31.966   0.562   5.381
 4190POPC   GL154601  32.107   0.428   5.783
 4190POPC   GL254602  32.414   0.277   5.820
 4190POPC   C1A54603  32.173   0.543   6.221
 4190POPC   D2A54604  32.298   0.461   6.657
 4190POPC   C3A54605  31.995   0.521   7.016
 4190POPC   C4A54606  32.147   0.570   7.457
 4190POPC   C1B54607  32.530   0.149   6.264
 4190POPC   C2B54608  32.409  44.969   6.683
 4190POPC   C3B54609  32.375   0.175   7.103
 4190POPC   C4B54610  32.441   0.153   7.537
 4191POPC   NC354611  19.965  42.752   5.432
 4191POPC   PO454612  19.894  42.116   5.417
 4191POPC   GL154613  19.790  42.393   5.763
 4191POPC   GL254614  20.125  42.519   5.894
 4191POPC   C1A54615  19.705  42.498   6.202
 4191POPC   D2A54616  19.893  42.503   6.622
 4191POPC   C3A54617  19.616  42.256   6.878
 4191POPC   C4A54618  19.459  42.171   7.285
 4191POPC   C1B54619  20.098  42.835   6.244
 4191POPC   C2B54620  19.902  43.019   6.626
 4191POPC   C3B54621  19.907  42.832   7.029
 4191POPC   C4B54622  19.981  42.455   7.185
 4192POPC   NC354623  35.245  22.718   5.247
 4192POPC   PO454624  35.689  22.981   5.576
 4192POPC   GL154625  35.420  22.992   5.842
 4192POPC   GL254626  35.148  22.764   5.759
 4192POPC   C1A54627  35.559  22.959   6.258
 4192POPC   D2A54628  35.496  22.776   6.669
 4192POPC   C3A54629  35.617  23.041   7.004
 4192POPC   C4A54630  35.579  22.875   7.426
 4192POPC   C1B54631  35.041  22.951   6.166
 4192POPC   C2B54632  34.991  22.899   6.581
 4192POPC   C3B54633  35.110  22.967   6.986
 4192POPC   C4B54634  35.078  22.867   7.390
 4193POPC   NC354635  43.289  36.608   5.378
 4193POPC   PO454636  42.843  37.117   5.239
 4193POPC   GL154637  42.999  37.117   5.715
 4193POPC   GL254638  43.317  36.936   5.772
 4193POPC   C1A54639  43.074  37.039   6.200
 4193POPC   D2A54640  42.877  36.908   6.603
 4193POPC   C3A54641  42.879  37.099   7.040
 4193POPC   C4A54642  43.097  36.894   7.445
 4193POPC   C1B54643  43.517  36.789   6.163
 4193POPC   C2B54644  43.408  36.905   6.573
 4193POPC   C3B54645  43.273  36.789   6.942
 4193POPC   C4B54646  43.558  36.837   7.240
 4194POPC   NC354647   9.268   4.468   5.568
 4194POPC   PO454648   8.693   4.723   5.666
 4194POPC   GL154649   8.888   4.369   5.912
 4194POPC   GL254650   9.187   4.125   5.919
 4194POPC   C1A54651   8.994   4.330   6.364
 4194POPC   D2A54652   8.827   4.075   6.694
 4194POPC   C3A54653   8.745   4.237   7.124
 4194POPC   C4A54654   8.916   4.025   7.466
 4194POPC   C1B54655   9.472   4.194   6.270
 4194POPC   C2B54656   9.499   4.305   6.653
 4194POPC   C3B54657   9.262   4.161   6.968
 4194POPC   C4B54658   9.238   4.393   7.312
 4195POPC   NC354659   4.443   6.898   5.469
 4195POPC   PO454660   3.891   6.588   5.177
 4195POPC   GL154661   4.069   6.649   5.693
 4195POPC   GL254662   4.384   6.516   5.824
 4195POPC   C1A54663   4.014   6.472   6.187
 4195POPC   D2A54664   4.071   6.670   6.623
 4195POPC   C3A54665   4.159   6.473   7.041
 4195POPC   C4A54666   4.076   6.799   7.323
 4195POPC   C1B54667   4.387   6.801   6.215
 4195POPC   C2B54668   4.649   6.769   6.608
 4195POPC   C3B54669   4.659   6.625   7.013
 4195POPC   C4B54670   4.664   6.674   7.414
 4196POPC   NC354671  13.128   5.645   5.379
 4196POPC   PO454672  12.833   6.135   5.113
 4196POPC   GL154673  12.746   5.954   5.572
 4196POPC   GL254674  12.743   5.645   5.727
 4196POPC   C1A54675  12.605   6.043   6.006
 4196POPC   D2A54676  12.614   5.917   6.421
 4196POPC   C3A54677  12.781   6.156   6.762
 4196POPC   C4A54678  12.669   6.107   7.177
 4196POPC   C1B54679  12.852   5.527   6.182
 4196POPC   C2B54680  13.014   5.677   6.621
 4196POPC   C3B54681  13.080   5.832   7.069
 4196POPC   C4B54682  13.368   5.925   7.445
 4197POPC   NC354683  20.470   8.938   5.363
 4197POPC   PO454684  21.069   9.050   5.521
 4197POPC   GL154685  20.722   9.065   5.786
 4197POPC   GL254686  20.901   9.274   5.959
 4197POPC   C1A54687  20.482   9.041   6.186
 4197POPC   D2A54688  20.442   8.760   6.529
 4197POPC   C3A54689  20.517   8.951   6.896
 4197POPC   C4A54690  20.567   9.310   7.177
 4197POPC   C1B54691  20.927   9.179   6.361
 4197POPC   C2B54692  20.942   9.188   6.786
 4197POPC   C3B54693  21.085   9.138   7.179
 4197POPC   C4B54694  21.050   9.080   7.627
 4198POPC   NC354695  17.121  28.366   5.289
 4198POPC   PO454696  16.490  28.472   5.414
 4198POPC   GL154697  16.593  28.409   5.886
 4198POPC   GL254698  16.827  28.139   5.953
 4198POPC   C1A54699  16.459  28.277   6.316
 4198POPC   D2A54700  16.775  28.165   6.607
 4198POPC   C3A54701  16.853  28.393   7.036
 4198POPC   C4A54702  17.109  28.385   7.456
 4198POPC   C1B54703  16.568  27.797   6.133
 4198POPC   C2B54704  16.458  27.727   6.568
 4198POPC   C3B54705  16.491  27.942   6.965
 4198POPC   C4B54706  16.360  28.276   7.238
 4199POPC   NC354707  18.229  22.489   5.156
 4199POPC   PO454708  18.194  23.097   5.454
 4199POPC   GL154709  18.194  23.119   5.905
 4199POPC   GL254710  18.521  22.997   6.050
 4199POPC   C1A54711  18.109  23.004   6.337
 4199POPC   D2A54712  18.462  22.923   6.599
 4199POPC   C3A54713  18.325  23.017   6.998
 4199POPC   C4A54714  18.235  22.932   7.428
 4199POPC   C1B54715  18.770  22.659   6.271
 4199POPC   C2B54716  18.715  22.476   6.705
 4199POPC   C3B54717  18.550  22.581   7.130
 4199POPC   C4B54718  18.714  22.809   7.549
 4200POPC   NC354719  11.994  29.114   5.054
 4200POPC   PO454720  12.227  29.010   5.654
 4200POPC   GL154721  12.230  29.319   5.954
 4200POPC   GL254722  11.879  29.407   5.904
 4200POPC   C1A54723  12.105  29.299   6.380
 4200POPC   D2A54724  11.909  28.984   6.631
 4200POPC   C3A54725  12.109  28.962   7.028
 4200POPC   C4A54726  12.357  29.174   7.322
 4200POPC   C1B54727  11.580  29.234   6.190
 4200POPC   C2B54728  11.475  29.384   6.576
 4200POPC   C3B54729  11.749  29.408   6.912
 4200POPC   C4B54730  11.753  29.244   7.305
 4201POPC   NC354731  39.012  28.519   5.215
 4201POPC   PO454732  39.509  28.131   5.269
 4201POPC   GL154733  39.343  28.290   5.678
 4201POPC   GL254734  39.074  28.568   5.734
 4201POPC   C1A54735  39.324  28.361   6.134
 4201POPC   D2A54736  39.477  28.521   6.508
 4201POPC   C3A54737  39.483  28.304   6.906
 4201POPC   C4A54738  39.319  28.473   7.291
 4201POPC   C1B54739  38.888  28.633   6.164
 4201POPC   C2B54740  38.917  28.342   6.457
 4201POPC   C3B54741  38.975  28.366   6.858
 4201POPC   C4B54742  38.742  28.537   7.132
 4202POPC   NC354743  13.857  26.445   5.085
 4202POPC   PO454744  13.543  25.915   5.391
 4202POPC   GL154745  13.574  26.000   5.838
 4202POPC   GL254746  13.522  26.350   5.835
 4202POPC   C1A54747  13.599  25.793   6.281
 4202POPC   D2A54748  13.357  25.821   6.695
 4202POPC   C3A54749  13.467  25.942   7.147
 4202POPC   C4A54750  13.418  25.698   7.522
 4202POPC   C1B54751  13.659  26.313   6.290
 4202POPC   C2B54752  13.607  26.381   6.748
 4202POPC   C3B54753  13.461  26.457   7.181
 4202POPC   C4B54754  13.633  26.314   7.607
 4203POPC   NC354755   3.842   3.846   5.375
 4203POPC   PO454756   3.119   3.708   5.277
 4203POPC   GL154757   3.256   3.744   5.773
 4203POPC   GL254758   3.604   3.803   5.875
 4203POPC   C1A54759   3.318   3.459   6.151
 4203POPC   D2A54760   3.219   3.277   6.583
 4203POPC   C3A54761   3.374   3.520   6.904
 4203POPC   C4A54762   3.370   3.705   7.329
 4203POPC   C1B54763   3.358   3.958   6.249
 4203POPC   C2B54764   3.466   4.013   6.676
 4203POPC   C3B54765   3.733   3.860   7.014
 4203POPC   C4B54766   3.752   4.048   7.440
 4204POPC   NC354767  34.617  10.418   5.237
 4204POPC   PO454768  34.149  10.713   5.475
 4204POPC   GL154769  34.458  10.469   5.759
 4204POPC   GL254770  34.306  10.666   5.994
 4204POPC   C1A54771  34.688  10.359   6.204
 4204POPC   D2A54772  34.702  10.359   6.708
 4204POPC   C3A54773  34.729  10.342   7.188
 4204POPC   C4A54774  34.869  10.761   7.333
 4204POPC   C1B54775  34.214  10.847   6.359
 4204POPC   C2B54776  34.490  10.896   6.665
 4204POPC   C3B54777  34.455  10.739   7.026
 4204POPC   C4B54778  34.167  10.518   7.209
 4205POPC   NC354779  43.739   0.389   5.422
 4205POPC   PO454780  44.393   0.189   5.439
 4205POPC   GL154781  44.134   0.206   5.775
 4205POPC   GL254782  43.991   0.522   5.842
 4205POPC   C1A54783  44.222   0.267   6.211
 4205POPC   D2A54784  43.992   0.562   6.475
 4205POPC   C3A54785  44.150   0.600   6.903
 4205POPC   C4A54786  44.084   0.497   7.332
 4205POPC   C1B54787  43.578   0.597   6.047
 4205POPC   C2B54788  43.461   0.529   6.488
 4205POPC   C3B54789  43.659   0.457   6.892
 4205POPC   C4B54790  43.623   0.681   7.270
 4206POPC   NC354791  16.178  33.603   5.361
 4206POPC   PO454792  16.095  34.260   5.494
 4206POPC   GL154793  16.047  33.896   5.785
 4206POPC   GL254794  15.730  33.678   5.694
 4206POPC   C1A54795  16.165  33.806   6.228
 4206POPC   D2A54796  16.082  33.705   6.649
 4206POPC   C3A54797  16.312  33.863   6.958
 4206POPC   C4A54798  16.064  33.889   7.241
 4206POPC   C1B54799  15.649  33.877   6.131
 4206POPC   C2B54800  15.690  34.049   6.545
 4206POPC   C3B54801  15.669  33.845   6.931
 4206POPC   C4B54802  15.536  33.853   7.335
 4207POPC   NC354803  14.933  41.490   5.378
 4207POPC   PO454804  14.318  41.289   5.293
 4207POPC   GL154805  14.486  41.456   5.731
 4207POPC   GL254806  14.780  41.685   5.836
 4207POPC   C1A54807  14.404  41.354   6.201
 4207POPC   D2A54808  14.140  41.327   6.602
 4207POPC   C3A54809  14.314  41.343   7.017
 4207POPC   C4A54810  14.103  41.501   7.379
 4207POPC   C1B54811  14.687  41.779   6.315
 4207POPC   C2B54812  14.387  41.784   6.675
 4207POPC   C3B54813  14.419  41.848   7.161
 4207POPC   C4B54814  14.741  41.829   7.509
 4208POPC   NC354815  13.650  30.468   5.416
 4208POPC   PO454816  13.839  31.025   5.156
 4208POPC   GL154817  13.731  30.984   5.667
 4208POPC   GL254818  13.498  30.747   5.809
 4208POPC   C1A54819  13.872  30.903   6.133
 4208POPC   D2A54820  13.549  30.695   6.438
 4208POPC   C3A54821  13.600  30.523   6.847
 4208POPC   C4A54822  13.882  30.620   7.180
 4208POPC   C1B54823  13.420  31.067   6.099
 4208POPC   C2B54824  13.310  31.144   6.579
 4208POPC   C3B54825  13.334  30.919   7.007
 4208POPC   C4B54826  13.587  30.928   7.444
 4209POPC   NC354827  42.703  10.522   5.493
 4209POPC   PO454828  42.098  10.326   5.621
 4209POPC   GL154829  42.264  10.632   5.889
 4209POPC   GL254830  42.632  10.642   5.963
 4209POPC   C1A54831  42.271  10.711   6.313
 4209POPC   D2A54832  42.311  10.968   6.653
 4209POPC   C3A54833  42.325  10.788   7.095
 4209POPC   C4A54834  42.076  10.474   7.316
 4209POPC   C1B54835  42.690  10.399   6.319
 4209POPC   C2B54836  42.572  10.511   6.733
 4209POPC   C3B54837  42.645  10.382   7.145
 4209POPC   C4B54838  42.539  10.547   7.537
 4210POPC   NC354839   1.241   2.984   5.386
 4210POPC   PO454840   1.351   2.316   5.352
 4210POPC   GL154841   1.206   2.550   5.725
 4210POPC   GL254842   1.406   2.824   5.840
 4210POPC   C1A54843   1.217   2.458   6.177
 4210POPC   D2A54844   1.277   2.721   6.537
 4210POPC   C3A54845   1.281   2.663   6.968
 4210POPC   C4A54846   1.670   2.761   7.110
 4210POPC   C1B54847   1.087   2.948   6.097
 4210POPC   C2B54848   1.065   3.179   6.466
 4210POPC   C3B54849   0.974   3.095   6.891
 4210POPC   C4B54850   0.799   2.796   7.154
 4211POPC   NC354851   8.029   9.452   5.572
 4211POPC   PO454852   8.412   8.842   5.446
 4211POPC   GL154853   8.189   8.995   5.798
 4211POPC   GL254854   8.251   8.719   5.986
 4211POPC   C1A54855   8.006   9.126   6.222
 4211POPC   D2A54856   7.848   9.059   6.661
 4211POPC   C3A54857   8.036   9.263   7.026
 4211POPC   C4A54858   8.257   9.148   7.410
 4211POPC   C1B54859   7.971   8.600   6.323
 4211POPC   C2B54860   8.031   8.570   6.755
 4211POPC   C3B54861   7.960   8.751   7.119
 4211POPC   C4B54862   8.029   8.742   7.568
 4212POPC   NC354863   3.931  37.653   5.433
 4212POPC   PO454864   3.354  37.731   5.270
 4212POPC   GL154865   3.413  37.586   5.708
 4212POPC   GL254866   3.737  37.655   5.887
 4212POPC   C1A54867   3.333  37.738   6.149
 4212POPC   D2A54868   3.631  37.772   6.478
 4212POPC   C3A54869   3.515  37.626   6.864
 4212POPC   C4A54870   3.498  37.701   7.262
 4212POPC   C1B54871   4.070  37.388   6.064
 4212POPC   C2B54872   4.129  37.241   6.455
 4212POPC   C3B54873   3.949  37.328   6.814
 4212POPC   C4B54874   3.896  37.367   7.203
 4213POPC   NC354875  43.797   4.105   5.277
 4213POPC   PO454876  44.033   4.791   5.307
 4213POPC   GL154877  43.935   4.520   5.704
 4213POPC   GL254878  44.001   4.146   5.724
 4213POPC   C1A54879  43.744   4.378   6.103
 4213POPC   D2A54880  43.609   4.161   6.466
 4213POPC   C3A54881  43.756   4.168   6.875
 4213POPC   C4A54882  43.625   4.122   7.309
 4213POPC   C1B54883  44.199   4.128   6.098
 4213POPC   C2B54884  44.114   4.255   6.480
 4213POPC   C3B54885  44.225   4.397   6.863
 4213POPC   C4B54886  44.141   4.204   7.266
 4214POPC   NC354887  40.354  26.886   5.161
 4214POPC   PO454888  39.791  26.639   5.409
 4214POPC   GL154889  39.925  26.861   5.813
 4214POPC   GL254890  39.916  27.188   5.917
 4214POPC   C1A54891  40.145  26.871   6.255
 4214POPC   D2A54892  40.136  26.648   6.683
 4214POPC   C3A54893  39.955  26.808   7.081
 4214POPC   C4A54894  40.082  26.866   7.532
 4214POPC   C1B54895  39.655  27.040   6.247
 4214POPC   C2B54896  39.760  27.038   6.665
 4214POPC   C3B54897  39.589  27.197   7.045
 4214POPC   C4B54898  39.646  27.170   7.497
 4215POPC   NC354899  30.551   9.959   5.489
 4215POPC   PO454900  31.154   9.601   5.334
 4215POPC   GL154901  30.899   9.665   5.749
 4215POPC   GL254902  30.555   9.507   5.834
 4215POPC   C1A54903  30.933   9.662   6.205
 4215POPC   D2A54904  30.763   9.732   6.630
 4215POPC   C3A54905  31.059   9.606   6.926
 4215POPC   C4A54906  30.944   9.638   7.325
 4215POPC   C1B54907  30.435   9.736   6.244
 4215POPC   C2B54908  30.244   9.859   6.667
 4215POPC   C3B54909  30.455   9.718   7.058
 4215POPC   C4B54910  30.474   9.463   7.421
 4216POPC   NC354911   3.919  20.126   5.521
 4216POPC   PO454912   4.492  19.745   5.383
 4216POPC   GL154913   4.525  19.725   5.836
 4216POPC   GL254914   4.169  19.797   5.882
 4216POPC   C1A54915   4.462  19.837   6.303
 4216POPC   D2A54916   4.156  19.764   6.650
 4216POPC   C3A54917   4.279  19.793   7.083
 4216POPC   C4A54918   4.244  20.040   7.484
 4216POPC   C1B54919   3.987  19.504   6.186
 4216POPC   C2B54920   4.069  19.245   6.526
 4216POPC   C3B54921   4.069  19.327   6.939
 4216POPC   C4B54922   3.830  19.562   7.164
 4217POPC   NC354923  15.753  14.124   5.497
 4217POPC   PO454924  16.241  14.394   5.479
 4217POPC   GL154925  16.064  14.500   5.898
 4217POPC   GL254926  15.706  14.471   5.888
 4217POPC   C1A54927  15.935  14.619   6.345
 4217POPC   D2A54928  15.643  14.499   6.705
 4217POPC   C3A54929  15.849  14.503   7.121
 4217POPC   C4A54930  16.060  14.821   7.344
 4217POPC   C1B54931  15.707  14.164   6.236
 4217POPC   C2B54932  15.564  13.988   6.650
 4217POPC   C3B54933  15.519  14.124   7.071
 4217POPC   C4B54934  15.749  14.119   7.482
 4218POPC   NC354935  25.207  44.924   5.488
 4218POPC   PO454936  25.484   0.565   5.256
 4218POPC   GL154937  25.475   0.351   5.679
 4218POPC   GL254938  25.097   0.319   5.799
 4218POPC   C1A54939  25.469   0.387   6.152
 4218POPC   D2A54940  25.131   0.527   6.442
 4218POPC   C3A54941  25.191   0.366   6.848
 4218POPC   C4A54942  25.373   0.610   7.164
 4218POPC   C1B54943  25.006   0.083   6.183
 4218POPC   C2B54944  24.782   0.156   6.593
 4218POPC   C3B54945  24.844   0.026   7.033
 4218POPC   C4B54946  25.160   0.161   7.357
 4219POPC   NC354947  42.366  24.310   5.008
 4219POPC   PO454948  42.115  23.744   5.349
 4219POPC   GL154949  42.295  23.777   5.784
 4219POPC   GL254950  42.571  24.018   5.856
 4219POPC   C1A54951  42.112  23.871   6.192
 4219POPC   D2A54952  42.103  23.673   6.618
 4219POPC   C3A54953  42.229  23.709   7.062
 4219POPC   C4A54954  42.180  23.718   7.504
 4219POPC   C1B54955  42.623  23.910   6.332
 4219POPC   C2B54956  42.616  23.619   6.714
 4219POPC   C3B54957  42.764  23.548   7.146
 4219POPC   C4B54958  42.655  23.577   7.614
 4220POPC   NC354959   6.871  38.510   5.439
 4220POPC   PO454960   6.252  38.370   5.486
 4220POPC   GL154961   6.483  38.241   5.863
 4220POPC   GL254962   6.837  38.127   5.814
 4220POPC   C1A54963   6.526  38.391   6.301
 4220POPC   D2A54964   6.558  38.229   6.718
 4220POPC   C3A54965   6.544  38.525   7.070
 4220POPC   C4A54966   6.665  38.880   7.342
 4220POPC   C1B54967   6.946  38.122   6.253
 4220POPC   C2B54968   7.035  37.979   6.685
 4220POPC   C3B54969   6.901  38.140   7.099
 4220POPC   C4B54970   7.012  38.032   7.518
 4221POPC   NC354971  36.536  29.825   5.437
 4221POPC   PO454972  35.893  30.078   5.366
 4221POPC   GL154973  36.147  30.112   5.781
 4221POPC   GL254974  36.388  29.873   5.905
 4221POPC   C1A54975  36.162  30.117   6.272
 4221POPC   D2A54976  36.084  30.369   6.658
 4221POPC   C3A54977  36.017  30.158   7.058
 4221POPC   C4A54978  35.720  29.875   7.259
 4221POPC   C1B54979  36.449  29.682   6.301
 4221POPC   C2B54980  36.346  29.879   6.703
 4221POPC   C3B54981  36.255  29.714   7.152
 4221POPC   C4B54982  36.261  29.433   7.553
 4222POPC   NC354983  39.048  34.196   5.504
 4222POPC   PO454984  39.432  33.710   5.461
 4222POPC   GL154985  39.315  33.510   5.801
 4222POPC   GL254986  39.058  33.740   5.858
 4222POPC   C1A54987  39.285  33.462   6.221
 4222POPC   D2A54988  39.282  33.791   6.484
 4222POPC   C3A54989  39.328  33.627   6.879
 4222POPC   C4A54990  39.296  33.553   7.287
 4222POPC   C1B54991  39.118  34.121   6.129
 4222POPC   C2B54992  39.180  34.305   6.539
 4222POPC   C3B54993  39.137  34.113   6.896
 4222POPC   C4B54994  39.402  34.045   7.207
 4223POPC   NC354995  34.042  41.140   5.357
 4223POPC   PO454996  33.786  40.522   5.497
 4223POPC   GL154997  33.819  40.883   5.779
 4223POPC   GL254998  33.563  41.151   5.699
 4223POPC   C1A54999  34.041  40.785   6.155
 4223POPC   D2A55000  34.014  40.631   6.577
 4223POPC   C3A55001  34.144  40.932   6.870
 4223POPC   C4A55002  33.980  40.907   7.280
 4223POPC   C1B55003  33.400  41.076   6.103
 4223POPC   C2B55004  33.603  40.882   6.401
 4223POPC   C3B55005  33.621  40.966   6.830
 4223POPC   C4B55006  33.378  40.921   7.207
 4224POPC   NC355007  27.110   5.068   5.402
 4224POPC   PO455008  26.519   4.769   5.587
 4224POPC   GL155009  26.771   4.951   5.911
 4224POPC   GL255010  26.895   5.260   5.976
 4224POPC   C1A55011  26.811   4.877   6.339
 4224POPC   D2A55012  26.893   5.053   6.728
 4224POPC   C3A55013  26.659   4.892   7.061
 4224POPC   C4A55014  26.665   5.029   7.536
 4224POPC   C1B55015  27.068   5.529   6.316
 4224POPC   C2B55016  27.023   5.556   6.775
 4224POPC   C3B55017  26.869   5.353   7.160
 4224POPC   C4B55018  27.090   5.330   7.567
 4225POPC   NC355019  15.322  36.289   5.400
 4225POPC   PO455020  14.756  35.992   5.637
 4225POPC   GL155021  15.114  36.088   5.813
 4225POPC   GL255022  15.402  35.866   5.715
 4225POPC   C1A55023  15.252  36.395   6.099
 4225POPC   D2A55024  15.427  36.505   6.506
 4225POPC   C3A55025  15.220  36.266   6.812
 4225POPC   C4A55026  14.931  36.339   7.113
 4225POPC   C1B55027  15.294  35.753   6.131
 4225POPC   C2B55028  15.434  35.914   6.503
 4225POPC   C3B55029  15.401  35.785   6.917
 4225POPC   C4B55030  15.345  36.022   7.241
 4226POPC   NC355031  39.619  17.444   5.121
 4226POPC   PO455032  39.265  17.922   5.510
 4226POPC   GL155033  39.360  17.704   5.893
 4226POPC   GL255034  39.131  17.411   5.995
 4226POPC   C1A55035  39.347  17.757   6.325
 4226POPC   D2A55036  39.143  17.559   6.663
 4226POPC   C3A55037  39.287  17.743   7.028
 4226POPC   C4A55038  39.161  17.745   7.432
 4226POPC   C1B55039  39.485  17.264   6.237
 4226POPC   C2B55040  39.602  17.325   6.642
 4226POPC   C3B55041  39.449  17.251   7.038
 4226POPC   C4B55042  39.604  17.476   7.387
 4227POPC   NC355043  32.105  17.840   5.142
 4227POPC   PO455044  32.462  17.260   5.357
 4227POPC   GL155045  32.257  17.569   5.647
 4227POPC   GL255046  32.131  17.335   5.930
 4227POPC   C1A55047  32.375  17.744   6.062
 4227POPC   D2A55048  32.575  17.682   6.455
 4227POPC   C3A55049  32.278  17.722   6.774
 4227POPC   C4A55050  32.127  17.710   7.179
 4227POPC   C1B55051  32.423  17.225   6.260
 4227POPC   C2B55052  32.490  17.222   6.700
 4227POPC   C3B55053  32.138  17.256   6.964
 4227POPC   C4B55054  31.960  17.218   7.385
 4228POPC   NC355055  11.548  23.583   5.705
 4228POPC   PO455056  11.053  23.986   5.469
 4228POPC   GL155057  11.142  23.858   5.847
 4228POPC   GL255058  11.043  23.503   5.833
 4228POPC   C1A55059  11.191  23.802   6.288
 4228POPC   D2A55060  11.403  23.670   6.630
 4228POPC   C3A55061  11.154  23.616   7.010
 4228POPC   C4A55062  11.055  23.943   7.328
 4228POPC   C1B55063  11.189  23.285   6.222
 4228POPC   C2B55064  11.260  23.185   6.669
 4228POPC   C3B55065  11.601  23.325   6.962
 4228POPC   C4B55066  11.668  23.188   7.364
 4229POPC   NC355067  40.864  29.831   5.475
 4229POPC   PO455068  40.349  29.511   5.535
 4229POPC   GL155069  40.520  29.852   5.843
 4229POPC   GL255070  40.832  30.122   5.876
 4229POPC   C1A55071  40.662  29.833   6.263
 4229POPC   D2A55072  40.971  29.700   6.552
 4229POPC   C3A55073  40.800  29.924   6.869
 4229POPC   C4A55074  40.869  29.832   7.239
 4229POPC   C1B55075  41.082  30.131   6.290
 4229POPC   C2B55076  41.114  30.296   6.728
 4229POPC   C3B55077  41.077  30.295   7.214
 4229POPC   C4B55078  41.204  30.233   7.671
 4230POPC   NC355079  38.370  14.022   5.587
 4230POPC   PO455080  38.278  13.439   5.200
 4230POPC   GL155081  38.139  13.594   5.660
 4230POPC   GL255082  38.463  13.612   5.855
 4230POPC   C1A55083  38.050  13.657   6.134
 4230POPC   D2A55084  38.244  13.547   6.537
 4230POPC   C3A55085  38.223  13.845   6.875
 4230POPC   C4A55086  38.011  13.815   7.273
 4230POPC   C1B55087  38.661  13.510   6.219
 4230POPC   C2B55088  38.801  13.568   6.629
 4230POPC   C3B55089  38.681  13.634   7.050
 4230POPC   C4B55090  38.945  13.738   7.416
 4231POPC   NC355091   1.423  29.316   5.381
 4231POPC   PO455092   0.882  28.990   5.508
 4231POPC   GL155093   1.184  29.143   5.849
 4231POPC   GL255094   1.360  29.502   5.856
 4231POPC   C1A55095   1.235  28.983   6.298
 4231POPC   D2A55096   1.152  28.799   6.712
 4231POPC   C3A55097   1.295  29.005   7.132
 4231POPC   C4A55098   1.096  28.981   7.548
 4231POPC   C1B55099   1.084  29.474   6.235
 4231POPC   C2B55100   1.160  29.376   6.671
 4231POPC   C3B55101   1.352  29.517   7.048
 4231POPC   C4B55102   1.340  29.448   7.497
 4232POPC   NC355103   8.489  13.769   5.062
 4232POPC   PO455104   8.131  13.396   5.389
 4232POPC   GL155105   8.281  13.444   5.838
 4232POPC   GL255106   8.009  13.688   5.916
 4232POPC   C1A55107   8.354  13.627   6.290
 4232POPC   D2A55108   8.125  13.618   6.716
 4232POPC   C3A55109   8.464  13.667   7.054
 4232POPC   C4A55110   8.496  13.782   7.513
 4232POPC   C1B55111   7.896  13.404   6.262
 4232POPC   C2B55112   7.627  13.382   6.637
 4232POPC   C3B55113   7.725  13.482   7.072
 4232POPC   C4B55114   7.987  13.847   7.188
 4233POPC   NC355115  15.610  27.017   5.405
 4233POPC   PO455116  15.165  26.515   5.437
 4233POPC   GL155117  15.328  26.732   5.769
 4233POPC   GL255118  15.181  27.071   5.752
 4233POPC   C1A55119  15.280  26.722   6.216
 4233POPC   D2A55120  15.158  26.881   6.609
 4233POPC   C3A55121  15.389  26.752   6.970
 4233POPC   C4A55122  15.217  26.694   7.371
 4233POPC   C1B55123  15.421  27.215   6.114
 4233POPC   C2B55124  15.442  27.319   6.547
 4233POPC   C3B55125  15.239  27.265   6.927
 4233POPC   C4B55126  15.392  27.155   7.303
 4234POPC   NC355127  31.908  11.468   5.350
 4234POPC   PO455128  31.336  11.141   5.533
 4234POPC   GL155129  31.403  11.240   5.901
 4234POPC   GL255130  31.729  11.412   5.843
 4234POPC   C1A55131  31.604  11.121   6.251
 4234POPC   D2A55132  31.745  11.311   6.563
 4234POPC   C3A55133  31.602  11.147   6.926
 4234POPC   C4A55134  31.390  11.046   7.292
 4234POPC   C1B55135  31.902  11.686   6.164
 4234POPC   C2B55136  31.930  11.783   6.590
 4234POPC   C3B55137  31.624  11.683   6.900
 4234POPC   C4B55138  31.681  11.474   7.294
 4235POPC   NC355139  43.118   9.624   5.346
 4235POPC   PO455140  43.432  10.154   5.629
 4235POPC   GL155141  43.247   9.820   5.851
 4235POPC   GL255142  42.905   9.745   5.843
 4235POPC   C1A55143  43.245   9.601   6.249
 4235POPC   D2A55144  43.114   9.667   6.683
 4235POPC   C3A55145  43.347   9.816   7.038
 4235POPC   C4A55146  43.408   9.439   7.219
 4235POPC   C1B55147  42.828   9.901   6.297
 4235POPC   C2B55148  42.769  10.040   6.760
 4235POPC   C3B55149  42.859   9.919   7.215
 4235POPC   C4B55150  42.868  10.175   7.626
 4236POPC   NC355151  31.741  31.421   5.373
 4236POPC   PO455152  31.225  31.827   5.364
 4236POPC   GL155153  31.425  31.684   5.718
 4236POPC   GL255154  31.340  31.338   5.690
 4236POPC   C1A55155  31.343  31.748   6.166
 4236POPC   D2A55156  31.532  31.564   6.532
 4236POPC   C3A55157  31.364  31.594   6.938
 4236POPC   C4A55158  31.485  31.544   7.376
 4236POPC   C1B55159  31.490  31.257   6.093
 4236POPC   C2B55160  31.282  31.112   6.451
 4236POPC   C3B55161  31.391  31.090   6.845
 4236POPC   C4B55162  31.217  31.142   7.214
 4237POPC   NC355163  33.559  40.107   5.363
 4237POPC   PO455164  34.195  39.835   5.378
 4237POPC   GL155165  33.881  39.990   5.766
 4237POPC   GL255166  33.575  40.239   5.857
 4237POPC   C1A55167  33.658  39.818   6.167
 4237POPC   D2A55168  33.621  39.955   6.623
 4237POPC   C3A55169  33.972  40.134   6.864
 4237POPC   C4A55170  33.995  39.907   7.257
 4237POPC   C1B55171  33.703  40.342   6.267
 4237POPC   C2B55172  33.554  40.461   6.669
 4237POPC   C3B55173  33.689  40.527   7.057
 4237POPC   C4B55174  33.625  40.205   7.260
 4238POPC   NC355175  42.114  11.465   5.436
 4238POPC   PO455176  42.430  10.897   5.474
 4238POPC   GL155177  42.504  11.119   5.855
 4238POPC   GL255178  42.433  11.470   5.855
 4238POPC   C1A55179  42.663  11.047   6.274
 4238POPC   D2A55180  42.836  11.163   6.670
 4238POPC   C3A55181  42.511  11.266   6.999
 4238POPC   C4A55182  42.357  11.602   7.200
 4238POPC   C1B55183  42.213  11.323   6.240
 4238POPC   C2B55184  42.172  11.496   6.653
 4238POPC   C3B55185  41.906  11.615   6.973
 4238POPC   C4B55186  41.876  11.449   7.384
 4239POPC   NC355187  23.915  25.680   5.254
 4239POPC   PO455188  23.445  25.266   5.255
 4239POPC   GL155189  23.549  25.467   5.689
 4239POPC   GL255190  23.851  25.691   5.768
 4239POPC   C1A55191  23.534  25.523   6.158
 4239POPC   D2A55192  23.414  25.221   6.492
 4239POPC   C3A55193  23.284  25.266   6.919
 4239POPC   C4A55194  23.442  25.340   7.349
 4239POPC   C1B55195  23.939  25.892   6.187
 4239POPC   C2B55196  23.944  25.700   6.619
 4239POPC   C3B55197  23.759  25.688   7.048
 4239POPC   C4B55198  23.923  25.505   7.441
 4240POPC   NC355199  12.957  10.849   5.408
 4240POPC   PO455200  12.789  10.214   5.587
 4240POPC   GL155201  13.061  10.496   5.778
 4240POPC   GL255202  12.857  10.791   5.895
 4240POPC   C1A55203  13.152  10.487   6.202
 4240POPC   D2A55204  13.009  10.728   6.548
 4240POPC   C3A55205  13.109  10.603   6.927
 4240POPC   C4A55206  12.854  10.355   7.136
 4240POPC   C1B55207  12.636  10.531   6.196
 4240POPC   C2B55208  12.501  10.544   6.634
 4240POPC   C3B55209  12.622  10.807   6.957
 4240POPC   C4B55210  12.416  10.734   7.322
 4241POPC   NC355211  39.660  35.701   5.448
 4241POPC   PO455212  40.028  35.277   5.208
 4241POPC   GL155213  40.163  35.200   5.653
 4241POPC   GL255214  39.841  35.337   5.796
 4241POPC   C1A55215  40.165  35.178   6.142
 4241POPC   D2A55216  39.908  35.106   6.500
 4241POPC   C3A55217  40.038  35.223   6.880
 4241POPC   C4A55218  39.905  35.095   7.307
 4241POPC   C1B55219  39.669  35.478   6.196
 4241POPC   C2B55220  39.714  35.648   6.612
 4241POPC   C3B55221  39.624  35.464   7.034
 4241POPC   C4B55222  39.759  35.553   7.477
 4242POPC   NC355223  22.831  30.967   5.099
 4242POPC   PO455224  22.795  31.554   5.523
 4242POPC   GL155225  22.978  31.465   5.877
 4242POPC   GL255226  23.201  31.223   5.713
 4242POPC   C1A55227  23.005  31.585   6.319
 4242POPC   D2A55228  22.861  31.424   6.725
 4242POPC   C3A55229  22.946  31.702   7.050
 4242POPC   C4A55230  23.124  31.637   7.435
 4242POPC   C1B55231  23.208  31.124   6.165
 4242POPC   C2B55232  23.311  31.253   6.574
 4242POPC   C3B55233  23.283  31.317   7.026
 4242POPC   C4B55234  23.198  31.142   7.438
 4243POPC   NC355235   0.280  30.805   5.396
 4243POPC   PO455236   0.852  30.574   5.284
 4243POPC   GL155237   0.565  30.453   5.655
 4243POPC   GL255238   0.381  30.776   5.875
 4243POPC   C1A55239   0.673  30.447   6.091
 4243POPC   D2A55240   0.310  30.491   6.413
 4243POPC   C3A55241   0.389  30.365   6.864
 4243POPC   C4A55242   0.335  30.539   7.276
 4243POPC   C1B55243   0.574  30.941   6.257
 4243POPC   C2B55244   0.581  30.811   6.695
 4243POPC   C3B55245   0.576  30.966   7.084
 4243POPC   C4B55246   0.672  31.280   7.333
 4244POPC   NC355247  30.818  15.208   5.405
 4244POPC   PO455248  30.270  15.177   5.459
 4244POPC   GL155249  30.580  15.001   5.806
 4244POPC   GL255250  30.513  14.703   6.005
 4244POPC   C1A55251  30.913  14.987   6.156
 4244POPC   D2A55252  30.906  15.134   6.610
 4244POPC   C3A55253  30.816  15.049   7.052
 4244POPC   C4A55254  31.042  15.276   7.379
 4244POPC   C1B55255  30.439  15.037   6.337
 4244POPC   C2B55256  30.401  15.186   6.779
 4244POPC   C3B55257  30.290  15.126   7.216
 4244POPC   C4B55258  30.181  15.215   7.644
 4245POPC   NC355259  27.325  27.297   5.124
 4245POPC   PO455260  27.759  27.763   5.437
 4245POPC   GL155261  27.750  27.533   5.821
 4245POPC   GL255262  28.026  27.715   5.936
 4245POPC   C1A55263  27.651  27.529   6.272
 4245POPC   D2A55264  27.344  27.561   6.604
 4245POPC   C3A55265  27.444  27.561   7.040
 4245POPC   C4A55266  27.568  27.727   7.438
 4245POPC   C1B55267  27.908  27.989   6.297
 4245POPC   C2B55268  27.719  27.914   6.709
 4245POPC   C3B55269  27.932  27.728   7.072
 4245POPC   C4B55270  28.095  27.809   7.487
 4246POPC   NC355271  39.134  39.929   5.190
 4246POPC   PO455272  39.747  39.770   5.381
 4246POPC   GL155273  39.417  39.913   5.693
 4246POPC   GL255274  39.414  40.290   5.731
 4246POPC   C1A55275  39.427  39.923   6.160
 4246POPC   D2A55276  39.357  39.687   6.538
 4246POPC   C3A55277  39.477  39.842   6.933
 4246POPC   C4A55278  39.304  39.888   7.302
 4246POPC   C1B55279  39.468  40.435   6.162
 4246POPC   C2B55280  39.381  40.238   6.567
 4246POPC   C3B55281  39.304  40.337   6.985
 4246POPC   C4B55282  39.521  40.332   7.392
 4247POPC   NC355283  30.806  37.202   5.512
 4247POPC   PO455284  30.173  37.091   5.355
 4247POPC   GL155285  30.384  36.994   5.765
 4247POPC   GL255286  30.458  36.634   5.786
 4247POPC   C1A55287  30.592  37.084   6.209
 4247POPC   D2A55288  30.903  36.865   6.534
 4247POPC   C3A55289  30.892  37.035   6.959
 4247POPC   C4A55290  30.791  37.207   7.355
 4247POPC   C1B55291  30.617  36.589   6.172
 4247POPC   C2B55292  30.423  36.733   6.556
 4247POPC   C3B55293  30.559  36.641   6.943
 4247POPC   C4B55294  30.744  36.699   7.320
 4248POPC   NC355295  42.433   9.328   5.337
 4248POPC   PO455296  42.193   8.720   5.470
 4248POPC   GL155297  42.345   9.003   5.755
 4248POPC   GL255298  42.622   8.763   5.838
 4248POPC   C1A55299  42.167   9.183   6.127
 4248POPC   D2A55300  42.384   9.249   6.521
 4248POPC   C3A55301  42.126   9.420   6.865
 4248POPC   C4A55302  42.074   9.306   7.309
 4248POPC   C1B55303  42.442   8.774   6.268
 4248POPC   C2B55304  42.512   8.803   6.719
 4248POPC   C3B55305  42.515   9.023   7.119
 4248POPC   C4B55306  42.639   8.808   7.495
 4249POPC   NC355307  12.326  10.199   5.508
 4249POPC   PO455308  12.489  10.847   5.499
 4249POPC   GL155309  12.248  10.579   5.840
 4249POPC   GL255310  11.854  10.485   5.846
 4249POPC   C1A55311  12.131  10.482   6.270
 4249POPC   D2A55312  11.884  10.684   6.572
 4249POPC   C3A55313  12.048  10.593   6.957
 4249POPC   C4A55314  11.914  10.803   7.308
 4249POPC   C1B55315  11.701  10.213   6.227
 4249POPC   C2B55316  11.907  10.178   6.676
 4249POPC   C3B55317  11.801  10.198   7.130
 4249POPC   C4B55318  11.614  10.428   7.465
 4250POPC   NC355319  20.068   6.544   5.258
 4250POPC   PO455320  20.636   6.216   5.521
 4250POPC   GL155321  20.690   6.324   5.915
 4250POPC   GL255322  20.530   6.654   5.815
 4250POPC   C1A55323  20.525   6.393   6.323
 4250POPC   D2A55324  20.793   6.514   6.645
 4250POPC   C3A55325  20.726   6.320   7.027
 4250POPC   C4A55326  20.388   6.377   7.304
 4250POPC   C1B55327  20.684   6.851   6.177
 4250POPC   C2B55328  20.508   6.927   6.567
 4250POPC   C3B55329  20.753   6.933   6.942
 4250POPC   C4B55330  20.769   6.738   7.318
 4251POPC   NC355331  17.937  41.834   5.299
 4251POPC   PO455332  18.473  41.504   5.458
 4251POPC   GL155333  18.237  41.630   5.810
 4251POPC   GL255334  17.923  41.509   5.725
 4251POPC   C1A55335  18.442  41.603   6.204
 4251POPC   D2A55336  18.325  41.416   6.565
 4251POPC   C3A55337  18.481  41.523   6.972
 4251POPC   C4A55338  18.485  41.356   7.415
 4251POPC   C1B55339  17.930  41.430   6.209
 4251POPC   C2B55340  17.849  41.452   6.700
 4251POPC   C3B55341  17.969  41.525   7.130
 4251POPC   C4B55342  18.148  41.723   7.506
 4252POPC   NC355343  37.421   7.317   5.313
 4252POPC   PO455344  38.093   7.352   5.274
 4252POPC   GL155345  37.873   7.198   5.675
 4252POPC   GL255346  37.592   7.390   5.769
 4252POPC   C1A55347  37.842   7.299   6.172
 4252POPC   D2A55348  37.695   7.169   6.566
 4252POPC   C3A55349  37.789   7.370   6.932
 4252POPC   C4A55350  38.078   7.188   7.184
 4252POPC   C1B55351  37.459   7.628   6.110
 4252POPC   C2B55352  37.572   7.672   6.531
 4252POPC   C3B55353  37.355   7.648   6.930
 4252POPC   C4B55354  37.380   7.586   7.364
 4253POPC   NC355355  13.184  10.003   5.502
 4253POPC   PO455356  12.554   9.879   5.231
 4253POPC   GL155357  12.516   9.801   5.744
 4253POPC   GL255358  12.472   9.480   5.858
 4253POPC   C1A55359  12.692   9.957   6.174
 4253POPC   D2A55360  12.867  10.194   6.536
 4253POPC   C3A55361  12.839   9.924   6.885
 4253POPC   C4A55362  12.722   9.902   7.307
 4253POPC   C1B55363  12.702   9.439   6.205
 4253POPC   C2B55364  12.647   9.568   6.589
 4253POPC   C3B55365  12.567   9.490   7.011
 4253POPC   C4B55366  12.973   9.450   7.191
 4254POPC   NC355367  11.329  39.240   5.150
 4254POPC   PO455368  11.973  39.207   5.305
 4254POPC   GL155369  11.566  39.340   5.605
 4254POPC   GL255370  11.401  39.053   5.773
 4254POPC   C1A55371  11.389  39.458   6.057
 4254POPC   D2A55372  11.180  39.283   6.471
 4254POPC   C3A55373  11.280  39.424   6.913
 4254POPC   C4A55374  11.637  39.403   7.205
 4254POPC   C1B55375  11.567  39.001   6.217
 4254POPC   C2B55376  11.673  39.187   6.644
 4254POPC   C3B55377  11.636  38.941   7.013
 4254POPC   C4B55378  11.206  38.975   7.164
 4255POPC   NC355379  29.687  25.189   5.429
 4255POPC   PO455380  30.273  25.453   5.332
 4255POPC   GL155381  30.214  25.405   5.766
 4255POPC   GL255382  30.051  25.095   5.798
 4255POPC   C1A55383  30.080  25.504   6.208
 4255POPC   D2A55384  30.110  25.744   6.623
 4255POPC   C3A55385  30.036  25.546   7.024
 4255POPC   C4A55386  29.732  25.386   7.333
 4255POPC   C1B55387  30.041  24.992   6.257
 4255POPC   C2B55388  30.126  25.127   6.697
 4255POPC   C3B55389  29.956  25.011   7.104
 4255POPC   C4B55390  29.607  24.878   7.382
 4256POPC   NC355391  13.321  34.670   5.248
 4256POPC   PO455392  13.930  34.367   5.355
 4256POPC   GL155393  13.775  34.559   5.706
 4256POPC   GL255394  14.023  34.719   5.905
 4256POPC   C1A55395  13.563  34.597   6.113
 4256POPC   D2A55396  13.662  34.787   6.516
 4256POPC   C3A55397  13.524  34.669   6.910
 4256POPC   C4A55398  13.451  34.545   7.314
 4256POPC   C1B55399  14.024  34.303   6.101
 4256POPC   C2B55400  14.119  34.192   6.524
 4256POPC   C3B55401  14.056  34.505   6.849
 4256POPC   C4B55402  13.967  34.498   7.280
 4257POPC   NC355403  39.317  27.703   5.370
 4257POPC   PO455404  39.850  27.319   5.430
 4257POPC   GL155405  39.482  27.413   5.759
 4257POPC   GL255406  39.386  27.771   5.857
 4257POPC   C1A55407  39.246  27.361   6.161
 4257POPC   D2A55408  38.960  27.477   6.508
 4257POPC   C3A55409  39.102  27.435   6.921
 4257POPC   C4A55410  39.267  27.490   7.321
 4257POPC   C1B55411  39.273  27.862   6.262
 4257POPC   C2B55412  39.202  27.941   6.659
 4257POPC   C3B55413  39.102  27.943   7.099
 4257POPC   C4B55414  39.415  27.989   7.402
 4258POPC   NC355415  37.636  28.845   5.398
 4258POPC   PO455416  37.841  29.536   5.299
 4258POPC   GL155417  37.596  29.340   5.620
 4258POPC   GL255418  37.911  29.223   5.722
 4258POPC   C1A55419  37.544  29.152   6.051
 4258POPC   D2A55420  37.333  29.317   6.428
 4258POPC   C3A55421  37.549  29.247   6.799
 4258POPC   C4A55422  37.463  29.162   7.217
 4258POPC   C1B55423  38.010  29.394   6.150
 4258POPC   C2B55424  38.066  29.292   6.609
 4258POPC   C3B55425  37.995  29.161   7.051
 4258POPC   C4B55426  38.005  29.448   7.371
 4259POPC   NC355427   2.540  19.528   5.564
 4259POPC   PO455428   2.694  20.107   5.144
 4259POPC   GL155429   2.983  19.880   5.607
 4259POPC   GL255430   2.988  19.536   5.810
 4259POPC   C1A55431   3.083  19.923   6.108
 4259POPC   D2A55432   3.058  19.719   6.552
 4259POPC   C3A55433   2.872  19.929   6.919
 4259POPC   C4A55434   2.494  20.022   7.156
 4259POPC   C1B55435   2.688  19.593   6.213
 4259POPC   C2B55436   2.561  19.555   6.681
 4259POPC   C3B55437   2.687  19.513   7.129
 4259POPC   C4B55438   2.979  19.511   7.490
 4260POPC   NC355439  38.254  23.583   4.924
 4260POPC   PO455440  38.696  23.343   5.471
 4260POPC   GL155441  38.532  23.465   5.898
 4260POPC   GL255442  38.390  23.796   5.896
 4260POPC   C1A55443  38.503  23.468   6.384
 4260POPC   D2A55444  38.247  23.713   6.727
 4260POPC   C3A55445  38.278  23.692   7.179
 4260POPC   C4A55446  38.629  23.504   7.414
 4260POPC   C1B55447  38.761  23.851   6.149
 4260POPC   C2B55448  38.665  23.966   6.585
 4260POPC   C3B55449  38.741  23.821   6.996
 4260POPC   C4B55450  38.581  24.096   7.317
 4261POPC   NC355451  40.287  32.461   5.461
 4261POPC   PO455452  39.693  32.115   5.444
 4261POPC   GL155453  39.814  32.046   5.860
 4261POPC   GL255454  40.129  32.186   5.856
 4261POPC   C1A55455  39.884  32.213   6.294
 4261POPC   D2A55456  39.772  32.392   6.687
 4261POPC   C3A55457  39.874  32.174   7.066
 4261POPC   C4A55458  40.051  32.048   7.467
 4261POPC   C1B55459  40.343  32.426   6.171
 4261POPC   C2B55460  40.234  32.608   6.561
 4261POPC   C3B55461  40.200  32.602   6.990
 4261POPC   C4B55462  40.044  32.550   7.383
 4262POPC   NC355463  18.258  37.899   5.373
 4262POPC   PO455464  18.730  37.429   5.533
 4262POPC   GL155465  18.461  37.678   5.843
 4262POPC   GL255466  18.401  38.032   5.844
 4262POPC   C1A55467  18.398  37.581   6.271
 4262POPC   D2A55468  18.173  37.656   6.633
 4262POPC   C3A55469  18.460  37.501   6.965
 4262POPC   C4A55470  18.394  37.367   7.405
 4262POPC   C1B55471  18.314  38.083   6.303
 4262POPC   C2B55472  18.525  37.998   6.703
 4262POPC   C3B55473  18.295  37.961   7.083
 4262POPC   C4B55474  17.839  38.022   7.159
 4263POPC   NC355475  38.565  16.233   5.473
 4263POPC   PO455476  38.087  15.759   5.517
 4263POPC   GL155477  38.359  15.809   5.875
 4263POPC   GL255478  38.667  15.964   5.880
 4263POPC   C1A55479  38.329  16.045   6.258
 4263POPC   D2A55480  38.179  15.932   6.654
 4263POPC   C3A55481  38.300  16.113   7.014
 4263POPC   C4A55482  38.225  15.821   7.345
 4263POPC   C1B55483  38.850  16.054   6.272
 4263POPC   C2B55484  38.686  15.800   6.608
 4263POPC   C3B55485  38.650  15.700   7.041
 4263POPC   C4B55486  38.712  16.035   7.322
 4264POPC   NC355487  39.431  32.520   5.493
 4264POPC   PO455488  39.191  31.857   5.316
 4264POPC   GL155489  39.268  32.098   5.757
 4264POPC   GL255490  39.046  32.417   5.801
 4264POPC   C1A55491  39.396  32.329   6.163
 4264POPC   D2A55492  39.202  32.311   6.564
 4264POPC   C3A55493  39.362  32.270   6.956
 4264POPC   C4A55494  39.233  32.073   7.288
 4264POPC   C1B55495  38.900  32.656   6.155
 4264POPC   C2B55496  38.887  32.714   6.602
 4264POPC   C3B55497  39.059  32.730   7.047
 4264POPC   C4B55498  39.169  32.555   7.471
 4265POPC   NC355499  10.986  32.650   5.248
 4265POPC   PO455500  11.472  32.150   5.409
 4265POPC   GL155501  11.377  31.999   5.781
 4265POPC   GL255502  11.135  32.255   5.793
 4265POPC   C1A55503  11.462  32.192   6.185
 4265POPC   D2A55504  11.254  32.156   6.603
 4265POPC   C3A55505  11.494  32.157   6.966
 4265POPC   C4A55506  11.489  32.451   7.290
 4265POPC   C1B55507  10.967  32.337   6.212
 4265POPC   C2B55508  10.917  32.574   6.605
 4265POPC   C3B55509  10.988  32.403   7.028
 4265POPC   C4B55510  11.001  32.509   7.458
 4266POPC   NC355511   2.743  43.497   5.382
 4266POPC   PO455512   2.928  42.828   5.242
 4266POPC   GL155513   2.878  43.046   5.664
 4266POPC   GL255514   2.541  43.135   5.720
 4266POPC   C1A55515   2.900  43.349   6.036
 4266POPC   D2A55516   2.667  43.461   6.401
 4266POPC   C3A55517   2.849  43.476   6.845
 4266POPC   C4A55518   3.029  43.270   7.237
 4266POPC   C1B55519   2.693  42.910   6.133
 4266POPC   C2B55520   2.882  43.016   6.543
 4266POPC   C3B55521   2.699  42.985   6.963
 4266POPC   C4B55522   2.806  42.680   7.261
 4267POPC   NC355523  24.475   4.654   5.236
 4267POPC   PO455524  24.415   5.336   5.155
 4267POPC   GL155525  24.355   5.157   5.596
 4267POPC   GL255526  24.700   5.286   5.689
 4267POPC   C1A55527  24.139   4.942   5.996
 4267POPC   D2A55528  24.184   5.117   6.466
 4267POPC   C3A55529  24.018   5.196   6.920
 4267POPC   C4A55530  24.137   5.213   7.378
 4267POPC   C1B55531  24.583   5.156   6.098
 4267POPC   C2B55532  24.707   5.057   6.515
 4267POPC   C3B55533  24.538   5.123   6.929
 4267POPC   C4B55534  24.455   4.836   7.271
 4268POPC   NC355535  40.025  15.601   5.309
 4268POPC   PO455536  39.997  16.178   5.381
 4268POPC   GL155537  40.141  16.011   5.767
 4268POPC   GL255538  40.009  15.679   5.809
 4268POPC   C1A55539  40.028  16.098   6.189
 4268POPC   D2A55540  39.881  16.412   6.495
 4268POPC   C3A55541  39.881  16.284   6.923
 4268POPC   C4A55542  40.036  15.882   7.071
 4268POPC   C1B55543  39.818  15.623   6.200
 4268POPC   C2B55544  39.741  15.906   6.572
 4268POPC   C3B55545  39.543  15.829   6.946
 4268POPC   C4B55546  39.647  15.593   7.306
 4269POPC   NC355547  11.969  32.486   5.170
 4269POPC   PO455548  12.269  31.972   5.303
 4269POPC   GL155549  12.094  32.188   5.658
 4269POPC   GL255550  12.439  32.231   5.758
 4269POPC   C1A55551  11.996  32.111   6.120
 4269POPC   D2A55552  11.809  32.239   6.543
 4269POPC   C3A55553  12.142  32.129   6.878
 4269POPC   C4A55554  12.278  31.793   7.210
 4269POPC   C1B55555  12.457  32.450   6.151
 4269POPC   C2B55556  12.567  32.364   6.580
 4269POPC   C3B55557  12.401  32.591   6.919
 4269POPC   C4B55558  12.183  32.576   7.268
 4270POPC   NC355559  41.676  37.298   5.413
 4270POPC   PO455560  41.291  37.796   5.335
 4270POPC   GL155561  41.515  37.827   5.747
 4270POPC   GL255562  41.846  37.701   5.681
 4270POPC   C1A55563  41.552  37.842   6.214
 4270POPC   D2A55564  41.489  37.504   6.529
 4270POPC   C3A55565  41.640  37.624   6.948
 4270POPC   C4A55566  41.469  37.920   7.216
 4270POPC   C1B55567  41.803  37.428   6.071
 4270POPC   C2B55568  42.012  37.473   6.475
 4270POPC   C3B55569  42.094  37.353   6.919
 4270POPC   C4B55570  41.999  37.549   7.327
 4271POPC   NC355571  40.920  41.237   5.335
 4271POPC   PO455572  40.450  41.633   5.473
 4271POPC   GL155573  40.725  41.361   5.798
 4271POPC   GL255574  41.102  41.273   5.833
 4271POPC   C1A55575  40.863  41.509   6.212
 4271POPC   D2A55576  40.561  41.591   6.480
 4271POPC   C3A55577  40.714  41.637   6.880
 4271POPC   C4A55578  40.666  41.593   7.297
 4271POPC   C1B55579  41.111  41.056   6.241
 4271POPC   C2B55580  40.933  41.165   6.672
 4271POPC   C3B55581  41.097  41.344   7.077
 4271POPC   C4B55582  41.025  41.323   7.521
 4272POPC   NC355583  32.021  16.500   5.302
 4272POPC   PO455584  31.606  16.973   5.399
 4272POPC   GL155585  31.776  16.750   5.742
 4272POPC   GL255586  31.483  16.796   5.919
 4272POPC   C1A55587  31.797  16.534   6.201
 4272POPC   D2A55588  31.619  16.750   6.573
 4272POPC   C3A55589  31.483  16.564   7.004
 4272POPC   C4A55590  31.157  16.574   7.375
 4272POPC   C1B55591  31.740  17.096   6.152
 4272POPC   C2B55592  31.818  17.272   6.557
 4272POPC   C3B55593  31.680  17.067   6.959
 4272POPC   C4B55594  31.524  16.944   7.360
 4273POPC   NC355595  42.951  26.754   5.514
 4273POPC   PO455596  43.571  26.462   5.365
 4273POPC   GL155597  43.456  26.724   5.814
 4273POPC   GL255598  43.102  26.942   5.945
 4273POPC   C1A55599  43.405  26.795   6.293
 4273POPC   D2A55600  43.189  26.657   6.643
 4273POPC   C3A55601  43.166  26.880   6.974
 4273POPC   C4A55602  43.240  26.897   7.365
 4273POPC   C1B55603  42.823  26.767   6.213
 4273POPC   C2B55604  42.662  26.556   6.551
 4273POPC   C3B55605  42.655  26.762   6.955
 4273POPC   C4B55606  42.790  27.167   7.183
 4274POPC   NC355607  20.518  21.754   5.329
 4274POPC   PO455608  21.133  21.875   5.501
 4274POPC   GL155609  20.918  21.900   5.856
 4274POPC   GL255610  20.550  21.957   5.852
 4274POPC   C1A55611  20.910  22.133   6.223
 4274POPC   D2A55612  20.697  21.985   6.554
 4274POPC   C3A55613  20.794  22.168   6.939
 4274POPC   C4A55614  20.846  22.049   7.351
 4274POPC   C1B55615  20.413  22.258   6.204
 4274POPC   C2B55616  20.383  22.406   6.648
 4274POPC   C3B55617  20.317  22.264   7.088
 4274POPC   C4B55618  20.483  22.332   7.534
 4275POPC   NC355619   7.678  44.443   5.504
 4275POPC   PO455620   8.164  44.861   5.445
 4275POPC   GL155621   8.321  44.846   5.868
 4275POPC   GL255622   8.354  44.517   5.966
 4275POPC   C1A55623   8.341  44.907   6.319
 4275POPC   D2A55624   8.472  44.662   6.682
 4275POPC   C3A55625   8.176  44.739   7.020
 4275POPC   C4A55626   8.213  44.986   7.387
 4275POPC   C1B55627   8.721  44.411   6.248
 4275POPC   C2B55628   8.874  44.282   6.668
 4275POPC   C3B55629   8.724  44.421   7.122
 4275POPC   C4B55630   8.380  44.487   7.450
 4276POPC   NC355631  43.700   5.032   5.054
 4276POPC   PO455632  43.111   5.179   5.323
 4276POPC   GL155633  43.137   4.995   5.738
 4276POPC   GL255634  43.129   5.336   5.860
 4276POPC   C1A55635  43.235   4.928   6.219
 4276POPC   D2A55636  43.104   5.012   6.684
 4276POPC   C3A55637  43.206   4.835   7.115
 4276POPC   C4A55638  43.535   4.817   7.457
 4276POPC   C1B55639  42.929   5.503   6.210
 4276POPC   C2B55640  43.022   5.509   6.637
 4276POPC   C3B55641  43.132   5.359   7.069
 4276POPC   C4B55642  42.863   5.319   7.444
 4277POPC   NC355643   8.843  31.154   5.476
 4277POPC   PO455644   9.375  31.509   5.412
 4277POPC   GL155645   9.139  31.567   5.773
 4277POPC   GL255646   9.105  31.241   5.918
 4277POPC   C1A55647   8.923  31.673   6.158
 4277POPC   D2A55648   8.733  31.458   6.487
 4277POPC   C3A55649   8.861  31.649   6.854
 4277POPC   C4A55650   8.637  31.727   7.209
 4277POPC   C1B55651   9.202  31.270   6.365
 4277POPC   C2B55652   9.019  31.122   6.740
 4277POPC   C3B55653   8.897  31.227   7.179
 4277POPC   C4B55654   9.141  31.111   7.578
 4278POPC   NC355655  16.179  27.733   4.988
 4278POPC   PO455656  15.872  27.916   5.507
 4278POPC   GL155657  16.036  27.758   5.863
 4278POPC   GL255658  15.707  27.603   5.920
 4278POPC   C1A55659  16.124  27.529   6.200
 4278POPC   D2A55660  15.953  27.516   6.567
 4278POPC   C3A55661  16.213  27.398   6.907
 4278POPC   C4A55662  16.158  27.451   7.327
 4278POPC   C1B55663  15.539  27.751   6.278
 4278POPC   C2B55664  15.561  27.814   6.706
 4278POPC   C3B55665  15.683  27.500   6.992
 4278POPC   C4B55666  15.665  27.560   7.393
 4279POPC   NC355667   2.963  35.683   5.200
 4279POPC   PO455668   2.865  36.287   5.544
 4279POPC   GL155669   2.842  36.359   5.949
 4279POPC   GL255670   3.198  36.245   5.972
 4279POPC   C1A55671   2.805  36.328   6.386
 4279POPC   D2A55672   2.612  35.930   6.529
 4279POPC   C3A55673   2.605  35.886   6.970
 4279POPC   C4A55674   2.388  36.243   7.173
 4279POPC   C1B55675   3.137  35.937   6.303
 4279POPC   C2B55676   3.062  36.027   6.737
 4279POPC   C3B55677   2.856  36.344   6.933
 4279POPC   C4B55678   2.837  36.393   7.363
 4280POPC   NC355679  19.561  44.948   5.490
 4280POPC   PO455680  19.914  44.455   5.498
 4280POPC   GL155681  19.797  44.652   5.847
 4280POPC   GL255682  19.487  44.530   5.852
 4280POPC   C1A55683  19.851  44.837   6.240
 4280POPC   D2A55684  19.685  44.679   6.610
 4280POPC   C3A55685  19.644  44.883   6.975
 4280POPC   C4A55686  19.960  44.740   7.216
 4280POPC   C1B55687  19.329  44.753   6.222
 4280POPC   C2B55688  19.178  44.667   6.651
 4280POPC   C3B55689  19.415  44.403   6.954
 4280POPC   C4B55690  19.555  44.501   7.357
 4281POPC   NC355691  38.482   6.129   5.305
 4281POPC   PO455692  38.737   5.636   5.444
 4281POPC   GL155693  38.519   5.967   5.779
 4281POPC   GL255694  38.151   6.081   5.829
 4281POPC   C1A55695  38.525   6.141   6.209
 4281POPC   D2A55696  38.542   5.883   6.600
 4281POPC   C3A55697  38.548   6.032   7.047
 4281POPC   C4A55698  38.490   5.838   7.484
 4281POPC   C1B55699  38.082   5.925   6.302
 4281POPC   C2B55700  38.106   6.101   6.747
 4281POPC   C3B55701  38.064   5.978   7.202
 4281POPC   C4B55702  37.940   5.917   7.643
 4282POPC   NC355703   7.888   5.822   5.428
 4282POPC   PO455704   8.590   5.699   5.474
 4282POPC   GL155705   8.396   5.941   5.839
 4282POPC   GL255706   8.027   5.993   5.903
 4282POPC   C1A55707   8.269   5.727   6.234
 4282POPC   D2A55708   8.390   5.750   6.609
 4282POPC   C3A55709   8.262   5.967   6.929
 4282POPC   C4A55710   8.571   6.044   7.226
 4282POPC   C1B55711   8.136   6.213   6.312
 4282POPC   C2B55712   7.886   6.296   6.655
 4282POPC   C3B55713   7.801   6.194   7.042
 4282POPC   C4B55714   8.118   6.282   7.299
 4283POPC   NC355715   3.826  41.840   5.435
 4283POPC   PO455716   3.347  41.602   5.453
 4283POPC   GL155717   3.176  41.689   5.862
 4283POPC   GL255718   3.483  41.853   5.953
 4283POPC   C1A55719   3.031  41.516   6.266
 4283POPC   D2A55720   3.131  41.244   6.638
 4283POPC   C3A55721   3.340  41.407   7.021
 4283POPC   C4A55722   3.466  41.474   7.458
 4283POPC   C1B55723   3.539  41.610   6.363
 4283POPC   C2B55724   3.766  41.576   6.790
 4283POPC   C3B55725   3.838  41.753   7.219
 4283POPC   C4B55726   3.786  41.797   7.689
 4284POPC   NC355727  29.320  21.171   5.368
 4284POPC   PO455728  28.937  21.689   5.392
 4284POPC   GL155729  29.129  21.414   5.781
 4284POPC   GL255730  29.161  21.027   5.853
 4284POPC   C1A55731  29.304  21.448   6.225
 4284POPC   D2A55732  29.284  21.253   6.661
 4284POPC   C3A55733  29.311  21.475   7.045
 4284POPC   C4A55734  29.108  21.588   7.451
 4284POPC   C1B55735  28.969  21.063   6.286
 4284POPC   C2B55736  28.828  20.983   6.728
 4284POPC   C3B55737  28.888  21.168   7.168
 4284POPC   C4B55738  28.931  21.139   7.642
 4285POPC   NC355739  18.944  19.841   5.333
 4285POPC   PO455740  18.762  20.350   5.057
 4285POPC   GL155741  19.041  20.253   5.588
 4285POPC   GL255742  18.953  19.890   5.822
 4285POPC   C1A55743  19.125  20.267   6.083
 4285POPC   D2A55744  18.827  20.015   6.380
 4285POPC   C3A55745  18.871  19.962   6.847
 4285POPC   C4A55746  19.287  19.952   7.036
 4285POPC   C1B55747  19.021  19.578   6.155
 4285POPC   C2B55748  19.159  19.645   6.574
 4285POPC   C3B55749  19.080  19.488   6.984
 4285POPC   C4B55750  19.476  19.412   7.127
 4286POPC   NC355751   1.613   7.145   5.186
 4286POPC   PO455752   1.953   7.644   5.443
 4286POPC   GL155753   2.125   7.675   5.849
 4286POPC   GL255754   1.793   7.840   5.894
 4286POPC   C1A55755   2.254   7.394   6.237
 4286POPC   D2A55756   2.003   7.266   6.642
 4286POPC   C3A55757   2.167   7.418   7.072
 4286POPC   C4A55758   2.344   7.241   7.479
 4286POPC   C1B55759   1.859   7.710   6.301
 4286POPC   C2B55760   1.811   7.920   6.648
 4286POPC   C3B55761   1.478   7.860   6.932
 4286POPC   C4B55762   1.542   7.548   7.264
 4287POPC   NC355763  36.397  31.121   5.367
 4287POPC   PO455764  35.910  31.075   5.820
 4287POPC   GL155765  36.264  31.337   5.866
 4287POPC   GL255766  36.151  31.704   5.844
 4287POPC   C1A55767  36.567  31.346   6.211
 4287POPC   D2A55768  36.589  31.285   6.660
 4287POPC   C3A55769  36.290  31.459   6.938
 4287POPC   C4A55770  36.333  31.553   7.365
 4287POPC   C1B55771  35.993  31.571   6.258
 4287POPC   C2B55772  35.735  31.465   6.620
 4287POPC   C3B55773  35.785  31.489   7.069
 4287POPC   C4B55774  35.893  31.254   7.432
 4288POPC   NC355775  22.544  29.502   5.471
 4288POPC   PO455776  22.027  29.862   5.386
 4288POPC   GL155777  22.183  29.792   5.790
 4288POPC   GL255778  21.841  29.673   5.848
 4288POPC   C1A55779  22.391  29.982   6.162
 4288POPC   D2A55780  22.250  30.164   6.558
 4288POPC   C3A55781  22.420  30.009   6.933
 4288POPC   C4A55782  22.273  30.079   7.288
 4288POPC   C1B55783  21.938  29.493   6.229
 4288POPC   C2B55784  21.837  29.723   6.583
 4288POPC   C3B55785  21.968  29.774   6.990
 4288POPC   C4B55786  21.771  30.096   7.229
 4289POPC   NC355787  43.599  10.500   5.387
 4289POPC   PO455788  43.030  10.741   5.262
 4289POPC   GL155789  43.151  10.587   5.727
 4289POPC   GL255790  42.971  10.271   5.864
 4289POPC   C1A55791  43.103  10.761   6.166
 4289POPC   D2A55792  43.048  10.650   6.604
 4289POPC   C3A55793  42.901  10.791   7.012
 4289POPC   C4A55794  43.045  10.636   7.432
 4289POPC   C1B55795  43.206  10.237   6.244
 4289POPC   C2B55796  43.256  10.178   6.667
 4289POPC   C3B55797  43.157  10.308   7.064
 4289POPC   C4B55798  43.349  10.219   7.484
 4290POPC   NC355799   7.112  33.903   5.333
 4290POPC   PO455800   7.784  33.926   5.296
 4290POPC   GL155801   7.555  33.853   5.676
 4290POPC   GL255802   7.385  34.167   5.689
 4290POPC   C1A55803   7.226  33.749   6.011
 4290POPC   D2A55804   7.392  33.587   6.395
 4290POPC   C3A55805   7.275  33.636   6.806
 4290POPC   C4A55806   7.528  33.634   7.174
 4290POPC   C1B55807   7.479  34.189   6.108
 4290POPC   C2B55808   7.270  34.084   6.481
 4290POPC   C3B55809   7.506  34.089   6.861
 4290POPC   C4B55810   7.582  34.135   7.278
 4291POPC   NC355811  35.518  33.441   5.496
 4291POPC   PO455812  35.111  33.989   5.372
 4291POPC   GL155813  35.225  33.769   5.785
 4291POPC   GL255814  35.135  33.455   5.931
 4291POPC   C1A55815  35.456  33.753   6.207
 4291POPC   D2A55816  35.632  33.639   6.595
 4291POPC   C3A55817  35.585  33.864   6.978
 4291POPC   C4A55818  35.543  33.648   7.345
 4291POPC   C1B55819  35.144  33.417   6.434
 4291POPC   C2B55820  35.157  33.603   6.877
 4291POPC   C3B55821  35.133  33.953   7.205
 4291POPC   C4B55822  35.144  33.847   7.634
 4292POPC   NC355823  23.093  36.023   5.219
 4292POPC   PO455824  23.198  36.539   5.457
 4292POPC   GL155825  23.071  36.229   5.806
 4292POPC   GL255826  22.713  36.065   5.883
 4292POPC   C1A55827  22.969  36.272   6.264
 4292POPC   D2A55828  23.116  36.045   6.627
 4292POPC   C3A55829  22.969  36.190   7.029
 4292POPC   C4A55830  23.072  36.053   7.430
 4292POPC   C1B55831  22.783  35.798   6.292
 4292POPC   C2B55832  22.665  35.821   6.750
 4292POPC   C3B55833  22.693  35.781   7.217
 4292POPC   C4B55834  22.611  35.914   7.657
 4293POPC   NC355835  21.605  16.781   5.428
 4293POPC   PO455836  21.019  16.477   5.593
 4293POPC   GL155837  21.331  16.686   5.861
 4293POPC   GL255838  21.702  16.674   5.912
 4293POPC   C1A55839  21.321  16.662   6.289
 4293POPC   D2A55840  20.977  16.712   6.569
 4293POPC   C3A55841  21.127  16.512   6.903
 4293POPC   C4A55842  21.079  16.691   7.266
 4293POPC   C1B55843  21.845  16.441   6.253
 4293POPC   C2B55844  21.606  16.383   6.618
 4293POPC   C3B55845  21.537  16.772   6.823
 4293POPC   C4B55846  21.549  16.891   7.232
 4294POPC   NC355847  24.748  26.191   5.299
 4294POPC   PO455848  25.352  26.424   5.116
 4294POPC   GL155849  25.395  26.341   5.599
 4294POPC   GL255850  25.074  26.225   5.714
 4294POPC   C1A55851  25.377  26.406   6.131
 4294POPC   D2A55852  25.294  26.439   6.657
 4294POPC   C3A55853  25.438  26.127   7.043
 4294POPC   C4A55854  25.504  26.081   7.522
 4294POPC   C1B55855  24.969  26.066   6.128
 4294POPC   C2B55856  24.807  26.193   6.536
 4294POPC   C3B55857  24.932  26.124   6.960
 4294POPC   C4B55858  24.727  25.834   7.245
 4295POPC   NC355859  12.623   6.410   5.432
 4295POPC   PO455860  13.251   6.070   5.551
 4295POPC   GL155861  12.984   6.360   5.849
 4295POPC   GL255862  12.689   6.613   5.879
 4295POPC   C1A55863  12.796   6.403   6.312
 4295POPC   D2A55864  12.630   6.688   6.628
 4295POPC   C3A55865  12.795   6.608   7.045
 4295POPC   C4A55866  13.157   6.342   7.140
 4295POPC   C1B55867  12.881   6.894   6.186
 4295POPC   C2B55868  13.001   7.096   6.551
 4295POPC   C3B55869  12.786   7.098   6.904
 4295POPC   C4B55870  12.912   7.125   7.308
 4296POPC   NC355871   7.387   8.733   5.516
 4296POPC   PO455872   7.569   9.362   5.496
 4296POPC   GL155873   7.644   9.076   5.855
 4296POPC   GL255874   7.749   8.714   5.870
 4296POPC   C1A55875   7.491   9.093   6.286
 4296POPC   D2A55876   7.261   9.057   6.697
 4296POPC   C3A55877   7.517   9.194   7.036
 4296POPC   C4A55878   7.721   9.094   7.382
 4296POPC   C1B55879   7.442   8.584   6.183
 4296POPC   C2B55880   7.528   8.645   6.614
 4296POPC   C3B55881   7.455   8.689   7.040
 4296POPC   C4B55882   7.631   8.437   7.360
 4297POPC   NC355883   0.241  32.468   5.476
 4297POPC   PO455884   0.837  32.083   5.554
 4297POPC   GL155885   0.640  32.404   5.812
 4297POPC   GL255886   0.358  32.198   5.883
 4297POPC   C1A55887   0.379  32.627   6.152
 4297POPC   D2A55888   0.539  32.618   6.561
 4297POPC   C3A55889   0.305  32.558   6.958
 4297POPC   C4A55890   0.125  32.500   7.368
 4297POPC   C1B55891   0.595  32.152   6.270
 4297POPC   C2B55892   0.349  32.155   6.644
 4297POPC   C3B55893   0.239  32.074   7.075
 4297POPC   C4B55894   0.194  32.014   7.518
 4298POPC   NC355895  16.204  29.689   5.448
 4298POPC   PO455896  15.731  30.102   5.195
 4298POPC   GL155897  15.754  29.831   5.671
 4298POPC   GL255898  16.056  29.945   5.894
 4298POPC   C1A55899  15.665  29.784   6.139
 4298POPC   D2A55900  15.961  29.761   6.492
 4298POPC   C3A55901  15.878  30.004   6.876
 4298POPC   C4A55902  15.986  29.961   7.313
 4298POPC   C1B55903  16.099  30.259   6.283
 4298POPC   C2B55904  16.197  30.408   6.746
 4298POPC   C3B55905  16.402  30.249   7.167
 4298POPC   C4B55906  16.346  30.158   7.628
 4299POPC   NC355907  11.783  38.011   5.252
 4299POPC   PO455908  11.917  37.369   5.419
 4299POPC   GL155909  12.112  37.608   5.759
 4299POPC   GL255910  12.070  37.976   5.698
 4299POPC   C1A55911  11.945  37.754   6.160
 4299POPC   D2A55912  12.118  37.574   6.558
 4299POPC   C3A55913  12.381  37.757   6.862
 4299POPC   C4A55914  12.138  37.593   7.197
 4299POPC   C1B55915  12.278  38.128   6.091
 4299POPC   C2B55916  12.107  38.094   6.519
 4299POPC   C3B55917  11.912  37.954   6.881
 4299POPC   C4B55918  12.146  38.086   7.229
 4300POPC   NC355919   5.321  18.955   4.997
 4300POPC   PO455920   4.889  19.278   5.430
 4300POPC   GL155921   4.811  19.284   5.830
 4300POPC   GL255922   4.661  18.963   5.907
 4300POPC   C1A55923   5.056  19.168   6.199
 4300POPC   D2A55924   5.217  19.011   6.603
 4300POPC   C3A55925   4.985  19.134   6.961
 4300POPC   C4A55926   5.045  19.476   7.218
 4300POPC   C1B55927   4.630  18.847   6.369
 4300POPC   C2B55928   4.837  18.680   6.769
 4300POPC   C3B55929   5.114  18.593   7.148
 4300POPC   C4B55930   5.190  18.533   7.615
 4301POPC   NC355931  27.031  29.421   5.366
 4301POPC   PO455932  26.602  28.922   5.433
 4301POPC   GL155933  26.883  29.085   5.726
 4301POPC   GL255934  26.677  29.336   5.772
 4301POPC   C1A55935  27.047  29.100   6.141
 4301POPC   D2A55936  26.833  29.035   6.498
 4301POPC   C3A55937  26.975  29.247   6.822
 4301POPC   C4A55938  27.102  29.001   7.172
 4301POPC   C1B55939  26.506  29.051   6.099
 4301POPC   C2B55940  26.295  29.066   6.498
 4301POPC   C3B55941  26.486  29.046   6.893
 4301POPC   C4B55942  26.601  28.967   7.317
 4302POPC   NC355943  14.618   5.196   5.447
 4302POPC   PO455944  14.347   5.890   5.379
 4302POPC   GL155945  14.257   5.683   5.774
 4302POPC   GL255946  14.603   5.582   5.823
 4302POPC   C1A55947  14.060   5.741   6.216
 4302POPC   D2A55948  14.026   5.601   6.663
 4302POPC   C3A55949  14.284   5.681   7.042
 4302POPC   C4A55950  14.069   5.415   7.317
 4302POPC   C1B55951  14.530   5.925   6.120
 4302POPC   C2B55952  14.461   5.894   6.558
 4302POPC   C3B55953  14.578   6.076   6.942
 4302POPC   C4B55954  14.323   6.205   7.283
 4303POPC   NC355955  19.197   9.863   5.481
 4303POPC   PO455956  18.946   9.255   5.391
 4303POPC   GL155957  18.993   9.492   5.789
 4303POPC   GL255958  18.741   9.782   5.809
 4303POPC   C1A55959  19.104   9.753   6.184
 4303POPC   D2A55960  19.317   9.938   6.592
 4303POPC   C3A55961  19.091   9.840   7.016
 4303POPC   C4A55962  19.263  10.028   7.391
 4303POPC   C1B55963  18.671   9.474   6.166
 4303POPC   C2B55964  18.819   9.393   6.634
 4303POPC   C3B55965  18.778   9.399   7.103
 4303POPC   C4B55966  18.704   9.424   7.560
 4304POPC   NC355967  12.235  39.599   5.371
 4304POPC   PO455968  11.886  40.198   5.409
 4304POPC   GL155969  12.050  39.940   5.777
 4304POPC   GL255970  11.763  39.911   5.989
 4304POPC   C1A55971  12.212  39.780   6.204
 4304POPC   D2A55972  12.026  39.717   6.610
 4304POPC   C3A55973  12.134  39.844   7.041
 4304POPC   C4A55974  11.864  39.934   7.401
 4304POPC   C1B55975  11.929  40.190   6.331
 4304POPC   C2B55976  11.906  40.198   6.778
 4304POPC   C3B55977  12.119  40.345   7.182
 4304POPC   C4B55978  12.144  40.341   7.688
 4305POPC   NC355979  44.927  37.210   5.367
 4305POPC   PO455980  44.306  37.034   5.300
 4305POPC   GL155981  44.354  36.906   5.759
 4305POPC   GL255982  44.383  36.566   5.835
 4305POPC   C1A55983  44.543  36.990   6.190
 4305POPC   D2A55984  44.864  36.858   6.509
 4305POPC   C3A55985  44.789  37.073   6.912
 4305POPC   C4A55986  44.532  37.120   7.247
 4305POPC   C1B55987  44.485  36.479   6.249
 4305POPC   C2B55988  44.440  36.625   6.667
 4305POPC   C3B55989  44.581  36.608   7.110
 4305POPC   C4B55990  44.484  36.730   7.586
 4306POPC   NC355991   5.496  12.093   5.452
 4306POPC   PO455992   4.867  12.116   5.459
 4306POPC   GL155993   5.044  12.244   5.845
 4306POPC   GL255994   5.146  11.910   5.873
 4306POPC   C1A55995   5.146  12.177   6.305
 4306POPC   D2A55996   5.091  11.831   6.626
 4306POPC   C3A55997   5.360  11.860   6.976
 4306POPC   C4A55998   5.384  12.246   7.104
 4306POPC   C1B55999   4.782  11.808   6.185
 4306POPC   C2B56000   4.631  11.615   6.605
 4306POPC   C3B56001   4.629  11.750   7.026
 4306POPC   C4B56002   4.897  12.052   7.158
 4307POPC   NC356003   5.839   8.001   5.358
 4307POPC   PO456004   5.639   8.611   5.300
 4307POPC   GL156005   5.571   8.295   5.680
 4307POPC   GL256006   5.615   7.887   5.785
 4307POPC   C1A56007   5.813   8.312   6.065
 4307POPC   D2A56008   6.086   8.394   6.399
 4307POPC   C3A56009   5.917   8.394   6.800
 4307POPC   C4A56010   6.128   8.513   7.135
 4307POPC   C1B56011   5.866   7.801   6.138
 4307POPC   C2B56012   5.724   7.995   6.515
 4307POPC   C3B56013   5.881   7.912   6.913
 4307POPC   C4B56014   5.892   8.085   7.299
 4308POPC   NC356015   3.343  17.653   5.480
 4308POPC   PO456016   3.966  17.348   5.515
 4308POPC   GL156017   3.858  17.590   5.895
 4308POPC   GL256018   3.501  17.621   5.959
 4308POPC   C1A56019   3.768  17.552   6.376
 4308POPC   D2A56020   3.479  17.608   6.699
 4308POPC   C3A56021   3.742  17.578   7.039
 4308POPC   C4A56022   3.844  17.771   7.451
 4308POPC   C1B56023   3.204  17.302   6.124
 4308POPC   C2B56024   3.034  17.270   6.516
 4308POPC   C3B56025   3.234  17.206   6.926
 4308POPC   C4B56026   3.432  17.161   7.301
 4309POPC   NC356027  33.227  31.727   5.446
 4309POPC   PO456028  32.761  31.268   5.461
 4309POPC   GL156029  32.721  31.345   5.877
 4309POPC   GL256030  32.753  31.679   5.875
 4309POPC   C1A56031  32.776  31.278   6.322
 4309POPC   D2A56032  32.952  31.348   6.759
 4309POPC   C3A56033  33.258  31.473   7.097
 4309POPC   C4A56034  33.302  31.878   7.267
 4309POPC   C1B56035  32.500  31.727   6.246
 4309POPC   C2B56036  32.648  31.858   6.660
 4309POPC   C3B56037  32.809  31.754   7.061
 4309POPC   C4B56038  32.903  31.616   7.485
 4310POPC   NC356039  21.179  44.828   5.362
 4310POPC   PO456040  21.676  44.450   5.370
 4310POPC   GL156041  21.512  44.608   5.745
 4310POPC   GL256042  21.364  44.922   5.865
 4310POPC   C1A56043  21.455  44.546   6.175
 4310POPC   D2A56044  21.433  44.788   6.525
 4310POPC   C3A56045  21.337  44.557   6.861
 4310POPC   C4A56046  21.515  44.579   7.244
 4310POPC   C1B56047  21.034  44.888   6.201
 4310POPC   C2B56048  20.972   0.056   6.636
 4310POPC   C3B56049  21.152  44.995   7.058
 4310POPC   C4B56050  21.148  44.841   7.514
 4311POPC   NC356051  27.118  38.269   5.569
 4311POPC   PO456052  27.006  38.883   5.502
 4311POPC   GL156053  26.797  38.667   5.841
 4311POPC   GL256054  26.520  38.432   5.736
 4311POPC   C1A56055  26.858  38.695   6.301
 4311POPC   D2A56056  27.176  38.792   6.630
 4311POPC   C3A56057  27.128  38.654   7.077
 4311POPC   C4A56058  27.026  38.651   7.547
 4311POPC   C1B56059  26.653  38.254   6.113
 4311POPC   C2B56060  26.576  38.287   6.526
 4311POPC   C3B56061  26.622  38.093   6.931
 4311POPC   C4B56062  26.825  38.285   7.275
 4312POPC   NC356063   7.016  31.346   5.317
 4312POPC   PO456064   7.691  31.508   5.383
 4312POPC   GL156065   7.584  31.535   5.808
 4312POPC   GL256066   7.221  31.499   5.905
 4312POPC   C1A56067   7.724  31.707   6.180
 4312POPC   D2A56068   7.672  31.506   6.569
 4312POPC   C3A56069   7.564  31.743   6.930
 4312POPC   C4A56070   7.529  31.527   7.292
 4312POPC   C1B56071   7.082  31.423   6.364
 4312POPC   C2B56072   6.942  31.658   6.755
 4312POPC   C3B56073   6.842  31.662   7.183
 4312POPC   C4B56074   7.080  31.604   7.547
 4313POPC   NC356075  23.062   3.672   5.493
 4313POPC   PO456076  22.423   4.001   5.545
 4313POPC   GL156077  22.613   3.604   5.802
 4313POPC   GL256078  22.883   3.327   5.852
 4313POPC   C1A56079  22.785   3.653   6.240
 4313POPC   D2A56080  22.641   3.967   6.539
 4313POPC   C3A56081  22.676   3.741   6.899
 4313POPC   C4A56082  23.010   3.650   7.157
 4313POPC   C1B56083  23.265   3.395   6.151
 4313POPC   C2B56084  23.329   3.452   6.624
 4313POPC   C3B56085  23.248   3.222   7.049
 4313POPC   C4B56086  23.296   3.286   7.527
 4314POPC   NC356087  24.963   9.995   5.374
 4314POPC   PO456088  25.400   9.432   5.238
 4314POPC   GL156089  25.215   9.620   5.678
 4314POPC   GL256090  25.241  10.001   5.789
 4314POPC   C1A56091  25.067   9.674   6.133
 4314POPC   D2A56092  25.268   9.779   6.526
 4314POPC   C3A56093  25.098   9.652   6.940
 4314POPC   C4A56094  25.384   9.660   7.270
 4314POPC   C1B56095  24.933  10.200   6.088
 4314POPC   C2B56096  24.995  10.209   6.542
 4314POPC   C3B56097  25.267  10.116   6.915
 4314POPC   C4B56098  25.065  10.093   7.277
 4315POPC   NC356099   9.871  42.537   5.234
 4315POPC   PO456100   9.969  41.902   5.414
 4315POPC   GL156101   9.924  42.292   5.680
 4315POPC   GL256102  10.176  42.230   5.886
 4315POPC   C1A56103   9.827  42.609   6.048
 4315POPC   D2A56104   9.582  42.703   6.496
 4315POPC   C3A56105   9.627  42.546   6.965
 4315POPC   C4A56106   9.499  42.273   7.356
 4315POPC   C1B56107   9.851  42.101   6.161
 4315POPC   C2B56108   9.736  42.207   6.572
 4315POPC   C3B56109   9.808  42.053   6.971
 4315POPC   C4B56110   9.999  42.157   7.359
 4316POPC   NC356111   3.672   7.529   5.547
 4316POPC   PO456112   3.108   7.156   5.433
 4316POPC   GL156113   3.198   7.351   5.860
 4316POPC   GL256114   3.402   7.670   5.978
 4316POPC   C1A56115   3.290   7.264   6.312
 4316POPC   D2A56116   3.478   7.388   6.699
 4316POPC   C3A56117   3.548   7.149   7.073
 4316POPC   C4A56118   3.360   7.241   7.492
 4316POPC   C1B56119   3.762   7.410   6.206
 4316POPC   C2B56120   3.925   7.190   6.589
 4316POPC   C3B56121   3.943   7.444   6.969
 4316POPC   C4B56122   3.696   7.591   7.347
 4317POPC   NC356123  28.162   9.413   5.125
 4317POPC   PO456124  28.409   9.885   5.496
 4317POPC   GL156125  28.411   9.664   5.838
 4317POPC   GL256126  28.065   9.564   5.810
 4317POPC   C1A56127  28.299   9.746   6.240
 4317POPC   D2A56128  28.447  10.003   6.539
 4317POPC   C3A56129  28.273   9.933   6.921
 4317POPC   C4A56130  28.493   9.833   7.276
 4317POPC   C1B56131  28.024   9.323   6.175
 4317POPC   C2B56132  28.072   9.419   6.587
 4317POPC   C3B56133  28.141   9.261   6.957
 4317POPC   C4B56134  28.141   9.444   7.317
 4318POPC   NC356135  13.405  28.703   5.438
 4318POPC   PO456136  13.911  28.220   5.603
 4318POPC   GL156137  13.676  28.261   5.971
 4318POPC   GL256138  13.372  28.443   5.903
 4318POPC   C1A56139  13.840  28.343   6.379
 4318POPC   D2A56140  13.938  28.488   6.799
 4318POPC   C3A56141  13.771  28.207   7.075
 4318POPC   C4A56142  13.516  28.095   7.419
 4318POPC   C1B56143  13.447  28.667   6.304
 4318POPC   C2B56144  13.429  28.621   6.754
 4318POPC   C3B56145  13.632  28.805   7.097
 4318POPC   C4B56146  13.690  28.583   7.431
 4319POPC   NC356147  35.097  19.794   5.475
 4319POPC   PO456148  35.810  19.865   5.475
 4319POPC   GL156149  35.527  19.821   5.853
 4319POPC   GL256150  35.165  19.978   5.937
 4319POPC   C1A56151  35.535  20.079   6.256
 4319POPC   D2A56152  35.252  20.125   6.601
 4319POPC   C3A56153  35.504  20.027   6.936
 4319POPC   C4A56154  35.539  19.602   7.114
 4319POPC   C1B56155  35.213  19.653   6.237
 4319POPC   C2B56156  35.233  19.530   6.654
 4319POPC   C3B56157  35.074  19.726   7.004
 4319POPC   C4B56158  35.064  19.481   7.366
 4320POPC   NC356159   8.003  20.513   5.289
 4320POPC   PO456160   7.926  21.034   5.646
 4320POPC   GL156161   8.132  20.701   5.804
 4320POPC   GL256162   7.915  20.419   5.831
 4320POPC   C1A56163   8.157  20.669   6.254
 4320POPC   D2A56164   8.379  20.609   6.649
 4320POPC   C3A56165   8.141  20.663   7.050
 4320POPC   C4A56166   8.225  20.537   7.480
 4320POPC   C1B56167   7.721  20.369   6.266
 4320POPC   C2B56168   7.822  20.435   6.725
 4320POPC   C3B56169   7.829  20.239   7.185
 4320POPC   C4B56170   7.973  20.099   7.616
 4321POPC   NC356171  12.070   7.050   5.355
 4321POPC   PO456172  12.496   7.491   5.382
 4321POPC   GL156173  12.305   7.370   5.781
 4321POPC   GL256174  12.478   7.085   5.904
 4321POPC   C1A56175  12.187   7.522   6.207
 4321POPC   D2A56176  11.993   7.363   6.573
 4321POPC   C3A56177  12.062   7.471   7.009
 4321POPC   C4A56178  11.796   7.572   7.389
 4321POPC   C1B56179  12.346   7.032   6.356
 4321POPC   C2B56180  12.277   7.008   6.821
 4321POPC   C3B56181  12.382   7.113   7.233
 4321POPC   C4B56182  12.213   7.317   7.592
 4322POPC   NC356183  36.949  10.082   5.357
 4322POPC   PO456184  37.069   9.433   5.258
 4322POPC   GL156185  37.006   9.616   5.691
 4322POPC   GL256186  36.862   9.953   5.835
 4322POPC   C1A56187  37.067   9.619   6.134
 4322POPC   D2A56188  37.161   9.588   6.559
 4322POPC   C3A56189  36.967   9.741   6.916
 4322POPC   C4A56190  37.123   9.528   7.261
 4322POPC   C1B56191  37.192  10.145   6.101
 4322POPC   C2B56192  37.341  10.221   6.538
 4322POPC   C3B56193  37.318  10.249   6.986
 4322POPC   C4B56194  37.063  10.028   7.343
 4323POPC   NC356195   3.348  26.366   5.444
 4323POPC   PO456196   3.484  25.727   5.413
 4323POPC   GL156197   3.399  25.785   5.833
 4323POPC   GL256198   3.614  26.046   5.884
 4323POPC   C1A56199   3.583  25.709   6.257
 4323POPC   D2A56200   3.819  25.844   6.625
 4323POPC   C3A56201   3.515  25.891   6.941
 4323POPC   C4A56202   3.600  25.876   7.359
 4323POPC   C1B56203   3.755  26.217   6.260
 4323POPC   C2B56204   3.628  26.363   6.702
 4323POPC   C3B56205   3.673  26.333   7.172
 4323POPC   C4B56206   3.766  26.268   7.645
 4324POPC   NC356207  44.138  36.596   5.379
 4324POPC   PO456208  43.574  37.061   5.358
 4324POPC   GL156209  43.846  36.978   5.720
 4324POPC   GL256210  43.784  36.625   5.750
 4324POPC   C1A56211  44.049  37.113   6.129
 4324POPC   D2A56212  44.244  37.205   6.576
 4324POPC   C3A56213  43.951  37.145   6.917
 4324POPC   C4A56214  43.790  37.280   7.292
 4324POPC   C1B56215  43.997  36.606   6.149
 4324POPC   C2B56216  43.928  36.780   6.551
 4324POPC   C3B56217  44.042  36.655   6.971
 4324POPC   C4B56218  44.074  36.835   7.324
 4325POPC   NC356219   9.152  26.459   5.003
 4325POPC   PO456220   8.823  27.012   5.208
 4325POPC   GL156221   8.902  26.673   5.545
 4325POPC   GL256222   9.199  26.446   5.559
 4325POPC   C1A56223   8.873  26.636   6.008
 4325POPC   D2A56224   8.911  26.938   6.353
 4325POPC   C3A56225   8.957  26.817   6.773
 4325POPC   C4A56226   8.825  26.906   7.182
 4325POPC   C1B56227   9.240  26.291   6.011
 4325POPC   C2B56228   9.125  26.444   6.420
 4325POPC   C3B56229   9.211  26.370   6.845
 4325POPC   C4B56230   9.155  26.525   7.230
 4326POPC   NC356231  35.147  15.575   5.482
 4326POPC   PO456232  35.606  15.012   5.441
 4326POPC   GL156233  35.356  15.148   5.777
 4326POPC   GL256234  35.615  15.389   5.847
 4326POPC   C1A56235  35.184  15.101   6.208
 4326POPC   D2A56236  35.020  15.215   6.598
 4326POPC   C3A56237  35.098  14.993   6.997
 4326POPC   C4A56238  35.293  15.096   7.415
 4326POPC   C1B56239  35.692  15.095   6.203
 4326POPC   C2B56240  35.549  15.144   6.636
 4326POPC   C3B56241  35.638  14.996   7.042
 4326POPC   C4B56242  35.799  15.114   7.433
 4327POPC   NC356243  14.569  22.842   4.995
 4327POPC   PO456244  14.252  22.944   5.510
 4327POPC   GL156245  14.338  22.943   5.891
 4327POPC   GL256246  14.487  22.643   5.929
 4327POPC   C1A56247  14.464  23.072   6.278
 4327POPC   D2A56248  14.691  23.119   6.635
 4327POPC   C3A56249  14.462  23.202   6.978
 4327POPC   C4A56250  14.546  23.072   7.365
 4327POPC   C1B56251  14.175  22.624   6.267
 4327POPC   C2B56252  14.216  22.787   6.698
 4327POPC   C3B56253  14.534  22.706   7.019
 4327POPC   C4B56254  14.460  22.500   7.391
 4328POPC   NC356255  43.388  19.578   5.314
 4328POPC   PO456256  42.808  20.018   5.178
 4328POPC   GL156257  42.906  19.920   5.639
 4328POPC   GL256258  43.257  20.029   5.725
 4328POPC   C1A56259  42.921  19.774   6.103
 4328POPC   D2A56260  43.091  19.578   6.489
 4328POPC   C3A56261  43.004  19.748   6.893
 4328POPC   C4A56262  43.037  19.908   7.285
 4328POPC   C1B56263  43.190  20.218   6.161
 4328POPC   C2B56264  43.064  20.154   6.585
 4328POPC   C3B56265  43.275  20.222   6.973
 4328POPC   C4B56266  43.486  20.143   7.363
 4329POPC   NC356267   4.858  31.004   5.434
 4329POPC   PO456268   5.441  30.723   5.602
 4329POPC   GL156269   5.048  30.708   5.839
 4329POPC   GL256270   5.023  31.082   5.926
 4329POPC   C1A56271   4.974  30.480   6.240
 4329POPC   D2A56272   5.138  30.319   6.632
 4329POPC   C3A56273   5.257  30.483   7.037
 4329POPC   C4A56274   4.997  30.398   7.370
 4329POPC   C1B56275   5.266  30.896   6.283
 4329POPC   C2B56276   5.288  30.874   6.713
 4329POPC   C3B56277   5.086  30.952   7.098
 4329POPC   C4B56278   5.231  30.845   7.504
 4330POPC   NC356279  14.969  29.754   5.455
 4330POPC   PO456280  14.232  29.785   5.412
 4330POPC   GL156281  14.433  29.913   5.777
 4330POPC   GL256282  14.650  29.610   5.834
 4330POPC   C1A56283  14.304  30.139   6.163
 4330POPC   D2A56284  14.276  29.969   6.578
 4330POPC   C3A56285  14.416  30.136   6.959
 4330POPC   C4A56286  14.683  29.992   7.273
 4330POPC   C1B56287  14.337  29.587   6.173
 4330POPC   C2B56288  14.488  29.522   6.583
 4330POPC   C3B56289  14.450  29.627   6.983
 4330POPC   C4B56290  14.582  29.519   7.408
 4331POPC   NC356291  29.184  34.222   5.625
 4331POPC   PO456292  28.907  33.696   5.204
 4331POPC   GL156293  29.042  33.674   5.671
 4331POPC   GL256294  29.335  33.794   5.834
 4331POPC   C1A56295  29.066  33.541   6.156
 4331POPC   D2A56296  28.981  33.727   6.558
 4331POPC   C3A56297  28.878  33.459   6.886
 4331POPC   C4A56298  28.867  33.701   7.254
 4331POPC   C1B56299  29.544  33.967   6.222
 4331POPC   C2B56300  29.500  33.675   6.565
 4331POPC   C3B56301  29.332  33.671   6.979
 4331POPC   C4B56302  29.557  33.948   7.218
 4332POPC   NC356303  39.709  43.440   5.083
 4332POPC   PO456304  39.982  42.960   5.406
 4332POPC   GL156305  40.093  42.957   5.859
 4332POPC   GL256306  39.906  42.702   6.042
 4332POPC   C1A56307  39.964  43.170   6.235
 4332POPC   D2A56308  39.589  43.128   6.475
 4332POPC   C3A56309  39.677  43.367   6.824
 4332POPC   C4A56310  39.953  43.297   7.146
 4332POPC   C1B56311  40.145  42.724   6.407
 4332POPC   C2B56312  39.945  42.871   6.781
 4332POPC   C3B56313  39.952  42.810   7.206
 4332POPC   C4B56314  40.079  42.986   7.565
 4333POPC   NC356315  15.351  22.188   5.251
 4333POPC   PO456316  14.844  22.578   5.266
 4333POPC   GL156317  15.019  22.385   5.673
 4333POPC   GL256318  15.124  22.027   5.710
 4333POPC   C1A56319  15.061  22.320   6.134
 4333POPC   D2A56320  14.973  22.109   6.540
 4333POPC   C3A56321  15.028  22.362   6.933
 4333POPC   C4A56322  15.212  22.261   7.344
 4333POPC   C1B56323  15.247  21.824   6.119
 4333POPC   C2B56324  15.320  21.729   6.556
 4333POPC   C3B56325  15.373  21.958   6.949
 4333POPC   C4B56326  15.391  21.783   7.352
 4334POPC   NC356327  23.416   6.871   5.606
 4334POPC   PO456328  23.974   6.544   5.600
 4334POPC   GL156329  23.827   6.846   5.908
 4334POPC   GL256330  23.623   6.536   6.013
 4334POPC   C1A56331  23.575   6.932   6.310
 4334POPC   D2A56332  23.711   6.793   6.695
 4334POPC   C3A56333  23.446   6.701   7.037
 4334POPC   C4A56334  23.688   6.825   7.389
 4334POPC   C1B56335  24.007   6.576   6.296
 4334POPC   C2B56336  24.155   6.528   6.722
 4334POPC   C3B56337  23.929   6.456   7.120
 4334POPC   C4B56338  23.925   6.077   7.449
 4335POPC   NC356339  35.677  44.169   5.209
 4335POPC   PO456340  35.182  44.674   5.414
 4335POPC   GL156341  35.158  44.773   5.884
 4335POPC   GL256342  34.844  44.984   5.968
 4335POPC   C1A56343  35.344  44.537   6.260
 4335POPC   D2A56344  35.476  44.300   6.662
 4335POPC   C3A56345  35.306  44.457   7.088
 4335POPC   C4A56346  35.398  44.567   7.539
 4335POPC   C1B56347  35.026  44.943   6.379
 4335POPC   C2B56348  35.348  44.830   6.680
 4335POPC   C3B56349  35.508  44.930   7.066
 4335POPC   C4B56350  35.158  44.977   7.371
 4336POPC   NC356351  29.282  19.252   5.235
 4336POPC   PO456352  29.684  19.141   5.730
 4336POPC   GL156353  29.252  19.270   5.819
 4336POPC   GL256354  29.093  19.533   5.643
 4336POPC   C1A56355  29.163  19.266   6.264
 4336POPC   D2A56356  29.029  19.032   6.621
 4336POPC   C3A56357  29.365  19.037   6.914
 4336POPC   C4A56358  29.343  19.359   7.180
 4336POPC   C1B56359  28.847  19.600   6.052
 4336POPC   C2B56360  28.827  19.543   6.544
 4336POPC   C3B56361  28.820  19.343   6.974
 4336POPC   C4B56362  28.889  19.459   7.429
 4337POPC   NC356363  29.724  37.261   5.334
 4337POPC   PO456364  29.764  36.595   5.138
 4337POPC   GL156365  29.754  36.807   5.569
 4337POPC   GL256366  29.955  36.629   5.802
 4337POPC   C1A56367  29.699  37.073   5.984
 4337POPC   D2A56368  29.663  37.305   6.427
 4337POPC   C3A56369  29.618  37.127   6.850
 4337POPC   C4A56370  29.773  36.995   7.258
 4337POPC   C1B56371  30.110  36.834   6.160
 4337POPC   C2B56372  29.933  36.860   6.558
 4337POPC   C3B56373  30.142  37.020   6.901
 4337POPC   C4B56374  30.322  36.967   7.291
 4338POPC   NC356375  44.514  18.105   5.362
 4338POPC   PO456376  44.657  18.743   5.331
 4338POPC   GL156377  44.590  18.479   5.704
 4338POPC   GL256378  44.828  18.182   5.755
 4338POPC   C1A56379  44.493  18.362   6.128
 4338POPC   D2A56380  44.593  18.469   6.553
 4338POPC   C3A56381  44.438  18.197   6.880
 4338POPC   C4A56382  44.521  18.250   7.312
 4338POPC   C1B56383   0.000  18.216   6.167
 4338POPC   C2B56384  44.952  18.087   6.601
 4338POPC   C3B56385  44.933  18.205   7.038
 4338POPC   C4B56386  44.896  18.587   7.371
 4339POPC   NC356387  27.421   0.293   5.408
 4339POPC   PO456388  27.232   0.965   5.614
 4339POPC   GL156389  27.386   0.564   5.847
 4339POPC   GL256390  27.276   0.172   5.862
 4339POPC   C1A56391  27.668   0.465   6.197
 4339POPC   D2A56392  27.852   0.630   6.568
 4339POPC   C3A56393  27.761   0.415   6.941
 4339POPC   C4A56394  27.765   0.521   7.359
 4339POPC   C1B56395  27.498  44.982   6.163
 4339POPC   C2B56396  27.529   0.091   6.577
 4339POPC   C3B56397  27.534  44.965   6.996
 4339POPC   C4B56398  27.449   0.140   7.386
 4340POPC   NC356399   7.685  10.389   5.508
 4340POPC   PO456400   7.249  10.891   5.597
 4340POPC   GL156401   7.437  10.690   5.949
 4340POPC   GL256402   7.776  10.571   5.971
 4340POPC   C1A56403   7.465  10.609   6.384
 4340POPC   D2A56404   7.279  10.320   6.663
 4340POPC   C3A56405   7.318  10.495   7.080
 4340POPC   C4A56406   7.258  10.812   7.364
 4340POPC   C1B56407   7.601  10.170   6.143
 4340POPC   C2B56408   7.730  10.000   6.534
 4340POPC   C3B56409   7.723  10.210   6.903
 4340POPC   C4B56410   7.807  10.438   7.238
 4341POPC   NC356411  33.674  10.712   5.394
 4341POPC   PO456412  33.880  10.075   5.234
 4341POPC   GL156413  33.657  10.212   5.624
 4341POPC   GL256414  33.940  10.363   5.757
 4341POPC   C1A56415  33.634  10.182   6.114
 4341POPC   D2A56416  33.804  10.076   6.513
 4341POPC   C3A56417  33.781  10.306   6.922
 4341POPC   C4A56418  33.538  10.273   7.318
 4341POPC   C1B56419  33.797  10.668   6.070
 4341POPC   C2B56420  33.740  10.673   6.507
 4341POPC   C3B56421  33.948  10.823   6.864
 4341POPC   C4B56422  33.733  10.750   7.260
 4342POPC   NC356423   8.221   2.393   5.389
 4342POPC   PO456424   8.214   1.771   5.250
 4342POPC   GL156425   8.261   1.971   5.689
 4342POPC   GL256426   8.582   2.170   5.717
 4342POPC   C1A56427   8.206   1.890   6.158
 4342POPC   D2A56428   8.362   1.758   6.569
 4342POPC   C3A56429   8.055   1.843   6.883
 4342POPC   C4A56430   8.004   1.922   7.306
 4342POPC   C1B56431   8.475   2.319   6.145
 4342POPC   C2B56432   8.231   2.261   6.562
 4342POPC   C3B56433   8.260   2.347   7.025
 4342POPC   C4B56434   8.071   2.433   7.428
 4343POPC   NC356435  25.222   6.917   5.337
 4343POPC   PO456436  25.516   6.397   5.557
 4343POPC   GL156437  25.294   6.720   5.827
 4343POPC   GL256438  25.299   6.438   6.071
 4343POPC   C1A56439  25.069   6.830   6.254
 4343POPC   D2A56440  25.023   6.453   6.540
 4343POPC   C3A56441  25.131   6.478   6.998
 4343POPC   C4A56442  25.183   6.648   7.438
 4343POPC   C1B56443  25.583   6.792   6.244
 4343POPC   C2B56444  25.529   6.957   6.667
 4343POPC   C3B56445  25.510   6.814   7.080
 4343POPC   C4B56446  25.691   6.768   7.495
 4344POPC   NC356447  40.393  31.494   5.331
 4344POPC   PO456448  41.146  31.751   5.434
 4344POPC   GL156449  40.969  31.658   5.789
 4344POPC   GL256450  40.759  31.423   5.700
 4344POPC   C1A56451  41.114  31.404   6.135
 4344POPC   D2A56452  41.275  31.511   6.544
 4344POPC   C3A56453  41.041  31.382   6.909
 4344POPC   C4A56454  40.935  31.563   7.307
 4344POPC   C1B56455  40.599  31.466   6.107
 4344POPC   C2B56456  40.482  31.485   6.546
 4344POPC   C3B56457  40.614  31.706   6.900
 4344POPC   C4B56458  40.454  31.795   7.301
 4345POPC   NC356459  25.674  11.264   5.535
 4345POPC   PO456460  24.996  11.273   5.569
 4345POPC   GL156461  25.276  11.188   5.922
 4345POPC   GL256462  25.516  10.929   5.878
 4345POPC   C1A56463  25.310  11.241   6.375
 4345POPC   D2A56464  25.163  11.079   6.781
 4345POPC   C3A56465  25.199  11.357   7.149
 4345POPC   C4A56466  25.198  11.397   7.594
 4345POPC   C1B56467  25.756  11.046   6.226
 4345POPC   C2B56468  25.649  10.949   6.662
 4345POPC   C3B56469  25.614  11.042   7.085
 4345POPC   C4B56470  25.554  11.012   7.524
 4346POPC   NC356471  44.538   5.122   5.371
 4346POPC   PO456472  44.951   4.648   5.678
 4346POPC   GL156473  44.666   4.910   5.861
 4346POPC   GL256474  44.283   4.920   5.752
 4346POPC   C1A56475  44.798   5.125   6.251
 4346POPC   D2A56476  44.646   5.395   6.549
 4346POPC   C3A56477  44.693   5.267   6.960
 4346POPC   C4A56478  44.920   5.014   7.223
 4346POPC   C1B56479  44.309   5.145   6.135
 4346POPC   C2B56480  44.176   5.070   6.543
 4346POPC   C3B56481  44.336   4.891   6.909
 4346POPC   C4B56482  44.428   4.971   7.336
 4347POPC   NC356483  13.635  18.473   5.409
 4347POPC   PO456484  13.875  17.854   5.267
 4347POPC   GL156485  13.799  18.088   5.735
 4347POPC   GL256486  13.455  18.257   5.844
 4347POPC   C1A56487  13.821  18.465   6.094
 4347POPC   D2A56488  13.823  18.709   6.510
 4347POPC   C3A56489  13.558  18.631   6.893
 4347POPC   C4A56490  13.626  18.491   7.334
 4347POPC   C1B56491  13.454  18.052   6.261
 4347POPC   C2B56492  13.391  18.160   6.726
 4347POPC   C3B56493  13.443  18.041   7.182
 4347POPC   C4B56494  13.783  18.031   7.508
 4348POPC   NC356495  18.309  27.004   5.385
 4348POPC   PO456496  18.349  26.351   5.147
 4348POPC   GL156497  18.307  26.514   5.635
 4348POPC   GL256498  18.058  26.753   5.780
 4348POPC   C1A56499  18.480  26.773   6.045
 4348POPC   D2A56500  18.469  26.989   6.456
 4348POPC   C3A56501  18.369  26.844   6.863
 4348POPC   C4A56502  18.548  26.880   7.253
 4348POPC   C1B56503  17.963  27.015   6.171
 4348POPC   C2B56504  17.979  27.108   6.610
 4348POPC   C3B56505  17.856  27.107   7.025
 4348POPC   C4B56506  18.064  26.895   7.358
 4349POPC   NC356507   0.002  10.030   5.519
 4349POPC   PO456508  44.551   9.663   5.182
 4349POPC   GL156509  44.503   9.825   5.624
 4349POPC   GL256510  44.628   9.545   5.758
 4349POPC   C1A56511  44.380   9.834   6.109
 4349POPC   D2A56512  44.133   9.800   6.528
 4349POPC   C3A56513  44.357   9.781   6.934
 4349POPC   C4A56514  44.420   9.518   7.294
 4349POPC   C1B56515  44.721   9.409   6.175
 4349POPC   C2B56516  44.682   9.527   6.613
 4349POPC   C3B56517  44.844   9.515   7.030
 4349POPC   C4B56518  44.818   9.894   7.246
 4350POPC   NC356519   1.695  42.287   5.359
 4350POPC   PO456520   1.068  42.289   5.294
 4350POPC   GL156521   1.194  42.182   5.708
 4350POPC   GL256522   1.530  42.130   5.821
 4350POPC   C1A56523   1.126  42.048   6.126
 4350POPC   D2A56524   1.310  42.199   6.521
 4350POPC   C3A56525   1.057  42.399   6.858
 4350POPC   C4A56526   0.777  42.248   7.184
 4350POPC   C1B56527   1.683  41.984   6.218
 4350POPC   C2B56528   1.706  41.879   6.668
 4350POPC   C3B56529   1.478  42.115   7.003
 4350POPC   C4B56530   1.429  42.532   7.207
 4351POPC   NC356531  24.118  37.617   5.356
 4351POPC   PO456532  24.601  37.225   5.259
 4351POPC   GL156533  24.400  37.341   5.714
 4351POPC   GL256534  24.421  37.727   5.737
 4351POPC   C1A56535  24.402  37.535   6.193
 4351POPC   D2A56536  24.289  37.588   6.656
 4351POPC   C3A56537  24.656  37.616   6.956
 4351POPC   C4A56538  24.695  37.522   7.397
 4351POPC   C1B56539  24.367  38.048   6.062
 4351POPC   C2B56540  24.444  38.033   6.453
 4351POPC   C3B56541  24.407  38.099   6.858
 4351POPC   C4B56542  24.359  37.925   7.250
 4352POPC   NC356543  28.314  19.342   5.468
 4352POPC   PO456544  28.332  19.982   5.421
 4352POPC   GL156545  28.447  19.770   5.800
 4352POPC   GL256546  28.150  19.850   5.943
 4352POPC   C1A56547  28.482  19.839   6.316
 4352POPC   D2A56548  28.334  19.986   6.721
 4352POPC   C3A56549  28.623  20.022   7.051
 4352POPC   C4A56550  28.496  20.082   7.472
 4352POPC   C1B56551  28.278  19.437   6.134
 4352POPC   C2B56552  28.341  19.405   6.610
 4352POPC   C3B56553  28.372  19.571   7.065
 4352POPC   C4B56554  28.048  19.393   7.324
 4353POPC   NC356555  40.421  17.991   5.073
 4353POPC   PO456556  40.224  18.463   5.534
 4353POPC   GL156557  39.949  18.200   5.791
 4353POPC   GL256558  40.171  18.040   6.031
 4353POPC   C1A56559  39.636  18.151   6.122
 4353POPC   D2A56560  39.524  18.313   6.542
 4353POPC   C3A56561  39.754  18.204   6.925
 4353POPC   C4A56562  39.609  18.007   7.338
 4353POPC   C1B56563  40.071  18.245   6.377
 4353POPC   C2B56564  40.324  18.390   6.673
 4353POPC   C3B56565  40.349  18.447   7.072
 4353POPC   C4B56566  40.061  18.314   7.320
 4354POPC   NC356567  19.934  17.795   5.357
 4354POPC   PO456568  20.250  17.170   5.383
 4354POPC   GL156569  20.016  17.438   5.699
 4354POPC   GL256570  19.854  17.183   5.831
 4354POPC   C1A56571  19.873  17.648   6.097
 4354POPC   D2A56572  19.632  17.479   6.490
 4354POPC   C3A56573  19.786  17.502   6.920
 4354POPC   C4A56574  19.885  17.602   7.357
 4354POPC   C1B56575  19.972  17.185   6.249
 4354POPC   C2B56576  19.933  17.076   6.645
 4354POPC   C3B56577  20.077  17.105   7.057
 4354POPC   C4B56578  19.671  17.006   7.094
 4355POPC   NC356579  18.881  29.695   5.647
 4355POPC   PO456580  19.348  30.141   5.391
 4355POPC   GL156581  19.110  30.127   5.779
 4355POPC   GL256582  18.888  30.362   5.923
 4355POPC   C1A56583  19.172  29.942   6.180
 4355POPC   D2A56584  19.030  29.787   6.562
 4355POPC   C3A56585  19.031  29.983   6.961
 4355POPC   C4A56586  19.249  29.938   7.346
 4355POPC   C1B56587  18.743  30.176   6.333
 4355POPC   C2B56588  18.540  29.891   6.645
 4355POPC   C3B56589  18.702  29.581   6.933
 4355POPC   C4B56590  18.760  29.739   7.352
 4356POPC   NC356591  20.057   9.381   5.312
 4356POPC   PO456592  19.675   9.920   5.452
 4356POPC   GL156593  19.793   9.773   5.881
 4356POPC   GL256594  20.062   9.553   5.819
 4356POPC   C1A56595  19.773   9.655   6.334
 4356POPC   D2A56596  19.771   9.521   6.772
 4356POPC   C3A56597  19.595   9.815   7.039
 4356POPC   C4A56598  19.751  10.182   7.242
 4356POPC   C1B56599  20.015   9.249   6.150
 4356POPC   C2B56600  20.177   9.198   6.583
 4356POPC   C3B56601  20.089   9.223   7.023
 4356POPC   C4B56602  20.030   9.643   7.240
 4357POPC   NC356603  32.537  11.711   5.456
 4357POPC   PO456604  31.946  11.922   5.403
 4357POPC   GL156605  32.170  11.924   5.790
 4357POPC   GL256606  32.290  12.267   5.711
 4357POPC   C1A56607  32.412  11.729   6.165
 4357POPC   D2A56608  32.608  11.760   6.592
 4357POPC   C3A56609  32.320  11.973   6.875
 4357POPC   C4A56610  31.984  11.898   7.166
 4357POPC   C1B56611  32.546  12.227   6.088
 4357POPC   C2B56612  32.625  12.381   6.518
 4357POPC   C3B56613  32.689  12.344   6.947
 4357POPC   C4B56614  32.325  12.340   7.254
 4358POPC   NC356615   8.342  21.029   5.451
 4358POPC   PO456616   8.082  21.669   5.445
 4358POPC   GL156617   8.157  21.434   5.845
 4358POPC   GL256618   8.380  21.152   5.928
 4358POPC   C1A56619   7.949  21.366   6.271
 4358POPC   D2A56620   7.797  21.404   6.702
 4358POPC   C3A56621   8.153  21.510   6.941
 4358POPC   C4A56622   8.280  21.452   7.351
 4358POPC   C1B56623   8.377  21.121   6.336
 4358POPC   C2B56624   8.215  21.077   6.709
 4358POPC   C3B56625   8.445  21.070   7.072
 4358POPC   C4B56626   8.528  20.987   7.502
 4359POPC   NC356627  32.038  39.617   5.430
 4359POPC   PO456628  32.423  40.147   5.410
 4359POPC   GL156629  32.324  39.889   5.767
 4359POPC   GL256630  32.002  40.029   5.765
 4359POPC   C1A56631  32.248  39.906   6.212
 4359POPC   D2A56632  32.240  40.238   6.530
 4359POPC   C3A56633  32.220  40.021   6.919
 4359POPC   C4A56634  32.387  39.870   7.287
 4359POPC   C1B56635  32.103  40.375   6.045
 4359POPC   C2B56636  31.892  40.593   6.417
 4359POPC   C3B56637  31.862  40.390   6.828
 4359POPC   C4B56638  32.051  40.365   7.253
 4360POPC   NC356639  34.452  18.213   5.311
 4360POPC   PO456640  34.998  18.127   5.674
 4360POPC   GL156641  34.645  18.324   5.811
 4360POPC   GL256642  34.782  18.644   5.885
 4360POPC   C1A56643  34.377  18.424   6.179
 4360POPC   D2A56644  34.227  18.289   6.591
 4360POPC   C3A56645  34.482  18.426   6.948
 4360POPC   C4A56646  34.726  18.203   7.237
 4360POPC   C1B56647  34.900  18.389   6.275
 4360POPC   C2B56648  34.948  18.295   6.706
 4360POPC   C3B56649  35.175  18.283   7.057
 4360POPC   C4B56650  35.131  18.469   7.497
 4361POPC   NC356651   7.989  23.202   5.421
 4361POPC   PO456652   8.094  22.581   5.587
 4361POPC   GL156653   8.301  22.801   5.874
 4361POPC   GL256654   8.016  22.999   5.889
 4361POPC   C1A56655   8.463  22.756   6.262
 4361POPC   D2A56656   8.609  22.990   6.564
 4361POPC   C3A56657   8.463  23.026   6.996
 4361POPC   C4A56658   8.611  22.715   7.247
 4361POPC   C1B56659   7.989  22.929   6.308
 4361POPC   C2B56660   8.063  22.902   6.700
 4361POPC   C3B56661   7.895  23.079   7.051
 4361POPC   C4B56662   7.918  23.153   7.498
 4362POPC   NC356663  11.586  20.190   5.545
 4362POPC   PO456664  11.481  20.800   5.330
 4362POPC   GL156665  11.340  20.596   5.750
 4362POPC   GL256666  11.120  20.334   5.897
 4362POPC   C1A56667  11.224  20.756   6.160
 4362POPC   D2A56668  11.194  20.718   6.577
 4362POPC   C3A56669  11.250  20.411   6.898
 4362POPC   C4A56670  11.515  20.521   7.252
 4362POPC   C1B56671  11.474  20.324   6.195
 4362POPC   C2B56672  11.550  20.127   6.564
 4362POPC   C3B56673  11.737  20.201   6.932
 4362POPC   C4B56674  11.704  20.050   7.344
 4363POPC   NC356675  23.334   0.381   5.433
 4363POPC   PO456676  23.942   0.213   5.378
 4363POPC   GL156677  23.732   0.445   5.771
 4363POPC   GL256678  23.397   0.650   5.844
 4363POPC   C1A56679  23.754   0.556   6.217
 4363POPC   D2A56680  24.098   0.659   6.527
 4363POPC   C3A56681  23.988   0.565   6.939
 4363POPC   C4A56682  23.730   0.438   7.263
 4363POPC   C1B56683  23.286   0.322   6.145
 4363POPC   C2B56684  23.288   0.440   6.558
 4363POPC   C3B56685  23.340   0.315   6.964
 4363POPC   C4B56686  23.258   0.578   7.343
 4364POPC   NC356687  21.196   7.296   5.382
 4364POPC   PO456688  21.683   7.724   5.471
 4364POPC   GL156689  21.486   7.455   5.808
 4364POPC   GL256690  21.280   7.147   5.842
 4364POPC   C1A56691  21.318   7.600   6.207
 4364POPC   D2A56692  21.348   7.574   6.660
 4364POPC   C3A56693  21.294   7.775   7.054
 4364POPC   C4A56694  21.338   7.465   7.382
 4364POPC   C1B56695  21.412   7.058   6.241
 4364POPC   C2B56696  21.599   7.120   6.635
 4364POPC   C3B56697  21.377   7.097   6.996
 4364POPC   C4B56698  21.264   6.940   7.367
 4365POPC   NC356699  42.628  36.021   5.653
 4365POPC   PO456700  43.245  35.849   5.430
 4365POPC   GL156701  43.128  36.057   5.808
 4365POPC   GL256702  43.204  36.431   5.854
 4365POPC   C1A56703  43.130  36.108   6.250
 4365POPC   D2A56704  43.265  36.411   6.519
 4365POPC   C3A56705  43.149  36.232   6.893
 4365POPC   C4A56706  43.234  36.402   7.287
 4365POPC   C1B56707  42.871  36.541   6.174
 4365POPC   C2B56708  42.748  36.425   6.614
 4365POPC   C3B56709  42.803  36.583   7.023
 4365POPC   C4B56710  42.764  36.499   7.448
 4366POPC   NC356711   1.969   3.285   5.464
 4366POPC   PO456712   2.379   3.727   5.223
 4366POPC   GL156713   2.200   3.695   5.712
 4366POPC   GL256714   1.857   3.601   5.859
 4366POPC   C1A56715   2.235   3.602   6.193
 4366POPC   D2A56716   2.111   3.417   6.577
 4366POPC   C3A56717   1.779   3.573   6.804
 4366POPC   C4A56718   1.920   3.624   7.195
 4366POPC   C1B56719   1.864   3.233   6.171
 4366POPC   C2B56720   1.622   3.105   6.522
 4366POPC   C3B56721   1.465   3.187   6.924
 4366POPC   C4B56722   1.616   3.240   7.350
 4367POPC   NC356723  43.077  24.463   5.221
 4367POPC   PO456724  43.398  23.996   5.518
 4367POPC   GL156725  43.052  24.247   5.760
 4367POPC   GL256726  42.949  24.625   5.762
 4367POPC   C1A56727  42.961  24.316   6.219
 4367POPC   D2A56728  42.967  24.170   6.659
 4367POPC   C3A56729  43.254  24.375   6.948
 4367POPC   C4A56730  43.048  24.464   7.331
 4367POPC   C1B56731  43.067  24.850   6.176
 4367POPC   C2B56732  43.259  24.772   6.590
 4367POPC   C3B56733  43.378  24.997   6.977
 4367POPC   C4B56734  43.466  24.720   7.269
 4368POPC   NC356735   1.391  25.261   5.258
 4368POPC   PO456736   1.218  25.784   5.639
 4368POPC   GL156737   1.258  25.300   5.759
 4368POPC   GL256738   1.070  25.004   5.624
 4368POPC   C1A56739   1.492  25.030   6.071
 4368POPC   D2A56740   1.596  25.213   6.491
 4368POPC   C3A56741   1.278  25.246   6.822
 4368POPC   C4A56742   1.381  25.111   7.219
 4368POPC   C1B56743   0.974  24.992   6.084
 4368POPC   C2B56744   1.037  24.877   6.543
 4368POPC   C3B56745   0.844  24.938   6.946
 4368POPC   C4B56746   0.857  25.259   7.270
 4369POPC   NC356747  17.365   7.799   5.418
 4369POPC   PO456748  17.837   7.337   5.668
 4369POPC   GL156749  17.662   7.679   5.827
 4369POPC   GL256750  17.358   7.457   5.875
 4369POPC   C1A56751  17.487   7.770   6.229
 4369POPC   D2A56752  17.498   7.522   6.577
 4369POPC   C3A56753  17.402   7.649   6.977
 4369POPC   C4A56754  17.517   7.423   7.356
 4369POPC   C1B56755  17.142   7.300   6.285
 4369POPC   C2B56756  17.092   7.243   6.775
 4369POPC   C3B56757  17.018   7.368   7.226
 4369POPC   C4B56758  17.091   7.085   7.592
 4370POPC   NC356759   4.731  25.459   5.112
 4370POPC   PO456760   4.072  25.425   5.349
 4370POPC   GL156761   4.290  25.321   5.773
 4370POPC   GL256762   4.649  25.307   5.668
 4370POPC   C1A56763   4.394  25.148   6.246
 4370POPC   D2A56764   4.381  24.970   6.706
 4370POPC   C3A56765   4.179  25.240   7.043
 4370POPC   C4A56766   3.830  25.500   7.099
 4370POPC   C1B56767   4.795  25.447   6.088
 4370POPC   C2B56768   4.667  25.495   6.516
 4370POPC   C3B56769   4.721  25.346   6.873
 4370POPC   C4B56770   4.633  25.290   7.248
 4371POPC   NC356771  44.568  29.438   5.431
 4371POPC   PO456772  44.943  28.993   5.303
 4371POPC   GL156773  44.727  29.011   5.729
 4371POPC   GL256774  44.489  29.213   5.859
 4371POPC   C1A56775  44.848  28.984   6.170
 4371POPC   D2A56776   0.115  29.086   6.520
 4371POPC   C3A56777  44.974  28.942   6.939
 4371POPC   C4A56778  44.886  29.144   7.348
 4371POPC   C1B56779  44.406  29.278   6.244
 4371POPC   C2B56780  44.556  29.132   6.601
 4371POPC   C3B56781  44.487  29.102   6.999
 4371POPC   C4B56782  44.488  29.425   7.230
 4372POPC   NC356783  37.391  20.378   5.446
 4372POPC   PO456784  36.650  20.393   5.348
 4372POPC   GL156785  36.933  20.556   5.696
 4372POPC   GL256786  36.904  20.922   5.772
 4372POPC   C1A56787  37.180  20.543   6.102
 4372POPC   D2A56788  37.200  20.356   6.528
 4372POPC   C3A56789  37.168  20.547   6.950
 4372POPC   C4A56790  37.034  20.496   7.391
 4372POPC   C1B56791  36.731  20.813   6.157
 4372POPC   C2B56792  36.886  20.787   6.597
 4372POPC   C3B56793  36.708  20.714   7.040
 4372POPC   C4B56794  36.433  20.905   7.334
 4373POPC   NC356795  29.311  41.790   5.412
 4373POPC   PO456796  28.831  41.397   5.621
 4373POPC   GL156797  29.109  41.652   5.875
 4373POPC   GL256798  29.456  41.478   5.796
 4373POPC   C1A56799  29.032  41.844   6.289
 4373POPC   D2A56800  28.879  41.619   6.652
 4373POPC   C3A56801  29.067  41.607   7.066
 4373POPC   C4A56802  28.940  41.469   7.489
 4373POPC   C1B56803  29.517  41.677   6.202
 4373POPC   C2B56804  29.399  41.769   6.651
 4373POPC   C3B56805  29.527  41.860   7.091
 4373POPC   C4B56806  29.264  41.962   7.423
 4374POPC   NC356807   5.668  10.517   5.622
 4374POPC   PO456808   6.335  10.671   5.561
 4374POPC   GL156809   6.075  10.690   5.918
 4374POPC   GL256810   6.004  10.302   5.937
 4374POPC   C1A56811   5.986  10.586   6.353
 4374POPC   D2A56812   5.912  10.297   6.645
 4374POPC   C3A56813   5.870  10.529   7.005
 4374POPC   C4A56814   5.782  10.922   7.171
 4374POPC   C1B56815   5.639  10.182   6.219
 4374POPC   C2B56816   5.407  10.239   6.619
 4374POPC   C3B56817   5.606  10.075   7.009
 4374POPC   C4B56818   5.776  10.219   7.390
 4375POPC   NC356819  39.565  31.898   5.059
 4375POPC   PO456820  39.932  31.329   5.287
 4375POPC   GL156821  40.140  31.520   5.751
 4375POPC   GL256822  40.294  31.215   5.784
 4375POPC   C1A56823  40.127  31.754   6.167
 4375POPC   D2A56824  40.187  31.927   6.623
 4375POPC   C3A56825  40.046  31.688   6.999
 4375POPC   C4A56826  39.775  31.342   7.195
 4375POPC   C1B56827  40.171  31.233   6.221
 4375POPC   C2B56828  39.943  31.436   6.533
 4375POPC   C3B56829  40.111  31.199   6.830
 4375POPC   C4B56830  40.361  31.307   7.155
 4376POPC   NC356831  41.614  30.366   5.512
 4376POPC   PO456832  41.160  30.818   5.588
 4376POPC   GL156833  41.233  30.449   5.840
 4376POPC   GL256834  41.057  30.580   6.079
 4376POPC   C1A56835  41.528  30.345   6.180
 4376POPC   D2A56836  41.576  30.549   6.585
 4376POPC   C3A56837  41.543  30.386   6.994
 4376POPC   C4A56838  41.476  30.586   7.385
 4376POPC   C1B56839  41.352  30.911   6.205
 4376POPC   C2B56840  41.484  31.050   6.597
 4376POPC   C3B56841  41.606  30.919   6.994
 4376POPC   C4B56842  41.280  31.059   7.235
 4377POPC   NC356843  42.721  38.470   5.289
 4377POPC   PO456844  43.399  38.692   5.203
 4377POPC   GL156845  43.142  38.704   5.632
 4377POPC   GL256846  42.786  38.846   5.690
 4377POPC   C1A56847  42.948  38.438   6.006
 4377POPC   D2A56848  42.945  38.112   6.388
 4377POPC   C3A56849  43.143  38.265   6.796
 4377POPC   C4A56850  43.423  38.234   7.178
 4377POPC   C1B56851  42.581  38.802   6.100
 4377POPC   C2B56852  42.726  38.604   6.488
 4377POPC   C3B56853  42.797  38.640   6.941
 4377POPC   C4B56854  43.130  38.660   7.238
 4378POPC   NC356855  32.944  38.240   5.258
 4378POPC   PO456856  32.877  38.925   5.367
 4378POPC   GL156857  32.951  38.632   5.744
 4378POPC   GL256858  32.838  38.269   5.806
 4378POPC   C1A56859  33.015  38.611   6.204
 4378POPC   D2A56860  33.177  38.410   6.609
 4378POPC   C3A56861  33.251  38.690   6.949
 4378POPC   C4A56862  33.231  38.743   7.403
 4378POPC   C1B56863  33.026  38.093   6.216
 4378POPC   C2B56864  32.956  37.854   6.602
 4378POPC   C3B56865  32.880  38.088   6.933
 4378POPC   C4B56866  33.092  38.285   7.223
 4379POPC   NC356867  35.617   2.887   5.321
 4379POPC   PO456868  34.994   2.843   5.430
 4379POPC   GL156869  35.264   2.954   5.831
 4379POPC   GL256870  35.543   2.712   5.882
 4379POPC   C1A56871  35.409   2.932   6.325
 4379POPC   D2A56872  35.491   2.678   6.726
 4379POPC   C3A56873  35.364   2.816   7.142
 4379POPC   C4A56874  35.106   2.762   7.494
 4379POPC   C1B56875  35.729   2.510   6.296
 4379POPC   C2B56876  35.915   2.393   6.738
 4379POPC   C3B56877  35.674   2.390   7.132
 4379POPC   C4B56878  35.620   2.595   7.552
 4380POPC   NC356879  39.509   8.001   5.520
 4380POPC   PO456880  38.996   8.420   5.613
 4380POPC   GL156881  39.099   8.068   5.874
 4380POPC   GL256882  39.383   8.263   5.947
 4380POPC   C1A56883  39.011   8.029   6.323
 4380POPC   D2A56884  38.899   8.248   6.733
 4380POPC   C3A56885  39.204   8.183   7.082
 4380POPC   C4A56886  39.275   8.313   7.536
 4380POPC   C1B56887  39.527   8.055   6.299
 4380POPC   C2B56888  39.653   8.074   6.699
 4380POPC   C3B56889  39.676   7.909   7.071
 4380POPC   C4B56890  39.435   7.869   7.421
 4381POPC   NC356891   2.346  35.641   5.584
 4381POPC   PO456892   2.125  36.299   5.426
 4381POPC   GL156893   2.140  36.085   5.824
 4381POPC   GL256894   1.786  36.022   5.909
 4381POPC   C1A56895   2.294  36.324   6.201
 4381POPC   D2A56896   2.363  36.384   6.645
 4381POPC   C3A56897   2.152  36.042   6.779
 4381POPC   C4A56898   1.897  35.885   7.123
 4381POPC   C1B56899   1.699  35.694   6.222
 4381POPC   C2B56900   1.700  35.816   6.661
 4381POPC   C3B56901   1.725  36.288   6.870
 4381POPC   C4B56902   2.023  36.595   7.056
 4382POPC   NC356903  35.822  24.115   5.076
 4382POPC   PO456904  36.049  23.545   5.282
 4382POPC   GL156905  36.050  23.608   5.715
 4382POPC   GL256906  35.748  23.446   5.792
 4382POPC   C1A56907  36.286  23.634   6.103
 4382POPC   D2A56908  36.266  23.470   6.519
 4382POPC   C3A56909  36.188  23.772   6.855
 4382POPC   C4A56910  36.419  23.845   7.213
 4382POPC   C1B56911  35.826  23.400   6.219
 4382POPC   C2B56912  35.739  23.588   6.619
 4382POPC   C3B56913  35.726  23.557   7.053
 4382POPC   C4B56914  35.840  23.304   7.406
 4383POPC   NC356915  34.942  23.671   5.245
 4383POPC   PO456916  34.387  23.403   5.466
 4383POPC   GL156917  34.483  23.740   5.751
 4383POPC   GL256918  34.747  23.987   5.623
 4383POPC   C1A56919  34.409  23.653   6.197
 4383POPC   D2A56920  34.288  23.462   6.589
 4383POPC   C3A56921  34.463  23.686   6.938
 4383POPC   C4A56922  34.778  23.594   7.216
 4383POPC   C1B56923  34.867  23.904   6.075
 4383POPC   C2B56924  34.714  23.916   6.509
 4383POPC   C3B56925  34.875  23.979   6.893
 4383POPC   C4B56926  34.784  24.165   7.297
 4384POPC   NC356927  33.823   1.419   5.375
 4384POPC   PO456928  33.855   0.756   5.354
 4384POPC   GL156929  33.764   0.935   5.778
 4384POPC   GL256930  33.817   1.289   5.862
 4384POPC   C1A56931  33.669   1.001   6.247
 4384POPC   D2A56932  33.713   1.285   6.616
 4384POPC   C3A56933  33.697   1.051   6.959
 4384POPC   C4A56934  33.964   1.008   7.319
 4384POPC   C1B56935  33.997   1.458   6.235
 4384POPC   C2B56936  34.185   1.492   6.669
 4384POPC   C3B56937  33.979   1.470   7.064
 4384POPC   C4B56938  34.133   1.616   7.439
 4385POPC   NC356939  10.936  38.444   5.321
 4385POPC   PO456940  10.295  38.315   5.371
 4385POPC   GL156941  10.568  38.410   5.734
 4385POPC   GL256942  10.687  38.749   5.838
 4385POPC   C1A56943  10.464  38.421   6.180
 4385POPC   D2A56944  10.638  38.366   6.591
 4385POPC   C3A56945  10.376  38.522   6.887
 4385POPC   C4A56946  10.185  38.513   7.259
 4385POPC   C1B56947  10.874  38.750   6.284
 4385POPC   C2B56948  10.804  38.866   6.742
 4385POPC   C3B56949  10.735  38.777   7.194
 4385POPC   C4B56950  10.935  38.887   7.615
 4386POPC   NC356951  32.608  23.568   5.288
 4386POPC   PO456952  32.084  23.888   5.408
 4386POPC   GL156953  32.059  23.634   5.802
 4386POPC   GL256954  32.348  23.383   5.780
 4386POPC   C1A56955  32.169  23.554   6.258
 4386POPC   D2A56956  32.228  23.771   6.646
 4386POPC   C3A56957  31.975  23.595   6.938
 4386POPC   C4A56958  32.105  23.549   7.332
 4386POPC   C1B56959  32.606  23.297   6.161
 4386POPC   C2B56960  32.613  23.451   6.576
 4386POPC   C3B56961  32.480  23.416   7.016
 4386POPC   C4B56962  32.572  23.419   7.507
 4387POPC   NC356963  21.903   7.233   5.430
 4387POPC   PO456964  22.559   7.416   5.373
 4387POPC   GL156965  22.283   7.304   5.762
 4387POPC   GL256966  22.005   7.504   5.850
 4387POPC   C1A56967  22.317   7.271   6.212
 4387POPC   D2A56968  22.191   7.177   6.618
 4387POPC   C3A56969  22.456   7.273   6.934
 4387POPC   C4A56970  22.212   7.356   7.250
 4387POPC   C1B56971  21.810   7.438   6.237
 4387POPC   C2B56972  21.862   7.567   6.641
 4387POPC   C3B56973  21.737   7.474   7.046
 4387POPC   C4B56974  21.734   7.809   7.336
 4388POPC   NC356975  11.114  33.546   5.409
 4388POPC   PO456976  11.309  34.153   5.325
 4388POPC   GL156977  11.294  33.907   5.730
 4388POPC   GL256978  11.490  33.623   5.748
 4388POPC   C1A56979  11.363  33.849   6.199
 4388POPC   D2A56980  11.549  33.933   6.626
 4388POPC   C3A56981  11.295  33.764   6.983
 4388POPC   C4A56982  11.009  33.997   7.248
 4388POPC   C1B56983  11.701  33.451   6.102
 4388POPC   C2B56984  11.815  33.498   6.546
 4388POPC   C3B56985  11.605  33.341   6.956
 4388POPC   C4B56986  11.452  33.461   7.391
 4389POPC   NC356987   1.884  24.471   5.456
 4389POPC   PO456988   2.516  24.552   5.208
 4389POPC   GL156989   2.355  24.418   5.695
 4389POPC   GL256990   2.057  24.288   5.890
 4389POPC   C1A56991   2.366  24.450   6.227
 4389POPC   D2A56992   2.092  24.579   6.593
 4389POPC   C3A56993   2.100  24.506   6.993
 4389POPC   C4A56994   1.807  24.821   7.114
 4389POPC   C1B56995   1.785  24.398   6.238
 4389POPC   C2B56996   1.702  24.238   6.684
 4389POPC   C3B56997   1.672  24.269   7.147
 4389POPC   C4B56998   1.692  24.113   7.566
 4390POPC   NC356999   3.115  14.062   5.333
 4390POPC   PO457000   2.530  14.355   5.226
 4390POPC   GL157001   2.687  14.390   5.691
 4390POPC   GL257002   2.976  14.186   5.803
 4390POPC   C1A57003   2.581  14.238   6.134
 4390POPC   D2A57004   2.822  14.121   6.526
 4390POPC   C3A57005   2.611  14.056   6.939
 4390POPC   C4A57006   2.524  14.333   7.284
 4390POPC   C1B57007   3.057  14.444   6.157
 4390POPC   C2B57008   3.220  14.511   6.552
 4390POPC   C3B57009   2.972  14.464   6.902
 4390POPC   C4B57010   3.008  14.239   7.246
 4391POPC   NC357011   4.413   1.654   5.293
 4391POPC   PO457012   4.117   2.178   5.543
 4391POPC   GL157013   4.275   1.924   5.884
 4391POPC   GL257014   4.589   1.806   5.765
 4391POPC   C1A57015   4.366   2.004   6.337
 4391POPC   D2A57016   4.288   2.345   6.662
 4391POPC   C3A57017   4.248   2.167   7.064
 4391POPC   C4A57018   3.948   1.806   7.120
 4391POPC   C1B57019   4.699   1.639   6.166
 4391POPC   C2B57020   4.818   1.763   6.570
 4391POPC   C3B57021   4.433   1.758   6.799
 4391POPC   C4B57022   4.433   1.703   7.219
 4392POPC   NC357023  22.739  19.195   5.457
 4392POPC   PO457024  23.350  18.978   5.352
 4392POPC   GL157025  23.159  18.967   5.773
 4392POPC   GL257026  22.791  18.916   5.877
 4392POPC   C1A57027  23.168  19.088   6.206
 4392POPC   D2A57028  23.346  19.125   6.597
 4392POPC   C3A57029  22.979  19.213   6.866
 4392POPC   C4A57030  22.975  19.340   7.247
 4392POPC   C1B57031  22.670  19.001   6.309
 4392POPC   C2B57032  22.919  18.795   6.591
 4392POPC   C3B57033  22.873  18.640   6.983
 4392POPC   C4B57034  22.858  18.850   7.352
 4393POPC   NC357035  12.843  32.027   5.328
 4393POPC   PO457036  12.688  32.662   5.544
 4393POPC   GL157037  12.936  32.376   5.805
 4393POPC   GL257038  13.049  32.004   5.791
 4393POPC   C1A57039  12.969  32.394   6.238
 4393POPC   D2A57040  13.098  32.578   6.636
 4393POPC   C3A57041  12.870  32.402   6.997
 4393POPC   C4A57042  12.540  32.222   7.245
 4393POPC   C1B57043  13.213  31.969   6.214
 4393POPC   C2B57044  13.045  32.054   6.606
 4393POPC   C3B57045  13.221  32.052   6.981
 4393POPC   C4B57046  12.981  32.023   7.351
 4394POPC   NC357047  16.111  23.796   5.318
 4394POPC   PO457048  15.658  23.286   5.415
 4394POPC   GL157049  15.949  23.498   5.721
 4394POPC   GL257050  15.885  23.894   5.749
 4394POPC   C1A57051  16.083  23.658   6.139
 4394POPC   D2A57052  15.889  23.739   6.521
 4394POPC   C3A57053  16.104  23.689   6.892
 4394POPC   C4A57054  15.919  23.489   7.250
 4394POPC   C1B57055  15.714  24.049   6.122
 4394POPC   C2B57056  15.798  24.248   6.504
 4394POPC   C3B57057  15.783  24.247   6.920
 4394POPC   C4B57058  15.986  24.027   7.256
 4395POPC   NC357059   1.880  32.736   5.288
 4395POPC   PO457060   2.225  33.304   5.232
 4395POPC   GL157061   2.111  33.116   5.632
 4395POPC   GL257062   1.775  33.088   5.656
 4395POPC   C1A57063   2.209  33.043   6.070
 4395POPC   D2A57064   2.343  32.845   6.456
 4395POPC   C3A57065   2.101  33.028   6.803
 4395POPC   C4A57066   2.246  33.226   7.178
 4395POPC   C1B57067   1.683  32.977   6.074
 4395POPC   C2B57068   1.649  32.948   6.514
 4395POPC   C3B57069   1.598  32.776   6.913
 4395POPC   C4B57070   1.755  33.075   7.199
 4396POPC   NC357071  29.425  44.924   5.571
 4396POPC   PO457072  29.062  44.394   5.444
 4396POPC   GL157073  29.109  44.574   5.817
 4396POPC   GL257074  28.940  44.928   5.779
 4396POPC   C1A57075  28.943  44.447   6.225
 4396POPC   D2A57076  28.890  44.486   6.639
 4396POPC   C3A57077  29.223  44.488   6.926
 4396POPC   C4A57078  29.171  44.443   7.356
 4396POPC   C1B57079  29.107  44.917   6.189
 4396POPC   C2B57080  28.944  44.982   6.572
 4396POPC   C3B57081  29.184  44.992   6.915
 4396POPC   C4B57082  29.120   0.023   7.351
 4397POPC   NC357083  13.509  17.570   5.157
 4397POPC   PO457084  13.829  17.190   5.565
 4397POPC   GL157085  13.655  17.451   5.871
 4397POPC   GL257086  13.794  17.209   6.066
 4397POPC   C1A57087  13.393  17.480   6.233
 4397POPC   D2A57088  13.343  17.664   6.616
 4397POPC   C3A57089  13.701  17.723   6.830
 4397POPC   C4A57090  13.716  17.613   7.239
 4397POPC   C1B57091  13.993  17.240   6.420
 4397POPC   C2B57092  13.652  17.183   6.658
 4397POPC   C3B57093  13.658  17.138   7.053
 4397POPC   C4B57094  14.017  17.187   7.314
 4398POPC   NC357095  15.468  39.635   5.136
 4398POPC   PO457096  15.005  39.161   5.256
 4398POPC   GL157097  15.098  39.111   5.709
 4398POPC   GL257098  15.413  39.274   5.743
 4398POPC   C1A57099  15.308  38.875   6.073
 4398POPC   D2A57100  15.260  38.734   6.511
 4398POPC   C3A57101  15.088  38.985   6.852
 4398POPC   C4A57102  15.194  38.954   7.314
 4398POPC   C1B57103  15.298  39.382   6.168
 4398POPC   C2B57104  15.484  39.247   6.553
 4398POPC   C3B57105  15.478  39.279   7.007
 4398POPC   C4B57106  15.049  39.412   7.145
 4399POPC   NC357107   6.082   6.566   5.181
 4399POPC   PO457108   5.557   6.988   5.263
 4399POPC   GL157109   5.709   6.775   5.683
 4399POPC   GL257110   6.084   6.713   5.673
 4399POPC   C1A57111   5.698   6.881   6.179
 4399POPC   D2A57112   5.649   7.035   6.653
 4399POPC   C3A57113   5.616   6.823   7.110
 4399POPC   C4A57114   5.575   6.685   7.592
 4399POPC   C1B57115   6.206   6.865   6.061
 4399POPC   C2B57116   6.099   6.769   6.490
 4399POPC   C3B57117   6.083   6.692   6.937
 4399POPC   C4B57118   6.021   6.605   7.361
 4400POPC   NC357119  39.780  10.324   5.463
 4400POPC   PO457120  39.899  10.999   5.421
 4400POPC   GL157121  39.998  10.687   5.755
 4400POPC   GL257122  40.330  10.516   5.767
 4400POPC   C1A57123  40.001  10.491   6.157
 4400POPC   D2A57124  39.839  10.358   6.550
 4400POPC   C3A57125  39.914  10.664   6.797
 4400POPC   C4A57126  39.981  10.633   7.210
 4400POPC   C1B57127  40.442  10.223   6.124
 4400POPC   C2B57128  40.307  10.093   6.539
 4400POPC   C3B57129  40.246  10.287   6.932
 4400POPC   C4B57130  40.311  10.159   7.359
 4401POPC   NC357131  23.376  26.563   5.459
 4401POPC   PO457132  23.514  25.872   5.392
 4401POPC   GL157133  23.579  26.122   5.807
 4401POPC   GL257134  23.846  26.365   5.896
 4401POPC   C1A57135  23.433  26.027   6.242
 4401POPC   D2A57136  23.565  26.036   6.691
 4401POPC   C3A57137  23.498  26.176   7.127
 4401POPC   C4A57138  23.676  25.945   7.497
 4401POPC   C1B57139  23.793  26.385   6.367
 4401POPC   C2B57140  23.832  26.459   6.843
 4401POPC   C3B57141  24.015  26.195   7.210
 4401POPC   C4B57142  24.036  26.298   7.683
 4402POPC   NC357143  21.179  22.905   5.353
 4402POPC   PO457144  21.665  22.477   5.196
 4402POPC   GL157145  21.654  22.732   5.653
 4402POPC   GL257146  21.496  23.073   5.721
 4402POPC   C1A57147  21.465  22.729   6.107
 4402POPC   D2A57148  21.559  22.690   6.560
 4402POPC   C3A57149  21.249  22.796   6.877
 4402POPC   C4A57150  21.451  22.897   7.231
 4402POPC   C1B57151  21.601  23.279   6.113
 4402POPC   C2B57152  21.594  23.509   6.515
 4402POPC   C3B57153  21.514  23.288   6.904
 4402POPC   C4B57154  21.118  23.275   7.116
 4403POPC   NC357155   0.909  42.785   5.372
 4403POPC   PO457156   1.503  43.169   5.484
 4403POPC   GL157157   1.455  42.976   5.851
 4403POPC   GL257158   1.474  42.639   5.708
 4403POPC   C1A57159   1.298  43.099   6.282
 4403POPC   D2A57160   0.972  43.272   6.577
 4403POPC   C3A57161   1.141  43.411   6.959
 4403POPC   C4A57162   1.079  43.306   7.381
 4403POPC   C1B57163   1.301  42.568   6.135
 4403POPC   C2B57164   1.417  42.693   6.582
 4403POPC   C3B57165   1.218  42.908   6.936
 4403POPC   C4B57166   0.973  42.794   7.272
 4404POPC   NC357167  43.356  25.965   5.407
 4404POPC   PO457168  42.733  26.252   5.517
 4404POPC   GL157169  42.996  26.018   5.806
 4404POPC   GL257170  43.208  26.291   5.797
 4404POPC   C1A57171  43.348  25.917   6.116
 4404POPC   D2A57172  43.397  25.778   6.531
 4404POPC   C3A57173  43.365  25.945   6.957
 4404POPC   C4A57174  42.980  25.892   7.168
 4404POPC   C1B57175  43.101  26.342   6.247
 4404POPC   C2B57176  43.006  26.191   6.703
 4404POPC   C3B57177  43.089  26.401   7.153
 4404POPC   C4B57178  43.145  26.497   7.652
 4405POPC   NC357179  30.102  25.949   5.357
 4405POPC   PO457180  30.722  25.989   5.509
 4405POPC   GL157181  30.384  25.894   5.799
 4405POPC   GL257182  30.195  26.199   5.789
 4405POPC   C1A57183  30.453  25.848   6.243
 4405POPC   D2A57184  30.778  25.868   6.559
 4405POPC   C3A57185  30.651  25.921   7.003
 4405POPC   C4A57186  30.853  25.877   7.443
 4405POPC   C1B57187  30.397  26.340   6.157
 4405POPC   C2B57188  30.446  26.252   6.602
 4405POPC   C3B57189  30.559  26.437   6.988
 4405POPC   C4B57190  30.565  26.291   7.384
 4406POPC   NC357191   2.277  34.978   5.299
 4406POPC   PO457192   1.896  35.515   5.517
 4406POPC   GL157193   2.064  35.171   5.741
 4406POPC   GL257194   2.136  35.420   6.011
 4406POPC   C1A57195   2.043  34.935   6.128
 4406POPC   D2A57196   2.078  35.158   6.521
 4406POPC   C3A57197   2.124  35.054   6.949
 4406POPC   C4A57198   1.944  35.289   7.295
 4406POPC   C1B57199   2.174  35.652   6.418
 4406POPC   C2B57200   2.189  35.548   6.871
 4406POPC   C3B57201   2.301  35.658   7.311
 4406POPC   C4B57202   2.297  35.586   7.775
 4407POPC   NC357203  35.236  18.766   5.074
 4407POPC   PO457204  35.284  19.309   5.489
 4407POPC   GL157205  35.451  19.217   5.849
 4407POPC   GL257206  35.161  19.209   5.981
 4407POPC   C1A57207  35.591  19.290   6.254
 4407POPC   D2A57208  35.545  19.018   6.583
 4407POPC   C3A57209  35.350  19.128   6.975
 4407POPC   C4A57210  35.523  19.200   7.390
 4407POPC   C1B57211  35.068  18.896   6.234
 4407POPC   C2B57212  35.072  18.789   6.657
 4407POPC   C3B57213  34.966  18.735   7.060
 4407POPC   C4B57214  35.083  18.962   7.393
 4408POPC   NC357215  32.107  14.507   5.035
 4408POPC   PO457216  32.521  14.152   5.398
 4408POPC   GL157217  32.491  14.225   5.858
 4408POPC   GL257218  32.196  14.423   5.904
 4408POPC   C1A57219  32.438  14.168   6.343
 4408POPC   D2A57220  32.571  14.206   6.787
 4408POPC   C3A57221  32.459  14.515   7.097
 4408POPC   C4A57222  32.351  14.378   7.491
 4408POPC   C1B57223  31.970  14.354   6.290
 4408POPC   C2B57224  32.119  14.466   6.711
 4408POPC   C3B57225  31.956  14.390   7.130
 4408POPC   C4B57226  31.865  14.431   7.576
 4409POPC   NC357227  29.150  33.297   5.293
 4409POPC   PO457228  28.870  32.698   5.145
 4409POPC   GL157229  29.121  32.869   5.618
 4409POPC   GL257230  29.032  33.180   5.791
 4409POPC   C1A57231  29.276  32.884   6.098
 4409POPC   D2A57232  29.358  33.199   6.456
 4409POPC   C3A57233  29.292  33.136   6.919
 4409POPC   C4A57234  29.179  33.274   7.342
 4409POPC   C1B57235  28.815  33.087   6.228
 4409POPC   C2B57236  28.974  32.869   6.571
 4409POPC   C3B57237  28.952  32.701   6.975
 4409POPC   C4B57238  28.792  32.941   7.329
 4410POPC   NC357239  31.174  39.765   5.746
 4410POPC   PO457240  31.451  40.345   5.534
 4410POPC   GL157241  31.516  40.128   5.934
 4410POPC   GL257242  31.622  39.766   5.980
 4410POPC   C1A57243  31.773  40.100   6.318
 4410POPC   D2A57244  31.814  39.846   6.662
 4410POPC   C3A57245  31.474  40.024   6.892
 4410POPC   C4A57246  31.406  40.055   7.309
 4410POPC   C1B57247  31.363  39.771   6.396
 4410POPC   C2B57248  31.240  39.559   6.803
 4410POPC   C3B57249  31.131  39.625   7.247
 4410POPC   C4B57250  31.088  39.777   7.685
 4411POPC   NC357251  28.670   6.673   5.448
 4411POPC   PO457252  29.372   6.805   5.414
 4411POPC   GL157253  29.121   6.635   5.767
 4411POPC   GL257254  29.053   6.982   5.883
 4411POPC   C1A57255  28.849   6.622   6.177
 4411POPC   D2A57256  28.921   6.703   6.622
 4411POPC   C3A57257  28.744   6.653   7.055
 4411POPC   C4A57258  28.760   6.856   7.497
 4411POPC   C1B57259  29.251   6.940   6.306
 4411POPC   C2B57260  29.427   6.771   6.720
 4411POPC   C3B57261  29.250   6.532   7.038
 4411POPC   C4B57262  29.398   6.297   7.406
 4412POPC   NC357263   2.549   0.843   5.118
 4412POPC   PO457264   2.601   0.192   5.340
 4412POPC   GL157265   2.688   0.369   5.740
 4412POPC   GL257266   3.040   0.268   5.775
 4412POPC   C1A57267   2.609   0.608   6.136
 4412POPC   D2A57268   2.341   0.490   6.485
 4412POPC   C3A57269   2.502   0.612   6.870
 4412POPC   C4A57270   2.656   0.525   7.246
 4412POPC   C1B57271   3.064   0.377   6.180
 4412POPC   C2B57272   2.838   0.352   6.541
 4412POPC   C3B57273   3.012   0.398   6.907
 4412POPC   C4B57274   3.186   0.494   7.299
 4413POPC   NC357275   1.244  39.633   5.453
 4413POPC   PO457276   1.123  40.284   5.238
 4413POPC   GL157277   1.192  40.108   5.672
 4413POPC   GL257278   1.552  39.971   5.704
 4413POPC   C1A57279   1.129  39.966   6.126
 4413POPC   D2A57280   1.019  40.158   6.541
 4413POPC   C3A57281   0.931  39.909   6.908
 4413POPC   C4A57282   1.054  40.144   7.272
 4413POPC   C1B57283   1.630  39.888   6.145
 4413POPC   C2B57284   1.429  39.818   6.536
 4413POPC   C3B57285   1.446  40.044   6.922
 4413POPC   C4B57286   1.732  40.003   7.260
 4414POPC   NC357287  14.145  31.202   5.484
 4414POPC   PO457288  14.642  31.576   5.329
 4414POPC   GL157289  14.576  31.487   5.797
 4414POPC   GL257290  14.246  31.615   5.950
 4414POPC   C1A57291  14.642  31.604   6.266
 4414POPC   D2A57292  14.766  31.816   6.673
 4414POPC   C3A57293  14.615  31.580   7.037
 4414POPC   C4A57294  14.528  31.275   7.351
 4414POPC   C1B57295  14.279  31.215   6.186
 4414POPC   C2B57296  14.350  31.067   6.621
 4414POPC   C3B57297  14.148  31.132   7.021
 4414POPC   C4B57298  14.098  31.556   7.172
 4415POPC   NC357299  28.475  11.509   5.407
 4415POPC   PO457300  28.401  12.188   5.345
 4415POPC   GL157301  28.215  12.045   5.731
 4415POPC   GL257302  28.216  11.695   5.848
 4415POPC   C1A57303  28.258  12.194   6.168
 4415POPC   D2A57304  28.169  12.015   6.564
 4415POPC   C3A57305  28.323  12.134   6.972
 4415POPC   C4A57306  28.202  11.816   7.217
 4415POPC   C1B57307  28.513  11.751   6.226
 4415POPC   C2B57308  28.686  11.910   6.641
 4415POPC   C3B57309  28.659  11.708   7.058
 4415POPC   C4B57310  28.639  11.756   7.532
 4416POPC   NC357311  36.803  23.750   5.196
 4416POPC   PO457312  37.270  23.287   5.575
 4416POPC   GL157313  36.880  23.519   5.671
 4416POPC   GL257314  36.550  23.350   5.735
 4416POPC   C1A57315  36.780  23.803   6.025
 4416POPC   D2A57316  36.765  23.791   6.486
 4416POPC   C3A57317  37.125  23.914   6.755
 4416POPC   C4A57318  36.965  23.838   7.155
 4416POPC   C1B57319  36.689  23.312   6.204
 4416POPC   C2B57320  36.706  23.257   6.698
 4416POPC   C3B57321  36.679  23.402   7.160
 4416POPC   C4B57322  36.796  23.299   7.635
 4417POPC   NC357323  14.908  14.426   5.056
 4417POPC   PO457324  15.299  14.061   5.448
 4417POPC   GL157325  15.225  14.297   5.845
 4417POPC   GL257326  14.937  14.524   5.793
 4417POPC   C1A57327  15.197  14.235   6.315
 4417POPC   D2A57328  15.055  14.062   6.731
 4417POPC   C3A57329  15.053  14.320   7.086
 4417POPC   C4A57330  15.308  14.416   7.436
 4417POPC   C1B57331  14.888  14.652   6.232
 4417POPC   C2B57332  15.114  14.616   6.658
 4417POPC   C3B57333  15.270  14.768   7.065
 4417POPC   C4B57334  15.554  14.973   7.324
 4418POPC   NC357335  28.737  37.324   5.479
 4418POPC   PO457336  28.277  37.776   5.225
 4418POPC   GL157337  28.250  37.725   5.760
 4418POPC   GL257338  28.055  38.003   5.944
 4418POPC   C1A57339  28.115  37.608   6.235
 4418POPC   D2A57340  27.986  37.857   6.631
 4418POPC   C3A57341  28.046  37.654   7.060
 4418POPC   C4A57342  27.998  37.772   7.503
 4418POPC   C1B57343  28.381  38.081   6.310
 4418POPC   C2B57344  28.481  38.043   6.779
 4418POPC   C3B57345  28.563  37.756   7.142
 4418POPC   C4B57346  28.671  37.457   7.475
 4419POPC   NC357347   6.458   3.120   5.538
 4419POPC   PO457348   6.739   3.667   5.228
 4419POPC   GL157349   6.703   3.536   5.725
 4419POPC   GL257350   6.954   3.309   5.872
 4419POPC   C1A57351   6.541   3.383   6.187
 4419POPC   D2A57352   6.279   3.201   6.530
 4419POPC   C3A57353   6.429   3.304   6.937
 4419POPC   C4A57354   6.425   3.632   7.205
 4419POPC   C1B57355   6.954   3.680   6.172
 4419POPC   C2B57356   6.739   3.761   6.579
 4419POPC   C3B57357   6.887   3.664   6.989
 4419POPC   C4B57358   6.906   3.273   7.199
 4420POPC   NC357359  16.280  10.017   5.339
 4420POPC   PO457360  16.953  10.120   5.331
 4420POPC   GL157361  16.813  10.300   5.762
 4420POPC   GL257362  16.453  10.388   5.726
 4420POPC   C1A57363  16.733  10.598   6.151
 4420POPC   D2A57364  16.513  10.649   6.564
 4420POPC   C3A57365  16.679  10.727   6.991
 4420POPC   C4A57366  17.049  10.546   7.162
 4420POPC   C1B57367  16.473  10.173   6.120
 4420POPC   C2B57368  16.697  10.180   6.480
 4420POPC   C3B57369  16.574  10.246   6.888
 4420POPC   C4B57370  16.710  10.152   7.286
 4421POPC   NC357371  11.564   2.358   5.119
 4421POPC   PO457372  11.180   2.878   5.196
 4421POPC   GL157373  11.210   2.802   5.658
 4421POPC   GL257374  10.861   2.802   5.764
 4421POPC   C1A57375  11.469   2.837   6.059
 4421POPC   D2A57376  11.620   2.622   6.443
 4421POPC   C3A57377  11.501   2.728   6.858
 4421POPC   C4A57378  11.405   2.832   7.274
 4421POPC   C1B57379  11.041   2.581   6.155
 4421POPC   C2B57380  10.882   2.532   6.585
 4421POPC   C3B57381  10.980   2.703   6.992
 4421POPC   C4B57382  10.750   2.735   7.373
 4422POPC   NC357383  25.527  17.131   5.419
 4422POPC   PO457384  25.197  16.540   5.365
 4422POPC   GL157385  25.166  16.849   5.752
 4422POPC   GL257386  25.328  17.178   5.899
 4422POPC   C1A57387  25.164  16.849   6.240
 4422POPC   D2A57388  25.286  16.862   6.690
 4422POPC   C3A57389  25.145  16.644   7.072
 4422POPC   C4A57390  25.181  16.931   7.400
 4422POPC   C1B57391  25.560  17.189   6.350
 4422POPC   C2B57392  25.767  16.984   6.744
 4422POPC   C3B57393  25.620  16.847   7.161
 4422POPC   C4B57394  25.597  16.573   7.518
 4423POPC   NC357395  33.518  19.443   5.354
 4423POPC   PO457396  33.689  20.105   5.275
 4423POPC   GL157397  33.704  19.841   5.659
 4423POPC   GL257398  33.685  20.135   5.814
 4423POPC   C1A57399  33.678  19.743   6.150
 4423POPC   D2A57400  33.850  19.595   6.566
 4423POPC   C3A57401  33.604  19.487   6.947
 4423POPC   C4A57402  33.615  19.489   7.404
 4423POPC   C1B57403  33.882  20.213   6.195
 4423POPC   C2B57404  33.807  20.116   6.607
 4423POPC   C3B57405  33.715  20.138   7.027
 4423POPC   C4B57406  33.371  19.915   7.195
 4424POPC   NC357407   1.163  31.017   5.344
 4424POPC   PO457408   1.463  30.452   5.272
 4424POPC   GL157409   1.185  30.515   5.680
 4424POPC   GL257410   0.913  30.809   5.737
 4424POPC   C1A57411   1.198  30.381   6.108
 4424POPC   D2A57412   1.468  30.367   6.478
 4424POPC   C3A57413   1.234  30.470   6.833
 4424POPC   C4A57414   0.878  30.564   7.100
 4424POPC   C1B57415   1.073  30.945   6.092
 4424POPC   C2B57416   1.021  30.738   6.450
 4424POPC   C3B57417   1.057  30.957   6.828
 4424POPC   C4B57418   1.102  31.043   7.217
 4425POPC   NC357419  16.190   4.499   5.325
 4425POPC   PO457420  15.756   4.007   5.399
 4425POPC   GL157421  15.909   4.213   5.775
 4425POPC   GL257422  15.843   4.576   5.833
 4425POPC   C1A57423  16.077   4.287   6.196
 4425POPC   D2A57424  16.048   4.525   6.577
 4425POPC   C3A57425  16.072   4.245   6.940
 4425POPC   C4A57426  16.358   4.056   7.224
 4425POPC   C1B57427  15.695   4.777   6.239
 4425POPC   C2B57428  15.703   4.906   6.670
 4425POPC   C3B57429  15.747   4.623   6.997
 4425POPC   C4B57430  15.993   4.579   7.341
 4426POPC   NC357431  43.459  11.817   5.535
 4426POPC   PO457432  44.102  12.009   5.281
 4426POPC   GL157433  43.924  11.973   5.702
 4426POPC   GL257434  43.875  12.315   5.771
 4426POPC   C1A57435  43.775  11.765   6.099
 4426POPC   D2A57436  43.663  11.936   6.499
 4426POPC   C3A57437  43.659  11.761   6.888
 4426POPC   C4A57438  43.929  11.617   7.204
 4426POPC   C1B57439  43.591  12.258   6.109
 4426POPC   C2B57440  43.469  12.417   6.496
 4426POPC   C3B57441  43.542  12.276   6.875
 4426POPC   C4B57442  43.830  12.342   7.130
 4427POPC   NC357443  41.448  29.508   5.256
 4427POPC   PO457444  41.205  30.139   5.411
 4427POPC   GL157445  41.352  29.876   5.744
 4427POPC   GL257446  41.720  29.925   5.744
 4427POPC   C1A57447  41.427  29.769   6.202
 4427POPC   D2A57448  41.529  30.019   6.580
 4427POPC   C3A57449  41.326  29.887   6.948
 4427POPC   C4A57450  41.623  29.623   7.069
 4427POPC   C1B57451  41.893  29.943   6.162
 4427POPC   C2B57452  42.073  30.016   6.562
 4427POPC   C3B57453  41.935  30.056   6.961
 4427POPC   C4B57454  42.034  29.823   7.289
 4428POPC   NC357455   0.093  16.574   5.131
 4428POPC   PO457456   0.089  16.151   5.710
 4428POPC   GL157457   0.357  16.479   5.895
 4428POPC   GL257458   0.551  16.766   5.741
 4428POPC   C1A57459   0.260  16.729   6.248
 4428POPC   D2A57460   0.083  16.716   6.648
 4428POPC   C3A57461   0.401  16.532   6.900
 4428POPC   C4A57462   0.380  16.668   7.266
 4428POPC   C1B57463   0.724  16.909   6.152
 4428POPC   C2B57464   0.620  16.892   6.618
 4428POPC   C3B57465   0.812  16.881   7.075
 4428POPC   C4B57466   0.669  16.997   7.532
 4429POPC   NC357467  22.520   5.337   5.625
 4429POPC   PO457468  21.992   4.986   5.426
 4429POPC   GL157469  22.143   5.068   5.858
 4429POPC   GL257470  22.481   4.990   6.009
 4429POPC   C1A57471  22.088   5.311   6.242
 4429POPC   D2A57472  21.876   5.197   6.603
 4429POPC   C3A57473  21.894   5.446   6.948
 4429POPC   C4A57474  22.251   5.265   7.115
 4429POPC   C1B57475  22.224   4.805   6.325
 4429POPC   C2B57476  22.236   4.846   6.778
 4429POPC   C3B57477  22.364   4.768   7.205
 4429POPC   C4B57478  22.234   4.717   7.627
 4430POPC   NC357479  11.309  18.501   5.168
 4430POPC   PO457480  11.213  18.021   5.541
 4430POPC   GL157481  11.196  18.429   5.779
 4430POPC   GL257482  11.458  18.644   5.644
 4430POPC   C1A57483  11.168  18.483   6.278
 4430POPC   D2A57484  11.134  18.373   6.769
 4430POPC   C3A57485  11.365  18.040   7.063
 4430POPC   C4A57486  11.354  17.652   7.383
 4430POPC   C1B57487  11.622  18.476   6.053
 4430POPC   C2B57488  11.631  18.591   6.488
 4430POPC   C3B57489  11.597  18.506   6.918
 4430POPC   C4B57490  11.273  18.630   7.217
 4431POPC   NC357491   2.591  42.512   5.312
 4431POPC   PO457492   2.626  41.922   5.538
 4431POPC   GL157493   2.555  42.260   5.871
 4431POPC   GL257494   2.453  42.604   5.801
 4431POPC   C1A57495   2.687  42.417   6.316
 4431POPC   D2A57496   2.869  42.542   6.750
 4431POPC   C3A57497   3.019  42.255   7.115
 4431POPC   C4A57498   3.094  42.383   7.556
 4431POPC   C1B57499   2.258  42.667   6.229
 4431POPC   C2B57500   2.322  42.564   6.672
 4431POPC   C3B57501   2.320  42.634   7.120
 4431POPC   C4B57502   2.447  42.374   7.437
 4432POPC   NC357503  28.854  40.914   5.540
 4432POPC   PO457504  29.477  40.987   5.308
 4432POPC   GL157505  29.378  40.910   5.790
 4432POPC   GL257506  29.051  40.768   5.988
 4432POPC   C1A57507  29.504  40.724   6.209
 4432POPC   D2A57508  29.206  40.506   6.458
 4432POPC   C3A57509  29.161  40.633   6.900
 4432POPC   C4A57510  29.483  40.505   7.172
 4432POPC   C1B57511  29.116  41.071   6.348
 4432POPC   C2B57512  29.080  41.137   6.820
 4432POPC   C3B57513  28.861  41.015   7.242
 4432POPC   C4B57514  28.875  41.009   7.752
 4433POPC   NC357515  14.710  26.593   5.436
 4433POPC   PO457516  14.483  27.235   5.567
 4433POPC   GL157517  14.489  26.856   5.837
 4433POPC   GL257518  14.823  26.726   5.909
 4433POPC   C1A57519  14.431  26.650   6.233
 4433POPC   D2A57520  14.670  26.671   6.616
 4433POPC   C3A57521  14.397  26.712   6.965
 4433POPC   C4A57522  14.203  26.806   7.361
 4433POPC   C1B57523  14.864  27.064   6.220
 4433POPC   C2B57524  14.760  27.200   6.667
 4433POPC   C3B57525  14.854  26.948   7.054
 4433POPC   C4B57526  14.695  26.731   7.424
 4434POPC   NC357527  22.322  31.678   5.338
 4434POPC   PO457528  22.180  32.299   5.350
 4434POPC   GL157529  22.158  32.074   5.794
 4434POPC   GL257530  21.954  31.791   5.768
 4434POPC   C1A57531  22.115  32.127   6.284
 4434POPC   D2A57532  22.375  32.307   6.628
 4434POPC   C3A57533  22.281  32.409   7.072
 4434POPC   C4A57534  22.474  32.310   7.495
 4434POPC   C1B57535  21.991  31.646   6.203
 4434POPC   C2B57536  22.109  31.729   6.660
 4434POPC   C3B57537  21.989  31.970   7.059
 4434POPC   C4B57538  21.675  31.915   7.437
 4435POPC   NC357539  22.394  15.452   5.460
 4435POPC   PO457540  21.987  14.848   5.386
 4435POPC   GL157541  22.136  15.093   5.786
 4435POPC   GL257542  22.154  15.451   5.898
 4435POPC   C1A57543  22.379  15.040   6.194
 4435POPC   D2A57544  22.603  15.017   6.612
 4435POPC   C3A57545  22.331  14.928   6.985
 4435POPC   C4A57546  21.943  15.074   7.193
 4435POPC   C1B57547  22.009  15.408   6.278
 4435POPC   C2B57548  22.149  15.239   6.637
 4435POPC   C3B57549  22.281  15.422   7.014
 4435POPC   C4B57550  21.974  15.653   7.144
 4436POPC   NC357551  31.857  42.144   5.427
 4436POPC   PO457552  32.428  42.423   5.184
 4436POPC   GL157553  32.268  42.344   5.648
 4436POPC   GL257554  32.176  42.627   5.881
 4436POPC   C1A57555  32.351  42.162   6.075
 4436POPC   D2A57556  32.272  42.027   6.521
 4436POPC   C3A57557  32.475  42.182   6.910
 4436POPC   C4A57558  32.336  42.057   7.335
 4436POPC   C1B57559  31.931  42.599   6.280
 4436POPC   C2B57560  31.775  42.367   6.633
 4436POPC   C3B57561  31.937  42.325   7.070
 4436POPC   C4B57562  32.038  42.655   7.341
 4437POPC   NC357563  40.688  10.547   5.398
 4437POPC   PO457564  41.025  10.011   5.573
 4437POPC   GL157565  40.859  10.347   5.849
 4437POPC   GL257566  40.830  10.725   5.842
 4437POPC   C1A57567  40.876  10.486   6.277
 4437POPC   D2A57568  40.964  10.647   6.637
 4437POPC   C3A57569  40.736  10.381   6.840
 4437POPC   C4A57570  40.807  10.227   7.233
 4437POPC   C1B57571  40.477  10.796   6.136
 4437POPC   C2B57572  40.372  10.610   6.518
 4437POPC   C3B57573  40.423  10.789   6.911
 4437POPC   C4B57574  40.511  10.626   7.227
 4438POPC   NC357575  14.669   7.927   5.352
 4438POPC   PO457576  14.081   8.246   5.303
 4438POPC   GL157577  14.230   8.373   5.708
 4438POPC   GL257578  14.556   8.236   5.750
 4438POPC   C1A57579  14.062   8.441   6.120
 4438POPC   D2A57580  13.959   8.119   6.396
 4438POPC   C3A57581  13.898   8.126   6.855
 4438POPC   C4A57582  14.003   8.352   7.228
 4438POPC   C1B57583  14.408   8.023   6.130
 4438POPC   C2B57584  14.352   7.856   6.578
 4438POPC   C3B57585  14.402   8.075   6.968
 4438POPC   C4B57586  14.550   8.497   7.137
 4439POPC   NC357587  23.214  21.862   5.389
 4439POPC   PO457588  22.576  21.393   5.451
 4439POPC   GL157589  22.855  21.316   5.828
 4439POPC   GL257590  22.953  21.640   5.903
 4439POPC   C1A57591  22.961  21.205   6.286
 4439POPC   D2A57592  22.928  21.486   6.608
 4439POPC   C3A57593  23.124  21.429   7.002
 4439POPC   C4A57594  23.262  21.393   7.410
 4439POPC   C1B57595  22.565  21.538   6.204
 4439POPC   C2B57596  22.418  21.685   6.607
 4439POPC   C3B57597  22.625  21.577   6.996
 4439POPC   C4B57598  22.757  21.424   7.361
 4440POPC   NC357599  26.081  19.572   5.344
 4440POPC   PO457600  25.693  20.096   5.261
 4440POPC   GL157601  25.817  19.868   5.680
 4440POPC   GL257602  26.194  19.872   5.741
 4440POPC   C1A57603  25.862  19.623   6.111
 4440POPC   D2A57604  25.640  19.589   6.550
 4440POPC   C3A57605  25.865  19.608   6.990
 4440POPC   C4A57606  26.235  19.430   7.169
 4440POPC   C1B57607  26.300  19.883   6.176
 4440POPC   C2B57608  26.156  19.799   6.619
 4440POPC   C3B57609  26.230  19.967   7.059
 4440POPC   C4B57610  26.044  20.299   7.373
 4441POPC   NC357611   8.867   6.872   5.330
 4441POPC   PO457612   9.234   6.415   5.395
 4441POPC   GL157613   9.004   6.597   5.745
 4441POPC   GL257614   9.146   6.946   5.781
 4441POPC   C1A57615   8.987   6.496   6.193
 4441POPC   D2A57616   8.769   6.597   6.595
 4441POPC   C3A57617   8.903   6.374   6.977
 4441POPC   C4A57618   9.126   6.647   7.243
 4441POPC   C1B57619   8.993   7.008   6.223
 4441POPC   C2B57620   9.070   7.078   6.675
 4441POPC   C3B57621   9.381   7.086   7.046
 4441POPC   C4B57622   9.336   6.996   7.545
 4442POPC   NC357623   8.456  26.975   5.503
 4442POPC   PO457624   7.917  26.642   5.412
 4442POPC   GL157625   7.952  26.898   5.817
 4442POPC   GL257626   7.790  27.232   5.881
 4442POPC   C1A57627   8.018  26.926   6.268
 4442POPC   D2A57628   8.299  26.875   6.614
 4442POPC   C3A57629   8.090  26.872   7.001
 4442POPC   C4A57630   8.358  26.757   7.347
 4442POPC   C1B57631   7.947  27.424   6.281
 4442POPC   C2B57632   8.088  27.338   6.706
 4442POPC   C3B57633   7.832  27.325   7.114
 4442POPC   C4B57634   7.793  26.987   7.397
 4443POPC   NC357635  44.861  19.096   5.546
 4443POPC   PO457636  44.158  19.177   5.564
 4443POPC   GL157637  44.461  18.973   5.842
 4443POPC   GL257638  44.795  19.166   6.034
 4443POPC   C1A57639  44.450  18.875   6.255
 4443POPC   D2A57640  44.719  18.990   6.556
 4443POPC   C3A57641  44.475  18.871   6.870
 4443POPC   C4A57642  44.405  18.770   7.270
 4443POPC   C1B57643  44.912  18.730   6.111
 4443POPC   C2B57644   0.085  18.589   6.489
 4443POPC   C3B57645  44.960  18.683   6.881
 4443POPC   C4B57646  44.889  19.041   7.124
 4444POPC   NC357647  42.208  35.657   5.019
 4444POPC   PO457648  42.488  35.197   5.496
 4444POPC   GL157649  42.295  35.297   5.903
 4444POPC   GL257650  42.073  35.556   5.845
 4444POPC   C1A57651  42.474  35.586   6.248
 4444POPC   D2A57652  42.716  35.522   6.648
 4444POPC   C3A57653  42.680  35.277   7.061
 4444POPC   C4A57654  42.456  35.272   7.499
 4444POPC   C1B57655  41.986  35.503   6.319
 4444POPC   C2B57656  42.213  35.550   6.708
 4444POPC   C3B57657  42.282  35.631   7.140
 4444POPC   C4B57658  41.995  35.309   7.287
 4445POPC   NC357659  24.075  16.844   5.041
 4445POPC   PO457660  23.566  16.676   5.464
 4445POPC   GL157661  23.669  16.665   5.853
 4445POPC   GL257662  23.952  16.454   5.787
 4445POPC   C1A57663  23.657  16.892   6.229
 4445POPC   D2A57664  23.382  16.928   6.589
 4445POPC   C3A57665  23.521  16.794   7.025
 4445POPC   C4A57666  23.838  16.834   7.357
 4445POPC   C1B57667  23.845  16.385   6.218
 4445POPC   C2B57668  23.761  16.543   6.588
 4445POPC   C3B57669  23.976  16.544   6.917
 4445POPC   C4B57670  23.853  16.294   7.212
 4446POPC   NC357671   3.541  28.640   5.394
 4446POPC   PO457672   3.782  29.263   5.400
 4446POPC   GL157673   3.655  29.141   5.808
 4446POPC   GL257674   3.693  28.781   5.863
 4446POPC   C1A57675   3.366  29.134   6.144
 4446POPC   D2A57676   3.466  28.923   6.518
 4446POPC   C3A57677   3.558  29.167   6.868
 4446POPC   C4A57678   3.389  29.094   7.251
 4446POPC   C1B57679   3.915  28.870   6.251
 4446POPC   C2B57680   3.944  28.759   6.721
 4446POPC   C3B57681   3.913  28.844   7.168
 4446POPC   C4B57682   3.939  28.944   7.630
 4447POPC   NC357683   9.507   1.605   5.356
 4447POPC   PO457684   9.711   2.252   5.427
 4447POPC   GL157685   9.796   2.228   5.876
 4447POPC   GL257686  10.114   2.375   6.014
 4447POPC   C1A57687   9.762   1.846   6.118
 4447POPC   D2A57688   9.718   1.724   6.543
 4447POPC   C3A57689   9.889   1.938   6.871
 4447POPC   C4A57690   9.797   1.808   7.275
 4447POPC   C1B57691   9.867   2.294   6.398
 4447POPC   C2B57692   9.918   2.470   6.821
 4447POPC   C3B57693   9.843   2.312   7.227
 4447POPC   C4B57694  10.095   2.146   7.551
 4448POPC   NC357695   8.983  39.651   5.396
 4448POPC   PO457696   9.352  40.182   5.507
 4448POPC   GL157697   9.224  39.891   5.841
 4448POPC   GL257698   9.208  40.222   6.030
 4448POPC   C1A57699   8.940  39.851   6.228
 4448POPC   D2A57700   8.930  40.063   6.641
 4448POPC   C3A57701   9.050  39.862   7.030
 4448POPC   C4A57702   8.989  39.808   7.493
 4448POPC   C1B57703   9.394  40.032   6.405
 4448POPC   C2B57704   9.401  40.197   6.838
 4448POPC   C3B57705   9.234  40.270   7.271
 4448POPC   C4B57706   9.268  40.520   7.644
 4449POPC   NC357707  38.243  26.143   5.258
 4449POPC   PO457708  38.845  25.794   5.148
 4449POPC   GL157709  38.639  25.995   5.600
 4449POPC   GL257710  38.304  26.207   5.753
 4449POPC   C1A57711  38.546  25.907   6.078
 4449POPC   D2A57712  38.559  26.089   6.507
 4449POPC   C3A57713  38.373  25.827   6.849
 4449POPC   C4A57714  38.461  25.890   7.286
 4449POPC   C1B57715  38.130  26.345   6.180
 4449POPC   C2B57716  38.076  26.227   6.640
 4449POPC   C3B57717  38.381  26.316   6.984
 4449POPC   C4B57718  38.289  26.499   7.358
 4450POPC   NC357719  18.048   0.176   5.219
 4450POPC   PO457720  18.365   0.653   5.405
 4450POPC   GL157721  18.472   0.527   5.858
 4450POPC   GL257722  18.532   0.155   5.903
 4450POPC   C1A57723  18.564   0.495   6.316
 4450POPC   D2A57724  18.272   0.581   6.657
 4450POPC   C3A57725  18.366   0.428   7.063
 4450POPC   C4A57726  18.452   0.737   7.349
 4450POPC   C1B57727  18.140   0.226   6.124
 4450POPC   C2B57728  17.889   0.259   6.490
 4450POPC   C3B57729  17.931   0.223   6.925
 4450POPC   C4B57730  17.781   0.404   7.284
 4451POPC   NC357731  21.681  20.600   5.257
 4451POPC   PO457732  22.123  20.396   5.704
 4451POPC   GL157733  22.005  20.517   6.063
 4451POPC   GL257734  21.863  20.216   6.161
 4451POPC   C1A57735  22.187  20.752   6.369
 4451POPC   D2A57736  22.085  20.926   6.740
 4451POPC   C3A57737  22.440  20.719   6.849
 4451POPC   C4A57738  22.642  20.650   7.188
 4451POPC   C1B57739  22.225  20.242   6.431
 4451POPC   C2B57740  22.113  20.346   6.808
 4451POPC   C3B57741  22.121  20.493   7.206
 4451POPC   C4B57742  22.120  20.295   7.638
 4452POPC   NC357743  30.860  33.516   5.510
 4452POPC   PO457744  30.368  33.985   5.415
 4452POPC   GL157745  30.489  33.767   5.766
 4452POPC   GL257746  30.823  33.934   5.805
 4452POPC   C1A57747  30.600  33.612   6.163
 4452POPC   D2A57748  30.492  33.783   6.541
 4452POPC   C3A57749  30.695  33.623   6.864
 4452POPC   C4A57750  30.611  33.700   7.279
 4452POPC   C1B57751  31.019  34.136   6.171
 4452POPC   C2B57752  31.049  33.977   6.588
 4452POPC   C3B57753  31.113  33.885   7.006
 4452POPC   C4B57754  31.107  33.607   7.354
 4453POPC   NC357755  21.064  29.206   5.549
 4453POPC   PO457756  20.389  29.369   5.305
 4453POPC   GL157757  20.561  29.151   5.670
 4453POPC   GL257758  20.677  29.479   5.791
 4453POPC   C1A57759  20.643  29.074   6.123
 4453POPC   D2A57760  20.505  29.281   6.487
 4453POPC   C3A57761  20.640  29.140   6.885
 4453POPC   C4A57762  20.423  29.078   7.250
 4453POPC   C1B57763  20.952  29.501   6.126
 4453POPC   C2B57764  21.063  29.287   6.470
 4453POPC   C3B57765  21.073  29.406   6.901
 4453POPC   C4B57766  20.900  29.322   7.306
 4454POPC   NC357767  22.273  17.225   5.575
 4454POPC   PO457768  22.001  17.799   5.451
 4454POPC   GL157769  22.041  17.594   5.894
 4454POPC   GL257770  22.409  17.528   5.968
 4454POPC   C1A57771  22.100  17.689   6.368
 4454POPC   D2A57772  22.350  17.588   6.775
 4454POPC   C3A57773  22.178  17.663   7.222
 4454POPC   C4A57774  22.046  17.771   7.678
 4454POPC   C1B57775  22.390  17.263   6.346
 4454POPC   C2B57776  22.430  17.063   6.742
 4454POPC   C3B57777  22.479  17.209   7.156
 4454POPC   C4B57778  22.216  17.264   7.533
 4455POPC   NC357779  41.230  38.203   5.519
 4455POPC   PO457780  41.459  38.779   5.262
 4455POPC   GL157781  41.659  38.700   5.688
 4455POPC   GL257782  41.613  38.347   5.863
 4455POPC   C1A57783  41.532  38.769   6.128
 4455POPC   D2A57784  41.713  38.844   6.530
 4455POPC   C3A57785  41.565  38.552   6.872
 4455POPC   C4A57786  41.511  38.409   7.355
 4455POPC   C1B57787  41.631  38.326   6.353
 4455POPC   C2B57788  41.657  38.080   6.727
 4455POPC   C3B57789  41.887  38.189   7.106
 4455POPC   C4B57790  41.855  38.017   7.535
 4456POPC   NC357791   3.872   4.631   5.336
 4456POPC   PO457792   3.504   4.113   5.501
 4456POPC   GL157793   3.576   4.382   5.787
 4456POPC   GL257794   3.244   4.325   5.921
 4456POPC   C1A57795   3.790   4.216   6.128
 4456POPC   D2A57796   3.941   4.172   6.516
 4456POPC   C3A57797   3.836   4.332   6.930
 4456POPC   C4A57798   3.414   4.286   7.117
 4456POPC   C1B57799   3.430   4.543   6.268
 4456POPC   C2B57800   3.461   4.598   6.698
 4456POPC   C3B57801   3.606   4.754   7.105
 4456POPC   C4B57802   3.301   4.768   7.443
 4457POPC   NC357803  19.338  27.154   5.416
 4457POPC   PO457804  19.249  27.833   5.278
 4457POPC   GL157805  19.110  27.795   5.722
 4457POPC   GL257806  19.035  27.427   5.765
 4457POPC   C1A57807  18.932  27.761   6.154
 4457POPC   D2A57808  18.788  27.937   6.556
 4457POPC   C3A57809  18.909  27.660   6.881
 4457POPC   C4A57810  19.239  27.417   7.107
 4457POPC   C1B57811  18.854  27.216   6.116
 4457POPC   C2B57812  18.978  27.103   6.533
 4457POPC   C3B57813  18.803  27.148   6.907
 4457POPC   C4B57814  18.706  27.388   7.264
 4458POPC   NC357815  44.217   7.038   5.164
 4458POPC   PO457816  44.045   6.362   5.248
 4458POPC   GL157817  43.906   6.506   5.729
 4458POPC   GL257818  43.949   6.828   5.824
 4458POPC   C1A57819  43.997   6.427   6.208
 4458POPC   D2A57820  43.825   6.501   6.610
 4458POPC   C3A57821  44.160   6.476   6.936
 4458POPC   C4A57822  44.221   6.671   7.355
 4458POPC   C1B57823  43.699   6.835   6.197
 4458POPC   C2B57824  43.662   6.977   6.631
 4458POPC   C3B57825  43.859   6.861   7.003
 4458POPC   C4B57826  43.768   6.906   7.414
 4459POPC   NC357827  26.450  27.129   5.160
 4459POPC   PO457828  26.912  26.752   5.520
 4459POPC   GL157829  26.785  26.832   5.901
 4459POPC   GL257830  26.609  27.116   5.868
 4459POPC   C1A57831  26.916  26.794   6.311
 4459POPC   D2A57832  26.696  26.710   6.675
 4459POPC   C3A57833  26.747  26.956   7.012
 4459POPC   C4A57834  26.840  26.726   7.353
 4459POPC   C1B57835  26.414  26.984   6.269
 4459POPC   C2B57836  26.358  27.118   6.710
 4459POPC   C3B57837  26.256  26.923   7.131
 4459POPC   C4B57838  26.441  27.031   7.547
 4460POPC   NC357839  16.871  23.147   5.289
 4460POPC   PO457840  16.377  22.604   5.395
 4460POPC   GL157841  16.602  22.932   5.669
 4460POPC   GL257842  16.988  23.026   5.759
 4460POPC   C1A57843  16.646  22.840   6.102
 4460POPC   D2A57844  16.719  22.687   6.490
 4460POPC   C3A57845  16.485  22.865   6.815
 4460POPC   C4A57846  16.673  22.777   7.210
 4460POPC   C1B57847  16.963  23.242   6.124
 4460POPC   C2B57848  16.791  23.212   6.513
 4460POPC   C3B57849  16.964  23.033   6.872
 4460POPC   C4B57850  16.968  23.232   7.251
 4461POPC   NC357851  31.557  12.201   5.411
 4461POPC   PO457852  31.930  12.692   5.478
 4461POPC   GL157853  31.791  12.326   5.847
 4461POPC   GL257854  31.616  11.949   5.846
 4461POPC   C1A57855  31.718  12.179   6.312
 4461POPC   D2A57856  31.830  12.248   6.797
 4461POPC   C3A57857  31.509  12.149   7.115
 4461POPC   C4A57858  31.088  12.291   7.201
 4461POPC   C1B57859  31.389  11.664   6.185
 4461POPC   C2B57860  31.212  11.523   6.608
 4461POPC   C3B57861  31.190  11.489   7.092
 4461POPC   C4B57862  31.199  11.845   7.422
 4462POPC   NC357863  35.933  34.859   5.427
 4462POPC   PO457864  36.110  34.108   5.360
 4462POPC   GL157865  36.082  34.392   5.747
 4462POPC   GL257866  36.157  34.742   5.863
 4462POPC   C1A57867  36.041  34.389   6.215
 4462POPC   D2A57868  36.205  34.640   6.567
 4462POPC   C3A57869  36.102  34.413   6.926
 4462POPC   C4A57870  35.962  34.120   7.206
 4462POPC   C1B57871  35.888  34.890   6.209
 4462POPC   C2B57872  35.676  34.732   6.563
 4462POPC   C3B57873  35.834  34.852   6.957
 4462POPC   C4B57874  36.207  34.839   7.202
 4463POPC   NC357875   0.063  38.787   5.633
 4463POPC   PO457876  44.847  39.426   5.428
 4463POPC   GL157877  44.706  39.253   5.804
 4463POPC   GL257878  44.635  38.926   5.892
 4463POPC   C1A57879  44.489  39.354   6.176
 4463POPC   D2A57880  44.461  39.555   6.560
 4463POPC   C3A57881  44.477  39.317   6.925
 4463POPC   C4A57882  44.625  39.413   7.335
 4463POPC   C1B57883  44.910  39.036   6.266
 4463POPC   C2B57884  44.835  38.947   6.722
 4463POPC   C3B57885  44.761  38.962   7.170
 4463POPC   C4B57886  44.336  39.000   7.336
 4464POPC   NC357887  42.459  33.968   5.282
 4464POPC   PO457888  42.441  33.368   5.553
 4464POPC   GL157889  42.312  33.747   5.741
 4464POPC   GL257890  42.583  33.980   5.775
 4464POPC   C1A57891  42.219  33.854   6.178
 4464POPC   D2A57892  42.145  33.653   6.579
 4464POPC   C3A57893  42.210  33.893   6.932
 4464POPC   C4A57894  42.227  33.636   7.256
 4464POPC   C1B57895  42.621  34.195   6.147
 4464POPC   C2B57896  42.547  34.258   6.575
 4464POPC   C3B57897  42.673  34.093   6.957
 4464POPC   C4B57898  42.641  33.996   7.342
 4465POPC   NC357899   3.700  10.383   5.304
 4465POPC   PO457900   3.476  11.034   5.354
 4465POPC   GL157901   3.516  10.622   5.731
 4465POPC   GL257902   3.828  10.370   5.807
 4465POPC   C1A57903   3.464  10.434   6.196
 4465POPC   D2A57904   3.588  10.532   6.656
 4465POPC   C3A57905   3.334  10.430   7.033
 4465POPC   C4A57906   3.135  10.691   7.377
 4465POPC   C1B57907   3.802  10.055   6.167
 4465POPC   C2B57908   3.617  10.010   6.568
 4465POPC   C3B57909   3.792  10.103   6.937
 4465POPC   C4B57910   3.716  10.225   7.313
 4466POPC   NC357911  40.780  34.846   5.561
 4466POPC   PO457912  41.033  34.218   5.500
 4466POPC   GL157913  40.866  34.419   5.860
 4466POPC   GL257914  40.525  34.433   5.842
 4466POPC   C1A57915  40.883  34.583   6.293
 4466POPC   D2A57916  40.869  34.338   6.669
 4466POPC   C3A57917  40.918  34.433   7.085
 4466POPC   C4A57918  40.769  34.315   7.460
 4466POPC   C1B57919  40.427  34.742   6.115
 4466POPC   C2B57920  40.323  34.727   6.514
 4466POPC   C3B57921  40.482  34.677   6.909
 4466POPC   C4B57922  40.377  34.986   7.152
 4467POPC   NC357923  18.054  40.328   5.340
 4467POPC   PO457924  18.239  39.727   5.643
 4467POPC   GL157925  18.179  40.119   5.786
 4467POPC   GL257926  18.452  40.329   5.760
 4467POPC   C1A57927  18.020  40.278   6.148
 4467POPC   D2A57928  18.113  40.108   6.548
 4467POPC   C3A57929  17.896  40.129   6.940
 4467POPC   C4A57930  18.056  39.741   7.155
 4467POPC   C1B57931  18.523  40.115   6.192
 4467POPC   C2B57932  18.615  40.225   6.632
 4467POPC   C3B57933  18.407  40.096   7.001
 4467POPC   C4B57934  18.416  40.373   7.285
 4468POPC   NC357935  14.417  22.480   5.461
 4468POPC   PO457936  14.738  21.811   5.434
 4468POPC   GL157937  14.590  22.107   5.782
 4468POPC   GL257938  14.216  22.136   5.803
 4468POPC   C1A57939  14.560  22.256   6.219
 4468POPC   D2A57940  14.603  22.472   6.575
 4468POPC   C3A57941  14.532  22.207   6.938
 4468POPC   C4A57942  14.740  22.068   7.280
 4468POPC   C1B57943  14.094  22.066   6.230
 4468POPC   C2B57944  14.106  22.266   6.623
 4468POPC   C3B57945  14.062  22.377   7.035
 4468POPC   C4B57946  14.094  22.057   7.332
 4469POPC   NC357947   6.397  33.349   5.368
 4469POPC   PO457948   6.622  32.706   5.393
 4469POPC   GL157949   6.752  32.867   5.795
 4469POPC   GL257950   6.448  33.023   5.797
 4469POPC   C1A57951   6.862  32.990   6.227
 4469POPC   D2A57952   6.799  32.814   6.604
 4469POPC   C3A57953   6.830  32.984   6.993
 4469POPC   C4A57954   6.764  32.638   7.219
 4469POPC   C1B57955   6.371  33.162   6.206
 4469POPC   C2B57956   6.420  33.161   6.623
 4469POPC   C3B57957   6.311  33.067   7.018
 4469POPC   C4B57958   6.539  33.354   7.282
 4470POPC   NC357959  34.411  43.583   5.310
 4470POPC   PO457960  34.677  42.955   5.400
 4470POPC   GL157961  34.521  43.063   5.809
 4470POPC   GL257962  34.291  43.385   5.767
 4470POPC   C1A57963  34.652  42.871   6.243
 4470POPC   D2A57964  34.736  42.711   6.717
 4470POPC   C3A57965  34.730  42.990   7.065
 4470POPC   C4A57966  34.864  43.440   7.097
 4470POPC   C1B57967  34.293  43.273   6.195
 4470POPC   C2B57968  34.339  43.109   6.571
 4470POPC   C3B57969  34.411  43.355   6.873
 4470POPC   C4B57970  34.267  43.301   7.252
 4471POPC   NC357971  22.926  30.230   5.415
 4471POPC   PO457972  23.243  30.738   5.157
 4471POPC   GL157973  23.072  30.741   5.598
 4471POPC   GL257974  23.162  30.479   5.787
 4471POPC   C1A57975  22.839  30.771   6.042
 4471POPC   D2A57976  22.743  31.013   6.429
 4471POPC   C3A57977  22.785  30.885   6.892
 4471POPC   C4A57978  22.886  30.455   7.077
 4471POPC   C1B57979  23.318  30.628   6.186
 4471POPC   C2B57980  23.164  30.776   6.576
 4471POPC   C3B57981  23.273  30.796   7.025
 4471POPC   C4B57982  23.271  30.633   7.442
 4472POPC   NC357983  12.020  42.308   5.211
 4472POPC   PO457984  12.108  42.952   5.490
 4472POPC   GL157985  11.952  42.632   5.830
 4472POPC   GL257986  12.056  42.303   5.746
 4472POPC   C1A57987  11.763  42.453   6.246
 4472POPC   D2A57988  11.991  42.357   6.650
 4472POPC   C3A57989  11.960  42.539   7.094
 4472POPC   C4A57990  12.226  42.520   7.505
 4472POPC   C1B57991  11.971  42.006   6.106
 4472POPC   C2B57992  11.772  41.889   6.538
 4472POPC   C3B57993  11.784  41.851   7.018
 4472POPC   C4B57994  11.966  42.101   7.356
 4473POPC   NC357995  42.428  19.750   5.097
 4473POPC   PO457996  42.356  19.885   5.712
 4473POPC   GL157997  42.385  20.175   5.996
 4473POPC   GL257998  42.040  20.157   6.041
 4473POPC   C1A57999  42.650  20.192   6.288
 4473POPC   D2A58000  42.630  19.857   6.575
 4473POPC   C3A58001  42.540  20.013   6.989
 4473POPC   C4A58002  42.200  19.822   7.267
 4473POPC   C1B58003  42.166  19.834   6.337
 4473POPC   C2B58004  42.103  19.873   6.750
 4473POPC   C3B58005  42.041  20.215   6.984
 4473POPC   C4B58006  41.854  20.201   7.350
 4474POPC   NC358007  32.479  32.390   5.490
 4474POPC   PO458008  31.979  31.855   5.441
 4474POPC   GL158009  32.076  32.149   5.712
 4474POPC   GL258010  32.401  32.043   5.844
 4474POPC   C1A58011  32.045  32.247   6.132
 4474POPC   D2A58012  32.222  32.087   6.484
 4474POPC   C3A58013  31.966  32.147   6.844
 4474POPC   C4A58014  32.039  32.013   7.238
 4474POPC   C1B58015  32.539  32.361   6.158
 4474POPC   C2B58016  32.686  32.365   6.583
 4474POPC   C3B58017  32.473  32.231   6.954
 4474POPC   C4B58018  32.273  32.454   7.257
 4475POPC   NC358019  26.480  27.776   5.469
 4475POPC   PO458020  26.889  27.294   5.282
 4475POPC   GL158021  26.938  27.597   5.670
 4475POPC   GL258022  26.685  27.611   5.907
 4475POPC   C1A58023  27.124  27.604   6.135
 4475POPC   D2A58024  26.873  27.748   6.505
 4475POPC   C3A58025  26.915  27.570   6.928
 4475POPC   C4A58026  27.039  27.749   7.328
 4475POPC   C1B58027  26.495  27.485   6.302
 4475POPC   C2B58028  26.397  27.627   6.711
 4475POPC   C3B58029  26.428  27.426   7.115
 4475POPC   C4B58030  26.448  27.584   7.517
 4476POPC   NC358031  19.074   2.418   5.583
 4476POPC   PO458032  19.307   1.862   5.227
 4476POPC   GL158033  19.087   1.879   5.643
 4476POPC   GL258034  19.340   2.028   5.840
 4476POPC   C1A58035  18.837   1.977   6.056
 4476POPC   D2A58036  18.834   1.895   6.490
 4476POPC   C3A58037  18.770   2.003   6.925
 4476POPC   C4A58038  18.870   1.904   7.366
 4476POPC   C1B58039  19.257   2.195   6.255
 4476POPC   C2B58040  19.319   1.940   6.625
 4476POPC   C3B58041  19.264   1.977   7.045
 4476POPC   C4B58042  19.399   1.873   7.439
 4477POPC   NC358043   0.521   1.912   5.396
 4477POPC   PO458044  44.877   1.822   5.377
 4477POPC   GL158045   0.064   1.916   5.813
 4477POPC   GL258046   0.418   1.919   5.899
 4477POPC   C1A58047   0.125   1.877   6.315
 4477POPC   D2A58048   0.375   1.973   6.715
 4477POPC   C3A58049   0.258   2.071   7.176
 4477POPC   C4A58050   0.184   2.217   7.616
 4477POPC   C1B58051   0.634   1.720   6.269
 4477POPC   C2B58052   0.660   1.543   6.670
 4477POPC   C3B58053   0.715   1.726   7.092
 4477POPC   C4B58054   0.541   1.790   7.513
 4478POPC   NC358055  19.940   5.288   5.624
 4478POPC   PO458056  19.486   4.830   5.358
 4478POPC   GL158057  19.617   4.884   5.826
 4478POPC   GL258058  19.989   4.884   5.926
 4478POPC   C1A58059  19.601   5.060   6.272
 4478POPC   D2A58060  19.670   4.869   6.680
 4478POPC   C3A58061  19.837   5.068   7.029
 4478POPC   C4A58062  19.571   5.069   7.395
 4478POPC   C1B58063  20.123   5.134   6.253
 4478POPC   C2B58064  19.935   5.429   6.515
 4478POPC   C3B58065  20.158   5.580   6.837
 4478POPC   C4B58066  20.241   5.355   7.191
 4479POPC   NC358067  37.066  33.221   5.376
 4479POPC   PO458068  36.717  32.624   5.348
 4479POPC   GL158069  36.965  32.764   5.764
 4479POPC   GL258070  37.113  33.073   5.851
 4479POPC   C1A58071  36.990  32.736   6.242
 4479POPC   D2A58072  36.652  32.777   6.571
 4479POPC   C3A58073  36.720  32.772   7.055
 4479POPC   C4A58074  37.111  32.818   7.233
 4479POPC   C1B58075  36.803  33.202   6.135
 4479POPC   C2B58076  36.943  33.218   6.561
 4479POPC   C3B58077  36.900  33.252   6.993
 4479POPC   C4B58078  36.784  33.343   7.403
 4480POPC   NC358079   4.459  37.959   5.185
 4480POPC   PO458080   4.245  37.291   5.379
 4480POPC   GL158081   4.457  37.487   5.752
 4480POPC   GL258082   4.312  37.829   5.769
 4480POPC   C1A58083   4.524  37.633   6.224
 4480POPC   D2A58084   4.678  37.774   6.665
 4480POPC   C3A58085   4.422  37.639   7.041
 4480POPC   C4A58086   4.427  37.554   7.512
 4480POPC   C1B58087   4.065  37.870   6.192
 4480POPC   C2B58088   4.143  37.744   6.592
 4480POPC   C3B58089   3.967  37.847   6.981
 4480POPC   C4B58090   3.991  37.835   7.402
 4481POPC   NC358091  17.440  34.927   5.279
 4481POPC   PO458092  17.417  34.183   5.234
 4481POPC   GL158093  17.264  34.445   5.617
 4481POPC   GL258094  17.474  34.724   5.767
 4481POPC   C1A58095  17.188  34.382   6.079
 4481POPC   D2A58096  17.310  34.520   6.493
 4481POPC   C3A58097  17.422  34.359   6.869
 4481POPC   C4A58098  17.393  34.648   7.204
 4481POPC   C1B58099  17.681  34.618   6.163
 4481POPC   C2B58100  17.858  34.493   6.581
 4481POPC   C3B58101  17.866  34.606   7.033
 4481POPC   C4B58102  17.862  34.817   7.425
 4482POPC   NC358103  31.762  37.915   5.417
 4482POPC   PO458104  31.130  37.516   5.348
 4482POPC   GL158105  31.396  37.565   5.698
 4482POPC   GL258106  31.345  37.892   5.754
 4482POPC   C1A58107  31.480  37.594   6.160
 4482POPC   D2A58108  31.701  37.712   6.562
 4482POPC   C3A58109  31.534  37.578   6.974
 4482POPC   C4A58110  31.097  37.528   7.119
 4482POPC   C1B58111  31.621  38.077   6.089
 4482POPC   C2B58112  31.523  38.198   6.520
 4482POPC   C3B58113  31.608  38.137   6.948
 4482POPC   C4B58114  31.311  37.985   7.221
 4483POPC   NC358115  38.939  33.441   5.451
 4483POPC   PO458116  39.081  32.834   5.499
 4483POPC   GL158117  39.284  32.946   5.840
 4483POPC   GL258118  38.987  33.134   5.901
 4483POPC   C1A58119  39.306  32.935   6.278
 4483POPC   D2A58120  39.384  32.775   6.663
 4483POPC   C3A58121  39.437  33.118   6.976
 4483POPC   C4A58122  39.285  33.063   7.379
 4483POPC   C1B58123  38.836  33.216   6.273
 4483POPC   C2B58124  39.029  33.201   6.659
 4483POPC   C3B58125  38.931  33.261   7.068
 4483POPC   C4B58126  38.847  33.407   7.491
 4484POPC   NC358127  37.914  21.229   5.424
 4484POPC   PO458128  37.739  21.817   5.247
 4484POPC   GL158129  37.588  21.528   5.660
 4484POPC   GL258130  37.883  21.482   5.901
 4484POPC   C1A58131  37.498  21.236   6.061
 4484POPC   D2A58132  37.483  21.333   6.537
 4484POPC   C3A58133  37.599  21.085   6.932
 4484POPC   C4A58134  37.415  20.854   7.293
 4484POPC   C1B58135  38.041  21.344   6.311
 4484POPC   C2B58136  37.966  21.402   6.752
 4484POPC   C3B58137  37.750  21.574   7.117
 4484POPC   C4B58138  37.734  21.396   7.541
 4485POPC   NC358139  26.779  41.946   5.618
 4485POPC   PO458140  26.583  41.275   5.407
 4485POPC   GL158141  26.816  41.352   5.780
 4485POPC   GL258142  27.121  41.502   5.704
 4485POPC   C1A58143  26.662  41.439   6.223
 4485POPC   D2A58144  26.469  41.414   6.655
 4485POPC   C3A58145  26.684  41.655   7.011
 4485POPC   C4A58146  26.713  41.709   7.503
 4485POPC   C1B58147  27.168  41.584   6.147
 4485POPC   C2B58148  27.306  41.709   6.561
 4485POPC   C3B58149  27.197  41.636   6.969
 4485POPC   C4B58150  27.181  41.575   7.422
 4486POPC   NC358151  33.941  38.450   5.348
 4486POPC   PO458152  33.393  38.182   5.295
 4486POPC   GL158153  33.454  38.436   5.701
 4486POPC   GL258154  33.822  38.468   5.839
 4486POPC   C1A58155  33.469  38.375   6.164
 4486POPC   D2A58156  33.815  38.261   6.420
 4486POPC   C3A58157  33.670  38.378   6.834
 4486POPC   C4A58158  33.593  38.359   7.264
 4486POPC   C1B58159  33.846  38.770   6.196
 4486POPC   C2B58160  34.025  38.688   6.607
 4486POPC   C3B58161  34.171  38.440   6.930
 4486POPC   C4B58162  34.058  38.572   7.326
 4487POPC   NC358163  11.556   8.347   5.440
 4487POPC   PO458164  11.154   7.880   5.524
 4487POPC   GL158165  11.166   8.269   5.790
 4487POPC   GL258166  11.472   8.439   5.936
 4487POPC   C1A58167  11.037   8.229   6.224
 4487POPC   D2A58168  11.117   7.991   6.625
 4487POPC   C3A58169  11.045   8.268   6.990
 4487POPC   C4A58170  11.350   8.381   7.322
 4487POPC   C1B58171  11.535   8.016   6.130
 4487POPC   C2B58172  11.763   7.833   6.492
 4487POPC   C3B58173  11.629   7.731   6.897
 4487POPC   C4B58174  11.307   7.878   7.168
 4488POPC   NC358175   2.884  21.166   5.274
 4488POPC   PO458176   2.869  21.817   5.204
 4488POPC   GL158177   2.666  21.425   5.617
 4488POPC   GL258178   3.023  21.354   5.733
 4488POPC   C1A58179   2.591  21.332   6.108
 4488POPC   D2A58180   2.469  21.508   6.555
 4488POPC   C3A58181   2.342  21.261   6.930
 4488POPC   C4A58182   2.525  21.373   7.319
 4488POPC   C1B58183   3.115  21.301   6.167
 4488POPC   C2B58184   3.002  21.534   6.521
 4488POPC   C3B58185   2.878  21.416   6.933
 4488POPC   C4B58186   2.872  21.726   7.247
 4489POPC   NC358187  19.569  19.506   5.609
 4489POPC   PO458188  19.652  18.986   5.100
 4489POPC   GL158189  19.569  18.991   5.619
 4489POPC   GL258190  19.898  19.000   5.803
 4489POPC   C1A58191  19.557  18.828   6.098
 4489POPC   D2A58192  19.562  19.041   6.519
 4489POPC   C3A58193  19.730  18.872   6.882
 4489POPC   C4A58194  19.640  18.948   7.293
 4489POPC   C1B58195  19.972  19.186   6.199
 4489POPC   C2B58196  20.104  19.136   6.619
 4489POPC   C3B58197  19.959  19.304   7.008
 4489POPC   C4B58198  20.046  19.258   7.427
 4490POPC   NC358199  34.200  34.528   5.767
 4490POPC   PO458200  33.567  34.583   5.431
 4490POPC   GL158201  33.702  34.653   5.827
 4490POPC   GL258202  33.732  34.275   5.845
 4490POPC   C1A58203  33.778  34.667   6.279
 4490POPC   D2A58204  33.727  34.843   6.688
 4490POPC   C3A58205  34.017  34.826   7.016
 4490POPC   C4A58206  33.997  34.739   7.483
 4490POPC   C1B58207  33.468  34.186   6.193
 4490POPC   C2B58208  33.466  34.378   6.590
 4490POPC   C3B58209  33.710  34.405   6.987
 4490POPC   C4B58210  33.560  34.532   7.363
 4491POPC   NC358211  43.798  43.734   5.324
 4491POPC   PO458212  43.900  44.383   5.296
 4491POPC   GL158213  43.706  44.128   5.637
 4491POPC   GL258214  44.015  44.016   5.716
 4491POPC   C1A58215  43.566  43.970   6.043
 4491POPC   D2A58216  43.705  44.066   6.482
 4491POPC   C3A58217  43.661  43.805   6.862
 4491POPC   C4A58218  43.841  44.129   7.140
 4491POPC   C1B58219  44.069  43.889   6.134
 4491POPC   C2B58220  44.056  43.678   6.518
 4491POPC   C3B58221  44.181  43.779   6.911
 4491POPC   C4B58222  44.029  43.671   7.285
 4492POPC   NC358223  19.658  29.794   5.476
 4492POPC   PO458224  20.061  30.197   5.424
 4492POPC   GL158225  19.956  30.045   5.855
 4492POPC   GL258226  19.605  30.092   5.877
 4492POPC   C1A58227  19.821  30.241   6.304
 4492POPC   D2A58228  19.808  30.248   6.767
 4492POPC   C3A58229  19.937  29.922   7.068
 4492POPC   C4A58230  19.743  29.907   7.461
 4492POPC   C1B58231  19.640  29.763   6.232
 4492POPC   C2B58232  19.538  29.783   6.704
 4492POPC   C3B58233  19.533  29.585   7.115
 4492POPC   C4B58234  19.590  29.418   7.555
 4493POPC   NC358235  32.794  39.811   5.354
 4493POPC   PO458236  33.138  40.354   5.379
 4493POPC   GL158237  33.111  40.075   5.695
 4493POPC   GL258238  32.785  40.113   5.781
 4493POPC   C1A58239  33.173  40.050   6.145
 4493POPC   D2A58240  33.134  39.874   6.541
 4493POPC   C3A58241  33.249  40.015   6.973
 4493POPC   C4A58242  33.461  39.704   7.254
 4493POPC   C1B58243  32.669  40.247   6.189
 4493POPC   C2B58244  32.650  39.967   6.538
 4493POPC   C3B58245  32.735  40.019   6.934
 4493POPC   C4B58246  32.788  40.304   7.238
 4494POPC   NC358247   3.050  23.281   5.459
 4494POPC   PO458248   2.646  22.777   5.369
 4494POPC   GL158249   2.572  23.024   5.779
 4494POPC   GL258250   2.903  23.021   5.864
 4494POPC   C1A58251   2.639  23.199   6.254
 4494POPC   D2A58252   3.062  23.216   6.509
 4494POPC   C3A58253   3.008  23.146   6.954
 4494POPC   C4A58254   2.643  23.105   7.245
 4494POPC   C1B58255   2.966  22.795   6.215
 4494POPC   C2B58256   2.836  22.680   6.607
 4494POPC   C3B58257   3.035  22.650   6.977
 4494POPC   C4B58258   3.041  22.831   7.384
 4495POPC   NC358259  44.215  14.204   5.380
 4495POPC   PO458260  43.569  14.033   5.499
 4495POPC   GL158261  43.895  14.189   5.774
 4495POPC   GL258262  43.744  14.043   6.035
 4495POPC   C1A58263  44.081  14.383   6.158
 4495POPC   D2A58264  43.852  14.361   6.546
 4495POPC   C3A58265  43.956  14.158   6.920
 4495POPC   C4A58266  44.009  14.483   7.188
 4495POPC   C1B58267  43.539  14.450   6.143
 4495POPC   C2B58268  43.409  14.615   6.563
 4495POPC   C3B58269  43.512  14.428   6.977
 4495POPC   C4B58270  43.639  14.156   7.335
 4496POPC   NC358271  39.865   7.352   5.369
 4496POPC   PO458272  39.884   7.900   5.772
 4496POPC   GL158273  39.999   7.491   5.879
 4496POPC   GL258274  39.750   7.218   5.856
 4496POPC   C1A58275  39.932   7.390   6.315
 4496POPC   D2A58276  39.738   7.562   6.681
 4496POPC   C3A58277  39.988   7.511   7.064
 4496POPC   C4A58278  40.166   7.180   7.284
 4496POPC   C1B58279  39.528   7.089   6.257
 4496POPC   C2B58280  39.449   7.142   6.703
 4496POPC   C3B58281  39.707   7.075   7.063
 4496POPC   C4B58282  39.750   6.954   7.532
 4497POPC   NC358283  10.911  14.117   5.320
 4497POPC   PO458284  10.262  14.485   5.436
 4497POPC   GL158285  10.525  14.447   5.794
 4497POPC   GL258286  10.569  14.115   5.792
 4497POPC   C1A58287  10.597  14.677   6.173
 4497POPC   D2A58288  10.733  14.535   6.568
 4497POPC   C3A58289  10.580  14.614   6.981
 4497POPC   C4A58290  10.728  14.405   7.340
 4497POPC   C1B58291  10.443  14.189   6.275
 4497POPC   C2B58292  10.372  14.217   6.731
 4497POPC   C3B58293  10.276  14.155   7.179
 4497POPC   C4B58294  10.302  14.284   7.614
 4498POPC   NC358295  21.002  26.943   5.471
 4498POPC   PO458296  20.393  26.608   5.404
 4498POPC   GL158297  20.554  26.851   5.751
 4498POPC   GL258298  20.818  26.605   5.829
 4498POPC   C1A58299  20.744  27.071   6.126
 4498POPC   D2A58300  20.721  27.232   6.591
 4498POPC   C3A58301  20.746  26.917   6.930
 4498POPC   C4A58302  20.858  26.635   7.234
 4498POPC   C1B58303  20.634  26.590   6.256
 4498POPC   C2B58304  20.684  26.451   6.679
 4498POPC   C3B58305  20.391  26.522   6.978
 4498POPC   C4B58306  20.364  26.480   7.357
 4499POPC   NC358307  43.843  12.403   5.267
 4499POPC   PO458308  43.941  13.126   5.306
 4499POPC   GL158309  43.831  12.816   5.618
 4499POPC   GL258310  44.138  12.787   5.824
 4499POPC   C1A58311  43.680  12.764   6.061
 4499POPC   D2A58312  43.545  12.916   6.471
 4499POPC   C3A58313  43.792  12.760   6.800
 4499POPC   C4A58314  43.686  12.817   7.214
 4499POPC   C1B58315  44.092  13.096   6.186
 4499POPC   C2B58316  44.213  13.276   6.589
 4499POPC   C3B58317  44.167  13.125   7.036
 4499POPC   C4B58318  44.187  12.688   7.199
 4500POPC   NC358319  30.144  34.413   5.420
 4500POPC   PO458320  29.469  34.553   5.430
 4500POPC   GL158321  29.815  34.650   5.838
 4500POPC   GL258322  30.158  34.579   5.991
 4500POPC   C1A58323  29.804  34.717   6.340
 4500POPC   D2A58324  29.698  34.552   6.775
 4500POPC   C3A58325  30.002  34.727   7.109
 4500POPC   C4A58326  30.256  35.091   6.987
 4500POPC   C1B58327  30.084  34.307   6.338
 4500POPC   C2B58328  30.168  34.335   6.761
 4500POPC   C3B58329  29.984  34.224   7.115
 4500POPC   C4B58330  30.205  34.368   7.463
 4501POPC   NC358331   5.003  44.787   5.377
 4501POPC   PO458332   5.153  44.176   5.519
 4501POPC   GL158333   5.102  44.579   5.835
 4501POPC   GL258334   4.844  44.892   5.842
 4501POPC   C1A58335   5.075  44.749   6.281
 4501POPC   D2A58336   4.819  44.794   6.667
 4501POPC   C3A58337   4.924  44.580   7.100
 4501POPC   C4A58338   4.817  44.378   7.525
 4501POPC   C1B58339   4.853   0.206   6.177
 4501POPC   C2B58340   4.955   0.296   6.623
 4501POPC   C3B58341   4.937   0.112   7.067
 4501POPC   C4B58342   5.188  44.886   7.436
 4502POPC   NC358343   9.179  27.114   5.503
 4502POPC   PO458344   9.536  26.678   5.130
 4502POPC   GL158345   9.587  26.773   5.588
 4502POPC   GL258346   9.899  26.841   5.761
 4502POPC   C1A58347   9.446  26.755   6.035
 4502POPC   D2A58348   9.608  26.608   6.439
 4502POPC   C3A58349   9.479  26.802   6.799
 4502POPC   C4A58350   9.611  26.717   7.202
 4502POPC   C1B58351   9.909  26.972   6.203
 4502POPC   C2B58352  10.038  26.876   6.629
 4502POPC   C3B58353  10.097  27.039   7.039
 4502POPC   C4B58354  10.020  26.883   7.427
 4503POPC   NC358355  18.195  43.415   5.268
 4503POPC   PO458356  18.474  44.038   5.383
 4503POPC   GL158357  18.367  44.090   5.804
 4503POPC   GL258358  18.470  43.727   5.826
 4503POPC   C1A58359  18.472  44.048   6.251
 4503POPC   D2A58360  18.231  43.819   6.565
 4503POPC   C3A58361  18.250  43.969   6.994
 4503POPC   C4A58362  17.858  43.959   7.261
 4503POPC   C1B58363  18.506  43.488   6.199
 4503POPC   C2B58364  18.412  43.310   6.607
 4503POPC   C3B58365  18.209  43.449   6.966
 4503POPC   C4B58366  18.248  43.631   7.377
 4504POPC   NC358367   9.947  23.924   5.421
 4504POPC   PO458368   9.306  23.714   5.396
 4504POPC   GL158369   9.610  23.725   5.778
 4504POPC   GL258370   9.907  23.525   5.791
 4504POPC   C1A58371   9.820  23.928   6.142
 4504POPC   D2A58372   9.736  24.104   6.554
 4504POPC   C3A58373   9.783  23.883   6.926
 4504POPC   C4A58374   9.795  23.922   7.345
 4504POPC   C1B58375   9.880  23.316   6.220
 4504POPC   C2B58376   9.825  23.451   6.677
 4504POPC   C3B58377   9.826  23.404   7.154
 4504POPC   C4B58378   9.833  23.505   7.614
 4505POPC   NC358379  17.121   6.443   5.330
 4505POPC   PO458380  16.727   6.896   5.486
 4505POPC   GL158381  16.801   6.775   5.894
 4505POPC   GL258382  16.958   6.450   5.823
 4505POPC   C1A58383  16.661   6.697   6.313
 4505POPC   D2A58384  16.765   6.829   6.664
 4505POPC   C3A58385  16.580   6.557   6.951
 4505POPC   C4A58386  16.367   6.546   7.331
 4505POPC   C1B58387  17.125   6.550   6.213
 4505POPC   C2B58388  17.254   6.830   6.494
 4505POPC   C3B58389  17.234   6.607   6.846
 4505POPC   C4B58390  17.201   6.417   7.230
 4506POPC   NC358391  43.643  14.503   5.433
 4506POPC   PO458392  43.068  14.505   5.481
 4506POPC   GL158393  43.081  14.458   5.910
 4506POPC   GL258394  43.230  14.118   5.939
 4506POPC   C1A58395  42.912  14.661   6.325
 4506POPC   D2A58396  42.964  14.856   6.767
 4506POPC   C3A58397  43.019  14.596   7.177
 4506POPC   C4A58398  42.877  14.513   7.646
 4506POPC   C1B58399  43.137  14.199   6.342
 4506POPC   C2B58400  43.077  14.277   6.749
 4506POPC   C3B58401  43.155  14.077   7.108
 4506POPC   C4B58402  43.188  14.142   7.547
 4507POPC   NC358403  29.742  24.011   5.451
 4507POPC   PO458404  29.800  24.686   5.474
 4507POPC   GL158405  30.012  24.586   5.877
 4507POPC   GL258406  30.013  24.241   5.889
 4507POPC   C1A58407  29.913  24.479   6.326
 4507POPC   D2A58408  29.851  24.687   6.726
 4507POPC   C3A58409  29.922  24.479   7.128
 4507POPC   C4A58410  30.292  24.286   7.310
 4507POPC   C1B58411  30.167  24.015   6.301
 4507POPC   C2B58412  30.164  24.073   6.781
 4507POPC   C3B58413  29.859  23.961   7.118
 4507POPC   C4B58414  29.523  23.901   7.449
 4508POPC   NC358415  26.336  30.135   5.442
 4508POPC   PO458416  25.776  29.751   5.335
 4508POPC   GL158417  25.986  29.878   5.739
 4508POPC   GL258418  26.315  29.723   5.750
 4508POPC   C1A58419  25.915  30.122   6.144
 4508POPC   D2A58420  25.834  30.278   6.565
 4508POPC   C3A58421  25.850  30.007   6.900
 4508POPC   C4A58422  25.750  29.961   7.298
 4508POPC   C1B58423  26.404  29.986   6.119
 4508POPC   C2B58424  26.351  30.202   6.533
 4508POPC   C3B58425  26.342  30.038   6.969
 4508POPC   C4B58426  26.287  29.789   7.373
 4509POPC   NC358427   7.080  28.324   5.265
 4509POPC   PO458428   6.403  28.318   5.474
 4509POPC   GL158429   6.660  28.162   5.831
 4509POPC   GL258430   6.921  28.426   5.856
 4509POPC   C1A58431   6.733  28.224   6.289
 4509POPC   D2A58432   6.661  28.456   6.688
 4509POPC   C3A58433   6.651  28.298   7.125
 4509POPC   C4A58434   6.707  28.056   7.522
 4509POPC   C1B58435   6.919  28.692   6.268
 4509POPC   C2B58436   7.076  28.777   6.689
 4509POPC   C3B58437   6.865  28.766   7.079
 4509POPC   C4B58438   6.918  28.532   7.499
 4510POPC   NC358439   6.967   0.032   5.207
 4510POPC   PO458440   7.237  44.523   5.547
 4510POPC   GL158441   7.434  44.831   5.854
 4510POPC   GL258442   7.769  44.995   5.783
 4510POPC   C1A58443   7.383  44.853   6.324
 4510POPC   D2A58444   7.422   0.086   6.732
 4510POPC   C3A58445   7.143  44.908   7.068
 4510POPC   C4A58446   7.174  44.543   7.356
 4510POPC   C1B58447   7.871  44.747   6.156
 4510POPC   C2B58448   7.765  44.646   6.603
 4510POPC   C3B58449   7.626  44.646   7.037
 4510POPC   C4B58450   7.868  44.568   7.424
 4511POPC   NC358451  34.051  11.624   5.232
 4511POPC   PO458452  33.494  11.270   5.223
 4511POPC   GL158453  33.729  11.368   5.628
 4511POPC   GL258454  33.920  11.080   5.740
 4511POPC   C1A58455  33.609  11.482   6.071
 4511POPC   D2A58456  33.578  11.616   6.511
 4511POPC   C3A58457  33.925  11.617   6.816
 4511POPC   C4A58458  33.819  11.740   7.234
 4511POPC   C1B58459  34.079  11.284   6.107
 4511POPC   C2B58460  33.849  11.188   6.484
 4511POPC   C3B58461  33.606  11.209   6.850
 4511POPC   C4B58462  33.823  11.240   7.205
 4512POPC   NC358463  10.630  43.938   5.216
 4512POPC   PO458464  10.222  43.527   5.564
 4512POPC   GL158465  10.350  43.779   5.843
 4512POPC   GL258466  10.498  44.074   5.690
 4512POPC   C1A58467  10.514  43.646   6.227
 4512POPC   D2A58468  10.641  43.396   6.571
 4512POPC   C3A58469  10.545  43.619   6.961
 4512POPC   C4A58470  10.497  43.763   7.382
 4512POPC   C1B58471  10.546  44.171   6.143
 4512POPC   C2B58472  10.410  44.029   6.586
 4512POPC   C3B58473  10.386  44.141   7.018
 4512POPC   C4B58474  10.788  44.281   7.212
 4513POPC   NC358475  19.820  19.413   5.114
 4513POPC   PO458476  19.600  19.935   5.410
 4513POPC   GL158477  19.725  20.005   5.805
 4513POPC   GL258478  20.013  20.248   5.837
 4513POPC   C1A58479  19.586  19.806   6.201
 4513POPC   D2A58480  19.812  19.587   6.537
 4513POPC   C3A58481  19.781  19.784   6.930
 4513POPC   C4A58482  19.853  19.708   7.345
 4513POPC   C1B58483  20.100  20.080   6.269
 4513POPC   C2B58484  20.135  20.089   6.725
 4513POPC   C3B58485  20.157  20.090   7.176
 4513POPC   C4B58486  20.061  20.177   7.641
 4514POPC   NC358487  21.777  14.351   5.366
 4514POPC   PO458488  21.216  14.731   5.551
 4514POPC   GL158489  21.532  14.529   5.822
 4514POPC   GL258490  21.849  14.642   5.823
 4514POPC   C1A58491  21.681  14.454   6.267
 4514POPC   D2A58492  21.684  14.394   6.727
 4514POPC   C3A58493  21.355  14.324   7.038
 4514POPC   C4A58494  20.938  14.179   7.223
 4514POPC   C1B58495  21.848  14.934   6.197
 4514POPC   C2B58496  21.701  14.994   6.635
 4514POPC   C3B58497  21.542  14.813   7.021
 4514POPC   C4B58498  21.658  14.607   7.411
 4515POPC   NC358499  34.906   0.943   5.420
 4515POPC   PO458500  34.279   1.259   5.304
 4515POPC   GL158501  34.305   1.246   5.744
 4515POPC   GL258502  34.619   1.235   5.873
 4515POPC   C1A58503  34.180   0.997   6.096
 4515POPC   D2A58504  34.112   0.988   6.550
 4515POPC   C3A58505  34.318   1.043   6.954
 4515POPC   C4A58506  34.452   1.164   7.372
 4515POPC   C1B58507  34.492   1.322   6.306
 4515POPC   C2B58508  34.666   1.292   6.709
 4515POPC   C3B58509  34.557   1.553   7.069
 4515POPC   C4B58510  34.635   1.604   7.542
 4516POPC   NC358511  19.897  23.923   5.404
 4516POPC   PO458512  19.265  23.497   5.565
 4516POPC   GL158513  19.629  23.623   5.814
 4516POPC   GL258514  19.984  23.560   5.752
 4516POPC   C1A58515  19.780  23.502   6.229
 4516POPC   D2A58516  19.689  23.546   6.667
 4516POPC   C3A58517  19.794  23.871   6.925
 4516POPC   C4A58518  19.839  23.527   7.202
 4516POPC   C1B58519  20.210  23.790   6.080
 4516POPC   C2B58520  20.108  23.814   6.517
 4516POPC   C3B58521  20.267  23.696   6.948
 4516POPC   C4B58522  20.375  23.973   7.321
 4517POPC   NC358523   6.986  11.057   5.253
 4517POPC   PO458524   6.467  11.506   5.494
 4517POPC   GL158525   6.673  11.477   5.891
 4517POPC   GL258526   7.002  11.523   5.842
 4517POPC   C1A58527   6.590  11.385   6.326
 4517POPC   D2A58528   6.602  11.090   6.696
 4517POPC   C3A58529   6.539  11.334   7.085
 4517POPC   C4A58530   6.445  11.372   7.528
 4517POPC   C1B58531   7.024  11.157   6.155
 4517POPC   C2B58532   7.177  11.003   6.574
 4517POPC   C3B58533   7.032  11.083   7.001
 4517POPC   C4B58534   6.994  11.483   7.228
 4518POPC   NC358535  37.458  34.554   5.636
 4518POPC   PO458536  38.079  34.808   5.459
 4518POPC   GL158537  37.932  34.656   5.836
 4518POPC   GL258538  37.915  34.303   5.837
 4518POPC   C1A58539  37.690  34.679   6.228
 4518POPC   D2A58540  37.832  34.749   6.628
 4518POPC   C3A58541  37.594  34.756   6.965
 4518POPC   C4A58542  37.550  34.609   7.355
 4518POPC   C1B58543  37.693  34.178   6.217
 4518POPC   C2B58544  37.506  34.348   6.609
 4518POPC   C3B58545  37.574  34.209   7.020
 4518POPC   C4B58546  37.843  34.155   7.387
 4519POPC   NC358547  37.154  30.209   5.189
 4519POPC   PO458548  36.660  30.248   5.589
 4519POPC   GL158549  36.841  30.073   5.881
 4519POPC   GL258550  37.116  29.946   5.783
 4519POPC   C1A58551  36.702  30.104   6.294
 4519POPC   D2A58552  36.862  30.109   6.670
 4519POPC   C3A58553  36.716  29.900   7.033
 4519POPC   C4A58554  36.903  30.196   7.313
 4519POPC   C1B58555  37.235  30.079   6.208
 4519POPC   C2B58556  37.306  29.827   6.559
 4519POPC   C3B58557  37.212  29.881   6.972
 4519POPC   C4B58558  37.051  29.679   7.331
 4520POPC   NC358559  16.561  24.681   5.435
 4520POPC   PO458560  17.071  24.269   5.249
 4520POPC   GL158561  16.907  24.281   5.678
 4520POPC   GL258562  16.621  24.061   5.779
 4520POPC   C1A58563  16.921  24.370   6.130
 4520POPC   D2A58564  16.799  24.436   6.565
 4520POPC   C3A58565  17.102  24.314   6.890
 4520POPC   C4A58566  17.159  24.605   7.208
 4520POPC   C1B58567  16.471  24.103   6.234
 4520POPC   C2B58568  16.332  24.234   6.676
 4520POPC   C3B58569  16.583  24.300   7.071
 4520POPC   C4B58570  16.463  24.079   7.468
 4521POPC   NC358571  44.177  18.731   5.406
 4521POPC   PO458572  43.747  19.266   5.239
 4521POPC   GL158573  43.693  19.158   5.739
 4521POPC   GL258574  43.802  18.819   5.743
 4521POPC   C1A58575  43.862  19.120   6.182
 4521POPC   D2A58576  44.041  18.924   6.559
 4521POPC   C3A58577  44.017  19.110   6.957
 4521POPC   C4A58578  43.796  19.339   7.243
 4521POPC   C1B58579  43.519  18.749   6.067
 4521POPC   C2B58580  43.629  18.636   6.470
 4521POPC   C3B58581  43.610  18.772   6.881
 4521POPC   C4B58582  43.567  18.531   7.227
 4522POPC   NC358583  20.698  23.374   5.242
 4522POPC   PO458584  20.418  23.988   5.333
 4522POPC   GL158585  20.696  23.749   5.624
 4522POPC   GL258586  20.926  23.937   5.820
 4522POPC   C1A58587  20.671  23.535   6.044
 4522POPC   D2A58588  20.556  23.595   6.479
 4522POPC   C3A58589  20.668  23.372   6.850
 4522POPC   C4A58590  20.709  23.526   7.265
 4522POPC   C1B58591  20.788  23.989   6.207
 4522POPC   C2B58592  20.798  24.059   6.607
 4522POPC   C3B58593  20.722  23.917   6.948
 4522POPC   C4B58594  20.957  23.954   7.316
 4523POPC   NC358595   7.106  30.357   5.437
 4523POPC   PO458596   7.001  29.630   5.412
 4523POPC   GL158597   7.294  29.729   5.779
 4523POPC   GL258598   7.677  29.612   5.770
 4523POPC   C1A58599   7.204  29.838   6.225
 4523POPC   D2A58600   7.257  29.610   6.639
 4523POPC   C3A58601   7.311  29.799   7.049
 4523POPC   C4A58602   7.087  30.192   7.044
 4523POPC   C1B58603   7.758  29.949   6.101
 4523POPC   C2B58604   7.883  30.060   6.556
 4523POPC   C3B58605   7.728  30.113   6.986
 4523POPC   C4B58606   7.752  29.839   7.351
 4524POPC   NC358607  28.281  29.121   5.233
 4524POPC   PO458608  28.786  29.464   5.274
 4524POPC   GL158609  28.573  29.208   5.679
 4524POPC   GL258610  28.282  29.028   5.749
 4524POPC   C1A58611  28.571  29.041   6.161
 4524POPC   D2A58612  28.355  29.085   6.605
 4524POPC   C3A58613  28.605  29.124   7.036
 4524POPC   C4A58614  28.634  28.993   7.499
 4524POPC   C1B58615  28.071  29.202   6.128
 4524POPC   C2B58616  27.986  29.445   6.489
 4524POPC   C3B58617  27.930  29.354   6.941
 4524POPC   C4B58618  28.125  29.063   7.267
 4525POPC   NC358619  25.141  44.029   5.230
 4525POPC   PO458620  25.747  43.847   5.540
 4525POPC   GL158621  25.382  43.814   5.770
 4525POPC   GL258622  25.106  44.055   5.748
 4525POPC   C1A58623  25.250  43.879   6.195
 4525POPC   D2A58624  25.039  43.758   6.567
 4525POPC   C3A58625  25.218  43.882   6.973
 4525POPC   C4A58626  25.431  43.637   7.346
 4525POPC   C1B58627  24.996  44.312   6.152
 4525POPC   C2B58628  25.218  44.282   6.554
 4525POPC   C3B58629  25.173  44.414   6.988
 4525POPC   C4B58630  25.026  44.222   7.351
 4526POPC   NC358631  13.064  23.396   5.036
 4526POPC   PO458632  12.797  23.949   5.217
 4526POPC   GL158633  12.769  23.854   5.717
 4526POPC   GL258634  12.476  23.964   5.885
 4526POPC   C1A58635  12.789  23.682   6.198
 4526POPC   D2A58636  12.846  23.494   6.648
 4526POPC   C3A58637  12.729  23.714   7.030
 4526POPC   C4A58638  12.842  23.676   7.479
 4526POPC   C1B58639  12.368  24.115   6.281
 4526POPC   C2B58640  12.590  24.070   6.665
 4526POPC   C3B58641  12.491  24.191   7.066
 4526POPC   C4B58642  12.443  23.976   7.414
 4527POPC   NC358643   3.564  43.540   5.500
 4527POPC   PO458644   3.781  44.125   5.427
 4527POPC   GL158645   3.457  44.025   5.775
 4527POPC   GL258646   3.349  43.719   5.938
 4527POPC   C1A58647   3.304  44.186   6.154
 4527POPC   D2A58648   3.633  44.222   6.496
 4527POPC   C3A58649   3.627  44.089   6.945
 4527POPC   C4A58650   3.369  44.191   7.279
 4527POPC   C1B58651   3.453  43.749   6.371
 4527POPC   C2B58652   3.260  43.777   6.763
 4527POPC   C3B58653   3.384  43.667   7.174
 4527POPC   C4B58654   3.571  43.814   7.577
 4528POPC   NC358655  36.581  27.461   5.342
 4528POPC   PO458656  35.998  27.589   5.277
 4528POPC   GL158657  36.017  27.524   5.739
 4528POPC   GL258658  36.373  27.574   5.857
 4528POPC   C1A58659  35.993  27.689   6.191
 4528POPC   D2A58660  36.074  27.550   6.637
 4528POPC   C3A58661  36.035  27.772   7.029
 4528POPC   C4A58662  35.724  27.783   7.322
 4528POPC   C1B58663  36.410  27.359   6.288
 4528POPC   C2B58664  36.424  27.180   6.750
 4528POPC   C3B58665  36.206  27.185   7.170
 4528POPC   C4B58666  36.143  26.934   7.567
 4529POPC   NC358667   3.388  32.561   5.120
 4529POPC   PO458668   3.353  31.970   5.410
 4529POPC   GL158669   3.593  32.094   5.797
 4529POPC   GL258670   3.647  32.425   5.784
 4529POPC   C1A58671   3.753  32.211   6.261
 4529POPC   D2A58672   3.945  32.346   6.693
 4529POPC   C3A58673   3.789  32.306   7.142
 4529POPC   C4A58674   3.536  32.135   7.492
 4529POPC   C1B58675   3.365  32.535   6.143
 4529POPC   C2B58676   3.475  32.565   6.562
 4529POPC   C3B58677   3.352  32.374   6.929
 4529POPC   C4B58678   3.317  32.546   7.309
 4530POPC   NC358679  13.641  22.661   5.071
 4530POPC   PO458680  13.772  22.068   5.456
 4530POPC   GL158681  13.687  22.044   5.885
 4530POPC   GL258682  13.469  22.346   5.872
 4530POPC   C1A58683  13.608  21.898   6.307
 4530POPC   D2A58684  13.507  21.726   6.697
 4530POPC   C3A58685  13.698  21.953   7.010
 4530POPC   C4A58686  13.576  22.267   7.252
 4530POPC   C1B58687  13.685  22.400   6.251
 4530POPC   C2B58688  13.588  22.321   6.661
 4530POPC   C3B58689  13.646  22.646   6.932
 4530POPC   C4B58690  13.585  22.771   7.357
 4531POPC   NC358691  10.530  36.504   5.412
 4531POPC   PO458692  10.076  36.025   5.327
 4531POPC   GL158693  10.299  36.135   5.708
 4531POPC   GL258694  10.660  36.063   5.682
 4531POPC   C1A58695  10.430  36.290   6.118
 4531POPC   D2A58696  10.359  36.359   6.551
 4531POPC   C3A58697  10.514  36.218   6.952
 4531POPC   C4A58698  10.320  35.975   7.266
 4531POPC   C1B58699  10.669  35.853   6.081
 4531POPC   C2B58700  10.413  35.810   6.438
 4531POPC   C3B58701  10.377  35.638   6.858
 4531POPC   C4B58702  10.720  35.657   7.139
 4532POPC   NC358703  19.815  31.269   5.363
 4532POPC   PO458704  20.114  31.873   5.470
 4532POPC   GL158705  19.896  31.589   5.757
 4532POPC   GL258706  20.193  31.565   5.942
 4532POPC   C1A58707  19.803  31.382   6.175
 4532POPC   D2A58708  20.041  31.452   6.562
 4532POPC   C3A58709  19.807  31.453   6.930
 4532POPC   C4A58710  19.741  31.184   7.240
 4532POPC   C1B58711  19.999  31.862   6.276
 4532POPC   C2B58712  19.804  31.923   6.721
 4532POPC   C3B58713  19.976  31.880   7.179
 4532POPC   C4B58714  20.011  31.973   7.666
 4533POPC   NC358715   8.710   9.182   5.366
 4533POPC   PO458716   9.382   8.983   5.376
 4533POPC   GL158717   9.153   8.870   5.772
 4533POPC   GL258718   8.773   8.860   5.825
 4533POPC   C1A58719   9.127   8.994   6.203
 4533POPC   D2A58720   8.822   8.957   6.519
 4533POPC   C3A58721   8.916   9.053   6.928
 4533POPC   C4A58722   9.097   8.725   7.138
 4533POPC   C1B58723   8.538   9.155   6.133
 4533POPC   C2B58724   8.374   9.194   6.588
 4533POPC   C3B58725   8.424   8.911   6.973
 4533POPC   C4B58726   8.658   8.820   7.381
 4534POPC   NC358727   9.065   0.710   5.407
 4534POPC   PO458728   8.640   0.235   5.699
 4534POPC   GL158729   9.036   0.359   5.809
 4534POPC   GL258730   8.893   0.680   5.867
 4534POPC   C1A58731   9.273   0.182   6.132
 4534POPC   D2A58732   9.192   0.345   6.542
 4534POPC   C3A58733   9.220   0.176   6.925
 4534POPC   C4A58734   9.037   0.228   7.309
 4534POPC   C1B58735   8.862   0.616   6.271
 4534POPC   C2B58736   8.810   0.642   6.682
 4534POPC   C3B58737   8.711   0.476   7.029
 4534POPC   C4B58738   8.791   0.685   7.371
 4535POPC   NC358739   8.484   4.002   5.378
 4535POPC   PO458740   8.645   3.359   5.418
 4535POPC   GL158741   8.289   3.531   5.699
 4535POPC   GL258742   8.115   3.853   5.718
 4535POPC   C1A58743   8.085   3.438   6.124
 4535POPC   D2A58744   8.331   3.229   6.460
 4535POPC   C3A58745   8.121   3.275   6.869
 4535POPC   C4A58746   7.958   3.664   7.102
 4535POPC   C1B58747   8.273   3.899   6.167
 4535POPC   C2B58748   8.208   3.716   6.573
 4535POPC   C3B58749   8.400   3.883   6.904
 4535POPC   C4B58750   8.449   3.728   7.294
 4536POPC   NC358751   0.557   9.362   5.647
 4536POPC   PO458752   0.222   8.807   5.395
 4536POPC   GL158753   0.563   8.849   5.708
 4536POPC   GL258754   0.355   9.011   5.931
 4536POPC   C1A58755   0.801   8.906   6.134
 4536POPC   D2A58756   0.636   9.107   6.531
 4536POPC   C3A58757   0.384   8.833   6.812
 4536POPC   C4A58758   0.551   8.846   7.235
 4536POPC   C1B58759   0.245   9.338   6.235
 4536POPC   C2B58760   0.160   9.333   6.661
 4536POPC   C3B58761   0.308   9.277   7.077
 4536POPC   C4B58762   0.154   9.141   7.474
 4537POPC   NC358763  33.416  16.167   5.531
 4537POPC   PO458764  34.063  16.258   5.583
 4537POPC   GL158765  33.857  15.968   5.902
 4537POPC   GL258766  33.501  15.764   5.880
 4537POPC   C1A58767  34.112  15.761   6.262
 4537POPC   D2A58768  34.068  15.778   6.725
 4537POPC   C3A58769  33.810  16.128   6.852
 4537POPC   C4A58770  33.844  16.374   7.232
 4537POPC   C1B58771  33.604  15.832   6.344
 4537POPC   C2B58772  33.579  15.583   6.724
 4537POPC   C3B58773  33.400  15.650   7.103
 4537POPC   C4B58774  33.838  15.765   7.215
 4538POPC   NC358775  30.187  23.432   5.487
 4538POPC   PO458776  30.202  24.114   5.411
 4538POPC   GL158777  30.309  23.832   5.799
 4538POPC   GL258778  29.971  23.739   5.877
 4538POPC   C1A58779  30.264  23.517   6.204
 4538POPC   D2A58780  30.026  23.506   6.600
 4538POPC   C3A58781  30.185  23.546   6.974
 4538POPC   C4A58782  30.330  23.805   7.235
 4538POPC   C1B58783  29.706  23.549   6.216
 4538POPC   C2B58784  29.541  23.418   6.669
 4538POPC   C3B58785  29.641  23.489   7.134
 4538POPC   C4B58786  29.751  23.465   7.594
 4539POPC   NC358787  36.058  35.483   5.142
 4539POPC   PO458788  36.391  34.992   5.449
 4539POPC   GL158789  36.155  35.298   5.668
 4539POPC   GL258790  35.904  35.197   5.819
 4539POPC   C1A58791  36.224  35.421   6.131
 4539POPC   D2A58792  36.314  35.199   6.524
 4539POPC   C3A58793  36.482  35.452   6.888
 4539POPC   C4A58794  36.415  35.292   7.290
 4539POPC   C1B58795  35.715  35.418   6.173
 4539POPC   C2B58796  35.778  35.249   6.589
 4539POPC   C3B58797  35.983  35.347   6.980
 4539POPC   C4B58798  35.896  35.183   7.373
 4540POPC   NC358799   4.507  12.384   5.416
 4540POPC   PO458800   4.198  11.749   5.437
 4540POPC   GL158801   4.212  12.024   5.744
 4540POPC   GL258802   4.520  12.137   5.868
 4540POPC   C1A58803   4.057  11.968   6.123
 4540POPC   D2A58804   4.358  12.006   6.418
 4540POPC   C3A58805   4.256  12.078   6.805
 4540POPC   C4A58806   4.227  12.083   7.217
 4540POPC   C1B58807   4.683  12.368   6.218
 4540POPC   C2B58808   4.753  12.230   6.655
 4540POPC   C3B58809   4.715  12.515   6.992
 4540POPC   C4B58810   4.563  12.432   7.391
 4541POPC   NC358811   6.092  33.977   5.368
 4541POPC   PO458812   6.722  33.667   5.316
 4541POPC   GL158813   6.484  33.780   5.677
 4541POPC   GL258814   6.341  33.528   5.849
 4541POPC   C1A58815   6.670  33.880   6.087
 4541POPC   D2A58816   6.609  33.970   6.524
 4541POPC   C3A58817   6.895  34.000   6.831
 4541POPC   C4A58818   6.759  33.825   7.203
 4541POPC   C1B58819   6.773  33.408   5.952
 4541POPC   C2B58820   6.889  33.491   6.387
 4541POPC   C3B58821   6.793  33.469   6.827
 4541POPC   C4B58822   7.054  33.400   7.209
 4542POPC   NC358823   5.995  27.139   5.440
 4542POPC   PO458824   5.466  26.618   5.415
 4542POPC   GL158825   5.632  26.921   5.777
 4542POPC   GL258826   6.008  26.909   5.885
 4542POPC   C1A58827   5.749  27.258   6.114
 4542POPC   D2A58828   5.831  27.340   6.559
 4542POPC   C3A58829   5.777  26.977   6.791
 4542POPC   C4A58830   6.004  26.819   7.114
 4542POPC   C1B58831   6.065  26.887   6.334
 4542POPC   C2B58832   6.097  26.577   6.654
 4542POPC   C3B58833   6.352  26.441   6.973
 4542POPC   C4B58834   6.359  26.583   7.379
 4543POPC   NC358835   9.294  10.893   5.299
 4543POPC   PO458836   8.922  10.363   5.309
 4543POPC   GL158837   8.946  10.687   5.675
 4543POPC   GL258838   9.221  10.777   5.816
 4543POPC   C1A58839   8.817  10.720   6.146
 4543POPC   D2A58840   9.014  10.644   6.581
 4543POPC   C3A58841   8.967  10.290   6.864
 4543POPC   C4A58842   8.930  10.301   7.356
 4543POPC   C1B58843   9.387  10.735   6.241
 4543POPC   C2B58844   9.533  10.631   6.680
 4543POPC   C3B58845   9.383  10.479   7.067
 4543POPC   C4B58846   9.107  10.767   7.261
 4544POPC   NC358847  27.219   1.409   5.738
 4544POPC   PO458848  26.655   1.333   5.432
 4544POPC   GL158849  26.745   1.261   5.870
 4544POPC   GL258850  26.436   1.433   5.901
 4544POPC   C1A58851  26.892   1.234   6.323
 4544POPC   D2A58852  26.640   1.141   6.698
 4544POPC   C3A58853  26.949   0.965   7.004
 4544POPC   C4A58854  26.963   0.809   7.431
 4544POPC   C1B58855  26.422   1.421   6.310
 4544POPC   C2B58856  26.594   1.653   6.652
 4544POPC   C3B58857  26.863   1.476   6.992
 4544POPC   C4B58858  26.688   1.226   7.346
 4545POPC   NC358859   2.883  24.445   5.493
 4545POPC   PO458860   2.514  24.907   5.681
 4545POPC   GL158861   2.758  24.623   5.952
 4545POPC   GL258862   2.762  24.215   5.916
 4545POPC   C1A58863   3.037  24.635   6.281
 4545POPC   D2A58864   3.020  24.460   6.676
 4545POPC   C3A58865   2.604  24.549   6.818
 4545POPC   C4A58866   2.800  24.590   7.187
 4545POPC   C1B58867   2.788  24.183   6.327
 4545POPC   C2B58868   2.663  24.042   6.686
 4545POPC   C3B58869   2.598  24.089   7.098
 4545POPC   C4B58870   2.407  24.307   7.388
 4546POPC   NC358871  21.822  27.797   5.376
 4546POPC   PO458872  22.376  27.558   5.438
 4546POPC   GL158873  22.200  27.711   5.826
 4546POPC   GL258874  22.007  28.012   5.798
 4546POPC   C1A58875  22.139  27.604   6.275
 4546POPC   D2A58876  22.355  27.454   6.653
 4546POPC   C3A58877  22.193  27.521   7.071
 4546POPC   C4A58878  22.367  27.625   7.492
 4546POPC   C1B58879  21.872  28.045   6.212
 4546POPC   C2B58880  21.932  27.912   6.647
 4546POPC   C3B58881  21.955  27.966   7.081
 4546POPC   C4B58882  21.866  27.775   7.500
 4547POPC   NC358883  25.514   9.110   5.554
 4547POPC   PO458884  25.059   8.689   5.298
 4547POPC   GL158885  25.106   8.803   5.709
 4547POPC   GL258886  24.984   9.148   5.713
 4547POPC   C1A58887  25.172   8.624   6.131
 4547POPC   D2A58888  25.390   8.738   6.504
 4547POPC   C3A58889  25.182   8.767   6.903
 4547POPC   C4A58890  25.342   8.755   7.329
 4547POPC   C1B58891  25.158   9.141   6.117
 4547POPC   C2B58892  25.248   9.261   6.524
 4547POPC   C3B58893  25.397   9.235   6.928
 4547POPC   C4B58894  25.102   9.220   7.253
 4548POPC   NC358895  33.399  18.471   5.628
 4548POPC   PO458896  33.912  18.365   5.265
 4548POPC   GL158897  33.830  18.107   5.685
 4548POPC   GL258898  33.544  17.915   5.859
 4548POPC   C1A58899  33.887  18.216   6.143
 4548POPC   D2A58900  33.792  18.538   6.467
 4548POPC   C3A58901  33.827  18.387   6.906
 4548POPC   C4A58902  33.554  18.532   7.218
 4548POPC   C1B58903  33.386  18.122   6.255
 4548POPC   C2B58904  33.401  18.205   6.703
 4548POPC   C3B58905  33.407  18.057   7.139
 4548POPC   C4B58906  33.787  18.113   7.411
 4549POPC   NC358907  13.762  11.054   5.566
 4549POPC   PO458908  13.721  11.726   5.505
 4549POPC   GL158909  13.524  11.439   5.815
 4549POPC   GL258910  13.261  11.152   5.748
 4549POPC   C1A58911  13.600  11.351   6.236
 4549POPC   D2A58912  13.857  11.295   6.589
 4549POPC   C3A58913  13.615  11.230   6.918
 4549POPC   C4A58914  13.425  11.398   7.237
 4549POPC   C1B58915  13.241  10.987   6.168
 4549POPC   C2B58916  13.534  10.864   6.482
 4549POPC   C3B58917  13.612  10.725   6.889
 4549POPC   C4B58918  13.409  10.881   7.257
 4550POPC   NC358919  33.233  33.277   5.475
 4550POPC   PO458920  32.805  32.742   5.536
 4550POPC   GL158921  33.099  32.920   5.819
 4550POPC   GL258922  32.884  33.223   5.885
 4550POPC   C1A58923  33.205  33.069   6.225
 4550POPC   D2A58924  33.039  33.246   6.598
 4550POPC   C3A58925  33.199  33.120   6.987
 4550POPC   C4A58926  33.436  33.404   7.198
 4550POPC   C1B58927  32.633  33.182   6.301
 4550POPC   C2B58928  32.565  33.253   6.775
 4550POPC   C3B58929  32.719  33.103   7.148
 4550POPC   C4B58930  32.913  32.696   7.150
 4551POPC   NC358931  10.144  33.760   5.523
 4551POPC   PO458932  10.798  33.859   5.574
 4551POPC   GL158933  10.520  33.794   5.873
 4551POPC   GL258934  10.413  34.156   5.858
 4551POPC   C1A58935  10.651  33.586   6.249
 4551POPC   D2A58936  11.002  33.617   6.544
 4551POPC   C3A58937  10.763  33.724   6.899
 4551POPC   C4A58938  10.439  33.503   7.094
 4551POPC   C1B58939  10.436  34.050   6.303
 4551POPC   C2B58940  10.553  34.166   6.718
 4551POPC   C3B58941  10.338  34.050   7.073
 4551POPC   C4B58942  10.177  34.237   7.463
 4552POPC   NC358943  18.440   1.099   5.396
 4552POPC   PO458944  18.036   1.593   5.494
 4552POPC   GL158945  18.295   1.357   5.823
 4552POPC   GL258946  18.102   1.068   5.801
 4552POPC   C1A58947  18.457   1.056   6.185
 4552POPC   D2A58948  18.635   0.961   6.612
 4552POPC   C3A58949  18.391   1.153   6.971
 4552POPC   C4A58950  18.174   1.211   7.347
 4552POPC   C1B58951  17.954   1.185   6.234
 4552POPC   C2B58952  18.007   1.042   6.654
 4552POPC   C3B58953  18.008   0.804   7.056
 4552POPC   C4B58954  17.889   0.846   7.505
 4553POPC   NC358955   0.494  17.946   5.479
 4553POPC   PO458956   0.446  18.564   5.123
 4553POPC   GL158957   0.459  18.699   5.584
 4553POPC   GL258958   0.799  18.646   5.743
 4553POPC   C1A58959   0.385  18.524   6.028
 4553POPC   D2A58960   0.479  18.217   6.382
 4553POPC   C3A58961   0.410  18.164   6.824
 4553POPC   C4A58962   0.370  18.334   7.249
 4553POPC   C1B58963   0.892  18.455   6.181
 4553POPC   C2B58964   0.888  18.403   6.673
 4553POPC   C3B58965   0.832  18.536   7.143
 4553POPC   C4B58966   0.754  18.359   7.580
 4554POPC   NC358967   4.442  24.082   5.489
 4554POPC   PO458968   3.999  23.693   5.164
 4554POPC   GL158969   4.022  23.809   5.647
 4554POPC   GL258970   4.035  23.532   5.849
 4554POPC   C1A58971   4.226  23.899   6.119
 4554POPC   D2A58972   4.546  23.988   6.474
 4554POPC   C3A58973   4.436  23.969   6.931
 4554POPC   C4A58974   4.385  23.874   7.372
 4554POPC   C1B58975   4.046  23.413   6.271
 4554POPC   C2B58976   4.168  23.661   6.612
 4554POPC   C3B58977   3.948  23.712   6.979
 4554POPC   C4B58978   3.872  23.282   7.058
 4555POPC   NC358979  38.860  21.514   5.578
 4555POPC   PO458980  38.201  21.593   5.540
 4555POPC   GL158981  38.393  21.356   5.864
 4555POPC   GL258982  38.563  21.650   5.960
 4555POPC   C1A58983  38.569  21.254   6.282
 4555POPC   D2A58984  38.443  21.192   6.701
 4555POPC   C3A58985  38.122  20.916   6.807
 4555POPC   C4A58986  38.041  21.131   7.201
 4555POPC   C1B58987  38.885  21.663   6.256
 4555POPC   C2B58988  38.872  21.905   6.644
 4555POPC   C3B58989  38.754  21.751   7.028
 4555POPC   C4B58990  38.642  21.356   7.189
 4556POPC   NC358991  22.954  37.946   5.105
 4556POPC   PO458992  23.008  37.506   5.621
 4556POPC   GL158993  22.993  37.878   5.884
 4556POPC   GL258994  22.674  38.065   5.899
 4556POPC   C1A58995  22.936  37.799   6.310
 4556POPC   D2A58996  22.793  37.648   6.678
 4556POPC   C3A58997  23.110  37.460   6.925
 4556POPC   C4A58998  22.985  37.522   7.331
 4556POPC   C1B58999  22.898  38.288   6.285
 4556POPC   C2B59000  22.821  38.162   6.713
 4556POPC   C3B59001  23.029  37.947   7.062
 4556POPC   C4B59002  23.025  37.984   7.562
 4557POPC   NC359003  19.468  24.817   5.273
 4557POPC   PO459004  19.949  25.283   5.300
 4557POPC   GL159005  19.861  25.194   5.742
 4557POPC   GL259006  19.573  25.336   5.665
 4557POPC   C1A59007  19.871  25.033   6.212
 4557POPC   D2A59008  19.712  24.998   6.640
 4557POPC   C3A59009  19.950  25.245   6.918
 4557POPC   C4A59010  19.875  25.213   7.374
 4557POPC   C1B59011  19.527  25.397   6.141
 4557POPC   C2B59012  19.564  25.502   6.621
 4557POPC   C3B59013  19.492  25.416   7.096
 4557POPC   C4B59014  19.518  25.514   7.605
 4558POPC   NC359015  13.140  32.740   5.471
 4558POPC   PO459016  12.762  33.304   5.240
 4558POPC   GL159017  12.897  33.052   5.768
 4558POPC   GL259018  13.209  33.154   5.949
 4558POPC   C1A59019  12.846  32.870   6.174
 4558POPC   D2A59020  12.613  32.890   6.541
 4558POPC   C3A59021  12.810  32.903   6.931
 4558POPC   C4A59022  12.519  32.966   7.246
 4558POPC   C1B59023  12.903  33.362   6.293
 4558POPC   C2B59024  12.869  33.387   6.752
 4558POPC   C3B59025  12.904  33.313   7.217
 4558POPC   C4B59026  13.027  33.448   7.666
 4559POPC   NC359027  33.366  40.704   5.553
 4559POPC   PO459028  32.844  41.053   5.435
 4559POPC   GL159029  33.015  40.959   5.807
 4559POPC   GL259030  32.955  40.598   5.837
 4559POPC   C1A59031  32.885  40.938   6.226
 4559POPC   D2A59032  33.130  40.904   6.587
 4559POPC   C3A59033  32.907  40.957   6.954
 4559POPC   C4A59034  32.874  40.813   7.365
 4559POPC   C1B59035  33.225  40.555   6.192
 4559POPC   C2B59036  33.074  40.368   6.564
 4559POPC   C3B59037  33.148  40.520   6.964
 4559POPC   C4B59038  33.242  40.470   7.381
 4560POPC   NC359039  19.217  23.916   5.399
 4560POPC   PO459040  18.576  23.988   5.385
 4560POPC   GL159041  18.820  23.782   5.741
 4560POPC   GL259042  18.603  23.493   5.899
 4560POPC   C1A59043  19.201  23.970   6.035
 4560POPC   D2A59044  19.330  23.738   6.389
 4560POPC   C3A59045  19.293  23.817   6.862
 4560POPC   C4A59046  19.459  23.834   7.321
 4560POPC   C1B59047  18.841  23.661   6.235
 4560POPC   C2B59048  18.784  23.682   6.662
 4560POPC   C3B59049  18.896  23.544   7.034
 4560POPC   C4B59050  18.958  23.813   7.315
 4561POPC   NC359051  22.880  44.306   5.479
 4561POPC   PO459052  23.130  44.981   5.489
 4561POPC   GL159053  22.936  44.771   5.857
 4561POPC   GL259054  22.965  44.397   5.963
 4561POPC   C1A59055  23.123  44.789   6.267
 4561POPC   D2A59056  23.372  44.926   6.605
 4561POPC   C3A59057  23.183  44.818   6.941
 4561POPC   C4A59058  22.825  44.702   6.981
 4561POPC   C1B59059  22.736  44.396   6.334
 4561POPC   C2B59060  22.677  44.252   6.788
 4561POPC   C3B59061  22.719  44.327   7.285
 4561POPC   C4B59062  22.695  44.342   7.759
 4562POPC   NC359063   6.339  22.348   5.469
 4562POPC   PO459064   6.942  22.255   5.092
 4562POPC   GL159065   7.060  22.201   5.638
 4562POPC   GL259066   6.822  22.389   5.897
 4562POPC   C1A59067   7.016  21.923   6.044
 4562POPC   D2A59068   7.044  22.061   6.488
 4562POPC   C3A59069   6.716  22.163   6.836
 4562POPC   C4A59070   6.851  22.219   7.272
 4562POPC   C1B59071   6.649  22.388   6.315
 4562POPC   C2B59072   6.309  22.190   6.543
 4562POPC   C3B59073   6.128  22.252   6.919
 4562POPC   C4B59074   6.343  22.265   7.282
 4563POPC   NC359075  23.680  30.820   5.362
 4563POPC   PO459076  23.443  30.145   5.499
 4563POPC   GL159077  23.663  30.504   5.773
 4563POPC   GL259078  23.981  30.549   5.714
 4563POPC   C1A59079  23.817  30.743   6.199
 4563POPC   D2A59080  23.662  30.776   6.670
 4563POPC   C3A59081  23.711  31.045   7.085
 4563POPC   C4A59082  23.659  30.966   7.539
 4563POPC   C1B59083  24.156  30.365   6.059
 4563POPC   C2B59084  24.095  30.361   6.515
 4563POPC   C3B59085  24.047  30.548   6.924
 4563POPC   C4B59086  23.740  30.556   7.241
 4564POPC   NC359087  42.259  31.768   5.297
 4564POPC   PO459088  42.608  31.208   5.336
 4564POPC   GL159089  42.388  31.393   5.741
 4564POPC   GL259090  42.067  31.583   5.815
 4564POPC   C1A59091  42.314  31.302   6.217
 4564POPC   D2A59092  42.555  31.170   6.594
 4564POPC   C3A59093  42.432  31.196   7.060
 4564POPC   C4A59094  42.342  31.329   7.504
 4564POPC   C1B59095  42.057  31.737   6.261
 4564POPC   C2B59096  42.303  31.625   6.669
 4564POPC   C3B59097  42.291  31.689   7.136
 4564POPC   C4B59098  42.184  31.799   7.580
 4565POPC   NC359099  43.472  39.120   5.408
 4565POPC   PO459100  42.884  39.410   5.549
 4565POPC   GL159101  43.125  39.214   5.787
 4565POPC   GL259102  43.297  39.517   5.820
 4565POPC   C1A59103  43.106  38.932   6.151
 4565POPC   D2A59104  43.198  38.805   6.594
 4565POPC   C3A59105  43.051  39.088   6.906
 4565POPC   C4A59106  42.821  39.070   7.283
 4565POPC   C1B59107  42.979  39.441   6.217
 4565POPC   C2B59108  42.957  39.550   6.659
 4565POPC   C3B59109  42.851  39.525   7.088
 4565POPC   C4B59110  43.189  39.564   7.310
 4566POPC   NC359111  19.071  22.219   5.256
 4566POPC   PO459112  19.604  22.556   5.568
 4566POPC   GL159113  19.232  22.383   5.861
 4566POPC   GL259114  18.994  22.084   5.747
 4566POPC   C1A59115  19.182  22.333   6.300
 4566POPC   D2A59116  19.412  22.424   6.674
 4566POPC   C3A59117  19.167  22.225   6.978
 4566POPC   C4A59118  19.389  21.856   7.122
 4566POPC   C1B59119  18.728  22.119   6.128
 4566POPC   C2B59120  18.835  21.994   6.565
 4566POPC   C3B59121  18.899  21.789   6.961
 4566POPC   C4B59122  18.980  21.959   7.408
 4567POPC   NC359123  21.530  12.311   5.476
 4567POPC   PO459124  21.168  11.902   5.232
 4567POPC   GL159125  21.287  11.966   5.740
 4567POPC   GL259126  21.346  11.689   5.956
 4567POPC   C1A59127  21.533  12.115   6.155
 4567POPC   D2A59128  21.489  11.960   6.596
 4567POPC   C3A59129  21.564  12.179   7.002
 4567POPC   C4A59130  21.598  11.993   7.408
 4567POPC   C1B59131  21.082  11.895   6.256
 4567POPC   C2B59132  20.957  11.953   6.680
 4567POPC   C3B59133  21.189  11.852   7.040
 4567POPC   C4B59134  21.097  11.991   7.441
 4568POPC   NC359135  38.991  16.725   5.420
 4568POPC   PO459136  39.219  17.328   5.505
 4568POPC   GL159137  39.349  16.980   5.784
 4568POPC   GL259138  39.413  16.609   5.732
 4568POPC   C1A59139  39.172  16.847   6.186
 4568POPC   D2A59140  39.111  17.045   6.599
 4568POPC   C3A59141  39.100  16.823   7.000
 4568POPC   C4A59142  39.281  16.830   7.434
 4568POPC   C1B59143  39.447  16.406   6.163
 4568POPC   C2B59144  39.411  16.594   6.597
 4568POPC   C3B59145  39.380  16.386   7.019
 4568POPC   C4B59146  39.059  16.399   7.336
 4569POPC   NC359147  20.715   5.782   5.230
 4569POPC   PO459148  20.082   5.993   5.377
 4569POPC   GL159149  20.291   5.757   5.772
 4569POPC   GL259150  20.665   5.762   5.778
 4569POPC   C1A59151  20.406   5.844   6.244
 4569POPC   D2A59152  20.580   5.997   6.657
 4569POPC   C3A59153  20.427   5.908   7.103
 4569POPC   C4A59154  20.572   5.649   7.429
 4569POPC   C1B59155  20.918   5.827   6.159
 4569POPC   C2B59156  20.990   5.644   6.567
 4569POPC   C3B59157  20.895   5.727   6.984
 4569POPC   C4B59158  21.071   5.637   7.353
 4570POPC   NC359159  43.096  28.479   5.429
 4570POPC   PO459160  43.396  27.940   5.560
 4570POPC   GL159161  43.162  28.202   5.883
 4570POPC   GL259162  42.843  28.443   5.874
 4570POPC   C1A59163  43.276  28.296   6.327
 4570POPC   D2A59164  43.563  28.558   6.623
 4570POPC   C3A59165  43.272  28.732   6.919
 4570POPC   C4A59166  43.104  28.518   7.286
 4570POPC   C1B59167  42.729  28.127   6.179
 4570POPC   C2B59168  42.887  27.980   6.575
 4570POPC   C3B59169  42.827  28.164   6.984
 4570POPC   C4B59170  42.629  28.288   7.387
 4571POPC   NC359171   0.073  36.223   5.420
 4571POPC   PO459172  44.423  36.246   5.452
 4571POPC   GL159173  44.708  36.150   5.767
 4571POPC   GL259174  44.465  36.018   5.932
 4571POPC   C1A59175  44.887  36.157   6.189
 4571POPC   D2A59176  44.713  36.173   6.593
 4571POPC   C3A59177  44.688  35.834   6.840
 4571POPC   C4A59178  44.644  36.036   7.222
 4571POPC   C1B59179  44.260  36.006   6.293
 4571POPC   C2B59180  44.153  35.863   6.677
 4571POPC   C3B59181  44.249  36.195   6.931
 4571POPC   C4B59182  44.250  36.325   7.352
 4572POPC   NC359183   0.159  42.901   5.468
 4572POPC   PO459184   0.680  43.400   5.412
 4572POPC   GL159185   0.498  43.375   5.833
 4572POPC   GL259186   0.166  43.240   5.836
 4572POPC   C1A59187   0.443  43.219   6.284
 4572POPC   D2A59188   0.427  43.252   6.753
 4572POPC   C3A59189   0.652  43.319   7.111
 4572POPC   C4A59190   0.439  43.203   7.479
 4572POPC   C1B59191   0.067  42.863   6.126
 4572POPC   C2B59192   0.013  42.647   6.528
 4572POPC   C3B59193   0.076  42.797   6.955
 4572POPC   C4B59194   0.499  42.825   7.122
 4573POPC   NC359195  23.234  24.019   5.320
 4573POPC   PO459196  22.681  23.784   5.480
 4573POPC   GL159197  22.842  23.887   5.874
 4573POPC   GL259198  23.186  23.837   5.808
 4573POPC   C1A59199  22.905  23.529   6.203
 4573POPC   D2A59200  22.986  23.279   6.603
 4573POPC   C3A59201  22.893  23.494   6.986
 4573POPC   C4A59202  22.809  23.767   7.328
 4573POPC   C1B59203  23.212  23.944   6.238
 4573POPC   C2B59204  23.133  23.759   6.612
 4573POPC   C3B59205  23.164  23.924   6.996
 4573POPC   C4B59206  23.181  24.146   7.357
 4574POPC   NC359207   6.448   7.211   5.432
 4574POPC   PO459208   6.950   7.711   5.496
 4574POPC   GL159209   6.690   7.478   5.830
 4574POPC   GL259210   6.592   7.154   5.932
 4574POPC   C1A59211   6.527   7.603   6.214
 4574POPC   D2A59212   6.745   7.708   6.576
 4574POPC   C3A59213   6.483   7.581   6.902
 4574POPC   C4A59214   6.577   7.632   7.313
 4574POPC   C1B59215   6.516   7.107   6.408
 4574POPC   C2B59216   6.212   7.174   6.765
 4574POPC   C3B59217   6.285   7.145   7.199
 4574POPC   C4B59218   6.668   7.150   7.460
 4575POPC   NC359219  39.752  11.888   5.551
 4575POPC   PO459220  40.180  12.483   5.453
 4575POPC   GL159221  40.007  12.265   5.800
 4575POPC   GL259222  40.204  11.940   5.843
 4575POPC   C1A59223  39.898  12.119   6.215
 4575POPC   D2A59224  39.830  12.008   6.628
 4575POPC   C3A59225  40.017  12.250   6.953
 4575POPC   C4A59226  39.870  11.992   7.236
 4575POPC   C1B59227  40.299  11.797   6.255
 4575POPC   C2B59228  40.361  11.981   6.660
 4575POPC   C3B59229  40.300  11.780   7.066
 4575POPC   C4B59230  40.283  11.828   7.524
 4576POPC   NC359231  17.753  33.218   5.624
 4576POPC   PO459232  17.306  32.945   5.204
 4576POPC   GL159233  17.335  32.835   5.725
 4576POPC   GL259234  17.617  32.683   5.808
 4576POPC   C1A59235  17.577  32.992   6.201
 4576POPC   D2A59236  17.551  33.320   6.500
 4576POPC   C3A59237  17.481  33.132   6.888
 4576POPC   C4A59238  17.745  32.933   7.180
 4576POPC   C1B59239  17.266  32.613   6.188
 4576POPC   C2B59240  17.364  32.708   6.629
 4576POPC   C3B59241  17.357  32.618   7.083
 4576POPC   C4B59242  17.355  32.847   7.491
 4577POPC   NC359243   7.106  25.532   5.397
 4577POPC   PO459244   7.601  25.063   5.409
 4577POPC   GL159245   7.527  25.196   5.811
 4577POPC   GL259246   7.184  25.307   5.861
 4577POPC   C1A59247   7.521  25.274   6.260
 4577POPC   D2A59248   7.418  25.556   6.596
 4577POPC   C3A59249   7.638  25.560   6.998
 4577POPC   C4A59250   7.732  25.154   7.204
 4577POPC   C1B59251   7.021  25.115   6.229
 4577POPC   C2B59252   7.205  24.975   6.594
 4577POPC   C3B59253   7.292  25.154   6.959
 4577POPC   C4B59254   7.118  25.486   7.159
 4578POPC   NC359255   9.175  12.472   5.518
 4578POPC   PO459256   8.737  11.858   5.541
 4578POPC   GL159257   8.935  12.122   5.801
 4578POPC   GL259258   8.628  12.320   5.830
 4578POPC   C1A59259   9.193  12.170   6.189
 4578POPC   D2A59260   9.404  12.190   6.601
 4578POPC   C3A59261   9.208  12.181   7.001
 4578POPC   C4A59262   9.178  11.787   7.174
 4578POPC   C1B59263   8.687  12.101   6.229
 4578POPC   C2B59264   8.838  12.208   6.619
 4578POPC   C3B59265   8.744  11.979   6.953
 4578POPC   C4B59266   8.581  12.001   7.325
 4579POPC   NC359267  19.572  28.054   5.532
 4579POPC   PO459268  20.013  28.514   5.260
 4579POPC   GL159269  19.946  28.398   5.670
 4579POPC   GL259270  19.631  28.585   5.674
 4579POPC   C1A59271  20.061  28.216   6.095
 4579POPC   D2A59272  20.206  28.403   6.499
 4579POPC   C3A59273  20.037  28.363   6.876
 4579POPC   C4A59274  20.162  28.291   7.270
 4579POPC   C1B59275  19.810  28.652   6.090
 4579POPC   C2B59276  19.717  28.591   6.509
 4579POPC   C3B59277  19.601  28.617   6.924
 4579POPC   C4B59278  19.637  28.348   7.258
 4580POPC   NC359279  18.235  27.999   5.451
 4580POPC   PO459280  18.085  28.683   5.540
 4580POPC   GL159281  18.323  28.446   5.802
 4580POPC   GL259282  18.052  28.228   5.898
 4580POPC   C1A59283  18.470  28.515   6.223
 4580POPC   D2A59284  18.624  28.400   6.635
 4580POPC   C3A59285  18.289  28.365   6.860
 4580POPC   C4A59286  18.270  28.306   7.235
 4580POPC   C1B59287  17.715  28.132   6.204
 4580POPC   C2B59288  17.632  27.987   6.623
 4580POPC   C3B59289  17.862  28.090   6.990
 4580POPC   C4B59290  18.056  27.874   7.330
 4581POPC   NC359291  30.696  25.542   5.454
 4581POPC   PO459292  31.233  25.152   5.447
 4581POPC   GL159293  30.846  25.115   5.733
 4581POPC   GL259294  30.521  24.996   5.575
 4581POPC   C1A59295  30.622  25.378   6.087
 4581POPC   D2A59296  30.510  25.419   6.530
 4581POPC   C3A59297  30.831  25.447   6.853
 4581POPC   C4A59298  30.655  25.450   7.236
 4581POPC   C1B59299  30.481  24.898   6.013
 4581POPC   C2B59300  30.717  24.964   6.396
 4581POPC   C3B59301  30.637  24.984   6.840
 4581POPC   C4B59302  30.875  25.004   7.217
 4582POPC   NC359303   2.978  31.719   5.504
 4582POPC   PO459304   2.530  31.195   5.273
 4582POPC   GL159305   2.605  31.393   5.653
 4582POPC   GL259306   2.911  31.225   5.709
 4582POPC   C1A59307   2.592  31.404   6.104
 4582POPC   D2A59308   2.298  31.388   6.460
 4582POPC   C3A59309   2.487  31.536   6.833
 4582POPC   C4A59310   2.777  31.625   7.185
 4582POPC   C1B59311   2.947  31.032   6.101
 4582POPC   C2B59312   2.790  31.124   6.517
 4582POPC   C3B59313   2.799  31.106   6.953
 4582POPC   C4B59314   3.065  30.872   7.185
 4583POPC   NC359315  10.838  36.971   5.422
 4583POPC   PO459316  10.145  36.753   5.469
 4583POPC   GL159317  10.367  36.731   5.842
 4583POPC   GL259318  10.428  37.078   5.815
 4583POPC   C1A59319  10.558  36.770   6.263
 4583POPC   D2A59320  10.308  36.856   6.638
 4583POPC   C3A59321  10.535  36.758   6.979
 4583POPC   C4A59322  10.707  36.589   7.335
 4583POPC   C1B59323  10.230  37.156   6.224
 4583POPC   C2B59324  10.256  37.363   6.626
 4583POPC   C3B59325  10.081  37.196   6.986
 4583POPC   C4B59326  10.296  37.014   7.342
 4584POPC   NC359327   5.466   7.355   5.553
 4584POPC   PO459328   4.823   7.187   5.424
 4584POPC   GL159329   5.004   7.430   5.762
 4584POPC   GL259330   5.177   7.124   5.909
 4584POPC   C1A59331   5.059   7.536   6.208
 4584POPC   D2A59332   4.801   7.610   6.601
 4584POPC   C3A59333   4.940   7.588   7.029
 4584POPC   C4A59334   5.003   7.506   7.484
 4584POPC   C1B59335   5.212   7.037   6.353
 4584POPC   C2B59336   5.010   7.158   6.735
 4584POPC   C3B59337   5.282   7.222   7.103
 4584POPC   C4B59338   5.361   7.150   7.556
 4585POPC   NC359339  24.021  22.345   5.050
 4585POPC   PO459340  23.500  22.532   5.325
 4585POPC   GL159341  23.341  22.263   5.739
 4585POPC   GL259342  23.431  21.887   5.847
 4585POPC   C1A59343  23.342  22.193   6.230
 4585POPC   D2A59344  23.623  22.228   6.619
 4585POPC   C3A59345  23.451  22.238   7.054
 4585POPC   C4A59346  23.677  22.323   7.435
 4585POPC   C1B59347  23.731  21.855   6.222
 4585POPC   C2B59348  23.867  21.775   6.668
 4585POPC   C3B59349  23.927  22.015   7.083
 4585POPC   C4B59350  23.968  21.898   7.537
 4586POPC   NC359351  33.224  32.496   5.529
 4586POPC   PO459352  32.764  31.998   5.455
 4586POPC   GL159353  32.907  32.191   5.825
 4586POPC   GL259354  33.269  32.217   5.945
 4586POPC   C1A59355  32.926  32.018   6.252
 4586POPC   D2A59356  33.159  31.876   6.625
 4586POPC   C3A59357  33.073  32.194   6.911
 4586POPC   C4A59358  32.859  32.211   7.287
 4586POPC   C1B59359  33.017  32.549   6.188
 4586POPC   C2B59360  33.053  32.734   6.610
 4586POPC   C3B59361  33.352  32.637   6.914
 4586POPC   C4B59362  33.372  32.391   7.299
 4587POPC   NC359363  39.447  14.963   5.590
 4587POPC   PO459364  40.005  15.159   5.224
 4587POPC   GL159365  39.945  15.150   5.692
 4587POPC   GL259366  40.230  15.236   5.916
 4587POPC   C1A59367  39.823  15.084   6.139
 4587POPC   D2A59368  40.082  15.121   6.502
 4587POPC   C3A59369  39.919  14.885   6.851
 4587POPC   C4A59370  40.041  14.757   7.265
 4587POPC   C1B59371  40.327  15.576   6.230
 4587POPC   C2B59372  40.132  15.600   6.635
 4587POPC   C3B59373  40.017  15.370   7.001
 4587POPC   C4B59374  40.017  15.254   7.440
 4588POPC   NC359375  34.921  32.013   5.497
 4588POPC   PO459376  34.412  32.442   5.474
 4588POPC   GL159377  34.475  32.357   5.894
 4588POPC   GL259378  34.836  32.411   5.859
 4588POPC   C1A59379  34.332  32.089   6.254
 4588POPC   D2A59380  34.168  32.123   6.693
 4588POPC   C3A59381  34.519  32.033   6.957
 4588POPC   C4A59382  34.572  32.460   7.100
 4588POPC   C1B59383  34.860  32.201   6.240
 4588POPC   C2B59384  34.794  32.388   6.640
 4588POPC   C3B59385  35.000  32.663   6.968
 4588POPC   C4B59386  34.931  32.561   7.428
 4589POPC   NC359387  19.009  20.637   4.821
 4589POPC   PO459388  19.068  20.778   5.484
 4589POPC   GL159389  18.943  20.766   5.909
 4589POPC   GL259390  19.229  20.949   6.005
 4589POPC   C1A59391  18.855  20.605   6.359
 4589POPC   D2A59392  19.172  20.342   6.631
 4589POPC   C3A59393  19.260  20.483   7.060
 4589POPC   C4A59394  18.856  20.396   7.160
 4589POPC   C1B59395  19.337  20.710   6.308
 4589POPC   C2B59396  19.539  20.702   6.659
 4589POPC   C3B59397  19.599  20.977   6.940
 4589POPC   C4B59398  19.387  21.066   7.315
 4590POPC   NC359399  13.206  29.637   5.177
 4590POPC   PO459400  12.720  29.876   5.569
 4590POPC   GL159401  13.057  30.045   5.809
 4590POPC   GL259402  13.157  30.387   5.692
 4590POPC   C1A59403  12.973  29.947   6.252
 4590POPC   D2A59404  12.548  29.912   6.455
 4590POPC   C3A59405  12.542  30.070   6.872
 4590POPC   C4A59406  12.510  29.879   7.245
 4590POPC   C1B59407  13.305  30.372   6.126
 4590POPC   C2B59408  13.377  30.144   6.523
 4590POPC   C3B59409  13.383  30.064   6.964
 4590POPC   C4B59410  12.979  30.053   7.178
 4591POPC   NC359411  18.268  30.327   5.562
 4591POPC   PO459412  18.657  30.862   5.331
 4591POPC   GL159413  18.577  30.708   5.723
 4591POPC   GL259414  18.229  30.772   5.799
 4591POPC   C1A59415  18.563  30.727   6.180
 4591POPC   D2A59416  18.363  30.756   6.568
 4591POPC   C3A59417  18.577  30.611   6.910
 4591POPC   C4A59418  18.485  30.852   7.243
 4591POPC   C1B59419  18.005  30.639   6.209
 4591POPC   C2B59420  17.912  30.479   6.636
 4591POPC   C3B59421  18.077  30.568   7.067
 4591POPC   C4B59422  17.944  30.861   7.413
 4592POPC   NC359423   0.493  22.572   5.395
 4592POPC   PO459424  44.966  22.979   5.463
 4592POPC   GL159425   0.335  22.869   5.780
 4592POPC   GL259426   0.261  22.534   5.877
 4592POPC   C1A59427   0.578  23.085   6.163
 4592POPC   D2A59428   0.791  23.112   6.609
 4592POPC   C3A59429   0.605  23.030   7.074
 4592POPC   C4A59430   0.581  23.203   7.545
 4592POPC   C1B59431   0.113  22.873   6.215
 4592POPC   C2B59432   0.283  23.019   6.608
 4592POPC   C3B59433   0.112  22.910   7.008
 4592POPC   C4B59434   0.220  22.867   7.419
 4593POPC   NC359435  44.474   9.237   5.384
 4593POPC   PO459436   0.122   9.490   5.513
 4593POPC   GL159437  44.910   9.112   5.722
 4593POPC   GL259438  44.662   8.833   5.706
 4593POPC   C1A59439  44.916   8.927   6.163
 4593POPC   D2A59440  44.709   9.022   6.555
 4593POPC   C3A59441  44.907   8.989   6.960
 4593POPC   C4A59442  44.674   9.085   7.330
 4593POPC   C1B59443  44.422   8.791   6.122
 4593POPC   C2B59444  44.416   8.601   6.546
 4593POPC   C3B59445  44.509   8.689   6.954
 4593POPC   C4B59446  44.408   8.656   7.366
 4594POPC   NC359447  44.671   8.457   5.364
 4594POPC   PO459448  44.564   7.724   5.259
 4594POPC   GL159449  44.627   7.918   5.693
 4594POPC   GL259450  44.636   8.250   5.823
 4594POPC   C1A59451  44.580   7.861   6.161
 4594POPC   D2A59452  44.641   8.095   6.558
 4594POPC   C3A59453  44.609   7.910   6.957
 4594POPC   C4A59454  44.649   8.172   7.306
 4594POPC   C1B59455  44.790   8.422   6.188
 4594POPC   C2B59456  44.937   8.565   6.572
 4594POPC   C3B59457  44.936   8.389   6.953
 4594POPC   C4B59458  44.914   8.618   7.333
 4595POPC   NC359459  10.577  39.751   5.273
 4595POPC   PO459460  10.345  40.254   5.569
 4595POPC   GL159461  10.507  39.919   5.825
 4595POPC   GL259462  10.170  39.772   5.833
 4595POPC   C1A59463  10.785  39.857   6.229
 4595POPC   D2A59464  11.053  39.803   6.610
 4595POPC   C3A59465  10.887  39.771   7.008
 4595POPC   C4A59466  10.535  39.888   7.222
 4595POPC   C1B59467  10.275  39.889   6.290
 4595POPC   C2B59468  10.298  39.880   6.742
 4595POPC   C3B59469  10.069  39.762   7.104
 4595POPC   C4B59470  10.286  39.485   7.401
 4596POPC   NC359471  10.213   4.170   5.630
 4596POPC   PO459472   9.690   4.631   5.621
 4596POPC   GL159473   9.935   4.520   5.923
 4596POPC   GL259474   9.768   4.203   5.886
 4596POPC   C1A59475   9.857   4.585   6.338
 4596POPC   D2A59476   9.970   4.535   6.757
 4596POPC   C3A59477   9.634   4.596   7.054
 4596POPC   C4A59478   9.702   4.456   7.522
 4596POPC   C1B59479  10.001   4.078   6.257
 4596POPC   C2B59480  10.105   4.041   6.685
 4596POPC   C3B59481   9.844   4.140   7.062
 4596POPC   C4B59482   9.528   3.969   7.354
 4597POPC   NC359483  39.507  27.008   5.419
 4597POPC   PO459484  39.276  26.393   5.473
 4597POPC   GL159485  39.442  26.588   5.848
 4597POPC   GL259486  39.317  26.934   5.880
 4597POPC   C1A59487  39.289  26.651   6.297
 4597POPC   D2A59488  39.234  27.007   6.597
 4597POPC   C3A59489  39.225  26.836   7.015
 4597POPC   C4A59490  39.496  26.665   7.309
 4597POPC   C1B59491  38.916  26.986   6.131
 4597POPC   C2B59492  38.729  27.006   6.507
 4597POPC   C3B59493  38.763  27.053   6.911
 4597POPC   C4B59494  38.914  27.115   7.319
 4598POPC   NC359495   1.995   1.364   5.342
 4598POPC   PO459496   1.967   0.724   5.354
 4598POPC   GL159497   2.079   1.014   5.731
 4598POPC   GL259498   1.813   1.251   5.816
 4598POPC   C1A59499   2.194   1.194   6.163
 4598POPC   D2A59500   2.006   1.318   6.583
 4598POPC   C3A59501   2.220   1.270   6.984
 4598POPC   C4A59502   2.121   1.202   7.422
 4598POPC   C1B59503   1.628   1.194   6.248
 4598POPC   C2B59504   1.488   1.320   6.685
 4598POPC   C3B59505   1.696   1.271   7.089
 4598POPC   C4B59506   1.652   1.372   7.560
 4599POPC   NC359507  38.351  38.125   5.485
 4599POPC   PO459508  38.803  38.587   5.455
 4599POPC   GL159509  38.525  38.616   5.853
 4599POPC   GL259510  38.193  38.464   5.850
 4599POPC   C1A59511  38.324  38.683   6.282
 4599POPC   D2A59512  38.140  38.679   6.689
 4599POPC   C3A59513  38.477  38.691   6.969
 4599POPC   C4A59514  38.531  38.410   7.273
 4599POPC   C1B59515  38.323  38.166   6.175
 4599POPC   C2B59516  38.321  38.177   6.622
 4599POPC   C3B59517  38.340  37.977   7.012
 4599POPC   C4B59518  38.151  38.035   7.407
 4600POPC   NC359519   3.974  11.329   5.479
 4600POPC   PO459520   4.675  11.136   5.507
 4600POPC   GL159521   4.416  11.410   5.800
 4600POPC   GL259522   4.206  11.161   5.909
 4600POPC   C1A59523   4.281  11.530   6.240
 4600POPC   D2A59524   4.205  11.334   6.671
 4600POPC   C3A59525   4.146  11.590   7.023
 4600POPC   C4A59526   4.219  11.665   7.474
 4600POPC   C1B59527   4.240  10.965   6.309
 4600POPC   C2B59528   4.013  10.844   6.682
 4600POPC   C3B59529   3.968  11.061   7.079
 4600POPC   C4B59530   4.312  11.204   7.319
 4601POPC   NC359531  13.801  37.024   5.446
 4601POPC   PO459532  13.242  36.691   5.282
 4601POPC   GL159533  13.419  36.767   5.666
 4601POPC   GL259534  13.744  36.639   5.755
 4601POPC   C1A59535  13.398  36.817   6.078
 4601POPC   D2A59536  13.358  36.785   6.474
 4601POPC   C3A59537  13.518  36.968   6.802
 4601POPC   C4A59538  13.429  36.924   7.205
 4601POPC   C1B59539  13.948  36.891   6.093
 4601POPC   C2B59540  13.946  36.877   6.532
 4601POPC   C3B59541  14.017  36.986   6.952
 4601POPC   C4B59542  13.986  36.894   7.394
 4602POPC   NC359543  17.750   3.100   5.295
 4602POPC   PO459544  17.121   2.891   5.513
 4602POPC   GL159545  17.505   2.759   5.720
 4602POPC   GL259546  17.731   2.468   5.655
 4602POPC   C1A59547  17.607   2.946   6.140
 4602POPC   D2A59548  17.455   3.144   6.547
 4602POPC   C3A59549  17.536   3.026   6.985
 4602POPC   C4A59550  17.441   2.692   7.273
 4602POPC   C1B59551  17.894   2.521   6.098
 4602POPC   C2B59552  17.961   2.743   6.535
 4602POPC   C3B59553  17.904   2.633   7.013
 4602POPC   C4B59554  17.909   2.864   7.458
 4603POPC   NC359555  41.732   7.727   5.335
 4603POPC   PO459556  41.391   7.223   5.311
 4603POPC   GL159557  41.446   7.368   5.748
 4603POPC   GL259558  41.732   7.583   5.856
 4603POPC   C1A59559  41.409   7.329   6.195
 4603POPC   D2A59560  41.624   7.412   6.574
 4603POPC   C3A59561  41.367   7.304   6.922
 4603POPC   C4A59562  41.478   7.309   7.334
 4603POPC   C1B59563  41.911   7.240   6.132
 4603POPC   C2B59564  41.750   6.917   6.437
 4603POPC   C3B59565  41.692   6.920   6.892
 4603POPC   C4B59566  41.962   7.055   7.249
 4604POPC   NC359567  44.106  19.663   5.562
 4604POPC   PO459568  44.683  19.403   5.232
 4604POPC   GL159569  44.739  19.585   5.673
 4604POPC   GL259570  44.480  19.492   5.821
 4604POPC   C1A59571  44.767  19.676   6.185
 4604POPC   D2A59572  44.842  19.506   6.633
 4604POPC   C3A59573  44.778  19.798   7.037
 4604POPC   C4A59574  44.808  20.243   7.218
 4604POPC   C1B59575  44.321  19.372   6.212
 4604POPC   C2B59576  44.350  19.332   6.636
 4604POPC   C3B59577  44.471  19.359   7.052
 4604POPC   C4B59578  44.359  19.655   7.363
 4605POPC   NC359579  25.893   0.363   5.295
 4605POPC   PO459580  26.283  44.913   5.001
 4605POPC   GL159581  26.214   0.067   5.522
 4605POPC   GL259582  26.393   0.395   5.611
 4605POPC   C1A59583  25.952   0.286   5.941
 4605POPC   D2A59584  25.981   0.468   6.380
 4605POPC   C3A59585  25.692   0.377   6.750
 4605POPC   C4A59586  25.663   0.211   7.219
 4605POPC   C1B59587  26.389   0.492   6.050
 4605POPC   C2B59588  26.552   0.353   6.440
 4605POPC   C3B59589  26.269   0.281   6.786
 4605POPC   C4B59590  26.029   0.554   7.089
 4606POPC   NC359591  41.301  18.322   5.412
 4606POPC   PO459592  41.735  17.886   5.345
 4606POPC   GL159593  41.793  18.142   5.767
 4606POPC   GL259594  41.447  18.214   5.888
 4606POPC   C1A59595  41.861  18.021   6.248
 4606POPC   D2A59596  41.951  17.920   6.705
 4606POPC   C3A59597  41.767  18.067   7.106
 4606POPC   C4A59598  41.959  18.106   7.529
 4606POPC   C1B59599  41.561  18.430   6.264
 4606POPC   C2B59600  41.594  18.314   6.680
 4606POPC   C3B59601  41.325  18.427   7.009
 4606POPC   C4B59602  41.258  18.817   7.181
 4607POPC   NC359603   6.056   1.346   5.391
 4607POPC   PO459604   5.686   0.952   5.051
 4607POPC   GL159605   5.877   0.943   5.599
 4607POPC   GL259606   5.644   1.050   5.814
 4607POPC   C1A59607   5.992   1.265   6.064
 4607POPC   D2A59608   6.005   1.565   6.464
 4607POPC   C3A59609   5.853   1.522   6.910
 4607POPC   C4A59610   5.836   1.258   7.297
 4607POPC   C1B59611   5.474   1.015   6.174
 4607POPC   C2B59612   5.662   1.166   6.541
 4607POPC   C3B59613   5.624   0.989   6.927
 4607POPC   C4B59614   5.531   0.852   7.325
 4608POPC   NC359615  25.517  37.534   5.439
 4608POPC   PO459616  24.890  37.471   5.685
 4608POPC   GL159617  25.142  37.708   5.947
 4608POPC   GL259618  25.503  37.771   5.912
 4608POPC   C1A59619  24.901  37.751   6.310
 4608POPC   D2A59620  24.936  37.927   6.672
 4608POPC   C3A59621  25.283  37.977   6.933
 4608POPC   C4A59622  25.176  37.684   7.251
 4608POPC   C1B59623  25.423  37.834   6.367
 4608POPC   C2B59624  25.702  37.779   6.713
 4608POPC   C3B59625  25.690  37.671   7.148
 4608POPC   C4B59626  25.563  37.758   7.590
 4609POPC   NC359627   5.502   2.717   5.102
 4609POPC   PO459628   6.155   2.878   5.252
 4609POPC   GL159629   5.985   2.857   5.718
 4609POPC   GL259630   5.869   2.503   5.871
 4609POPC   C1A59631   6.072   2.853   6.184
 4609POPC   D2A59632   5.892   2.875   6.614
 4609POPC   C3A59633   6.154   2.862   6.982
 4609POPC   C4A59634   6.268   2.813   7.445
 4609POPC   C1B59635   5.679   2.502   6.307
 4609POPC   C2B59636   5.638   2.468   6.766
 4609POPC   C3B59637   5.542   2.738   7.117
 4609POPC   C4B59638   5.511   2.437   7.490
 4610POPC   NC359639  35.702  25.839   5.373
 4610POPC   PO459640  35.993  26.399   5.417
 4610POPC   GL159641  36.031  26.038   5.776
 4610POPC   GL259642  36.245  25.740   5.774
 4610POPC   C1A59643  36.096  25.944   6.261
 4610POPC   D2A59644  36.223  26.098   6.711
 4610POPC   C3A59645  35.976  26.121   7.134
 4610POPC   C4A59646  35.958  26.400   7.539
 4610POPC   C1B59647  36.536  25.685   6.126
 4610POPC   C2B59648  36.521  25.696   6.578
 4610POPC   C3B59649  36.386  25.726   7.027
 4610POPC   C4B59650  36.589  25.741   7.416
 4611POPC   NC359651  10.432  32.918   5.329
 4611POPC   PO459652  11.002  32.760   5.690
 4611POPC   GL159653  10.770  33.092   5.767
 4611POPC   GL259654  10.456  32.896   5.828
 4611POPC   C1A59655  10.736  33.090   6.211
 4611POPC   D2A59656  10.485  32.882   6.468
 4611POPC   C3A59657  10.605  33.083   6.812
 4611POPC   C4A59658  10.818  32.878   7.139
 4611POPC   C1B59659  10.232  33.175   6.080
 4611POPC   C2B59660  10.113  33.221   6.513
 4611POPC   C3B59661  10.101  32.918   6.860
 4611POPC   C4B59662  10.341  33.012   7.230
 4612POPC   NC359663  43.094  16.357   5.357
 4612POPC   PO459664  42.750  15.803   5.495
 4612POPC   GL159665  42.856  15.923   5.863
 4612POPC   GL259666  42.811  16.283   5.795
 4612POPC   C1A59667  43.064  15.739   6.230
 4612POPC   D2A59668  43.356  15.925   6.535
 4612POPC   C3A59669  43.241  15.800   6.933
 4612POPC   C4A59670  43.005  15.798   7.303
 4612POPC   C1B59671  43.049  16.260   6.184
 4612POPC   C2B59672  42.861  16.096   6.549
 4612POPC   C3B59673  42.927  16.204   6.956
 4612POPC   C4B59674  43.025  16.329   7.346
 4613POPC   NC359675  43.033  31.368   5.259
 4613POPC   PO459676  43.412  31.809   5.515
 4613POPC   GL159677  43.293  31.435   5.726
 4613POPC   GL259678  42.923  31.391   5.754
 4613POPC   C1A59679  43.246  31.501   6.162
 4613POPC   D2A59680  43.063  31.376   6.527
 4613POPC   C3A59681  43.295  31.463   6.883
 4613POPC   C4A59682  43.273  31.280   7.263
 4613POPC   C1B59683  42.738  31.580   6.123
 4613POPC   C2B59684  42.775  31.796   6.514
 4613POPC   C3B59685  42.788  31.645   6.934
 4613POPC   C4B59686  43.102  31.799   7.206
 4614POPC   NC359687  43.957  37.326   5.346
 4614POPC   PO459688  43.934  37.951   5.360
 4614POPC   GL159689  43.988  37.665   5.735
 4614POPC   GL259690  44.268  37.413   5.744
 4614POPC   C1A59691  43.864  37.686   6.168
 4614POPC   D2A59692  43.487  37.747   6.433
 4614POPC   C3A59693  43.553  37.907   6.820
 4614POPC   C4A59694  43.571  37.718   7.211
 4614POPC   C1B59695  44.355  37.527   6.189
 4614POPC   C2B59696  44.223  37.805   6.526
 4614POPC   C3B59697  44.000  37.676   6.872
 4614POPC   C4B59698  44.218  37.499   7.169
 4615POPC   NC359699  40.407  12.913   5.425
 4615POPC   PO459700  39.854  13.196   5.453
 4615POPC   GL159701  40.004  12.988   5.828
 4615POPC   GL259702  39.682  12.886   5.982
 4615POPC   C1A59703  40.111  12.685   6.165
 4615POPC   D2A59704  39.895  12.564   6.556
 4615POPC   C3A59705  39.930  12.819   6.930
 4615POPC   C4A59706  39.995  12.659   7.317
 4615POPC   C1B59707  39.674  13.237   6.229
 4615POPC   C2B59708  39.848  13.357   6.645
 4615POPC   C3B59709  39.664  13.254   7.076
 4615POPC   C4B59710  39.552  12.916   7.364
 4616POPC   NC359711  32.708   8.029   5.021
 4616POPC   PO459712  32.131   8.225   5.349
 4616POPC   GL159713  31.981   8.164   5.740
 4616POPC   GL259714  32.308   8.069   5.839
 4616POPC   C1A59715  31.976   8.327   6.160
 4616POPC   D2A59716  31.898   8.353   6.608
 4616POPC   C3A59717  32.229   8.358   6.896
 4616POPC   C4A59718  32.308   8.065   7.198
 4616POPC   C1B59719  32.455   8.182   6.265
 4616POPC   C2B59720  32.614   8.095   6.677
 4616POPC   C3B59721  32.758   8.267   7.063
 4616POPC   C4B59722  32.628   8.330   7.502
 4617POPC   NC359723  38.830  43.179   5.482
 4617POPC   PO459724  38.182  43.178   5.612
 4617POPC   GL159725  38.463  42.998   5.868
 4617POPC   GL259726  38.343  42.659   5.833
 4617POPC   C1A59727  38.546  43.024   6.303
 4617POPC   D2A59728  38.583  43.066   6.744
 4617POPC   C3A59729  38.424  43.098   7.117
 4617POPC   C4A59730  38.402  43.493   7.243
 4617POPC   C1B59731  38.069  42.784   6.174
 4617POPC   C2B59732  38.098  42.994   6.566
 4617POPC   C3B59733  38.214  42.721   6.865
 4617POPC   C4B59734  38.124  42.550   7.219
 4618POPC   NC359735  41.180   4.535   5.392
 4618POPC   PO459736  40.572   4.524   5.471
 4618POPC   GL159737  40.705   4.690   5.880
 4618POPC   GL259738  41.033   4.602   5.891
 4618POPC   C1A59739  40.724   4.528   6.332
 4618POPC   D2A59740  41.020   4.324   6.650
 4618POPC   C3A59741  40.866   4.084   7.028
 4618POPC   C4A59742  40.664   4.207   7.416
 4618POPC   C1B59743  41.069   4.896   6.246
 4618POPC   C2B59744  40.933   4.837   6.694
 4618POPC   C3B59745  40.927   4.584   7.101
 4618POPC   C4B59746  41.139   4.508   7.526
 4619POPC   NC359747  10.262  31.965   5.166
 4619POPC   PO459748   9.802  32.316   5.586
 4619POPC   GL159749   9.779  32.038   5.949
 4619POPC   GL259750  10.010  32.300   6.087
 4619POPC   C1A59751   9.848  31.927   6.399
 4619POPC   D2A59752  10.160  31.979   6.743
 4619POPC   C3A59753   9.991  31.898   7.129
 4619POPC   C4A59754   9.588  31.837   7.114
 4619POPC   C1B59755   9.601  32.440   6.212
 4619POPC   C2B59756   9.507  32.291   6.598
 4619POPC   C3B59757   9.810  32.352   6.917
 4619POPC   C4B59758   9.652  32.295   7.310
 4620POPC   NC359759  10.060  29.676   5.073
 4620POPC   PO459760   9.650  29.181   5.426
 4620POPC   GL159761   9.783  29.198   5.874
 4620POPC   GL259762   9.594  29.544   5.903
 4620POPC   C1A59763   9.956  29.132   6.296
 4620POPC   D2A59764   9.925  28.978   6.710
 4620POPC   C3A59765   9.930  29.230   7.070
 4620POPC   C4A59766   9.889  29.140   7.507
 4620POPC   C1B59767   9.853  29.640   6.244
 4620POPC   C2B59768   9.903  29.533   6.659
 4620POPC   C3B59769   9.788  29.714   7.053
 4620POPC   C4B59770   9.627  29.580   7.435
 4621POPC   NC359771  15.472  21.536   5.555
 4621POPC   PO459772  15.028  21.023   5.423
 4621POPC   GL159773  15.199  21.198   5.784
 4621POPC   GL259774  15.000  21.508   5.780
 4621POPC   C1A59775  15.417  21.249   6.188
 4621POPC   D2A59776  15.220  21.101   6.586
 4621POPC   C3A59777  15.260  21.350   6.955
 4621POPC   C4A59778  15.445  21.276   7.344
 4621POPC   C1B59779  14.935  21.361   6.187
 4621POPC   C2B59780  14.850  21.472   6.589
 4621POPC   C3B59781  14.928  21.742   6.915
 4621POPC   C4B59782  14.924  21.602   7.333
 4622POPC   NC359783  16.632  32.082   5.421
 4622POPC   PO459784  16.697  32.760   5.548
 4622POPC   GL159785  16.494  32.449   5.859
 4622POPC   GL259786  16.680  32.143   5.925
 4622POPC   C1A59787  16.304  32.195   6.250
 4622POPC   D2A59788  16.494  32.131   6.695
 4622POPC   C3A59789  16.401  32.482   6.974
 4622POPC   C4A59790  16.456  32.538   7.435
 4622POPC   C1B59791  16.801  32.392   6.313
 4622POPC   C2B59792  16.864  32.616   6.725
 4622POPC   C3B59793  16.887  32.425   7.123
 4622POPC   C4B59794  16.805  31.954   7.141
 4623POPC   NC359795   8.842   6.122   5.425
 4623POPC   PO459796   9.549   5.887   5.261
 4623POPC   GL159797   9.228   5.896   5.616
 4623POPC   GL259798   9.256   6.156   5.827
 4623POPC   C1A59799   8.984   5.803   6.060
 4623POPC   D2A59800   9.157   5.769   6.506
 4623POPC   C3A59801   8.861   5.678   6.861
 4623POPC   C4A59802   8.856   5.558   7.295
 4623POPC   C1B59803   9.404   6.178   6.234
 4623POPC   C2B59804   9.313   6.260   6.652
 4623POPC   C3B59805   9.267   5.987   6.977
 4623POPC   C4B59806   9.116   6.018   7.371
 4624POPC   NC359807  27.888  37.852   5.443
 4624POPC   PO459808  27.258  37.902   5.354
 4624POPC   GL159809  27.468  37.875   5.772
 4624POPC   GL259810  27.710  37.604   5.859
 4624POPC   C1A59811  27.557  37.904   6.230
 4624POPC   D2A59812  27.365  37.856   6.633
 4624POPC   C3A59813  27.521  37.671   7.021
 4624POPC   C4A59814  27.479  37.760   7.456
 4624POPC   C1B59815  27.697  37.311   6.201
 4624POPC   C2B59816  27.741  37.408   6.626
 4624POPC   C3B59817  27.768  37.203   7.007
 4624POPC   C4B59818  27.734  37.317   7.438
 4625POPC   NC359819  19.195   5.225   5.368
 4625POPC   PO459820  18.793   4.762   5.357
 4625POPC   GL159821  18.975   4.921   5.754
 4625POPC   GL259822  18.949   5.299   5.804
 4625POPC   C1A59823  19.090   4.940   6.205
 4625POPC   D2A59824  19.174   4.767   6.628
 4625POPC   C3A59825  18.948   4.973   6.955
 4625POPC   C4A59826  19.070   5.009   7.360
 4625POPC   C1B59827  19.081   5.455   6.191
 4625POPC   C2B59828  19.083   5.318   6.589
 4625POPC   C3B59829  19.380   5.271   6.897
 4625POPC   C4B59830  19.218   5.485   7.203
 4626POPC   NC359831  43.969   8.799   5.437
 4626POPC   PO459832  44.129   9.437   5.618
 4626POPC   GL159833  43.948   9.110   5.947
 4626POPC   GL259834  43.922   8.719   5.922
 4626POPC   C1A59835  43.644   9.162   6.322
 4626POPC   D2A59836  43.462   9.045   6.732
 4626POPC   C3A59837  43.732   9.071   7.085
 4626POPC   C4A59838  44.202   9.084   7.101
 4626POPC   C1B59839  43.949   8.691   6.319
 4626POPC   C2B59840  44.007   8.938   6.636
 4626POPC   C3B59841  43.978   8.658   6.916
 4626POPC   C4B59842  43.903   8.666   7.334
 4627POPC   NC359843  19.042  18.021   5.347
 4627POPC   PO459844  19.536  18.505   5.478
 4627POPC   GL159845  19.223  18.309   5.727
 4627POPC   GL259846  19.140  18.587   5.908
 4627POPC   C1A59847  19.006  18.133   6.089
 4627POPC   D2A59848  18.822  18.003   6.500
 4627POPC   C3A59849  19.043  18.115   6.865
 4627POPC   C4A59850  18.947  18.036   7.293
 4627POPC   C1B59851  18.842  18.627   6.214
 4627POPC   C2B59852  18.976  18.624   6.629
 4627POPC   C3B59853  18.877  18.568   7.048
 4627POPC   C4B59854  19.154  18.616   7.354
 4628POPC   NC359855   5.087  28.628   5.576
 4628POPC   PO459856   5.310  29.187   5.294
 4628POPC   GL159857   5.083  29.144   5.682
 4628POPC   GL259858   5.073  29.477   5.849
 4628POPC   C1A59859   5.047  29.056   6.134
 4628POPC   D2A59860   4.846  29.232   6.497
 4628POPC   C3A59861   5.037  29.263   6.897
 4628POPC   C4A59862   4.853  29.196   7.290
 4628POPC   C1B59863   5.200  29.533   6.241
 4628POPC   C2B59864   5.427  29.345   6.573
 4628POPC   C3B59865   5.465  29.553   6.959
 4628POPC   C4B59866   5.218  29.549   7.305
 4629POPC   NC359867   4.661  38.271   5.698
 4629POPC   PO459868   4.031  38.116   5.357
 4629POPC   GL159869   4.182  38.458   5.726
 4629POPC   GL259870   4.186  38.289   5.976
 4629POPC   C1A59871   4.365  38.698   6.185
 4629POPC   D2A59872   4.517  38.690   6.645
 4629POPC   C3A59873   4.208  38.579   7.000
 4629POPC   C4A59874   3.956  38.341   7.301
 4629POPC   C1B59875   4.442  38.184   6.338
 4629POPC   C2B59876   4.352  38.174   6.751
 4629POPC   C3B59877   4.401  38.128   7.169
 4629POPC   C4B59878   4.409  38.044   7.584
 4630POPC   NC359879  36.646  25.533   5.497
 4630POPC   PO459880  36.836  24.935   5.497
 4630POPC   GL159881  37.004  25.108   5.887
 4630POPC   GL259882  36.965  25.483   5.909
 4630POPC   C1A59883  37.238  24.966   6.270
 4630POPC   D2A59884  37.292  24.873   6.731
 4630POPC   C3A59885  37.007  25.010   7.036
 4630POPC   C4A59886  36.762  25.093   7.446
 4630POPC   C1B59887  36.895  25.346   6.338
 4630POPC   C2B59888  36.916  25.416   6.752
 4630POPC   C3B59889  36.957  25.500   7.191
 4630POPC   C4B59890  36.973  25.498   7.685
 4631POPC   NC359891  12.833  11.756   5.229
 4631POPC   PO459892  13.064  12.203   5.613
 4631POPC   GL159893  12.841  12.176   5.967
 4631POPC   GL259894  12.658  11.911   5.872
 4631POPC   C1A59895  12.843  12.158   6.414
 4631POPC   D2A59896  13.167  12.094   6.743
 4631POPC   C3A59897  13.036  12.265   7.140
 4631POPC   C4A59898  13.107  12.180   7.593
 4631POPC   C1B59899  12.665  11.691   6.221
 4631POPC   C2B59900  12.883  11.677   6.592
 4631POPC   C3B59901  12.757  11.862   6.972
 4631POPC   C4B59902  12.712  11.921   7.407
 4632POPC   NC359903  32.376  38.902   5.357
 4632POPC   PO459904  32.070  38.335   5.398
 4632POPC   GL159905  32.289  38.257   5.786
 4632POPC   GL259906  32.417  38.599   5.829
 4632POPC   C1A59907  32.213  38.281   6.240
 4632POPC   D2A59908  32.319  38.466   6.661
 4632POPC   C3A59909  32.078  38.675   6.960
 4632POPC   C4A59910  32.026  38.332   7.212
 4632POPC   C1B59911  32.516  38.733   6.267
 4632POPC   C2B59912  32.761  38.686   6.667
 4632POPC   C3B59913  32.747  38.666   7.134
 4632POPC   C4B59914  32.756  38.961   7.517
 4633POPC   NC359915  14.172  18.214   5.209
 4633POPC   PO459916  14.804  18.147   5.406
 4633POPC   GL159917  14.657  18.171   5.819
 4633POPC   GL259918  14.387  17.923   5.817
 4633POPC   C1A59919  14.618  18.285   6.263
 4633POPC   D2A59920  14.384  18.201   6.667
 4633POPC   C3A59921  14.578  18.331   7.051
 4633POPC   C4A59922  14.660  18.684   7.270
 4633POPC   C1B59923  14.144  18.059   6.181
 4633POPC   C2B59924  13.875  18.158   6.534
 4633POPC   C3B59925  13.888  18.201   6.971
 4633POPC   C4B59926  14.194  18.071   7.254
 4634POPC   NC359927  44.717   2.463   5.620
 4634POPC   PO459928  44.463   3.005   5.214
 4634POPC   GL159929  44.628   2.969   5.678
 4634POPC   GL259930  44.980   2.869   5.755
 4634POPC   C1A59931  44.634   2.933   6.140
 4634POPC   D2A59932  44.737   2.520   6.351
 4634POPC   C3A59933  44.578   2.493   6.769
 4634POPC   C4A59934  44.487   2.693   7.142
 4634POPC   C1B59935   0.126   2.824   6.158
 4634POPC   C2B59936  44.965   2.929   6.572
 4634POPC   C3B59937  44.794   3.070   6.955
 4634POPC   C4B59938  44.868   2.934   7.388
 4635POPC   NC359939  19.407   2.318   5.133
 4635POPC   PO459940  18.997   2.806   5.336
 4635POPC   GL159941  19.067   2.908   5.793
 4635POPC   GL259942  18.745   2.885   5.890
 4635POPC   C1A59943  19.060   3.055   6.258
 4635POPC   D2A59944  18.966   2.907   6.720
 4635POPC   C3A59945  19.051   3.173   7.120
 4635POPC   C4A59946  19.284   3.188   7.537
 4635POPC   C1B59947  18.871   2.571   6.235
 4635POPC   C2B59948  18.970   2.388   6.640
 4635POPC   C3B59949  19.169   2.487   7.015
 4635POPC   C4B59950  19.161   2.314   7.451
 4636POPC   NC359951   2.190  41.749   5.490
 4636POPC   PO459952   2.098  42.521   5.363
 4636POPC   GL159953   1.965  42.465   5.756
 4636POPC   GL259954   2.041  42.145   5.774
 4636POPC   C1A59955   1.790  42.523   6.130
 4636POPC   D2A59956   1.845  42.361   6.528
 4636POPC   C3A59957   1.843  42.563   6.880
 4636POPC   C4A59958   1.915  42.356   7.272
 4636POPC   C1B59959   2.176  42.162   6.192
 4636POPC   C2B59960   2.236  41.975   6.579
 4636POPC   C3B59961   2.278  42.127   6.994
 4636POPC   C4B59962   2.313  41.908   7.411
 4637POPC   NC359963  26.393  10.286   5.608
 4637POPC   PO459964  25.950  10.885   5.604
 4637POPC   GL159965  25.988  10.666   5.935
 4637POPC   GL259966  26.320  10.675   5.952
 4637POPC   C1A59967  25.835  10.563   6.332
 4637POPC   D2A59968  26.022  10.453   6.700
 4637POPC   C3A59969  26.117  10.637   7.097
 4637POPC   C4A59970  25.876  10.622   7.467
 4637POPC   C1B59971  26.298  10.333   6.261
 4637POPC   C2B59972  26.469  10.194   6.665
 4637POPC   C3B59973  26.221  10.131   7.046
 4637POPC   C4B59974  26.251  10.301   7.482
 4638POPC   NC359975  10.041  11.006   5.329
 4638POPC   PO459976   9.456  11.351   5.417
 4638POPC   GL159977   9.634  11.472   5.789
 4638POPC   GL259978   9.944  11.356   5.733
 4638POPC   C1A59979   9.551  11.420   6.215
 4638POPC   D2A59980   9.551  11.125   6.531
 4638POPC   C3A59981   9.634  11.313   6.919
 4638POPC   C4A59982   9.679  11.618   7.238
 4638POPC   C1B59983  10.068  11.491   6.124
 4638POPC   C2B59984  10.017  11.347   6.530
 4638POPC   C3B59985  10.128  11.464   6.950
 4638POPC   C4B59986  10.021  11.207   7.274
 4639POPC   NC359987  11.330  36.639   4.827
 4639POPC   PO459988  11.283  37.056   5.285
 4639POPC   GL159989  11.357  36.963   5.707
 4639POPC   GL259990  11.589  36.684   5.753
 4639POPC   C1A59991  11.133  36.899   6.105
 4639POPC   D2A59992  11.274  36.766   6.522
 4639POPC   C3A59993  11.022  36.648   6.855
 4639POPC   C4A59994  11.091  36.896   7.196
 4639POPC   C1B59995  11.652  36.845   6.166
 4639POPC   C2B59996  11.780  36.699   6.586
 4639POPC   C3B59997  11.572  36.751   7.010
 4639POPC   C4B59998  11.500  36.755   7.477
 4640POPC   NC359999  34.323  15.016   5.571
 4640POPC   PO460000  33.797  15.392   5.373
 4640POPC   GL160001  33.672  15.164   5.747
 4640POPC   GL260002  33.860  14.863   5.818
 4640POPC   C1A60003  33.748  15.297   6.163
 4640POPC   D2A60004  33.745  15.076   6.553
 4640POPC   C3A60005  33.959  15.272   6.883
 4640POPC   C4A60006  33.673  15.261   7.213
 4640POPC   C1B60007  34.122  14.911   6.192
 4640POPC   C2B60008  34.132  14.720   6.581
 4640POPC   C3B60009  33.929  14.755   6.950
 4640POPC   C4B60010  34.078  14.989   7.311
 4641POPC   NC360011  11.326  25.658   5.465
 4641POPC   PO460012  11.097  26.270   5.344
 4641POPC   GL160013  11.076  26.044   5.721
 4641POPC   GL260014  11.420  26.098   5.742
 4641POPC   C1A60015  11.140  26.059   6.194
 4641POPC   D2A60016  11.397  26.148   6.568
 4641POPC   C3A60017  11.209  26.044   6.969
 4641POPC   C4A60018  11.259  26.314   7.342
 4641POPC   C1B60019  11.600  25.816   6.054
 4641POPC   C2B60020  11.811  25.828   6.446
 4641POPC   C3B60021  11.668  25.751   6.847
 4641POPC   C4B60022  11.632  25.936   7.224
 4642POPC   NC360023  25.661  17.996   5.533
 4642POPC   PO460024  25.215  17.481   5.293
 4642POPC   GL160025  25.240  17.645   5.710
 4642POPC   GL260026  24.935  17.747   5.897
 4642POPC   C1A60027  25.348  17.634   6.182
 4642POPC   D2A60028  25.433  17.691   6.657
 4642POPC   C3A60029  25.421  17.320   6.957
 4642POPC   C4A60030  25.476  17.342   7.404
 4642POPC   C1B60031  24.895  17.353   6.127
 4642POPC   C2B60032  25.090  17.314   6.525
 4642POPC   C3B60033  24.975  17.562   6.890
 4642POPC   C4B60034  24.981  17.427   7.303
 4643POPC   NC360035  25.661  40.027   5.023
 4643POPC   PO460036  26.178  40.003   5.526
 4643POPC   GL160037  26.056  39.821   5.889
 4643POPC   GL260038  25.953  40.132   6.045
 4643POPC   C1A60039  26.322  39.862   6.235
 4643POPC   D2A60040  26.312  40.188   6.574
 4643POPC   C3A60041  26.249  40.006   6.982
 4643POPC   C4A60042  26.162  39.598   7.125
 4643POPC   C1B60043  25.871  39.895   6.431
 4643POPC   C2B60044  25.761  39.724   6.826
 4643POPC   C3B60045  25.686  39.886   7.240
 4643POPC   C4B60046  25.655  40.153   7.655
 4644POPC   NC360047   6.557  11.063   5.607
 4644POPC   PO460048   6.830  10.632   5.172
 4644POPC   GL160049   6.831  10.629   5.713
 4644POPC   GL260050   6.607  10.797   6.018
 4644POPC   C1A60051   6.991  10.484   6.140
 4644POPC   D2A60052   6.806  10.622   6.529
 4644POPC   C3A60053   6.842  10.418   6.928
 4644POPC   C4A60054   6.734  10.648   7.275
 4644POPC   C1B60055   6.468  10.396   6.154
 4644POPC   C2B60056   6.416  10.256   6.549
 4644POPC   C3B60057   6.355  10.508   6.876
 4644POPC   C4B60058   6.266  10.408   7.277
 4645POPC   NC360059  17.017  21.398   5.551
 4645POPC   PO460060  16.457  21.230   5.199
 4645POPC   GL160061  16.423  21.445   5.632
 4645POPC   GL260062  16.630  21.713   5.703
 4645POPC   C1A60063  16.395  21.433   6.134
 4645POPC   D2A60064  16.323  21.340   6.611
 4645POPC   C3A60065  16.717  21.256   6.894
 4645POPC   C4A60066  16.962  21.039   7.252
 4645POPC   C1B60067  16.733  21.829   6.135
 4645POPC   C2B60068  16.712  21.686   6.550
 4645POPC   C3B60069  16.803  21.788   6.949
 4645POPC   C4B60070  16.940  21.547   7.284
 4646POPC   NC360071  18.285  10.125   5.390
 4646POPC   PO460072  18.098   9.463   5.437
 4646POPC   GL160073  18.237   9.663   5.789
 4646POPC   GL260074  18.000   9.933   5.800
 4646POPC   C1A60075  18.237   9.703   6.243
 4646POPC   D2A60076  18.597   9.862   6.491
 4646POPC   C3A60077  18.541   9.818   6.921
 4646POPC   C4A60078  18.235   9.899   7.251
 4646POPC   C1B60079  17.807   9.544   6.020
 4646POPC   C2B60080  17.811   9.477   6.456
 4646POPC   C3B60081  17.920   9.726   6.819
 4646POPC   C4B60082  17.845   9.506   7.171
 4647POPC   NC360083  22.357  14.934   5.120
 4647POPC   PO460084  22.242  14.283   5.240
 4647POPC   GL160085  22.203  14.279   5.688
 4647POPC   GL260086  22.359  14.625   5.746
 4647POPC   C1A60087  22.216  14.038   6.095
 4647POPC   D2A60088  22.038  13.843   6.481
 4647POPC   C3A60089  22.127  14.033   6.913
 4647POPC   C4A60090  22.504  14.227   7.115
 4647POPC   C1B60091  22.190  14.545   6.172
 4647POPC   C2B60092  22.099  14.667   6.599
 4647POPC   C3B60093  22.037  14.529   7.055
 4647POPC   C4B60094  22.168  14.688   7.443
 4648POPC   NC360095  38.786  10.421   5.493
 4648POPC   PO460096  38.336  10.904   5.572
 4648POPC   GL160097  38.452  10.670   5.900
 4648POPC   GL260098  38.789  10.673   5.959
 4648POPC   C1A60099  38.265  10.556   6.286
 4648POPC   D2A60100  38.387  10.305   6.633
 4648POPC   C3A60101  38.339  10.366   7.085
 4648POPC   C4A60102  38.199  10.102   7.394
 4648POPC   C1B60103  38.673  10.258   6.156
 4648POPC   C2B60104  38.848  10.104   6.540
 4648POPC   C3B60105  38.696   9.992   6.937
 4648POPC   C4B60106  38.711   9.943   7.364
 4649POPC   NC360107  35.150   5.705   5.294
 4649POPC   PO460108  35.777   5.913   5.237
 4649POPC   GL160109  35.579   5.836   5.649
 4649POPC   GL260110  35.470   6.186   5.783
 4649POPC   C1A60111  35.527   5.802   6.117
 4649POPC   D2A60112  35.352   5.603   6.492
 4649POPC   C3A60113  35.296   5.755   6.904
 4649POPC   C4A60114  35.532   5.764   7.257
 4649POPC   C1B60115  35.260   6.274   6.210
 4649POPC   C2B60116  35.108   6.164   6.642
 4649POPC   C3B60117  35.349   6.256   7.028
 4649POPC   C4B60118  35.355   6.286   7.451
 4650POPC   NC360119  38.051   7.795   5.140
 4650POPC   PO460120  38.505   7.421   5.587
 4650POPC   GL160121  38.615   7.141   5.908
 4650POPC   GL260122  38.301   7.152   5.960
 4650POPC   C1A60123  38.576   7.046   6.389
 4650POPC   D2A60124  38.488   7.296   6.773
 4650POPC   C3A60125  38.564   7.111   7.200
 4650POPC   C4A60126  38.836   7.098   7.579
 4650POPC   C1B60127  38.311   7.456   6.269
 4650POPC   C2B60128  38.102   7.674   6.573
 4650POPC   C3B60129  38.230   7.679   6.982
 4650POPC   C4B60130  38.385   7.559   7.369
 4651POPC   NC360131  20.326  41.958   5.501
 4651POPC   PO460132  20.090  41.305   5.478
 4651POPC   GL160133  19.982  41.568   5.818
 4651POPC   GL260134  19.704  41.812   5.793
 4651POPC   C1A60135  19.931  41.435   6.234
 4651POPC   D2A60136  19.834  41.486   6.652
 4651POPC   C3A60137  20.054  41.226   6.954
 4651POPC   C4A60138  19.856  41.339   7.318
 4651POPC   C1B60139  19.956  41.981   6.165
 4651POPC   C2B60140  20.003  41.978   6.647
 4651POPC   C3B60141  19.818  41.808   7.063
 4651POPC   C4B60142  19.731  41.797   7.538
 4652POPC   NC360143  25.370  26.850   5.317
 4652POPC   PO460144  25.933  26.554   5.529
 4652POPC   GL160145  25.510  26.786   5.809
 4652POPC   GL260146  25.103  26.734   5.769
 4652POPC   C1A60147  25.247  26.975   6.190
 4652POPC   D2A60148  25.413  27.149   6.589
 4652POPC   C3A60149  25.215  26.919   6.929
 4652POPC   C4A60150  25.307  26.577   7.214
 4652POPC   C1B60151  24.898  26.576   6.192
 4652POPC   C2B60152  24.807  26.689   6.671
 4652POPC   C3B60153  24.819  26.600   7.144
 4652POPC   C4B60154  24.966  26.689   7.591
 4653POPC   NC360155   0.128  12.529   5.417
 4653POPC   PO460156   0.452  13.052   5.715
 4653POPC   GL160157   0.167  12.766   5.909
 4653POPC   GL260158   0.355  12.497   5.859
 4653POPC   C1A60159   0.130  12.704   6.348
 4653POPC   D2A60160   0.453  12.934   6.583
 4653POPC   C3A60161   0.318  13.101   6.961
 4653POPC   C4A60162   0.429  12.984   7.357
 4653POPC   C1B60163   0.586  12.545   6.231
 4653POPC   C2B60164   0.457  12.416   6.637
 4653POPC   C3B60165   0.456  12.596   7.019
 4653POPC   C4B60166   0.673  12.552   7.409
 4654POPC   NC360167  26.086  41.745   5.305
 4654POPC   PO460168  25.783  41.199   5.582
 4654POPC   GL160169  26.076  41.459   5.787
 4654POPC   GL260170  26.383  41.606   5.773
 4654POPC   C1A60171  26.102  41.461   6.220
 4654POPC   D2A60172  25.916  41.199   6.525
 4654POPC   C3A60173  25.827  41.451   6.861
 4654POPC   C4A60174  25.998  41.514   7.231
 4654POPC   C1B60175  26.391  41.866   6.164
 4654POPC   C2B60176  26.242  41.871   6.566
 4654POPC   C3B60177  26.410  42.085   6.901
 4654POPC   C4B60178  26.315  41.911   7.279
 4655POPC   NC360179  22.277  41.989   5.364
 4655POPC   PO460180  22.051  42.599   5.381
 4655POPC   GL160181  22.119  42.407   5.788
 4655POPC   GL260182  22.371  42.182   5.851
 4655POPC   C1A60183  22.139  42.461   6.249
 4655POPC   D2A60184  22.025  42.554   6.676
 4655POPC   C3A60185  22.142  42.356   7.069
 4655POPC   C4A60186  22.434  42.559   7.415
 4655POPC   C1B60187  22.212  41.961   6.175
 4655POPC   C2B60188  22.040  42.031   6.554
 4655POPC   C3B60189  22.135  41.872   6.936
 4655POPC   C4B60190  21.813  41.956   7.213
 4656POPC   NC360191  13.334  12.560   5.442
 4656POPC   PO460192  13.750  13.107   5.424
 4656POPC   GL160193  13.497  13.051   5.741
 4656POPC   GL260194  13.679  12.733   5.808
 4656POPC   C1A60195  13.487  13.243   6.143
 4656POPC   D2A60196  13.605  13.003   6.502
 4656POPC   C3A60197  13.605  13.130   6.926
 4656POPC   C4A60198  13.786  12.758   7.065
 4656POPC   C1B60199  13.358  12.725   6.131
 4656POPC   C2B60200  13.315  12.561   6.568
 4656POPC   C3B60201  13.289  12.696   7.005
 4656POPC   C4B60202  13.342  12.580   7.445
 4657POPC   NC360203  22.644   8.598   5.582
 4657POPC   PO460204  23.081   9.096   5.419
 4657POPC   GL160205  23.092   9.148   5.845
 4657POPC   GL260206  22.738   9.202   5.878
 4657POPC   C1A60207  23.224   9.152   6.276
 4657POPC   D2A60208  23.028   8.847   6.557
 4657POPC   C3A60209  23.139   8.890   6.969
 4657POPC   C4A60210  23.071   8.643   7.331
 4657POPC   C1B60211  22.660   8.927   6.215
 4657POPC   C2B60212  22.513   8.849   6.647
 4657POPC   C3B60213  22.642   8.779   7.065
 4657POPC   C4B60214  22.704   8.955   7.489
 4658POPC   NC360215  23.473  27.331   5.423
 4658POPC   PO460216  23.811  26.751   5.474
 4658POPC   GL160217  23.621  26.825   5.842
 4658POPC   GL260218  23.714  27.144   5.836
 4658POPC   C1A60219  23.593  26.852   6.282
 4658POPC   D2A60220  23.837  27.110   6.573
 4658POPC   C3A60221  23.891  26.994   6.997
 4658POPC   C4A60222  23.912  26.674   7.321
 4658POPC   C1B60223  23.368  27.276   6.109
 4658POPC   C2B60224  23.204  27.109   6.500
 4658POPC   C3B60225  23.385  27.141   6.909
 4658POPC   C4B60226  23.438  26.818   7.209
 4659POPC   NC360227  34.437  37.586   5.436
 4659POPC   PO460228  35.081  37.878   5.295
 4659POPC   GL160229  34.900  37.664   5.679
 4659POPC   GL260230  34.660  37.883   5.814
 4659POPC   C1A60231  34.724  37.466   6.103
 4659POPC   D2A60232  34.898  37.523   6.533
 4659POPC   C3A60233  34.748  37.442   6.960
 4659POPC   C4A60234  34.393  37.432   7.204
 4659POPC   C1B60235  34.485  37.927   6.248
 4659POPC   C2B60236  34.197  37.973   6.628
 4659POPC   C3B60237  34.347  37.940   7.054
 4659POPC   C4B60238  34.800  37.932   7.098
 4660POPC   NC360239  31.675  44.194   5.216
 4660POPC   PO460240  31.435  44.823   5.360
 4660POPC   GL160241  31.578  44.656   5.745
 4660POPC   GL260242  31.688  44.329   5.818
 4660POPC   C1A60243  31.576  44.821   6.143
 4660POPC   D2A60244  31.408   0.033   6.488
 4660POPC   C3A60245  31.455  44.724   6.833
 4660POPC   C4A60246  31.521  44.789   7.248
 4660POPC   C1B60247  31.868  44.418   6.269
 4660POPC   C2B60248  31.837  44.381   6.736
 4660POPC   C3B60249  31.833  44.393   7.220
 4660POPC   C4B60250  31.891  44.405   7.707
 4661POPC   NC360251  10.978  20.646   5.365
 4661POPC   PO460252  10.318  20.423   5.432
 4661POPC   GL160253  10.621  20.449   5.786
 4661POPC   GL260254  10.826  20.763   5.835
 4661POPC   C1A60255  10.535  20.579   6.232
 4661POPC   D2A60256  10.266  20.613   6.611
 4661POPC   C3A60257  10.463  20.655   7.016
 4661POPC   C4A60258  10.385  20.701   7.455
 4661POPC   C1B60259  10.808  21.019   6.215
 4661POPC   C2B60260  10.715  20.901   6.628
 4661POPC   C3B60261  10.945  20.812   7.010
 4661POPC   C4B60262  10.852  20.507   7.341
 4662POPC   NC360263  10.721  19.044   5.402
 4662POPC   PO460264  10.132  18.953   5.559
 4662POPC   GL160265  10.501  19.024   5.860
 4662POPC   GL260266  10.681  19.328   5.868
 4662POPC   C1A60267  10.832  18.903   6.167
 4662POPC   D2A60268  10.759  18.643   6.533
 4662POPC   C3A60269  10.809  18.736   6.972
 4662POPC   C4A60270  10.454  18.635   7.251
 4662POPC   C1B60271  10.598  19.347   6.299
 4662POPC   C2B60272  10.616  19.122   6.675
 4662POPC   C3B60273  10.525  19.133   7.114
 4662POPC   C4B60274  10.751  19.296   7.435
 4663POPC   NC360275  41.434  28.610   5.237
 4663POPC   PO460276  41.786  28.139   5.366
 4663POPC   GL160277  41.811  28.312   5.770
 4663POPC   GL260278  41.558  28.524   5.743
 4663POPC   C1A60279  41.924  28.530   6.145
 4663POPC   D2A60280  41.734  28.699   6.509
 4663POPC   C3A60281  41.750  28.377   6.837
 4663POPC   C4A60282  41.747  28.457   7.276
 4663POPC   C1B60283  41.412  28.505   6.149
 4663POPC   C2B60284  41.330  28.346   6.542
 4663POPC   C3B60285  41.274  28.476   6.976
 4663POPC   C4B60286  41.303  28.246   7.368
 4664POPC   NC360287   2.315  10.961   5.569
 4664POPC   PO460288   1.945  10.461   5.215
 4664POPC   GL160289   1.986  10.521   5.662
 4664POPC   GL260290   1.767  10.818   5.709
 4664POPC   C1A60291   2.017  10.306   6.081
 4664POPC   D2A60292   2.130  10.480   6.522
 4664POPC   C3A60293   1.962  10.358   6.921
 4664POPC   C4A60294   2.022  10.160   7.347
 4664POPC   C1B60295   1.969  10.821   6.117
 4664POPC   C2B60296   2.239  10.973   6.461
 4664POPC   C3B60297   2.180  10.875   6.920
 4664POPC   C4B60298   2.073  10.656   7.336
 4665POPC   NC360299  42.612  13.352   5.419
 4665POPC   PO460300  42.572  14.023   5.412
 4665POPC   GL160301  42.505  13.728   5.791
 4665POPC   GL260302  42.180  13.498   5.783
 4665POPC   C1A60303  42.449  13.563   6.227
 4665POPC   D2A60304  42.614  13.463   6.643
 4665POPC   C3A60305  42.567  13.833   6.911
 4665POPC   C4A60306  42.354  13.887   7.304
 4665POPC   C1B60307  41.950  13.697   6.157
 4665POPC   C2B60308  41.820  13.721   6.619
 4665POPC   C3B60309  41.938  13.711   7.065
 4665POPC   C4B60310  42.012  13.544   7.505
 4666POPC   NC360311  17.699  23.309   5.402
 4666POPC   PO460312  17.182  22.782   5.350
 4666POPC   GL160313  17.505  22.927   5.683
 4666POPC   GL260314  17.848  22.750   5.743
 4666POPC   C1A60315  17.598  23.043   6.126
 4666POPC   D2A60316  17.321  23.112   6.500
 4666POPC   C3A60317  17.470  23.083   6.900
 4666POPC   C4A60318  17.371  22.941   7.308
 4666POPC   C1B60319  17.846  22.578   6.202
 4666POPC   C2B60320  17.723  22.755   6.611
 4666POPC   C3B60321  17.854  22.813   7.074
 4666POPC   C4B60322  17.705  22.571   7.434
 4667POPC   NC360323  11.662  42.934   5.511
 4667POPC   PO460324  11.021  43.057   5.425
 4667POPC   GL160325  11.106  42.799   5.835
 4667POPC   GL260326  11.436  42.645   5.876
 4667POPC   C1A60327  11.262  42.754   6.326
 4667POPC   D2A60328  11.390  43.147   6.543
 4667POPC   C3A60329  11.246  43.228   6.965
 4667POPC   C4A60330  11.135  42.933   7.241
 4667POPC   C1B60331  11.702  42.944   6.158
 4667POPC   C2B60332  11.791  42.837   6.590
 4667POPC   C3B60333  11.529  42.782   6.944
 4667POPC   C4B60334  11.638  42.876   7.380
 4668POPC   NC360335  25.011  32.780   5.426
 4668POPC   PO460336  25.318  33.430   5.401
 4668POPC   GL160337  25.184  33.222   5.768
 4668POPC   GL260338  25.455  32.977   5.780
 4668POPC   C1A60339  25.190  33.043   6.226
 4668POPC   D2A60340  25.055  32.774   6.599
 4668POPC   C3A60341  25.050  32.975   7.010
 4668POPC   C4A60342  25.334  33.020   7.334
 4668POPC   C1B60343  25.589  33.361   6.067
 4668POPC   C2B60344  25.467  33.522   6.469
 4668POPC   C3B60345  25.488  33.277   6.844
 4668POPC   C4B60346  25.720  33.339   7.194
 4669POPC   NC360347  37.227  32.494   5.424
 4669POPC   PO460348  37.016  31.990   5.649
 4669POPC   GL160349  37.107  32.262   5.945
 4669POPC   GL260350  36.786  32.334   5.971
 4669POPC   C1A60351  37.005  32.253   6.410
 4669POPC   D2A60352  37.047  32.512   6.770
 4669POPC   C3A60353  36.969  32.309   7.151
 4669POPC   C4A60354  37.032  32.026   7.488
 4669POPC   C1B60355  36.482  32.027   6.095
 4669POPC   C2B60356  36.410  31.782   6.468
 4669POPC   C3B60357  36.301  31.950   6.843
 4669POPC   C4B60358  36.534  32.040   7.217
 4670POPC   NC360359   1.080  33.828   5.377
 4670POPC   PO460360   1.724  33.973   5.280
 4670POPC   GL160361   1.536  33.980   5.727
 4670POPC   GL260362   1.298  33.766   5.846
 4670POPC   C1A60363   1.525  34.165   6.171
 4670POPC   D2A60364   1.324  34.286   6.591
 4670POPC   C3A60365   1.156  34.010   6.915
 4670POPC   C4A60366   1.545  33.947   7.215
 4670POPC   C1B60367   1.128  33.838   6.245
 4670POPC   C2B60368   0.919  33.520   6.491
 4670POPC   C3B60369   0.879  33.479   6.896
 4670POPC   C4B60370   1.172  33.602   7.215
 4671POPC   NC360371   5.481  26.198   5.615
 4671POPC   PO460372   6.026  25.798   5.537
 4671POPC   GL160373   5.918  26.078   5.895
 4671POPC   GL260374   6.094  26.414   5.927
 4671POPC   C1A60375   5.821  26.077   6.330
 4671POPC   D2A60376   5.475  25.931   6.590
 4671POPC   C3A60377   5.521  25.759   6.996
 4671POPC   C4A60378   5.625  25.769   7.442
 4671POPC   C1B60379   6.316  26.276   6.301
 4671POPC   C2B60380   6.219  26.055   6.662
 4671POPC   C3B60381   5.887  26.135   6.860
 4671POPC   C4B60382   5.902  26.325   7.221
 4672POPC   NC360383  41.482  25.517   5.382
 4672POPC   PO460384  41.658  24.784   5.288
 4672POPC   GL160385  41.647  24.962   5.731
 4672POPC   GL260386  41.382  25.165   5.811
 4672POPC   C1A60387  41.812  25.019   6.175
 4672POPC   D2A60388  41.791  25.314   6.555
 4672POPC   C3A60389  41.651  25.206   6.990
 4672POPC   C4A60390  41.535  24.870   7.301
 4672POPC   C1B60391  41.308  25.156   6.266
 4672POPC   C2B60392  41.216  25.305   6.706
 4672POPC   C3B60393  41.304  25.580   7.062
 4672POPC   C4B60394  41.565  25.398   7.459
 4673POPC   NC360395  15.612   5.303   5.467
 4673POPC   PO460396  14.984   5.484   5.492
 4673POPC   GL160397  15.032   5.126   5.766
 4673POPC   GL260398  15.350   4.900   5.794
 4673POPC   C1A60399  14.751   5.073   6.085
 4673POPC   D2A60400  14.728   4.984   6.499
 4673POPC   C3A60401  14.964   5.172   6.803
 4673POPC   C4A60402  14.904   5.088   7.247
 4673POPC   C1B60403  15.230   4.984   6.247
 4673POPC   C2B60404  15.201   4.715   6.619
 4673POPC   C3B60405  15.304   4.856   7.025
 4673POPC   C4B60406  15.334   5.313   7.141
 4674POPC   NC360407  14.066  10.446   5.343
 4674POPC   PO460408  13.440  10.744   5.468
 4674POPC   GL160409  13.556  10.693   5.900
 4674POPC   GL260410  13.866  10.565   5.815
 4674POPC   C1A60411  13.647  10.398   6.271
 4674POPC   D2A60412  13.380  10.263   6.608
 4674POPC   C3A60413  13.604  10.217   6.968
 4674POPC   C4A60414  13.430  10.381   7.265
 4674POPC   C1B60415  14.007  10.746   6.209
 4674POPC   C2B60416  14.113  10.546   6.599
 4674POPC   C3B60417  14.055  10.535   7.045
 4674POPC   C4B60418  13.833  10.637   7.423
 4675POPC   NC360419   9.261   1.211   5.043
 4675POPC   PO460420   9.838   1.260   5.421
 4675POPC   GL160421   9.801   1.395   5.838
 4675POPC   GL260422   9.630   1.111   6.030
 4675POPC   C1A60423   9.977   1.386   6.256
 4675POPC   D2A60424   9.815   1.211   6.636
 4675POPC   C3A60425   9.923   1.398   6.993
 4675POPC   C4A60426   9.903   1.315   7.422
 4675POPC   C1B60427   9.889   0.836   6.299
 4675POPC   C2B60428   9.995   0.746   6.751
 4675POPC   C3B60429   9.801   0.850   7.174
 4675POPC   C4B60430   9.702   0.903   7.636
 4676POPC   NC360431   5.414  14.643   5.500
 4676POPC   PO460432   5.852  14.174   5.436
 4676POPC   GL160433   5.712  14.387   5.846
 4676POPC   GL260434   5.920  14.626   5.963
 4676POPC   C1A60435   5.557  14.397   6.321
 4676POPC   D2A60436   5.770  14.199   6.682
 4676POPC   C3A60437   5.748  14.273   7.127
 4676POPC   C4A60438   6.004  14.213   7.510
 4676POPC   C1B60439   6.060  14.404   6.308
 4676POPC   C2B60440   6.158  14.563   6.699
 4676POPC   C3B60441   6.214  14.439   7.093
 4676POPC   C4B60442   6.331  14.587   7.486
 4677POPC   NC360443  35.990  15.305   5.442
 4677POPC   PO460444  36.659  15.264   5.633
 4677POPC   GL160445  36.530  14.978   5.927
 4677POPC   GL260446  36.159  15.063   5.904
 4677POPC   C1A60447  36.457  15.084   6.344
 4677POPC   D2A60448  36.079  15.173   6.557
 4677POPC   C3A60449  36.157  15.089   6.953
 4677POPC   C4A60450  36.172  14.817   7.268
 4677POPC   C1B60451  36.054  15.461   6.130
 4677POPC   C2B60452  35.870  15.642   6.519
 4677POPC   C3B60453  35.849  15.503   6.945
 4677POPC   C4B60454  36.171  15.475   7.281
 4678POPC   NC360455  10.087   3.335   5.559
 4678POPC   PO460456  10.769   3.668   5.415
 4678POPC   GL160457  10.869   3.537   5.820
 4678POPC   GL260458  10.613   3.285   5.769
 4678POPC   C1A60459  10.975   3.710   6.223
 4678POPC   D2A60460  10.955   3.414   6.570
 4678POPC   C3A60461  10.898   3.558   6.975
 4678POPC   C4A60462  10.682   3.511   7.344
 4678POPC   C1B60463  10.586   3.374   6.215
 4678POPC   C2B60464  10.459   3.446   6.639
 4678POPC   C3B60465  10.317   3.477   7.017
 4678POPC   C4B60466  10.299   3.901   7.140
 4679POPC   NC360467  16.568  17.480   5.546
 4679POPC   PO460468  17.027  18.028   5.449
 4679POPC   GL160469  16.869  17.802   5.814
 4679POPC   GL260470  16.523  17.904   5.896
 4679POPC   C1A60471  16.738  17.522   6.181
 4679POPC   D2A60472  16.521  17.483   6.557
 4679POPC   C3A60473  16.794  17.418   6.924
 4679POPC   C4A60474  16.532  17.421   7.277
 4679POPC   C1B60475  16.779  18.044   6.245
 4679POPC   C2B60476  16.792  17.889   6.668
 4679POPC   C3B60477  16.754  17.870   7.137
 4679POPC   C4B60478  16.921  17.653   7.539
 4680POPC   NC360479  30.404  29.616   5.039
 4680POPC   PO460480  30.760  30.096   5.219
 4680POPC   GL160481  30.491  30.031   5.645
 4680POPC   GL260482  30.780  30.040   5.853
 4680POPC   C1A60483  30.367  30.027   6.117
 4680POPC   D2A60484  30.628  29.990   6.516
 4680POPC   C3A60485  30.487  30.004   6.966
 4680POPC   C4A60486  30.695  30.071   7.395
 4680POPC   C1B60487  30.878  29.711   6.171
 4680POPC   C2B60488  31.051  29.690   6.607
 4680POPC   C3B60489  30.964  29.793   7.048
 4680POPC   C4B60490  31.137  29.819   7.494
 4681POPC   NC360491  14.113  32.969   5.476
 4681POPC   PO460492  14.889  33.150   5.421
 4681POPC   GL160493  14.585  33.102   5.768
 4681POPC   GL260494  14.263  33.231   5.884
 4681POPC   C1A60495  14.500  32.892   6.172
 4681POPC   D2A60496  14.644  32.852   6.591
 4681POPC   C3A60497  14.360  32.987   6.910
 4681POPC   C4A60498  14.368  33.077   7.325
 4681POPC   C1B60499  14.086  33.247   6.303
 4681POPC   C2B60500  14.146  33.414   6.728
 4681POPC   C3B60501  13.982  33.361   7.173
 4681POPC   C4B60502  14.062  33.324   7.680
 4682POPC   NC360503  31.748  10.887   5.659
 4682POPC   PO460504  31.593  10.329   5.390
 4682POPC   GL160505  31.419  10.415   5.796
 4682POPC   GL260506  31.254  10.718   5.805
 4682POPC   C1A60507  31.510  10.480   6.251
 4682POPC   D2A60508  31.470  10.771   6.608
 4682POPC   C3A60509  31.587  10.621   7.036
 4682POPC   C4A60510  31.632  10.259   7.326
 4682POPC   C1B60511  31.034  10.606   6.150
 4682POPC   C2B60512  31.075  10.451   6.536
 4682POPC   C3B60513  31.047  10.573   6.938
 4682POPC   C4B60514  31.195  10.584   7.355
 4683POPC   NC360515  25.197  39.469   5.283
 4683POPC   PO460516  25.100  38.757   5.394
 4683POPC   GL160517  25.261  39.092   5.670
 4683POPC   GL260518  24.996  39.274   5.773
 4683POPC   C1A60519  25.407  39.089   6.104
 4683POPC   D2A60520  25.430  39.288   6.510
 4683POPC   C3A60521  25.330  39.156   6.896
 4683POPC   C4A60522  25.426  39.411   7.261
 4683POPC   C1B60523  24.893  39.013   6.132
 4683POPC   C2B60524  24.937  38.862   6.568
 4683POPC   C3B60525  24.880  38.972   7.019
 4683POPC   C4B60526  24.924  39.426   7.170
 4684POPC   NC360527  24.174   6.104   5.596
 4684POPC   PO460528  23.540   5.735   5.409
 4684POPC   GL160529  23.775   5.740   5.816
 4684POPC   GL260530  23.947   5.406   5.897
 4684POPC   C1A60531  23.825   6.066   6.174
 4684POPC   D2A60532  23.665   6.294   6.559
 4684POPC   C3A60533  23.678   6.064   6.959
 4684POPC   C4A60534  23.474   5.876   7.309
 4684POPC   C1B60535  23.892   5.571   6.295
 4684POPC   C2B60536  23.599   5.757   6.557
 4684POPC   C3B60537  23.642   5.554   6.932
 4684POPC   C4B60538  23.960   5.652   7.170
 4685POPC   NC360539  10.081  34.836   5.426
 4685POPC   PO460540   9.449  34.756   5.571
 4685POPC   GL160541   9.638  34.482   5.881
 4685POPC   GL260542   9.993  34.470   5.824
 4685POPC   C1A60543   9.686  34.508   6.323
 4685POPC   D2A60544   9.819  34.780   6.645
 4685POPC   C3A60545   9.617  34.666   6.988
 4685POPC   C4A60546   9.862  34.604   7.287
 4685POPC   C1B60547   9.959  34.125   6.114
 4685POPC   C2B60548   9.855  34.013   6.513
 4685POPC   C3B60549   9.849  34.218   6.882
 4685POPC   C4B60550   9.731  34.117   7.269
 4686POPC   NC360551  34.671   3.201   5.399
 4686POPC   PO460552  34.796   3.821   5.381
 4686POPC   GL160553  34.601   3.681   5.780
 4686POPC   GL260554  34.355   3.398   5.797
 4686POPC   C1A60555  34.628   3.558   6.235
 4686POPC   D2A60556  34.588   3.739   6.667
 4686POPC   C3A60557  34.857   3.568   7.008
 4686POPC   C4A60558  34.958   3.133   7.153
 4686POPC   C1B60559  34.185   3.307   6.251
 4686POPC   C2B60560  34.392   3.220   6.688
 4686POPC   C3B60561  34.450   3.303   7.169
 4686POPC   C4B60562  34.238   3.504   7.529
 4687POPC   NC360563   2.464  38.371   5.285
 4687POPC   PO460564   2.615  39.041   5.529
 4687POPC   GL160565   2.715  38.693   5.745
 4687POPC   GL260566   2.683  38.319   5.784
 4687POPC   C1A60567   2.790  38.679   6.166
 4687POPC   D2A60568   2.933  38.495   6.545
 4687POPC   C3A60569   3.024  38.736   6.918
 4687POPC   C4A60570   2.628  38.821   7.092
 4687POPC   C1B60571   3.043  38.202   6.115
 4687POPC   C2B60572   3.175  38.041   6.553
 4687POPC   C3B60573   3.052  38.216   6.978
 4687POPC   C4B60574   3.061  38.139   7.421
 4688POPC   NC360575   0.989  24.351   5.355
 4688POPC   PO460576   1.563  24.829   5.398
 4688POPC   GL160577   1.362  24.586   5.779
 4688POPC   GL260578   0.990  24.530   5.836
 4688POPC   C1A60579   1.304  24.542   6.252
 4688POPC   D2A60580   1.529  24.716   6.639
 4688POPC   C3A60581   1.318  24.622   7.040
 4688POPC   C4A60582   1.230  24.312   7.418
 4688POPC   C1B60583   0.788  24.542   6.243
 4688POPC   C2B60584   0.881  24.369   6.658
 4688POPC   C3B60585   0.851  24.441   7.099
 4688POPC   C4B60586   0.990  24.778   7.416
 4689POPC   NC360587  33.748   2.205   5.481
 4689POPC   PO460588  33.388   1.602   5.438
 4689POPC   GL160589  33.657   1.765   5.765
 4689POPC   GL260590  34.018   1.777   5.688
 4689POPC   C1A60591  33.644   1.922   6.189
 4689POPC   D2A60592  33.798   1.802   6.580
 4689POPC   C3A60593  33.637   1.894   6.985
 4689POPC   C4A60594  33.630   1.757   7.408
 4689POPC   C1B60595  34.152   1.916   6.102
 4689POPC   C2B60596  34.254   2.040   6.521
 4689POPC   C3B60597  34.147   1.933   6.941
 4689POPC   C4B60598  34.016   2.099   7.337
 4690POPC   NC360599  17.526  30.376   5.294
 4690POPC   PO460600  17.753  29.726   5.348
 4690POPC   GL160601  17.460  29.904   5.677
 4690POPC   GL260602  17.426  29.586   5.835
 4690POPC   C1A60603  17.284  29.984   6.125
 4690POPC   D2A60604  17.514  30.045   6.526
 4690POPC   C3A60605  17.322  29.937   6.887
 4690POPC   C4A60606  17.468  29.978   7.294
 4690POPC   C1B60607  17.698  29.680   6.204
 4690POPC   C2B60608  17.712  29.513   6.626
 4690POPC   C3B60609  17.703  29.593   7.061
 4690POPC   C4B60610  17.869  29.451   7.449
 4691POPC   NC360611  23.430  29.669   5.611
 4691POPC   PO460612  22.876  29.780   5.258
 4691POPC   GL160613  22.939  29.859   5.754
 4691POPC   GL260614  23.223  29.996   5.931
 4691POPC   C1A60615  22.872  29.747   6.205
 4691POPC   D2A60616  22.741  29.968   6.555
 4691POPC   C3A60617  22.931  29.943   6.950
 4691POPC   C4A60618  22.765  29.842   7.321
 4691POPC   C1B60619  22.990  30.247   6.211
 4691POPC   C2B60620  23.142  30.288   6.624
 4691POPC   C3B60621  23.372  30.282   6.995
 4691POPC   C4B60622  23.259  30.082   7.348
 4692POPC   NC360623  14.631  20.554   5.537
 4692POPC   PO460624  14.089  20.912   5.748
 4692POPC   GL160625  14.450  20.794   5.952
 4692POPC   GL260626  14.710  21.029   5.836
 4692POPC   C1A60627  14.571  20.420   6.226
 4692POPC   D2A60628  14.566  20.231   6.644
 4692POPC   C3A60629  14.405  20.528   6.922
 4692POPC   C4A60630  14.570  20.762   7.239
 4692POPC   C1B60631  14.812  20.887   6.283
 4692POPC   C2B60632  14.697  20.948   6.712
 4692POPC   C3B60633  14.752  21.223   7.046
 4692POPC   C4B60634  14.875  21.128   7.497
 4693POPC   NC360635   9.477  32.743   5.560
 4693POPC   PO460636  10.021  33.280   5.432
 4693POPC   GL160637   9.790  33.101   5.781
 4693POPC   GL260638   9.930  32.770   5.852
 4693POPC   C1A60639   9.687  33.219   6.193
 4693POPC   D2A60640   9.689  33.529   6.504
 4693POPC   C3A60641   9.755  33.296   6.859
 4693POPC   C4A60642   9.872  33.217   7.252
 4693POPC   C1B60643   9.963  32.785   6.300
 4693POPC   C2B60644   9.637  32.836   6.617
 4693POPC   C3B60645   9.593  32.813   7.076
 4693POPC   C4B60646   9.943  32.710   7.360
 4694POPC   NC360647  36.382  41.473   5.318
 4694POPC   PO460648  35.886  41.863   5.368
 4694POPC   GL160649  36.170  41.729   5.696
 4694POPC   GL260650  36.299  42.014   5.822
 4694POPC   C1A60651  36.503  41.612   6.043
 4694POPC   D2A60652  36.553  41.436   6.476
 4694POPC   C3A60653  36.427  41.654   6.870
 4694POPC   C4A60654  36.306  41.565   7.297
 4694POPC   C1B60655  36.032  41.752   6.169
 4694POPC   C2B60656  36.010  41.540   6.574
 4694POPC   C3B60657  35.937  41.731   6.986
 4694POPC   C4B60658  35.828  41.755   7.429
 4695POPC   NC360659  22.325  38.442   5.364
 4695POPC   PO460660  21.738  38.772   5.488
 4695POPC   GL160661  21.964  38.496   5.778
 4695POPC   GL260662  22.307  38.509   5.865
 4695POPC   C1A60663  21.887  38.425   6.226
 4695POPC   D2A60664  21.879  38.166   6.611
 4695POPC   C3A60665  21.813  38.473   6.929
 4695POPC   C4A60666  21.906  38.604   7.329
 4695POPC   C1B60667  22.391  38.338   6.266
 4695POPC   C2B60668  22.287  38.466   6.691
 4695POPC   C3B60669  22.224  38.199   7.058
 4695POPC   C4B60670  22.594  38.075   7.259
 4696POPC   NC360671   5.234  11.137   5.573
 4696POPC   PO460672   5.117  10.448   5.517
 4696POPC   GL160673   5.224  10.702   5.871
 4696POPC   GL260674   4.918  10.901   5.886
 4696POPC   C1A60675   5.471  10.666   6.275
 4696POPC   D2A60676   5.566  10.807   6.701
 4696POPC   C3A60677   5.377  10.537   7.054
 4696POPC   C4A60678   5.499  10.624   7.461
 4696POPC   C1B60679   4.999  10.864   6.305
 4696POPC   C2B60680   5.080  10.675   6.647
 4696POPC   C3B60681   4.917  10.739   7.007
 4696POPC   C4B60682   4.715  10.404   7.107
 4697POPC   NC360683  24.023  19.847   5.303
 4697POPC   PO460684  24.719  19.946   5.432
 4697POPC   GL160685  24.550  19.781   5.828
 4697POPC   GL260686  24.175  19.772   5.792
 4697POPC   C1A60687  24.701  19.814   6.281
 4697POPC   D2A60688  24.541  19.856   6.705
 4697POPC   C3A60689  24.715  20.063   7.063
 4697POPC   C4A60690  24.744  19.813   7.433
 4697POPC   C1B60691  24.200  19.956   6.178
 4697POPC   C2B60692  24.059  19.839   6.534
 4697POPC   C3B60693  24.088  19.973   6.942
 4697POPC   C4B60694  24.268  19.758   7.268
 4698POPC   NC360695  21.529  31.088   5.491
 4698POPC   PO460696  21.657  30.463   5.166
 4698POPC   GL160697  21.504  30.568   5.591
 4698POPC   GL260698  21.182  30.445   5.695
 4698POPC   C1A60699  21.631  30.554   6.044
 4698POPC   D2A60700  21.541  30.734   6.480
 4698POPC   C3A60701  21.586  30.527   6.916
 4698POPC   C4A60702  21.606  30.666   7.396
 4698POPC   C1B60703  21.139  30.568   6.169
 4698POPC   C2B60704  21.044  30.601   6.648
 4698POPC   C3B60705  21.147  30.682   7.116
 4698POPC   C4B60706  21.011  30.592   7.563
 4699POPC   NC360707  31.200  36.399   5.353
 4699POPC   PO460708  31.707  35.836   5.314
 4699POPC   GL160709  31.646  36.186   5.628
 4699POPC   GL260710  31.320  36.196   5.806
 4699POPC   C1A60711  31.727  36.183   6.099
 4699POPC   D2A60712  31.638  35.908   6.461
 4699POPC   C3A60713  31.658  36.022   6.912
 4699POPC   C4A60714  31.281  36.021   7.147
 4699POPC   C1B60715  31.181  36.029   6.222
 4699POPC   C2B60716  31.116  36.114   6.657
 4699POPC   C3B60717  31.055  36.457   6.961
 4699POPC   C4B60718  31.186  36.442   7.402
 4700POPC   NC360719  34.353   8.208   5.228
 4700POPC   PO460720  34.975   8.449   5.455
 4700POPC   GL160721  34.680   8.226   5.735
 4700POPC   GL260722  34.341   8.122   5.721
 4700POPC   C1A60723  34.746   8.146   6.183
 4700POPC   D2A60724  34.538   8.260   6.570
 4700POPC   C3A60725  34.761   8.320   6.954
 4700POPC   C4A60726  34.613   7.926   7.141
 4700POPC   C1B60727  34.236   8.202   6.121
 4700POPC   C2B60728  34.013   8.151   6.475
 4700POPC   C3B60729  34.170   8.055   6.873
 4700POPC   C4B60730  34.303   8.383   7.110
 4701POPC   NC360731  32.464  25.155   5.575
 4701POPC   PO460732  31.933  24.831   5.343
 4701POPC   GL160733  32.118  24.834   5.778
 4701POPC   GL260734  32.461  24.894   5.990
 4701POPC   C1A60735  31.992  24.983   6.211
 4701POPC   D2A60736  32.042  25.226   6.586
 4701POPC   C3A60737  32.205  25.070   6.963
 4701POPC   C4A60738  32.110  25.158   7.416
 4701POPC   C1B60739  32.460  25.247   6.294
 4701POPC   C2B60740  32.490  25.465   6.709
 4701POPC   C3B60741  32.498  25.439   7.167
 4701POPC   C4B60742  32.689  25.234   7.530
 4702POPC   NC360743  32.951  14.114   5.230
 4702POPC   PO460744  33.076  14.706   5.278
 4702POPC   GL160745  33.021  14.381   5.727
 4702POPC   GL260746  32.990  14.052   5.737
 4702POPC   C1A60747  32.743  14.547   6.180
 4702POPC   D2A60748  32.607  14.693   6.609
 4702POPC   C3A60749  32.938  14.619   6.946
 4702POPC   C4A60750  33.115  14.688   7.357
 4702POPC   C1B60751  32.920  14.089   6.145
 4702POPC   C2B60752  33.007  14.306   6.541
 4702POPC   C3B60753  33.048  14.110   6.952
 4702POPC   C4B60754  32.788  14.140   7.293
 4703POPC   NC360755   1.643  39.103   5.150
 4703POPC   PO460756   0.966  39.071   5.199
 4703POPC   GL160757   1.073  39.178   5.637
 4703POPC   GL260758   1.456  39.235   5.704
 4703POPC   C1A60759   0.960  39.225   6.083
 4703POPC   D2A60760   0.991  39.478   6.479
 4703POPC   C3A60761   0.933  39.202   6.827
 4703POPC   C4A60762   0.897  39.199   7.244
 4703POPC   C1B60763   1.506  39.389   6.149
 4703POPC   C2B60764   1.455  39.283   6.598
 4703POPC   C3B60765   1.329  39.531   6.951
 4703POPC   C4B60766   1.577  39.497   7.331
 4704POPC   NC360767  32.459  31.636   5.448
 4704POPC   PO460768  32.088  31.081   5.453
 4704POPC   GL160769  32.226  31.288   5.810
 4704POPC   GL260770  32.154  31.599   5.843
 4704POPC   C1A60771  32.228  31.294   6.280
 4704POPC   D2A60772  32.454  31.406   6.693
 4704POPC   C3A60773  32.365  31.479   7.137
 4704POPC   C4A60774  32.431  31.398   7.607
 4704POPC   C1B60775  31.952  31.721   6.180
 4704POPC   C2B60776  32.020  31.656   6.620
 4704POPC   C3B60777  31.865  31.600   7.015
 4704POPC   C4B60778  31.981  31.555   7.455
 4705POPC   NC360779  32.745  16.447   5.449
 4705POPC   PO460780  33.104  15.823   5.512
 4705POPC   GL160781  33.060  16.076   5.875
 4705POPC   GL260782  32.741  16.117   5.839
 4705POPC   C1A60783  33.087  15.928   6.282
 4705POPC   D2A60784  33.119  15.802   6.705
 4705POPC   C3A60785  33.307  16.129   7.008
 4705POPC   C4A60786  33.478  16.078   7.421
 4705POPC   C1B60787  32.639  16.191   6.250
 4705POPC   C2B60788  32.638  15.946   6.622
 4705POPC   C3B60789  32.787  16.030   7.027
 4705POPC   C4B60790  32.503  16.318   7.175
 4706POPC   NC360791  27.065  35.115   5.587
 4706POPC   PO460792  27.594  35.486   5.355
 4706POPC   GL160793  27.511  35.638   5.798
 4706POPC   GL260794  27.848  35.688   5.867
 4706POPC   C1A60795  27.436  35.462   6.275
 4706POPC   D2A60796  27.507  35.027   6.530
 4706POPC   C3A60797  27.442  35.049   7.002
 4706POPC   C4A60798  27.441  35.240   7.429
 4706POPC   C1B60799  27.835  35.264   6.042
 4706POPC   C2B60800  27.939  35.276   6.461
 4706POPC   C3B60801  27.772  35.421   6.829
 4706POPC   C4B60802  27.903  35.414   7.241
 4707POPC   NC360803   9.805  11.693   5.349
 4707POPC   PO460804   9.637  12.284   5.468
 4707POPC   GL160805   9.724  12.002   5.798
 4707POPC   GL260806  10.048  11.863   5.769
 4707POPC   C1A60807   9.677  11.921   6.243
 4707POPC   D2A60808   9.854  11.819   6.669
 4707POPC   C3A60809   9.689  12.062   7.035
 4707POPC   C4A60810   9.499  12.057   7.463
 4707POPC   C1B60811  10.174  11.988   6.207
 4707POPC   C2B60812  10.361  12.087   6.608
 4707POPC   C3B60813  10.201  12.069   7.029
 4707POPC   C4B60814  10.007  11.969   7.455
 4708POPC   NC360815   4.076  38.850   5.430
 4708POPC   PO460816   4.389  39.434   5.373
 4708POPC   GL160817   4.175  39.373   5.763
 4708POPC   GL260818   4.087  39.046   5.890
 4708POPC   C1A60819   4.223  39.440   6.191
 4708POPC   D2A60820   4.282  39.135   6.514
 4708POPC   C3A60821   4.453  39.221   6.926
 4708POPC   C4A60822   4.460  38.942   7.234
 4708POPC   C1B60823   3.852  38.753   6.141
 4708POPC   C2B60824   3.981  38.722   6.557
 4708POPC   C3B60825   3.972  39.024   6.935
 4708POPC   C4B60826   3.962  38.866   7.370
 4709POPC   NC360827   4.170   9.820   5.356
 4709POPC   PO460828   4.769   9.524   5.359
 4709POPC   GL160829   4.475   9.702   5.746
 4709POPC   GL260830   4.216   9.470   5.813
 4709POPC   C1A60831   4.236   9.740   6.208
 4709POPC   D2A60832   4.109   9.891   6.567
 4709POPC   C3A60833   4.198   9.765   6.947
 4709POPC   C4A60834   4.174  10.001   7.315
 4709POPC   C1B60835   4.542   9.359   6.124
 4709POPC   C2B60836   4.438   9.401   6.560
 4709POPC   C3B60837   4.595   9.447   6.971
 4709POPC   C4B60838   4.385   9.531   7.360
 4710POPC   NC360839  12.722  41.311   5.449
 4710POPC   PO460840  12.742  41.928   5.512
 4710POPC   GL160841  12.772  41.593   5.901
 4710POPC   GL260842  12.928  41.257   5.911
 4710POPC   C1A60843  12.786  41.426   6.364
 4710POPC   D2A60844  13.046  41.384   6.731
 4710POPC   C3A60845  12.773  41.633   7.011
 4710POPC   C4A60846  12.766  41.712   7.466
 4710POPC   C1B60847  12.488  41.148   6.063
 4710POPC   C2B60848  12.431  41.019   6.504
 4710POPC   C3B60849  12.686  41.074   6.875
 4710POPC   C4B60850  12.856  41.237   7.294
 4711POPC   NC360851  30.139  44.224   5.559
 4711POPC   PO460852  29.630  43.679   5.343
 4711POPC   GL160853  29.680  43.887   5.725
 4711POPC   GL260854  29.480  44.205   5.772
 4711POPC   C1A60855  29.677  43.716   6.145
 4711POPC   D2A60856  29.522  43.708   6.574
 4711POPC   C3A60857  29.864  43.712   6.861
 4711POPC   C4A60858  30.021  43.687   7.286
 4711POPC   C1B60859  29.770  44.217   6.119
 4711POPC   C2B60860  29.860  44.111   6.534
 4711POPC   C3B60861  29.698  44.212   6.932
 4711POPC   C4B60862  29.868  44.199   7.339
 4712POPC   NC360863  32.026  17.141   5.485
 4712POPC   PO460864  32.430  16.656   5.153
 4712POPC   GL160865  32.384  16.798   5.618
 4712POPC   GL260866  32.565  17.047   5.806
 4712POPC   C1A60867  32.170  16.823   6.040
 4712POPC   D2A60868  32.130  16.859   6.497
 4712POPC   C3A60869  32.030  16.513   6.785
 4712POPC   C4A60870  31.950  16.671   7.197
 4712POPC   C1B60871  32.639  16.700   6.124
 4712POPC   C2B60872  32.577  16.604   6.585
 4712POPC   C3B60873  32.420  16.791   6.977
 4712POPC   C4B60874  32.464  17.097   7.299
 4713POPC   NC360875  41.630  26.350   5.401
 4713POPC   PO460876  41.911  25.713   5.328
 4713POPC   GL160877  41.826  25.961   5.744
 4713POPC   GL260878  41.767  26.309   5.877
 4713POPC   C1A60879  41.701  25.927   6.206
 4713POPC   D2A60880  41.501  25.744   6.559
 4713POPC   C3A60881  41.743  25.772   6.916
 4713POPC   C4A60882  41.625  25.890   7.308
 4713POPC   C1B60883  41.657  26.447   6.263
 4713POPC   C2B60884  41.773  26.235   6.642
 4713POPC   C3B60885  41.801  26.311   7.073
 4713POPC   C4B60886  41.782  26.477   7.485
 4714POPC   NC360887  18.839  43.665   5.438
 4714POPC   PO460888  19.180  44.290   5.484
 4714POPC   GL160889  19.198  44.101   5.870
 4714POPC   GL260890  18.868  44.048   5.832
 4714POPC   C1A60891  19.337  44.044   6.296
 4714POPC   D2A60892  19.206  43.729   6.630
 4714POPC   C3A60893  19.173  43.934   7.018
 4714POPC   C4A60894  19.512  44.010   7.307
 4714POPC   C1B60895  18.905  43.800   6.207
 4714POPC   C2B60896  18.714  43.716   6.615
 4714POPC   C3B60897  18.720  43.618   7.044
 4714POPC   C4B60898  18.701  43.994   7.276
 4715POPC   NC360899  25.744  40.132   5.584
 4715POPC   PO460900  25.242  39.914   5.188
 4715POPC   GL160901  25.273  39.750   5.692
 4715POPC   GL260902  25.488  39.929   5.964
 4715POPC   C1A60903  25.187  39.574   6.131
 4715POPC   D2A60904  25.378  39.791   6.475
 4715POPC   C3A60905  25.243  39.735   6.891
 4715POPC   C4A60906  25.169  39.847   7.324
 4715POPC   C1B60907  25.540  40.269   6.303
 4715POPC   C2B60908  25.632  40.233   6.756
 4715POPC   C3B60909  25.361  40.256   7.099
 4715POPC   C4B60910  25.288  40.457   7.485
 4716POPC   NC360911  43.366  21.076   5.594
 4716POPC   PO460912  42.923  21.637   5.544
 4716POPC   GL160913  43.102  21.429   5.837
 4716POPC   GL260914  43.449  21.542   5.814
 4716POPC   C1A60915  42.954  21.231   6.202
 4716POPC   D2A60916  42.682  21.337   6.571
 4716POPC   C3A60917  42.820  21.268   7.015
 4716POPC   C4A60918  43.102  21.090   7.363
 4716POPC   C1B60919  43.296  21.661   6.242
 4716POPC   C2B60920  43.207  21.453   6.623
 4716POPC   C3B60921  43.210  21.630   7.021
 4716POPC   C4B60922  43.001  21.596   7.410
 4717POPC   NC360923  24.494  28.617   5.233
 4717POPC   PO460924  24.673  28.095   5.450
 4717POPC   GL160925  24.510  28.222   5.861
 4717POPC   GL260926  24.315  28.523   5.791
 4717POPC   C1A60927  24.626  28.463   6.254
 4717POPC   D2A60928  24.802  28.313   6.646
 4717POPC   C3A60929  24.640  28.557   6.935
 4717POPC   C4A60930  24.494  28.258   7.166
 4717POPC   C1B60931  24.143  28.407   6.204
 4717POPC   C2B60932  24.226  28.590   6.592
 4717POPC   C3B60933  24.135  28.612   7.033
 4717POPC   C4B60934  24.110  28.641   7.479
 4718POPC   NC360935  10.864  12.439   5.501
 4718POPC   PO460936  11.243  11.797   5.364
 4718POPC   GL160937  11.053  11.929   5.761
 4718POPC   GL260938  11.401  11.963   5.882
 4718POPC   C1A60939  11.045  12.216   6.136
 4718POPC   D2A60940  11.386  12.218   6.450
 4718POPC   C3A60941  11.266  12.174   6.875
 4718POPC   C4A60942  11.379  12.435   7.257
 4718POPC   C1B60943  11.252  11.739   6.241
 4718POPC   C2B60944  11.430  11.566   6.595
 4718POPC   C3B60945  11.535  11.670   6.988
 4718POPC   C4B60946  11.392  11.898   7.292
 4719POPC   NC360947  39.898   9.592   5.566
 4719POPC   PO460948  40.312  10.166   5.414
 4719POPC   GL160949  40.083  10.044   5.780
 4719POPC   GL260950  40.277   9.770   5.902
 4719POPC   C1A60951  39.927   9.987   6.204
 4719POPC   D2A60952  39.844   9.846   6.642
 4719POPC   C3A60953  40.128   9.802   6.990
 4719POPC   C4A60954  39.948   9.807   7.387
 4719POPC   C1B60955  40.236   9.542   6.287
 4719POPC   C2B60956  39.978   9.321   6.568
 4719POPC   C3B60957  39.843   9.395   6.972
 4719POPC   C4B60958  40.138   9.310   7.289
 4720POPC   NC360959   7.419  34.944   5.405
 4720POPC   PO460960   6.813  35.217   5.365
 4720POPC   GL160961   7.089  35.330   5.757
 4720POPC   GL260962   7.389  35.176   5.856
 4720POPC   C1A60963   7.201  35.456   6.221
 4720POPC   D2A60964   7.382  35.746   6.538
 4720POPC   C3A60965   7.511  35.538   6.897
 4720POPC   C4A60966   7.159  35.337   7.109
 4720POPC   C1B60967   7.583  35.104   6.248
 4720POPC   C2B60968   7.451  35.075   6.693
 4720POPC   C3B60969   7.639  35.076   7.130
 4720POPC   C4B60970   7.731  35.075   7.602
 4721POPC   NC360971  27.531   7.321   5.376
 4721POPC   PO460972  28.104   7.653   5.647
 4721POPC   GL160973  27.643   7.635   5.782
 4721POPC   GL260974  27.439   7.303   5.875
 4721POPC   C1A60975  27.442   7.681   6.203
 4721POPC   D2A60976  27.467   7.409   6.574
 4721POPC   C3A60977  27.677   7.593   6.935
 4721POPC   C4A60978  27.689   7.573   7.371
 4721POPC   C1B60979  27.826   7.328   6.166
 4721POPC   C2B60980  27.915   7.166   6.594
 4721POPC   C3B60981  27.651   7.076   6.940
 4721POPC   C4B60982  27.888   7.108   7.290
 4722POPC   NC360983   9.858  38.158   5.471
 4722POPC   PO460984   9.534  38.739   5.325
 4722POPC   GL160985   9.769  38.771   5.734
 4722POPC   GL260986  10.054  38.500   5.792
 4722POPC   C1A60987   9.925  38.770   6.181
 4722POPC   D2A60988   9.930  38.556   6.576
 4722POPC   C3A60989   9.905  38.782   6.953
 4722POPC   C4A60990   9.767  38.791   7.374
 4722POPC   C1B60991   9.994  38.202   6.159
 4722POPC   C2B60992  10.170  38.116   6.579
 4722POPC   C3B60993   9.953  38.174   6.959
 4722POPC   C4B60994   9.730  38.285   7.327
 4723POPC   NC360995   6.189  23.594   5.548
 4723POPC   PO460996   5.519  23.512   5.423
 4723POPC   GL160997   5.758  23.717   5.814
 4723POPC   GL260998   6.018  23.542   5.995
 4723POPC   C1A60999   5.934  23.966   6.212
 4723POPC   D2A61000   5.738  23.941   6.630
 4723POPC   C3A61001   5.934  23.876   7.007
 4723POPC   C4A61002   5.745  23.904   7.391
 4723POPC   C1B61003   5.764  23.502   6.363
 4723POPC   C2B61004   5.740  23.419   6.797
 4723POPC   C3B61005   5.777  23.403   7.235
 4723POPC   C4B61006   6.146  23.584   7.417
 4724POPC   NC361007  21.295   8.709   5.313
 4724POPC   PO461008  21.525   9.416   5.350
 4724POPC   GL161009  21.509   9.142   5.754
 4724POPC   GL261010  21.739   8.872   5.833
 4724POPC   C1A61011  21.308   8.922   6.138
 4724POPC   D2A61012  21.150   8.746   6.552
 4724POPC   C3A61013  21.432   8.707   6.907
 4724POPC   C4A61014  21.597   9.014   7.181
 4724POPC   C1B61015  21.742   9.175   6.232
 4724POPC   C2B61016  21.777   9.092   6.688
 4724POPC   C3B61017  21.949   9.346   7.030
 4724POPC   C4B61018  21.911   9.268   7.482
 4725POPC   NC361019  35.764  19.413   5.499
 4725POPC   PO461020  35.638  18.821   5.345
 4725POPC   GL161021  35.845  18.912   5.732
 4725POPC   GL261022  36.151  19.107   5.651
 4725POPC   C1A61023  35.838  18.799   6.197
 4725POPC   D2A61024  36.017  18.726   6.621
 4725POPC   C3A61025  35.869  18.953   6.980
 4725POPC   C4A61026  35.960  18.947   7.414
 4725POPC   C1B61027  36.079  19.235   6.097
 4725POPC   C2B61028  36.051  19.257   6.564
 4725POPC   C3B61029  36.203  19.343   7.000
 4725POPC   C4B61030  36.013  19.457   7.405
 4726POPC   NC361031  12.888  16.639   5.290
 4726POPC   PO461032  12.833  17.238   5.489
 4726POPC   GL161033  12.681  16.929   5.756
 4726POPC   GL261034  13.004  16.800   5.784
 4726POPC   C1A61035  12.683  16.799   6.194
 4726POPC   D2A61036  12.935  16.724   6.592
 4726POPC   C3A61037  12.762  16.617   7.019
 4726POPC   C4A61038  12.764  16.464   7.482
 4726POPC   C1B61039  13.138  17.027   6.161
 4726POPC   C2B61040  13.139  17.194   6.584
 4726POPC   C3B61041  13.151  17.007   6.985
 4726POPC   C4B61042  12.964  16.934   7.379
 4727POPC   NC361043   2.191  11.624   5.410
 4727POPC   PO461044   2.177  12.295   5.441
 4727POPC   GL161045   2.267  12.026   5.801
 4727POPC   GL261046   1.980  11.801   5.833
 4727POPC   C1A61047   2.116  12.105   6.239
 4727POPC   D2A61048   1.695  12.286   6.410
 4727POPC   C3A61049   1.734  12.313   6.867
 4727POPC   C4A61050   2.056  12.145   7.129
 4727POPC   C1B61051   1.728  11.781   6.201
 4727POPC   C2B61052   1.830  11.849   6.638
 4727POPC   C3B61053   1.671  11.803   7.048
 4727POPC   C4B61054   1.801  11.850   7.459
 4728POPC   NC361055  44.509  27.469   5.042
 4728POPC   PO461056  44.045  27.767   5.477
 4728POPC   GL161057  43.957  27.643   5.885
 4728POPC   GL261058  43.921  27.303   5.795
 4728POPC   C1A61059  43.769  27.462   6.280
 4728POPC   D2A61060  43.692  27.445   6.702
 4728POPC   C3A61061  44.030  27.695   6.830
 4728POPC   C4A61062  44.057  27.861   7.223
 4728POPC   C1B61063  44.214  27.256   6.153
 4728POPC   C2B61064  44.133  27.077   6.550
 4728POPC   C3B61065  44.083  27.198   6.961
 4728POPC   C4B61066  43.821  27.428   7.215
 4729POPC   NC361067  23.587  39.270   5.365
 4729POPC   PO461068  24.225  39.137   5.443
 4729POPC   GL161069  23.992  39.367   5.746
 4729POPC   GL261070  23.730  39.195   5.842
 4729POPC   C1A61071  23.951  39.489   6.185
 4729POPC   D2A61072  23.758  39.233   6.523
 4729POPC   C3A61073  23.914  39.337   6.941
 4729POPC   C4A61074  23.813  39.228   7.353
 4729POPC   C1B61075  23.415  39.360   6.123
 4729POPC   C2B61076  23.295  39.455   6.547
 4729POPC   C3B61077  23.404  39.305   6.967
 4729POPC   C4B61078  23.372  39.012   7.308
 4730POPC   NC361079  42.190   1.886   5.481
 4730POPC   PO461080  42.640   2.369   5.448
 4730POPC   GL161081  42.530   2.212   5.868
 4730POPC   GL261082  42.272   1.977   5.978
 4730POPC   C1A61083  42.714   1.988   6.261
 4730POPC   D2A61084  42.715   1.942   6.712
 4730POPC   C3A61085  42.346   2.133   6.899
 4730POPC   C4A61086  42.277   2.296   7.334
 4730POPC   C1B61087  42.122   1.658   6.268
 4730POPC   C2B61088  42.042   1.643   6.724
 4730POPC   C3B61089  42.059   1.800   7.154
 4730POPC   C4B61090  42.137   1.850   7.595
 4731POPC   NC361091   1.167   5.415   5.338
 4731POPC   PO461092   1.627   5.946   5.254
 4731POPC   GL161093   1.335   5.799   5.635
 4731POPC   GL261094   1.144   6.088   5.722
 4731POPC   C1A61095   1.055   5.725   6.063
 4731POPC   D2A61096   0.929   5.891   6.496
 4731POPC   C3A61097   1.043   5.715   6.916
 4731POPC   C4A61098   1.245   5.746   7.355
 4731POPC   C1B61099   1.146   6.244   6.176
 4731POPC   C2B61100   1.248   6.300   6.637
 4731POPC   C3B61101   1.107   6.213   7.081
 4731POPC   C4B61102   1.083   6.180   7.535
 4732POPC   NC361103  31.035  11.511   5.594
 4732POPC   PO461104  30.554  11.154   5.406
 4732POPC   GL161105  30.604  11.322   5.814
 4732POPC   GL261106  30.889  11.090   5.903
 4732POPC   C1A61107  30.768  11.519   6.206
 4732POPC   D2A61108  30.699  11.321   6.589
 4732POPC   C3A61109  30.568  11.390   6.995
 4732POPC   C4A61110  30.353  11.053   7.218
 4732POPC   C1B61111  31.097  11.094   6.326
 4732POPC   C2B61112  31.090  11.062   6.802
 4732POPC   C3B61113  30.878  10.987   7.200
 4732POPC   C4B61114  31.018  10.954   7.645
 4733POPC   NC361115  34.428  41.775   5.451
 4733POPC   PO461116  33.726  41.513   5.377
 4733POPC   GL161117  33.906  41.522   5.795
 4733POPC   GL261118  34.118  41.815   5.834
 4733POPC   C1A61119  33.909  41.281   6.200
 4733POPC   D2A61120  34.026  41.424   6.641
 4733POPC   C3A61121  33.865  41.360   7.050
 4733POPC   C4A61122  34.067  41.385   7.442
 4733POPC   C1B61123  34.030  41.770   6.247
 4733POPC   C2B61124  33.689  41.835   6.523
 4733POPC   C3B61125  33.601  41.805   6.946
 4733POPC   C4B61126  33.966  41.862   7.198
 4734POPC   NC361127  13.816  19.272   5.357
 4734POPC   PO461128  14.076  18.658   5.331
 4734POPC   GL161129  13.909  18.880   5.722
 4734POPC   GL261130  13.555  18.831   5.788
 4734POPC   C1A61131  13.830  19.094   6.149
 4734POPC   D2A61132  14.007  19.239   6.570
 4734POPC   C3A61133  13.783  19.110   6.949
 4734POPC   C4A61134  13.614  19.373   7.266
 4734POPC   C1B61135  13.377  18.779   6.198
 4734POPC   C2B61136  13.442  19.062   6.547
 4734POPC   C3B61137  13.255  19.159   6.952
 4734POPC   C4B61138  13.362  18.925   7.302
 4735POPC   NC361139  30.115  29.539   5.544
 4735POPC   PO461140  30.436  29.155   5.113
 4735POPC   GL161141  30.457  29.170   5.603
 4735POPC   GL261142  30.569  29.513   5.769
 4735POPC   C1A61143  30.467  29.056   6.066
 4735POPC   D2A61144  30.452  28.843   6.494
 4735POPC   C3A61145  30.584  29.034   6.897
 4735POPC   C4A61146  30.386  29.081   7.305
 4735POPC   C1B61147  30.399  29.531   6.198
 4735POPC   C2B61148  30.592  29.485   6.603
 4735POPC   C3B61149  30.456  29.508   7.018
 4735POPC   C4B61150  30.699  29.516   7.391
 4736POPC   NC361151   1.800  43.742   5.473
 4736POPC   PO461152   2.178  44.302   5.506
 4736POPC   GL161153   2.093  43.954   5.821
 4736POPC   GL261154   1.751  44.034   5.904
 4736POPC   C1A61155   2.024  43.666   6.174
 4736POPC   D2A61156   2.011  43.427   6.568
 4736POPC   C3A61157   2.051  43.576   7.008
 4736POPC   C4A61158   1.847  43.670   7.430
 4736POPC   C1B61159   2.010  44.192   6.253
 4736POPC   C2B61160   2.011  43.962   6.638
 4736POPC   C3B61161   1.950  44.072   7.057
 4736POPC   C4B61162   2.122  44.401   7.248
 4737POPC   NC361163  38.287  37.314   5.042
 4737POPC   PO461164  38.648  37.752   5.412
 4737POPC   GL161165  38.716  37.776   5.839
 4737POPC   GL261166  38.740  38.136   5.847
 4737POPC   C1A61167  38.456  37.646   6.201
 4737POPC   D2A61168  38.238  37.674   6.599
 4737POPC   C3A61169  38.329  37.469   6.998
 4737POPC   C4A61170  38.198  37.532   7.440
 4737POPC   C1B61171  38.804  38.014   6.288
 4737POPC   C2B61172  38.747  37.747   6.653
 4737POPC   C3B61173  38.784  37.650   7.090
 4737POPC   C4B61174  38.672  37.933   7.400
 4738POPC   NC361175  43.727  20.986   5.124
 4738POPC   PO461176  43.890  21.568   5.384
 4738POPC   GL161177  44.028  21.531   5.784
 4738POPC   GL261178  43.882  21.231   5.792
 4738POPC   C1A61179  44.177  21.425   6.180
 4738POPC   D2A61180  44.163  21.582   6.594
 4738POPC   C3A61181  43.892  21.333   6.865
 4738POPC   C4A61182  44.047  21.427   7.254
 4738POPC   C1B61183  43.666  21.280   6.206
 4738POPC   C2B61184  43.568  21.038   6.564
 4738POPC   C3B61185  43.415  21.113   6.963
 4738POPC   C4B61186  43.545  21.349   7.295
 4739POPC   NC361187  29.231  29.389   5.391
 4739POPC   PO461188  29.043  28.680   5.442
 4739POPC   GL161189  29.062  28.999   5.755
 4739POPC   GL261190  29.398  29.107   5.775
 4739POPC   C1A61191  29.076  28.913   6.188
 4739POPC   D2A61192  28.882  29.059   6.576
 4739POPC   C3A61193  29.129  28.967   6.898
 4739POPC   C4A61194  29.081  29.095   7.306
 4739POPC   C1B61195  29.462  29.327   6.183
 4739POPC   C2B61196  29.596  29.197   6.629
 4739POPC   C3B61197  29.509  29.242   7.102
 4739POPC   C4B61198  29.535  29.127   7.576
 4740POPC   NC361199  39.334  41.779   5.438
 4740POPC   PO461200  39.565  41.124   5.290
 4740POPC   GL161201  39.265  41.331   5.698
 4740POPC   GL261202  38.940  41.157   5.763
 4740POPC   C1A61203  39.208  41.599   6.123
 4740POPC   D2A61204  38.945  41.720   6.516
 4740POPC   C3A61205  39.120  41.672   6.950
 4740POPC   C4A61206  39.418  41.903   7.205
 4740POPC   C1B61207  38.939  41.188   6.231
 4740POPC   C2B61208  39.237  41.271   6.587
 4740POPC   C3B61209  39.295  41.155   7.022
 4740POPC   C4B61210  39.151  41.374   7.397
 4741POPC   NC361211  39.135  15.168   5.167
 4741POPC   PO461212  39.601  15.479   5.505
 4741POPC   GL161213  39.357  15.372   5.862
 4741POPC   GL261214  39.034  15.209   5.693
 4741POPC   C1A61215  39.392  15.321   6.281
 4741POPC   D2A61216  39.637  15.396   6.624
 4741POPC   C3A61217  39.414  15.175   6.884
 4741POPC   C4A61218  39.609  15.092   7.213
 4741POPC   C1B61219  38.952  15.038   6.099
 4741POPC   C2B61220  38.912  15.137   6.536
 4741POPC   C3B61221  38.797  15.182   6.978
 4741POPC   C4B61222  39.092  15.030   7.280
 4742POPC   NC361223  14.024   8.700   5.375
 4742POPC   PO461224  14.593   9.161   5.312
 4742POPC   GL161225  14.654   8.955   5.698
 4742POPC   GL261226  14.305   8.889   5.789
 4742POPC   C1A61227  14.655   9.097   6.136
 4742POPC   D2A61228  14.360   8.922   6.463
 4742POPC   C3A61229  14.498   8.984   6.876
 4742POPC   C4A61230  14.585   9.331   7.146
 4742POPC   C1B61231  14.541   8.608   6.087
 4742POPC   C2B61232  14.453   8.394   6.497
 4742POPC   C3B61233  14.179   8.562   6.806
 4742POPC   C4B61234  14.177   8.850   7.217
 4743POPC   NC361235  23.232   2.708   5.379
 4743POPC   PO461236  22.804   3.237   5.318
 4743POPC   GL161237  22.798   2.851   5.668
 4743POPC   GL261238  23.112   2.844   5.878
 4743POPC   C1A61239  22.715   2.622   6.110
 4743POPC   D2A61240  23.001   2.507   6.492
 4743POPC   C3A61241  22.983   2.779   6.869
 4743POPC   C4A61242  22.856   2.752   7.297
 4743POPC   C1B61243  22.995   3.002   6.314
 4743POPC   C2B61244  22.856   3.270   6.689
 4743POPC   C3B61245  22.709   3.230   7.138
 4743POPC   C4B61246  22.748   3.149   7.605
 4744POPC   NC361247   0.843   4.370   5.258
 4744POPC   PO461248   1.412   4.240   5.522
 4744POPC   GL161249   1.133   4.474   5.744
 4744POPC   GL261250   0.789   4.421   5.775
 4744POPC   C1A61251   1.110   4.409   6.182
 4744POPC   D2A61252   1.113   4.575   6.565
 4744POPC   C3A61253   1.497   4.451   6.759
 4744POPC   C4A61254   1.515   4.540   7.164
 4744POPC   C1B61255   0.698   4.134   6.170
 4744POPC   C2B61256   0.913   4.112   6.599
 4744POPC   C3B61257   1.073   4.278   7.014
 4744POPC   C4B61258   1.063   4.476   7.440
 4745POPC   NC361259   9.586  33.459   5.438
 4745POPC   PO461260   9.820  34.079   5.488
 4745POPC   GL161261   9.574  33.900   5.806
 4745POPC   GL261262   9.794  33.623   5.893
 4745POPC   C1A61263   9.338  33.697   6.149
 4745POPC   D2A61264   9.154  33.708   6.567
 4745POPC   C3A61265   9.454  33.807   6.892
 4745POPC   C4A61266   9.579  33.637   7.276
 4745POPC   C1B61267  10.122  33.650   6.207
 4745POPC   C2B61268  10.261  33.701   6.633
 4745POPC   C3B61269   9.979  33.725   6.956
 4745POPC   C4B61270  10.074  33.711   7.371
 4746POPC   NC361271  25.786  27.611   5.121
 4746POPC   PO461272  26.287  27.354   5.551
 4746POPC   GL161273  26.169  27.420   5.935
 4746POPC   GL261274  26.225  27.782   5.937
 4746POPC   C1A61275  25.973  27.546   6.311
 4746POPC   D2A61276  25.882  27.596   6.724
 4746POPC   C3A61277  25.921  27.283   6.992
 4746POPC   C4A61278  26.013  27.271   7.433
 4746POPC   C1B61279  26.489  28.005   6.257
 4746POPC   C2B61280  26.534  28.127   6.698
 4746POPC   C3B61281  26.406  27.969   7.109
 4746POPC   C4B61282  26.028  27.736   7.212
 4747POPC   NC361283  35.160  43.464   5.310
 4747POPC   PO461284  35.789  43.275   5.376
 4747POPC   GL161285  35.425  43.323   5.710
 4747POPC   GL261286  35.248  43.000   5.847
 4747POPC   C1A61287  35.345  43.400   6.151
 4747POPC   D2A61288  35.539  43.305   6.556
 4747POPC   C3A61289  35.262  43.070   6.834
 4747POPC   C4A61290  35.245  43.126   7.264
 4747POPC   C1B61291  35.550  42.932   6.209
 4747POPC   C2B61292  35.668  42.809   6.645
 4747POPC   C3B61293  35.604  42.691   7.083
 4747POPC   C4B61294  35.522  42.754   7.531
 4748POPC   NC361295  25.457  12.448   5.427
 4748POPC   PO461296  25.103  11.860   5.286
 4748POPC   GL161297  25.361  12.002   5.672
 4748POPC   GL261298  25.708  11.839   5.699
 4748POPC   C1A61299  25.382  12.239   6.074
 4748POPC   D2A61300  25.190  12.381   6.480
 4748POPC   C3A61301  24.946  12.120   6.804
 4748POPC   C4A61302  24.996  12.202   7.271
 4748POPC   C1B61303  25.502  11.668   6.077
 4748POPC   C2B61304  25.377  11.889   6.468
 4748POPC   C3B61305  25.444  12.142   6.856
 4748POPC   C4B61306  25.415  11.922   7.262
 4749POPC   NC361307  15.118  37.999   5.437
 4749POPC   PO461308  14.763  37.378   5.401
 4749POPC   GL161309  15.089  37.549   5.777
 4749POPC   GL261310  15.262  37.860   5.910
 4749POPC   C1A61311  15.385  37.411   6.142
 4749POPC   D2A61312  15.293  37.386   6.602
 4749POPC   C3A61313  15.056  37.648   6.884
 4749POPC   C4A61314  15.125  37.685   7.310
 4749POPC   C1B61315  15.218  37.848   6.357
 4749POPC   C2B61316  15.216  38.091   6.728
 4749POPC   C3B61317  15.416  38.059   7.134
 4749POPC   C4B61318  15.351  38.024   7.613
 4750POPC   NC361319  30.432  20.154   5.243
 4750POPC   PO461320  30.935  19.870   5.469
 4750POPC   GL161321  30.930  20.139   5.791
 4750POPC   GL261322  30.574  20.239   5.780
 4750POPC   C1A61323  30.952  19.855   6.155
 4750POPC   D2A61324  30.795  19.838   6.570
 4750POPC   C3A61325  30.838  19.560   6.884
 4750POPC   C4A61326  30.858  19.887   7.139
 4750POPC   C1B61327  30.477  20.056   6.200
 4750POPC   C2B61328  30.288  19.815   6.554
 4750POPC   C3B61329  30.388  19.813   6.980
 4750POPC   C4B61330  30.301  20.016   7.384
 4751POPC   NC361331   9.140   8.497   5.423
 4751POPC   PO461332   8.835   7.952   5.618
 4751POPC   GL161333   8.930   8.337   5.852
 4751POPC   GL261334   8.609   8.365   5.904
 4751POPC   C1A61335   8.933   8.490   6.281
 4751POPC   D2A61336   9.170   8.153   6.458
 4751POPC   C3A61337   9.198   8.034   6.881
 4751POPC   C4A61338   9.304   8.278   7.199
 4751POPC   C1B61339   8.727   8.011   6.251
 4751POPC   C2B61340   8.680   8.010   6.708
 4751POPC   C3B61341   8.774   8.292   7.059
 4751POPC   C4B61342   8.808   8.309   7.501
 4752POPC   NC361343  38.036  13.836   5.186
 4752POPC   PO461344  37.474  13.491   5.371
 4752POPC   GL161345  37.521  13.572   5.796
 4752POPC   GL261346  37.728  13.351   5.860
 4752POPC   C1A61347  37.548  13.745   6.204
 4752POPC   D2A61348  37.786  13.840   6.577
 4752POPC   C3A61349  37.546  13.740   6.927
 4752POPC   C4A61350  37.527  13.905   7.333
 4752POPC   C1B61351  37.515  13.196   6.206
 4752POPC   C2B61352  37.700  13.330   6.591
 4752POPC   C3B61353  37.940  13.415   6.947
 4752POPC   C4B61354  37.702  13.405   7.309
 4753POPC   NC361355  15.566  26.300   5.464
 4753POPC   PO461356  15.410  25.666   5.421
 4753POPC   GL161357  15.368  25.990   5.809
 4753POPC   GL261358  15.051  26.226   5.838
 4753POPC   C1A61359  15.303  26.041   6.266
 4753POPC   D2A61360  14.918  25.918   6.515
 4753POPC   C3A61361  15.000  25.958   6.950
 4753POPC   C4A61362  15.355  26.160   7.174
 4753POPC   C1B61363  14.900  26.363   6.245
 4753POPC   C2B61364  15.112  26.377   6.640
 4753POPC   C3B61365  14.942  26.461   7.016
 4753POPC   C4B61366  14.920  26.278   7.397
 4754POPC   NC361367  35.356  10.240   5.313
 4754POPC   PO461368  34.902  10.725   5.496
 4754POPC   GL161369  35.096  10.601   5.878
 4754POPC   GL261370  35.430  10.452   5.826
 4754POPC   C1A61371  35.216  10.523   6.307
 4754POPC   D2A61372  35.554  10.269   6.493
 4754POPC   C3A61373  35.487  10.206   6.930
 4754POPC   C4A61374  35.259  10.450   7.240
 4754POPC   C1B61375  35.689  10.671   6.178
 4754POPC   C2B61376  35.743  10.791   6.601
 4754POPC   C3B61377  35.642  10.698   7.009
 4754POPC   C4B61378  35.755  10.544   7.398
 4755POPC   NC361379  18.627   5.894   5.471
 4755POPC   PO461380  19.227   5.641   5.162
 4755POPC   GL161381  19.254   5.824   5.636
 4755POPC   GL261382  18.947   5.820   5.850
 4755POPC   C1A61383  19.362   5.925   6.104
 4755POPC   D2A61384  19.035   5.902   6.442
 4755POPC   C3A61385  19.184   5.875   6.861
 4755POPC   C4A61386  19.108   6.112   7.230
 4755POPC   C1B61387  18.619   5.674   6.142
 4755POPC   C2B61388  18.603   5.559   6.569
 4755POPC   C3B61389  18.750   5.611   6.985
 4755POPC   C4B61390  18.683   5.389   7.343
 4756POPC   NC361391  21.537  22.121   5.481
 4756POPC   PO461392  22.128  21.930   5.593
 4756POPC   GL161393  22.130  22.309   5.793
 4756POPC   GL261394  22.461  22.447   5.683
 4756POPC   C1A61395  21.945  22.334   6.210
 4756POPC   D2A61396  22.012  22.165   6.617
 4756POPC   C3A61397  22.048  22.283   7.020
 4756POPC   C4A61398  22.302  21.944   7.110
 4756POPC   C1B61399  22.422  22.565   6.140
 4756POPC   C2B61400  22.478  22.357   6.536
 4756POPC   C3B61401  22.468  22.535   6.915
 4756POPC   C4B61402  22.479  22.391   7.284
 4757POPC   NC361403   6.611  28.778   5.613
 4757POPC   PO461404   6.228  29.177   5.250
 4757POPC   GL161405   6.605  29.282   5.674
 4757POPC   GL261406   6.618  29.033   6.041
 4757POPC   C1A61407   6.972  29.372   6.002
 4757POPC   D2A61408   7.030  29.207   6.429
 4757POPC   C3A61409   7.036  29.242   6.916
 4757POPC   C4A61410   6.626  29.249   7.129
 4757POPC   C1B61411   6.402  28.611   6.242
 4757POPC   C2B61412   6.154  28.592   6.621
 4757POPC   C3B61413   6.378  28.810   6.937
 4757POPC   C4B61414   6.443  28.744   7.365
 4758POPC   NC361415   2.411   6.624   5.489
 4758POPC   PO461416   2.966   6.331   5.375
 4758POPC   GL161417   2.863   6.572   5.792
 4758POPC   GL261418   2.522   6.724   5.978
 4758POPC   C1A61419   2.832   6.420   6.212
 4758POPC   D2A61420   2.674   6.662   6.535
 4758POPC   C3A61421   2.699   6.580   6.972
 4758POPC   C4A61422   2.666   6.801   7.341
 4758POPC   C1B61423   2.317   6.392   6.224
 4758POPC   C2B61424   2.389   6.230   6.626
 4758POPC   C3B61425   2.228   6.356   7.011
 4758POPC   C4B61426   2.446   6.298   7.368
 4759POPC   NC361427   1.462   1.857   5.361
 4759POPC   PO461428   0.829   1.691   5.655
 4759POPC   GL161429   1.208   1.848   5.833
 4759POPC   GL261430   1.466   2.111   5.803
 4759POPC   C1A61431   1.214   1.909   6.268
 4759POPC   D2A61432   1.181   1.722   6.665
 4759POPC   C3A61433   1.217   2.010   6.979
 4759POPC   C4A61434   1.007   2.105   7.319
 4759POPC   C1B61435   1.638   2.179   6.187
 4759POPC   C2B61436   1.484   2.228   6.580
 4759POPC   C3B61437   1.662   2.280   6.942
 4759POPC   C4B61438   1.471   2.333   7.315
 4760POPC   NC361439  18.977  42.729   5.117
 4760POPC   PO461440  18.592  43.245   5.429
 4760POPC   GL161441  18.287  43.243   5.777
 4760POPC   GL261442  18.261  42.902   5.848
 4760POPC   C1A61443  18.084  43.196   6.224
 4760POPC   D2A61444  18.138  42.873   6.582
 4760POPC   C3A61445  17.978  42.940   6.975
 4760POPC   C4A61446  18.061  43.137   7.341
 4760POPC   C1B61447  18.542  42.978   6.219
 4760POPC   C2B61448  18.630  42.827   6.624
 4760POPC   C3B61449  18.487  43.007   7.026
 4760POPC   C4B61450  18.694  42.928   7.420
 4761POPC   NC361451  42.120  24.183   5.528
 4761POPC   PO461452  42.631  24.599   5.298
 4761POPC   GL161453  42.432  24.519   5.722
 4761POPC   GL261454  42.074  24.674   5.685
 4761POPC   C1A61455  42.458  24.389   6.180
 4761POPC   D2A61456  42.252  24.213   6.544
 4761POPC   C3A61457  42.488  24.110   6.874
 4761POPC   C4A61458  42.600  24.441   7.098
 4761POPC   C1B61459  41.973  24.515   6.108
 4761POPC   C2B61460  41.973  24.656   6.553
 4761POPC   C3B61461  42.083  24.506   6.962
 4761POPC   C4B61462  42.143  24.190   7.271
 4762POPC   NC361463  41.006  14.747   5.366
 4762POPC   PO461464  41.498  15.266   5.356
 4762POPC   GL161465  41.617  15.296   5.808
 4762POPC   GL261466  41.575  15.623   5.854
 4762POPC   C1A61467  41.476  15.057   6.220
 4762POPC   D2A61468  41.080  15.157   6.477
 4762POPC   C3A61469  41.167  15.108   6.928
 4762POPC   C4A61470  41.617  15.068   7.117
 4762POPC   C1B61471  41.437  15.550   6.266
 4762POPC   C2B61472  41.527  15.387   6.687
 4762POPC   C3B61473  41.641  15.576   7.104
 4762POPC   C4B61474  41.894  15.455   7.470
 4763POPC   NC361475   9.342  21.324   5.438
 4763POPC   PO461476  10.074  21.569   5.469
 4763POPC   GL161477   9.979  21.506   5.879
 4763POPC   GL261478   9.635  21.383   5.860
 4763POPC   C1A61479   9.891  21.366   6.292
 4763POPC   D2A61480   9.566  21.485   6.561
 4763POPC   C3A61481   9.729  21.601   6.934
 4763POPC   C4A61482   9.849  21.256   7.115
 4763POPC   C1B61483   9.406  21.135   6.164
 4763POPC   C2B61484   9.270  21.064   6.592
 4763POPC   C3B61485   9.456  20.943   6.961
 4763POPC   C4B61486   9.422  21.085   7.333
 4764POPC   NC361487   0.423  29.107   5.368
 4764POPC   PO461488  44.934  29.736   5.457
 4764POPC   GL161489   0.115  29.364   5.733
 4764POPC   GL261490   0.235  28.978   5.823
 4764POPC   C1A61491   0.352  29.443   6.135
 4764POPC   D2A61492   0.263  29.594   6.548
 4764POPC   C3A61493   0.360  29.338   6.911
 4764POPC   C4A61494   0.395  29.102   7.272
 4764POPC   C1B61495   0.618  29.011   6.121
 4764POPC   C2B61496   0.686  29.228   6.526
 4764POPC   C3B61497   0.809  29.091   6.958
 4764POPC   C4B61498   0.898  28.697   7.169
 4765POPC   NC361499  17.006   3.370   5.565
 4765POPC   PO461500  17.439   3.894   5.425
 4765POPC   GL161501  17.716   3.778   5.786
 4765POPC   GL261502  17.782   3.386   5.824
 4765POPC   C1A61503  17.671   3.894   6.223
 4765POPC   D2A61504  17.629   3.615   6.576
 4765POPC   C3A61505  17.708   3.698   7.002
 4765POPC   C4A61506  17.837   3.331   7.243
 4765POPC   C1B61507  17.400   3.456   6.119
 4765POPC   C2B61508  17.142   3.628   6.488
 4765POPC   C3B61509  17.229   3.486   6.917
 4765POPC   C4B61510  17.370   3.557   7.362
 4766POPC   NC361511  27.715   6.379   5.485
 4766POPC   PO461512  27.841   7.015   5.556
 4766POPC   GL161513  27.634   6.831   5.882
 4766POPC   GL261514  27.453   6.541   5.887
 4766POPC   C1A61515  27.541   6.937   6.286
 4766POPC   D2A61516  27.687   6.681   6.598
 4766POPC   C3A61517  27.456   6.601   6.987
 4766POPC   C4A61518  27.482   6.833   7.394
 4766POPC   C1B61519  27.810   6.390   6.153
 4766POPC   C2B61520  27.998   6.271   6.550
 4766POPC   C3B61521  27.840   6.157   6.939
 4766POPC   C4B61522  27.649   6.294   7.329
 4767POPC   NC361523  22.710   0.178   5.415
 4767POPC   PO461524  23.109   0.767   5.362
 4767POPC   GL161525  22.893   0.770   5.752
 4767POPC   GL261526  22.911   0.411   5.803
 4767POPC   C1A61527  22.929   0.698   6.208
 4767POPC   D2A61528  22.706   0.584   6.561
 4767POPC   C3A61529  22.923   0.610   6.924
 4767POPC   C4A61530  22.762   0.761   7.276
 4767POPC   C1B61531  22.755   0.194   6.175
 4767POPC   C2B61532  22.868   0.105   6.601
 4767POPC   C3B61533  22.656   0.178   6.974
 4767POPC   C4B61534  22.949   0.189   7.272
 4768POPC   NC361535   0.079   1.451   5.565
 4768POPC   PO461536  44.553   1.144   5.189
 4768POPC   GL161537  44.518   1.238   5.604
 4768POPC   GL261538  44.638   0.988   5.766
 4768POPC   C1A61539  44.351   1.276   6.069
 4768POPC   D2A61540  44.345   1.469   6.474
 4768POPC   C3A61541  44.369   1.209   6.857
 4768POPC   C4A61542  44.384   1.384   7.248
 4768POPC   C1B61543  44.794   1.030   6.202
 4768POPC   C2B61544  44.838   1.093   6.644
 4768POPC   C3B61545  44.868   1.297   7.031
 4768POPC   C4B61546   0.177   1.602   7.052
 4769POPC   NC361547  26.726   0.874   5.507
 4769POPC   PO461548  26.950   0.333   5.501
 4769POPC   GL161549  26.860   0.505   5.845
 4769POPC   GL261550  26.782   0.196   5.984
 4769POPC   C1A61551  26.779   0.777   6.164
 4769POPC   D2A61552  26.906   0.749   6.558
 4769POPC   C3A61553  26.677   0.564   6.891
 4769POPC   C4A61554  26.511   0.428   7.252
 4769POPC   C1B61555  27.118   0.392   6.279
 4769POPC   C2B61556  27.084   0.289   6.719
 4769POPC   C3B61557  27.135   0.440   7.122
 4769POPC   C4B61558  26.939   0.301   7.506
 4770POPC   NC361559  30.760  34.481   5.265
 4770POPC   PO461560  30.206  34.854   5.576
 4770POPC   GL161561  30.579  34.710   5.712
 4770POPC   GL261562  30.547  34.352   5.732
 4770POPC   C1A61563  30.672  34.629   6.151
 4770POPC   D2A61564  30.403  34.744   6.503
 4770POPC   C3A61565  30.649  34.712   6.875
 4770POPC   C4A61566  30.717  34.563   7.278
 4770POPC   C1B61567  30.510  34.146   6.139
 4770POPC   C2B61568  30.625  34.269   6.565
 4770POPC   C3B61569  30.647  34.136   7.007
 4770POPC   C4B61570  30.920  34.110   7.420
 4771POPC   NC361571  10.209  32.082   5.671
 4771POPC   PO461572  10.539  32.475   5.144
 4771POPC   GL161573  10.619  32.416   5.639
 4771POPC   GL261574  10.679  32.082   5.822
 4771POPC   C1A61575  10.490  32.482   6.121
 4771POPC   D2A61576  10.259  32.427   6.529
 4771POPC   C3A61577  10.478  32.560   6.901
 4771POPC   C4A61578  10.483  32.547   7.337
 4771POPC   C1B61579  10.611  31.955   6.266
 4771POPC   C2B61580  10.673  32.116   6.691
 4771POPC   C3B61581  10.546  32.077   7.140
 4771POPC   C4B61582  10.666  32.152   7.589
 4772POPC   NC361583  28.402  43.705   5.437
 4772POPC   PO461584  28.119  44.317   5.440
 4772POPC   GL161585  28.101  44.042   5.744
 4772POPC   GL261586  28.452  44.077   5.769
 4772POPC   C1A61587  28.108  43.893   6.163
 4772POPC   D2A61588  28.388  43.710   6.474
 4772POPC   C3A61589  28.263  43.863   6.852
 4772POPC   C4A61590  28.338  43.810   7.247
 4772POPC   C1B61591  28.600  44.077   6.153
 4772POPC   C2B61592  28.461  44.233   6.543
 4772POPC   C3B61593  28.643  44.186   6.966
 4772POPC   C4B61594  28.712  44.213   7.387
 4773POPC   NC361595  23.493   4.572   5.425
 4773POPC   PO461596  24.130   4.318   5.381
 4773POPC   GL161597  23.907   4.510   5.758
 4773POPC   GL261598  23.657   4.243   5.833
 4773POPC   C1A61599  23.770   4.572   6.218
 4773POPC   D2A61600  23.527   4.393   6.603
 4773POPC   C3A61601  23.752   4.549   6.967
 4773POPC   C4A61602  24.162   4.713   6.876
 4773POPC   C1B61603  23.984   4.114   6.183
 4773POPC   C2B61604  24.028   4.241   6.639
 4773POPC   C3B61605  23.925   4.079   7.065
 4773POPC   C4B61606  23.480   4.147   7.176
 4774POPC   NC361607  22.624  40.906   5.302
 4774POPC   PO461608  22.022  40.628   5.415
 4774POPC   GL161609  22.247  40.671   5.810
 4774POPC   GL261610  22.448  40.389   5.794
 4774POPC   C1A61611  22.132  40.916   6.230
 4774POPC   D2A61612  21.915  40.915   6.646
 4774POPC   C3A61613  22.079  40.999   7.076
 4774POPC   C4A61614  22.290  40.731   7.372
 4774POPC   C1B61615  22.561  40.633   6.201
 4774POPC   C2B61616  22.641  40.924   6.535
 4774POPC   C3B61617  22.534  40.740   6.926
 4774POPC   C4B61618  22.530  40.317   7.124
 4775POPC   NC361619  44.621   6.140   5.374
 4775POPC   PO461620  44.707   5.529   5.272
 4775POPC   GL161621  44.489   5.734   5.682
 4775POPC   GL261622  44.722   5.977   5.862
 4775POPC   C1A61623  44.358   5.666   6.148
 4775POPC   D2A61624  44.177   5.579   6.584
 4775POPC   C3A61625  44.446   5.767   6.899
 4775POPC   C4A61626  44.570   5.646   7.297
 4775POPC   C1B61627  44.903   5.715   6.193
 4775POPC   C2B61628  44.904   5.836   6.625
 4775POPC   C3B61629   0.019   5.662   7.010
 4775POPC   C4B61630   0.025   5.475   7.421
 4776POPC   NC361631  36.399   2.300   5.472
 4776POPC   PO461632  36.052   2.826   5.190
 4776POPC   GL161633  36.001   2.880   5.671
 4776POPC   GL261634  36.034   2.551   5.820
 4776POPC   C1A61635  35.912   2.964   6.153
 4776POPC   D2A61636  36.001   2.881   6.630
 4776POPC   C3A61637  35.861   2.863   7.093
 4776POPC   C4A61638  36.008   2.973   7.530
 4776POPC   C1B61639  36.234   2.556   6.240
 4776POPC   C2B61640  36.418   2.540   6.650
 4776POPC   C3B61641  36.322   2.672   7.035
 4776POPC   C4B61642  36.105   2.498   7.376
 4777POPC   NC361643  44.736  44.048   5.374
 4777POPC   PO461644  44.277  43.628   5.433
 4777POPC   GL161645  44.501  43.779   5.785
 4777POPC   GL261646  44.863  43.673   5.743
 4777POPC   C1A61647  44.550  43.772   6.228
 4777POPC   D2A61648  44.548  43.529   6.582
 4777POPC   C3A61649  44.695  43.809   6.864
 4777POPC   C4A61650  44.572  43.793   7.261
 4777POPC   C1B61651  44.916  44.041   6.013
 4777POPC   C2B61652  44.854  44.157   6.432
 4777POPC   C3B61653  44.814  44.317   6.839
 4777POPC   C4B61654  44.852  44.215   7.237
 4778POPC   NC361655   4.956  32.548   5.336
 4778POPC   PO461656   4.748  33.225   5.387
 4778POPC   GL161657   5.013  33.107   5.782
 4778POPC   GL261658   5.106  32.737   5.818
 4778POPC   C1A61659   5.305  33.258   6.138
 4778POPC   D2A61660   5.537  33.365   6.511
 4778POPC   C3A61661   5.384  33.416   6.900
 4778POPC   C4A61662   5.064  33.326   7.157
 4778POPC   C1B61663   5.098  32.819   6.286
 4778POPC   C2B61664   5.275  32.910   6.697
 4778POPC   C3B61665   5.194  32.824   7.133
 4778POPC   C4B61666   5.007  32.976   7.529
 4779POPC   NC361667  11.939  41.322   5.361
 4779POPC   PO461668  11.872  41.875   5.060
 4779POPC   GL161669  11.998  41.822   5.540
 4779POPC   GL261670  11.789  41.606   5.770
 4779POPC   C1A61671  12.269  41.631   5.919
 4779POPC   D2A61672  12.258  41.509   6.386
 4779POPC   C3A61673  12.308  41.412   6.846
 4779POPC   C4A61674  12.269  41.677   7.216
 4779POPC   C1B61675  11.959  41.249   6.055
 4779POPC   C2B61676  11.933  41.131   6.520
 4779POPC   C3B61677  11.816  41.303   6.916
 4779POPC   C4B61678  11.984  41.224   7.346
 4780POPC   NC361679  12.860  36.956   5.116
 4780POPC   PO461680  12.612  36.702   5.687
 4780POPC   GL161681  12.936  36.960   5.816
 4780POPC   GL261682  12.781  37.295   5.782
 4780POPC   C1A61683  13.054  37.152   6.210
 4780POPC   D2A61684  13.192  37.313   6.568
 4780POPC   C3A61685  13.005  37.077   6.847
 4780POPC   C4A61686  13.021  37.204   7.206
 4780POPC   C1B61687  12.536  37.136   6.145
 4780POPC   C2B61688  12.695  36.867   6.489
 4780POPC   C3B61689  12.592  36.757   6.935
 4780POPC   C4B61690  12.644  36.922   7.355
 4781POPC   NC361691  12.721  34.792   4.969
 4781POPC   PO461692  12.742  34.221   5.321
 4781POPC   GL161693  12.922  34.489   5.625
 4781POPC   GL261694  12.630  34.435   5.810
 4781POPC   C1A61695  13.055  34.445   6.102
 4781POPC   D2A61696  13.038  34.625   6.542
 4781POPC   C3A61697  13.069  34.423   6.975
 4781POPC   C4A61698  12.954  34.688   7.370
 4781POPC   C1B61699  12.538  34.551   6.219
 4781POPC   C2B61700  12.597  34.346   6.617
 4781POPC   C3B61701  12.602  34.622   6.965
 4781POPC   C4B61702  12.421  34.620   7.363
 4782POPC   NC361703  18.731  25.577   5.580
 4782POPC   PO461704  19.156  25.097   5.473
 4782POPC   GL161705  19.147  25.139   5.877
 4782POPC   GL261706  19.435  24.925   5.926
 4782POPC   C1A61707  19.029  25.453   6.212
 4782POPC   D2A61708  19.079  25.696   6.583
 4782POPC   C3A61709  18.914  25.517   6.949
 4782POPC   C4A61710  19.058  25.452   7.351
 4782POPC   C1B61711  19.312  24.965   6.326
 4782POPC   C2B61712  19.091  25.134   6.643
 4782POPC   C3B61713  19.154  25.033   7.059
 4782POPC   C4B61714  19.387  25.057   7.465
 4783POPC   NC361715  44.489   3.433   5.542
 4783POPC   PO461716  43.873   3.663   5.427
 4783POPC   GL161717  43.966   3.441   5.822
 4783POPC   GL261718  44.182   3.685   5.865
 4783POPC   C1A61719  44.094   3.392   6.317
 4783POPC   D2A61720  44.136   3.308   6.813
 4783POPC   C3A61721  43.784   3.306   7.162
 4783POPC   C4A61722  43.655   3.095   7.586
 4783POPC   C1B61723  43.817   3.797   6.161
 4783POPC   C2B61724  43.773   3.688   6.618
 4783POPC   C3B61725  44.005   3.759   7.020
 4783POPC   C4B61726  43.944   3.747   7.438
 4784POPC   NC361727  37.264  15.717   5.611
 4784POPC   PO461728  37.793  15.976   5.152
 4784POPC   GL161729  37.665  16.003   5.673
 4784POPC   GL261730  37.928  16.064   5.912
 4784POPC   C1A61731  37.488  16.075   6.141
 4784POPC   D2A61732  37.788  16.228   6.490
 4784POPC   C3A61733  37.779  16.171   6.961
 4784POPC   C4A61734  37.440  15.931   7.141
 4784POPC   C1B61735  37.885  15.757   6.266
 4784POPC   C2B61736  37.685  15.757   6.682
 4784POPC   C3B61737  37.796  15.583   7.106
 4784POPC   C4B61738  37.617  15.597   7.530
 4785POPC   NC361739   9.906  21.989   5.329
 4785POPC   PO461740   9.271  21.788   5.300
 4785POPC   GL161741   9.535  21.851   5.666
 4785POPC   GL261742   9.407  22.154   5.769
 4785POPC   C1A61743   9.813  21.971   6.036
 4785POPC   D2A61744   9.936  21.849   6.463
 4785POPC   C3A61745  10.065  22.120   6.790
 4785POPC   C4A61746   9.895  22.115   7.197
 4785POPC   C1B61747   9.450  22.384   6.149
 4785POPC   C2B61748   9.654  22.301   6.526
 4785POPC   C3B61749   9.518  22.055   6.852
 4785POPC   C4B61750   9.364  22.218   7.219
 4786POPC   NC361751  43.826   2.727   5.282
 4786POPC   PO461752  44.283   2.542   5.731
 4786POPC   GL161753  43.831   2.594   5.806
 4786POPC   GL261754  43.809   2.944   5.804
 4786POPC   C1A61755  43.749   2.594   6.252
 4786POPC   D2A61756  44.075   2.440   6.546
 4786POPC   C3A61757  44.073   2.736   6.859
 4786POPC   C4A61758  44.015   2.862   7.283
 4786POPC   C1B61759  43.651   3.151   6.175
 4786POPC   C2B61760  43.723   3.068   6.619
 4786POPC   C3B61761  43.589   2.874   6.994
 4786POPC   C4B61762  43.722   2.456   7.130
 4787POPC   NC361763  41.542  23.828   5.285
 4787POPC   PO461764  41.465  23.295   5.644
 4787POPC   GL161765  41.591  23.561   5.924
 4787POPC   GL261766  41.779  23.801   5.747
 4787POPC   C1A61767  41.660  23.621   6.351
 4787POPC   D2A61768  41.694  23.386   6.719
 4787POPC   C3A61769  41.471  23.460   7.083
 4787POPC   C4A61770  41.846  23.371   7.341
 4787POPC   C1B61771  41.623  24.052   6.085
 4787POPC   C2B61772  41.754  24.190   6.461
 4787POPC   C3B61773  41.847  24.063   6.858
 4787POPC   C4B61774  41.750  23.856   7.228
 4788POPC   NC361775  15.229  15.895   5.353
 4788POPC   PO461776  14.734  15.595   5.561
 4788POPC   GL161777  15.051  15.879   5.905
 4788POPC   GL261778  15.374  16.092   5.843
 4788POPC   C1A61779  15.091  16.057   6.374
 4788POPC   D2A61780  15.304  16.105   6.812
 4788POPC   C3A61781  15.041  16.050   7.200
 4788POPC   C4A61782  15.106  16.032   7.679
 4788POPC   C1B61783  15.570  15.992   6.264
 4788POPC   C2B61784  15.448  15.661   6.601
 4788POPC   C3B61785  15.336  15.637   7.062
 4788POPC   C4B61786  15.510  15.892   7.391
 4789POPC   NC361787   3.080  11.650   5.610
 4789POPC   PO461788   2.720  11.076   5.360
 4789POPC   GL161789   2.820  11.248   5.816
 4789POPC   GL261790   3.187  11.257   5.927
 4789POPC   C1A61791   2.744  11.362   6.243
 4789POPC   D2A61792   2.724  11.101   6.612
 4789POPC   C3A61793   2.500  11.280   6.935
 4789POPC   C4A61794   2.657  11.446   7.319
 4789POPC   C1B61795   3.275  11.419   6.313
 4789POPC   C2B61796   3.079  11.747   6.526
 4789POPC   C3B61797   2.925  11.642   6.918
 4789POPC   C4B61798   3.163  11.486   7.270
 4790POPC   NC361799  23.257   1.789   5.773
 4790POPC   PO461800  23.078   2.282   5.433
 4790POPC   GL161801  22.969   2.238   5.858
 4790POPC   GL261802  23.275   2.349   5.982
 4790POPC   C1A61803  22.798   2.081   6.272
 4790POPC   D2A61804  22.589   1.837   6.627
 4790POPC   C3A61805  22.767   1.715   7.031
 4790POPC   C4A61806  22.654   1.916   7.414
 4790POPC   C1B61807  23.323   2.065   6.346
 4790POPC   C2B61808  23.076   1.984   6.713
 4790POPC   C3B61809  22.951   2.283   7.046
 4790POPC   C4B61810  23.296   2.476   7.327
 4791POPC   NC361811   1.942  17.151   5.566
 4791POPC   PO461812   1.742  16.515   5.394
 4791POPC   GL161813   1.971  16.665   5.772
 4791POPC   GL261814   1.823  16.942   5.998
 4791POPC   C1A61815   2.272  16.747   6.116
 4791POPC   D2A61816   2.098  16.909   6.495
 4791POPC   C3A61817   2.318  16.762   6.896
 4791POPC   C4A61818   2.078  16.707   7.288
 4791POPC   C1B61819   1.630  16.606   6.179
 4791POPC   C2B61820   1.592  16.537   6.623
 4791POPC   C3B61821   1.800  16.839   6.898
 4791POPC   C4B61822   1.697  17.047   7.292
 4792POPC   NC361823  40.685  25.507   5.465
 4792POPC   PO461824  41.245  25.113   5.317
 4792POPC   GL161825  40.889  25.067   5.690
 4792POPC   GL261826  40.900  25.396   5.907
 4792POPC   C1A61827  40.614  25.046   6.117
 4792POPC   D2A61828  40.547  25.273   6.529
 4792POPC   C3A61829  40.755  25.213   6.950
 4792POPC   C4A61830  41.092  25.197   7.285
 4792POPC   C1B61831  40.454  25.560   6.079
 4792POPC   C2B61832  40.337  25.746   6.482
 4792POPC   C3B61833  40.571  25.692   6.843
 4792POPC   C4B61834  40.288  25.526   7.079
 4793POPC   NC361835  22.226  25.147   5.373
 4793POPC   PO461836  21.772  25.490   5.155
 4793POPC   GL161837  22.141  25.453   5.728
 4793POPC   GL261838  22.317  25.140   5.856
 4793POPC   C1A61839  22.143  25.536   6.172
 4793POPC   D2A61840  22.106  25.731   6.572
 4793POPC   C3A61841  22.259  25.524   6.947
 4793POPC   C4A61842  22.077  25.377   7.323
 4793POPC   C1B61843  22.227  25.031   6.259
 4793POPC   C2B61844  22.411  25.102   6.654
 4793POPC   C3B61845  22.066  25.054   6.920
 4793POPC   C4B61846  21.955  24.801   7.250
 4794POPC   NC361847   7.559  38.753   5.481
 4794POPC   PO461848   7.197  38.155   5.422
 4794POPC   GL161849   7.362  38.192   5.807
 4794POPC   GL261850   7.222  38.543   5.823
 4794POPC   C1A61851   7.431  38.346   6.231
 4794POPC   D2A61852   7.581  38.623   6.514
 4794POPC   C3A61853   7.497  38.450   6.890
 4794POPC   C4A61854   7.612  38.504   7.319
 4794POPC   C1B61855   7.010  38.637   6.221
 4794POPC   C2B61856   7.008  38.487   6.651
 4794POPC   C3B61857   7.061  38.636   7.072
 4794POPC   C4B61858   7.146  38.618   7.488
 4795POPC   NC361859  34.118  24.541   5.328
 4795POPC   PO461860  33.498  24.731   5.250
 4795POPC   GL161861  33.766  24.636   5.703
 4795POPC   GL261862  34.119  24.770   5.789
 4795POPC   C1A61863  33.791  24.374   6.135
 4795POPC   D2A61864  33.679  24.126   6.530
 4795POPC   C3A61865  33.726  24.293   6.945
 4795POPC   C4A61866  33.549  24.666   7.133
 4795POPC   C1B61867  34.220  24.645   6.208
 4795POPC   C2B61868  34.036  24.512   6.607
 4795POPC   C3B61869  34.052  24.701   7.023
 4795POPC   C4B61870  33.826  25.091   7.192
 4796POPC   NC361871   0.621  23.551   5.263
 4796POPC   PO461872   1.223  23.909   5.344
 4796POPC   GL161873   1.056  24.019   5.769
 4796POPC   GL261874   1.416  24.067   5.927
 4796POPC   C1A61875   1.013  24.062   6.230
 4796POPC   D2A61876   1.351  23.918   6.489
 4796POPC   C3A61877   1.255  24.065   6.897
 4796POPC   C4A61878   0.947  23.944   7.171
 4796POPC   C1B61879   1.262  23.627   6.054
 4796POPC   C2B61880   1.240  23.370   6.442
 4796POPC   C3B61881   1.344  23.475   6.881
 4796POPC   C4B61882   1.450  23.268   7.266
 4797POPC   NC361883  24.428   3.928   5.455
 4797POPC   PO461884  24.788   4.365   5.082
 4797POPC   GL161885  24.688   4.386   5.598
 4797POPC   GL261886  24.613   4.744   5.733
 4797POPC   C1A61887  24.386   4.378   5.986
 4797POPC   D2A61888  24.316   4.607   6.371
 4797POPC   C3A61889  24.515   4.381   6.706
 4797POPC   C4A61890  24.400   4.317   7.124
 4797POPC   C1B61891  24.800   4.662   6.136
 4797POPC   C2B61892  24.978   4.593   6.529
 4797POPC   C3B61893  24.849   4.710   6.910
 4797POPC   C4B61894  24.873   4.554   7.282
 4798POPC   NC361895   1.306  37.988   5.540
 4798POPC   PO461896   0.938  37.512   5.258
 4798POPC   GL161897   0.998  37.595   5.707
 4798POPC   GL261898   0.833  37.925   5.780
 4798POPC   C1A61899   1.113  37.572   6.172
 4798POPC   D2A61900   1.019  37.736   6.620
 4798POPC   C3A61901   1.289  37.773   7.014
 4798POPC   C4A61902   1.353  37.504   7.411
 4798POPC   C1B61903   0.967  38.076   6.202
 4798POPC   C2B61904   0.999  38.275   6.635
 4798POPC   C3B61905   0.831  38.046   6.999
 4798POPC   C4B61906   0.974  37.884   7.393
 4799POPC   NC361907  15.579   8.574   5.478
 4799POPC   PO461908  14.941   8.370   5.422
 4799POPC   GL161909  15.083   8.210   5.824
 4799POPC   GL261910  15.247   7.872   5.858
 4799POPC   C1A61911  14.880   8.250   6.214
 4799POPC   D2A61912  14.833   8.007   6.573
 4799POPC   C3A61913  14.907   8.187   6.962
 4799POPC   C4A61914  15.169   8.174   7.344
 4799POPC   C1B61915  15.318   8.017   6.301
 4799POPC   C2B61916  15.325   7.970   6.748
 4799POPC   C3B61917  15.573   8.211   7.021
 4799POPC   C4B61918  15.634   7.975   7.385
 4800POPC   NC361919   5.939  11.531   5.534
 4800POPC   PO461920   5.644  10.976   5.696
 4800POPC   GL161921   5.857  11.214   5.961
 4800POPC   GL261922   6.201  11.291   5.920
 4800POPC   C1A61923   5.840  11.482   6.290
 4800POPC   D2A61924   5.526  11.582   6.574
 4800POPC   C3A61925   5.620  11.367   6.928
 4800POPC   C4A61926   6.021  11.378   7.129
 4800POPC   C1B61927   6.206  11.043   6.312
 4800POPC   C2B61928   6.099  10.952   6.767
 4800POPC   C3B61929   6.288  10.913   7.207
 4800POPC   C4B61930   6.420  10.872   7.649
 4801POPC   NC361931  40.617  39.533   5.535
 4801POPC   PO461932  40.327  39.086   5.221
 4801POPC   GL161933  40.452  39.061   5.708
 4801POPC   GL261934  40.796  39.039   5.778
 4801POPC   C1A61935  40.558  39.281   6.160
 4801POPC   D2A61936  40.873  39.312   6.510
 4801POPC   C3A61937  40.728  39.487   6.915
 4801POPC   C4A61938  40.532  39.280   7.255
 4801POPC   C1B61939  40.971  38.877   6.180
 4801POPC   C2B61940  41.173  38.849   6.609
 4801POPC   C3B61941  41.030  39.104   6.977
 4801POPC   C4B61942  41.109  39.224   7.407
 4802POPC   NC361943  24.432  43.507   5.400
 4802POPC   PO461944  24.650  42.833   5.401
 4802POPC   GL161945  24.606  43.135   5.798
 4802POPC   GL261946  24.315  43.363   5.878
 4802POPC   C1A61947  24.583  43.088   6.281
 4802POPC   D2A61948  24.679  42.953   6.732
 4802POPC   C3A61949  24.419  42.910   7.096
 4802POPC   C4A61950  24.600  43.046   7.461
 4802POPC   C1B61951  24.170  43.617   6.234
 4802POPC   C2B61952  24.041  43.703   6.668
 4802POPC   C3B61953  24.150  43.682   7.111
 4802POPC   C4B61954  24.187  43.330   7.392
 4803POPC   NC361955  21.528  40.645   5.530
 4803POPC   PO461956  20.931  40.900   5.429
 4803POPC   GL161957  21.235  40.878   5.866
 4803POPC   GL261958  21.610  40.764   6.012
 4803POPC   C1A61959  21.153  40.879   6.302
 4803POPC   D2A61960  21.204  40.643   6.688
 4803POPC   C3A61961  21.031  40.762   7.070
 4803POPC   C4A61962  21.279  40.798   7.435
 4803POPC   C1B61963  21.602  41.134   6.265
 4803POPC   C2B61964  21.432  41.129   6.652
 4803POPC   C3B61965  21.552  40.906   7.011
 4803POPC   C4B61966  21.643  41.162   7.348
 4804POPC   NC361967  42.136  28.440   5.404
 4804POPC   PO461968  42.730  28.147   5.451
 4804POPC   GL161969  42.383  28.074   5.762
 4804POPC   GL261970  42.322  28.392   5.875
 4804POPC   C1A61971  42.213  28.047   6.222
 4804POPC   D2A61972  42.417  28.172   6.626
 4804POPC   C3A61973  42.228  28.320   7.012
 4804POPC   C4A61974  42.143  28.226   7.456
 4804POPC   C1B61975  42.495  28.585   6.254
 4804POPC   C2B61976  42.811  28.552   6.602
 4804POPC   C3B61977  42.694  28.672   7.034
 4804POPC   C4B61978  42.303  28.732   7.295
 4805POPC   NC361979  40.585  23.936   5.414
 4805POPC   PO461980  41.140  23.601   5.179
 4805POPC   GL161981  41.135  23.697   5.664
 4805POPC   GL261982  40.808  23.716   5.811
 4805POPC   C1A61983  41.168  23.750   6.165
 4805POPC   D2A61984  41.220  23.588   6.610
 4805POPC   C3A61985  41.007  23.811   6.955
 4805POPC   C4A61986  40.544  23.905   7.051
 4805POPC   C1B61987  40.623  23.575   6.201
 4805POPC   C2B61988  40.689  23.582   6.623
 4805POPC   C3B61989  40.466  23.398   6.954
 4805POPC   C4B61990  40.148  23.551   7.163
 4806POPC   NC361991  26.990  28.614   5.558
 4806POPC   PO461992  26.525  28.206   5.645
 4806POPC   GL161993  26.493  28.532   5.976
 4806POPC   GL261994  26.835  28.652   6.033
 4806POPC   C1A61995  26.567  28.593   6.449
 4806POPC   D2A61996  26.921  28.504   6.760
 4806POPC   C3A61997  26.880  28.191   7.102
 4806POPC   C4A61998  26.715  28.087   7.531
 4806POPC   C1B61999  27.194  28.637   6.322
 4806POPC   C2B62000  27.296  28.837   6.714
 4806POPC   C3B62001  27.351  28.577   7.106
 4806POPC   C4B62002  27.398  28.683   7.546
 4807POPC   NC362003  32.308  37.913   5.227
 4807POPC   PO462004  31.897  37.471   5.574
 4807POPC   GL162005  32.094  37.769   5.789
 4807POPC   GL262006  32.443  37.735   5.736
 4807POPC   C1A62007  32.072  37.776   6.213
 4807POPC   D2A62008  32.205  37.560   6.572
 4807POPC   C3A62009  32.048  37.798   6.933
 4807POPC   C4A62010  31.977  37.500   7.222
 4807POPC   C1B62011  32.560  37.893   6.158
 4807POPC   C2B62012  32.471  37.974   6.617
 4807POPC   C3B62013  32.540  37.689   7.001
 4807POPC   C4B62014  32.551  37.643   7.465
 4808POPC   NC362015   3.036   4.108   5.495
 4808POPC   PO462016   2.661   4.651   5.480
 4808POPC   GL162017   2.783   4.567   5.872
 4808POPC   GL262018   2.562   4.276   5.905
 4808POPC   C1A62019   2.849   4.418   6.295
 4808POPC   D2A62020   2.550   4.320   6.646
 4808POPC   C3A62021   2.866   4.282   6.922
 4808POPC   C4A62022   2.952   4.478   7.247
 4808POPC   C1B62023   2.562   3.985   6.262
 4808POPC   C2B62024   2.460   3.793   6.644
 4808POPC   C3B62025   2.542   3.920   7.055
 4808POPC   C4B62026   2.707   4.094   7.461
 4809POPC   NC362027   4.863  17.104   5.566
 4809POPC   PO462028   4.553  16.585   5.343
 4809POPC   GL162029   4.449  16.841   5.784
 4809POPC   GL262030   4.070  16.903   5.897
 4809POPC   C1A62031   4.423  16.876   6.267
 4809POPC   D2A62032   4.362  16.751   6.727
 4809POPC   C3A62033   4.723  16.874   7.002
 4809POPC   C4A62034   4.865  16.667   7.396
 4809POPC   C1B62035   3.844  16.695   6.295
 4809POPC   C2B62036   3.807  16.523   6.745
 4809POPC   C3B62037   4.130  16.419   7.058
 4809POPC   C4B62038   4.355  16.712   7.290
 4810POPC   NC362039  37.585  16.350   5.316
 4810POPC   PO462040  37.217  16.834   5.402
 4810POPC   GL162041  37.485  16.670   5.735
 4810POPC   GL262042  37.796  16.824   5.803
 4810POPC   C1A62043  37.565  16.580   6.191
 4810POPC   D2A62044  37.794  16.728   6.584
 4810POPC   C3A62045  37.545  16.623   6.973
 4810POPC   C4A62046  37.419  16.388   7.359
 4810POPC   C1B62047  38.069  16.518   6.117
 4810POPC   C2B62048  38.254  16.454   6.561
 4810POPC   C3B62049  38.143  16.624   6.951
 4810POPC   C4B62050  37.890  16.994   7.075
 4811POPC   NC362051   4.829  34.673   5.430
 4811POPC   PO462052   5.475  34.373   5.378
 4811POPC   GL162053   5.202  34.377   5.784
 4811POPC   GL262054   4.861  34.447   5.914
 4811POPC   C1A62055   5.209  34.223   6.244
 4811POPC   D2A62056   5.075  34.214   6.686
 4811POPC   C3A62057   5.319  34.396   7.029
 4811POPC   C4A62058   5.136  34.794   7.087
 4811POPC   C1B62059   5.006  34.789   6.202
 4811POPC   C2B62060   4.913  34.977   6.635
 4811POPC   C3B62061   4.663  34.896   7.009
 4811POPC   C4B62062   4.719  34.561   7.305
 4812POPC   NC362063  29.934  43.327   5.475
 4812POPC   PO462064  30.216  42.698   5.427
 4812POPC   GL162065  30.025  42.930   5.802
 4812POPC   GL262066  29.811  43.221   5.941
 4812POPC   C1A62067  29.948  42.843   6.253
 4812POPC   D2A62068  30.084  42.653   6.636
 4812POPC   C3A62069  29.977  42.862   6.981
 4812POPC   C4A62070  29.969  43.257   7.037
 4812POPC   C1B62071  29.615  43.236   6.304
 4812POPC   C2B62072  29.678  43.142   6.651
 4812POPC   C3B62073  29.472  43.361   6.947
 4812POPC   C4B62074  29.603  43.372   7.350
 4813POPC   NC362075  30.994  31.341   5.279
 4813POPC   PO462076  30.400  31.652   5.575
 4813POPC   GL162077  30.602  31.455   5.823
 4813POPC   GL262078  30.908  31.606   5.741
 4813POPC   C1A62079  30.473  31.296   6.213
 4813POPC   D2A62080  30.575  31.257   6.621
 4813POPC   C3A62081  30.502  31.693   6.742
 4813POPC   C4A62082  30.576  31.875   7.132
 4813POPC   C1B62083  30.987  31.389   6.127
 4813POPC   C2B62084  31.007  31.522   6.554
 4813POPC   C3B62085  30.886  31.456   6.974
 4813POPC   C4B62086  31.009  31.664   7.307
 4814POPC   NC362087  20.751  10.095   5.222
 4814POPC   PO462088  20.525   9.391   5.298
 4814POPC   GL162089  20.563   9.559   5.698
 4814POPC   GL262090  20.844   9.760   5.825
 4814POPC   C1A62091  20.476   9.551   6.138
 4814POPC   D2A62092  20.616   9.535   6.550
 4814POPC   C3A62093  20.342   9.651   6.845
 4814POPC   C4A62094  20.528   9.829   7.195
 4814POPC   C1B62095  20.838   9.937   6.226
 4814POPC   C2B62096  21.083   9.794   6.556
 4814POPC   C3B62097  20.966   9.666   6.959
 4814POPC   C4B62098  21.060   9.961   7.243
 4815POPC   NC362099  21.985  44.111   5.456
 4815POPC   PO462100  22.538  43.840   5.062
 4815POPC   GL162101  22.426  43.913   5.606
 4815POPC   GL262102  22.143  43.771   5.814
 4815POPC   C1A62103  22.374  44.172   6.036
 4815POPC   D2A62104  22.220  44.334   6.445
 4815POPC   C3A62105  22.210  44.030   6.790
 4815POPC   C4A62106  22.383  43.952   7.236
 4815POPC   C1B62107  22.085  43.802   6.279
 4815POPC   C2B62108  21.884  43.484   6.564
 4815POPC   C3B62109  21.704  43.363   6.983
 4815POPC   C4B62110  21.825  43.644   7.351
 4816POPC   NC362111  10.372  35.650   5.335
 4816POPC   PO462112  11.008  35.687   5.459
 4816POPC   GL162113  10.677  35.495   5.707
 4816POPC   GL262114  10.746  35.149   5.753
 4816POPC   C1A62115  10.388  35.368   6.055
 4816POPC   D2A62116  10.487  35.268   6.479
 4816POPC   C3A62117  10.254  35.048   6.781
 4816POPC   C4A62118  10.298  35.198   7.172
 4816POPC   C1B62119  10.798  35.000   6.179
 4816POPC   C2B62120  10.979  35.069   6.582
 4816POPC   C3B62121  10.780  35.221   6.908
 4816POPC   C4B62122  10.794  35.173   7.336
 4817POPC   NC362123   5.656  32.255   5.170
 4817POPC   PO462124   5.025  31.985   5.167
 4817POPC   GL162125   5.128  32.135   5.659
 4817POPC   GL262126   4.845  32.259   5.853
 4817POPC   C1A62127   5.292  32.037   6.143
 4817POPC   D2A62128   5.266  31.861   6.595
 4817POPC   C3A62129   4.873  32.010   6.805
 4817POPC   C4A62130   4.792  32.031   7.266
 4817POPC   C1B62131   4.911  32.333   6.317
 4817POPC   C2B62132   5.282  32.372   6.618
 4817POPC   C3B62133   5.201  32.304   7.051
 4817POPC   C4B62134   4.802  32.479   7.058
 4818POPC   NC362135  40.655  19.611   5.488
 4818POPC   PO462136  41.320  19.683   5.544
 4818POPC   GL162137  40.991  19.882   5.796
 4818POPC   GL262138  40.935  20.222   5.717
 4818POPC   C1A62139  40.672  19.901   6.133
 4818POPC   D2A62140  40.482  19.661   6.506
 4818POPC   C3A62141  40.647  19.873   6.870
 4818POPC   C4A62142  40.918  19.776   7.190
 4818POPC   C1B62143  41.074  20.264   6.146
 4818POPC   C2B62144  40.857  20.222   6.530
 4818POPC   C3B62145  41.053  20.214   6.912
 4818POPC   C4B62146  40.828  20.258   7.269
 4819POPC   NC362147  18.164  31.026   5.328
 4819POPC   PO462148  18.551  31.602   5.361
 4819POPC   GL162149  18.297  31.583   5.741
 4819POPC   GL262150  18.075  31.297   5.766
 4819POPC   C1A62151  18.199  31.643   6.182
 4819POPC   D2A62152  18.222  31.439   6.573
 4819POPC   C3A62153  18.272  31.604   6.958
 4819POPC   C4A62154  18.517  31.365   7.238
 4819POPC   C1B62155  18.185  31.112   6.173
 4819POPC   C2B62156  17.936  31.028   6.561
 4819POPC   C3B62157  18.104  31.106   6.981
 4819POPC   C4B62158  17.980  31.377   7.333
 4820POPC   NC362159  13.988  24.190   5.414
 4820POPC   PO462160  14.510  24.643   5.203
 4820POPC   GL162161  14.559  24.676   5.742
 4820POPC   GL262162  14.210  24.531   5.873
 4820POPC   C1A62163  14.533  24.632   6.230
 4820POPC   D2A62164  14.217  24.534   6.574
 4820POPC   C3A62165  14.250  24.727   6.969
 4820POPC   C4A62166  14.236  24.875   7.351
 4820POPC   C1B62167  14.262  24.185   6.213
 4820POPC   C2B62168  14.088  24.017   6.617
 4820POPC   C3B62169  14.057  24.140   7.064
 4820POPC   C4B62170  14.265  24.363   7.397
 4821POPC   NC362171  37.776  39.297   5.367
 4821POPC   PO462172  37.212  38.936   5.445
 4821POPC   GL162173  37.577  39.029   5.751
 4821POPC   GL262174  37.610  39.367   5.850
 4821POPC   C1A62175  37.829  38.873   6.116
 4821POPC   D2A62176  37.706  38.923   6.557
 4821POPC   C3A62177  37.681  39.197   6.919
 4821POPC   C4A62178  37.838  39.085   7.334
 4821POPC   C1B62179  37.785  39.361   6.256
 4821POPC   C2B62180  38.019  39.475   6.614
 4821POPC   C3B62181  37.876  39.686   6.965
 4821POPC   C4B62182  37.674  39.592   7.328
 4822POPC   NC362183   0.900   1.253   5.515
 4822POPC   PO462184   1.519   1.389   5.367
 4822POPC   GL162185   1.307   1.340   5.811
 4822POPC   GL262186   1.113   1.009   5.896
 4822POPC   C1A62187   1.143   1.392   6.241
 4822POPC   D2A62188   0.970   1.131   6.572
 4822POPC   C3A62189   1.030   1.326   6.963
 4822POPC   C4A62190   1.277   1.548   7.205
 4822POPC   C1B62191   1.281   0.820   6.257
 4822POPC   C2B62192   1.513   0.827   6.629
 4822POPC   C3B62193   1.316   0.910   7.017
 4822POPC   C4B62194   0.895   0.887   7.176
 4823POPC   NC362195  14.902  16.839   5.395
 4823POPC   PO462196  15.399  16.312   5.354
 4823POPC   GL162197  15.218  16.583   5.702
 4823POPC   GL262198  14.974  16.402   5.876
 4823POPC   C1A62199  15.164  16.844   6.104
 4823POPC   D2A62200  14.987  16.929   6.560
 4823POPC   C3A62201  15.188  16.820   6.972
 4823POPC   C4A62202  15.556  17.003   7.219
 4823POPC   C1B62203  14.869  16.495   6.308
 4823POPC   C2B62204  14.924  16.418   6.747
 4823POPC   C3B62205  14.788  16.518   7.159
 4823POPC   C4B62206  14.956  16.493   7.564
 4824POPC   NC362207   5.480  22.855   5.540
 4824POPC   PO462208   6.049  23.204   5.296
 4824POPC   GL162209   5.931  22.993   5.733
 4824POPC   GL262210   5.671  23.185   5.930
 4824POPC   C1A62211   5.794  22.754   6.148
 4824POPC   D2A62212   5.647  22.966   6.551
 4824POPC   C3A62213   5.813  22.939   7.002
 4824POPC   C4A62214   5.977  22.623   7.294
 4824POPC   C1B62215   6.086  23.135   6.233
 4824POPC   C2B62216   6.286  23.187   6.614
 4824POPC   C3B62217   6.223  23.264   7.029
 4824POPC   C4B62218   6.129  23.083   7.451
 4825POPC   NC362219  15.082  32.739   5.569
 4825POPC   PO462220  15.092  32.091   5.415
 4825POPC   GL162221  15.143  32.006   5.825
 4825POPC   GL262222  15.264  32.341   5.931
 4825POPC   C1A62223  14.988  31.987   6.229
 4825POPC   D2A62224  15.203  32.148   6.566
 4825POPC   C3A62225  15.041  32.153   6.974
 4825POPC   C4A62226  15.256  32.044   7.329
 4825POPC   C1B62227  15.324  32.666   6.249
 4825POPC   C2B62228  15.106  32.658   6.625
 4825POPC   C3B62229  14.891  32.641   7.018
 4825POPC   C4B62230  15.196  32.546   7.329
 4826POPC   NC362231  31.886  40.546   5.450
 4826POPC   PO462232  31.359  40.933   5.271
 4826POPC   GL162233  31.693  40.968   5.705
 4826POPC   GL262234  31.688  40.651   5.918
 4826POPC   C1A62235  31.895  41.062   6.174
 4826POPC   D2A62236  32.076  41.043   6.627
 4826POPC   C3A62237  31.699  40.985   6.920
 4826POPC   C4A62238  31.583  40.628   7.164
 4826POPC   C1B62239  31.408  40.491   6.265
 4826POPC   C2B62240  31.377  40.525   6.704
 4826POPC   C3B62241  31.125  40.450   7.072
 4826POPC   C4B62242  31.189  40.452   7.530
 4827POPC   NC362243  17.750   5.972   5.499
 4827POPC   PO462244  17.382   5.423   5.463
 4827POPC   GL162245  17.400   5.705   5.791
 4827POPC   GL262246  17.232   6.017   5.639
 4827POPC   C1A62247  17.543   5.704   6.237
 4827POPC   D2A62248  17.748   5.860   6.606
 4827POPC   C3A62249  17.691   5.710   7.029
 4827POPC   C4A62250  17.636   5.326   7.247
 4827POPC   C1B62251  17.195   6.067   6.096
 4827POPC   C2B62252  17.401   6.221   6.480
 4827POPC   C3B62253  17.314   6.066   6.858
 4827POPC   C4B62254  17.209   5.844   7.201
 4828POPC   NC362255  32.199   8.645   5.542
 4828POPC   PO462256  31.965   9.198   5.573
 4828POPC   GL162257  31.940   8.911   5.897
 4828POPC   GL262258  32.312   8.924   5.978
 4828POPC   C1A62259  31.954   8.808   6.324
 4828POPC   D2A62260  32.277   8.961   6.561
 4828POPC   C3A62261  32.141   8.867   6.981
 4828POPC   C4A62262  32.170   9.077   7.356
 4828POPC   C1B62263  32.654   9.136   6.208
 4828POPC   C2B62264  32.672   9.316   6.595
 4828POPC   C3B62265  32.505   9.233   6.958
 4828POPC   C4B62266  32.671   9.271   7.319
 4829POPC   NC362267  20.294  38.811   5.554
 4829POPC   PO462268  20.242  38.126   5.397
 4829POPC   GL162269  20.052  38.377   5.736
 4829POPC   GL262270  19.674  38.425   5.754
 4829POPC   C1A62271  20.011  38.376   6.184
 4829POPC   D2A62272  19.869  38.266   6.594
 4829POPC   C3A62273  19.975  38.411   7.005
 4829POPC   C4A62274  20.136  38.458   7.397
 4829POPC   C1B62275  19.472  38.337   6.187
 4829POPC   C2B62276  19.393  38.104   6.607
 4829POPC   C3B62277  19.621  38.043   6.998
 4829POPC   C4B62278  19.689  38.168   7.459
 4830POPC   NC362279  26.247   4.633   5.237
 4830POPC   PO462280  26.271   4.003   5.139
 4830POPC   GL162281  26.093   4.165   5.553
 4830POPC   GL262282  25.949   3.951   5.794
 4830POPC   C1A62283  26.072   4.424   5.973
 4830POPC   D2A62284  26.127   4.458   6.449
 4830POPC   C3A62285  25.845   4.386   6.812
 4830POPC   C4A62286  26.019   4.319   7.201
 4830POPC   C1B62287  26.212   3.971   6.201
 4830POPC   C2B62288  26.348   3.945   6.648
 4830POPC   C3B62289  26.178   3.860   7.058
 4830POPC   C4B62290  26.238   3.786   7.547
 4831POPC   NC362291  32.589   6.690   5.608
 4831POPC   PO462292  33.125   6.768   5.296
 4831POPC   GL162293  33.245   6.682   5.743
 4831POPC   GL262294  33.476   6.389   5.774
 4831POPC   C1A62295  33.104   6.630   6.184
 4831POPC   D2A62296  32.793   6.762   6.529
 4831POPC   C3A62297  32.933   6.678   6.979
 4831POPC   C4A62298  33.125   6.705   7.389
 4831POPC   C1B62299  33.602   6.409   6.202
 4831POPC   C2B62300  33.415   6.570   6.590
 4831POPC   C3B62301  33.405   6.463   7.019
 4831POPC   C4B62302  33.270   6.229   7.399
 4832POPC   NC362303   3.944  14.141   5.691
 4832POPC   PO462304   3.493  14.567   5.312
 4832POPC   GL162305   3.391  14.567   5.770
 4832POPC   GL262306   3.473  14.238   5.958
 4832POPC   C1A62307   3.599  14.667   6.179
 4832POPC   D2A62308   3.712  14.666   6.620
 4832POPC   C3A62309   3.481  14.607   7.030
 4832POPC   C4A62310   3.693  14.704   7.431
 4832POPC   C1B62311   3.617  14.183   6.383
 4832POPC   C2B62312   3.530  14.143   6.814
 4832POPC   C3B62313   3.736  14.196   7.219
 4832POPC   C4B62314   3.706  14.250   7.673
 4833POPC   NC362315   2.388  27.609   5.274
 4833POPC   PO462316   1.805  27.559   5.239
 4833POPC   GL162317   1.943  27.559   5.698
 4833POPC   GL262318   2.234  27.807   5.724
 4833POPC   C1A62319   1.771  27.443   6.147
 4833POPC   D2A62320   1.637  27.541   6.599
 4833POPC   C3A62321   1.855  27.341   6.976
 4833POPC   C4A62322   2.051  27.409   7.370
 4833POPC   C1B62323   2.271  27.635   6.151
 4833POPC   C2B62324   2.448  27.616   6.577
 4833POPC   C3B62325   2.367  27.659   7.027
 4833POPC   C4B62326   2.043  27.897   7.222
 4834POPC   NC362327  27.888  38.902   5.629
 4834POPC   PO462328  27.829  38.282   5.588
 4834POPC   GL162329  27.599  38.378   5.935
 4834POPC   GL262330  27.320  38.633   5.882
 4834POPC   C1A62331  27.605  38.651   6.311
 4834POPC   D2A62332  27.799  38.732   6.704
 4834POPC   C3A62333  27.625  38.505   7.045
 4834POPC   C4A62334  27.769  38.092   7.173
 4834POPC   C1B62335  27.196  38.333   6.238
 4834POPC   C2B62336  27.063  38.271   6.682
 4834POPC   C3B62337  27.255  38.121   7.072
 4834POPC   C4B62338  27.338  38.255   7.495
 4835POPC   NC362339  12.411  36.380   5.417
 4835POPC   PO462340  11.744  36.392   5.298
 4835POPC   GL162341  11.913  36.273   5.728
 4835POPC   GL262342  11.691  35.992   5.782
 4835POPC   C1A62343  12.204  36.280   6.131
 4835POPC   D2A62344  12.339  36.494   6.554
 4835POPC   C3A62345  12.251  36.348   6.977
 4835POPC   C4A62346  11.818  36.248   7.112
 4835POPC   C1B62347  11.923  35.856   6.126
 4835POPC   C2B62348  12.167  35.888   6.484
 4835POPC   C3B62349  12.098  35.870   6.907
 4835POPC   C4B62350  12.331  35.931   7.289
 4836POPC   NC362351  33.735   7.618   5.307
 4836POPC   PO462352  33.907   7.014   5.364
 4836POPC   GL162353  33.913   7.311   5.732
 4836POPC   GL262354  33.577   7.352   5.735
 4836POPC   C1A62355  33.992   7.235   6.197
 4836POPC   D2A62356  34.168   7.158   6.636
 4836POPC   C3A62357  33.868   7.255   7.012
 4836POPC   C4A62358  33.867   7.306   7.502
 4836POPC   C1B62359  33.513   7.420   6.151
 4836POPC   C2B62360  33.514   7.468   6.564
 4836POPC   C3B62361  33.284   7.497   6.901
 4836POPC   C4B62362  33.465   7.488   7.268
 4837POPC   NC362363  14.099  12.780   5.443
 4837POPC   PO462364  14.608  13.275   5.336
 4837POPC   GL162365  14.445  13.060   5.716
 4837POPC   GL262366  14.145  13.254   5.731
 4837POPC   C1A62367  14.499  12.823   6.134
 4837POPC   D2A62368  14.496  12.494   6.494
 4837POPC   C3A62369  14.773  12.533   6.861
 4837POPC   C4A62370  14.730  12.793   7.242
 4837POPC   C1B62371  13.996  13.027   6.111
 4837POPC   C2B62372  14.120  12.847   6.523
 4837POPC   C3B62373  14.294  12.830   6.953
 4837POPC   C4B62374  14.081  13.132   7.219
 4838POPC   NC362375  33.805  44.545   5.375
 4838POPC   PO462376  34.070  43.884   5.437
 4838POPC   GL162377  33.834  43.913   5.786
 4838POPC   GL262378  33.623  44.195   5.753
 4838POPC   C1A62379  33.809  43.973   6.231
 4838POPC   D2A62380  33.562  43.664   6.441
 4838POPC   C3A62381  33.569  43.699   6.863
 4838POPC   C4A62382  33.705  43.979   7.181
 4838POPC   C1B62383  33.339  43.989   6.079
 4838POPC   C2B62384  33.366  44.127   6.537
 4838POPC   C3B62385  33.250  44.114   6.981
 4838POPC   C4B62386  33.457  44.392   7.303
 4839POPC   NC362387  22.793  43.637   5.425
 4839POPC   PO462388  22.983  42.945   5.480
 4839POPC   GL162389  23.103  42.951   5.878
 4839POPC   GL262390  23.250  43.234   5.974
 4839POPC   C1A62391  23.012  42.750   6.270
 4839POPC   D2A62392  23.174  42.785   6.678
 4839POPC   C3A62393  23.015  43.055   7.013
 4839POPC   C4A62394  23.207  43.468   7.093
 4839POPC   C1B62395  22.951  43.246   6.315
 4839POPC   C2B62396  22.681  43.080   6.612
 4839POPC   C3B62397  22.571  43.262   7.000
 4839POPC   C4B62398  22.678  43.478   7.325
 4840POPC   NC362399  29.309   0.680   5.042
 4840POPC   PO462400  29.201   0.354   5.637
 4840POPC   GL162401  28.884   0.553   5.845
 4840POPC   GL262402  29.114   0.784   5.984
 4840POPC   C1A62403  28.947   0.384   6.235
 4840POPC   D2A62404  29.333   0.294   6.484
 4840POPC   C3A62405  29.290   0.509   6.844
 4840POPC   C4A62406  29.070   0.555   7.183
 4840POPC   C1B62407  29.154   0.797   6.434
 4840POPC   C2B62408  28.906   0.909   6.796
 4840POPC   C3B62409  28.903   1.021   7.246
 4840POPC   C4B62410  28.989   0.754   7.664
 4841POPC   NC362411   6.505   7.842   5.548
 4841POPC   PO462412   6.622   8.428   5.331
 4841POPC   GL162413   6.699   8.425   5.800
 4841POPC   GL262414   7.011   8.626   5.865
 4841POPC   C1A62415   6.568   8.154   6.207
 4841POPC   D2A62416   6.297   7.971   6.597
 4841POPC   C3A62417   6.355   8.050   7.088
 4841POPC   C4A62418   6.315   7.968   7.585
 4841POPC   C1B62419   6.904   8.544   6.302
 4841POPC   C2B62420   6.583   8.451   6.630
 4841POPC   C3B62421   6.653   8.480   7.066
 4841POPC   C4B62422   6.687   8.281   7.463
 4842POPC   NC362423  22.499   2.094   5.570
 4842POPC   PO462424  21.829   1.806   5.492
 4842POPC   GL162425  22.071   1.917   5.826
 4842POPC   GL262426  21.972   2.255   5.850
 4842POPC   C1A62427  22.291   1.796   6.221
 4842POPC   D2A62428  22.131   1.612   6.649
 4842POPC   C3A62429  22.254   1.699   7.070
 4842POPC   C4A62430  22.157   1.987   7.401
 4842POPC   C1B62431  22.310   2.299   6.153
 4842POPC   C2B62432  22.489   2.364   6.562
 4842POPC   C3B62433  22.426   2.199   6.965
 4842POPC   C4B62434  22.477   2.409   7.326
 4843POPC   NC362435  36.697  11.676   5.092
 4843POPC   PO462436  36.930  12.211   5.428
 4843POPC   GL162437  36.776  12.058   5.779
 4843POPC   GL262438  36.834  11.709   5.676
 4843POPC   C1A62439  36.952  12.163   6.186
 4843POPC   D2A62440  37.181  11.978   6.530
 4843POPC   C3A62441  37.044  12.161   6.913
 4843POPC   C4A62442  36.996  12.422   7.271
 4843POPC   C1B62443  36.679  11.704   6.117
 4843POPC   C2B62444  36.808  11.590   6.529
 4843POPC   C3B62445  36.696  11.744   6.957
 4843POPC   C4B62446  36.891  11.920   7.338
 4844POPC   NC362447  39.650  17.384   5.620
 4844POPC   PO462448  39.993  17.862   5.267
 4844POPC   GL162449  40.039  17.667   5.723
 4844POPC   GL262450  40.101  17.334   5.826
 4844POPC   C1A62451  39.875  17.646   6.184
 4844POPC   D2A62452  39.791  17.849   6.565
 4844POPC   C3A62453  39.818  17.699   6.987
 4844POPC   C4A62454  40.051  17.789   7.401
 4844POPC   C1B62455  40.154  17.215   6.252
 4844POPC   C2B62456  40.102  17.408   6.672
 4844POPC   C3B62457  39.967  17.229   7.088
 4844POPC   C4B62458  40.075  17.317   7.548
 4845POPC   NC362459  21.626  23.727   5.358
 4845POPC   PO462460  21.138  23.324   5.134
 4845POPC   GL162461  21.190  23.521   5.629
 4845POPC   GL262462  21.437  23.815   5.798
 4845POPC   C1A62463  21.170  23.591   6.132
 4845POPC   D2A62464  21.259  23.929   6.439
 4845POPC   C3A62465  21.185  23.741   6.833
 4845POPC   C4A62466  21.403  23.704   7.196
 4845POPC   C1B62467  21.665  23.860   6.142
 4845POPC   C2B62468  21.767  24.129   6.478
 4845POPC   C3B62469  21.586  24.061   6.859
 4845POPC   C4B62470  21.548  24.174   7.288
 4846POPC   NC362471   0.513   8.413   5.448
 4846POPC   PO462472   0.036   7.991   5.371
 4846POPC   GL162473   0.143   8.160   5.793
 4846POPC   GL262474   0.119   8.539   5.821
 4846POPC   C1A62475   0.380   8.111   6.200
 4846POPC   D2A62476   0.328   8.235   6.636
 4846POPC   C3A62477   0.461   7.972   6.952
 4846POPC   C4A62478   0.628   7.955   7.394
 4846POPC   C1B62479   0.337   8.622   6.240
 4846POPC   C2B62480   0.701   8.568   6.510
 4846POPC   C3B62481   0.710   8.425   6.951
 4846POPC   C4B62482   0.359   8.371   7.247
 4847POPC   NC362483  12.604  12.273   5.505
 4847POPC   PO462484  11.931  12.422   5.498
 4847POPC   GL162485  12.155  12.652   5.822
 4847POPC   GL262486  12.280  12.996   5.803
 4847POPC   C1A62487  12.329  12.586   6.236
 4847POPC   D2A62488  12.130  12.340   6.589
 4847POPC   C3A62489  12.130  12.548   6.959
 4847POPC   C4A62490  11.856  12.757   7.165
 4847POPC   C1B62491  12.067  13.110   6.219
 4847POPC   C2B62492  11.959  13.147   6.687
 4847POPC   C3B62493  12.199  13.172   7.079
 4847POPC   C4B62494  12.427  12.860   7.260
 4848POPC   NC362495  11.709  40.665   5.384
 4848POPC   PO462496  12.301  41.037   5.397
 4848POPC   GL162497  12.143  40.765   5.760
 4848POPC   GL262498  11.884  40.457   5.833
 4848POPC   C1A62499  12.042  40.753   6.207
 4848POPC   D2A62500  12.120  40.614   6.616
 4848POPC   C3A62501  12.104  40.877   6.966
 4848POPC   C4A62502  12.406  40.959   7.281
 4848POPC   C1B62503  11.577  40.523   6.159
 4848POPC   C2B62504  11.602  40.710   6.564
 4848POPC   C3B62505  11.662  40.588   6.950
 4848POPC   C4B62506  11.595  40.330   7.280
 4849POPC   NC362507  22.997  12.310   5.508
 4849POPC   PO462508  22.742  11.701   5.460
 4849POPC   GL162509  22.904  11.869   5.831
 4849POPC   GL262510  22.641  11.974   5.990
 4849POPC   C1A62511  23.144  12.057   6.206
 4849POPC   D2A62512  23.409  12.214   6.546
 4849POPC   C3A62513  23.209  12.115   6.957
 4849POPC   C4A62514  22.810  12.248   7.181
 4849POPC   C1B62515  22.845  11.647   6.284
 4849POPC   C2B62516  22.895  11.849   6.646
 4849POPC   C3B62517  22.773  11.760   7.019
 4849POPC   C4B62518  22.866  11.674   7.405
 4850POPC   NC362519  15.085  31.601   5.483
 4850POPC   PO462520  15.029  30.930   5.418
 4850POPC   GL162521  15.118  31.152   5.783
 4850POPC   GL262522  15.463  31.131   5.678
 4850POPC   C1A62523  15.133  31.466   6.158
 4850POPC   D2A62524  15.346  31.642   6.558
 4850POPC   C3A62525  15.161  31.642   6.989
 4850POPC   C4A62526  15.022  31.261   7.217
 4850POPC   C1B62527  15.520  31.128   6.114
 4850POPC   C2B62528  15.451  31.069   6.536
 4850POPC   C3B62529  15.475  31.233   6.926
 4850POPC   C4B62530  15.686  31.544   7.140
 4851POPC   NC362531  41.172  33.704   5.560
 4851POPC   PO462532  41.815  33.803   5.375
 4851POPC   GL162533  41.800  33.775   5.810
 4851POPC   GL262534  41.484  33.876   5.903
 4851POPC   C1A62535  41.765  33.594   6.224
 4851POPC   D2A62536  41.517  33.702   6.565
 4851POPC   C3A62537  41.723  33.719   6.955
 4851POPC   C4A62538  41.467  33.709   7.310
 4851POPC   C1B62539  41.713  34.121   6.184
 4851POPC   C2B62540  41.879  34.095   6.585
 4851POPC   C3B62541  41.788  34.230   6.984
 4851POPC   C4B62542  41.892  34.038   7.353
 4852POPC   NC362543  33.547  17.792   5.353
 4852POPC   PO462544  33.915  17.288   5.586
 4852POPC   GL162545  34.017  17.591   5.848
 4852POPC   GL262546  34.264  17.361   5.972
 4852POPC   C1A62547  33.830  17.702   6.231
 4852POPC   D2A62548  33.535  17.724   6.550
 4852POPC   C3A62549  33.798  17.864   6.870
 4852POPC   C4A62550  33.808  17.643   7.219
 4852POPC   C1B62551  34.012  17.213   6.340
 4852POPC   C2B62552  33.933  17.329   6.792
 4852POPC   C3B62553  34.207  17.350   7.154
 4852POPC   C4B62554  34.290  17.121   7.536
 4853POPC   NC362555  37.656  19.001   5.002
 4853POPC   PO462556  37.928  19.285   5.582
 4853POPC   GL162557  37.684  19.103   5.882
 4853POPC   GL262558  37.737  18.749   5.861
 4853POPC   C1A62559  37.867  19.036   6.291
 4853POPC   D2A62560  38.014  18.845   6.663
 4853POPC   C3A62561  37.884  19.063   7.042
 4853POPC   C4A62562  37.460  19.237   7.074
 4853POPC   C1B62563  37.418  18.776   6.180
 4853POPC   C2B62564  37.484  18.883   6.602
 4853POPC   C3B62565  37.585  18.668   6.958
 4853POPC   C4B62566  37.469  18.781   7.340
 4854POPC   NC362567   0.511   0.476   5.417
 4854POPC   PO462568   0.119   0.988   5.614
 4854POPC   GL162569   0.555   0.846   5.782
 4854POPC   GL262570   0.462   0.511   5.919
 4854POPC   C1A62571   0.769   0.762   6.223
 4854POPC   D2A62572   0.565   0.475   6.497
 4854POPC   C3A62573   0.544   0.634   6.904
 4854POPC   C4A62574   0.621   0.471   7.292
 4854POPC   C1B62575   0.203   0.240   6.186
 4854POPC   C2B62576   0.182   0.140   6.620
 4854POPC   C3B62577   0.522   0.107   6.912
 4854POPC   C4B62578   0.444   0.007   7.334
 4855POPC   NC362579  32.439  34.684   5.572
 4855POPC   PO462580  32.025  34.183   5.462
 4855POPC   GL162581  32.286  34.239   5.876
 4855POPC   GL262582  32.325  34.586   6.041
 4855POPC   C1A62583  32.403  34.183   6.335
 4855POPC   D2A62584  32.382  34.459   6.707
 4855POPC   C3A62585  32.158  34.296   7.092
 4855POPC   C4A62586  32.302  34.310   7.529
 4855POPC   C1B62587  32.395  34.968   6.290
 4855POPC   C2B62588  32.254  35.036   6.733
 4855POPC   C3B62589  32.292  34.806   7.140
 4855POPC   C4B62590  32.421  34.894   7.587
 4856POPC   NC362591  24.119  23.905   5.460
 4856POPC   PO462592  24.277  23.328   5.493
 4856POPC   GL162593  24.414  23.603   5.816
 4856POPC   GL262594  24.142  23.738   5.981
 4856POPC   C1A62595  24.594  23.606   6.252
 4856POPC   D2A62596  24.665  23.782   6.681
 4856POPC   C3A62597  24.574  23.603   7.098
 4856POPC   C4A62598  24.770  23.629   7.511
 4856POPC   C1B62599  24.193  23.873   6.437
 4856POPC   C2B62600  24.134  23.720   6.854
 4856POPC   C3B62601  24.117  23.880   7.271
 4856POPC   C4B62602  24.072  23.928   7.716
 4857POPC   NC362603  37.410  18.569   5.517
 4857POPC   PO462604  38.083  18.362   5.387
 4857POPC   GL162605  37.808  18.236   5.812
 4857POPC   GL262606  37.472  18.284   5.922
 4857POPC   C1A62607  37.718  18.009   6.250
 4857POPC   D2A62608  37.464  17.979   6.663
 4857POPC   C3A62609  37.678  18.168   7.038
 4857POPC   C4A62610  37.877  18.476   7.349
 4857POPC   C1B62611  37.271  18.302   6.291
 4857POPC   C2B62612  37.226  18.447   6.677
 4857POPC   C3B62613  37.202  18.308   7.083
 4857POPC   C4B62614  37.134  18.435   7.470
 4858POPC   NC362615  23.506  10.115   5.547
 4858POPC   PO462616  23.800   9.556   5.281
 4858POPC   GL162617  23.689   9.686   5.745
 4858POPC   GL262618  23.530   9.444   5.954
 4858POPC   C1A62619  23.521   9.895   6.165
 4858POPC   D2A62620  23.282   9.684   6.490
 4858POPC   C3A62621  23.472   9.790   6.862
 4858POPC   C4A62622  23.414  10.075   7.219
 4858POPC   C1B62623  23.955   9.581   6.167
 4858POPC   C2B62624  24.261   9.569   6.531
 4858POPC   C3B62625  24.192   9.766   6.945
 4858POPC   C4B62626  23.807   9.664   7.201
 4859POPC   NC362627  26.256   8.554   5.180
 4859POPC   PO462628  25.843   8.078   5.407
 4859POPC   GL162629  25.970   7.977   5.837
 4859POPC   GL262630  26.289   7.957   5.919
 4859POPC   C1A62631  25.934   8.189   6.249
 4859POPC   D2A62632  26.148   8.392   6.596
 4859POPC   C3A62633  25.927   8.320   6.953
 4859POPC   C4A62634  26.037   7.967   7.136
 4859POPC   C1B62635  26.185   7.735   6.319
 4859POPC   C2B62636  26.512   7.757   6.639
 4859POPC   C3B62637  26.620   8.176   6.780
 4859POPC   C4B62638  26.421   8.295   7.152
 4860POPC   NC362639  42.358  16.097   5.495
 4860POPC   PO462640  41.953  15.577   5.501
 4860POPC   GL162641  42.315  15.654   5.778
 4860POPC   GL262642  42.371  15.988   5.988
 4860POPC   C1A62643  42.442  15.522   6.173
 4860POPC   D2A62644  42.387  15.820   6.504
 4860POPC   C3A62645  42.602  15.794   6.890
 4860POPC   C4A62646  42.539  16.023   7.267
 4860POPC   C1B62647  42.094  16.225   6.261
 4860POPC   C2B62648  41.862  16.240   6.669
 4860POPC   C3B62649  42.113  16.390   7.004
 4860POPC   C4B62650  42.193  16.363   7.428
 4861POPC   NC362651  38.721  31.051   5.629
 4861POPC   PO462652  38.369  31.517   5.248
 4861POPC   GL162653  38.317  31.402   5.689
 4861POPC   GL262654  38.615  31.503   5.864
 4861POPC   C1A62655  38.158  31.550   6.113
 4861POPC   D2A62656  38.328  31.737   6.497
 4861POPC   C3A62657  38.405  31.447   6.819
 4861POPC   C4A62658  38.190  31.399   7.229
 4861POPC   C1B62659  38.596  31.294   6.292
 4861POPC   C2B62660  38.878  31.251   6.659
 4861POPC   C3B62661  38.765  31.192   7.080
 4861POPC   C4B62662  38.681  31.478   7.369
 4862POPC   NC362663  11.190  41.767   5.347
 4862POPC   PO462664  11.519  41.128   5.375
 4862POPC   GL162665  11.333  41.334   5.771
 4862POPC   GL262666  11.294  41.695   5.828
 4862POPC   C1A62667  11.150  41.393   6.197
 4862POPC   D2A62668  11.287  41.707   6.505
 4862POPC   C3A62669  11.355  41.582   6.910
 4862POPC   C4A62670  11.527  41.463   7.296
 4862POPC   C1B62671  10.990  41.860   6.120
 4862POPC   C2B62672  10.838  41.958   6.547
 4862POPC   C3B62673  11.064  42.016   6.925
 4862POPC   C4B62674  11.083  41.763   7.292
 4863POPC   NC362675  23.678  13.033   5.394
 4863POPC   PO462676  24.137  12.521   5.592
 4863POPC   GL162677  23.935  12.880   5.832
 4863POPC   GL262678  23.546  12.839   5.841
 4863POPC   C1A62679  23.801  12.909   6.274
 4863POPC   D2A62680  23.797  12.609   6.610
 4863POPC   C3A62681  23.834  12.742   7.010
 4863POPC   C4A62682  23.728  12.480   7.348
 4863POPC   C1B62683  23.297  13.126   6.085
 4863POPC   C2B62684  23.215  13.270   6.507
 4863POPC   C3B62685  23.430  13.123   6.868
 4863POPC   C4B62686  23.362  13.245   7.272
 4864POPC   NC362687  36.700  19.205   5.214
 4864POPC   PO462688  37.276  18.941   5.270
 4864POPC   GL162689  37.170  19.043   5.722
 4864POPC   GL262690  36.848  19.270   5.709
 4864POPC   C1A62691  37.023  19.122   6.171
 4864POPC   D2A62692  37.084  19.234   6.608
 4864POPC   C3A62693  37.082  18.889   6.934
 4864POPC   C4A62694  37.046  19.092   7.331
 4864POPC   C1B62695  36.564  19.387   6.064
 4864POPC   C2B62696  36.574  19.415   6.544
 4864POPC   C3B62697  36.697  19.232   6.955
 4864POPC   C4B62698  36.523  19.153   7.375
 4865POPC   NC362699   6.602  21.170   5.515
 4865POPC   PO462700   6.692  20.538   5.269
 4865POPC   GL162701   6.887  20.627   5.685
 4865POPC   GL262702   6.617  20.570   5.892
 4865POPC   C1A62703   6.959  20.894   6.085
 4865POPC   D2A62704   6.779  20.730   6.478
 4865POPC   C3A62705   6.822  20.892   6.882
 4865POPC   C4A62706   6.994  20.670   7.189
 4865POPC   C1B62707   6.429  20.876   6.150
 4865POPC   C2B62708   6.257  20.845   6.586
 4865POPC   C3B62709   6.329  20.801   7.026
 4865POPC   C4B62710   6.509  20.464   7.236
 4866POPC   NC362711  15.730  41.168   5.503
 4866POPC   PO462712  15.972  40.523   5.526
 4866POPC   GL162713  16.178  40.697   5.856
 4866POPC   GL262714  16.184  41.037   5.751
 4866POPC   C1A62715  16.123  40.531   6.288
 4866POPC   D2A62716  16.300  40.496   6.708
 4866POPC   C3A62717  16.061  40.691   7.028
 4866POPC   C4A62718  15.664  40.780   7.213
 4866POPC   C1B62719  15.948  41.007   6.167
 4866POPC   C2B62720  16.144  40.993   6.566
 4866POPC   C3B62721  16.220  41.169   6.954
 4866POPC   C4B62722  15.934  41.196   7.259
 4867POPC   NC362723  27.901  40.670   5.150
 4867POPC   PO462724  28.397  40.994   5.507
 4867POPC   GL162725  28.475  40.770   5.897
 4867POPC   GL262726  28.632  41.084   5.991
 4867POPC   C1A62727  28.256  40.537   6.253
 4867POPC   D2A62728  28.196  40.467   6.692
 4867POPC   C3A62729  28.331  40.796   6.907
 4867POPC   C4A62730  28.147  40.907   7.257
 4867POPC   C1B62731  28.622  40.903   6.389
 4867POPC   C2B62732  28.583  41.193   6.716
 4867POPC   C3B62733  28.461  41.288   7.113
 4867POPC   C4B62734  28.475  41.251   7.539
 4868POPC   NC362735   0.668  16.203   5.532
 4868POPC   PO462736   0.104  16.123   5.204
 4868POPC   GL162737   0.358  15.755   5.601
 4868POPC   GL262738   0.653  15.746   5.832
 4868POPC   C1A62739   0.290  15.724   6.144
 4868POPC   D2A62740   0.153  15.672   6.587
 4868POPC   C3A62741   0.280  15.879   6.975
 4868POPC   C4A62742   0.582  15.716   7.272
 4868POPC   C1B62743   0.802  15.905   6.252
 4868POPC   C2B62744   0.654  16.026   6.670
 4868POPC   C3B62745   0.705  16.165   7.112
 4868POPC   C4B62746   0.729  16.076   7.622
 4869POPC   NC362747  37.439  22.120   5.424
 4869POPC   PO462748  38.113  22.531   5.433
 4869POPC   GL162749  37.809  22.346   5.715
 4869POPC   GL262750  37.785  21.985   5.784
 4869POPC   C1A62751  37.641  22.363   6.139
 4869POPC   D2A62752  37.809  22.397   6.560
 4869POPC   C3A62753  37.563  22.491   6.910
 4869POPC   C4A62754  37.203  22.321   7.144
 4869POPC   C1B62755  37.651  21.833   6.203
 4869POPC   C2B62756  37.871  21.879   6.613
 4869POPC   C3B62757  37.952  22.105   6.987
 4869POPC   C4B62758  37.663  22.176   7.300
 4870POPC   NC362759   0.447   5.163   5.189
 4870POPC   PO462760   0.068   4.705   5.171
 4870POPC   GL162761   0.180   5.085   5.608
 4870POPC   GL262762   0.577   5.107   5.698
 4870POPC   C1A62763   0.278   5.222   6.099
 4870POPC   D2A62764   0.225   5.361   6.582
 4870POPC   C3A62765   0.365   5.065   6.956
 4870POPC   C4A62766   0.251   4.625   7.165
 4870POPC   C1B62767   0.800   5.261   6.091
 4870POPC   C2B62768   0.769   5.399   6.547
 4870POPC   C3B62769   0.896   5.216   6.933
 4870POPC   C4B62770   0.891   5.343   7.358
 4871POPC   NC362771  17.643  28.559   5.637
 4871POPC   PO462772  17.369  27.996   5.416
 4871POPC   GL162773  17.327  28.196   5.848
 4871POPC   GL262774  17.181  28.558   5.908
 4871POPC   C1A62775  17.207  28.245   6.308
 4871POPC   D2A62776  17.181  28.554   6.652
 4871POPC   C3A62777  17.408  28.366   6.984
 4871POPC   C4A62778  17.436  28.023   7.264
 4871POPC   C1B62779  17.511  28.671   6.271
 4871POPC   C2B62780  17.814  28.512   6.622
 4871POPC   C3B62781  17.871  28.590   7.075
 4871POPC   C4B62782  17.572  28.648   7.419
 4872POPC   NC362783  19.986  36.977   5.343
 4872POPC   PO462784  19.798  36.442   5.655
 4872POPC   GL162785  19.805  36.904   5.869
 4872POPC   GL262786  19.498  37.143   5.940
 4872POPC   C1A62787  19.882  37.126   6.280
 4872POPC   D2A62788  19.731  37.162   6.705
 4872POPC   C3A62789  19.993  37.129   7.110
 4872POPC   C4A62790  20.235  36.996   7.520
 4872POPC   C1B62791  19.287  37.188   6.356
 4872POPC   C2B62792  19.239  37.077   6.797
 4872POPC   C3B62793  19.447  36.990   7.200
 4872POPC   C4B62794  19.377  36.913   7.674
 4873POPC   NC362795  44.578  38.105   5.438
 4873POPC   PO462796  44.970  37.645   5.185
 4873POPC   GL162797  44.760  37.674   5.660
 4873POPC   GL262798  44.455  37.888   5.858
 4873POPC   C1A62799  44.846  37.650   6.113
 4873POPC   D2A62800  44.786  37.384   6.471
 4873POPC   C3A62801  44.613  37.570   6.831
 4873POPC   C4A62802  44.836  37.572   7.216
 4873POPC   C1B62803  44.590  38.064   6.254
 4873POPC   C2B62804  44.952  38.005   6.528
 4873POPC   C3B62805  44.843  38.039   6.981
 4873POPC   C4B62806  44.413  37.982   7.129
 4874POPC   NC362807  32.655  19.261   5.335
 4874POPC   PO462808  33.204  18.764   5.322
 4874POPC   GL162809  33.257  19.081   5.640
 4874POPC   GL262810  32.950  19.205   5.758
 4874POPC   C1A62811  33.319  19.084   6.108
 4874POPC   D2A62812  33.283  18.856   6.492
 4874POPC   C3A62813  33.162  19.086   6.858
 4874POPC   C4A62814  33.029  18.943   7.271
 4874POPC   C1B62815  32.811  19.138   6.187
 4874POPC   C2B62816  32.796  19.352   6.588
 4874POPC   C3B62817  32.716  19.285   7.048
 4874POPC   C4B62818  32.728  19.274   7.537
 4875POPC   NC362819  20.327  27.862   5.462
 4875POPC   PO462820  20.671  27.278   5.444
 4875POPC   GL162821  20.446  27.409   5.782
 4875POPC   GL262822  20.725  27.666   5.825
 4875POPC   C1A62823  20.450  27.483   6.230
 4875POPC   D2A62824  20.792  27.731   6.454
 4875POPC   C3A62825  20.837  27.649   6.891
 4875POPC   C4A62826  20.631  27.347   7.147
 4875POPC   C1B62827  20.516  27.979   6.085
 4875POPC   C2B62828  20.303  27.910   6.492
 4875POPC   C3B62829  20.437  28.033   6.898
 4875POPC   C4B62830  20.525  27.829   7.268
 4876POPC   NC362831   7.609  37.753   5.447
 4876POPC   PO462832   7.052  37.362   5.336
 4876POPC   GL162833   7.230  37.638   5.767
 4876POPC   GL262834   7.476  37.488   5.912
 4876POPC   C1A62835   7.353  37.845   6.199
 4876POPC   D2A62836   7.385  37.597   6.537
 4876POPC   C3A62837   7.519  37.762   6.904
 4876POPC   C4A62838   7.400  38.058   7.190
 4876POPC   C1B62839   7.649  37.243   6.240
 4876POPC   C2B62840   7.790  37.321   6.666
 4876POPC   C3B62841   7.746  37.146   7.035
 4876POPC   C4B62842   7.449  37.344   7.241
 4877POPC   NC362843  22.870   1.164   5.375
 4877POPC   PO462844  22.805   1.748   5.703
 4877POPC   GL162845  22.928   1.338   5.843
 4877POPC   GL262846  23.235   1.161   5.743
 4877POPC   C1A62847  22.863   1.203   6.223
 4877POPC   D2A62848  22.878   1.382   6.616
 4877POPC   C3A62849  22.654   1.068   6.826
 4877POPC   C4A62850  22.525   1.207   7.196
 4877POPC   C1B62851  23.344   1.028   6.181
 4877POPC   C2B62852  23.151   0.951   6.613
 4877POPC   C3B62853  23.116   1.085   7.086
 4877POPC   C4B62854  23.128   1.011   7.577
 4878POPC   NC362855  16.522  41.477   5.412
 4878POPC   PO462856  16.928  41.979   5.315
 4878POPC   GL162857  17.002  41.738   5.734
 4878POPC   GL262858  16.955  41.378   5.758
 4878POPC   C1A62859  17.044  41.706   6.238
 4878POPC   D2A62860  16.851  41.841   6.652
 4878POPC   C3A62861  17.001  41.816   7.090
 4878POPC   C4A62862  16.772  41.702   7.458
 4878POPC   C1B62863  16.805  41.260   6.186
 4878POPC   C2B62864  16.964  41.322   6.613
 4878POPC   C3B62865  16.808  41.301   7.047
 4878POPC   C4B62866  16.481  41.274   7.373
 4879POPC   NC362867  37.323  23.763   5.482
 4879POPC   PO462868  37.981  23.841   5.209
 4879POPC   GL162869  37.826  23.975   5.656
 4879POPC   GL262870  37.909  23.646   5.768
 4879POPC   C1A62871  37.611  23.894   6.117
 4879POPC   D2A62872  37.656  23.698   6.562
 4879POPC   C3A62873  37.739  23.896   6.925
 4879POPC   C4A62874  37.494  24.055   7.241
 4879POPC   C1B62875  38.035  23.602   6.204
 4879POPC   C2B62876  38.006  23.311   6.530
 4879POPC   C3B62877  37.916  23.390   6.960
 4879POPC   C4B62878  37.782  23.630   7.359
 4880POPC   NC362879  39.622  15.947   5.561
 4880POPC   PO462880  39.019  16.290   5.558
 4880POPC   GL162881  39.184  15.970   5.832
 4880POPC   GL262882  39.042  15.707   5.678
 4880POPC   C1A62883  39.363  15.870   6.225
 4880POPC   D2A62884  39.270  16.108   6.583
 4880POPC   C3A62885  39.054  16.006   6.948
 4880POPC   C4A62886  39.263  15.957   7.358
 4880POPC   C1B62887  38.966  15.571   6.173
 4880POPC   C2B62888  39.148  15.587   6.654
 4880POPC   C3B62889  39.142  15.524   7.146
 4880POPC   C4B62890  39.004  15.604   7.610
 4881POPC   NC362891  38.236  33.538   5.054
 4881POPC   PO462892  37.749  33.866   5.401
 4881POPC   GL162893  37.726  33.825   5.828
 4881POPC   GL262894  37.379  33.784   5.825
 4881POPC   C1A62895  37.825  33.681   6.227
 4881POPC   D2A62896  37.689  33.841   6.613
 4881POPC   C3A62897  37.922  33.785   6.949
 4881POPC   C4A62898  37.863  33.579   7.321
 4881POPC   C1B62899  37.474  33.375   6.027
 4881POPC   C2B62900  37.465  33.336   6.469
 4881POPC   C3B62901  37.271  33.583   6.784
 4881POPC   C4B62902  37.408  33.740   7.194
 4882POPC   NC362903  34.866  24.631   5.414
 4882POPC   PO462904  34.419  24.183   5.246
 4882POPC   GL162905  34.289  24.242   5.703
 4882POPC   GL262906  34.543  24.481   5.785
 4882POPC   C1A62907  34.403  24.169   6.148
 4882POPC   D2A62908  34.515  24.370   6.556
 4882POPC   C3A62909  34.376  24.218   6.957
 4882POPC   C4A62910  34.320  24.402   7.360
 4882POPC   C1B62911  34.731  24.655   6.182
 4882POPC   C2B62912  34.687  24.838   6.632
 4882POPC   C3B62913  34.615  24.730   7.092
 4882POPC   C4B62914  34.652  24.741   7.577
 4883POPC   NC362915   2.188   2.338   5.227
 4883POPC   PO462916   1.757   2.912   5.284
 4883POPC   GL162917   1.916   2.902   5.778
 4883POPC   GL262918   2.151   2.628   5.781
 4883POPC   C1A62919   1.749   2.695   6.173
 4883POPC   D2A62920   1.818   2.621   6.575
 4883POPC   C3A62921   2.080   2.924   6.678
 4883POPC   C4A62922   1.983   3.139   7.010
 4883POPC   C1B62923   2.269   2.775   6.190
 4883POPC   C2B62924   2.379   2.528   6.576
 4883POPC   C3B62925   2.136   2.528   6.995
 4883POPC   C4B62926   2.032   2.707   7.442
 4884POPC   NC362927  35.499  20.701   5.352
 4884POPC   PO462928  35.003  20.267   5.544
 4884POPC   GL162929  35.261  20.488   5.860
 4884POPC   GL262930  35.339  20.828   5.801
 4884POPC   C1A62931  35.417  20.598   6.282
 4884POPC   D2A62932  35.620  20.495   6.663
 4884POPC   C3A62933  35.317  20.514   6.975
 4884POPC   C4A62934  34.966  20.252   7.100
 4884POPC   C1B62935  35.659  21.010   6.066
 4884POPC   C2B62936  35.602  21.137   6.469
 4884POPC   C3B62937  35.664  20.967   6.862
 4884POPC   C4B62938  35.559  21.041   7.261
 4885POPC   NC362939   2.284  10.748   5.091
 4885POPC   PO462940   1.883  11.258   5.417
 4885POPC   GL162941   1.985  11.279   5.835
 4885POPC   GL262942   2.324  11.384   5.852
 4885POPC   C1A62943   1.789  11.271   6.230
 4885POPC   D2A62944   1.954  11.365   6.614
 4885POPC   C3A62945   1.797  11.299   6.994
 4885POPC   C4A62946   2.129  11.234   7.291
 4885POPC   C1B62947   2.241  11.591   6.221
 4885POPC   C2B62948   2.364  11.685   6.625
 4885POPC   C3B62949   2.171  11.664   7.006
 4885POPC   C4B62950   2.283  11.758   7.400
 4886POPC   NC362951   4.050  13.258   5.234
 4886POPC   PO462952   4.586  12.831   5.395
 4886POPC   GL162953   4.455  12.680   5.828
 4886POPC   GL262954   4.122  12.528   5.784
 4886POPC   C1A62955   4.309  12.924   6.183
 4886POPC   D2A62956   4.380  13.197   6.516
 4886POPC   C3A62957   4.330  13.002   6.905
 4886POPC   C4A62958   4.268  13.123   7.332
 4886POPC   C1B62959   4.176  12.443   6.220
 4886POPC   C2B62960   4.347  12.556   6.612
 4886POPC   C3B62961   4.191  12.548   7.042
 4886POPC   C4B62962   4.070  12.642   7.458
 4887POPC   NC362963  35.196   4.024   5.562
 4887POPC   PO462964  35.633   4.378   5.225
 4887POPC   GL162965  35.562   4.406   5.766
 4887POPC   GL262966  35.260   4.515   5.902
 4887POPC   C1A62967  35.474   4.263   6.276
 4887POPC   D2A62968  35.232   4.281   6.706
 4887POPC   C3A62969  35.456   4.350   7.115
 4887POPC   C4A62970  35.767   4.058   7.311
 4887POPC   C1B62971  35.139   4.661   6.320
 4887POPC   C2B62972  35.117   4.797   6.734
 4887POPC   C3B62973  34.948   4.550   7.055
 4887POPC   C4B62974  35.046   4.498   7.472
 4888POPC   NC362975  19.334  16.301   5.615
 4888POPC   PO462976  19.321  16.813   5.284
 4888POPC   GL162977  19.087  16.821   5.676
 4888POPC   GL262978  18.851  16.557   5.777
 4888POPC   C1A62979  19.180  16.864   6.140
 4888POPC   D2A62980  19.361  17.042   6.558
 4888POPC   C3A62981  19.200  16.861   6.962
 4888POPC   C4A62982  19.036  17.025   7.336
 4888POPC   C1B62983  18.719  16.611   6.248
 4888POPC   C2B62984  18.739  16.717   6.731
 4888POPC   C3B62985  18.619  16.758   7.203
 4888POPC   C4B62986  18.578  16.614   7.656
 4889POPC   NC362987  38.245  35.912   5.597
 4889POPC   PO462988  38.699  35.374   5.500
 4889POPC   GL162989  38.503  35.441   5.871
 4889POPC   GL262990  38.215  35.215   5.809
 4889POPC   C1A62991  38.560  35.296   6.295
 4889POPC   D2A62992  38.718  35.179   6.695
 4889POPC   C3A62993  38.522  35.286   7.053
 4889POPC   C4A62994  38.740  35.538   7.342
 4889POPC   C1B62995  38.160  34.962   6.178
 4889POPC   C2B62996  38.299  34.905   6.607
 4889POPC   C3B62997  38.085  34.977   7.021
 4889POPC   C4B62998  38.174  35.157   7.440
 4890POPC   NC362999   7.142  23.846   5.380
 4890POPC   PO463000   7.728  23.593   5.398
 4890POPC   GL163001   7.450  23.605   5.753
 4890POPC   GL263002   7.208  23.334   5.780
 4890POPC   C1A63003   7.424  23.728   6.191
 4890POPC   D2A63004   7.214  23.797   6.589
 4890POPC   C3A63005   7.490  23.864   6.942
 4890POPC   C4A63006   7.270  23.756   7.262
 4890POPC   C1B63007   7.572  23.245   6.111
 4890POPC   C2B63008   7.722  23.350   6.538
 4890POPC   C3B63009   7.461  23.356   6.908
 4890POPC   C4B63010   7.308  23.212   7.297
 4891POPC   NC363011  18.138  25.100   5.012
 4891POPC   PO463012  17.914  25.532   5.520
 4891POPC   GL163013  18.253  25.275   5.740
 4891POPC   GL263014  18.619  25.136   5.778
 4891POPC   C1A63015  18.263  25.100   6.157
 4891POPC   D2A63016  18.054  25.206   6.539
 4891POPC   C3A63017  18.219  25.422   6.884
 4891POPC   C4A63018  18.118  25.154   7.213
 4891POPC   C1B63019  18.774  25.015   6.189
 4891POPC   C2B63020  18.613  24.927   6.603
 4891POPC   C3B63021  18.606  25.066   7.030
 4891POPC   C4B63022  18.552  25.395   7.317
 4892POPC   NC363023  17.977  20.070   5.104
 4892POPC   PO463024  18.528  19.938   5.535
 4892POPC   GL163025  18.148  19.842   5.806
 4892POPC   GL263026  18.109  19.476   5.837
 4892POPC   C1A63027  18.056  19.982   6.264
 4892POPC   D2A63028  18.375  19.912   6.609
 4892POPC   C3A63029  18.395  20.020   7.041
 4892POPC   C4A63030  18.359  20.384   7.278
 4892POPC   C1B63031  18.446  19.624   6.174
 4892POPC   C2B63032  18.649  19.474   6.518
 4892POPC   C3B63033  18.543  19.526   6.920
 4892POPC   C4B63034  18.696  19.592   7.303
 4893POPC   NC363035  39.468  21.414   5.090
 4893POPC   PO463036  39.053  21.070   5.522
 4893POPC   GL163037  39.195  21.275   5.907
 4893POPC   GL263038  39.443  21.499   5.780
 4893POPC   C1A63039  39.169  21.225   6.358
 4893POPC   D2A63040  38.911  21.396   6.696
 4893POPC   C3A63041  39.149  21.439   7.077
 4893POPC   C4A63042  39.472  21.157   7.201
 4893POPC   C1B63043  39.543  21.575   6.201
 4893POPC   C2B63044  39.390  21.642   6.622
 4893POPC   C3B63045  39.615  21.613   7.012
 4893POPC   C4B63046  39.579  21.557   7.478
 4894POPC   NC363047  10.136  40.641   5.388
 4894POPC   PO463048  10.610  41.148   5.208
 4894POPC   GL163049  10.579  41.001   5.719
 4894POPC   GL263050  10.411  40.659   5.869
 4894POPC   C1A63051  10.520  41.005   6.212
 4894POPC   D2A63052  10.582  40.686   6.537
 4894POPC   C3A63053  10.695  40.784   6.958
 4894POPC   C4A63054  10.486  41.072   7.175
 4894POPC   C1B63055  10.581  40.326   6.183
 4894POPC   C2B63056  10.684  40.201   6.641
 4894POPC   C3B63057  10.388  40.347   6.994
 4894POPC   C4B63058  10.405  40.603   7.357
 4895POPC   NC363059   7.722   1.163   5.598
 4895POPC   PO463060   7.271   1.470   5.099
 4895POPC   GL163061   7.351   1.528   5.640
 4895POPC   GL263062   7.254   1.226   5.814
 4895POPC   C1A63063   7.270   1.577   6.181
 4895POPC   D2A63064   7.064   1.344   6.558
 4895POPC   C3A63065   7.205   1.316   6.971
 4895POPC   C4A63066   7.524   1.137   7.172
 4895POPC   C1B63067   7.433   1.093   6.224
 4895POPC   C2B63068   7.526   1.037   6.653
 4895POPC   C3B63069   7.878   0.873   6.912
 4895POPC   C4B63070   7.831   0.766   7.315
 4896POPC   NC363071  12.924  39.596   5.389
 4896POPC   PO463072  12.884  40.262   5.383
 4896POPC   GL163073  13.085  40.090   5.739
 4896POPC   GL263074  12.882  40.286   5.936
 4896POPC   C1A63075  13.126  39.902   6.175
 4896POPC   D2A63076  12.867  39.837   6.553
 4896POPC   C3A63077  13.064  39.719   6.945
 4896POPC   C4A63078  13.060  40.024   7.246
 4896POPC   C1B63079  12.570  40.141   6.222
 4896POPC   C2B63080  12.396  40.086   6.643
 4896POPC   C3B63081  12.589  40.100   7.059
 4896POPC   C4B63082  12.574  40.391   7.430
 4897POPC   NC363083  17.971   5.245   5.467
 4897POPC   PO463084  18.187   6.010   5.381
 4897POPC   GL163085  18.153   5.822   5.805
 4897POPC   GL263086  17.900   5.559   5.860
 4897POPC   C1A63087  18.158   5.903   6.244
 4897POPC   D2A63088  18.466   6.074   6.502
 4897POPC   C3A63089  18.351   5.959   6.898
 4897POPC   C4A63090  18.557   6.014   7.266
 4897POPC   C1B63091  18.010   5.421   6.281
 4897POPC   C2B63092  18.113   5.529   6.729
 4897POPC   C3B63093  18.203   5.549   7.182
 4897POPC   C4B63094  17.955   5.522   7.586
 4898POPC   NC363095   9.601  35.713   5.384
 4898POPC   PO463096  10.103  35.288   5.308
 4898POPC   GL163097   9.887  35.290   5.714
 4898POPC   GL263098   9.861  34.970   5.911
 4898POPC   C1A63099   9.834  35.504   6.131
 4898POPC   D2A63100   9.994  35.435   6.546
 4898POPC   C3A63101   9.841  35.586   6.936
 4898POPC   C4A63102  10.004  35.590   7.343
 4898POPC   C1B63103   9.563  35.061   6.286
 4898POPC   C2B63104   9.542  35.196   6.752
 4898POPC   C3B63105   9.795  35.116   7.164
 4898POPC   C4B63106   9.636  34.931   7.584
 4899POPC   NC363107  41.751  27.671   5.372
 4899POPC   PO463108  41.085  27.448   5.304
 4899POPC   GL163109  41.297  27.579   5.723
 4899POPC   GL263110  41.466  27.915   5.736
 4899POPC   C1A63111  41.572  27.472   6.119
 4899POPC   D2A63112  41.768  27.333   6.539
 4899POPC   C3A63113  41.595  27.551   6.905
 4899POPC   C4A63114  41.812  27.938   7.131
 4899POPC   C1B63115  41.638  28.010   6.146
 4899POPC   C2B63116  41.458  27.840   6.506
 4899POPC   C3B63117  41.332  27.978   6.904
 4899POPC   C4B63118  41.312  27.763   7.263
 4900POPC   NC363119  28.360   6.120   5.216
 4900POPC   PO463120  27.792   5.891   5.442
 4900POPC   GL163121  28.068   6.121   5.753
 4900POPC   GL263122  28.447   6.191   5.735
 4900POPC   C1A63123  28.176   5.989   6.168
 4900POPC   D2A63124  28.381   5.899   6.578
 4900POPC   C3A63125  28.221   5.793   6.991
 4900POPC   C4A63126  28.301   5.541   7.398
 4900POPC   C1B63127  28.699   6.090   6.113
 4900POPC   C2B63128  28.883   5.986   6.503
 4900POPC   C3B63129  28.881   6.161   6.927
 4900POPC   C4B63130  28.615   5.982   7.251
 4901POPC   NC363131  30.961  10.892   5.406
 4901POPC   PO463132  30.597  10.415   5.390
 4901POPC   GL163133  30.731  10.536   5.754
 4901POPC   GL263134  30.927  10.232   5.776
 4901POPC   C1A63135  30.528  10.644   6.146
 4901POPC   D2A63136  30.709  10.802   6.535
 4901POPC   C3A63137  30.526  10.665   6.905
 4901POPC   C4A63138  30.671  10.512   7.275
 4901POPC   C1B63139  30.738  10.165   6.196
 4901POPC   C2B63140  30.634  10.226   6.634
 4901POPC   C3B63141  30.797  10.085   7.030
 4901POPC   C4B63142  30.673  10.027   7.482
 4902POPC   NC363143   6.646   4.107   5.091
 4902POPC   PO463144   6.338   4.553   5.514
 4902POPC   GL163145   6.389   4.240   5.799
 4902POPC   GL263146   6.677   4.411   5.924
 4902POPC   C1A63147   6.467   4.036   6.210
 4902POPC   D2A63148   6.531   4.295   6.578
 4902POPC   C3A63149   6.485   4.070   6.946
 4902POPC   C4A63150   6.604   4.086   7.378
 4902POPC   C1B63151   6.946   4.672   6.185
 4902POPC   C2B63152   7.000   4.604   6.612
 4902POPC   C3B63153   6.747   4.557   6.990
 4902POPC   C4B63154   7.137   4.531   7.155
 4903POPC   NC363155  41.254  24.683   5.500
 4903POPC   PO463156  40.693  24.413   5.398
 4903POPC   GL163157  40.787  24.287   5.787
 4903POPC   GL263158  40.640  24.598   5.891
 4903POPC   C1A63159  40.665  24.088   6.163
 4903POPC   D2A63160  40.789  24.116   6.602
 4903POPC   C3A63161  40.674  24.411   6.951
 4903POPC   C4A63162  40.646  24.335   7.429
 4903POPC   C1B63163  40.767  24.580   6.320
 4903POPC   C2B63164  41.083  24.589   6.625
 4903POPC   C3B63165  41.098  24.786   6.998
 4903POPC   C4B63166  40.729  24.825   7.277
 4904POPC   NC363167  44.829  14.806   5.602
 4904POPC   PO463168  44.516  15.396   5.393
 4904POPC   GL163169  44.631  15.249   5.801
 4904POPC   GL263170  44.944  15.428   5.880
 4904POPC   C1A63171  44.542  15.327   6.257
 4904POPC   D2A63172  44.692  15.473   6.672
 4904POPC   C3A63173  44.529  15.337   7.075
 4904POPC   C4A63174  44.330  14.918   7.113
 4904POPC   C1B63175  44.956  15.051   6.174
 4904POPC   C2B63176  44.705  14.852   6.492
 4904POPC   C3B63177  44.865  14.726   6.873
 4904POPC   C4B63178   0.099  14.937   7.191
 4905POPC   NC363179  37.559  15.583   5.116
 4905POPC   PO463180  37.761  15.107   5.624
 4905POPC   GL163181  37.781  15.219   6.012
 4905POPC   GL263182  37.594  15.513   5.941
 4905POPC   C1A63183  37.833  15.000   6.380
 4905POPC   D2A63184  37.965  14.769   6.712
 4905POPC   C3A63185  37.856  15.059   7.024
 4905POPC   C4A63186  37.599  15.124   7.380
 4905POPC   C1B63187  37.415  15.327   6.331
 4905POPC   C2B63188  37.482  15.310   6.771
 4905POPC   C3B63189  37.280  15.446   7.132
 4905POPC   C4B63190  37.134  15.444   7.582
 4906POPC   NC363191  38.855  39.055   5.455
 4906POPC   PO463192  38.191  39.375   5.522
 4906POPC   GL163193  38.328  39.121   5.841
 4906POPC   GL263194  38.638  39.319   5.873
 4906POPC   C1A63195  38.282  39.197   6.269
 4906POPC   D2A63196  38.467  39.113   6.647
 4906POPC   C3A63197  38.191  39.147   6.968
 4906POPC   C4A63198  38.187  39.466   7.296
 4906POPC   C1B63199  38.743  38.993   6.144
 4906POPC   C2B63200  38.919  38.922   6.512
 4906POPC   C3B63201  38.916  38.998   6.946
 4906POPC   C4B63202  38.646  39.307   7.142
 4907POPC   NC363203  13.162  20.123   5.138
 4907POPC   PO463204  12.709  19.652   5.423
 4907POPC   GL163205  12.820  19.832   5.796
 4907POPC   GL263206  12.813  19.551   5.925
 4907POPC   C1A63207  12.832  20.036   6.199
 4907POPC   D2A63208  13.010  19.926   6.600
 4907POPC   C3A63209  13.227  20.170   6.875
 4907POPC   C4A63210  13.048  20.162   7.246
 4907POPC   C1B63211  12.579  19.587   6.277
 4907POPC   C2B63212  12.520  19.872   6.611
 4907POPC   C3B63213  12.687  19.868   7.045
 4907POPC   C4B63214  12.800  19.768   7.503
 4908POPC   NC363215   4.678  14.697   5.549
 4908POPC   PO463216   5.091  14.225   5.361
 4908POPC   GL163217   4.972  14.339   5.769
 4908POPC   GL263218   5.204  14.535   5.950
 4908POPC   C1A63219   4.903  14.240   6.232
 4908POPC   D2A63220   4.910  14.499   6.576
 4908POPC   C3A63221   5.259  14.349   6.773
 4908POPC   C4A63222   5.279  14.449   7.157
 4908POPC   C1B63223   5.338  14.070   6.020
 4908POPC   C2B63224   5.362  13.917   6.478
 4908POPC   C3B63225   5.443  13.884   6.957
 4908POPC   C4B63226   5.433  13.987   7.411
 4909POPC   NC363227   2.904  36.622   5.232
 4909POPC   PO463228   3.618  36.526   5.271
 4909POPC   GL163229   3.619  36.829   5.687
 4909POPC   GL263230   3.794  37.173   5.699
 4909POPC   C1A63231   3.428  37.103   6.053
 4909POPC   D2A63232   3.576  37.260   6.466
 4909POPC   C3A63233   3.471  37.110   6.910
 4909POPC   C4A63234   3.143  37.271   7.209
 4909POPC   C1B63235   3.894  36.913   6.112
 4909POPC   C2B63236   3.843  36.814   6.555
 4909POPC   C3B63237   3.963  36.842   6.990
 4909POPC   C4B63238   3.742  36.895   7.344
 4910POPC   NC363239  12.882  19.217   5.455
 4910POPC   PO463240  13.219  18.677   5.448
 4910POPC   GL163241  12.986  18.800   5.800
 4910POPC   GL263242  13.114  19.119   5.902
 4910POPC   C1A63243  12.827  18.806   6.215
 4910POPC   D2A63244  12.957  18.923   6.613
 4910POPC   C3A63245  13.033  18.677   6.940
 4910POPC   C4A63246  12.867  18.904   7.253
 4910POPC   C1B63247  13.018  19.299   6.302
 4910POPC   C2B63248  12.819  19.430   6.697
 4910POPC   C3B63249  12.784  19.377   7.118
 4910POPC   C4B63250  13.094  19.358   7.428
 4911POPC   NC363251  26.261  28.578   5.504
 4911POPC   PO463252  26.085  27.924   5.289
 4911POPC   GL163253  25.950  28.179   5.653
 4911POPC   GL263254  25.828  28.530   5.798
 4911POPC   C1A63255  25.985  28.171   6.100
 4911POPC   D2A63256  26.044  28.012   6.486
 4911POPC   C3A63257  25.857  28.148   6.810
 4911POPC   C4A63258  26.020  28.313   7.175
 4911POPC   C1B63259  26.027  28.673   6.227
 4911POPC   C2B63260  26.126  28.601   6.700
 4911POPC   C3B63261  26.478  28.522   7.021
 4911POPC   C4B63262  26.404  28.495   7.470
 4912POPC   NC363263  18.032  35.319   5.330
 4912POPC   PO463264  17.366  35.389   5.247
 4912POPC   GL163265  17.420  35.241   5.703
 4912POPC   GL263266  17.754  35.177   5.772
 4912POPC   C1A63267  17.351  35.434   6.149
 4912POPC   D2A63268  17.340  35.283   6.584
 4912POPC   C3A63269  17.170  35.510   6.940
 4912POPC   C4A63270  17.307  35.438   7.358
 4912POPC   C1B63271  17.737  35.114   6.240
 4912POPC   C2B63272  17.755  34.987   6.694
 4912POPC   C3B63273  17.619  35.131   7.110
 4912POPC   C4B63274  17.796  35.316   7.542
 4913POPC   NC363275  40.813  14.095   5.224
 4913POPC   PO463276  40.482  14.723   5.306
 4913POPC   GL163277  40.644  14.599   5.750
 4913POPC   GL263278  40.969  14.441   5.800
 4913POPC   C1A63279  40.767  14.645   6.234
 4913POPC   D2A63280  40.813  14.754   6.703
 4913POPC   C3A63281  40.626  14.407   6.987
 4913POPC   C4A63282  40.629  14.042   7.321
 4913POPC   C1B63283  41.271  14.542   6.168
 4913POPC   C2B63284  41.332  14.720   6.597
 4913POPC   C3B63285  41.244  14.580   7.010
 4913POPC   C4B63286  40.984  14.436   7.368
 4914POPC   NC363287  22.059  12.940   5.400
 4914POPC   PO463288  22.580  12.476   5.296
 4914POPC   GL163289  22.306  12.590   5.694
 4914POPC   GL263290  21.938  12.474   5.763
 4914POPC   C1A63291  22.259  12.890   6.091
 4914POPC   D2A63292  22.403  12.864   6.543
 4914POPC   C3A63293  22.219  13.025   6.947
 4914POPC   C4A63294  21.783  13.124   7.092
 4914POPC   C1B63295  21.816  12.612   6.204
 4914POPC   C2B63296  21.883  12.781   6.651
 4914POPC   C3B63297  21.934  12.608   7.091
 4914POPC   C4B63298  21.844  12.435   7.542
 4915POPC   NC363299  39.801  43.324   5.612
 4915POPC   PO463300  39.261  42.915   5.508
 4915POPC   GL163301  39.446  43.029   5.882
 4915POPC   GL263302  39.356  43.391   5.886
 4915POPC   C1A63303  39.250  42.839   6.218
 4915POPC   D2A63304  39.028  42.914   6.556
 4915POPC   C3A63305  39.251  43.062   6.887
 4915POPC   C4A63306  39.467  42.783   7.086
 4915POPC   C1B63307  38.993  43.280   6.164
 4915POPC   C2B63308  38.905  43.420   6.595
 4915POPC   C3B63309  38.868  43.335   7.070
 4915POPC   C4B63310  39.095  43.409   7.444
 4916POPC   NC363311  16.953  34.101   5.292
 4916POPC   PO463312  16.660  34.697   5.395
 4916POPC   GL163313  16.732  34.486   5.812
 4916POPC   GL263314  16.517  34.173   5.833
 4916POPC   C1A63315  16.727  34.632   6.269
 4916POPC   D2A63316  16.416  34.770   6.613
 4916POPC   C3A63317  16.611  34.790   7.018
 4916POPC   C4A63318  16.925  34.461   7.101
 4916POPC   C1B63319  16.579  34.126   6.296
 4916POPC   C2B63320  16.646  34.326   6.703
 4916POPC   C3B63321  16.417  34.333   7.116
 4916POPC   C4B63322  16.362  34.162   7.530
 4917POPC   NC363323   9.159  43.063   5.361
 4917POPC   PO463324   8.931  43.595   5.408
 4917POPC   GL163325   8.907  43.333   5.808
 4917POPC   GL263326   9.222  43.223   5.930
 4917POPC   C1A63327   8.785  43.286   6.279
 4917POPC   D2A63328   8.885  43.265   6.773
 4917POPC   C3A63329   8.847  42.852   7.029
 4917POPC   C4A63330   8.937  42.529   7.360
 4917POPC   C1B63331   9.271  43.374   6.358
 4917POPC   C2B63332   9.367  43.113   6.720
 4917POPC   C3B63333   9.266  43.111   7.169
 4917POPC   C4B63334   9.305  43.291   7.634
 4918POPC   NC363335  18.155  24.198   5.377
 4918POPC   PO463336  18.426  24.888   5.334
 4918POPC   GL163337  18.349  24.706   5.759
 4918POPC   GL263338  18.428  24.365   5.762
 4918POPC   C1A63339  18.479  24.603   6.203
 4918POPC   D2A63340  18.552  24.403   6.602
 4918POPC   C3A63341  18.289  24.625   6.887
 4918POPC   C4A63342  18.307  24.669   7.307
 4918POPC   C1B63343  18.116  24.247   6.099
 4918POPC   C2B63344  18.032  24.250   6.560
 4918POPC   C3B63345  18.113  24.143   7.008
 4918POPC   C4B63346  18.535  24.071   7.168
 4919POPC   NC363347  21.341   1.640   5.499
 4919POPC   PO463348  21.641   0.997   5.528
 4919POPC   GL163349  21.484   1.233   5.856
 4919POPC   GL263350  21.197   1.031   5.963
 4919POPC   C1A63351  21.514   1.196   6.300
 4919POPC   D2A63352  21.314   1.150   6.649
 4919POPC   C3A63353  21.576   1.155   7.007
 4919POPC   C4A63354  21.575   1.115   7.451
 4919POPC   C1B63355  21.065   1.456   6.128
 4919POPC   C2B63356  21.026   1.736   6.475
 4919POPC   C3B63357  21.150   1.577   6.864
 4919POPC   C4B63358  21.122   1.305   7.214
 4920POPC   NC363359   2.789   7.498   5.396
 4920POPC   PO463360   2.296   7.050   5.657
 4920POPC   GL163361   2.690   7.194   5.830
 4920POPC   GL263362   2.644   7.556   5.884
 4920POPC   C1A63363   2.775   7.115   6.267
 4920POPC   D2A63364   2.500   7.123   6.633
 4920POPC   C3A63365   2.655   7.196   7.025
 4920POPC   C4A63366   2.658   7.611   7.185
 4920POPC   C1B63367   2.924   7.602   6.235
 4920POPC   C2B63368   2.924   7.469   6.659
 4920POPC   C3B63369   3.114   7.420   7.052
 4920POPC   C4B63370   3.181   7.717   7.338
 4921POPC   NC363371  33.419  22.986   5.221
 4921POPC   PO463372  32.845  23.256   5.555
 4921POPC   GL163373  33.035  22.991   5.839
 4921POPC   GL263374  33.212  22.697   5.661
 4921POPC   C1A63375  32.858  22.822   6.188
 4921POPC   D2A63376  32.940  23.072   6.511
 4921POPC   C3A63377  32.734  23.008   6.864
 4921POPC   C4A63378  32.929  23.232   7.200
 4921POPC   C1B63379  33.348  22.666   6.100
 4921POPC   C2B63380  33.201  22.646   6.535
 4921POPC   C3B63381  33.203  22.819   6.964
 4921POPC   C4B63382  33.352  22.605   7.321
 4922POPC   NC363383  29.319  36.523   5.341
 4922POPC   PO463384  29.200  37.192   5.417
 4922POPC   GL163385  29.209  36.976   5.809
 4922POPC   GL263386  29.364  36.666   5.870
 4922POPC   C1A63387  29.284  36.989   6.269
 4922POPC   D2A63388  29.176  37.251   6.613
 4922POPC   C3A63389  28.817  37.061   6.816
 4922POPC   C4A63390  28.696  37.011   7.224
 4922POPC   C1B63391  29.653  36.589   6.223
 4922POPC   C2B63392  29.590  36.444   6.644
 4922POPC   C3B63393  29.474  36.629   7.025
 4922POPC   C4B63394  29.222  36.978   7.154
 4923POPC   NC363395   1.488  10.471   5.399
 4923POPC   PO463396   0.897  10.676   5.799
 4923POPC   GL163397   1.162  10.440   5.991
 4923POPC   GL263398   1.515  10.412   5.919
 4923POPC   C1A63399   1.144  10.491   6.414
 4923POPC   D2A63400   1.151  10.153   6.664
 4923POPC   C3A63401   1.109  10.318   7.045
 4923POPC   C4A63402   1.183  10.782   7.077
 4923POPC   C1B63403   1.638  10.521   6.350
 4923POPC   C2B63404   1.738  10.877   6.627
 4923POPC   C3B63405   1.683  10.812   7.063
 4923POPC   C4B63406   1.564  10.410   7.249
 4924POPC   NC363407  41.801  14.149   5.369
 4924POPC   PO463408  41.505  13.543   5.302
 4924POPC   GL163409  41.531  13.434   5.783
 4924POPC   GL263410  41.378  13.115   5.914
 4924POPC   C1A63411  41.466  13.561   6.243
 4924POPC   D2A63412  41.321  13.843   6.588
 4924POPC   C3A63413  41.420  13.690   7.002
 4924POPC   C4A63414  41.533  13.729   7.421
 4924POPC   C1B63415  41.100  13.220   6.296
 4924POPC   C2B63416  41.214  13.298   6.751
 4924POPC   C3B63417  41.279  13.264   7.232
 4924POPC   C4B63418  41.602  13.261   7.590
 4925POPC   NC363419   3.344  44.297   5.375
 4925POPC   PO463420   3.789  44.849   5.379
 4925POPC   GL163421   3.611  44.624   5.711
 4925POPC   GL263422   3.284  44.773   5.719
 4925POPC   C1A63423   3.536  44.631   6.165
 4925POPC   D2A63424   3.227  44.544   6.508
 4925POPC   C3A63425   3.481  44.563   6.849
 4925POPC   C4A63426   3.617  44.655   7.242
 4925POPC   C1B63427   3.108  44.872   6.128
 4925POPC   C2B63428   3.265   0.044   6.558
 4925POPC   C3B63429   3.234  44.960   7.012
 4925POPC   C4B63430   3.258  44.900   7.506
 4926POPC   NC363431  38.966  25.567   5.545
 4926POPC   PO463432  38.938  24.934   5.242
 4926POPC   GL163433  39.287  25.056   5.648
 4926POPC   GL263434  39.518  25.325   5.836
 4926POPC   C1A63435  39.291  25.066   6.174
 4926POPC   D2A63436  39.082  25.180   6.587
 4926POPC   C3A63437  39.257  25.159   7.044
 4926POPC   C4A63438  39.011  24.908   7.371
 4926POPC   C1B63439  39.294  25.600   6.131
 4926POPC   C2B63440  39.018  25.692   6.445
 4926POPC   C3B63441  39.176  25.625   6.830
 4926POPC   C4B63442  39.142  25.700   7.234
 4927POPC   NC363443  44.121  11.334   5.212
 4927POPC   PO463444  43.581  11.363   5.436
 4927POPC   GL163445  43.963  11.396   5.725
 4927POPC   GL263446  44.274  11.587   5.640
 4927POPC   C1A63447  44.048  11.290   6.156
 4927POPC   D2A63448  43.767  11.414   6.475
 4927POPC   C3A63449  43.810  11.264   6.846
 4927POPC   C4A63450  43.819  11.109   7.199
 4927POPC   C1B63451  44.277  11.741   6.104
 4927POPC   C2B63452  44.196  11.669   6.550
 4927POPC   C3B63453  44.380  11.604   6.973
 4927POPC   C4B63454  44.354  11.712   7.432
 4928POPC   NC363455  14.677  35.559   5.483
 4928POPC   PO463456  14.133  35.109   5.581
 4928POPC   GL163457  14.270  35.440   5.845
 4928POPC   GL263458  14.611  35.367   5.962
 4928POPC   C1A63459  14.289  35.534   6.304
 4928POPC   D2A63460  14.621  35.387   6.613
 4928POPC   C3A63461  14.465  35.448   7.036
 4928POPC   C4A63462  14.062  35.390   7.303
 4928POPC   C1B63463  14.789  35.709   6.232
 4928POPC   C2B63464  14.953  35.803   6.668
 4928POPC   C3B63465  14.857  35.825   7.116
 4928POPC   C4B63466  14.995  35.785   7.531
 4929POPC   NC363467   1.020   0.096   5.587
 4929POPC   PO463468   0.751  44.558   5.251
 4929POPC   GL163469   0.903  44.560   5.719
 4929POPC   GL263470   1.231  44.674   5.837
 4929POPC   C1A63471   0.937  44.412   6.189
 4929POPC   D2A63472   0.843  44.250   6.648
 4929POPC   C3A63473   1.134  44.423   6.988
 4929POPC   C4A63474   1.254  44.641   7.359
 4929POPC   C1B63475   1.323  44.891   6.248
 4929POPC   C2B63476   1.362  44.810   6.690
 4929POPC   C3B63477   1.405   0.024   7.069
 4929POPC   C4B63478   1.757   0.066   7.308
 4930POPC   NC363479   0.235  43.524   5.390
 4930POPC   PO463480  44.748  43.116   5.400
 4930POPC   GL163481  44.625  43.210   5.822
 4930POPC   GL263482  44.322  42.972   5.886
 4930POPC   C1A63483  44.861  43.375   6.202
 4930POPC   D2A63484  44.951  43.187   6.616
 4930POPC   C3A63485  44.926  43.369   7.078
 4930POPC   C4A63486   0.005  43.616   7.504
 4930POPC   C1B63487  44.582  42.961   6.279
 4930POPC   C2B63488  44.575  42.869   6.716
 4930POPC   C3B63489  44.621  42.935   7.154
 4930POPC   C4B63490  44.640  42.835   7.589
 4931POPC   NC363491   0.291  30.049   5.403
 4931POPC   PO463492   0.825  29.780   5.346
 4931POPC   GL163493   0.568  29.882   5.804
 4931POPC   GL263494   0.187  29.866   5.871
 4931POPC   C1A63495   0.447  30.023   6.274
 4931POPC   D2A63496   0.786  30.276   6.547
 4931POPC   C3A63497   0.857  30.105   6.917
 4931POPC   C4A63498   0.611  30.111   7.270
 4931POPC   C1B63499  44.930  30.024   6.201
 4931POPC   C2B63500   0.033  30.049   6.642
 4931POPC   C3B63501   0.256  29.861   6.993
 4931POPC   C4B63502   0.431  29.635   7.346
 4932POPC   NC363503  35.635  30.474   5.323
 4932POPC   PO463504  35.082  30.847   5.456
 4932POPC   GL163505  35.133  30.826   5.882
 4932POPC   GL263506  35.434  30.623   5.813
 4932POPC   C1A63507  35.008  30.726   6.334
 4932POPC   D2A63508  35.287  30.589   6.679
 4932POPC   C3A63509  35.203  30.752   7.073
 4932POPC   C4A63510  35.108  30.819   7.509
 4932POPC   C1B63511  35.519  30.770   6.229
 4932POPC   C2B63512  35.757  30.762   6.586
 4932POPC   C3B63513  35.726  30.587   6.992
 4932POPC   C4B63514  35.629  30.792   7.347
 4933POPC   NC363515  14.702  30.612   5.412
 4933POPC   PO463516  14.072  30.650   5.494
 4933POPC   GL163517  14.290  30.791   5.853
 4933POPC   GL263518  14.648  30.890   5.853
 4933POPC   C1A63519  14.277  30.659   6.297
 4933POPC   D2A63520  14.070  30.651   6.681
 4933POPC   C3A63521  14.367  30.643   6.987
 4933POPC   C4A63522  14.327  30.817   7.371
 4933POPC   C1B63523  14.702  30.474   6.116
 4933POPC   C2B63524  14.686  30.343   6.552
 4933POPC   C3B63525  14.848  30.401   6.985
 4933POPC   C4B63526  14.687  30.480   7.387
 4934POPC   NC363527  21.830  39.219   5.404
 4934POPC   PO463528  22.439  38.884   5.508
 4934POPC   GL163529  22.098  38.999   5.803
 4934POPC   GL263530  22.068  39.352   5.840
 4934POPC   C1A63531  21.869  38.967   6.198
 4934POPC   D2A63532  21.756  39.140   6.628
 4934POPC   C3A63533  22.014  39.032   7.013
 4934POPC   C4A63534  22.117  39.032   7.458
 4934POPC   C1B63535  22.250  39.349   6.253
 4934POPC   C2B63536  22.161  39.532   6.657
 4934POPC   C3B63537  22.399  39.478   7.035
 4934POPC   C4B63538  22.536  39.073   7.146
 4935POPC   NC363539  18.028  42.694   5.429
 4935POPC   PO463540  17.765  43.296   5.371
 4935POPC   GL163541  17.772  43.165   5.814
 4935POPC   GL263542  17.711  42.822   5.800
 4935POPC   C1A63543  17.573  43.115   6.266
 4935POPC   D2A63544  17.353  43.130   6.707
 4935POPC   C3A63545  17.582  43.265   7.083
 4935POPC   C4A63546  17.567  43.109   7.498
 4935POPC   C1B63547  17.894  42.724   6.177
 4935POPC   C2B63548  17.650  42.728   6.616
 4935POPC   C3B63549  17.515  42.754   7.071
 4935POPC   C4B63550  17.750  42.645   7.471
 4936POPC   NC363551  29.775  35.002   5.458
 4936POPC   PO463552  30.146  35.663   5.411
 4936POPC   GL163553  29.884  35.534   5.785
 4936POPC   GL263554  29.982  35.193   5.902
 4936POPC   C1A63555  29.755  35.567   6.234
 4936POPC   D2A63556  29.903  35.341   6.610
 4936POPC   C3A63557  29.857  35.474   7.053
 4936POPC   C4A63558  29.974  35.161   7.410
 4936POPC   C1B63559  29.583  35.094   6.110
 4936POPC   C2B63560  29.442  35.027   6.563
 4936POPC   C3B63561  29.627  35.035   6.971
 4936POPC   C4B63562  29.482  35.062   7.409
 4937POPC   NC363563  44.254  41.474   5.497
 4937POPC   PO463564  43.611  41.533   5.406
 4937POPC   GL163565  43.841  41.595   5.802
 4937POPC   GL263566  43.717  41.329   6.039
 4937POPC   C1A63567  43.844  41.824   6.193
 4937POPC   D2A63568  43.828  41.625   6.583
 4937POPC   C3A63569  43.688  41.774   6.956
 4937POPC   C4A63570  43.655  41.476   7.290
 4937POPC   C1B63571  44.149  41.387   6.223
 4937POPC   C2B63572  44.330  41.480   6.640
 4937POPC   C3B63573  44.140  41.514   7.062
 4937POPC   C4B63574  44.119  41.533   7.518
 4938POPC   NC363575  35.965  43.653   5.562
 4938POPC   PO463576  36.527  43.944   5.342
 4938POPC   GL163577  36.317  43.992   5.770
 4938POPC   GL263578  35.974  44.070   5.863
 4938POPC   C1A63579  36.362  43.658   6.114
 4938POPC   D2A63580  36.358  43.605   6.574
 4938POPC   C3A63581  36.296  43.999   6.830
 4938POPC   C4A63582  36.145  44.161   7.245
 4938POPC   C1B63583  36.049  44.004   6.330
 4938POPC   C2B63584  35.863  43.719   6.659
 4938POPC   C3B63585  36.016  43.622   7.057
 4938POPC   C4B63586  35.979  43.716   7.485
 4939POPC   NC363587  37.990  26.949   5.421
 4939POPC   PO463588  37.314  26.729   5.303
 4939POPC   GL163589  37.562  26.774   5.708
 4939POPC   GL263590  37.818  26.515   5.781
 4939POPC   C1A63591  37.813  26.931   6.086
 4939POPC   D2A63592  37.887  26.744   6.504
 4939POPC   C3A63593  37.864  27.090   6.788
 4939POPC   C4A63594  37.870  27.180   7.211
 4939POPC   C1B63595  37.511  26.542   6.178
 4939POPC   C2B63596  37.378  26.835   6.543
 4939POPC   C3B63597  37.463  26.814   6.990
 4939POPC   C4B63598  37.845  26.626   7.132
 4940POPC   NC363599  24.995   9.154   5.209
 4940POPC   PO463600  24.352   8.933   5.191
 4940POPC   GL163601  24.451   8.993   5.650
 4940POPC   GL263602  24.081   9.039   5.741
 4940POPC   C1A63603  24.693   8.881   6.055
 4940POPC   D2A63604  24.883   8.865   6.486
 4940POPC   C3A63605  24.669   8.835   6.913
 4940POPC   C4A63606  24.838   8.784   7.301
 4940POPC   C1B63607  24.277   9.180   6.123
 4940POPC   C2B63608  24.375   9.045   6.531
 4940POPC   C3B63609  24.230   9.097   6.946
 4940POPC   C4B63610  24.200   8.755   7.251
 4941POPC   NC363611  10.590   8.811   5.335
 4941POPC   PO463612  10.431   9.394   5.521
 4941POPC   GL163613  10.458   9.030   5.798
 4941POPC   GL263614  10.765   9.070   5.908
 4941POPC   C1A63615  10.296   8.986   6.217
 4941POPC   D2A63616  10.449   8.891   6.626
 4941POPC   C3A63617  10.296   8.653   6.942
 4941POPC   C4A63618  10.373   8.825   7.356
 4941POPC   C1B63619  10.801   9.106   6.344
 4941POPC   C2B63620  10.852   9.229   6.759
 4941POPC   C3B63621  10.881   9.252   7.192
 4941POPC   C4B63622  10.947   9.209   7.660
 4942POPC   NC363623  38.357   6.993   5.452
 4942POPC   PO463624  38.085   6.354   5.330
 4942POPC   GL163625  38.337   6.530   5.654
 4942POPC   GL263626  38.068   6.733   5.817
 4942POPC   C1A63627  38.488   6.640   6.078
 4942POPC   D2A63628  38.384   6.539   6.525
 4942POPC   C3A63629  38.648   6.765   6.824
 4942POPC   C4A63630  38.752   6.650   7.247
 4942POPC   C1B63631  38.077   6.879   6.295
 4942POPC   C2B63632  38.131   6.947   6.728
 4942POPC   C3B63633  38.198   6.682   7.082
 4942POPC   C4B63634  38.289   6.808   7.504
 4943POPC   NC363635  24.901  33.698   5.566
 4943POPC   PO463636  25.365  34.037   5.178
 4943POPC   GL163637  25.425  34.050   5.685
 4943POPC   GL263638  25.345  33.720   5.829
 4943POPC   C1A63639  25.224  34.063   6.167
 4943POPC   D2A63640  25.003  33.883   6.561
 4943POPC   C3A63641  25.159  34.006   6.971
 4943POPC   C4A63642  25.520  33.786   7.084
 4943POPC   C1B63643  25.053  33.537   6.177
 4943POPC   C2B63644  25.010  33.351   6.636
 4943POPC   C3B63645  25.097  33.486   7.103
 4943POPC   C4B63646  25.336  33.489   7.508
 4944POPC   NC363647  35.897  18.474   5.182
 4944POPC   PO463648  36.312  18.005   5.234
 4944POPC   GL163649  36.396  17.966   5.690
 4944POPC   GL263650  36.398  18.341   5.743
 4944POPC   C1A63651  36.164  18.043   6.117
 4944POPC   D2A63652  35.864  18.291   6.406
 4944POPC   C3A63653  35.913  18.250   6.878
 4944POPC   C4A63654  35.995  17.973   7.272
 4944POPC   C1B63655  36.320  18.544   6.167
 4944POPC   C2B63656  36.354  18.317   6.542
 4944POPC   C3B63657  36.378  18.051   6.903
 4944POPC   C4B63658  36.285  18.386   7.209
 4945POPC   NC363659  34.366  17.224   5.438
 4945POPC   PO463660  34.685  17.806   5.213
 4945POPC   GL163661  34.751  17.591   5.610
 4945POPC   GL263662  34.505  17.802   5.758
 4945POPC   C1A63663  34.748  17.461   6.064
 4945POPC   D2A63664  34.460  17.475   6.438
 4945POPC   C3A63665  34.643  17.467   6.854
 4945POPC   C4A63666  34.690  17.248   7.217
 4945POPC   C1B63667  34.567  17.943   6.192
 4945POPC   C2B63668  34.597  17.936   6.646
 4945POPC   C3B63669  34.378  17.872   7.048
 4945POPC   C4B63670  34.645  17.713   7.391
 4946POPC   NC363671   2.381  40.811   5.123
 4946POPC   PO463672   1.821  40.633   5.511
 4946POPC   GL163673   2.030  40.866   5.804
 4946POPC   GL263674   2.162  40.557   5.913
 4946POPC   C1A63675   2.172  41.006   6.234
 4946POPC   D2A63676   2.112  40.783   6.613
 4946POPC   C3A63677   2.089  40.929   7.025
 4946POPC   C4A63678   2.053  40.924   7.458
 4946POPC   C1B63679   1.786  40.663   6.199
 4946POPC   C2B63680   1.615  40.607   6.621
 4946POPC   C3B63681   1.802  40.443   6.985
 4946POPC   C4B63682   2.113  40.443   7.303
 4947POPC   NC363683   5.932  13.156   5.248
 4947POPC   PO463684   6.305  12.895   5.642
 4947POPC   GL163685   5.884  12.885   5.785
 4947POPC   GL263686   5.625  13.147   5.695
 4947POPC   C1A63687   5.872  12.771   6.205
 4947POPC   D2A63688   6.169  12.931   6.520
 4947POPC   C3A63689   6.241  12.790   6.972
 4947POPC   C4A63690   6.034  12.933   7.373
 4947POPC   C1B63691   5.620  13.208   6.145
 4947POPC   C2B63692   5.650  13.024   6.584
 4947POPC   C3B63693   5.658  12.978   7.010
 4947POPC   C4B63694   5.693  13.326   7.238
 4948POPC   NC363695  25.669  35.673   5.335
 4948POPC   PO463696  25.423  35.023   5.337
 4948POPC   GL163697  25.365  35.368   5.633
 4948POPC   GL263698  25.055  35.329   5.775
 4948POPC   C1A63699  25.426  35.567   6.067
 4948POPC   D2A63700  25.400  35.714   6.509
 4948POPC   C3A63701  25.193  35.561   6.886
 4948POPC   C4A63702  25.325  35.480   7.325
 4948POPC   C1B63703  25.310  35.087   6.078
 4948POPC   C2B63704  25.465  35.184   6.491
 4948POPC   C3B63705  25.348  35.072   6.915
 4948POPC   C4B63706  25.398  34.973   7.337
 4949POPC   NC363707  23.109  29.405   5.105
 4949POPC   PO463708  22.906  29.369   5.701
 4949POPC   GL163709  23.190  29.346   5.945
 4949POPC   GL263710  23.165  28.986   5.930
 4949POPC   C1A63711  23.164  29.309   6.368
 4949POPC   D2A63712  22.840  29.446   6.617
 4949POPC   C3A63713  22.961  29.415   7.004
 4949POPC   C4A63714  22.744  29.282   7.345
 4949POPC   C1B63715  22.801  28.969   6.229
 4949POPC   C2B63716  22.894  28.918   6.671
 4949POPC   C3B63717  22.893  28.870   7.105
 4949POPC   C4B63718  22.717  28.798   7.547
 4950POPC   NC363719  16.054  19.998   5.410
 4950POPC   PO463720  16.040  19.270   5.422
 4950POPC   GL163721  15.962  19.608   5.711
 4950POPC   GL263722  16.286  19.760   5.829
 4950POPC   C1A63723  15.832  19.787   6.098
 4950POPC   D2A63724  16.072  19.752   6.483
 4950POPC   C3A63725  15.836  19.884   6.812
 4950POPC   C4A63726  15.717  19.721   7.166
 4950POPC   C1B63727  16.262  20.106   6.152
 4950POPC   C2B63728  16.196  20.243   6.616
 4950POPC   C3B63729  16.249  20.031   7.056
 4950POPC   C4B63730  16.235  20.137   7.535
 4951POPC   NC363731  44.491   3.429   5.029
 4951POPC   PO463732  44.984   3.318   5.511
 4951POPC   GL163733  44.947   3.348   5.934
 4951POPC   GL263734  44.826   3.686   5.916
 4951POPC   C1A63735  44.808   3.386   6.363
 4951POPC   D2A63736  44.844   3.750   6.637
 4951POPC   C3A63737  44.822   3.586   7.042
 4951POPC   C4A63738   0.135   3.347   7.238
 4951POPC   C1B63739  44.498   3.748   6.234
 4951POPC   C2B63740  44.313   3.807   6.613
 4951POPC   C3B63741  44.509   3.986   6.984
 4951POPC   C4B63742  44.445   3.763   7.366
 4952POPC   NC363743  30.290  37.854   5.548
 4952POPC   PO463744  29.682  37.727   5.291
 4952POPC   GL163745  29.723  37.731   5.742
 4952POPC   GL263746  29.731  38.075   5.724
 4952POPC   C1A63747  29.962  37.621   6.158
 4952POPC   D2A63748  30.110  37.476   6.616
 4952POPC   C3A63749  29.938  37.678   7.020
 4952POPC   C4A63750  29.954  37.934   7.447
 4952POPC   C1B63751  29.761  38.096   6.153
 4952POPC   C2B63752  29.839  37.939   6.564
 4952POPC   C3B63753  29.649  38.110   6.913
 4952POPC   C4B63754  29.475  37.965   7.253
 4953POPC   NC363755  37.140  27.065   5.585
 4953POPC   PO463756  37.068  27.698   5.334
 4953POPC   GL163757  36.900  27.578   5.741
 4953POPC   GL263758  36.786  27.253   5.900
 4953POPC   C1A63759  37.044  27.768   6.120
 4953POPC   D2A63760  37.228  27.726   6.510
 4953POPC   C3A63761  37.096  27.912   6.874
 4953POPC   C4A63762  37.039  27.654   7.197
 4953POPC   C1B63763  36.917  27.313   6.371
 4953POPC   C2B63764  36.781  27.537   6.751
 4953POPC   C3B63765  36.515  27.635   7.145
 4953POPC   C4B63766  36.480  27.379   7.552
 4954POPC   NC363767  23.451  34.927   5.560
 4954POPC   PO463768  23.869  34.604   5.123
 4954POPC   GL163769  23.924  34.716   5.597
 4954POPC   GL263770  23.702  34.515   5.805
 4954POPC   C1A63771  23.899  34.903   6.071
 4954POPC   D2A63772  23.734  34.895   6.542
 4954POPC   C3A63773  23.932  34.812   6.968
 4954POPC   C4A63774  24.093  34.394   7.144
 4954POPC   C1B63775  23.855  34.411   6.242
 4954POPC   C2B63776  23.803  34.398   6.709
 4954POPC   C3B63777  23.587  34.468   7.139
 4954POPC   C4B63778  23.492  34.339   7.581
 4955POPC   NC363779  38.965  26.780   5.525
 4955POPC   PO463780  38.305  26.606   5.367
 4955POPC   GL163781  38.305  26.730   5.795
 4955POPC   GL263782  38.630  26.595   5.884
 4955POPC   C1A63783  38.328  26.858   6.223
 4955POPC   D2A63784  38.378  26.642   6.602
 4955POPC   C3A63785  38.292  26.856   6.982
 4955POPC   C4A63786  38.402  27.183   7.261
 4955POPC   C1B63787  38.771  26.517   6.299
 4955POPC   C2B63788  38.862  26.569   6.756
 4955POPC   C3B63789  38.750  26.630   7.196
 4955POPC   C4B63790  38.703  26.371   7.593
 4956POPC   NC363791  24.811   5.565   5.257
 4956POPC   PO463792  24.274   5.655   5.635
 4956POPC   GL163793  24.466   5.664   5.971
 4956POPC   GL263794  24.538   6.008   5.953
 4956POPC   C1A63795  24.378   5.730   6.394
 4956POPC   D2A63796  24.091   6.008   6.628
 4956POPC   C3A63797  24.247   6.054   7.031
 4956POPC   C4A63798  24.473   5.677   7.118
 4956POPC   C1B63799  24.794   6.053   6.295
 4956POPC   C2B63800  24.658   6.058   6.710
 4956POPC   C3B63801  24.762   6.106   7.135
 4956POPC   C4B63802  25.002   6.180   7.472
 4957POPC   NC363803  24.844  10.802   5.476
 4957POPC   PO463804  25.329  10.400   5.399
 4957POPC   GL163805  25.201  10.530   5.789
 4957POPC   GL263806  25.530  10.421   5.900
 4957POPC   C1A63807  25.158  10.721   6.208
 4957POPC   D2A63808  24.890  10.694   6.583
 4957POPC   C3A63809  25.022  10.541   6.971
 4957POPC   C4A63810  25.186  10.819   7.240
 4957POPC   C1B63811  25.412  10.261   6.268
 4957POPC   C2B63812  25.403  10.514   6.625
 4957POPC   C3B63813  25.601  10.514   7.016
 4957POPC   C4B63814  25.733  10.127   7.242
 4958POPC   NC363815  10.762   2.938   4.972
 4958POPC   PO463816  10.279   2.801   5.502
 4958POPC   GL163817  10.335   2.869   5.898
 4958POPC   GL263818  10.175   3.156   6.021
 4958POPC   C1A63819  10.541   2.647   6.181
 4958POPC   D2A63820  10.356   2.437   6.515
 4958POPC   C3A63821  10.467   2.601   6.904
 4958POPC   C4A63822  10.311   2.519   7.283
 4958POPC   C1B63823  10.301   3.004   6.427
 4958POPC   C2B63824  10.676   2.987   6.621
 4958POPC   C3B63825  10.675   3.104   7.029
 4958POPC   C4B63826  10.353   3.076   7.347
 4959POPC   NC363827   9.472  25.621   5.444
 4959POPC   PO463828   9.957  25.120   5.400
 4959POPC   GL163829   9.776  25.297   5.785
 4959POPC   GL263830   9.466  25.193   5.783
 4959POPC   C1A63831   9.961  25.221   6.242
 4959POPC   D2A63832  10.080  25.082   6.715
 4959POPC   C3A63833   9.921  25.220   7.165
 4959POPC   C4A63834   9.724  25.465   7.542
 4959POPC   C1B63835   9.430  25.327   6.205
 4959POPC   C2B63836   9.597  25.227   6.610
 4959POPC   C3B63837   9.472  25.374   7.011
 4959POPC   C4B63838   9.350  25.192   7.378
 4960POPC   NC363839  16.831  20.428   5.396
 4960POPC   PO463840  16.698  21.029   5.700
 4960POPC   GL163841  16.648  20.562   5.865
 4960POPC   GL263842  16.982  20.377   5.881
 4960POPC   C1A63843  16.683  20.416   6.311
 4960POPC   D2A63844  16.774  20.775   6.582
 4960POPC   C3A63845  16.623  20.751   6.993
 4960POPC   C4A63846  16.469  20.446   7.210
 4960POPC   C1B63847  17.113  20.687   6.167
 4960POPC   C2B63848  17.316  20.749   6.553
 4960POPC   C3B63849  17.146  20.716   6.923
 4960POPC   C4B63850  17.015  20.445   7.227
 4961POPC   NC363851   2.498  39.047   5.087
 4961POPC   PO463852   1.922  38.903   5.441
 4961POPC   GL163853   1.914  39.048   5.857
 4961POPC   GL263854   2.248  38.996   5.893
 4961POPC   C1A63855   1.882  38.939   6.295
 4961POPC   D2A63856   2.007  38.879   6.725
 4961POPC   C3A63857   1.787  39.143   7.012
 4961POPC   C4A63858   1.365  39.053   7.087
 4961POPC   C1B63859   2.390  39.052   6.258
 4961POPC   C2B63860   2.333  39.273   6.608
 4961POPC   C3B63861   2.294  39.196   7.013
 4961POPC   C4B63862   2.448  39.252   7.391
 4962POPC   NC363863  11.024  41.099   5.425
 4962POPC   PO463864  11.309  40.518   5.547
 4962POPC   GL163865  11.313  40.820   5.783
 4962POPC   GL263866  11.651  40.919   5.819
 4962POPC   C1A63867  11.012  40.915   6.081
 4962POPC   D2A63868  10.987  40.985   6.506
 4962POPC   C3A63869  11.112  40.620   6.737
 4962POPC   C4A63870  11.194  40.634   7.165
 4962POPC   C1B63871  11.515  41.041   6.193
 4962POPC   C2B63872  11.439  41.211   6.566
 4962POPC   C3B63873  11.313  41.067   6.922
 4962POPC   C4B63874  11.561  40.975   7.224
 4963POPC   NC363875  30.671  42.653   5.419
 4963POPC   PO463876  31.134  43.188   5.400
 4963POPC   GL163877  30.949  42.911   5.769
 4963POPC   GL263878  30.546  42.915   5.834
 4963POPC   C1A63879  30.845  42.847   6.234
 4963POPC   D2A63880  30.530  42.997   6.560
 4963POPC   C3A63881  30.828  43.019   6.892
 4963POPC   C4A63882  30.865  43.431   7.088
 4963POPC   C1B63883  30.302  43.202   6.131
 4963POPC   C2B63884  30.128  43.422   6.513
 4963POPC   C3B63885  30.379  43.509   6.902
 4963POPC   C4B63886  30.432  43.118   7.163
 4964POPC   NC363887  28.027  26.644   5.408
 4964POPC   PO463888  28.506  27.156   5.440
 4964POPC   GL163889  28.259  27.113   5.841
 4964POPC   GL263890  28.282  26.765   5.952
 4964POPC   C1A63891  28.301  27.107   6.319
 4964POPC   D2A63892  28.510  26.884   6.651
 4964POPC   C3A63893  28.235  26.736   6.957
 4964POPC   C4A63894  27.969  26.768   7.319
 4964POPC   C1B63895  28.537  26.533   6.264
 4964POPC   C2B63896  28.586  26.375   6.698
 4964POPC   C3B63897  28.726  26.561   7.096
 4964POPC   C4B63898  28.690  26.518   7.550
 4965POPC   NC363899  41.973  33.355   5.555
 4965POPC   PO463900  42.512  32.899   5.304
 4965POPC   GL163901  42.618  32.945   5.783
 4965POPC   GL263902  42.283  33.033   5.879
 4965POPC   C1A63903  42.629  32.994   6.267
 4965POPC   D2A63904  42.768  33.264   6.621
 4965POPC   C3A63905  42.563  33.296   7.014
 4965POPC   C4A63906  42.626  32.965   7.265
 4965POPC   C1B63907  42.166  33.250   6.248
 4965POPC   C2B63908  42.273  33.089   6.648
 4965POPC   C3B63909  42.141  32.966   7.055
 4965POPC   C4B63910  41.856  33.271   7.219
 4966POPC   NC363911  28.509  38.165   5.362
 4966POPC   PO463912  28.614  38.853   5.406
 4966POPC   GL163913  28.294  38.555   5.680
 4966POPC   GL263914  28.460  38.300   5.850
 4966POPC   C1A63915  28.086  38.498   6.151
 4966POPC   D2A63916  28.289  38.532   6.594
 4966POPC   C3A63917  28.147  38.453   7.012
 4966POPC   C4A63918  28.275  38.181   7.322
 4966POPC   C1B63919  28.564  38.636   6.174
 4966POPC   C2B63920  28.800  38.604   6.535
 4966POPC   C3B63921  28.758  38.447   6.933
 4966POPC   C4B63922  28.672  38.551   7.312
 4967POPC   NC363923   4.634   5.924   5.590
 4967POPC   PO463924   5.074   5.439   5.386
 4967POPC   GL163925   5.106   5.728   5.744
 4967POPC   GL263926   5.140   6.114   5.635
 4967POPC   C1A63927   4.932   5.654   6.163
 4967POPC   D2A63928   5.022   5.518   6.600
 4967POPC   C3A63929   5.210   5.793   6.895
 4967POPC   C4A63930   5.353   5.883   7.266
 4967POPC   C1B63931   5.015   6.192   6.066
 4967POPC   C2B63932   5.017   6.042   6.483
 4967POPC   C3B63933   4.921   6.220   6.860
 4967POPC   C4B63934   5.046   6.294   7.255
 4968POPC   NC363935  31.772  18.792   5.312
 4968POPC   PO463936  31.505  19.406   5.489
 4968POPC   GL163937  31.417  19.147   5.849
 4968POPC   GL263938  31.506  18.779   5.767
 4968POPC   C1A63939  31.631  19.174   6.262
 4968POPC   D2A63940  31.847  18.994   6.618
 4968POPC   C3A63941  31.647  19.149   6.977
 4968POPC   C4A63942  31.361  19.107   7.330
 4968POPC   C1B63943  31.365  18.743   6.196
 4968POPC   C2B63944  31.320  18.930   6.605
 4968POPC   C3B63945  31.371  18.724   6.968
 4968POPC   C4B63946  31.468  18.474   7.313
 4969POPC   NC363947   2.181  39.286   5.493
 4969POPC   PO463948   2.712  39.456   5.091
 4969POPC   GL163949   2.797  39.492   5.630
 4969POPC   GL263950   2.480  39.467   5.835
 4969POPC   C1A63951   2.834  39.232   6.094
 4969POPC   D2A63952   2.823  39.038   6.530
 4969POPC   C3A63953   2.867  39.257   6.906
 4969POPC   C4A63954   2.958  39.121   7.329
 4969POPC   C1B63955   2.508  39.594   6.238
 4969POPC   C2B63956   2.368  39.796   6.585
 4969POPC   C3B63957   2.501  39.645   6.948
 4969POPC   C4B63958   2.780  39.609   7.270
 4970POPC   NC363959  18.973  31.232   5.365
 4970POPC   PO463960  19.511  31.621   5.394
 4970POPC   GL163961  19.429  31.296   5.774
 4970POPC   GL263962  19.057  31.276   5.856
 4970POPC   C1A63963  19.328  31.265   6.270
 4970POPC   D2A63964  19.150  31.442   6.628
 4970POPC   C3A63965  19.298  31.393   7.032
 4970POPC   C4A63966  19.017  31.469   7.351
 4970POPC   C1B63967  18.945  31.600   6.161
 4970POPC   C2B63968  18.684  31.664   6.521
 4970POPC   C3B63969  18.794  31.711   6.943
 4970POPC   C4B63970  18.755  31.908   7.337
 4971POPC   NC363971  36.414  11.461   5.531
 4971POPC   PO463972  36.989  11.316   5.220
 4971POPC   GL163973  36.999  11.196   5.659
 4971POPC   GL263974  36.680  11.050   5.781
 4971POPC   C1A63975  37.066  11.329   6.094
 4971POPC   D2A63976  37.155  11.159   6.511
 4971POPC   C3A63977  37.027  11.351   6.926
 4971POPC   C4A63978  37.279  11.604   7.234
 4971POPC   C1B63979  36.576  11.211   6.212
 4971POPC   C2B63980  36.667  11.046   6.625
 4971POPC   C3B63981  36.556  11.127   7.042
 4971POPC   C4B63982  36.703  11.409   7.356
 4972POPC   NC363983  44.780  22.442   5.462
 4972POPC   PO463984  44.564  21.751   5.440
 4972POPC   GL163985  44.561  22.056   5.778
 4972POPC   GL263986  44.328  22.327   5.800
 4972POPC   C1A63987  44.472  22.031   6.217
 4972POPC   D2A63988  44.765  21.988   6.546
 4972POPC   C3A63989  44.528  21.974   6.899
 4972POPC   C4A63990  44.642  22.071   7.312
 4972POPC   C1B63991  44.385  22.537   6.192
 4972POPC   C2B63992  44.485  22.426   6.617
 4972POPC   C3B63993  44.361  22.423   7.048
 4972POPC   C4B63994  44.142  22.105   7.258
 4973POPC   NC363995  32.745  42.243   5.478
 4973POPC   PO463996  33.365  42.043   5.164
 4973POPC   GL163997  33.199  41.989   5.636
 4973POPC   GL263998  33.157  42.337   5.807
 4973POPC   C1A63999  33.058  41.921   6.109
 4973POPC   D2A64000  32.865  42.141   6.492
 4973POPC   C3A64001  33.222  42.243   6.789
 4973POPC   C4A64002  33.398  42.216   7.190
 4973POPC   C1B64003  33.135  42.527   6.249
 4973POPC   C2B64004  32.960  42.664   6.675
 4973POPC   C3B64005  33.111  42.641   7.131
 4973POPC   C4B64006  33.125  42.496   7.575
 4974POPC   NC364007  12.663  31.058   5.480
 4974POPC   PO464008  13.057  31.584   5.341
 4974POPC   GL164009  12.854  31.519   5.757
 4974POPC   GL264010  12.499  31.481   5.792
 4974POPC   C1A64011  12.747  31.737   6.168
 4974POPC   D2A64012  12.858  31.570   6.576
 4974POPC   C3A64013  12.758  31.782   6.955
 4974POPC   C4A64014  12.802  31.539   7.311
 4974POPC   C1B64015  12.671  31.219   6.148
 4974POPC   C2B64016  12.601  31.121   6.579
 4974POPC   C3B64017  12.873  31.182   6.936
 4974POPC   C4B64018  12.771  31.003   7.325
 4975POPC   NC364019  30.482  30.446   5.337
 4975POPC   PO464020  30.686  31.061   5.470
 4975POPC   GL164021  30.571  30.925   5.869
 4975POPC   GL264022  30.461  30.588   5.843
 4975POPC   C1A64023  30.813  30.925   6.259
 4975POPC   D2A64024  30.905  30.760   6.652
 4975POPC   C3A64025  30.755  30.959   7.016
 4975POPC   C4A64026  30.463  30.897   7.353
 4975POPC   C1B64027  30.602  30.463   6.259
 4975POPC   C2B64028  30.482  30.443   6.691
 4975POPC   C3B64029  30.584  30.480   7.111
 4975POPC   C4B64030  30.296  30.431   7.458
 4976POPC   NC364031   1.651   8.830   5.498
 4976POPC   PO464032   2.340   8.650   5.319
 4976POPC   GL164033   2.119   8.772   5.713
 4976POPC   GL264034   1.890   9.004   5.904
 4976POPC   C1A64035   2.110   8.635   6.154
 4976POPC   D2A64036   2.097   8.920   6.514
 4976POPC   C3A64037   2.075   8.772   6.939
 4976POPC   C4A64038   1.928   9.098   7.204
 4976POPC   C1B64039   1.807   9.279   6.253
 4976POPC   C2B64040   1.854   9.383   6.688
 4976POPC   C3B64041   1.578   9.428   7.061
 4976POPC   C4B64042   1.672   9.430   7.517
 4977POPC   NC364043  30.121   9.225   5.498
 4977POPC   PO464044  29.816   8.632   5.476
 4977POPC   GL164045  29.915   8.849   5.827
 4977POPC   GL264046  30.272   8.839   5.879
 4977POPC   C1A64047  29.924   8.804   6.276
 4977POPC   D2A64048  30.121   8.906   6.659
 4977POPC   C3A64049  29.777   9.024   6.920
 4977POPC   C4A64050  29.576   9.049   7.319
 4977POPC   C1B64051  30.265   9.208   6.179
 4977POPC   C2B64052  30.339   9.370   6.604
 4977POPC   C3B64053  30.194   9.283   7.026
 4977POPC   C4B64054  30.311   8.947   7.306
 4978POPC   NC364055  21.092   0.793   5.513
 4978POPC   PO464056  21.496   0.165   5.445
 4978POPC   GL164057  21.808   0.208   5.822
 4978POPC   GL264058  21.898   0.558   5.879
 4978POPC   C1A64059  21.726   0.218   6.310
 4978POPC   D2A64060  21.429   0.293   6.654
 4978POPC   C3A64061  21.534   0.318   7.090
 4978POPC   C4A64062  21.197   0.340   7.443
 4978POPC   C1B64063  21.785   0.734   6.277
 4978POPC   C2B64064  21.688   0.735   6.716
 4978POPC   C3B64065  21.299   0.731   6.941
 4978POPC   C4B64066  21.154   0.823   7.318
 4979POPC   NC364067  12.371  26.260   5.424
 4979POPC   PO464068  11.744  26.043   5.332
 4979POPC   GL164069  11.950  26.133   5.717
 4979POPC   GL264070  11.807  26.449   5.729
 4979POPC   C1A64071  12.168  26.157   6.135
 4979POPC   D2A64072  12.307  25.979   6.554
 4979POPC   C3A64073  12.088  26.033   6.970
 4979POPC   C4A64074  12.101  25.986   7.466
 4979POPC   C1B64075  11.661  26.321   6.139
 4979POPC   C2B64076  11.872  26.354   6.527
 4979POPC   C3B64077  11.719  26.431   6.914
 4979POPC   C4B64078  11.865  26.375   7.268
 4980POPC   NC364079  44.479  12.266   5.276
 4980POPC   PO464080   0.094  12.026   5.406
 4980POPC   GL164081  44.781  11.890   5.755
 4980POPC   GL264082  44.439  12.059   5.746
 4980POPC   C1A64083  44.732  11.937   6.200
 4980POPC   D2A64084  44.494  12.085   6.533
 4980POPC   C3A64085  44.638  12.186   6.940
 4980POPC   C4A64086  44.764  11.905   7.223
 4980POPC   C1B64087  44.235  12.264   6.118
 4980POPC   C2B64088  44.021  12.292   6.542
 4980POPC   C3B64089  44.133  12.035   6.910
 4980POPC   C4B64090  44.292  12.192   7.321
 4981POPC   NC364091   5.417   9.014   5.401
 4981POPC   PO464092   6.086   9.094   5.186
 4981POPC   GL164093   5.930   9.039   5.584
 4981POPC   GL264094   6.216   9.245   5.689
 4981POPC   C1A64095   5.943   8.848   6.014
 4981POPC   D2A64096   5.682   8.731   6.373
 4981POPC   C3A64097   5.803   8.876   6.779
 4981POPC   C4A64098   5.850   8.955   7.182
 4981POPC   C1B64099   6.122   9.311   6.127
 4981POPC   C2B64100   5.878   9.301   6.507
 4981POPC   C3B64101   5.926   9.409   6.933
 4981POPC   C4B64102   6.157   9.317   7.317
 4982POPC   NC364103  18.657  20.543   5.470
 4982POPC   PO464104  17.959  20.465   5.379
 4982POPC   GL164105  18.161  20.626   5.746
 4982POPC   GL264106  18.429  20.894   5.783
 4982POPC   C1A64107  18.137  20.556   6.185
 4982POPC   D2A64108  18.016  20.831   6.531
 4982POPC   C3A64109  18.049  20.577   6.891
 4982POPC   C4A64110  17.910  20.600   7.294
 4982POPC   C1B64111  18.457  20.946   6.253
 4982POPC   C2B64112  18.528  20.850   6.703
 4982POPC   C3B64113  18.382  20.889   7.129
 4982POPC   C4B64114  18.464  21.051   7.517
 4983POPC   NC364115  35.772  22.198   5.437
 4983POPC   PO464116  35.195  21.854   5.401
 4983POPC   GL164117  35.373  21.930   5.795
 4983POPC   GL264118  35.367  22.294   5.778
 4983POPC   C1A64119  35.174  22.041   6.204
 4983POPC   D2A64120  34.956  21.902   6.563
 4983POPC   C3A64121  35.224  21.947   6.901
 4983POPC   C4A64122  35.328  21.951   7.316
 4983POPC   C1B64123  35.329  22.513   6.206
 4983POPC   C2B64124  35.127  22.408   6.619
 4983POPC   C3B64125  35.225  22.454   7.069
 4983POPC   C4B64126  35.427  22.407   7.479
 4984POPC   NC364127  41.430  29.020   5.618
 4984POPC   PO464128  41.884  29.562   5.413
 4984POPC   GL164129  41.636  29.430   5.842
 4984POPC   GL264130  41.247  29.385   5.938
 4984POPC   C1A64131  41.579  29.199   6.272
 4984POPC   D2A64132  41.488  29.241   6.718
 4984POPC   C3A64133  41.632  28.877   6.976
 4984POPC   C4A64134  41.840  28.968   7.362
 4984POPC   C1B64135  41.095  29.007   6.180
 4984POPC   C2B64136  41.223  28.836   6.566
 4984POPC   C3B64137  41.121  28.957   6.985
 4984POPC   C4B64138  41.380  29.219   7.243
 4985POPC   NC364139  37.245  31.643   5.458
 4985POPC   PO464140  36.571  31.597   5.354
 4985POPC   GL164141  36.672  31.653   5.804
 4985POPC   GL264142  36.957  31.470   5.829
 4985POPC   C1A64143  36.873  31.758   6.234
 4985POPC   D2A64144  37.015  31.587   6.601
 4985POPC   C3A64145  36.771  31.709   6.904
 4985POPC   C4A64146  36.837  31.608   7.294
 4985POPC   C1B64147  37.134  31.313   6.199
 4985POPC   C2B64148  37.024  31.043   6.539
 4985POPC   C3B64149  37.004  31.173   6.958
 4985POPC   C4B64150  36.632  31.159   7.181
 4986POPC   NC364151   1.137   9.590   5.573
 4986POPC   PO464152   1.593  10.032   5.555
 4986POPC   GL164153   1.320   9.922   5.918
 4986POPC   GL264154   0.942   9.994   5.864
 4986POPC   C1A64155   1.383   9.613   6.256
 4986POPC   D2A64156   1.495   9.760   6.670
 4986POPC   C3A64157   1.188   9.787   7.020
 4986POPC   C4A64158   1.141   9.541   7.396
 4986POPC   C1B64159   0.933   9.850   6.302
 4986POPC   C2B64160   1.002   9.510   6.625
 4986POPC   C3B64161   0.760   9.518   7.020
 4986POPC   C4B64162   0.700   9.851   7.358
 4987POPC   NC364163  17.479  19.274   5.293
 4987POPC   PO464164  17.691  18.635   5.382
 4987POPC   GL164165  17.388  18.899   5.699
 4987POPC   GL264166  17.500  19.230   5.825
 4987POPC   C1A64167  17.205  18.979   6.147
 4987POPC   D2A64168  17.189  19.241   6.545
 4987POPC   C3A64169  17.275  19.121   6.984
 4987POPC   C4A64170  17.049  19.037   7.335
 4987POPC   C1B64171  17.654  19.182   6.285
 4987POPC   C2B64172  17.701  19.258   6.738
 4987POPC   C3B64173  17.531  19.546   7.056
 4987POPC   C4B64174  17.459  19.331   7.463
 4988POPC   NC364175   8.977  23.358   5.445
 4988POPC   PO464176   8.584  23.849   5.646
 4988POPC   GL164177   8.765  23.608   5.935
 4988POPC   GL264178   9.092  23.689   5.868
 4988POPC   C1A64179   8.820  23.585   6.382
 4988POPC   D2A64180   8.774  23.418   6.781
 4988POPC   C3A64181   8.933  23.579   7.117
 4988POPC   C4A64182   8.578  23.759   7.266
 4988POPC   C1B64183   9.297  23.825   6.255
 4988POPC   C2B64184   9.297  23.735   6.699
 4988POPC   C3B64185   9.303  23.933   7.102
 4988POPC   C4B64186   9.393  23.597   7.366
 4989POPC   NC364187  36.087  38.020   5.340
 4989POPC   PO464188  36.496  37.560   5.508
 4989POPC   GL164189  36.186  37.751   5.780
 4989POPC   GL264190  36.337  38.099   5.787
 4989POPC   C1A64191  36.024  37.671   6.208
 4989POPC   D2A64192  36.357  37.517   6.497
 4989POPC   C3A64193  36.281  37.351   6.909
 4989POPC   C4A64194  36.421  37.485   7.321
 4989POPC   C1B64195  36.439  37.968   6.217
 4989POPC   C2B64196  36.198  37.986   6.591
 4989POPC   C3B64197  36.255  37.877   7.006
 4989POPC   C4B64198  35.927  37.708   7.232
 4990POPC   NC364199  11.206  15.073   5.304
 4990POPC   PO464200  11.819  14.833   5.359
 4990POPC   GL164201  11.494  14.862   5.733
 4990POPC   GL264202  11.090  14.933   5.777
 4990POPC   C1A64203  11.577  14.978   6.190
 4990POPC   D2A64204  11.509  14.875   6.649
 4990POPC   C3A64205  11.461  15.092   7.056
 4990POPC   C4A64206  11.262  15.386   7.368
 4990POPC   C1B64207  11.085  14.803   6.210
 4990POPC   C2B64208  11.005  14.940   6.634
 4990POPC   C3B64209  11.080  14.700   6.994
 4990POPC   C4B64210  11.179  14.821   7.403
 4991POPC   NC364211   6.905  13.892   5.445
 4991POPC   PO464212   6.397  13.395   5.320
 4991POPC   GL164213   6.597  13.416   5.724
 4991POPC   GL264214   6.538  13.737   5.816
 4991POPC   C1A64215   6.623  13.406   6.193
 4991POPC   D2A64216   6.793  13.556   6.593
 4991POPC   C3A64217   6.517  13.646   6.937
 4991POPC   C4A64218   6.712  13.659   7.361
 4991POPC   C1B64219   6.864  13.856   6.127
 4991POPC   C2B64220   6.861  14.052   6.534
 4991POPC   C3B64221   6.936  13.930   6.976
 4991POPC   C4B64222   7.039  14.086   7.387
 4992POPC   NC364223   7.763   1.677   5.316
 4992POPC   PO464224   7.155   2.028   5.462
 4992POPC   GL164225   7.358   2.025   5.817
 4992POPC   GL264226   7.693   1.840   5.888
 4992POPC   C1A64227   7.288   2.092   6.216
 4992POPC   D2A64228   7.525   1.991   6.570
 4992POPC   C3A64229   7.332   2.016   6.958
 4992POPC   C4A64230   7.534   2.143   7.388
 4992POPC   C1B64231   7.767   1.610   6.312
 4992POPC   C2B64232   7.638   1.533   6.783
 4992POPC   C3B64233   7.534   1.643   7.230
 4992POPC   C4B64234   7.688   1.673   7.646
 4993POPC   NC364235  32.700  14.713   5.572
 4993POPC   PO464236  32.255  15.295   5.526
 4993POPC   GL164237  32.444  15.309   5.931
 4993POPC   GL264238  32.656  15.030   6.007
 4993POPC   C1A64239  32.309  15.468   6.302
 4993POPC   D2A64240  32.208  15.146   6.590
 4993POPC   C3A64241  32.339  15.021   6.947
 4993POPC   C4A64242  32.347  15.354   7.209
 4993POPC   C1B64243  32.264  14.822   6.204
 4993POPC   C2B64244  31.854  14.815   6.460
 4993POPC   C3B64245  31.775  14.845   6.918
 4993POPC   C4B64246  32.011  14.884   7.327
 4994POPC   NC364247  25.766  32.234   5.450
 4994POPC   PO464248  26.391  32.140   5.331
 4994POPC   GL164249  26.177  32.013   5.710
 4994POPC   GL264250  26.156  32.373   5.787
 4994POPC   C1A64251  26.282  32.001   6.164
 4994POPC   D2A64252  26.121  32.125   6.565
 4994POPC   C3A64253  26.282  32.005   6.941
 4994POPC   C4A64254  25.993  31.876   7.242
 4994POPC   C1B64255  26.061  32.504   6.222
 4994POPC   C2B64256  25.994  32.606   6.658
 4994POPC   C3B64257  25.920  32.356   7.037
 4994POPC   C4B64258  25.802  32.311   7.477
 4995POPC   NC364259  40.588  44.536   5.525
 4995POPC   PO464260  41.025  44.931   5.584
 4995POPC   GL164261  41.018  44.574   5.875
 4995POPC   GL264262  40.713  44.656   6.012
 4995POPC   C1A64263  41.084  44.450   6.324
 4995POPC   D2A64264  40.839  44.647   6.656
 4995POPC   C3A64265  40.817  44.429   7.035
 4995POPC   C4A64266  41.189  44.522   7.182
 4995POPC   C1B64267  40.971  44.957   6.252
 4995POPC   C2B64268  40.987   0.137   6.663
 4995POPC   C3B64269  41.036   0.006   7.085
 4995POPC   C4B64270  40.780  44.790   7.377
 4996POPC   NC364271  17.560   4.040   5.011
 4996POPC   PO464272  17.366   4.530   5.374
 4996POPC   GL164273  17.474   4.588   5.866
 4996POPC   GL264274  17.376   4.220   5.931
 4996POPC   C1A64275  17.669   4.422   6.298
 4996POPC   D2A64276  17.643   4.130   6.678
 4996POPC   C3A64277  17.739   4.229   7.105
 4996POPC   C4A64278  17.669   3.974   7.479
 4996POPC   C1B64279  17.046   4.467   6.173
 4996POPC   C2B64280  16.971   4.484   6.617
 4996POPC   C3B64281  17.282   4.499   6.971
 4996POPC   C4B64282  17.336   4.398   7.414
 4997POPC   NC364283  43.601  38.287   5.330
 4997POPC   PO464284  43.804  38.886   5.624
 4997POPC   GL164285  43.897  38.444   5.766
 4997POPC   GL264286  44.238  38.389   5.721
 4997POPC   C1A64287  44.082  38.178   6.139
 4997POPC   D2A64288  44.240  38.354   6.529
 4997POPC   C3A64289  43.975  38.237   6.853
 4997POPC   C4A64290  43.912  38.071   7.239
 4997POPC   C1B64291  44.227  38.688   6.110
 4997POPC   C2B64292  44.344  38.938   6.502
 4997POPC   C3B64293  44.120  38.888   6.892
 4997POPC   C4B64294  44.074  38.572   7.236
 4998POPC   NC364295  23.905   3.131   5.359
 4998POPC   PO464296  23.647   2.447   5.264
 4998POPC   GL164297  23.601   2.683   5.721
 4998POPC   GL264298  23.905   2.802   5.785
 4998POPC   C1A64299  23.534   2.884   6.172
 4998POPC   D2A64300  23.396   2.954   6.609
 4998POPC   C3A64301  23.533   2.801   6.995
 4998POPC   C4A64302  23.800   2.503   7.126
 4998POPC   C1B64303  24.060   2.852   6.190
 4998POPC   C2B64304  23.893   2.769   6.572
 4998POPC   C3B64305  24.029   2.934   6.929
 4998POPC   C4B64306  24.081   2.861   7.346
 4999POPC   NC364307  18.570  19.475   5.585
 4999POPC   PO464308  18.133  19.049   5.364
 4999POPC   GL164309  18.253  18.893   5.767
 4999POPC   GL264310  17.926  18.936   5.894
 4999POPC   C1A64311  18.266  18.692   6.188
 4999POPC   D2A64312  18.016  18.824   6.561
 4999POPC   C3A64313  18.189  19.140   6.828
 4999POPC   C4A64314  18.230  18.963   7.209
 4999POPC   C1B64315  18.156  19.186   6.238
 4999POPC   C2B64316  18.056  19.524   6.492
 4999POPC   C3B64317  18.041  19.640   6.918
 4999POPC   C4B64318  17.959  19.401   7.261
 5000POPC   NC364319   1.904  42.954   5.404
 5000POPC   PO464320   2.285  43.571   5.458
 5000POPC   GL164321   1.999  43.334   5.753
 5000POPC   GL264322   2.082  42.961   5.856
 5000POPC   C1A64323   1.787  43.198   6.156
 5000POPC   D2A64324   1.875  42.917   6.479
 5000POPC   C3A64325   1.666  43.109   6.819
 5000POPC   C4A64326   1.588  43.297   7.206
 5000POPC   C1B64327   2.291  43.211   6.160
 5000POPC   C2B64328   2.378  43.064   6.548
 5000POPC   C3B64329   2.161  43.050   6.902
 5000POPC   C4B64330   2.213  43.185   7.293
 5001POPC   NC364331  11.483  27.242   5.454
 5001POPC   PO464332  11.283  27.930   5.391
 5001POPC   GL164333  11.232  27.822   5.849
 5001POPC   GL264334  11.444  27.534   5.939
 5001POPC   C1A64335  11.250  27.802   6.335
 5001POPC   D2A64336  11.326  27.608   6.751
 5001POPC   C3A64337  11.224  27.865   7.102
 5001POPC   C4A64338  11.016  27.887   7.494
 5001POPC   C1B64339  11.315  27.253   6.326
 5001POPC   C2B64340  11.173  27.103   6.719
 5001POPC   C3B64341  11.132  27.290   7.117
 5001POPC   C4B64342  10.870  27.413   7.470
 5002POPC   NC364343  40.774  27.791   5.226
 5002POPC   PO464344  40.660  27.134   5.414
 5002POPC   GL164345  40.753  27.439   5.791
 5002POPC   GL264346  40.818  27.811   5.760
 5002POPC   C1A64347  41.046  27.502   6.171
 5002POPC   D2A64348  41.254  27.344   6.556
 5002POPC   C3A64349  41.068  27.421   6.969
 5002POPC   C4A64350  40.880  27.509   7.392
 5002POPC   C1B64351  40.650  27.811   6.202
 5002POPC   C2B64352  40.723  27.544   6.592
 5002POPC   C3B64353  40.537  27.463   7.002
 5002POPC   C4B64354  40.269  27.750   7.188
 5003POPC   NC364355  42.939  35.125   5.446
 5003POPC   PO464356  42.539  35.681   5.350
 5003POPC   GL164357  42.737  35.533   5.781
 5003POPC   GL264358  43.087  35.509   5.782
 5003POPC   C1A64359  42.772  35.179   6.138
 5003POPC   D2A64360  42.833  35.037   6.604
 5003POPC   C3A64361  43.208  35.093   6.919
 5003POPC   C4A64362  43.287  35.278   7.340
 5003POPC   C1B64363  43.016  35.617   6.213
 5003POPC   C2B64364  43.211  35.490   6.598
 5003POPC   C3B64365  43.108  35.612   6.978
 5003POPC   C4B64366  43.293  35.874   7.226
 5004POPC   NC364367   0.889  44.133   5.351
 5004POPC   PO464368   0.197  44.008   5.338
 5004POPC   GL164369   0.343  43.896   5.748
 5004POPC   GL264370   0.615  44.135   5.799
 5004POPC   C1A64371   0.292  43.714   6.173
 5004POPC   D2A64372   0.621  43.665   6.493
 5004POPC   C3A64373   0.545  43.782   6.907
 5004POPC   C4A64374   0.160  43.847   7.091
 5004POPC   C1B64375   0.388  44.224   6.162
 5004POPC   C2B64376   0.339  44.118   6.561
 5004POPC   C3B64377   0.348  44.288   6.932
 5004POPC   C4B64378   0.616  44.171   7.266
 5005POPC   NC364379  20.569  30.657   5.347
 5005POPC   PO464380  21.109  30.964   5.619
 5005POPC   GL164381  20.749  30.697   5.830
 5005POPC   GL264382  20.400  30.497   5.785
 5005POPC   C1A64383  20.646  30.619   6.273
 5005POPC   D2A64384  20.491  30.907   6.560
 5005POPC   C3A64385  20.473  30.813   6.988
 5005POPC   C4A64386  20.746  30.936   7.306
 5005POPC   C1B64387  20.305  30.281   6.158
 5005POPC   C2B64388  20.225  30.467   6.584
 5005POPC   C3B64389  20.238  30.351   7.037
 5005POPC   C4B64390  19.970  30.371   7.418
 5006POPC   NC364391  31.799  43.643   5.643
 5006POPC   PO464392  31.262  43.997   5.349
 5006POPC   GL164393  31.293  43.968   5.771
 5006POPC   GL264394  31.275  43.612   5.735
 5006POPC   C1A64395  31.513  44.014   6.176
 5006POPC   D2A64396  31.394  44.152   6.591
 5006POPC   C3A64397  31.591  44.018   6.975
 5006POPC   C4A64398  31.293  44.263   7.163
 5006POPC   C1B64399  31.323  43.526   6.159
 5006POPC   C2B64400  31.474  43.654   6.546
 5006POPC   C3B64401  31.257  43.671   6.881
 5006POPC   C4B64402  31.280  43.703   7.284
 5007POPC   NC364403   9.460  31.938   5.548
 5007POPC   PO464404   8.975  32.440   5.495
 5007POPC   GL164405   9.218  32.373   5.845
 5007POPC   GL264406   8.946  32.484   6.083
 5007POPC   C1A64407   9.244  32.077   6.185
 5007POPC   D2A64408   8.980  32.061   6.542
 5007POPC   C3A64409   9.150  32.112   6.948
 5007POPC   C4A64410   9.019  32.350   7.315
 5007POPC   C1B64411   8.647  32.127   6.157
 5007POPC   C2B64412   8.494  31.907   6.511
 5007POPC   C3B64413   8.589  32.114   6.883
 5007POPC   C4B64414   8.391  32.180   7.249
 5008POPC   NC364415  29.040   4.385   5.390
 5008POPC   PO464416  29.524   4.206   5.591
 5008POPC   GL164417  29.176   4.317   5.906
 5008POPC   GL264418  28.824   4.229   5.874
 5008POPC   C1A64419  29.026   4.286   6.363
 5008POPC   D2A64420  29.188   4.041   6.736
 5008POPC   C3A64421  29.252   4.195   7.149
 5008POPC   C4A64422  29.274   4.557   7.433
 5008POPC   C1B64423  28.565   4.049   6.222
 5008POPC   C2B64424  28.664   4.017   6.666
 5008POPC   C3B64425  28.807   3.968   7.082
 5008POPC   C4B64426  29.010   3.919   7.501
 5009POPC   NC364427  39.437  18.351   5.430
 5009POPC   PO464428  38.745  18.486   5.282
 5009POPC   GL164429  38.979  18.328   5.689
 5009POPC   GL264430  39.152  18.620   5.795
 5009POPC   C1A64431  39.111  18.259   6.162
 5009POPC   D2A64432  39.045  18.490   6.591
 5009POPC   C3A64433  39.239  18.273   6.996
 5009POPC   C4A64434  39.199  18.258   7.488
 5009POPC   C1B64435  39.417  18.684   6.165
 5009POPC   C2B64436  39.407  18.879   6.570
 5009POPC   C3B64437  39.401  18.745   6.979
 5009POPC   C4B64438  39.595  18.513   7.299
 5010POPC   NC364439  33.592   6.648   5.340
 5010POPC   PO464440  34.130   6.251   5.387
 5010POPC   GL164441  34.030   6.622   5.699
 5010POPC   GL264442  33.740   6.828   5.793
 5010POPC   C1A64443  34.021   6.707   6.177
 5010POPC   D2A64444  33.980   6.550   6.605
 5010POPC   C3A64445  33.883   6.710   7.012
 5010POPC   C4A64446  33.791   6.386   7.331
 5010POPC   C1B64447  33.549   6.915   6.152
 5010POPC   C2B64448  33.689   6.989   6.564
 5010POPC   C3B64449  33.422   6.985   6.926
 5010POPC   C4B64450  33.543   6.967   7.315
 5011POPC   NC364451   6.734  12.976   5.472
 5011POPC   PO464452   6.492  12.448   5.161
 5011POPC   GL164453   6.528  12.423   5.650
 5011POPC   GL264454   6.735  12.656   5.865
 5011POPC   C1A64455   6.470  12.320   6.116
 5011POPC   D2A64456   6.542  12.561   6.506
 5011POPC   C3A64457   6.861  12.503   6.829
 5011POPC   C4A64458   6.710  12.689   7.198
 5011POPC   C1B64459   6.818  12.940   6.246
 5011POPC   C2B64460   6.638  13.072   6.672
 5011POPC   C3B64461   6.724  13.207   7.102
 5011POPC   C4B64462   6.980  13.267   7.528
 5012POPC   NC364463  18.054  44.265   5.432
 5012POPC   PO464464  18.365  44.860   5.374
 5012POPC   GL164465  18.449  44.658   5.804
 5012POPC   GL264466  18.137  44.622   5.810
 5012POPC   C1A64467  18.337  44.777   6.262
 5012POPC   D2A64468  18.364   0.076   6.632
 5012POPC   C3A64469  18.288  44.839   7.027
 5012POPC   C4A64470  18.438  44.430   7.172
 5012POPC   C1B64471  18.071  44.352   6.165
 5012POPC   C2B64472  18.222  44.351   6.611
 5012POPC   C3B64473  17.975  44.402   6.989
 5012POPC   C4B64474  17.927  44.462   7.406
 5013POPC   NC364475  36.104  43.282   5.033
 5013POPC   PO464476  36.065  42.807   5.501
 5013POPC   GL164477  36.173  43.088   5.779
 5013POPC   GL264478  35.869  43.165   5.880
 5013POPC   C1A64479  36.432  43.094   6.136
 5013POPC   D2A64480  36.556  42.745   6.415
 5013POPC   C3A64481  36.481  42.865   6.860
 5013POPC   C4A64482  36.261  43.176   7.111
 5013POPC   C1B64483  35.967  43.348   6.258
 5013POPC   C2B64484  36.037  43.185   6.658
 5013POPC   C3B64485  35.751  43.176   7.022
 5013POPC   C4B64486  35.711  43.241   7.461
 5014POPC   NC364487  23.194  16.980   5.494
 5014POPC   PO464488  22.943  16.393   5.618
 5014POPC   GL164489  22.863  16.782   5.848
 5014POPC   GL264490  23.204  16.891   5.990
 5014POPC   C1A64491  22.795  16.976   6.269
 5014POPC   D2A64492  22.925  17.160   6.666
 5014POPC   C3A64493  23.005  16.813   6.937
 5014POPC   C4A64494  22.715  16.768   7.253
 5014POPC   C1B64495  23.322  16.508   6.231
 5014POPC   C2B64496  23.325  16.259   6.598
 5014POPC   C3B64497  23.361  16.285   7.035
 5014POPC   C4B64498  23.074  16.424   7.284
 5015POPC   NC364499  34.391  15.997   5.391
 5015POPC   PO464500  34.926  15.839   5.172
 5015POPC   GL164501  34.824  15.894   5.687
 5015POPC   GL264502  34.576  16.099   5.845
 5015POPC   C1A64503  34.658  15.683   6.103
 5015POPC   D2A64504  34.850  15.696   6.514
 5015POPC   C3A64505  34.585  15.922   6.787
 5015POPC   C4A64506  34.651  15.809   7.186
 5015POPC   C1B64507  34.527  16.165   6.281
 5015POPC   C2B64508  34.515  16.474   6.616
 5015POPC   C3B64509  34.285  16.345   6.969
 5015POPC   C4B64510  34.258  16.094   7.331
 5016POPC   NC364511  26.696   3.341   5.589
 5016POPC   PO464512  27.063   3.949   5.408
 5016POPC   GL164513  26.966   3.717   5.814
 5016POPC   GL264514  27.130   3.434   5.840
 5016POPC   C1A64515  26.668   3.535   6.200
 5016POPC   D2A64516  26.623   3.264   6.571
 5016POPC   C3A64517  26.583   3.536   6.952
 5016POPC   C4A64518  26.893   3.555   7.310
 5016POPC   C1B64519  27.159   3.615   6.265
 5016POPC   C2B64520  27.039   3.569   6.694
 5016POPC   C3B64521  26.925   3.939   6.960
 5016POPC   C4B64522  27.036   4.051   7.386
 5017POPC   NC364523   8.323  37.189   5.033
 5017POPC   PO464524   8.104  37.735   5.390
 5017POPC   GL164525   8.248  37.788   5.800
 5017POPC   GL264526   7.970  37.603   5.905
 5017POPC   C1A64527   8.372  37.731   6.248
 5017POPC   D2A64528   8.606  37.494   6.573
 5017POPC   C3A64529   8.534  37.651   6.986
 5017POPC   C4A64530   8.387  37.531   7.391
 5017POPC   C1B64531   7.863  37.696   6.318
 5017POPC   C2B64532   8.090  37.739   6.706
 5017POPC   C3B64533   7.976  37.649   7.104
 5017POPC   C4B64534   7.877  37.500   7.490
 5018POPC   NC364535   3.650  27.946   5.131
 5018POPC   PO464536   3.677  27.390   5.544
 5018POPC   GL164537   3.468  27.596   5.883
 5018POPC   GL264538   3.286  27.880   5.642
 5018POPC   C1A64539   3.731  27.682   6.239
 5018POPC   D2A64540   3.963  27.476   6.598
 5018POPC   C3A64541   3.780  27.658   6.967
 5018POPC   C4A64542   3.850  27.830   7.379
 5018POPC   C1B64543   3.225  28.018   6.082
 5018POPC   C2B64544   3.368  27.946   6.485
 5018POPC   C3B64545   3.277  27.802   6.877
 5018POPC   C4B64546   3.373  27.678   7.292
 5019POPC   NC364547  14.173  40.845   5.295
 5019POPC   PO464548  14.646  40.402   5.545
 5019POPC   GL164549  14.398  40.618   5.833
 5019POPC   GL264550  14.285  40.969   5.830
 5019POPC   C1A64551  14.345  40.620   6.241
 5019POPC   D2A64552  14.476  40.908   6.503
 5019POPC   C3A64553  14.463  40.701   6.873
 5019POPC   C4A64554  14.654  40.906   7.211
 5019POPC   C1B64555  14.004  40.992   6.235
 5019POPC   C2B64556  14.009  40.837   6.705
 5019POPC   C3B64557  14.131  40.892   7.207
 5019POPC   C4B64558  14.086  41.069   7.653
 5020POPC   NC364559  20.692  42.877   5.354
 5020POPC   PO464560  21.040  43.385   5.553
 5020POPC   GL164561  20.783  43.088   5.849
 5020POPC   GL264562  20.499  42.876   5.815
 5020POPC   C1A64563  20.522  43.177   6.224
 5020POPC   D2A64564  20.776  43.114   6.577
 5020POPC   C3A64565  20.643  43.303   6.945
 5020POPC   C4A64566  20.816  43.126   7.263
 5020POPC   C1B64567  20.610  42.681   6.205
 5020POPC   C2B64568  20.443  42.691   6.565
 5020POPC   C3B64569  20.362  42.905   6.834
 5020POPC   C4B64570  20.376  42.811   7.226
 5021POPC   NC364571  24.341  29.515   5.406
 5021POPC   PO464572  24.343  30.164   5.320
 5021POPC   GL164573  24.245  29.954   5.688
 5021POPC   GL264574  24.565  29.835   5.739
 5021POPC   C1A64575  24.221  29.872   6.150
 5021POPC   D2A64576  24.459  29.877   6.534
 5021POPC   C3A64577  24.395  30.127   6.913
 5021POPC   C4A64578  24.230  29.872   7.267
 5021POPC   C1B64579  24.736  30.004   6.094
 5021POPC   C2B64580  24.964  29.835   6.422
 5021POPC   C3B64581  24.870  29.834   6.833
 5021POPC   C4B64582  24.739  29.878   7.220
 5022POPC   NC364583  34.552   1.600   5.115
 5022POPC   PO464584  34.199   2.175   5.318
 5022POPC   GL164585  34.436   2.115   5.721
 5022POPC   GL264586  34.529   1.749   5.784
 5022POPC   C1A64587  34.603   2.171   6.161
 5022POPC   D2A64588  34.708   2.417   6.529
 5022POPC   C3A64589  34.501   2.292   6.911
 5022POPC   C4A64590  34.505   2.004   7.284
 5022POPC   C1B64591  34.781   1.702   6.179
 5022POPC   C2B64592  34.700   1.816   6.622
 5022POPC   C3B64593  34.918   1.982   6.983
 5022POPC   C4B64594  35.067   1.790   7.337
 5023POPC   NC364595  11.634   6.556   5.409
 5023POPC   PO464596  11.161   6.115   5.189
 5023POPC   GL164597  11.096   6.503   5.628
 5023POPC   GL264598  11.096   6.902   5.630
 5023POPC   C1A64599  11.133   6.498   6.163
 5023POPC   D2A64600  10.959   6.567   6.639
 5023POPC   C3A64601  11.110   6.472   7.065
 5023POPC   C4A64602  11.539   6.352   7.154
 5023POPC   C1B64603  10.920   6.981   6.058
 5023POPC   C2B64604  11.201   6.974   6.410
 5023POPC   C3B64605  11.426   6.748   6.740
 5023POPC   C4B64606  11.385   6.868   7.155
 5024POPC   NC364607  11.940   1.919   5.361
 5024POPC   PO464608  11.411   2.327   5.544
 5024POPC   GL164609  11.767   2.121   5.789
 5024POPC   GL264610  11.733   1.727   5.791
 5024POPC   C1A64611  11.926   2.148   6.221
 5024POPC   D2A64612  11.716   2.157   6.629
 5024POPC   C3A64613  11.942   2.071   6.982
 5024POPC   C4A64614  12.032   2.232   7.384
 5024POPC   C1B64615  11.993   1.634   6.160
 5024POPC   C2B64616  12.116   1.773   6.562
 5024POPC   C3B64617  12.150   1.612   6.973
 5024POPC   C4B64618  11.939   1.684   7.339
 5025POPC   NC364619  22.754   9.464   5.440
 5025POPC   PO464620  23.020  10.143   5.429
 5025POPC   GL164621  23.094   9.999   5.848
 5025POPC   GL264622  23.038   9.655   5.896
 5025POPC   C1A64623  23.007  10.070   6.277
 5025POPC   D2A64624  22.813   9.887   6.642
 5025POPC   C3A64625  22.997   9.802   7.009
 5025POPC   C4A64626  22.954   9.893   7.421
 5025POPC   C1B64627  22.839   9.497   6.288
 5025POPC   C2B64628  22.919   9.344   6.720
 5025POPC   C3B64629  22.902   9.335   7.188
 5025POPC   C4B64630  22.879   9.408   7.652
 5026POPC   NC364631   3.809   2.847   5.376
 5026POPC   PO464632   3.129   2.998   5.308
 5026POPC   GL164633   3.373   2.890   5.748
 5026POPC   GL264634   3.697   2.662   5.846
 5026POPC   C1A64635   3.499   2.989   6.170
 5026POPC   D2A64636   3.723   3.258   6.431
 5026POPC   C3A64637   3.729   3.134   6.853
 5026POPC   C4A64638   3.595   3.226   7.257
 5026POPC   C1B64639   3.686   2.425   6.276
 5026POPC   C2B64640   3.397   2.216   6.563
 5026POPC   C3B64641   3.268   2.420   6.941
 5026POPC   C4B64642   3.595   2.692   7.128
 5027POPC   NC364643   5.562  20.406   5.550
 5027POPC   PO464644   6.024  20.023   5.149
 5027POPC   GL164645   6.054  20.112   5.633
 5027POPC   GL264646   6.378  20.141   5.760
 5027POPC   C1A64647   5.907  20.104   6.118
 5027POPC   D2A64648   5.617  19.993   6.507
 5027POPC   C3A64649   5.772  19.898   6.954
 5027POPC   C4A64650   5.548  19.712   7.323
 5027POPC   C1B64651   6.395  19.920   6.163
 5027POPC   C2B64652   6.486  19.897   6.577
 5027POPC   C3B64653   6.461  20.142   6.870
 5027POPC   C4B64654   6.230  19.999   7.214
 5028POPC   NC364655  30.941  32.883   5.310
 5028POPC   PO464656  30.344  33.212   5.434
 5028POPC   GL164657  30.598  33.169   5.775
 5028POPC   GL264658  30.604  32.832   5.742
 5028POPC   C1A64659  30.755  33.087   6.194
 5028POPC   D2A64660  31.029  33.074   6.568
 5028POPC   C3A64661  30.883  32.911   6.933
 5028POPC   C4A64662  30.767  33.238   7.188
 5028POPC   C1B64663  30.337  32.722   6.079
 5028POPC   C2B64664  30.520  32.729   6.495
 5028POPC   C3B64665  30.380  32.826   6.864
 5028POPC   C4B64666  30.465  32.844   7.267
 5029POPC   NC364667  13.837  35.489   5.496
 5029POPC   PO464668  13.193  35.108   5.418
 5029POPC   GL164669  13.375  35.315   5.752
 5029POPC   GL264670  13.629  35.056   5.720
 5029POPC   C1A64671  13.359  35.517   6.174
 5029POPC   D2A64672  13.222  35.592   6.617
 5029POPC   C3A64673  13.521  35.632   6.977
 5029POPC   C4A64674  13.493  35.409   7.375
 5029POPC   C1B64675  13.731  35.122   6.130
 5029POPC   C2B64676  13.704  35.319   6.525
 5029POPC   C3B64677  13.707  35.157   6.930
 5029POPC   C4B64678  13.745  34.950   7.287
 5030POPC   NC364679   0.042  25.807   5.036
 5030POPC   PO464680  44.547  26.246   5.386
 5030POPC   GL164681  44.516  26.215   5.833
 5030POPC   GL264682  44.480  25.850   5.879
 5030POPC   C1A64683  44.735  26.121   6.247
 5030POPC   D2A64684  44.642  26.000   6.690
 5030POPC   C3A64685  44.909  26.207   7.002
 5030POPC   C4A64686  44.940  26.266   7.475
 5030POPC   C1B64687  44.337  25.806   6.283
 5030POPC   C2B64688  44.273  25.563   6.627
 5030POPC   C3B64689  44.215  25.613   7.096
 5030POPC   C4B64690  44.495  25.966   7.223
 5031POPC   NC364691  35.132  35.186   5.376
 5031POPC   PO464692  35.715  35.465   5.442
 5031POPC   GL164693  35.403  35.222   5.805
 5031POPC   GL264694  35.026  35.144   5.870
 5031POPC   C1A64695  35.331  35.110   6.282
 5031POPC   D2A64696  35.299  35.457   6.593
 5031POPC   C3A64697  35.464  35.355   7.016
 5031POPC   C4A64698  35.650  35.614   7.320
 5031POPC   C1B64699  35.077  35.531   6.099
 5031POPC   C2B64700  34.926  35.814   6.424
 5031POPC   C3B64701  34.790  35.758   6.835
 5031POPC   C4B64702  34.957  35.456   7.109
 5032POPC   NC364703   8.192   0.281   5.639
 5032POPC   PO464704   7.910   0.824   5.353
 5032POPC   GL164705   8.065   0.741   5.801
 5032POPC   GL264706   7.811   0.653   6.037
 5032POPC   C1A64707   8.322   0.600   6.191
 5032POPC   D2A64708   8.148   0.567   6.608
 5032POPC   C3A64709   8.208   0.407   7.028
 5032POPC   C4A64710   8.285   0.601   7.411
 5032POPC   C1B64711   7.944   0.249   6.245
 5032POPC   C2B64712   7.978   0.092   6.669
 5032POPC   C3B64713   7.801   0.118   7.085
 5032POPC   C4B64714   7.831   0.307   7.495
 5033POPC   NC364715   8.146   8.460   5.527
 5033POPC   PO464716   8.557   8.144   5.085
 5033POPC   GL164717   8.335   8.024   5.616
 5033POPC   GL264718   7.960   7.985   5.698
 5033POPC   C1A64719   8.255   8.066   6.101
 5033POPC   D2A64720   8.077   8.098   6.539
 5033POPC   C3A64721   8.242   8.140   6.977
 5033POPC   C4A64722   8.330   8.440   7.285
 5033POPC   C1B64723   7.767   8.181   6.093
 5033POPC   C2B64724   7.568   8.162   6.487
 5033POPC   C3B64725   7.689   8.201   6.913
 5033POPC   C4B64726   7.847   7.962   7.271
 5034POPC   NC364727   2.334   5.004   5.377
 5034POPC   PO464728   1.630   5.214   5.456
 5034POPC   GL164729   1.704   5.012   5.856
 5034POPC   GL264730   2.081   4.954   5.843
 5034POPC   C1A64731   1.709   4.980   6.324
 5034POPC   D2A64732   2.127   4.908   6.523
 5034POPC   C3A64733   2.158   5.065   6.929
 5034POPC   C4A64734   1.766   4.995   7.198
 5034POPC   C1B64735   2.101   5.299   6.150
 5034POPC   C2B64736   1.901   5.398   6.551
 5034POPC   C3B64737   1.856   5.477   6.967
 5034POPC   C4B64738   2.092   5.418   7.292
 5035POPC   NC364739   8.710  25.693   5.470
 5035POPC   PO464740   9.166  26.053   5.211
 5035POPC   GL164741   9.122  25.941   5.672
 5035POPC   GL264742   8.829  26.121   5.762
 5035POPC   C1A64743   9.089  25.819   6.159
 5035POPC   D2A64744   8.992  25.976   6.605
 5035POPC   C3A64745   9.324  25.878   6.931
 5035POPC   C4A64746   9.302  25.719   7.359
 5035POPC   C1B64747   8.704  26.184   6.203
 5035POPC   C2B64748   8.616  26.472   6.543
 5035POPC   C3B64749   8.707  26.428   6.972
 5035POPC   C4B64750   8.900  26.059   7.168
 5036POPC   NC364751  24.164  26.465   5.500
 5036POPC   PO464752  24.346  25.919   5.280
 5036POPC   GL164753  24.259  26.041   5.756
 5036POPC   GL264754  24.572  26.169   5.821
 5036POPC   C1A64755  24.264  26.315   6.183
 5036POPC   D2A64756  24.174  26.152   6.608
 5036POPC   C3A64757  24.448  26.250   6.951
 5036POPC   C4A64758  24.514  26.263   7.400
 5036POPC   C1B64759  24.494  25.878   6.228
 5036POPC   C2B64760  24.510  25.791   6.699
 5036POPC   C3B64761  24.270  25.712   7.084
 5036POPC   C4B64762  24.437  25.418   7.439
 5037POPC   NC364763  28.026  31.143   5.495
 5037POPC   PO464764  28.361  30.414   5.507
 5037POPC   GL164765  28.461  30.709   5.837
 5037POPC   GL264766  28.172  30.828   5.856
 5037POPC   C1A64767  28.419  30.648   6.294
 5037POPC   D2A64768  28.153  30.398   6.597
 5037POPC   C3A64769  28.158  30.616   6.983
 5037POPC   C4A64770  28.548  30.795   7.101
 5037POPC   C1B64771  28.233  31.123   6.190
 5037POPC   C2B64772  28.117  31.171   6.636
 5037POPC   C3B64773  28.142  31.121   7.085
 5037POPC   C4B64774  27.902  30.875   7.372
 5038POPC   NC364775  35.138  21.402   5.329
 5038POPC   PO464776  35.712  21.115   5.426
 5038POPC   GL164777  35.391  21.351   5.766
 5038POPC   GL264778  35.020  21.223   5.785
 5038POPC   C1A64779  35.141  21.547   6.142
 5038POPC   D2A64780  35.186  21.428   6.573
 5038POPC   C3A64781  34.965  21.514   6.935
 5038POPC   C4A64782  35.269  21.470   7.245
 5038POPC   C1B64783  35.162  21.047   6.214
 5038POPC   C2B64784  35.161  20.892   6.647
 5038POPC   C3B64785  35.071  21.014   7.078
 5038POPC   C4B64786  34.825  21.279   7.371
 5039POPC   NC364787  23.841  38.303   5.399
 5039POPC   PO464788  23.357  38.795   5.328
 5039POPC   GL164789  23.636  38.691   5.707
 5039POPC   GL264790  24.002  38.763   5.751
 5039POPC   C1A64791  23.652  38.815   6.153
 5039POPC   D2A64792  23.835  38.726   6.542
 5039POPC   C3A64793  23.693  38.863   6.915
 5039POPC   C4A64794  23.555  38.564   7.177
 5039POPC   C1B64795  24.050  38.476   6.108
 5039POPC   C2B64796  23.932  38.231   6.476
 5039POPC   C3B64797  23.976  38.382   6.919
 5039POPC   C4B64798  23.949  38.287   7.356
 5040POPC   NC364799  16.904  36.651   5.431
 5040POPC   PO464800  16.331  36.970   5.392
 5040POPC   GL164801  16.497  36.698   5.747
 5040POPC   GL264802  16.734  36.951   5.812
 5040POPC   C1A64803  16.683  36.561   6.173
 5040POPC   D2A64804  16.511  36.576   6.616
 5040POPC   C3A64805  16.589  36.882   6.976
 5040POPC   C4A64806  16.591  36.835   7.423
 5040POPC   C1B64807  16.926  37.024   6.174
 5040POPC   C2B64808  16.798  37.114   6.566
 5040POPC   C3B64809  17.014  37.249   6.935
 5040POPC   C4B64810  17.129  37.131   7.340
 5041POPC   NC364811  31.599  33.964   5.435
 5041POPC   PO464812  31.191  33.581   5.816
 5041POPC   GL164813  31.583  33.729   5.887
 5041POPC   GL264814  31.718  33.378   5.833
 5041POPC   C1A64815  31.544  34.033   6.241
 5041POPC   D2A64816  31.488  34.258   6.642
 5041POPC   C3A64817  31.556  34.113   7.080
 5041POPC   C4A64818  31.421  33.979   7.512
 5041POPC   C1B64819  31.679  33.478   6.303
 5041POPC   C2B64820  31.562  33.725   6.656
 5041POPC   C3B64821  31.505  33.556   7.041
 5041POPC   C4B64822  31.602  33.473   7.433
 5042POPC   NC364823  41.183  31.265   5.441
 5042POPC   PO464824  41.881  31.464   5.335
 5042POPC   GL164825  41.589  31.428   5.718
 5042POPC   GL264826  41.456  31.708   5.865
 5042POPC   C1A64827  41.643  31.382   6.191
 5042POPC   D2A64828  41.835  31.414   6.590
 5042POPC   C3A64829  41.591  31.438   6.956
 5042POPC   C4A64830  41.880  31.302   7.263
 5042POPC   C1B64831  41.623  31.987   6.128
 5042POPC   C2B64832  41.625  31.888   6.544
 5042POPC   C3B64833  41.892  31.862   6.865
 5042POPC   C4B64834  41.800  31.812   7.267
 5043POPC   NC364835  44.712  20.652   5.395
 5043POPC   PO464836  44.353  20.063   5.571
 5043POPC   GL164837  44.594  20.389   5.815
 5043POPC   GL264838  44.305  20.631   5.770
 5043POPC   C1A64839  44.813  20.619   6.187
 5043POPC   D2A64840  44.745  20.859   6.617
 5043POPC   C3A64841  44.992  20.683   6.997
 5043POPC   C4A64842  44.938  20.718   7.479
 5043POPC   C1B64843  44.237  20.445   6.183
 5043POPC   C2B64844  44.374  20.512   6.612
 5043POPC   C3B64845  44.385  20.472   7.061
 5043POPC   C4B64846  44.321  20.639   7.484
 5044POPC   NC364847  27.065  30.323   5.370
 5044POPC   PO464848  26.667  29.708   5.383
 5044POPC   GL164849  26.770  30.033   5.670
 5044POPC   GL264850  26.818  29.805   5.892
 5044POPC   C1A64851  26.847  30.275   6.055
 5044POPC   D2A64852  26.811  30.012   6.429
 5044POPC   C3A64853  26.814  30.242   6.800
 5044POPC   C4A64854  26.759  30.190   7.201
 5044POPC   C1B64855  26.752  29.524   6.226
 5044POPC   C2B64856  26.562  29.515   6.614
 5044POPC   C3B64857  26.610  29.580   7.036
 5044POPC   C4B64858  26.908  29.445   7.292
 5045POPC   NC364859  30.191  36.614   5.324
 5045POPC   PO464860  29.615  36.306   5.625
 5045POPC   GL164861  29.880  36.084   5.892
 5045POPC   GL264862  30.246  36.141   5.812
 5045POPC   C1A64863  29.763  36.073   6.319
 5045POPC   D2A64864  29.791  35.909   6.709
 5045POPC   C3A64865  29.736  36.151   7.051
 5045POPC   C4A64866  29.550  35.893   7.315
 5045POPC   C1B64867  30.183  36.336   6.241
 5045POPC   C2B64868  30.095  36.359   6.698
 5045POPC   C3B64869  30.198  36.359   7.136
 5045POPC   C4B64870  30.333  36.470   7.533
 5046POPC   NC364871  38.617  22.755   5.352
 5046POPC   PO464872  38.211  23.243   5.239
 5046POPC   GL164873  38.357  23.031   5.698
 5046POPC   GL264874  38.470  22.674   5.830
 5046POPC   C1A64875  38.234  23.051   6.138
 5046POPC   D2A64876  38.454  22.934   6.531
 5046POPC   C3A64877  38.459  23.239   6.854
 5046POPC   C4A64878  38.283  23.170   7.228
 5046POPC   C1B64879  38.798  22.555   6.159
 5046POPC   C2B64880  38.774  22.472   6.627
 5046POPC   C3B64881  38.510  22.653   6.983
 5046POPC   C4B64882  38.528  22.643   7.434
 5047POPC   NC364883  36.694   0.374   5.090
 5047POPC   PO464884  37.105   0.648   5.426
 5047POPC   GL164885  36.880   0.516   5.842
 5047POPC   GL264886  36.706   0.190   5.925
 5047POPC   C1A64887  37.015   0.452   6.298
 5047POPC   D2A64888  37.212   0.651   6.676
 5047POPC   C3A64889  37.222   0.380   7.032
 5047POPC   C4A64890  36.983   0.031   7.149
 5047POPC   C1B64891  36.681   0.023   6.358
 5047POPC   C2B64892  36.689   0.222   6.777
 5047POPC   C3B64893  36.495   0.296   7.212
 5047POPC   C4B64894  36.459   0.427   7.664
 5048POPC   NC364895   5.223  38.466   5.353
 5048POPC   PO464896   4.640  38.724   5.594
 5048POPC   GL164897   5.053  38.566   5.822
 5048POPC   GL264898   5.151  38.217   5.839
 5048POPC   C1A64899   5.286  38.566   6.216
 5048POPC   D2A64900   5.099  38.696   6.609
 5048POPC   C3A64901   5.241  38.574   6.997
 5048POPC   C4A64902   5.511  38.846   7.205
 5048POPC   C1B64903   4.957  38.186   6.271
 5048POPC   C2B64904   4.857  38.262   6.707
 5048POPC   C3B64905   4.735  38.507   7.068
 5048POPC   C4B64906   4.813  38.320   7.441
 5049POPC   NC364907  22.897  38.800   5.461
 5049POPC   PO464908  23.214  39.295   5.082
 5049POPC   GL164909  23.115  39.302   5.557
 5049POPC   GL264910  23.250  39.030   5.760
 5049POPC   C1A64911  22.902  39.324   5.991
 5049POPC   D2A64912  22.832  39.199   6.436
 5049POPC   C3A64913  22.853  39.458   6.796
 5049POPC   C4A64914  22.949  39.369   7.221
 5049POPC   C1B64915  23.150  38.882   6.166
 5049POPC   C2B64916  23.292  38.933   6.579
 5049POPC   C3B64917  23.027  38.953   6.942
 5049POPC   C4B64918  22.914  38.836   7.374
 5050POPC   NC364919   9.482  30.395   5.384
 5050POPC   PO464920  10.039  30.823   5.436
 5050POPC   GL164921   9.844  30.814   5.803
 5050POPC   GL264922   9.588  30.536   5.866
 5050POPC   C1A64923   9.970  30.723   6.217
 5050POPC   D2A64924   9.891  30.553   6.598
 5050POPC   C3A64925   9.924  30.790   6.984
 5050POPC   C4A64926   9.873  30.542   7.356
 5050POPC   C1B64927   9.477  30.889   6.144
 5050POPC   C2B64928   9.527  30.938   6.595
 5050POPC   C3B64929   9.465  30.602   6.885
 5050POPC   C4B64930   9.358  30.553   7.294
 5051POPC   NC364931   0.686  39.442   5.205
 5051POPC   PO464932   0.436  38.828   5.353
 5051POPC   GL164933   0.526  39.073   5.712
 5051POPC   GL264934   0.225  39.281   5.799
 5051POPC   C1A64935   0.455  38.984   6.161
 5051POPC   D2A64936   0.513  39.191   6.539
 5051POPC   C3A64937   0.319  39.029   6.888
 5051POPC   C4A64938   0.408  39.080   7.307
 5051POPC   C1B64939   0.241  39.499   6.230
 5051POPC   C2B64940   0.516  39.700   6.593
 5051POPC   C3B64941   0.522  39.511   6.999
 5051POPC   C4B64942   0.086  39.419   7.122
 5052POPC   NC364943  44.710  35.163   5.610
 5052POPC   PO464944  44.891  35.787   5.417
 5052POPC   GL164945  44.814  35.649   5.850
 5052POPC   GL264946  44.475  35.501   5.924
 5052POPC   C1A64947  44.719  35.696   6.316
 5052POPC   D2A64948  44.676  35.314   6.526
 5052POPC   C3A64949  44.818  35.281   6.908
 5052POPC   C4A64950  44.631  35.495   7.233
 5052POPC   C1B64951  44.327  35.128   6.178
 5052POPC   C2B64952  44.237  35.014   6.620
 5052POPC   C3B64953  44.405  34.784   6.973
 5052POPC   C4B64954  44.672  34.971   7.264
 5053POPC   NC364955  17.714  27.560   5.330
 5053POPC   PO464956  17.120  27.224   5.461
 5053POPC   GL164957  17.429  27.522   5.763
 5053POPC   GL264958  17.699  27.818   5.769
 5053POPC   C1A64959  17.588  27.520   6.189
 5053POPC   D2A64960  17.548  27.375   6.606
 5053POPC   C3A64961  17.396  27.609   6.938
 5053POPC   C4A64962  17.151  27.584   7.318
 5053POPC   C1B64963  18.037  27.739   6.056
 5053POPC   C2B64964  18.038  27.593   6.476
 5053POPC   C3B64965  17.898  27.595   6.909
 5053POPC   C4B64966  17.694  27.513   7.324
 5054POPC   NC364967  29.316  32.572   5.267
 5054POPC   PO464968  28.934  31.976   5.498
 5054POPC   GL164969  28.939  32.381   5.713
 5054POPC   GL264970  29.306  32.422   5.792
 5054POPC   C1A64971  28.951  32.502   6.168
 5054POPC   D2A64972  29.103  32.370   6.581
 5054POPC   C3A64973  28.809  32.196   6.883
 5054POPC   C4A64974  28.825  32.016   7.276
 5054POPC   C1B64975  29.337  32.127   6.160
 5054POPC   C2B64976  29.542  32.098   6.587
 5054POPC   C3B64977  29.342  32.054   7.005
 5054POPC   C4B64978  29.378  32.165   7.455
 5055POPC   NC364979  24.177  31.243   5.510
 5055POPC   PO464980  24.570  31.751   5.535
 5055POPC   GL164981  24.399  31.573   5.851
 5055POPC   GL264982  24.619  31.280   5.809
 5055POPC   C1A64983  24.229  31.713   6.227
 5055POPC   D2A64984  24.255  31.499   6.624
 5055POPC   C3A64985  24.457  31.590   6.988
 5055POPC   C4A64986  24.329  31.842   7.307
 5055POPC   C1B64987  24.495  31.264   6.239
 5055POPC   C2B64988  24.634  31.149   6.634
 5055POPC   C3B64989  24.844  31.203   7.007
 5055POPC   C4B64990  24.550  31.205   7.291
 5056POPC   NC364991  10.178  13.289   4.773
 5056POPC   PO464992   9.869  13.563   5.275
 5056POPC   GL164993   9.762  13.602   5.742
 5056POPC   GL264994   9.693  13.261   5.884
 5056POPC   C1A64995   9.762  13.856   6.140
 5056POPC   D2A64996   9.955  14.080   6.485
 5056POPC   C3A64997   9.958  13.844   6.893
 5056POPC   C4A64998   9.828  13.784   7.313
 5056POPC   C1B64999   9.938  13.386   6.264
 5056POPC   C2B65000   9.956  13.328   6.719
 5056POPC   C3B65001   9.739  13.318   7.134
 5056POPC   C4B65002   9.917  13.360   7.596
 5057POPC   NC365003   4.198  21.610   5.538
 5057POPC   PO465004   4.826  21.329   5.501
 5057POPC   GL165005   4.693  21.384   5.936
 5057POPC   GL265006   4.338  21.492   6.031
 5057POPC   C1A65007   4.703  21.437   6.380
 5057POPC   D2A65008   4.734  21.694   6.702
 5057POPC   C3A65009   4.335  21.762   6.881
 5057POPC   C4A65010   4.235  21.474   7.187
 5057POPC   C1B65011   4.190  21.497   6.454
 5057POPC   C2B65012   4.349  21.236   6.761
 5057POPC   C3B65013   4.161  20.985   7.071
 5057POPC   C4B65014   4.107  21.095   7.523
 5058POPC   NC365015  31.963   7.443   5.401
 5058POPC   PO465016  32.601   7.616   5.212
 5058POPC   GL165017  32.389   7.574   5.686
 5058POPC   GL265018  32.184   7.310   5.868
 5058POPC   C1A65019  32.388   7.683   6.160
 5058POPC   D2A65020  32.141   7.869   6.518
 5058POPC   C3A65021  32.301   7.675   6.888
 5058POPC   C4A65022  32.247   7.566   7.337
 5058POPC   C1B65023  32.491   7.183   6.220
 5058POPC   C2B65024  32.432   7.215   6.682
 5058POPC   C3B65025  32.457   7.154   7.137
 5058POPC   C4B65026  32.228   7.081   7.569
 5059POPC   NC365027  44.742   4.426   5.337
 5059POPC   PO465028  44.566   3.822   5.265
 5059POPC   GL165029  44.524   4.056   5.680
 5059POPC   GL265030  44.438   4.429   5.734
 5059POPC   C1A65031  44.711   4.186   6.081
 5059POPC   D2A65032  44.623   4.216   6.508
 5059POPC   C3A65033  44.983   4.241   6.755
 5059POPC   C4A65034   0.018   4.160   7.152
 5059POPC   C1B65035  44.320   4.609   6.140
 5059POPC   C2B65036  44.550   4.730   6.468
 5059POPC   C3B65037  44.824   4.737   6.804
 5059POPC   C4B65038  44.651   4.532   7.149
 5060POPC   NC365039  27.618  39.611   5.603
 5060POPC   PO465040  27.839  40.253   5.405
 5060POPC   GL165041  27.833  40.046   5.801
 5060POPC   GL265042  27.459  40.022   5.913
 5060POPC   C1A65043  27.879  40.138   6.235
 5060POPC   D2A65044  27.586  40.130   6.572
 5060POPC   C3A65045  27.821  40.173   6.928
 5060POPC   C4A65046  27.750  40.437   7.227
 5060POPC   C1B65047  27.159  40.008   6.280
 5060POPC   C2B65048  27.203  39.760   6.681
 5060POPC   C3B65049  27.378  39.926   7.026
 5060POPC   C4B65050  27.296  40.223   7.293
 5061POPC   NC365051   6.199  20.434   5.218
 5061POPC   PO465052   5.790  20.918   5.474
 5061POPC   GL165053   5.791  20.738   5.894
 5061POPC   GL265054   6.096  20.563   5.900
 5061POPC   C1A65055   5.813  20.645   6.346
 5061POPC   D2A65056   5.764  20.797   6.788
 5061POPC   C3A65057   5.483  20.593   7.124
 5061POPC   C4A65058   5.425  20.630   7.585
 5061POPC   C1B65059   6.279  20.404   6.304
 5061POPC   C2B65060   6.026  20.305   6.671
 5061POPC   C3B65061   5.980  20.421   7.097
 5061POPC   C4B65062   5.878  20.404   7.533
 5062POPC   NC365063   2.957   3.395   5.571
 5062POPC   PO465064   2.537   2.771   5.470
 5062POPC   GL165065   2.731   2.935   5.849
 5062POPC   GL265066   2.748   2.623   6.037
 5062POPC   C1A65067   2.972   3.055   6.198
 5062POPC   D2A65068   2.892   2.851   6.607
 5062POPC   C3A65069   2.543   2.874   6.912
 5062POPC   C4A65070   2.530   2.660   7.294
 5062POPC   C1B65071   3.196   2.587   6.225
 5062POPC   C2B65072   3.399   2.788   6.632
 5062POPC   C3B65073   3.162   2.944   7.071
 5062POPC   C4B65074   2.961   2.823   7.544
 5063POPC   NC365075  25.200   4.365   5.304
 5063POPC   PO465076  25.533   3.814   5.459
 5063POPC   GL165077  25.399   4.135   5.761
 5063POPC   GL265078  25.055   4.050   5.720
 5063POPC   C1A65079  25.309   4.345   6.196
 5063POPC   D2A65080  25.319   4.209   6.661
 5063POPC   C3A65081  25.328   4.498   7.039
 5063POPC   C4A65082  25.343   4.664   7.502
 5063POPC   C1B65083  24.835   4.135   6.109
 5063POPC   C2B65084  24.837   4.023   6.547
 5063POPC   C3B65085  24.909   4.161   6.984
 5063POPC   C4B65086  24.712   4.047   7.410
 5064POPC   NC365087  15.646   9.619   5.367
 5064POPC   PO465088  16.283   9.578   5.199
 5064POPC   GL165089  16.020   9.735   5.654
 5064POPC   GL265090  16.131   9.988   5.820
 5064POPC   C1A65091  15.869   9.671   6.112
 5064POPC   D2A65092  15.758   9.902   6.510
 5064POPC   C3A65093  15.772   9.637   6.844
 5064POPC   C4A65094  16.040   9.613   7.192
 5064POPC   C1B65095  15.956  10.189   6.147
 5064POPC   C2B65096  16.162  10.277   6.526
 5064POPC   C3B65097  16.093  10.078   6.897
 5064POPC   C4B65098  15.793  10.049   7.149
 5065POPC   NC365099  19.610  44.105   5.534
 5065POPC   PO465100  20.056  43.551   5.602
 5065POPC   GL165101  19.846  43.800   5.915
 5065POPC   GL265102  19.960  44.151   5.899
 5065POPC   C1A65103  19.816  43.825   6.357
 5065POPC   D2A65104  19.620  43.989   6.720
 5065POPC   C3A65105  19.693  43.678   6.971
 5065POPC   C4A65106  19.983  43.721   7.270
 5065POPC   C1B65107  19.797  44.321   6.258
 5065POPC   C2B65108  20.018  44.286   6.650
 5065POPC   C3B65109  19.922  44.228   7.097
 5065POPC   C4B65110  19.947  44.263   7.567
 5066POPC   NC365111  15.473   4.359   5.526
 5066POPC   PO465112  15.047   3.886   5.504
 5066POPC   GL165113  14.919   4.002   5.917
 5066POPC   GL265114  15.142   4.302   5.951
 5066POPC   C1A65115  14.823   4.108   6.356
 5066POPC   D2A65116  14.990   4.258   6.755
 5066POPC   C3A65117  14.971   4.008   7.114
 5066POPC   C4A65118  15.220   4.049   7.513
 5066POPC   C1B65119  15.544   4.306   6.193
 5066POPC   C2B65120  15.594   4.260   6.644
 5066POPC   C3B65121  15.439   4.224   7.073
 5066POPC   C4B65122  15.491   4.473   7.469
 5067POPC   NC365123  44.362  17.191   5.421
 5067POPC   PO465124  44.791  17.740   5.453
 5067POPC   GL165125  44.528  17.611   5.744
 5067POPC   GL265126  44.369  17.929   5.843
 5067POPC   C1A65127  44.492  17.386   6.148
 5067POPC   D2A65128  44.454  17.607   6.588
 5067POPC   C3A65129  44.500  17.359   6.959
 5067POPC   C4A65130  44.780  17.274   7.281
 5067POPC   C1B65131  44.664  17.856   6.182
 5067POPC   C2B65132  44.949  17.599   6.442
 5067POPC   C3B65133  44.922  17.631   6.895
 5067POPC   C4B65134  44.678  17.780   7.258
 5068POPC   NC365135  12.402   6.193   4.965
 5068POPC   PO465136  12.006   6.649   5.156
 5068POPC   GL165137  12.149   6.649   5.657
 5068POPC   GL265138  11.991   6.941   5.858
 5068POPC   C1A65139  12.247   6.564   6.139
 5068POPC   D2A65140  12.305   6.304   6.538
 5068POPC   C3A65141  12.296   6.441   6.991
 5068POPC   C4A65142  12.022   6.335   7.386
 5068POPC   C1B65143  11.825   6.953   6.278
 5068POPC   C2B65144  11.936   6.679   6.626
 5068POPC   C3B65145  11.883   6.739   7.063
 5068POPC   C4B65146  11.823   7.093   7.287
 5069POPC   NC365147   9.838  14.649   5.353
 5069POPC   PO465148   9.625  14.123   5.455
 5069POPC   GL165149   9.798  14.342   5.775
 5069POPC   GL265150  10.076  14.175   5.909
 5069POPC   C1A65151   9.649  14.382   6.216
 5069POPC   D2A65152   9.466  14.139   6.601
 5069POPC   C3A65153   9.627  14.209   7.038
 5069POPC   C4A65154   9.831  14.271   7.448
 5069POPC   C1B65155  10.122  14.537   6.108
 5069POPC   C2B65156  10.065  14.597   6.514
 5069POPC   C3B65157  10.028  14.539   6.951
 5069POPC   C4B65158  10.209  14.676   7.327
 5070POPC   NC365159  42.499   1.171   5.317
 5070POPC   PO465160  42.590   1.737   5.655
 5070POPC   GL165161  42.349   1.425   5.836
 5070POPC   GL265162  42.319   1.044   5.794
 5070POPC   C1A65163  42.480   1.289   6.226
 5070POPC   D2A65164  42.547   1.113   6.606
 5070POPC   C3A65165  42.463   1.428   6.915
 5070POPC   C4A65166  42.353   1.434   7.333
 5070POPC   C1B65167  42.404   0.791   6.207
 5070POPC   C2B65168  42.274   0.681   6.639
 5070POPC   C3B65169  42.274   0.946   7.009
 5070POPC   C4B65170  42.165   0.963   7.432
 5071POPC   NC365171  25.335   3.386   5.455
 5071POPC   PO465172  24.760   3.626   5.597
 5071POPC   GL165173  25.018   3.434   5.864
 5071POPC   GL265174  25.321   3.636   5.909
 5071POPC   C1A65175  25.016   3.423   6.294
 5071POPC   D2A65176  24.782   3.505   6.621
 5071POPC   C3A65177  25.088   3.690   6.865
 5071POPC   C4A65178  25.107   3.771   7.263
 5071POPC   C1B65179  25.477   3.252   6.095
 5071POPC   C2B65180  25.595   3.184   6.500
 5071POPC   C3B65181  25.346   3.227   6.829
 5071POPC   C4B65182  25.481   3.442   7.176
 5072POPC   NC365183  43.707  32.986   5.397
 5072POPC   PO465184  43.407  33.547   5.367
 5072POPC   GL165185  43.665  33.392   5.774
 5072POPC   GL265186  43.934  33.119   5.832
 5072POPC   C1A65187  43.607  33.208   6.210
 5072POPC   D2A65188  43.961  33.097   6.494
 5072POPC   C3A65189  43.819  33.011   6.912
 5072POPC   C4A65190  43.817  33.266   7.260
 5072POPC   C1B65191  44.168  32.817   6.100
 5072POPC   C2B65192  44.208  32.661   6.532
 5072POPC   C3B65193  44.292  32.787   6.950
 5072POPC   C4B65194  44.127  32.882   7.356
 5073POPC   NC365195  10.709   4.945   5.297
 5073POPC   PO465196  10.477   5.514   5.503
 5073POPC   GL165197  10.562   5.257   5.832
 5073POPC   GL265198  10.529   4.898   5.797
 5073POPC   C1A65199  10.657   5.168   6.249
 5073POPC   D2A65200  10.813   5.291   6.665
 5073POPC   C3A65201  10.606   5.263   7.081
 5073POPC   C4A65202  10.523   4.955   7.442
 5073POPC   C1B65203  10.468   4.640   6.170
 5073POPC   C2B65204  10.459   4.833   6.574
 5073POPC   C3B65205  10.330   4.861   6.971
 5073POPC   C4B65206  10.082   4.695   7.271
 5074POPC   NC365207  24.709  20.427   5.441
 5074POPC   PO465208  24.084  20.717   5.484
 5074POPC   GL165209  24.108  20.487   5.874
 5074POPC   GL265210  24.366  20.257   5.787
 5074POPC   C1A65211  24.207  20.645   6.304
 5074POPC   D2A65212  24.682  20.709   6.488
 5074POPC   C3A65213  24.727  20.644   6.946
 5074POPC   C4A65214  24.433  20.893   7.216
 5074POPC   C1B65215  24.554  20.300   6.211
 5074POPC   C2B65216  24.397  20.330   6.673
 5074POPC   C3B65217  24.326  20.392   7.125
 5074POPC   C4B65218  24.411  20.185   7.520
 5075POPC   NC365219  41.752  13.163   5.206
 5075POPC   PO465220  41.633  12.531   5.380
 5075POPC   GL165221  41.730  12.709   5.795
 5075POPC   GL265222  41.868  13.038   5.704
 5075POPC   C1A65223  41.571  12.720   6.223
 5075POPC   D2A65224  41.277  12.816   6.533
 5075POPC   C3A65225  41.413  12.859   6.908
 5075POPC   C4A65226  41.532  12.817   7.300
 5075POPC   C1B65227  41.881  13.157   6.137
 5075POPC   C2B65228  41.680  13.175   6.553
 5075POPC   C3B65229  41.737  13.245   7.006
 5075POPC   C4B65230  41.979  13.045   7.327
 5076POPC   NC365231   8.641  27.664   5.700
 5076POPC   PO465232   8.095  27.378   5.427
 5076POPC   GL165233   8.183  27.551   5.854
 5076POPC   GL265234   8.312  27.252   5.933
 5076POPC   C1A65235   8.289  27.797   6.265
 5076POPC   D2A65236   8.046  27.876   6.663
 5076POPC   C3A65237   8.171  27.695   7.063
 5076POPC   C4A65238   8.037  27.728   7.471
 5076POPC   C1B65239   8.478  27.299   6.328
 5076POPC   C2B65240   8.669  27.258   6.706
 5076POPC   C3B65241   8.454  27.211   7.047
 5076POPC   C4B65242   8.221  27.237   7.411
 5077POPC   NC365243  23.445  41.131   5.109
 5077POPC   PO465244  23.414  41.745   5.399
 5077POPC   GL165245  23.215  41.714   5.823
 5077POPC   GL265246  23.291  41.364   5.918
 5077POPC   C1A65247  23.321  41.709   6.284
 5077POPC   D2A65248  23.542  41.345   6.501
 5077POPC   C3A65249  23.528  41.377   6.950
 5077POPC   C4A65250  23.589  41.780   7.213
 5077POPC   C1B65251  23.735  41.507   6.047
 5077POPC   C2B65252  24.027  41.528   6.429
 5077POPC   C3B65253  23.958  41.658   6.850
 5077POPC   C4B65254  24.094  41.717   7.267
 5078POPC   NC365255  37.607   8.451   5.289
 5078POPC   PO465256  37.663   7.753   5.416
 5078POPC   GL165257  37.772   8.036   5.749
 5078POPC   GL265258  37.786   8.398   5.754
 5078POPC   C1A65259  37.869   7.957   6.177
 5078POPC   D2A65260  37.819   8.144   6.551
 5078POPC   C3A65261  37.785   7.916   6.921
 5078POPC   C4A65262  37.613   8.049   7.293
 5078POPC   C1B65263  37.732   8.505   6.176
 5078POPC   C2B65264  37.566   8.592   6.594
 5078POPC   C3B65265  37.742   8.428   6.973
 5078POPC   C4B65266  37.959   8.567   7.344
 5079POPC   NC365267   8.523  33.632   5.609
 5079POPC   PO465268   8.897  34.094   5.437
 5079POPC   GL165269   8.954  33.872   5.828
 5079POPC   GL265270   8.988  33.493   5.822
 5079POPC   C1A65271   8.954  34.054   6.240
 5079POPC   D2A65272   9.245  34.213   6.565
 5079POPC   C3A65273   9.015  34.108   6.914
 5079POPC   C4A65274   8.835  33.863   7.188
 5079POPC   C1B65275   8.769  33.547   6.220
 5079POPC   C2B65276   8.642  33.663   6.637
 5079POPC   C3B65277   8.865  33.442   6.930
 5079POPC   C4B65278   8.936  33.374   7.383
 5080POPC   NC365279  26.981  41.108   5.173
 5080POPC   PO465280  26.891  40.494   5.407
 5080POPC   GL165281  26.853  40.816   5.714
 5080POPC   GL265282  27.178  40.982   5.705
 5080POPC   C1A65283  26.717  40.696   6.138
 5080POPC   D2A65284  26.785  40.865   6.547
 5080POPC   C3A65285  26.779  40.685   6.958
 5080POPC   C4A65286  26.672  40.832   7.385
 5080POPC   C1B65287  27.039  41.090   6.161
 5080POPC   C2B65288  26.993  41.309   6.612
 5080POPC   C3B65289  26.944  41.191   7.088
 5080POPC   C4B65290  27.090  41.086   7.545
 5081POPC   NC365291  13.073  11.468   4.631
 5081POPC   PO465292  12.855  11.295   5.251
 5081POPC   GL165293  12.812  11.414   5.687
 5081POPC   GL265294  13.063  11.655   5.705
 5081POPC   C1A65295  12.612  11.212   6.065
 5081POPC   D2A65296  12.762  11.168   6.482
 5081POPC   C3A65297  12.569  11.361   6.844
 5081POPC   C4A65298  12.716  11.433   7.261
 5081POPC   C1B65299  13.101  11.464   6.141
 5081POPC   C2B65300  13.232  11.303   6.592
 5081POPC   C3B65301  13.047  11.134   7.008
 5081POPC   C4B65302  13.090  11.182   7.523
 5082POPC   NC365303  32.795   7.842   5.565
 5082POPC   PO465304  32.990   8.397   5.185
 5082POPC   GL165305  33.047   8.370   5.683
 5082POPC   GL265306  32.786   8.260   5.885
 5082POPC   C1A65307  33.154   8.513   6.142
 5082POPC   D2A65308  33.005   8.430   6.586
 5082POPC   C3A65309  33.249   8.463   6.934
 5082POPC   C4A65310  33.160   8.440   7.340
 5082POPC   C1B65311  32.955   8.042   6.266
 5082POPC   C2B65312  33.144   7.955   6.692
 5082POPC   C3B65313  33.131   7.928   7.144
 5082POPC   C4B65314  33.451   8.011   7.383
 5083POPC   NC365315  24.406   7.683   5.457
 5083POPC   PO465316  24.800   7.086   5.446
 5083POPC   GL165317  24.545   7.305   5.783
 5083POPC   GL265318  24.698   7.634   5.869
 5083POPC   C1A65319  24.351   7.477   6.181
 5083POPC   D2A65320  24.167   7.607   6.570
 5083POPC   C3A65321  24.241   7.451   6.989
 5083POPC   C4A65322  24.377   7.465   7.427
 5083POPC   C1B65323  24.668   7.866   6.223
 5083POPC   C2B65324  24.714   7.933   6.629
 5083POPC   C3B65325  24.541   7.859   7.003
 5083POPC   C4B65326  24.744   7.925   7.382
 5084POPC   NC365327   9.417   3.647   5.325
 5084POPC   PO465328  10.107   3.779   5.400
 5084POPC   GL165329   9.944   3.735   5.828
 5084POPC   GL265330  10.274   3.667   5.904
 5084POPC   C1A65331   9.625   3.719   6.192
 5084POPC   D2A65332   9.529   3.800   6.644
 5084POPC   C3A65333   9.509   3.370   6.875
 5084POPC   C4A65334   9.385   3.358   7.280
 5084POPC   C1B65335  10.100   3.563   6.297
 5084POPC   C2B65336   9.954   3.559   6.689
 5084POPC   C3B65337   9.850   3.641   7.118
 5084POPC   C4B65338   9.873   3.270   7.287
 5085POPC   NC365339  21.604  42.680   5.399
 5085POPC   PO465340  21.453  42.014   5.361
 5085POPC   GL165341  21.640  42.243   5.675
 5085POPC   GL265342  21.384  42.425   5.836
 5085POPC   C1A65343  21.737  42.173   6.111
 5085POPC   D2A65344  21.510  42.357   6.440
 5085POPC   C3A65345  21.628  42.247   6.842
 5085POPC   C4A65346  21.579  42.388   7.266
 5085POPC   C1B65347  21.084  42.200   6.150
 5085POPC   C2B65348  21.131  42.027   6.567
 5085POPC   C3B65349  21.110  42.243   6.975
 5085POPC   C4B65350  21.188  42.070   7.376
 5086POPC   NC365351  44.105   9.780   5.303
 5086POPC   PO465352  43.587   9.450   5.082
 5086POPC   GL165353  43.666   9.692   5.561
 5086POPC   GL265354  43.915  10.003   5.710
 5086POPC   C1A65355  43.717   9.718   6.069
 5086POPC   D2A65356  43.615   9.860   6.498
 5086POPC   C3A65357  43.698   9.526   6.783
 5086POPC   C4A65358  43.942   9.530   7.151
 5086POPC   C1B65359  43.975  10.178   6.168
 5086POPC   C2B65360  43.917  10.272   6.630
 5086POPC   C3B65361  43.841  10.006   7.012
 5086POPC   C4B65362  44.168   9.949   7.383
 5087POPC   NC365363   0.781  31.671   5.377
 5087POPC   PO465364   1.340  31.439   5.162
 5087POPC   GL165365   1.220  31.445   5.644
 5087POPC   GL265366   0.997  31.651   5.849
 5087POPC   C1A65367   1.358  31.400   6.113
 5087POPC   D2A65368   1.232  31.359   6.565
 5087POPC   C3A65369   1.465  31.394   6.980
 5087POPC   C4A65370   1.625  31.716   7.318
 5087POPC   C1B65371   0.834  31.412   6.227
 5087POPC   C2B65372   0.733  31.311   6.668
 5087POPC   C3B65373   0.965  31.528   7.008
 5087POPC   C4B65374   1.103  31.668   7.435
 5088POPC   NC365375   7.089  35.668   5.348
 5088POPC   PO465376   7.347  36.392   5.297
 5088POPC   GL165377   7.441  36.152   5.740
 5088POPC   GL265378   7.315  35.802   5.778
 5088POPC   C1A65379   7.543  36.176   6.234
 5088POPC   D2A65380   7.458  36.366   6.669
 5088POPC   C3A65381   7.592  36.203   7.114
 5088POPC   C4A65382   7.563  35.789   7.328
 5088POPC   C1B65383   7.105  35.946   6.153
 5088POPC   C2B65384   7.018  36.097   6.568
 5088POPC   C3B65385   7.166  35.967   6.987
 5088POPC   C4B65386   7.063  35.805   7.394
 5089POPC   NC365387  30.231  17.991   4.964
 5089POPC   PO465388  30.278  18.487   5.261
 5089POPC   GL165389  30.112  18.380   5.697
 5089POPC   GL265390  30.127  18.009   5.780
 5089POPC   C1A65391  30.078  18.374   6.166
 5089POPC   D2A65392  29.707  18.306   6.443
 5089POPC   C3A65393  29.747  18.298   6.894
 5089POPC   C4A65394  30.145  18.428   7.054
 5089POPC   C1B65395  30.152  17.879   6.236
 5089POPC   C2B65396  30.160  18.118   6.624
 5089POPC   C3B65397  30.047  17.915   7.016
 5089POPC   C4B65398  29.795  17.989   7.402
 5090POPC   NC365399  36.230   8.630   5.538
 5090POPC   PO465400  36.410   7.971   5.503
 5090POPC   GL165401  36.167   8.184   5.799
 5090POPC   GL265402  36.407   8.402   5.972
 5090POPC   C1A65403  35.896   8.235   6.129
 5090POPC   D2A65404  35.855   8.016   6.524
 5090POPC   C3A65405  36.076   8.288   6.815
 5090POPC   C4A65406  36.012   8.120   7.186
 5090POPC   C1B65407  36.329   8.170   6.363
 5090POPC   C2B65408  36.377   7.894   6.740
 5090POPC   C3B65409  36.501   8.015   7.161
 5090POPC   C4B65410  36.324   8.343   7.519
 5091POPC   NC365411  25.199   8.291   5.488
 5091POPC   PO465412  25.669   8.718   5.735
 5091POPC   GL165413  25.562   8.288   5.871
 5091POPC   GL265414  25.454   7.926   5.768
 5091POPC   C1A65415  25.386   8.156   6.270
 5091POPC   D2A65416  25.099   8.299   6.599
 5091POPC   C3A65417  25.247   8.277   7.044
 5091POPC   C4A65418  25.049   8.347   7.484
 5091POPC   C1B65419  25.166   7.723   6.084
 5091POPC   C2B65420  25.186   7.714   6.541
 5091POPC   C3B65421  25.082   7.784   6.984
 5091POPC   C4B65422  25.261   7.892   7.392
 5092POPC   NC365423  14.561  39.238   5.267
 5092POPC   PO465424  14.077  38.831   5.520
 5092POPC   GL165425  14.220  39.027   5.862
 5092POPC   GL265426  14.521  39.182   5.769
 5092POPC   C1A65427  14.283  39.123   6.281
 5092POPC   D2A65428  14.368  39.408   6.605
 5092POPC   C3A65429  14.600  39.199   6.906
 5092POPC   C4A65430  14.403  39.137   7.248
 5092POPC   C1B65431  14.793  39.327   6.095
 5092POPC   C2B65432  14.925  39.395   6.532
 5092POPC   C3B65433  14.750  39.673   6.828
 5092POPC   C4B65434  14.576  39.621   7.271
 5093POPC   NC365435  22.720  16.649   5.272
 5093POPC   PO465436  22.068  16.804   5.530
 5093POPC   GL165437  22.234  16.755   5.902
 5093POPC   GL265438  22.072  17.054   6.018
 5093POPC   C1A65439  22.333  16.712   6.331
 5093POPC   D2A65440  22.611  16.588   6.676
 5093POPC   C3A65441  22.389  16.438   7.060
 5093POPC   C4A65442  21.999  16.567   7.267
 5093POPC   C1B65443  21.838  16.919   6.381
 5093POPC   C2B65444  22.031  16.720   6.757
 5093POPC   C3B65445  22.026  17.020   7.084
 5093POPC   C4B65446  21.756  17.348   7.108
 5094POPC   NC365447   8.154  35.281   5.298
 5094POPC   PO465448   7.493  35.410   5.410
 5094POPC   GL165449   7.882  35.253   5.741
 5094POPC   GL265450   8.287  35.307   5.766
 5094POPC   C1A65451   8.037  35.337   6.186
 5094POPC   D2A65452   7.975  35.164   6.576
 5094POPC   C3A65453   8.121  35.387   6.899
 5094POPC   C4A65454   7.953  35.440   7.287
 5094POPC   C1B65455   8.560  35.291   6.122
 5094POPC   C2B65456   8.499  35.182   6.523
 5094POPC   C3B65457   8.531  35.090   6.928
 5094POPC   C4B65458   8.457  35.310   7.287
 5095POPC   NC365459  23.251  11.534   5.588
 5095POPC   PO465460  23.978  11.536   5.515
 5095POPC   GL165461  23.880  11.330   5.909
 5095POPC   GL265462  23.529  11.385   5.970
 5095POPC   C1A65463  23.818  11.343   6.375
 5095POPC   D2A65464  23.822  11.643   6.694
 5095POPC   C3A65465  23.906  11.393   6.993
 5095POPC   C4A65466  24.025  11.472   7.367
 5095POPC   C1B65467  23.531  10.961   6.125
 5095POPC   C2B65468  23.578  10.883   6.557
 5095POPC   C3B65469  23.468  11.088   6.947
 5095POPC   C4B65470  23.568  11.246   7.370
 5096POPC   NC365471  13.320   9.012   5.484
 5096POPC   PO465472  13.964   9.217   5.364
 5096POPC   GL165473  13.839   9.147   5.769
 5096POPC   GL265474  13.777   8.800   5.839
 5096POPC   C1A65475  13.519   9.216   6.079
 5096POPC   D2A65476  13.434   9.124   6.491
 5096POPC   C3A65477  13.573   9.344   6.851
 5096POPC   C4A65478  13.439   9.248   7.255
 5096POPC   C1B65479  13.873   8.903   6.293
 5096POPC   C2B65480  13.851   8.937   6.769
 5096POPC   C3B65481  13.688   8.808   7.190
 5096POPC   C4B65482  13.880   8.675   7.612
 5097POPC   NC365483  10.233  25.512   5.320
 5097POPC   PO465484  10.874  25.574   5.482
 5097POPC   GL165485  10.572  25.224   5.680
 5097POPC   GL265486  10.270  25.376   5.803
 5097POPC   C1A65487  10.420  24.960   6.067
 5097POPC   D2A65488  10.515  24.830   6.518
 5097POPC   C3A65489  10.591  25.173   6.834
 5097POPC   C4A65490  10.552  25.190   7.271
 5097POPC   C1B65491  10.438  25.474   6.198
 5097POPC   C2B65492  10.281  25.549   6.598
 5097POPC   C3B65493  10.257  25.573   7.030
 5097POPC   C4B65494  10.486  25.672   7.377
 5098POPC   NC365495   7.265  36.851   5.392
 5098POPC   PO465496   7.706  37.299   5.517
 5098POPC   GL165497   7.492  37.001   5.806
 5098POPC   GL265498   7.124  37.117   5.808
 5098POPC   C1A65499   7.564  36.696   6.131
 5098POPC   D2A65500   7.702  36.822   6.533
 5098POPC   C3A65501   7.855  36.633   6.890
 5098POPC   C4A65502   7.564  36.695   7.221
 5098POPC   C1B65503   7.169  37.010   6.234
 5098POPC   C2B65504   7.287  37.101   6.645
 5098POPC   C3B65505   7.168  36.978   7.030
 5098POPC   C4B65506   6.977  37.149   7.363
 5099POPC   NC365507  44.715   2.205   5.158
 5099POPC   PO465508  44.149   2.046   5.272
 5099POPC   GL165509  44.475   2.024   5.641
 5099POPC   GL265510  44.539   1.704   5.772
 5099POPC   C1A65511  44.681   2.061   6.099
 5099POPC   D2A65512  44.579   2.035   6.513
 5099POPC   C3A65513  44.873   2.078   6.843
 5099POPC   C4A65514  44.822   2.326   7.241
 5099POPC   C1B65515  44.769   1.552   6.150
 5099POPC   C2B65516  44.827   1.593   6.599
 5099POPC   C3B65517  44.532   1.705   6.898
 5099POPC   C4B65518  44.719   1.784   7.260
 5100POPC   NC365519  37.263  17.280   5.492
 5100POPC   PO465520  36.599  17.435   5.333
 5100POPC   GL165521  36.750  17.567   5.740
 5100POPC   GL265522  37.060  17.713   5.682
 5100POPC   C1A65523  36.980  17.382   6.103
 5100POPC   D2A65524  36.886  17.123   6.481
 5100POPC   C3A65525  36.805  17.334   6.872
 5100POPC   C4A65526  36.816  17.195   7.320
 5100POPC   C1B65527  37.113  17.869   6.096
 5100POPC   C2B65528  37.051  17.687   6.519
 5100POPC   C3B65529  36.979  17.861   6.914
 5100POPC   C4B65530  36.897  17.679   7.286
 5101POPC   NC365531   0.165  41.454   5.390
 5101POPC   PO465532  44.573  41.806   5.407
 5101POPC   GL165533  44.781  41.620   5.745
 5101POPC   GL265534  44.469  41.693   5.920
 5101POPC   C1A65535  44.917  41.771   6.158
 5101POPC   D2A65536  44.696  41.827   6.530
 5101POPC   C3A65537  44.779  41.620   6.908
 5101POPC   C4A65538  44.832  41.441   7.296
 5101POPC   C1B65539  44.357  42.015   6.164
 5101POPC   C2B65540  44.187  42.020   6.553
 5101POPC   C3B65541  44.382  41.961   6.922
 5101POPC   C4B65542  44.513  41.827   7.302
 5102POPC   NC365543   4.480   3.382   5.678
 5102POPC   PO465544   4.874   3.874   5.525
 5102POPC   GL165545   4.520   3.905   5.827
 5102POPC   GL265546   4.149   3.795   5.812
 5102POPC   C1A65547   4.430   3.739   6.253
 5102POPC   D2A65548   4.525   3.399   6.516
 5102POPC   C3A65549   4.513   3.527   6.933
 5102POPC   C4A65550   4.564   3.262   7.254
 5102POPC   C1B65551   3.929   3.721   6.252
 5102POPC   C2B65552   4.037   3.575   6.684
 5102POPC   C3B65553   4.039   3.461   7.123
 5102POPC   C4B65554   4.060   3.194   7.480
 5103POPC   NC365555   4.886   4.132   5.142
 5103POPC   PO465556   5.202   4.525   5.615
 5103POPC   GL165557   5.205   4.239   5.976
 5103POPC   GL265558   5.129   3.899   5.946
 5103POPC   C1A65559   5.300   4.045   6.408
 5103POPC   D2A65560   5.215   4.043   6.840
 5103POPC   C3A65561   5.190   4.470   6.990
 5103POPC   C4A65562   5.398   4.668   7.332
 5103POPC   C1B65563   4.815   4.058   6.243
 5103POPC   C2B65564   4.766   3.872   6.632
 5103POPC   C3B65565   4.724   3.998   7.037
 5103POPC   C4B65566   4.641   4.394   7.186
 5104POPC   NC365567  14.510  36.318   5.436
 5104POPC   PO465568  14.244  35.707   5.344
 5104POPC   GL165569  14.231  35.956   5.718
 5104POPC   GL265570  13.976  36.199   5.632
 5104POPC   C1A65571  14.372  36.025   6.158
 5104POPC   D2A65572  14.474  35.917   6.582
 5104POPC   C3A65573  14.483  36.127   6.941
 5104POPC   C4A65574  14.210  35.890   7.194
 5104POPC   C1B65575  14.152  36.440   5.978
 5104POPC   C2B65576  14.204  36.444   6.422
 5104POPC   C3B65577  14.190  36.532   6.848
 5104POPC   C4B65578  14.185  36.408   7.266
 5105POPC   NC365579  14.845  12.885   5.407
 5105POPC   PO465580  15.216  12.445   5.457
 5105POPC   GL165581  14.950  12.634   5.848
 5105POPC   GL265582  14.929  13.026   5.894
 5105POPC   C1A65583  14.970  12.617   6.336
 5105POPC   D2A65584  15.273  12.631   6.699
 5105POPC   C3A65585  15.210  12.611   7.162
 5105POPC   C4A65586  15.040  12.595   7.595
 5105POPC   C1B65587  14.868  13.124   6.342
 5105POPC   C2B65588  14.912  13.017   6.786
 5105POPC   C3B65589  15.109  13.132   7.164
 5105POPC   C4B65590  15.094  13.434   7.475
 5106POPC   NC365591  15.139  18.481   5.442
 5106POPC   PO465592  15.488  17.868   5.451
 5106POPC   GL165593  15.174  18.071   5.810
 5106POPC   GL265594  15.235  18.446   5.936
 5106POPC   C1A65595  15.118  18.108   6.301
 5106POPC   D2A65596  14.939  18.315   6.681
 5106POPC   C3A65597  15.094  18.346   7.130
 5106POPC   C4A65598  14.986  18.041   7.476
 5106POPC   C1B65599  15.512  18.438   6.310
 5106POPC   C2B65600  15.472  18.321   6.747
 5106POPC   C3B65601  15.608  18.491   7.125
 5106POPC   C4B65602  15.478  18.488   7.535
 5107POPC   NC365603  36.223  44.989   5.161
 5107POPC   PO465604  36.065  44.388   5.326
 5107POPC   GL165605  36.203  44.519   5.732
 5107POPC   GL265606  36.297  44.874   5.768
 5107POPC   C1A65607  35.976  44.500   6.143
 5107POPC   D2A65608  35.815  44.690   6.503
 5107POPC   C3A65609  35.894  44.526   6.908
 5107POPC   C4A65610  35.850  44.580   7.339
 5107POPC   C1B65611  36.180  44.980   6.239
 5107POPC   C2B65612  36.226  44.977   6.713
 5107POPC   C3B65613  36.064  44.988   7.135
 5107POPC   C4B65614  36.155   0.018   7.577
 5108POPC   NC365615  20.700  38.147   5.310
 5108POPC   PO465616  20.741  38.799   5.413
 5108POPC   GL165617  20.698  38.614   5.827
 5108POPC   GL265618  20.576  38.276   5.807
 5108POPC   C1A65619  20.441  38.663   6.215
 5108POPC   D2A65620  20.205  38.719   6.616
 5108POPC   C3A65621  20.430  38.665   7.025
 5108POPC   C4A65622  20.614  38.671   7.460
 5108POPC   C1B65623  20.470  38.154   6.262
 5108POPC   C2B65624  20.372  38.225   6.729
 5108POPC   C3B65625  20.520  38.195   7.193
 5108POPC   C4B65626  20.723  37.932   7.510
 5109POPC   NC365627   4.343  26.269   5.442
 5109POPC   PO465628   4.505  26.875   5.320
 5109POPC   GL165629   4.396  26.842   5.786
 5109POPC   GL265630   4.127  26.621   5.793
 5109POPC   C1A65631   4.480  26.770   6.274
 5109POPC   D2A65632   4.568  26.569   6.698
 5109POPC   C3A65633   4.477  26.740   7.098
 5109POPC   C4A65634   4.590  26.701   7.517
 5109POPC   C1B65635   3.959  26.718   6.189
 5109POPC   C2B65636   3.912  26.873   6.605
 5109POPC   C3B65637   3.970  26.721   7.018
 5109POPC   C4B65638   4.037  26.857   7.450
 5110POPC   NC365639  11.238  21.108   4.847
 5110POPC   PO465640  11.387  21.647   5.292
 5110POPC   GL165641  11.445  21.412   5.718
 5110POPC   GL265642  11.290  21.095   5.697
 5110POPC   C1A65643  11.260  21.291   6.154
 5110POPC   D2A65644  11.115  21.240   6.573
 5110POPC   C3A65645  11.316  21.511   6.846
 5110POPC   C4A65646  11.501  21.468   7.232
 5110POPC   C1B65647  11.647  20.976   6.020
 5110POPC   C2B65648  11.599  21.077   6.488
 5110POPC   C3B65649  11.441  21.006   6.946
 5110POPC   C4B65650  11.634  20.997   7.384
 5111POPC   NC365651  33.373   0.528   5.405
 5111POPC   PO465652  32.898   0.161   5.143
 5111POPC   GL165653  32.979   0.257   5.668
 5111POPC   GL265654  32.835   0.536   5.859
 5111POPC   C1A65655  33.227   0.305   6.095
 5111POPC   D2A65656  33.280   0.541   6.527
 5111POPC   C3A65657  33.233   0.381   6.989
 5111POPC   C4A65658  33.211   0.517   7.462
 5111POPC   C1B65659  32.830   0.552   6.276
 5111POPC   C2B65660  32.805   0.370   6.627
 5111POPC   C3B65661  32.741   0.489   6.972
 5111POPC   C4B65662  32.675   0.576   7.361
 5112POPC   NC365663  18.303  37.271   5.586
 5112POPC   PO465664  18.062  36.684   5.503
 5112POPC   GL165665  18.098  36.888   5.904
 5112POPC   GL265666  17.824  37.075   5.843
 5112POPC   C1A65667  18.405  37.036   6.250
 5112POPC   D2A65668  18.559  36.823   6.636
 5112POPC   C3A65669  18.569  37.004   7.055
 5112POPC   C4A65670  18.416  36.867   7.492
 5112POPC   C1B65671  17.954  37.276   6.261
 5112POPC   C2B65672  18.149  37.154   6.696
 5112POPC   C3B65673  18.068  37.003   7.132
 5112POPC   C4B65674  17.954  37.153   7.569
 5113POPC   NC365675  14.258   6.367   5.338
 5113POPC   PO465676  14.462   6.992   5.480
 5113POPC   GL165677  14.471   6.623   5.743
 5113POPC   GL265678  14.639   6.292   5.686
 5113POPC   C1A65679  14.236   6.526   6.123
 5113POPC   D2A65680  14.155   6.796   6.500
 5113POPC   C3A65681  14.119   6.628   6.907
 5113POPC   C4A65682  14.343   6.727   7.290
 5113POPC   C1B65683  14.752   6.384   6.120
 5113POPC   C2B65684  14.535   6.411   6.529
 5113POPC   C3B65685  14.638   6.587   6.915
 5113POPC   C4B65686  14.798   6.436   7.296
 5114POPC   NC365687   9.608  24.801   5.492
 5114POPC   PO465688  10.128  24.363   5.419
 5114POPC   GL165689   9.857  24.446   5.777
 5114POPC   GL265690   9.963  24.816   5.852
 5114POPC   C1A65691   9.923  24.455   6.217
 5114POPC   D2A65692  10.114  24.473   6.628
 5114POPC   C3A65693   9.851  24.402   6.993
 5114POPC   C4A65694  10.004  24.374   7.419
 5114POPC   C1B65695   9.604  24.842   6.158
 5114POPC   C2B65696   9.606  24.666   6.582
 5114POPC   C3B65697   9.535  24.847   6.983
 5114POPC   C4B65698   9.694  24.805   7.385
 5115POPC   NC365699  30.248   8.483   5.331
 5115POPC   PO465700  30.593   7.932   5.500
 5115POPC   GL165701  30.787   8.059   5.854
 5115POPC   GL265702  31.067   7.906   5.959
 5115POPC   C1A65703  30.635   8.192   6.247
 5115POPC   D2A65704  30.785   8.353   6.633
 5115POPC   C3A65705  30.557   8.664   6.864
 5115POPC   C4A65706  30.364   8.434   7.178
 5115POPC   C1B65707  31.098   7.998   6.410
 5115POPC   C2B65708  30.954   7.930   6.870
 5115POPC   C3B65709  30.537   7.913   7.131
 5115POPC   C4B65710  30.285   7.876   7.565
 5116POPC   NC365711  40.119  18.913   5.408
 5116POPC   PO465712  40.248  19.573   5.702
 5116POPC   GL165713  40.127  19.173   5.862
 5116POPC   GL265714  40.285  18.833   5.874
 5116POPC   C1A65715  40.116  19.090   6.280
 5116POPC   D2A65716  39.931  19.163   6.635
 5116POPC   C3A65717  40.166  19.360   6.925
 5116POPC   C4A65718  39.970  19.373   7.288
 5116POPC   C1B65719  39.928  18.656   6.076
 5116POPC   C2B65720  39.863  18.685   6.491
 5116POPC   C3B65721  39.907  18.694   6.906
 5116POPC   C4B65722  40.111  18.889   7.206
 5117POPC   NC365723  13.997   9.644   5.553
 5117POPC   PO465724  13.222   9.531   5.537
 5117POPC   GL165725  13.520   9.746   5.822
 5117POPC   GL265726  13.811   9.614   6.011
 5117POPC   C1A65727  13.340   9.987   6.159
 5117POPC   D2A65728  13.118   9.754   6.459
 5117POPC   C3A65729  13.341   9.786   6.826
 5117POPC   C4A65730  13.236   9.923   7.203
 5117POPC   C1B65731  13.619   9.624   6.388
 5117POPC   C2B65732  13.796   9.956   6.570
 5117POPC   C3B65733  13.974   9.867   6.940
 5117POPC   C4B65734  13.703   9.697   7.244
 5118POPC   NC365735  17.010  38.996   5.497
 5118POPC   PO465736  16.579  39.350   5.277
 5118POPC   GL165737  16.669  39.360   5.717
 5118POPC   GL265738  16.635  39.038   5.870
 5118POPC   C1A65739  16.544  39.454   6.158
 5118POPC   D2A65740  16.770  39.422   6.532
 5118POPC   C3A65741  16.553  39.303   6.888
 5118POPC   C4A65742  16.753  39.425   7.251
 5118POPC   C1B65743  16.957  39.069   6.211
 5118POPC   C2B65744  16.892  38.930   6.648
 5118POPC   C3B65745  17.066  38.883   7.063
 5118POPC   C4B65746  16.981  38.969   7.485
 5119POPC   NC365747  31.291  20.139   5.361
 5119POPC   PO465748  31.972  20.091   5.574
 5119POPC   GL165749  31.596  20.086   5.781
 5119POPC   GL265750  31.362  19.819   5.754
 5119POPC   C1A65751  31.331  20.192   6.127
 5119POPC   D2A65752  31.294  19.982   6.518
 5119POPC   C3A65753  31.294  20.084   6.921
 5119POPC   C4A65754  31.639  19.951   7.130
 5119POPC   C1B65755  31.424  19.632   6.158
 5119POPC   C2B65756  31.267  19.462   6.579
 5119POPC   C3B65757  31.339  19.553   7.033
 5119POPC   C4B65758  31.703  19.495   7.348
 5120POPC   NC365759  24.296   6.864   5.485
 5120POPC   PO465760  24.637   6.246   5.504
 5120POPC   GL165761  24.469   6.506   5.818
 5120POPC   GL265762  24.683   6.807   5.874
 5120POPC   C1A65763  24.528   6.511   6.259
 5120POPC   D2A65764  24.645   6.823   6.543
 5120POPC   C3A65765  24.644   6.542   6.866
 5120POPC   C4A65766  24.426   6.511   7.207
 5120POPC   C1B65767  24.318   6.972   6.143
 5120POPC   C2B65768  24.173   7.056   6.589
 5120POPC   C3B65769  24.415   6.983   6.978
 5120POPC   C4B65770  24.869   6.913   7.120
 5121POPC   NC365771  26.524   5.254   5.538
 5121POPC   PO465772  25.907   4.936   5.239
 5121POPC   GL165773  25.961   5.053   5.717
 5121POPC   GL265774  25.794   5.383   5.827
 5121POPC   C1A65775  26.168   4.925   6.153
 5121POPC   D2A65776  26.377   4.887   6.590
 5121POPC   C3A65777  26.140   4.819   6.959
 5121POPC   C4A65778  26.317   4.699   7.358
 5121POPC   C1B65779  26.196   5.447   6.114
 5121POPC   C2B65780  26.514   5.382   6.491
 5121POPC   C3B65781  26.389   5.309   6.941
 5121POPC   C4B65782  26.206   5.609   7.231
 5122POPC   NC365783  32.130  24.363   5.330
 5122POPC   PO465784  32.693  24.736   5.534
 5122POPC   GL165785  32.413  24.410   5.771
 5122POPC   GL265786  32.074  24.206   5.799
 5122POPC   C1A65787  32.200  24.532   6.166
 5122POPC   D2A65788  32.372  24.786   6.527
 5122POPC   C3A65789  32.475  24.617   6.940
 5122POPC   C4A65790  32.161  24.660   7.269
 5122POPC   C1B65791  32.179  24.048   6.178
 5122POPC   C2B65792  32.318  24.257   6.550
 5122POPC   C3B65793  32.076  24.321   6.883
 5122POPC   C4B65794  32.080  24.074   7.213
 5123POPC   NC365795  44.677  25.132   5.173
 5123POPC   PO465796   0.231  25.516   5.364
 5123POPC   GL165797  44.825  25.408   5.635
 5123POPC   GL265798  44.567  25.114   5.678
 5123POPC   C1A65799  44.726  25.466   6.086
 5123POPC   D2A65800  44.871  25.581   6.486
 5123POPC   C3A65801  44.684  25.522   6.907
 5123POPC   C4A65802  44.802  25.311   7.275
 5123POPC   C1B65803  44.672  24.966   6.101
 5123POPC   C2B65804  44.575  25.154   6.501
 5123POPC   C3B65805  44.604  25.009   6.905
 5123POPC   C4B65806  44.397  25.016   7.296
 5124POPC   NC365807  15.962   6.039   5.497
 5124POPC   PO465808  16.073   5.404   5.445
 5124POPC   GL165809  16.006   5.591   5.829
 5124POPC   GL265810  16.244   5.872   5.884
 5124POPC   C1A65811  15.796   5.824   6.134
 5124POPC   D2A65812  15.890   5.990   6.517
 5124POPC   C3A65813  16.086   5.754   6.822
 5124POPC   C4A65814  15.831   5.910   7.149
 5124POPC   C1B65815  16.323   5.841   6.319
 5124POPC   C2B65816  16.385   6.156   6.650
 5124POPC   C3B65817  16.327   6.102   7.094
 5124POPC   C4B65818  16.106   6.151   7.494
 5125POPC   NC365819  22.393  11.998   5.370
 5125POPC   PO465820  21.781  11.941   5.569
 5125POPC   GL165821  22.119  11.972   5.830
 5125POPC   GL265822  22.305  11.680   5.745
 5125POPC   C1A65823  22.013  11.964   6.266
 5125POPC   D2A65824  21.940  12.255   6.595
 5125POPC   C3A65825  22.269  12.262   6.892
 5125POPC   C4A65826  22.020  12.114   7.195
 5125POPC   C1B65827  22.348  11.596   6.162
 5125POPC   C2B65828  22.390  11.730   6.571
 5125POPC   C3B65829  22.262  11.738   6.973
 5125POPC   C4B65830  22.443  11.946   7.356
 5126POPC   NC365831  41.030  23.185   5.459
 5126POPC   PO465832  40.493  22.655   5.464
 5126POPC   GL165833  40.721  22.859   5.792
 5126POPC   GL265834  40.690  23.205   5.842
 5126POPC   C1A65835  40.838  22.770   6.206
 5126POPC   D2A65836  40.736  22.557   6.595
 5126POPC   C3A65837  40.876  22.817   6.950
 5126POPC   C4A65838  40.631  23.027   7.278
 5126POPC   C1B65839  41.015  23.253   6.141
 5126POPC   C2B65840  40.952  23.147   6.551
 5126POPC   C3B65841  40.961  23.313   6.981
 5126POPC   C4B65842  41.033  23.378   7.397
 5127POPC   NC365843   6.425  29.632   5.333
 5127POPC   PO465844   6.665  30.244   5.334
 5127POPC   GL165845   6.690  29.930   5.680
 5127POPC   GL265846   6.405  30.043   5.819
 5127POPC   C1A65847   6.676  29.754   6.144
 5127POPC   D2A65848   6.582  29.660   6.582
 5127POPC   C3A65849   6.808  29.713   6.967
 5127POPC   C4A65850   6.580  29.826   7.347
 5127POPC   C1B65851   6.835  30.217   6.057
 5127POPC   C2B65852   6.853  30.124   6.523
 5127POPC   C3B65853   6.593  30.161   6.917
 5127POPC   C4B65854   6.670  30.374   7.270
 5128POPC   NC365855  24.575  44.586   5.437
 5128POPC   PO465856  23.941  44.397   5.443
 5128POPC   GL165857  24.209  44.607   5.790
 5128POPC   GL265858  24.592  44.610   5.923
 5128POPC   C1A65859  24.179  44.737   6.203
 5128POPC   D2A65860  24.226  44.521   6.583
 5128POPC   C3A65861  24.247  44.696   6.980
 5128POPC   C4A65862  24.377  44.771   7.410
 5128POPC   C1B65863  24.684  44.702   6.335
 5128POPC   C2B65864  24.735  44.452   6.683
 5128POPC   C3B65865  24.693  44.512   7.102
 5128POPC   C4B65866  24.895  44.715   7.439
 5129POPC   NC365867  43.635  42.498   5.363
 5129POPC   PO465868  44.299  42.628   5.455
 5129POPC   GL165869  43.954  42.530   5.789
 5129POPC   GL265870  43.711  42.194   5.770
 5129POPC   C1A65871  43.933  42.326   6.211
 5129POPC   D2A65872  43.696  42.231   6.579
 5129POPC   C3A65873  43.937  42.225   6.947
 5129POPC   C4A65874  44.016  41.973   7.291
 5129POPC   C1B65875  43.486  42.474   6.066
 5129POPC   C2B65876  43.640  42.744   6.407
 5129POPC   C3B65877  43.722  42.690   6.840
 5129POPC   C4B65878  43.974  42.656   7.204
 5130POPC   NC365879  20.030   2.619   5.369
 5130POPC   PO465880  20.619   2.916   5.398
 5130POPC   GL165881  20.716   2.902   5.818
 5130POPC   GL265882  20.362   3.022   5.918
 5130POPC   C1A65883  20.768   3.039   6.249
 5130POPC   D2A65884  20.448   3.126   6.548
 5130POPC   C3A65885  20.585   2.981   6.942
 5130POPC   C4A65886  20.516   2.856   7.351
 5130POPC   C1B65887  20.428   2.632   6.155
 5130POPC   C2B65888  20.652   2.580   6.544
 5130POPC   C3B65889  20.578   2.443   6.972
 5130POPC   C4B65890  20.337   2.378   7.365
 5131POPC   NC365891   8.337  38.142   5.332
 5131POPC   PO465892   8.017  38.727   5.412
 5131POPC   GL165893   8.150  38.419   5.733
 5131POPC   GL265894   7.896  38.142   5.668
 5131POPC   C1A65895   8.428  38.252   6.084
 5131POPC   D2A65896   8.264  38.185   6.512
 5131POPC   C3A65897   8.475  38.362   6.867
 5131POPC   C4A65898   8.433  38.670   7.197
 5131POPC   C1B65899   7.903  38.162   6.125
 5131POPC   C2B65900   7.745  38.121   6.577
 5131POPC   C3B65901   7.938  38.173   6.995
 5131POPC   C4B65902   8.319  38.046   7.235
 5132POPC   NC365903  25.678  44.323   5.514
 5132POPC   PO465904  25.007  44.488   5.512
 5132POPC   GL165905  25.325  44.549   5.833
 5132POPC   GL265906  25.509  44.271   5.984
 5132POPC   C1A65907  25.372  44.701   6.256
 5132POPC   D2A65908  25.134  44.795   6.621
 5132POPC   C3A65909  25.380  44.881   6.964
 5132POPC   C4A65910  25.406  44.711   7.376
 5132POPC   C1B65911  25.828  44.450   6.217
 5132POPC   C2B65912  25.787  44.492   6.644
 5132POPC   C3B65913  25.613  44.198   6.881
 5132POPC   C4B65914  25.531  44.159   7.290
 5133POPC   NC365915  36.005   4.377   5.483
 5133POPC   PO465916  35.608   3.897   5.744
 5133POPC   GL165917  35.936   4.162   5.999
 5133POPC   GL265918  36.037   4.516   5.964
 5133POPC   C1A65919  35.952   4.361   6.422
 5133POPC   D2A65920  35.807   4.180   6.768
 5133POPC   C3A65921  36.139   4.232   7.009
 5133POPC   C4A65922  36.006   4.508   7.279
 5133POPC   C1B65923  36.366   4.618   6.268
 5133POPC   C2B65924  36.508   4.490   6.685
 5133POPC   C3B65925  36.499   4.583   7.144
 5133POPC   C4B65926  36.411   4.565   7.598
 5134POPC   NC365927  40.296  11.227   5.407
 5134POPC   PO465928  40.884  10.987   5.407
 5134POPC   GL165929  40.822  11.256   5.780
 5134POPC   GL265930  40.525  11.512   5.814
 5134POPC   C1A65931  40.917  11.068   6.195
 5134POPC   D2A65932  40.674  11.044   6.549
 5134POPC   C3A65933  40.935  11.086   6.895
 5134POPC   C4A65934  41.000  11.459   7.105
 5134POPC   C1B65935  40.746  11.541   6.226
 5134POPC   C2B65936  40.599  11.531   6.645
 5134POPC   C3B65937  40.498  11.313   7.014
 5134POPC   C4B65938  40.588  11.449   7.434
 5135POPC   NC365939  44.115   1.508   5.307
 5135POPC   PO465940  43.936   0.811   5.397
 5135POPC   GL165941  44.088   1.000   5.721
 5135POPC   GL265942  43.965   1.317   5.759
 5135POPC   C1A65943  43.902   0.971   6.126
 5135POPC   D2A65944  44.017   1.083   6.507
 5135POPC   C3A65945  43.810   1.007   6.878
 5135POPC   C4A65946  44.052   1.000   7.234
 5135POPC   C1B65947  43.877   1.479   6.187
 5135POPC   C2B65948  43.771   1.521   6.641
 5135POPC   C3B65949  43.920   1.493   7.071
 5135POPC   C4B65950  43.963   1.446   7.525
 5136POPC   NC365951  42.616  14.526   5.404
 5136POPC   PO465952  41.879  14.610   5.431
 5136POPC   GL165953  42.205  14.398   5.698
 5136POPC   GL265954  42.485  14.612   5.884
 5136POPC   C1A65955  42.149  14.191   6.103
 5136POPC   D2A65956  42.136  14.355   6.522
 5136POPC   C3A65957  42.148  14.203   6.938
 5136POPC   C4A65958  42.260  14.590   7.118
 5136POPC   C1B65959  42.666  14.212   6.051
 5136POPC   C2B65960  42.632  14.105   6.465
 5136POPC   C3B65961  42.603  14.396   6.799
 5136POPC   C4B65962  42.662  14.265   7.213
 5137POPC   NC365963  12.425  28.395   5.228
 5137POPC   PO465964  13.049  28.313   5.418
 5137POPC   GL165965  12.868  28.377   5.831
 5137POPC   GL265966  12.706  28.089   5.963
 5137POPC   C1A65967  12.950  28.537   6.263
 5137POPC   D2A65968  12.919  28.657   6.711
 5137POPC   C3A65969  12.821  28.303   7.021
 5137POPC   C4A65970  12.959  28.065   7.415
 5137POPC   C1B65971  13.136  28.036   6.121
 5137POPC   C2B65972  13.301  28.184   6.493
 5137POPC   C3B65973  13.290  28.113   6.942
 5137POPC   C4B65974  13.241  28.475   7.231
 5138POPC   NC365975  37.014  42.153   5.485
 5138POPC   PO465976  36.823  41.546   5.216
 5138POPC   GL165977  36.874  41.611   5.657
 5138POPC   GL265978  37.205  41.739   5.733
 5138POPC   C1A65979  36.988  41.421   6.082
 5138POPC   D2A65980  37.150  41.528   6.491
 5138POPC   C3A65981  36.924  41.471   6.871
 5138POPC   C4A65982  37.057  41.547   7.281
 5138POPC   C1B65983  37.066  41.935   6.127
 5138POPC   C2B65984  37.293  42.044   6.489
 5138POPC   C3B65985  37.282  41.864   6.875
 5138POPC   C4B65986  37.356  41.940   7.269
 5139POPC   NC365987  26.635  10.158   5.023
 5139POPC   PO465988  26.806   9.678   5.472
 5139POPC   GL165989  26.737   9.621   5.886
 5139POPC   GL265990  26.711   9.979   5.879
 5139POPC   C1A65991  26.906   9.646   6.314
 5139POPC   D2A65992  26.701   9.702   6.729
 5139POPC   C3A65993  26.884   9.543   7.141
 5139POPC   C4A65994  27.266   9.438   7.392
 5139POPC   C1B65995  26.795  10.147   6.254
 5139POPC   C2B65996  26.982  10.140   6.646
 5139POPC   C3B65997  26.830  10.077   7.054
 5139POPC   C4B65998  26.574   9.942   7.337
 5140POPC   NC365999   8.560  28.408   5.092
 5140POPC   PO466000   8.312  28.012   5.603
 5140POPC   GL166001   8.220  28.385   5.837
 5140POPC   GL266002   8.026  28.631   5.645
 5140POPC   C1A66003   8.184  28.471   6.288
 5140POPC   D2A66004   8.400  28.562   6.658
 5140POPC   C3A66005   8.327  28.232   6.915
 5140POPC   C4A66006   8.015  28.157   7.188
 5140POPC   C1B66007   7.800  28.695   6.042
 5140POPC   C2B66008   7.683  28.541   6.471
 5140POPC   C3B66009   7.907  28.517   6.823
 5140POPC   C4B66010   8.137  28.683   7.148
 5141POPC   NC366011  18.704  21.793   5.355
 5141POPC   PO466012  18.247  21.348   5.524
 5141POPC   GL166013  18.325  21.383   5.939
 5141POPC   GL266014  18.525  21.665   5.885
 5141POPC   C1A66015  18.125  21.335   6.353
 5141POPC   D2A66016  18.195  21.588   6.721
 5141POPC   C3A66017  18.172  21.367   7.086
 5141POPC   C4A66018  17.937  21.097   7.345
 5141POPC   C1B66019  18.547  21.630   6.342
 5141POPC   C2B66020  18.678  21.368   6.708
 5141POPC   C3B66021  18.664  21.363   7.175
 5141POPC   C4B66022  18.701  21.559   7.638
 5142POPC   NC366023  12.288  18.540   5.366
 5142POPC   PO466024  11.697  18.255   5.147
 5142POPC   GL166025  11.893  18.316   5.634
 5142POPC   GL266026  11.969  18.657   5.750
 5142POPC   C1A66027  12.014  18.156   6.114
 5142POPC   D2A66028  11.828  18.088   6.584
 5142POPC   C3A66029  11.949  18.158   7.063
 5142POPC   C4A66030  11.731  17.972   7.460
 5142POPC   C1B66031  12.087  18.645   6.225
 5142POPC   C2B66032  12.101  18.511   6.681
 5142POPC   C3B66033  12.031  18.710   7.086
 5142POPC   C4B66034  12.146  18.733   7.510
 5143POPC   NC366035  14.795  27.586   5.517
 5143POPC   PO466036  14.205  27.774   5.273
 5143POPC   GL166037  14.300  27.703   5.747
 5143POPC   GL266038  14.610  27.515   5.976
 5143POPC   C1A66039  14.193  27.699   6.191
 5143POPC   D2A66040  14.542  27.631   6.470
 5143POPC   C3A66041  14.483  27.683   6.863
 5143POPC   C4A66042  14.311  27.689   7.260
 5143POPC   C1B66043  14.372  27.199   6.245
 5143POPC   C2B66044  14.212  27.269   6.667
 5143POPC   C3B66045  14.399  27.219   7.072
 5143POPC   C4B66046  14.808  27.429   7.158
 5144POPC   NC366047   2.007   5.553   5.422
 5144POPC   PO466048   2.311   6.200   5.280
 5144POPC   GL166049   2.058   6.032   5.607
 5144POPC   GL266050   1.727   6.128   5.706
 5144POPC   C1A66051   2.066   5.908   6.048
 5144POPC   D2A66052   2.212   5.765   6.433
 5144POPC   C3A66053   2.010   5.917   6.779
 5144POPC   C4A66054   2.003   5.932   7.205
 5144POPC   C1B66055   1.544   5.935   6.077
 5144POPC   C2B66056   1.560   5.888   6.516
 5144POPC   C3B66057   1.529   5.874   6.967
 5144POPC   C4B66058   1.560   6.147   7.350
 5145POPC   NC366059  33.952  34.795   5.273
 5145POPC   PO466060  33.925  35.498   5.246
 5145POPC   GL166061  33.846  35.221   5.598
 5145POPC   GL266062  33.552  35.355   5.760
 5145POPC   C1A66063  33.961  35.132   6.031
 5145POPC   D2A66064  34.015  35.242   6.477
 5145POPC   C3A66065  33.946  35.375   6.908
 5145POPC   C4A66066  33.940  35.221   7.320
 5145POPC   C1B66067  33.473  35.199   6.203
 5145POPC   C2B66068  33.487  35.291   6.643
 5145POPC   C3B66069  33.506  35.137   7.066
 5145POPC   C4B66070  33.487  35.482   7.334
 5146POPC   NC366071  19.943   4.686   5.463
 5146POPC   PO466072  19.560   4.133   5.485
 5146POPC   GL166073  19.721   4.311   5.893
 5146POPC   GL266074  20.000   4.090   6.090
 5146POPC   C1A66075  19.792   4.577   6.269
 5146POPC   D2A66076  20.150   4.732   6.580
 5146POPC   C3A66077  20.006   4.593   6.991
 5146POPC   C4A66078  19.555   4.604   7.133
 5146POPC   C1B66079  20.088   4.239   6.495
 5146POPC   C2B66080  19.680   4.316   6.708
 5146POPC   C3B66081  19.770   4.121   7.061
 5146POPC   C4B66082  20.214   4.030   7.090
 5147POPC   NC366083   2.508  43.995   5.544
 5147POPC   PO466084   3.110  43.771   5.477
 5147POPC   GL166085   2.852  43.825   5.880
 5147POPC   GL266086   2.511  43.630   5.906
 5147POPC   C1A66087   2.948  43.884   6.345
 5147POPC   D2A66088   2.929  44.177   6.721
 5147POPC   C3A66089   2.928  43.967   7.137
 5147POPC   C4A66090   3.047  43.780   7.526
 5147POPC   C1B66091   2.459  43.937   6.224
 5147POPC   C2B66092   2.517  43.865   6.656
 5147POPC   C3B66093   2.445  44.038   7.014
 5147POPC   C4B66094   2.289  43.895   7.400
 5148POPC   NC366095  42.550  19.470   5.618
 5148POPC   PO466096  42.042  19.030   5.615
 5148POPC   GL166097  42.264  19.018   5.988
 5148POPC   GL266098  42.633  19.071   5.951
 5148POPC   C1A66099  42.385  18.876   6.395
 5148POPC   D2A66100  42.745  19.015   6.619
 5148POPC   C3A66101  42.668  19.047   7.045
 5148POPC   C4A66102  42.236  19.165   7.183
 5148POPC   C1B66103  42.503  19.391   6.282
 5148POPC   C2B66104  42.326  19.403   6.698
 5148POPC   C3B66105  42.555  19.530   7.068
 5148POPC   C4B66106  42.579  19.464   7.541
 5149POPC   NC366107  25.017  33.616   5.079
 5149POPC   PO466108  24.469  33.878   5.460
 5149POPC   GL166109  24.527  33.777   5.894
 5149POPC   GL266110  24.626  33.408   5.875
 5149POPC   C1A66111  24.570  34.024   6.298
 5149POPC   D2A66112  24.279  34.211   6.615
 5149POPC   C3A66113  24.313  33.952   6.984
 5149POPC   C4A66114  24.710  33.823   7.134
 5149POPC   C1B66115  24.555  33.472   6.299
 5149POPC   C2B66116  24.567  33.579   6.705
 5149POPC   C3B66117  24.614  33.307   7.059
 5149POPC   C4B66118  24.457  33.441   7.458
 5150POPC   NC366119  29.597   1.634   5.130
 5150POPC   PO466120  29.778   1.085   5.455
 5150POPC   GL166121  30.004   1.256   5.767
 5150POPC   GL266122  29.757   1.466   5.898
 5150POPC   C1A66123  29.994   1.149   6.230
 5150POPC   D2A66124  30.010   1.366   6.644
 5150POPC   C3A66125  30.152   1.136   7.000
 5150POPC   C4A66126  29.930   0.882   7.279
 5150POPC   C1B66127  29.613   1.528   6.342
 5150POPC   C2B66128  29.520   1.503   6.792
 5150POPC   C3B66129  29.705   1.342   7.180
 5150POPC   C4B66130  29.600   1.340   7.638
 5151POPC   NC366131   0.858  36.451   5.496
 5151POPC   PO466132   0.724  35.797   5.472
 5151POPC   GL166133   0.583  36.087   5.787
 5151POPC   GL266134   0.274  36.203   5.879
 5151POPC   C1A66135   0.678  36.339   6.161
 5151POPC   D2A66136   0.432  36.465   6.543
 5151POPC   C3A66137   0.583  36.354   6.961
 5151POPC   C4A66138   0.430  36.033   7.260
 5151POPC   C1B66139   0.352  35.917   6.254
 5151POPC   C2B66140   0.252  35.995   6.704
 5151POPC   C3B66141   0.051  36.284   7.000
 5151POPC   C4B66142   0.036  36.327   7.450
 5152POPC   NC366143  39.187   9.458   5.470
 5152POPC   PO466144  39.545   9.941   5.550
 5152POPC   GL166145  39.300   9.760   5.891
 5152POPC   GL266146  39.502   9.500   5.887
 5152POPC   C1A66147  39.295   9.895   6.334
 5152POPC   D2A66148  39.367  10.159   6.697
 5152POPC   C3A66149  39.142  10.147   7.112
 5152POPC   C4A66150  39.071  10.256   7.577
 5152POPC   C1B66151  39.670   9.561   6.241
 5152POPC   C2B66152  39.485   9.489   6.628
 5152POPC   C3B66153  39.427   9.709   7.014
 5152POPC   C4B66154  39.536   9.496   7.390
 5153POPC   NC366155  41.095   0.397   5.572
 5153POPC   PO466156  40.480   0.748   5.456
 5153POPC   GL166157  40.707   0.578   5.846
 5153POPC   GL266158  40.704   0.203   5.868
 5153POPC   C1A66159  40.859   0.474   6.272
 5153POPC   D2A66160  40.673   0.540   6.674
 5153POPC   C3A66161  40.956   0.541   7.023
 5153POPC   C4A66162  40.981   0.732   7.424
 5153POPC   C1B66163  40.475   0.079   6.243
 5153POPC   C2B66164  40.463  44.998   6.674
 5153POPC   C3B66165  40.574   0.188   7.044
 5153POPC   C4B66166  40.501   0.572   7.287
 5154POPC   NC366167  12.706  20.898   5.574
 5154POPC   PO466168  12.793  20.226   5.449
 5154POPC   GL166169  12.707  20.445   5.824
 5154POPC   GL266170  13.008  20.593   5.948
 5154POPC   C1A66171  12.605  20.510   6.251
 5154POPC   D2A66172  12.949  20.436   6.512
 5154POPC   C3A66173  12.729  20.336   6.847
 5154POPC   C4A66174  12.549  20.323   7.238
 5154POPC   C1B66175  12.928  20.904   6.284
 5154POPC   C2B66176  12.896  20.873   6.757
 5154POPC   C3B66177  12.964  20.671   7.153
 5154POPC   C4B66178  12.872  20.851   7.516
 5155POPC   NC366179  25.589  43.331   5.609
 5155POPC   PO466180  26.140  43.011   5.359
 5155POPC   GL166181  26.203  42.989   5.834
 5155POPC   GL266182  25.898  43.097   5.947
 5155POPC   C1A66183  26.292  43.160   6.273
 5155POPC   D2A66184  26.022  43.397   6.567
 5155POPC   C3A66185  26.130  43.237   6.973
 5155POPC   C4A66186  26.399  42.918   7.179
 5155POPC   C1B66187  25.638  43.133   6.301
 5155POPC   C2B66188  25.573  43.193   6.743
 5155POPC   C3B66189  25.605  43.182   7.176
 5155POPC   C4B66190  25.660  42.962   7.564
 5156POPC   NC366191   7.448   7.526   5.441
 5156POPC   PO466192   7.465   6.854   5.508
 5156POPC   GL166193   7.400   7.159   5.870
 5156POPC   GL266194   7.196   7.447   5.876
 5156POPC   C1A66195   7.612   7.325   6.240
 5156POPC   D2A66196   7.784   7.684   6.521
 5156POPC   C3A66197   7.728   7.562   6.952
 5156POPC   C4A66198   7.413   7.261   6.977
 5156POPC   C1B66199   6.978   7.277   6.232
 5156POPC   C2B66200   6.939   7.234   6.681
 5156POPC   C3B66201   6.977   7.522   7.020
 5156POPC   C4B66202   6.857   7.972   7.045
 5157POPC   NC366203  18.244  34.344   5.398
 5157POPC   PO466204  17.887  34.895   5.357
 5157POPC   GL166205  17.981  34.655   5.735
 5157POPC   GL266206  17.799  34.322   5.748
 5157POPC   C1A66207  18.186  34.484   6.114
 5157POPC   D2A66208  18.393  34.458   6.517
 5157POPC   C3A66209  18.285  34.781   6.799
 5157POPC   C4A66210  18.327  34.766   7.228
 5157POPC   C1B66211  17.834  34.121   6.180
 5157POPC   C2B66212  18.081  34.026   6.563
 5157POPC   C3B66213  18.193  34.229   6.952
 5157POPC   C4B66214  18.172  34.181   7.383
 5158POPC   NC366215  12.470  33.898   5.575
 5158POPC   PO466216  11.911  33.679   5.195
 5158POPC   GL166217  11.948  33.801   5.668
 5158POPC   GL266218  12.121  33.517   5.785
 5158POPC   C1A66219  11.890  33.924   6.155
 5158POPC   D2A66220  12.139  33.913   6.591
 5158POPC   C3A66221  11.926  33.776   6.976
 5158POPC   C4A66222  11.843  33.821   7.411
 5158POPC   C1B66223  12.243  33.564   6.219
 5158POPC   C2B66224  12.348  33.361   6.594
 5158POPC   C3B66225  12.438  33.427   7.020
 5158POPC   C4B66226  12.346  33.738   7.297
 5159POPC   NC366227  30.265  10.760   5.399
 5159POPC   PO466228  29.626  10.509   5.297
 5159POPC   GL166229  29.875  10.493   5.716
 5159POPC   GL266230  30.236  10.351   5.777
 5159POPC   C1A66231  29.995  10.667   6.135
 5159POPC   D2A66232  30.201  10.866   6.494
 5159POPC   C3A66233  30.027  10.807   6.885
 5159POPC   C4A66234  29.891  10.513   7.199
 5159POPC   C1B66235  30.218  10.213   6.238
 5159POPC   C2B66236  30.146  10.359   6.671
 5159POPC   C3B66237  30.282  10.205   7.108
 5159POPC   C4B66238  30.294  10.353   7.578
 5160POPC   NC366239   3.486  19.227   5.451
 5160POPC   PO466240   3.485  18.593   5.635
 5160POPC   GL166241   3.587  18.954   5.878
 5160POPC   GL266242   3.227  19.067   5.853
 5160POPC   C1A66243   3.609  19.086   6.320
 5160POPC   D2A66244   3.432  18.790   6.638
 5160POPC   C3A66245   3.403  18.714   7.105
 5160POPC   C4A66246   3.809  18.649   7.354
 5160POPC   C1B66247   3.116  19.264   6.234
 5160POPC   C2B66248   3.236  19.260   6.668
 5160POPC   C3B66249   3.540  19.185   6.980
 5160POPC   C4B66250   3.429  19.315   7.382
 5161POPC   NC366251  32.296  21.673   5.506
 5161POPC   PO466252  32.331  21.017   5.460
 5161POPC   GL166253  32.319  21.150   5.873
 5161POPC   GL266254  32.491  21.462   5.905
 5161POPC   C1A66255  32.283  21.240   6.326
 5161POPC   D2A66256  32.271  21.511   6.686
 5161POPC   C3A66257  32.244  21.347   7.102
 5161POPC   C4A66258  31.994  21.059   7.250
 5161POPC   C1B66259  32.325  21.778   6.201
 5161POPC   C2B66260  32.427  21.978   6.597
 5161POPC   C3B66261  32.431  21.829   7.056
 5161POPC   C4B66262  32.578  21.581   7.461
 5162POPC   NC366263  15.100  40.507   5.459
 5162POPC   PO466264  15.277  41.165   5.405
 5162POPC   GL166265  15.249  40.886   5.791
 5162POPC   GL266266  14.876  40.813   5.820
 5162POPC   C1A66267  15.475  40.699   6.192
 5162POPC   D2A66268  15.669  40.840   6.613
 5162POPC   C3A66269  15.385  41.043   6.891
 5162POPC   C4A66270  15.165  40.800   7.187
 5162POPC   C1B66271  14.854  40.548   6.201
 5162POPC   C2B66272  14.929  40.610   6.661
 5162POPC   C3B66273  14.843  40.438   7.066
 5162POPC   C4B66274  14.882  40.520   7.509
 5163POPC   NC366275  22.528  31.142   5.514
 5163POPC   PO466276  21.891  31.377   5.496
 5163POPC   GL166277  22.172  31.309   5.854
 5163POPC   GL266278  22.409  31.556   5.847
 5163POPC   C1A66279  22.351  31.307   6.302
 5163POPC   D2A66280  22.398  31.205   6.756
 5163POPC   C3A66281  22.306  31.486   7.086
 5163POPC   C4A66282  21.888  31.500   7.231
 5163POPC   C1B66283  22.514  31.806   6.206
 5163POPC   C2B66284  22.603  31.850   6.650
 5163POPC   C3B66285  22.509  31.956   7.085
 5163POPC   C4B66286  22.677  31.850   7.493
 5164POPC   NC366287  17.268   4.973   5.434
 5164POPC   PO466288  17.904   4.773   5.531
 5164POPC   GL166289  17.632   5.088   5.825
 5164POPC   GL266290  17.248   5.194   5.892
 5164POPC   C1A66291  17.565   5.185   6.273
 5164POPC   D2A66292  17.597   5.334   6.669
 5164POPC   C3A66293  17.466   4.982   6.911
 5164POPC   C4A66294  17.661   4.764   7.266
 5164POPC   C1B66295  17.122   5.408   6.276
 5164POPC   C2B66296  17.155   5.584   6.704
 5164POPC   C3B66297  17.140   5.356   7.072
 5164POPC   C4B66298  17.230   5.016   7.346
 5165POPC   NC366299   1.668  15.336   5.396
 5165POPC   PO466300   2.036  14.757   5.347
 5165POPC   GL166301   1.982  15.024   5.708
 5165POPC   GL266302   1.651  15.036   5.804
 5165POPC   C1A66303   2.164  15.097   6.123
 5165POPC   D2A66304   2.179  14.959   6.543
 5165POPC   C3A66305   2.177  15.270   6.878
 5165POPC   C4A66306   2.296  15.075   7.247
 5165POPC   C1B66307   1.684  15.306   6.156
 5165POPC   C2B66308   1.743  15.281   6.604
 5165POPC   C3B66309   1.720  15.181   7.069
 5165POPC   C4B66310   1.882  15.476   7.377
 5166POPC   NC366311  10.803  11.651   5.394
 5166POPC   PO466312  10.192  11.468   5.309
 5166POPC   GL166313  10.441  11.489   5.713
 5166POPC   GL266314  10.414  11.148   5.765
 5166POPC   C1A66315  10.633  11.413   6.155
 5166POPC   D2A66316  10.489  11.568   6.592
 5166POPC   C3A66317  10.649  11.376   7.015
 5166POPC   C4A66318  10.871  11.595   7.380
 5166POPC   C1B66319  10.300  11.041   6.180
 5166POPC   C2B66320  10.425  11.045   6.623
 5166POPC   C3B66321  10.475  10.888   7.036
 5166POPC   C4B66322  10.429  11.014   7.475
 5167POPC   NC366323  33.719  41.966   5.466
 5167POPC   PO466324  34.305  42.328   5.397
 5167POPC   GL166325  34.013  42.328   5.727
 5167POPC   GL266326  33.747  42.564   5.753
 5167POPC   C1A66327  33.788  42.195   6.103
 5167POPC   D2A66328  33.975  42.235   6.489
 5167POPC   C3A66329  33.766  42.313   6.847
 5167POPC   C4A66330  33.971  42.386   7.221
 5167POPC   C1B66331  33.640  42.688   6.209
 5167POPC   C2B66332  33.479  42.730   6.627
 5167POPC   C3B66333  33.640  42.804   7.030
 5167POPC   C4B66334  33.573  42.653   7.418
 5168POPC   NC366335   7.866  25.477   5.349
 5168POPC   PO466336   8.331  25.053   5.255
 5168POPC   GL166337   8.178  25.173   5.656
 5168POPC   GL266338   8.492  25.097   5.792
 5168POPC   C1A66339   8.039  25.309   6.087
 5168POPC   D2A66340   7.925  25.476   6.524
 5168POPC   C3A66341   8.108  25.322   6.905
 5168POPC   C4A66342   8.116  25.439   7.358
 5168POPC   C1B66343   8.620  24.928   6.192
 5168POPC   C2B66344   8.677  24.969   6.635
 5168POPC   C3B66345   8.570  24.790   7.016
 5168POPC   C4B66346   8.232  24.945   7.256
 5169POPC   NC366347  32.533  30.882   5.491
 5169POPC   PO466348  32.200  30.416   5.295
 5169POPC   GL166349  32.082  30.515   5.749
 5169POPC   GL266350  32.215  30.791   5.873
 5169POPC   C1A66351  32.160  30.425   6.226
 5169POPC   D2A66352  32.438  30.442   6.624
 5169POPC   C3A66353  32.266  30.549   7.067
 5169POPC   C4A66354  32.431  30.555   7.531
 5169POPC   C1B66355  32.464  30.844   6.233
 5169POPC   C2B66356  32.326  30.931   6.636
 5169POPC   C3B66357  32.509  31.000   7.024
 5169POPC   C4B66358  32.239  30.993   7.357
 5170POPC   NC366359  14.645  32.026   5.303
 5170POPC   PO466360  14.194  32.461   5.458
 5170POPC   GL166361  14.420  32.168   5.761
 5170POPC   GL266362  14.755  32.334   5.748
 5170POPC   C1A66363  14.398  32.076   6.234
 5170POPC   D2A66364  14.075  32.180   6.595
 5170POPC   C3A66365  14.134  32.074   7.047
 5170POPC   C4A66366  14.557  32.066   7.182
 5170POPC   C1B66367  14.826  32.474   6.187
 5170POPC   C2B66368  14.708  32.325   6.590
 5170POPC   C3B66369  14.416  32.468   6.870
 5170POPC   C4B66370  14.405  32.563   7.279
 5171POPC   NC366371   5.034   9.376   5.018
 5171POPC   PO466372   4.947   8.806   5.416
 5171POPC   GL166373   5.121   8.926   5.821
 5171POPC   GL266374   5.462   8.782   5.855
 5171POPC   C1A66375   5.142   8.817   6.273
 5171POPC   D2A66376   5.008   8.749   6.694
 5171POPC   C3A66377   4.990   9.125   6.961
 5171POPC   C4A66378   5.006   9.049   7.377
 5171POPC   C1B66379   5.507   9.166   6.157
 5171POPC   C2B66380   5.394   9.123   6.643
 5171POPC   C3B66381   5.380   8.815   7.066
 5171POPC   C4B66382   5.475   8.947   7.548
 5172POPC   NC366383   4.203  34.485   5.113
 5172POPC   PO466384   4.708  34.206   5.484
 5172POPC   GL166385   4.384  34.462   5.688
 5172POPC   GL266386   4.234  34.772   5.794
 5172POPC   C1A66387   4.248  34.380   6.127
 5172POPC   D2A66388   4.398  34.491   6.550
 5172POPC   C3A66389   4.522  34.278   6.911
 5172POPC   C4A66390   4.328  34.208   7.307
 5172POPC   C1B66391   4.498  34.837   6.172
 5172POPC   C2B66392   4.370  34.993   6.598
 5172POPC   C3B66393   4.201  34.732   6.988
 5172POPC   C4B66394   4.295  34.781   7.400
 5173POPC   NC366395   9.625  31.114   5.353
 5173POPC   PO466396  10.019  31.695   5.495
 5173POPC   GL166397   9.911  31.490   5.880
 5173POPC   GL266398   9.610  31.301   5.833
 5173POPC   C1A66399   9.851  31.246   6.277
 5173POPC   D2A66400   9.784  31.464   6.670
 5173POPC   C3A66401   9.866  31.319   7.084
 5173POPC   C4A66402  10.004  31.453   7.491
 5173POPC   C1B66403   9.496  31.628   6.155
 5173POPC   C2B66404   9.354  31.727   6.590
 5173POPC   C3B66405   9.330  31.449   6.954
 5173POPC   C4B66406   9.400  31.043   7.122
 5174POPC   NC366407  18.692  38.951   5.463
 5174POPC   PO466408  18.542  38.320   5.292
 5174POPC   GL166409  18.352  38.546   5.675
 5174POPC   GL266410  18.051  38.402   5.876
 5174POPC   C1A66411  18.468  38.528   6.109
 5174POPC   D2A66412  18.465  38.506   6.531
 5174POPC   C3A66413  18.135  38.324   6.767
 5174POPC   C4A66414  18.145  38.443   7.190
 5174POPC   C1B66415  17.967  38.550   6.312
 5174POPC   C2B66416  18.066  38.812   6.696
 5174POPC   C3B66417  18.496  38.869   6.880
 5174POPC   C4B66418  18.569  38.728   7.243
 5175POPC   NC366419   0.601  35.377   5.362
 5175POPC   PO466420   0.112  34.938   5.475
 5175POPC   GL166421   0.375  35.170   5.788
 5175POPC   GL266422   0.350  35.565   5.795
 5175POPC   C1A66423   0.635  35.281   6.163
 5175POPC   D2A66424   0.736  35.530   6.545
 5175POPC   C3A66425   0.628  35.423   6.968
 5175POPC   C4A66426   0.304  35.181   7.109
 5175POPC   C1B66427   0.136  35.424   6.192
 5175POPC   C2B66428   0.206  35.480   6.648
 5175POPC   C3B66429   0.122  35.660   7.086
 5175POPC   C4B66430  44.968  35.791   7.499
 5176POPC   NC366431  29.687  19.591   5.601
 5176POPC   PO466432  29.974  20.252   5.326
 5176POPC   GL166433  30.075  20.060   5.706
 5176POPC   GL266434  29.734  20.075   5.774
 5176POPC   C1A66435  30.010  19.874   6.130
 5176POPC   D2A66436  29.731  19.747   6.457
 5176POPC   C3A66437  29.886  19.695   6.864
 5176POPC   C4A66438  30.042  19.579   7.266
 5176POPC   C1B66439  29.579  20.157   6.175
 5176POPC   C2B66440  29.403  20.224   6.550
 5176POPC   C3B66441  29.507  20.022   6.942
 5176POPC   C4B66442  29.736  19.974   7.329
 5177POPC   NC366443   2.363  21.830   5.627
 5177POPC   PO466444   2.060  22.340   5.305
 5177POPC   GL166445   1.965  22.202   5.746
 5177POPC   GL266446   1.748  22.448   5.900
 5177POPC   C1A66447   1.910  22.042   6.196
 5177POPC   D2A66448   2.057  22.039   6.658
 5177POPC   C3A66449   1.776  22.083   7.056
 5177POPC   C4A66450   2.051  22.041   7.469
 5177POPC   C1B66451   1.934  22.558   6.313
 5177POPC   C2B66452   1.956  22.527   6.772
 5177POPC   C3B66453   2.085  22.460   7.188
 5177POPC   C4B66454   1.870  22.540   7.551
 5178POPC   NC366455  44.632  30.146   5.526
 5178POPC   PO466456  44.198  29.659   5.260
 5178POPC   GL166457  44.244  29.667   5.752
 5178POPC   GL266458  44.616  29.727   5.843
 5178POPC   C1A66459  44.298  29.823   6.209
 5178POPC   D2A66460  44.524  30.062   6.534
 5178POPC   C3A66461  44.558  29.883   6.961
 5178POPC   C4A66462  44.375  29.875   7.384
 5178POPC   C1B66463  44.843  29.517   6.142
 5178POPC   C2B66464  44.749  29.598   6.541
 5178POPC   C3B66465  44.879  29.470   6.920
 5178POPC   C4B66466  44.911  29.663   7.334
 5179POPC   NC366467  29.260  38.842   5.573
 5179POPC   PO466468  29.031  38.427   5.128
 5179POPC   GL166469  29.057  38.366   5.639
 5179POPC   GL266470  28.869  38.604   5.791
 5179POPC   C1A66471  29.326  38.464   6.091
 5179POPC   D2A66472  29.476  38.353   6.497
 5179POPC   C3A66473  29.266  38.528   6.844
 5179POPC   C4A66474  29.216  38.427   7.272
 5179POPC   C1B66475  28.878  38.249   6.135
 5179POPC   C2B66476  29.007  38.127   6.570
 5179POPC   C3B66477  29.027  38.002   7.007
 5179POPC   C4B66478  28.836  38.099   7.413
 5180POPC   NC366479  32.869   1.392   5.418
 5180POPC   PO466480  32.952   0.727   5.417
 5180POPC   GL166481  33.201   0.889   5.753
 5180POPC   GL266482  33.317   1.233   5.783
 5180POPC   C1A66483  33.099   0.982   6.174
 5180POPC   D2A66484  33.261   1.076   6.563
 5180POPC   C3A66485  32.986   1.196   6.860
 5180POPC   C4A66486  33.005   0.890   7.135
 5180POPC   C1B66487  33.425   1.451   6.200
 5180POPC   C2B66488  33.319   1.590   6.656
 5180POPC   C3B66489  33.381   1.425   7.111
 5180POPC   C4B66490  33.242   1.430   7.583
 5181POPC   NC366491   1.817  41.124   5.402
 5181POPC   PO466492   1.676  41.825   5.410
 5181POPC   GL166493   1.828  41.671   5.841
 5181POPC   GL266494   1.800  41.330   5.881
 5181POPC   C1A66495   2.025  41.581   6.280
 5181POPC   D2A66496   2.193  41.323   6.646
 5181POPC   C3A66497   2.235  41.600   6.979
 5181POPC   C4A66498   1.878  41.842   7.174
 5181POPC   C1B66499   1.707  41.177   6.284
 5181POPC   C2B66500   1.728  41.117   6.726
 5181POPC   C3B66501   1.749  41.307   7.133
 5181POPC   C4B66502   1.680  41.205   7.603
 5182POPC   NC366503  31.737  33.049   5.399
 5182POPC   PO466504  31.148  33.313   5.219
 5182POPC   GL166505  31.287  33.100   5.683
 5182POPC   GL266506  31.613  32.837   5.818
 5182POPC   C1A66507  31.304  33.014   6.149
 5182POPC   D2A66508  31.623  33.002   6.481
 5182POPC   C3A66509  31.448  32.986   6.880
 5182POPC   C4A66510  31.250  33.121   7.251
 5182POPC   C1B66511  31.644  32.576   6.183
 5182POPC   C2B66512  31.677  32.519   6.628
 5182POPC   C3B66513  31.884  32.708   6.961
 5182POPC   C4B66514  31.735  32.969   7.311
 5183POPC   NC366515  35.213  18.806   5.574
 5183POPC   PO466516  35.466  18.371   5.077
 5183POPC   GL166517  35.479  18.314   5.610
 5183POPC   GL266518  35.286  18.467   5.925
 5183POPC   C1A66519  35.534  18.060   6.080
 5183POPC   D2A66520  35.398  18.082   6.556
 5183POPC   C3A66521  35.527  17.929   6.969
 5183POPC   C4A66522  35.561  18.192   7.337
 5183POPC   C1B66523  35.416  18.545   6.351
 5183POPC   C2B66524  35.519  18.555   6.796
 5183POPC   C3B66525  35.506  18.695   7.231
 5183POPC   C4B66526  35.498  18.787   7.688
 5184POPC   NC366527   5.917  21.375   5.408
 5184POPC   PO466528   6.140  21.957   5.609
 5184POPC   GL166529   6.028  21.574   5.884
 5184POPC   GL266530   6.164  21.191   5.803
 5184POPC   C1A66531   5.710  21.552   6.240
 5184POPC   D2A66532   5.696  21.371   6.635
 5184POPC   C3A66533   5.607  21.580   7.042
 5184POPC   C4A66534   5.803  21.393   7.416
 5184POPC   C1B66535   6.029  21.161   6.228
 5184POPC   C2B66536   6.202  21.348   6.606
 5184POPC   C3B66537   5.999  21.205   6.996
 5184POPC   C4B66538   5.896  20.882   7.318
 5185POPC   NC366539  10.219  30.313   5.580
 5185POPC   PO466540  10.821  30.421   5.279
 5185POPC   GL166541  10.667  30.499   5.740
 5185POPC   GL266542  10.400  30.786   5.807
 5185POPC   C1A66543  10.480  30.430   6.179
 5185POPC   D2A66544  10.399  30.639   6.571
 5185POPC   C3A66545  10.713  30.603   6.897
 5185POPC   C4A66546  10.782  30.892   7.220
 5185POPC   C1B66547  10.360  31.049   6.206
 5185POPC   C2B66548  10.221  31.147   6.634
 5185POPC   C3B66549  10.340  31.091   7.065
 5185POPC   C4B66550  10.166  30.936   7.469
 5186POPC   NC366551  34.682  30.634   5.578
 5186POPC   PO466552  34.109  30.616   5.449
 5186POPC   GL166553  34.253  30.811   5.841
 5186POPC   GL266554  34.433  31.121   5.852
 5186POPC   C1A66555  34.476  30.659   6.214
 5186POPC   D2A66556  34.508  30.379   6.550
 5186POPC   C3A66557  34.792  30.536   6.817
 5186POPC   C4A66558  34.712  30.732   7.172
 5186POPC   C1B66559  34.458  31.146   6.332
 5186POPC   C2B66560  34.545  30.986   6.743
 5186POPC   C3B66561  34.264  30.970   7.115
 5186POPC   C4B66562  34.130  30.803   7.531
 5187POPC   NC366563  33.122  24.480   5.370
 5187POPC   PO466564  33.772  24.166   5.494
 5187POPC   GL166565  33.380  24.300   5.808
 5187POPC   GL266566  32.979  24.235   5.804
 5187POPC   C1A66567  33.242  24.278   6.274
 5187POPC   D2A66568  33.359  24.529   6.668
 5187POPC   C3A66569  33.052  24.658   7.021
 5187POPC   C4A66570  32.757  24.748   7.347
 5187POPC   C1B66571  32.707  24.341   6.182
 5187POPC   C2B66572  32.840  24.436   6.607
 5187POPC   C3B66573  33.091  24.164   6.920
 5187POPC   C4B66574  32.945  24.240   7.341
 5188POPC   NC366575   4.106  15.497   5.366
 5188POPC   PO466576   4.636  15.121   5.392
 5188POPC   GL166577   4.344  15.004   5.789
 5188POPC   GL266578   4.197  15.308   5.877
 5188POPC   C1A66579   4.069  14.908   6.179
 5188POPC   D2A66580   4.044  15.052   6.638
 5188POPC   C3A66581   4.355  15.110   6.953
 5188POPC   C4A66582   4.403  14.854   7.268
 5188POPC   C1B66583   4.415  15.274   6.283
 5188POPC   C2B66584   4.283  15.511   6.632
 5188POPC   C3B66585   4.076  15.537   7.008
 5188POPC   C4B66586   4.310  15.471   7.355
 5189POPC   NC366587   0.801  21.923   5.282
 5189POPC   PO466588   0.202  22.202   5.399
 5189POPC   GL166589   0.467  22.024   5.698
 5189POPC   GL266590   0.740  22.219   5.696
 5189POPC   C1A66591   0.493  21.983   6.152
 5189POPC   D2A66592   0.276  22.180   6.535
 5189POPC   C3A66593   0.162  21.937   6.910
 5189POPC   C4A66594   0.501  21.817   7.159
 5189POPC   C1B66595   0.739  22.437   6.041
 5189POPC   C2B66596   0.528  22.611   6.383
 5189POPC   C3B66597   0.481  22.591   6.819
 5189POPC   C4B66598   0.389  22.367   7.178
 5190POPC   NC366599   2.285  30.514   5.551
 5190POPC   PO466600   2.993  30.471   5.365
 5190POPC   GL166601   2.798  30.690   5.715
 5190POPC   GL266602   2.512  30.906   5.774
 5190POPC   C1A66603   2.772  30.553   6.132
 5190POPC   D2A66604   2.931  30.377   6.532
 5190POPC   C3A66605   2.735  30.520   6.926
 5190POPC   C4A66606   2.521  30.229   7.221
 5190POPC   C1B66607   2.426  30.915   6.220
 5190POPC   C2B66608   2.326  30.925   6.677
 5190POPC   C3B66609   2.301  30.775   7.087
 5190POPC   C4B66610   2.616  30.751   7.385
 5191POPC   NC366611  10.646  24.209   5.483
 5191POPC   PO466612  10.297  23.590   5.444
 5191POPC   GL166613  10.567  23.750   5.734
 5191POPC   GL266614  10.279  23.960   5.815
 5191POPC   C1A66615  10.720  23.896   6.119
 5191POPC   D2A66616  10.724  23.696   6.512
 5191POPC   C3A66617  10.722  23.876   6.906
 5191POPC   C4A66618  10.619  23.714   7.305
 5191POPC   C1B66619  10.265  23.656   6.169
 5191POPC   C2B66620  10.315  23.381   6.538
 5191POPC   C3B66621  10.296  23.512   6.967
 5191POPC   C4B66622  10.262  23.373   7.407
 5192POPC   NC366623  16.965   4.571   5.105
 5192POPC   PO466624  16.479   4.120   5.259
 5192POPC   GL166625  16.413   4.148   5.730
 5192POPC   GL266626  16.363   4.507   5.827
 5192POPC   C1A66627  16.577   4.140   6.191
 5192POPC   D2A66628  16.502   4.279   6.662
 5192POPC   C3A66629  16.827   4.187   7.023
 5192POPC   C4A66630  17.271   3.993   7.088
 5192POPC   C1B66631  16.479   4.639   6.262
 5192POPC   C2B66632  16.489   4.798   6.683
 5192POPC   C3B66633  16.441   4.581   7.084
 5192POPC   C4B66634  16.453   4.453   7.539
 5193POPC   NC366635  22.093  41.079   5.584
 5193POPC   PO466636  22.438  41.572   5.270
 5193POPC   GL166637  22.240  41.577   5.710
 5193POPC   GL266638  21.961  41.834   5.739
 5193POPC   C1A66639  22.348  41.476   6.167
 5193POPC   D2A66640  22.431  41.658   6.557
 5193POPC   C3A66641  22.373  41.410   6.924
 5193POPC   C4A66642  22.487  41.560   7.346
 5193POPC   C1B66643  21.852  41.576   6.097
 5193POPC   C2B66644  21.950  41.431   6.515
 5193POPC   C3B66645  21.767  41.428   6.909
 5193POPC   C4B66646  21.992  41.496   7.248
 5194POPC   NC366647  37.776  10.363   5.247
 5194POPC   PO466648  37.851   9.727   5.476
 5194POPC   GL166649  37.516   9.730   5.800
 5194POPC   GL266650  37.477   9.374   5.903
 5194POPC   C1A66651  37.545   9.760   6.247
 5194POPC   D2A66652  37.749   9.865   6.608
 5194POPC   C3A66653  37.496   9.756   6.948
 5194POPC   C4A66654  37.549   9.943   7.321
 5194POPC   C1B66655  37.914   9.385   6.113
 5194POPC   C2B66656  38.090   9.324   6.542
 5194POPC   C3B66657  37.927   9.481   6.930
 5194POPC   C4B66658  37.898   9.606   7.380
 5195POPC   NC366659  44.580  39.792   5.290
 5195POPC   PO466660   0.015  40.226   5.587
 5195POPC   GL166661  44.639  40.111   5.802
 5195POPC   GL266662  44.556  39.754   5.819
 5195POPC   C1A66663  44.398  40.196   6.178
 5195POPC   D2A66664  44.487  40.064   6.595
 5195POPC   C3A66665  44.819  40.221   6.797
 5195POPC   C4A66666  44.752  40.259   7.238
 5195POPC   C1B66667  44.777  39.823   6.228
 5195POPC   C2B66668  44.960  39.748   6.626
 5195POPC   C3B66669  44.759  39.786   7.027
 5195POPC   C4B66670  44.979  39.820   7.447
 5196POPC   NC366671  21.495  28.407   5.398
 5196POPC   PO466672  20.955  28.850   5.255
 5196POPC   GL166673  21.123  28.617   5.696
 5196POPC   GL266674  21.470  28.633   5.859
 5196POPC   C1A66675  21.218  28.307   6.123
 5196POPC   D2A66676  21.534  28.331   6.478
 5196POPC   C3A66677  21.427  28.230   6.898
 5196POPC   C4A66678  21.583  28.198   7.312
 5196POPC   C1B66679  21.746  28.715   6.212
 5196POPC   C2B66680  21.767  28.769   6.674
 5196POPC   C3B66681  21.577  28.690   7.085
 5196POPC   C4B66682  21.773  28.634   7.466
 5197POPC   NC366683  16.398  42.302   5.107
 5197POPC   PO466684  16.801  42.587   5.405
 5197POPC   GL166685  16.588  42.304   5.767
 5197POPC   GL266686  16.809  42.120   5.998
 5197POPC   C1A66687  16.350  42.171   6.190
 5197POPC   D2A66688  16.338  41.964   6.630
 5197POPC   C3A66689  16.585  42.126   7.002
 5197POPC   C4A66690  16.453  42.391   7.330
 5197POPC   C1B66691  16.781  42.459   6.254
 5197POPC   C2B66692  16.842  42.457   6.692
 5197POPC   C3B66693  16.964  42.499   7.105
 5197POPC   C4B66694  16.931  42.217   7.436
 5198POPC   NC366695  12.325  27.429   4.978
 5198POPC   PO466696  12.281  27.991   5.393
 5198POPC   GL166697  12.257  27.538   5.589
 5198POPC   GL266698  11.918  27.380   5.704
 5198POPC   C1A66699  12.298  27.427   6.056
 5198POPC   D2A66700  12.315  27.700   6.468
 5198POPC   C3A66701  12.287  27.588   6.905
 5198POPC   C4A66702  12.032  27.824   7.250
 5198POPC   C1B66703  11.823  27.280   6.168
 5198POPC   C2B66704  11.739  27.307   6.626
 5198POPC   C3B66705  11.870  27.341   7.046
 5198POPC   C4B66706  11.557  27.519   7.293
 5199POPC   NC366707  14.106  30.198   5.213
 5199POPC   PO466708  13.422  30.027   5.384
 5199POPC   GL166709  13.618  30.104   5.786
 5199POPC   GL266710  13.977  30.188   5.725
 5199POPC   C1A66711  13.843  29.874   6.149
 5199POPC   D2A66712  13.795  29.702   6.586
 5199POPC   C3A66713  13.364  29.601   6.751
 5199POPC   C4A66714  13.271  29.630   7.208
 5199POPC   C1B66715  13.852  30.402   6.110
 5199POPC   C2B66716  13.864  30.240   6.506
 5199POPC   C3B66717  13.909  30.116   6.938
 5199POPC   C4B66718  13.735  30.154   7.342
 5200POPC   NC366719  33.459  43.880   5.382
 5200POPC   PO466720  32.968  43.418   5.441
 5200POPC   GL166721  33.124  43.572   5.813
 5200POPC   GL266722  32.886  43.870   5.871
 5200POPC   C1A66723  33.066  43.558   6.253
 5200POPC   D2A66724  33.007  43.794   6.620
 5200POPC   C3A66725  33.029  43.627   7.035
 5200POPC   C4A66726  33.375  43.607   7.332
 5200POPC   C1B66727  32.868  44.156   6.256
 5200POPC   C2B66728  32.854  44.318   6.680
 5200POPC   C3B66729  32.725  44.249   7.116
 5200POPC   C4B66730  32.751  44.343   7.577
 5201POPC   NC366731  21.906   9.157   5.406
 5201POPC   PO466732  22.185   8.586   5.545
 5201POPC   GL166733  22.266   8.956   5.810
 5201POPC   GL266734  22.065   9.276   5.859
 5201POPC   C1A66735  22.153   8.883   6.239
 5201POPC   D2A66736  22.068   8.579   6.546
 5201POPC   C3A66737  21.974   8.683   6.963
 5201POPC   C4A66738  22.196   8.940   7.231
 5201POPC   C1B66739  22.342   9.362   6.173
 5201POPC   C2B66740  22.240   9.271   6.576
 5201POPC   C3B66741  22.452   9.293   6.955
 5201POPC   C4B66742  22.424   9.378   7.392
 5202POPC   NC366743  17.761  25.102   5.543
 5202POPC   PO466744  17.168  25.623   5.574
 5202POPC   GL166745  17.475  25.436   5.793
 5202POPC   GL266746  17.345  25.102   5.818
 5202POPC   C1A66747  17.662  25.302   6.191
 5202POPC   D2A66748  17.550  25.124   6.588
 5202POPC   C3A66749  17.687  25.385   6.948
 5202POPC   C4A66750  17.669  25.334   7.400
 5202POPC   C1B66751  17.132  25.279   6.153
 5202POPC   C2B66752  16.944  25.240   6.535
 5202POPC   C3B66753  17.135  25.298   6.928
 5202POPC   C4B66754  17.130  25.120   7.321
 5203POPC   NC366755  27.042   8.520   5.431
 5203POPC   PO466756  26.434   8.141   5.448
 5203POPC   GL166757  26.747   8.123   5.744
 5203POPC   GL266758  26.752   8.439   5.827
 5203POPC   C1A66759  26.741   8.051   6.200
 5203POPC   D2A66760  27.003   7.789   6.456
 5203POPC   C3A66761  27.021   7.864   6.903
 5203POPC   C4A66762  26.884   8.102   7.247
 5203POPC   C1B66763  26.982   8.651   6.138
 5203POPC   C2B66764  27.011   8.441   6.508
 5203POPC   C3B66765  26.962   8.567   6.907
 5203POPC   C4B66766  26.813   8.598   7.292
 5204POPC   NC366767   6.043   2.210   5.482
 5204POPC   PO466768   5.655   1.621   5.470
 5204POPC   GL166769   5.786   1.874   5.804
 5204POPC   GL266770   6.126   1.753   5.718
 5204POPC   C1A66771   5.906   2.046   6.221
 5204POPC   D2A66772   5.735   1.954   6.655
 5204POPC   C3A66773   5.763   2.080   7.105
 5204POPC   C4A66774   5.955   2.461   7.215
 5204POPC   C1B66775   6.312   1.764   6.111
 5204POPC   C2B66776   6.322   1.996   6.519
 5204POPC   C3B66777   6.218   1.910   6.930
 5204POPC   C4B66778   6.420   1.654   7.225
 5205POPC   NC366779  23.985   5.440   5.353
 5205POPC   PO466780  23.481   5.031   5.342
 5205POPC   GL166781  23.657   5.012   5.751
 5205POPC   GL266782  23.449   5.311   5.814
 5205POPC   C1A66783  23.688   5.097   6.219
 5205POPC   D2A66784  23.711   4.903   6.609
 5205POPC   C3A66785  23.520   5.035   6.993
 5205POPC   C4A66786  23.665   5.060   7.427
 5205POPC   C1B66787  23.359   5.493   6.193
 5205POPC   C2B66788  23.316   5.302   6.590
 5205POPC   C3B66789  23.163   5.457   6.988
 5205POPC   C4B66790  23.318   5.420   7.390
 5206POPC   NC366791  23.361  28.475   5.268
 5206POPC   PO466792  24.044  28.483   5.355
 5206POPC   GL166793  23.804  28.451   5.774
 5206POPC   GL266794  23.903  28.122   5.864
 5206POPC   C1A66795  23.642  28.411   6.257
 5206POPC   D2A66796  23.768  28.398   6.719
 5206POPC   C3A66797  23.634  28.666   7.052
 5206POPC   C4A66798  23.624  28.413   7.390
 5206POPC   C1B66799  24.179  27.903   6.179
 5206POPC   C2B66800  24.310  28.067   6.583
 5206POPC   C3B66801  24.164  27.915   6.971
 5206POPC   C4B66802  24.026  28.161   7.288
 5207POPC   NC366803   9.449  13.728   5.340
 5207POPC   PO466804   8.882  13.544   5.121
 5207POPC   GL166805   8.856  13.377   5.584
 5207POPC   GL266806   9.214  13.364   5.730
 5207POPC   C1A66807   8.801  13.336   6.053
 5207POPC   D2A66808   8.923  13.557   6.451
 5207POPC   C3A66809   8.954  13.444   6.906
 5207POPC   C4A66810   8.981  13.673   7.324
 5207POPC   C1B66811   9.370  13.513   6.173
 5207POPC   C2B66812   9.558  13.630   6.592
 5207POPC   C3B66813   9.413  13.719   7.030
 5207POPC   C4B66814   9.382  13.981   7.440
 5208POPC   NC366815   2.987   2.627   5.550
 5208POPC   PO466816   2.910   2.036   5.142
 5208POPC   GL166817   2.842   2.150   5.626
 5208POPC   GL266818   2.499   2.227   5.752
 5208POPC   C1A66819   2.907   2.154   6.089
 5208POPC   D2A66820   2.888   2.317   6.520
 5208POPC   C3A66821   2.990   1.979   6.804
 5208POPC   C4A66822   3.053   2.066   7.219
 5208POPC   C1B66823   2.452   1.938   6.136
 5208POPC   C2B66824   2.505   2.000   6.576
 5208POPC   C3B66825   2.584   2.241   6.964
 5208POPC   C4B66826   2.473   2.025   7.322
 5209POPC   NC366827  39.847   5.723   5.091
 5209POPC   PO466828  40.351   6.149   5.307
 5209POPC   GL166829  40.053   5.952   5.608
 5209POPC   GL266830  39.824   6.196   5.768
 5209POPC   C1A66831  40.132   5.720   6.016
 5209POPC   D2A66832  40.165   5.904   6.420
 5209POPC   C3A66833  39.970   5.943   6.811
 5209POPC   C4A66834  39.960   5.633   7.155
 5209POPC   C1B66835  39.709   5.970   6.162
 5209POPC   C2B66836  39.511   5.861   6.587
 5209POPC   C3B66837  39.522   5.887   7.051
 5209POPC   C4B66838  39.865   6.109   7.298
 5210POPC   NC366839  22.001   0.734   5.408
 5210POPC   PO466840  22.250   0.177   5.402
 5210POPC   GL166841  22.362   0.278   5.796
 5210POPC   GL266842  22.399   0.624   5.761
 5210POPC   C1A66843  22.217   0.290   6.189
 5210POPC   D2A66844  22.329   0.202   6.579
 5210POPC   C3A66845  22.003   0.233   6.875
 5210POPC   C4A66846  22.019   0.319   7.323
 5210POPC   C1B66847  22.388   0.771   6.180
 5210POPC   C2B66848  22.203   0.689   6.580
 5210POPC   C3B66849  22.360   0.605   6.993
 5210POPC   C4B66850  22.253   0.783   7.397
 5211POPC   NC366851  36.541  42.840   5.476
 5211POPC   PO466852  37.188  42.477   5.213
 5211POPC   GL166853  37.111  42.593   5.718
 5211POPC   GL266854  36.770  42.543   5.951
 5211POPC   C1A66855  37.207  42.465   6.179
 5211POPC   D2A66856  36.910  42.392   6.521
 5211POPC   C3A66857  37.080  42.342   6.895
 5211POPC   C4A66858  37.233  42.439   7.280
 5211POPC   C1B66859  36.596  42.156   6.214
 5211POPC   C2B66860  36.783  41.898   6.591
 5211POPC   C3B66861  36.805  41.955   7.079
 5211POPC   C4B66862  36.713  42.383   7.278
 5212POPC   NC366863   9.214  29.067   5.331
 5212POPC   PO466864   8.654  29.353   5.570
 5212POPC   GL166865   8.949  29.060   5.795
 5212POPC   GL266866   9.284  29.124   5.847
 5212POPC   C1A66867   8.976  28.983   6.238
 5212POPC   D2A66868   8.994  29.343   6.516
 5212POPC   C3A66869   8.947  29.238   6.930
 5212POPC   C4A66870   8.971  28.989   7.296
 5212POPC   C1B66871   9.444  29.230   6.277
 5212POPC   C2B66872   9.429  29.127   6.721
 5212POPC   C3B66873   9.446  29.137   7.179
 5212POPC   C4B66874   9.469  28.827   7.512
 5213POPC   NC366875  21.175  21.199   5.392
 5213POPC   PO466876  21.652  21.655   5.159
 5213POPC   GL166877  21.598  21.514   5.631
 5213POPC   GL266878  21.254  21.477   5.813
 5213POPC   C1A66879  21.655  21.443   6.119
 5213POPC   D2A66880  21.446  21.373   6.531
 5213POPC   C3A66881  21.453  21.464   6.981
 5213POPC   C4A66882  21.536  21.627   7.395
 5213POPC   C1B66883  21.263  21.107   6.124
 5213POPC   C2B66884  21.292  20.911   6.581
 5213POPC   C3B66885  21.422  20.961   7.026
 5213POPC   C4B66886  21.390  21.149   7.471
 5214POPC   NC366887  22.983  13.278   5.495
 5214POPC   PO466888  22.892  13.968   5.520
 5214POPC   GL166889  23.098  13.698   5.832
 5214POPC   GL266890  22.897  13.429   5.970
 5214POPC   C1A66891  23.229  13.733   6.269
 5214POPC   D2A66892  23.010  13.727   6.696
 5214POPC   C3A66893  23.047  13.788   7.174
 5214POPC   C4A66894  23.156  13.595   7.573
 5214POPC   C1B66895  22.565  13.368   6.256
 5214POPC   C2B66896  22.597  13.322   6.678
 5214POPC   C3B66897  22.914  13.302   6.982
 5214POPC   C4B66898  22.767  13.376   7.367
 5215POPC   NC366899  34.809   8.872   5.532
 5215POPC   PO466900  34.238   8.664   5.354
 5215POPC   GL166901  34.358   8.638   5.779
 5215POPC   GL266902  34.026   8.544   5.818
 5215POPC   C1A66903  34.535   8.632   6.215
 5215POPC   D2A66904  34.678   8.747   6.662
 5215POPC   C3A66905  34.753   9.181   6.760
 5215POPC   C4A66906  34.962   9.429   7.101
 5215POPC   C1B66907  34.015   8.651   6.250
 5215POPC   C2B66908  34.180   8.629   6.663
 5215POPC   C3B66909  34.131   8.875   7.045
 5215POPC   C4B66910  34.416   9.243   7.129
 5216POPC   NC366911   8.157  23.926   5.468
 5216POPC   PO466912   8.470  23.256   5.372
 5216POPC   GL166913   8.286  23.474   5.759
 5216POPC   GL266914   7.976  23.500   5.886
 5216POPC   C1A66915   8.322  23.767   6.210
 5216POPC   D2A66916   8.387  23.846   6.665
 5216POPC   C3A66917   8.029  23.982   6.927
 5216POPC   C4A66918   8.095  23.942   7.343
 5216POPC   C1B66919   8.329  23.273   6.201
 5216POPC   C2B66920   8.272  23.357   6.636
 5216POPC   C3B66921   8.188  23.495   7.054
 5216POPC   C4B66922   7.779  23.567   7.247
 5217POPC   NC366923  42.490  37.879   5.416
 5217POPC   PO466924  42.140  37.282   5.463
 5217POPC   GL166925  42.533  37.411   5.676
 5217POPC   GL266926  42.315  37.395   5.965
 5217POPC   C1A66927  42.676  37.725   6.039
 5217POPC   D2A66928  42.482  37.728   6.443
 5217POPC   C3A66929  42.590  37.567   6.848
 5217POPC   C4A66930  42.502  37.423   7.253
 5217POPC   C1B66931  42.163  37.819   6.047
 5217POPC   C2B66932  42.049  38.008   6.406
 5217POPC   C3B66933  42.126  37.853   6.820
 5217POPC   C4B66934  42.310  37.923   7.218
 5218POPC   NC366935  12.290  38.975   5.064
 5218POPC   PO466936  12.469  39.412   5.708
 5218POPC   GL166937  12.036  39.342   5.810
 5218POPC   GL266938  11.897  38.976   5.764
 5218POPC   C1A66939  11.894  39.380   6.213
 5218POPC   D2A66940  12.179  39.224   6.536
 5218POPC   C3A66941  12.080  39.351   6.957
 5218POPC   C4A66942  12.094  39.489   7.415
 5218POPC   C1B66943  12.075  38.869   6.155
 5218POPC   C2B66944  11.927  38.756   6.557
 5218POPC   C3B66945  12.175  38.847   6.898
 5218POPC   C4B66946  12.071  38.987   7.287
 5219POPC   NC366947  21.781  29.365   5.421
 5219POPC   PO466948  22.442  29.071   5.282
 5219POPC   GL166949  22.363  29.004   5.736
 5219POPC   GL266950  22.169  29.283   5.784
 5219POPC   C1A66951  22.215  29.000   6.204
 5219POPC   D2A66952  22.439  29.121   6.585
 5219POPC   C3A66953  22.370  28.956   7.005
 5219POPC   C4A66954  21.939  29.038   7.152
 5219POPC   C1B66955  22.437  29.459   6.143
 5219POPC   C2B66956  22.353  29.631   6.554
 5219POPC   C3B66957  22.436  29.489   6.966
 5219POPC   C4B66958  22.320  29.585   7.363
 5220POPC   NC366959  40.961  36.721   5.059
 5220POPC   PO466960  41.600  36.845   5.347
 5220POPC   GL166961  41.669  36.852   5.790
 5220POPC   GL266962  41.454  36.558   5.852
 5220POPC   C1A66963  41.563  36.945   6.220
 5220POPC   D2A66964  41.567  36.787   6.630
 5220POPC   C3A66965  41.612  37.132   6.883
 5220POPC   C4A66966  41.657  37.168   7.318
 5220POPC   C1B66967  41.380  36.463   6.274
 5220POPC   C2B66968  41.129  36.552   6.647
 5220POPC   C3B66969  41.248  36.814   7.026
 5220POPC   C4B66970  41.526  36.681   7.348
 5221POPC   NC366971   4.060  31.077   5.433
 5221POPC   PO466972   4.527  30.698   5.332
 5221POPC   GL166973   4.347  30.662   5.774
 5221POPC   GL266974   4.243  30.983   5.911
 5221POPC   C1A66975   4.153  30.599   6.239
 5221POPC   D2A66976   4.301  30.811   6.640
 5221POPC   C3A66977   4.096  30.932   7.049
 5221POPC   C4A66978   3.962  30.676   7.386
 5221POPC   C1B66979   4.609  30.838   6.173
 5221POPC   C2B66980   4.805  30.841   6.580
 5221POPC   C3B66981   4.745  30.587   6.950
 5221POPC   C4B66982   4.504  30.603   7.325
 5222POPC   NC366983  42.741  27.650   5.505
 5222POPC   PO466984  42.087  27.382   5.474
 5222POPC   GL166985  42.335  27.387   5.879
 5222POPC   GL266986  42.593  27.638   5.983
 5222POPC   C1A66987  42.196  27.527   6.306
 5222POPC   D2A66988  42.005  27.782   6.652
 5222POPC   C3A66989  42.071  27.493   7.004
 5222POPC   C4A66990  42.332  27.370   7.304
 5222POPC   C1B66991  42.714  27.488   6.394
 5222POPC   C2B66992  42.498  27.661   6.738
 5222POPC   C3B66993  42.407  27.864   7.116
 5222POPC   C4B66994  42.603  27.761   7.476
 5223POPC   NC366995  17.350  42.054   5.145
 5223POPC   PO466996  17.691  41.443   5.240
 5223POPC   GL166997  17.441  41.556   5.550
 5223POPC   GL266998  17.524  41.854   5.597
 5223POPC   C1A66999  17.424  41.518   5.982
 5223POPC   D2A67000  17.438  41.372   6.406
 5223POPC   C3A67001  17.358  41.581   6.809
 5223POPC   C4A67002  17.294  41.374   7.219
 5223POPC   C1B67003  17.761  41.881   6.014
 5223POPC   C2B67004  17.647  41.857   6.454
 5223POPC   C3B67005  17.718  41.947   6.897
 5223POPC   C4B67006  17.545  41.804   7.288
 5224POPC   NC367007  29.104  43.058   5.473
 5224POPC   PO467008  28.703  43.501   5.715
 5224POPC   GL167009  28.946  43.196   5.939
 5224POPC   GL267010  29.286  43.089   5.969
 5224POPC   C1A67011  28.934  42.989   6.309
 5224POPC   D2A67012  29.179  43.063   6.632
 5224POPC   C3A67013  28.984  43.130   6.975
 5224POPC   C4A67014  29.100  43.371   7.297
 5224POPC   C1B67015  29.401  42.751   6.299
 5224POPC   C2B67016  29.497  42.675   6.755
 5224POPC   C3B67017  29.407  42.902   7.152
 5224POPC   C4B67018  29.085  42.885   7.495
 5225POPC   NC367019   5.360   3.791   5.500
 5225POPC   PO467020   5.177   3.086   5.267
 5225POPC   GL167021   5.002   3.357   5.649
 5225POPC   GL267022   5.298   3.359   5.843
 5225POPC   C1A67023   4.918   3.489   6.158
 5225POPC   D2A67024   5.172   3.574   6.571
 5225POPC   C3A67025   5.022   3.567   7.035
 5225POPC   C4A67026   4.803   3.683   7.424
 5225POPC   C1B67027   5.492   3.622   6.165
 5225POPC   C2B67028   5.684   3.637   6.570
 5225POPC   C3B67029   5.523   3.662   6.992
 5225POPC   C4B67030   5.585   4.040   7.217
 5226POPC   NC367031  16.861  33.032   5.211
 5226POPC   PO467032  16.394  33.243   5.592
 5226POPC   GL167033  16.448  32.977   5.964
 5226POPC   GL267034  16.816  32.828   6.048
 5226POPC   C1A67035  16.476  32.942   6.407
 5226POPC   D2A67036  16.740  33.112   6.722
 5226POPC   C3A67037  16.573  32.945   7.082
 5226POPC   C4A67038  16.499  33.117   7.465
 5226POPC   C1B67039  17.073  33.129   6.331
 5226POPC   C2B67040  17.101  33.527   6.600
 5226POPC   C3B67041  17.091  33.449   7.026
 5226POPC   C4B67042  17.053  33.026   7.140
 5227POPC   NC367043  23.691  44.794   5.336
 5227POPC   PO467044  23.295  44.261   5.222
 5227POPC   GL167045  23.376  44.492   5.668
 5227POPC   GL267046  23.693  44.696   5.825
 5227POPC   C1A67047  23.468  44.389   6.138
 5227POPC   D2A67048  23.733  44.629   6.422
 5227POPC   C3A67049  23.741  44.570   6.862
 5227POPC   C4A67050  23.902  44.566   7.314
 5227POPC   C1B67051  23.728   0.045   6.128
 5227POPC   C2B67052  23.794   0.199   6.576
 5227POPC   C3B67053  23.865   0.046   6.984
 5227POPC   C4B67054  23.541  44.942   7.253
 5228POPC   NC367055  41.770  22.386   5.289
 5228POPC   PO467056  41.245  21.997   5.460
 5228POPC   GL167057  41.330  22.137   5.831
 5228POPC   GL267058  41.665  22.257   5.783
 5228POPC   C1A67059  41.394  21.944   6.226
 5228POPC   D2A67060  41.606  22.087   6.606
 5228POPC   C3A67061  41.456  22.025   7.016
 5228POPC   C4A67062  41.387  21.864   7.419
 5228POPC   C1B67063  41.877  22.190   6.168
 5228POPC   C2B67064  42.000  22.419   6.550
 5228POPC   C3B67065  41.929  22.310   6.985
 5228POPC   C4B67066  41.817  22.156   7.383
 5229POPC   NC367067  14.377  23.476   5.538
 5229POPC   PO467068  14.436  24.223   5.555
 5229POPC   GL167069  14.259  23.916   5.790
 5229POPC   GL267070  14.582  23.800   5.899
 5229POPC   C1A67071  14.129  23.673   6.169
 5229POPC   D2A67072  14.252  23.459   6.570
 5229POPC   C3A67073  14.260  23.663   6.972
 5229POPC   C4A67074  14.169  23.421   7.362
 5229POPC   C1B67075  14.599  23.779   6.343
 5229POPC   C2B67076  14.883  23.660   6.660
 5229POPC   C3B67077  14.786  23.609   7.083
 5229POPC   C4B67078  14.547  23.920   7.298
 5230POPC   NC367079  25.360  41.403   5.631
 5230POPC   PO467080  25.180  41.995   5.529
 5230POPC   GL167081  25.310  41.815   5.918
 5230POPC   GL267082  25.662  41.697   5.981
 5230POPC   C1A67083  25.249  41.705   6.319
 5230POPC   D2A67084  24.924  41.519   6.555
 5230POPC   C3A67085  25.009  41.563   6.952
 5230POPC   C4A67086  25.036  41.336   7.336
 5230POPC   C1B67087  25.734  41.764   6.444
 5230POPC   C2B67088  25.444  41.822   6.786
 5230POPC   C3B67089  25.462  41.645   7.170
 5230POPC   C4B67090  25.547  41.272   7.358
 5231POPC   NC367091  33.571   9.738   5.191
 5231POPC   PO467092  34.107   9.453   5.540
 5231POPC   GL167093  33.760   9.692   5.682
 5231POPC   GL267094  33.949   9.869   5.887
 5231POPC   C1A67095  33.531   9.654   6.088
 5231POPC   D2A67096  33.654   9.559   6.514
 5231POPC   C3A67097  33.447   9.840   6.821
 5231POPC   C4A67098  33.339   9.815   7.255
 5231POPC   C1B67099  34.103   9.698   6.254
 5231POPC   C2B67100  34.102   9.730   6.690
 5231POPC   C3B67101  33.898   9.825   7.059
 5231POPC   C4B67102  34.123   9.596   7.317
 5232POPC   NC367103  18.662  11.457   5.501
 5232POPC   PO467104  19.229  11.304   5.509
 5232POPC   GL167105  19.150  11.086   5.891
 5232POPC   GL267106  18.809  11.121   5.881
 5232POPC   C1A67107  19.061  11.133   6.356
 5232POPC   D2A67108  19.047  11.129   6.824
 5232POPC   C3A67109  19.146  11.325   7.215
 5232POPC   C4A67110  19.131  11.418   7.666
 5232POPC   C1B67111  18.535  11.121   6.238
 5232POPC   C2B67112  18.580  10.966   6.666
 5232POPC   C3B67113  18.621  11.091   7.113
 5232POPC   C4B67114  18.519  11.222   7.528
 5233POPC   NC367115  25.011  43.050   5.193
 5233POPC   PO467116  25.348  43.576   5.286
 5233POPC   GL167117  25.089  43.402   5.671
 5233POPC   GL267118  25.107  43.041   5.743
 5233POPC   C1A67119  25.196  43.381   6.139
 5233POPC   D2A67120  25.062  43.209   6.515
 5233POPC   C3A67121  25.126  43.387   6.912
 5233POPC   C4A67122  25.068  43.221   7.291
 5233POPC   C1B67123  25.216  42.857   6.146
 5233POPC   C2B67124  25.360  42.775   6.562
 5233POPC   C3B67125  25.187  42.867   6.926
 5233POPC   C4B67126  25.319  42.699   7.283
 5234POPC   NC367127  44.612  42.287   5.399
 5234POPC   PO467128   0.274  42.496   5.277
 5234POPC   GL167129   0.047  42.462   5.719
 5234POPC   GL267130  44.729  42.676   5.772
 5234POPC   C1A67131  44.843  42.293   6.120
 5234POPC   D2A67132  44.625  42.318   6.530
 5234POPC   C3A67133  44.853  42.206   6.915
 5234POPC   C4A67134  44.813  42.461   7.283
 5234POPC   C1B67135  44.387  42.530   6.117
 5234POPC   C2B67136  44.182  42.575   6.568
 5234POPC   C3B67137  44.390  42.472   6.973
 5234POPC   C4B67138  44.351  42.329   7.397
 5235POPC   NC367139  43.531  18.015   5.522
 5235POPC   PO467140  44.081  18.254   5.325
 5235POPC   GL167141  44.062  18.354   5.759
 5235POPC   GL267142  43.721  18.317   5.871
 5235POPC   C1A67143  44.033  18.599   6.146
 5235POPC   D2A67144  44.080  18.387   6.538
 5235POPC   C3A67145  44.067  18.571   6.947
 5235POPC   C4A67146  44.044  18.378   7.354
 5235POPC   C1B67147  43.746  18.073   6.227
 5235POPC   C2B67148  43.626  18.131   6.627
 5235POPC   C3B67149  43.845  18.119   6.965
 5235POPC   C4B67150  43.842  17.911   7.329
 5236POPC   NC367151   5.180  26.352   5.149
 5236POPC   PO467152   5.367  25.771   5.458
 5236POPC   GL167153   5.214  25.910   5.918
 5236POPC   GL267154   4.849  25.996   5.971
 5236POPC   C1A67155   5.315  26.261   6.246
 5236POPC   D2A67156   5.564  26.457   6.593
 5236POPC   C3A67157   5.424  26.281   6.994
 5236POPC   C4A67158   5.165  26.042   7.241
 5236POPC   C1B67159   4.989  25.869   6.365
 5236POPC   C2B67160   5.043  25.759   6.768
 5236POPC   C3B67161   4.784  25.817   7.013
 5236POPC   C4B67162   4.667  25.778   7.401
 5237POPC   NC367163  44.862   0.137   5.526
 5237POPC   PO467164  44.789  44.505   5.338
 5237POPC   GL167165  44.579  44.653   5.670
 5237POPC   GL267166  44.395  44.343   5.659
 5237POPC   C1A67167  44.495  44.812   6.086
 5237POPC   D2A67168  44.580  44.617   6.480
 5237POPC   C3A67169  44.406  44.784   6.845
 5237POPC   C4A67170  44.640  44.669   7.194
 5237POPC   C1B67171  44.434  44.272   6.113
 5237POPC   C2B67172  44.362  44.120   6.561
 5237POPC   C3B67173  44.322  44.279   6.993
 5237POPC   C4B67174  44.376  44.232   7.440
 5238POPC   NC367175   8.681  32.069   5.503
 5238POPC   PO467176   7.996  32.317   5.542
 5238POPC   GL167177   8.265  32.179   5.812
 5238POPC   GL267178   8.504  32.472   5.790
 5238POPC   C1A67179   8.110  32.131   6.215
 5238POPC   D2A67180   8.173  32.291   6.599
 5238POPC   C3A67181   8.065  32.004   6.890
 5238POPC   C4A67182   7.885  32.028   7.284
 5238POPC   C1B67183   8.390  32.592   6.215
 5238POPC   C2B67184   8.573  32.601   6.644
 5238POPC   C3B67185   8.618  32.602   7.112
 5238POPC   C4B67186   8.585  32.485   7.599
 5239POPC   NC367187   2.195  16.349   5.409
 5239POPC   PO467188   2.040  15.636   5.392
 5239POPC   GL167189   1.963  15.814   5.784
 5239POPC   GL267190   1.812  16.139   5.740
 5239POPC   C1A67191   1.962  15.734   6.221
 5239POPC   D2A67192   1.868  15.953   6.593
 5239POPC   C3A67193   2.012  15.820   7.009
 5239POPC   C4A67194   1.790  15.982   7.398
 5239POPC   C1B67195   1.995  16.257   6.125
 5239POPC   C2B67196   2.199  16.397   6.485
 5239POPC   C3B67197   2.042  16.349   6.861
 5239POPC   C4B67198   2.209  16.241   7.221
 5240POPC   NC367199  42.040   6.053   5.320
 5240POPC   PO467200  42.529   5.589   5.289
 5240POPC   GL167201  42.539   5.727   5.735
 5240POPC   GL267202  42.312   6.015   5.777
 5240POPC   C1A67203  42.515   5.815   6.196
 5240POPC   D2A67204  42.442   5.593   6.556
 5240POPC   C3A67205  42.339   5.742   6.944
 5240POPC   C4A67206  42.419   5.488   7.287
 5240POPC   C1B67207  42.180   6.220   6.190
 5240POPC   C2B67208  42.275   6.177   6.641
 5240POPC   C3B67209  42.086   6.178   7.084
 5240POPC   C4B67210  42.076   6.244   7.582
 5241POPC   NC367211  34.513  10.953   5.633
 5241POPC   PO467212  34.462  11.646   5.470
 5241POPC   GL167213  34.646  11.398   5.820
 5241POPC   GL267214  34.982  11.237   5.742
 5241POPC   C1A67215  34.585  11.213   6.245
 5241POPC   D2A67216  34.316  11.374   6.581
 5241POPC   C3A67217  34.299  11.254   7.017
 5241POPC   C4A67218  34.223  11.431   7.441
 5241POPC   C1B67219  35.028  11.490   6.138
 5241POPC   C2B67220  34.834  11.543   6.562
 5241POPC   C3B67221  34.757  11.672   6.996
 5241POPC   C4B67222  34.721  11.368   7.297
 5242POPC   NC367223  11.441  32.620   5.596
 5242POPC   PO467224  11.089  33.111   5.222
 5242POPC   GL167225  11.320  33.149   5.665
 5242POPC   GL267226  11.509  32.965   5.969
 5242POPC   C1A67227  11.181  33.349   6.071
 5242POPC   D2A67228  11.373  33.233   6.464
 5242POPC   C3A67229  11.117  33.176   6.822
 5242POPC   C4A67230  10.968  33.358   7.194
 5242POPC   C1B67231  11.466  32.692   6.376
 5242POPC   C2B67232  11.370  32.726   6.846
 5242POPC   C3B67233  11.290  32.916   7.280
 5242POPC   C4B67234  11.386  32.706   7.722
 5243POPC   NC367235  10.986  42.590   5.361
 5243POPC   PO467236  11.641  42.476   5.449
 5243POPC   GL167237  11.578  42.129   5.699
 5243POPC   GL267238  11.248  42.196   5.676
 5243POPC   C1A67239  11.468  42.050   6.129
 5243POPC   D2A67240  11.291  42.224   6.476
 5243POPC   C3A67241  11.526  42.265   6.832
 5243POPC   C4A67242  11.502  42.346   7.250
 5243POPC   C1B67243  11.044  42.357   6.053
 5243POPC   C2B67244  10.834  42.497   6.437
 5243POPC   C3B67245  11.085  42.535   6.817
 5243POPC   C4B67246  11.016  42.452   7.207
 5244POPC   NC367247  40.191  29.141   5.739
 5244POPC   PO467248  39.799  29.425   5.276
 5244POPC   GL167249  39.763  29.490   5.737
 5244POPC   GL267250  39.693  29.150   5.857
 5244POPC   C1A67251  39.891  29.496   6.201
 5244POPC   D2A67252  39.775  29.383   6.625
 5244POPC   C3A67253  40.088  29.313   6.937
 5244POPC   C4A67254  39.894  29.257   7.298
 5244POPC   C1B67255  39.806  28.974   6.268
 5244POPC   C2B67256  39.814  28.859   6.691
 5244POPC   C3B67257  39.853  28.780   7.105
 5244POPC   C4B67258  40.221  28.844   7.363
 5245POPC   NC367259  13.250  24.847   5.566
 5245POPC   PO467260  13.523  24.260   5.379
 5245POPC   GL167261  13.713  24.464   5.750
 5245POPC   GL267262  13.440  24.557   5.909
 5245POPC   C1A67263  13.828  24.534   6.210
 5245POPC   D2A67264  13.650  24.351   6.571
 5245POPC   C3A67265  13.786  24.555   6.881
 5245POPC   C4A67266  13.793  24.534   7.286
 5245POPC   C1B67267  13.265  24.546   6.274
 5245POPC   C2B67268  13.158  24.502   6.678
 5245POPC   C3B67269  13.351  24.386   7.061
 5245POPC   C4B67270  13.318  24.462   7.501
 5246POPC   NC367271  26.941  44.880   5.479
 5246POPC   PO467272  26.525  44.337   5.546
 5246POPC   GL167273  26.834  44.360   5.916
 5246POPC   GL267274  26.989  44.710   5.953
 5246POPC   C1A67275  26.812  44.459   6.383
 5246POPC   D2A67276  26.529  44.826   6.575
 5246POPC   C3A67277  26.606  44.937   6.993
 5246POPC   C4A67278  26.763  44.539   7.131
 5246POPC   C1B67279  27.003  44.918   6.348
 5246POPC   C2B67280  27.080  44.773   6.752
 5246POPC   C3B67281  27.081  44.904   7.173
 5246POPC   C4B67282  27.259  44.642   7.524
 5247POPC   NC367283   8.032  22.134   5.491
 5247POPC   PO467284   8.687  22.298   5.298
 5247POPC   GL167285   8.464  22.265   5.727
 5247POPC   GL267286   8.389  21.924   5.801
 5247POPC   C1A67287   8.308  22.277   6.187
 5247POPC   D2A67288   8.044  22.410   6.568
 5247POPC   C3A67289   8.139  22.503   7.003
 5247POPC   C4A67290   8.349  22.298   7.288
 5247POPC   C1B67291   8.035  21.848   6.090
 5247POPC   C2B67292   8.013  21.869   6.520
 5247POPC   C3B67293   8.250  22.004   6.872
 5247POPC   C4B67294   8.051  21.889   7.250
 5248POPC   NC367295  36.944   6.512   5.580
 5248POPC   PO467296  36.415   6.679   5.116
 5248POPC   GL167297  36.581   6.904   5.608
 5248POPC   GL267298  36.955   6.981   5.763
 5248POPC   C1A67299  36.625   6.768   6.101
 5248POPC   D2A67300  36.888   6.853   6.461
 5248POPC   C3A67301  36.832   6.596   6.833
 5248POPC   C4A67302  36.612   6.618   7.234
 5248POPC   C1B67303  37.172   7.187   6.150
 5248POPC   C2B67304  37.201   7.261   6.615
 5248POPC   C3B67305  37.271   7.167   7.047
 5248POPC   C4B67306  37.103   6.799   7.202
 5249POPC   NC367307  24.775  17.542   5.437
 5249POPC   PO467308  24.384  17.038   5.338
 5249POPC   GL167309  24.264  17.291   5.748
 5249POPC   GL267310  24.445  17.591   5.822
 5249POPC   C1A67311  24.376  17.265   6.217
 5249POPC   D2A67312  24.596  17.349   6.592
 5249POPC   C3A67313  24.478  17.368   7.015
 5249POPC   C4A67314  24.199  17.193   7.300
 5249POPC   C1B67315  24.536  17.748   6.241
 5249POPC   C2B67316  24.222  17.722   6.589
 5249POPC   C3B67317  24.212  17.811   7.021
 5249POPC   C4B67318  24.631  17.786   7.238
 5250POPC   NC367319  40.122  41.341   5.327
 5250POPC   PO467320  39.821  41.993   5.318
 5250POPC   GL167321  39.959  41.741   5.653
 5250POPC   GL267322  39.745  41.488   5.635
 5250POPC   C1A67323  40.109  41.666   6.074
 5250POPC   D2A67324  40.059  41.786   6.488
 5250POPC   C3A67325  40.193  41.552   6.820
 5250POPC   C4A67326  40.153  41.533   7.229
 5250POPC   C1B67327  39.660  41.368   6.038
 5250POPC   C2B67328  39.736  41.394   6.476
 5250POPC   C3B67329  39.618  41.522   6.874
 5250POPC   C4B67330  39.649  41.442   7.296
 5251POPC   NC367331  28.369  41.473   5.519
 5251POPC   PO467332  28.536  42.094   5.275
 5251POPC   GL167333  28.574  41.870   5.759
 5251POPC   GL267334  28.206  41.781   5.915
 5251POPC   C1A67335  28.588  41.598   6.190
 5251POPC   D2A67336  28.299  41.592   6.546
 5251POPC   C3A67337  28.466  41.755   6.929
 5251POPC   C4A67338  28.316  41.722   7.343
 5251POPC   C1B67339  28.143  41.323   6.105
 5251POPC   C2B67340  28.120  41.050   6.471
 5251POPC   C3B67341  28.024  41.240   6.855
 5251POPC   C4B67342  27.947  41.367   7.275
 5252POPC   NC367343  20.716   4.776   5.640
 5252POPC   PO467344  20.192   4.445   5.761
 5252POPC   GL167345  20.481   4.187   5.925
 5252POPC   GL267346  20.800   4.324   5.854
 5252POPC   C1A67347  20.553   4.024   6.301
 5252POPC   D2A67348  20.590   4.407   6.489
 5252POPC   C3A67349  20.471   4.424   6.899
 5252POPC   C4A67350  20.584   4.736   7.204
 5252POPC   C1B67351  21.014   4.212   6.225
 5252POPC   C2B67352  20.980   4.117   6.661
 5252POPC   C3B67353  20.955   4.359   7.006
 5252POPC   C4B67354  20.817   4.306   7.386
 5253POPC   NC367355  39.591  11.131   5.737
 5253POPC   PO467356  39.104  10.759   5.563
 5253POPC   GL167357  39.432  10.597   5.831
 5253POPC   GL267358  39.245  10.275   5.831
 5253POPC   C1A67359  39.549  10.719   6.293
 5253POPC   D2A67360  39.288  10.712   6.692
 5253POPC   C3A67361  39.494  10.527   7.035
 5253POPC   C4A67362  39.758  10.165   7.059
 5253POPC   C1B67363  39.145  10.418   6.248
 5253POPC   C2B67364  38.807  10.632   6.479
 5253POPC   C3B67365  38.780  10.538   6.898
 5253POPC   C4B67366  39.031  10.645   7.225
 5254POPC   NC367367  25.248  17.931   5.214
 5254POPC   PO467368  25.555  18.507   5.409
 5254POPC   GL167369  25.220  18.387   5.748
 5254POPC   GL267370  25.329  18.102   5.891
 5254POPC   C1A67371  24.919  18.214   6.138
 5254POPC   D2A67372  24.966  17.905   6.497
 5254POPC   C3A67373  24.963  18.094   6.943
 5254POPC   C4A67374  25.200  18.398   7.223
 5254POPC   C1B67375  25.570  18.096   6.237
 5254POPC   C2B67376  25.691  18.170   6.637
 5254POPC   C3B67377  25.583  18.118   7.049
 5254POPC   C4B67378  25.296  17.828   7.236
 5255POPC   NC367379   0.827  28.529   5.538
 5255POPC   PO467380   1.377  28.184   5.356
 5255POPC   GL167381   1.192  28.188   5.780
 5255POPC   GL267382   0.825  28.124   5.839
 5255POPC   C1A67383   1.225  28.412   6.214
 5255POPC   D2A67384   1.487  28.393   6.602
 5255POPC   C3A67385   1.326  28.427   7.039
 5255POPC   C4A67386   1.324  28.531   7.502
 5255POPC   C1B67387   0.719  28.293   6.281
 5255POPC   C2B67388   0.900  28.325   6.726
 5255POPC   C3B67389   0.872  28.190   7.180
 5255POPC   C4B67390   1.087  28.072   7.555
 5256POPC   NC367391  38.807  12.662   5.509
 5256POPC   PO467392  38.366  13.154   5.670
 5256POPC   GL167393  38.441  12.756   5.857
 5256POPC   GL267394  38.745  12.641   6.004
 5256POPC   C1A67395  38.301  12.716   6.256
 5256POPC   D2A67396  38.520  12.690   6.659
 5256POPC   C3A67397  38.321  12.673   7.083
 5256POPC   C4A67398  38.444  12.878   7.472
 5256POPC   C1B67399  38.770  12.991   6.258
 5256POPC   C2B67400  38.901  13.067   6.675
 5256POPC   C3B67401  38.714  13.114   7.089
 5256POPC   C4B67402  38.702  13.309   7.509
 5257POPC   NC367403   0.607  42.196   5.382
 5257POPC   PO467404   0.574  42.866   5.668
 5257POPC   GL167405   0.848  42.561   5.873
 5257POPC   GL267406   0.702  42.228   5.876
 5257POPC   C1A67407   0.858  42.435   6.331
 5257POPC   D2A67408   0.667  42.166   6.609
 5257POPC   C3A67409   0.382  42.400   6.860
 5257POPC   C4A67410   0.283  42.321   7.288
 5257POPC   C1B67411   0.359  42.336   6.164
 5257POPC   C2B67412   0.158  42.093   6.499
 5257POPC   C3B67413   0.301  41.914   6.898
 5257POPC   C4B67414   0.125  41.843   7.297
 5258POPC   NC367415  11.991  25.654   5.394
 5258POPC   PO467416  12.291  25.121   5.143
 5258POPC   GL167417  12.136  25.160   5.630
 5258POPC   GL267418  12.370  24.999   5.834
 5258POPC   C1A67419  11.934  25.096   6.089
 5258POPC   D2A67420  11.712  25.285   6.475
 5258POPC   C3A67421  11.913  25.288   6.883
 5258POPC   C4A67422  11.972  25.537   7.229
 5258POPC   C1B67423  12.440  25.247   6.222
 5258POPC   C2B67424  12.399  25.423   6.656
 5258POPC   C3B67425  12.409  25.232   7.053
 5258POPC   C4B67426  12.225  25.122   7.404
 5259POPC   NC367427  36.831  16.596   5.415
 5259POPC   PO467428  36.233  16.605   5.570
 5259POPC   GL167429  36.573  16.697   5.841
 5259POPC   GL267430  36.868  16.962   5.798
 5259POPC   C1A67431  36.544  16.835   6.206
 5259POPC   D2A67432  36.457  16.645   6.538
 5259POPC   C3A67433  36.802  16.627   6.752
 5259POPC   C4A67434  36.625  16.830   7.045
 5259POPC   C1B67435  37.234  16.950   6.106
 5259POPC   C2B67436  37.292  16.826   6.546
 5259POPC   C3B67437  37.156  16.957   6.939
 5259POPC   C4B67438  37.054  16.733   7.267
 5260POPC   NC367439  42.918   1.865   5.366
 5260POPC   PO467440  43.407   2.402   5.282
 5260POPC   GL167441  43.307   2.145   5.673
 5260POPC   GL267442  43.005   2.054   5.833
 5260POPC   C1A67443  43.356   2.306   6.108
 5260POPC   D2A67444  43.135   2.212   6.491
 5260POPC   C3A67445  43.222   2.257   6.901
 5260POPC   C4A67446  43.053   1.929   7.091
 5260POPC   C1B67447  43.210   1.812   6.180
 5260POPC   C2B67448  43.306   1.759   6.639
 5260POPC   C3B67449  43.386   1.544   7.026
 5260POPC   C4B67450  43.512   1.675   7.443
 5261POPC   NC367451  20.784  24.282   5.467
 5261POPC   PO467452  20.201  24.425   5.748
 5261POPC   GL167453  20.573  24.362   5.943
 5261POPC   GL267454  20.797  24.643   5.822
 5261POPC   C1A67455  20.420  24.307   6.375
 5261POPC   D2A67456  20.261  24.222   6.769
 5261POPC   C3A67457  20.410  24.501   7.010
 5261POPC   C4A67458  20.675  24.354   7.191
 5261POPC   C1B67459  20.685  24.744   6.247
 5261POPC   C2B67460  20.793  24.556   6.656
 5261POPC   C3B67461  20.915  24.762   7.014
 5261POPC   C4B67462  20.742  24.789   7.425
 5262POPC   NC367463   2.394  25.945   5.202
 5262POPC   PO467464   2.905  26.323   5.325
 5262POPC   GL167465   2.974  26.058   5.685
 5262POPC   GL267466   3.161  26.251   5.924
 5262POPC   C1A67467   2.773  25.945   6.090
 5262POPC   D2A67468   2.703  25.799   6.529
 5262POPC   C3A67469   2.909  26.042   6.835
 5262POPC   C4A67470   2.815  26.034   7.247
 5262POPC   C1B67471   3.220  26.161   6.367
 5262POPC   C2B67472   3.126  26.484   6.690
 5262POPC   C3B67473   3.091  26.458   7.159
 5262POPC   C4B67474   3.276  26.277   7.531
 5263POPC   NC367475   0.743  19.176   5.669
 5263POPC   PO467476   1.245  19.041   5.253
 5263POPC   GL167477   1.264  19.145   5.714
 5263POPC   GL267478   1.134  19.485   5.788
 5263POPC   C1A67479   1.490  19.193   6.134
 5263POPC   D2A67480   1.534  19.397   6.570
 5263POPC   C3A67481   1.489  19.116   6.960
 5263POPC   C4A67482   1.225  18.872   7.258
 5263POPC   C1B67483   1.018  19.374   6.228
 5263POPC   C2B67484   0.797  19.180   6.578
 5263POPC   C3B67485   0.768  19.043   6.995
 5263POPC   C4B67486   0.905  19.251   7.348
 5264POPC   NC367487  10.656  26.965   5.379
 5264POPC   PO467488  11.111  27.225   5.724
 5264POPC   GL167489  10.887  26.934   5.949
 5264POPC   GL267490  10.535  26.873   5.894
 5264POPC   C1A67491  10.822  26.969   6.367
 5264POPC   D2A67492  10.786  26.765   6.730
 5264POPC   C3A67493  10.418  26.589   6.846
 5264POPC   C4A67494  10.426  26.644   7.258
 5264POPC   C1B67495  10.396  27.186   6.209
 5264POPC   C2B67496  10.465  27.212   6.680
 5264POPC   C3B67497  10.636  27.096   7.092
 5264POPC   C4B67498  10.440  27.161   7.492
 5265POPC   NC367499  20.050  22.633   5.419
 5265POPC   PO467500  19.813  23.248   5.381
 5265POPC   GL167501  19.952  23.015   5.761
 5265POPC   GL267502  20.304  22.841   5.804
 5265POPC   C1A67503  19.776  22.991   6.172
 5265POPC   D2A67504  19.564  23.064   6.559
 5265POPC   C3A67505  19.518  22.851   6.945
 5265POPC   C4A67506  19.761  23.020   7.266
 5265POPC   C1B67507  20.203  22.722   6.216
 5265POPC   C2B67508  19.986  22.773   6.598
 5265POPC   C3B67509  19.971  22.623   6.986
 5265POPC   C4B67510  20.192  22.702   7.337
 5266POPC   NC367511   6.616  37.178   5.364
 5266POPC   PO467512   6.890  36.698   5.600
 5266POPC   GL167513   6.528  36.920   5.797
 5266POPC   GL267514   6.233  36.716   5.883
 5266POPC   C1A67515   6.482  37.182   6.160
 5266POPC   D2A67516   6.739  37.076   6.517
 5266POPC   C3A67517   6.659  37.067   6.948
 5266POPC   C4A67518   6.704  36.721   7.235
 5266POPC   C1B67519   6.491  36.665   6.277
 5266POPC   C2B67520   6.441  36.658   6.743
 5266POPC   C3B67521   6.213  36.837   7.124
 5266POPC   C4B67522   6.118  36.768   7.595
 5267POPC   NC367523  22.484  42.729   5.491
 5267POPC   PO467524  22.017  43.176   5.597
 5267POPC   GL167525  22.213  42.906   5.908
 5267POPC   GL267526  22.592  42.961   5.958
 5267POPC   C1A67527  22.251  42.946   6.351
 5267POPC   D2A67528  22.162  43.095   6.736
 5267POPC   C3A67529  22.301  42.833   7.016
 5267POPC   C4A67530  21.898  42.773   7.203
 5267POPC   C1B67531  22.469  43.389   6.169
 5267POPC   C2B67532  22.393  43.539   6.604
 5267POPC   C3B67533  22.175  43.561   6.991
 5267POPC   C4B67534  22.121  43.224   7.273
 5268POPC   NC367535   8.273  29.403   5.300
 5268POPC   PO467536   8.381  30.085   5.400
 5268POPC   GL167537   8.371  30.176   5.808
 5268POPC   GL267538   8.197  29.822   5.803
 5268POPC   C1A67539   8.250  30.115   6.208
 5268POPC   D2A67540   8.387  29.899   6.563
 5268POPC   C3A67541   8.237  30.042   6.958
 5268POPC   C4A67542   8.111  30.181   7.343
 5268POPC   C1B67543   8.158  29.610   6.188
 5268POPC   C2B67544   8.203  29.416   6.588
 5268POPC   C3B67545   8.324  29.550   6.974
 5268POPC   C4B67546   8.235  29.680   7.401
 5269POPC   NC367547  37.892  32.658   5.351
 5269POPC   PO467548  37.519  32.035   5.348
 5269POPC   GL167549  37.600  32.284   5.709
 5269POPC   GL267550  37.930  32.403   5.790
 5269POPC   C1A67551  37.562  32.361   6.153
 5269POPC   D2A67552  37.503  32.456   6.571
 5269POPC   C3A67553  37.709  32.245   6.918
 5269POPC   C4A67554  37.465  32.230   7.278
 5269POPC   C1B67555  37.996  32.630   6.166
 5269POPC   C2B67556  38.011  32.452   6.561
 5269POPC   C3B67557  38.074  32.663   6.973
 5269POPC   C4B67558  37.885  32.509   7.328
 5270POPC   NC367559  43.818  30.961   5.391
 5270POPC   PO467560  44.202  30.408   5.573
 5270POPC   GL167561  44.011  30.721   5.876
 5270POPC   GL267562  43.634  30.830   5.863
 5270POPC   C1A67563  43.843  30.774   6.322
 5270POPC   D2A67564  43.655  30.526   6.648
 5270POPC   C3A67565  43.901  30.646   7.000
 5270POPC   C4A67566  43.916  30.793   7.421
 5270POPC   C1B67567  43.419  31.033   6.262
 5270POPC   C2B67568  43.418  30.971   6.744
 5270POPC   C3B67569  43.452  30.815   7.192
 5270POPC   C4B67570  43.479  30.830   7.676
 5271POPC   NC367571  25.646  30.142   5.073
 5271POPC   PO467572  25.212  29.669   5.345
 5271POPC   GL167573  25.094  29.818   5.755
 5271POPC   GL267574  25.015  30.195   5.694
 5271POPC   C1A67575  25.355  29.735   6.118
 5271POPC   D2A67576  25.587  29.822   6.487
 5271POPC   C3A67577  25.358  29.983   6.833
 5271POPC   C4A67578  25.244  29.816   7.204
 5271POPC   C1B67579  25.176  30.281   6.118
 5271POPC   C2B67580  25.091  30.311   6.558
 5271POPC   C3B67581  24.892  30.318   6.977
 5271POPC   C4B67582  24.878  30.305   7.457
 5272POPC   NC367583  40.020  14.705   5.199
 5272POPC   PO467584  39.571  14.538   5.692
 5272POPC   GL167585  40.038  14.634   5.745
 5272POPC   GL267586  40.229  14.312   5.836
 5272POPC   C1A67587  40.270  14.766   6.111
 5272POPC   D2A67588  40.322  14.672   6.566
 5272POPC   C3A67589  40.048  14.364   6.799
 5272POPC   C4A67590  40.165  14.183   7.194
 5272POPC   C1B67591  39.991  14.333   6.237
 5272POPC   C2B67592  39.646  14.145   6.472
 5272POPC   C3B67593  39.490  14.216   6.869
 5272POPC   C4B67594  39.677  14.201   7.219
 5273POPC   NC367595  42.172   2.731   5.592
 5273POPC   PO467596  42.544   3.096   5.214
 5273POPC   GL167597  42.609   2.909   5.715
 5273POPC   GL267598  42.359   3.050   5.974
 5273POPC   C1A67599  42.408   2.609   6.158
 5273POPC   D2A67600  42.334   2.804   6.549
 5273POPC   C3A67601  42.310   2.663   6.980
 5273POPC   C4A67602  42.374   2.875   7.406
 5273POPC   C1B67603  42.757   2.981   6.180
 5273POPC   C2B67604  42.913   3.000   6.556
 5273POPC   C3B67605  42.658   3.022   6.915
 5273POPC   C4B67606  42.669   3.281   7.247
 5274POPC   NC367607  39.638  44.209   5.084
 5274POPC   PO467608  40.156  44.377   5.507
 5274POPC   GL167609  40.072  44.321   5.944
 5274POPC   GL267610  40.382  44.232   5.942
 5274POPC   C1A67611  39.890  44.482   6.359
 5274POPC   D2A67612  39.950  44.809   6.676
 5274POPC   C3A67613  39.842  44.727   7.105
 5274POPC   C4A67614  39.709  44.997   7.444
 5274POPC   C1B67615  40.412  44.431   6.342
 5274POPC   C2B67616  40.352  44.500   6.749
 5274POPC   C3B67617  40.342  44.595   7.158
 5274POPC   C4B67618  40.105  44.263   7.310
 5275POPC   NC367619   7.898   6.682   5.487
 5275POPC   PO467620   8.562   6.519   5.400
 5275POPC   GL167621   8.409   6.471   5.834
 5275POPC   GL267622   8.039   6.526   5.938
 5275POPC   C1A67623   8.437   6.720   6.214
 5275POPC   D2A67624   8.165   6.733   6.568
 5275POPC   C3A67625   8.336   6.474   6.872
 5275POPC   C4A67626   8.534   6.644   7.221
 5275POPC   C1B67627   7.728   6.610   6.269
 5275POPC   C2B67628   7.647   6.759   6.713
 5275POPC   C3B67629   7.917   6.694   7.082
 5275POPC   C4B67630   7.892   6.675   7.556
 5276POPC   NC367631  29.855  22.851   5.460
 5276POPC   PO467632  29.730  23.539   5.481
 5276POPC   GL167633  29.877  23.231   5.845
 5276POPC   GL267634  30.198  23.055   5.844
 5276POPC   C1A67635  29.978  23.083   6.291
 5276POPC   D2A67636  29.840  22.791   6.600
 5276POPC   C3A67637  29.797  23.036   6.946
 5276POPC   C4A67638  30.048  23.187   7.274
 5276POPC   C1B67639  30.229  22.658   6.117
 5276POPC   C2B67640  30.329  22.675   6.574
 5276POPC   C3B67641  30.207  22.738   7.012
 5276POPC   C4B67642  30.134  22.444   7.325
 5277POPC   NC367643   6.915  37.787   5.425
 5277POPC   PO467644   6.283  37.484   5.488
 5277POPC   GL167645   6.505  37.717   5.758
 5277POPC   GL267646   6.748  37.470   5.819
 5277POPC   C1A67647   6.516  37.827   6.199
 5277POPC   D2A67648   6.285  37.797   6.602
 5277POPC   C3A67649   6.553  37.768   6.953
 5277POPC   C4A67650   6.563  37.448   7.268
 5277POPC   C1B67651   6.943  37.496   6.263
 5277POPC   C2B67652   6.940  37.478   6.760
 5277POPC   C3B67653   7.036  37.643   7.180
 5277POPC   C4B67654   6.907  37.564   7.640
 5278POPC   NC367655  12.878  14.910   5.064
 5278POPC   PO467656  13.152  15.365   5.522
 5278POPC   GL167657  12.945  15.526   5.854
 5278POPC   GL267658  12.620  15.511   5.697
 5278POPC   C1A67659  13.046  15.381   6.258
 5278POPC   D2A67660  13.207  15.370   6.656
 5278POPC   C3A67661  13.001  15.133   6.952
 5278POPC   C4A67662  13.084  14.937   7.320
 5278POPC   C1B67663  12.526  15.350   6.150
 5278POPC   C2B67664  12.638  15.251   6.592
 5278POPC   C3B67665  12.519  14.993   6.966
 5278POPC   C4B67666  12.587  15.132   7.401
 5279POPC   NC367667  24.778  15.187   5.412
 5279POPC   PO467668  24.188  14.940   5.493
 5279POPC   GL167669  24.293  15.117   5.880
 5279POPC   GL267670  24.572  15.340   5.839
 5279POPC   C1A67671  24.246  15.441   6.222
 5279POPC   D2A67672  24.092  15.605   6.590
 5279POPC   C3A67673  24.256  15.445   6.983
 5279POPC   C4A67674  24.069  15.161   7.194
 5279POPC   C1B67675  24.673  15.179   6.233
 5279POPC   C2B67676  24.534  15.177   6.647
 5279POPC   C3B67677  24.594  15.063   7.092
 5279POPC   C4B67678  24.878  15.172   7.462
 5280POPC   NC367679   1.844  30.222   5.435
 5280POPC   PO467680   2.014  30.875   5.639
 5280POPC   GL167681   2.022  30.608   5.972
 5280POPC   GL267682   1.723  30.381   5.951
 5280POPC   C1A67683   2.101  30.519   6.373
 5280POPC   D2A67684   1.892  30.632   6.733
 5280POPC   C3A67685   2.001  30.373   7.076
 5280POPC   C4A67686   2.185  30.465   7.509
 5280POPC   C1B67687   1.550  30.753   6.136
 5280POPC   C2B67688   1.483  30.901   6.552
 5280POPC   C3B67689   1.541  30.862   7.015
 5280POPC   C4B67690   1.792  30.744   7.384
 5281POPC   NC367691  44.823  34.795   5.127
 5281POPC   PO467692  44.306  34.538   5.474
 5281POPC   GL167693  44.453  34.699   5.867
 5281POPC   GL267694  44.792  34.704   5.839
 5281POPC   C1A67695  44.451  34.615   6.329
 5281POPC   D2A67696  44.350  34.255   6.591
 5281POPC   C3A67697  44.320  34.231   7.074
 5281POPC   C4A67698  44.407  34.444   7.480
 5281POPC   C1B67699  44.822  34.935   6.224
 5281POPC   C2B67700  44.839  34.804   6.667
 5281POPC   C3B67701   0.070  34.730   7.065
 5281POPC   C4B67702   0.242  34.851   7.497
 5282POPC   NC367703  11.311   5.655   5.118
 5282POPC   PO467704  11.262   6.043   5.683
 5282POPC   GL167705  11.331   5.763   5.944
 5282POPC   GL267706  11.385   5.430   5.789
 5282POPC   C1A67707  11.433   5.989   6.313
 5282POPC   D2A67708  11.349   6.221   6.662
 5282POPC   C3A67709  11.059   6.012   6.903
 5282POPC   C4A67710  11.178   5.971   7.310
 5282POPC   C1B67711  11.115   5.389   6.189
 5282POPC   C2B67712  11.152   5.642   6.568
 5282POPC   C3B67713  11.250   5.545   7.010
 5282POPC   C4B67714  11.036   5.376   7.388
 5283POPC   NC367715  35.833  12.073   4.958
 5283POPC   PO467716  36.265  11.903   5.480
 5283POPC   GL167717  36.237  11.948   5.884
 5283POPC   GL267718  35.874  11.944   5.937
 5283POPC   C1A67719  36.209  12.167   6.270
 5283POPC   D2A67720  35.925  12.336   6.583
 5283POPC   C3A67721  36.163  12.570   6.909
 5283POPC   C4A67722  36.354  12.621   7.343
 5283POPC   C1B67723  35.792  11.880   6.370
 5283POPC   C2B67724  36.057  11.833   6.700
 5283POPC   C3B67725  36.130  12.053   7.065
 5283POPC   C4B67726  36.536  12.213   7.127
 5284POPC   NC367727  21.286  38.737   5.444
 5284POPC   PO467728  21.147  38.068   5.312
 5284POPC   GL167729  21.127  38.329   5.708
 5284POPC   GL267730  21.489  38.328   5.719
 5284POPC   C1A67731  21.282  38.624   6.100
 5284POPC   D2A67732  21.516  38.704   6.525
 5284POPC   C3A67733  21.346  38.654   6.994
 5284POPC   C4A67734  21.450  38.481   7.441
 5284POPC   C1B67735  21.461  38.148   6.164
 5284POPC   C2B67736  21.371  38.227   6.627
 5284POPC   C3B67737  21.449  38.124   7.070
 5284POPC   C4B67738  21.323  37.992   7.509
 5285POPC   NC367739  22.925  41.555   5.338
 5285POPC   PO467740  22.544  41.120   5.687
 5285POPC   GL167741  22.758  41.458   5.828
 5285POPC   GL267742  22.695  41.812   5.712
 5285POPC   C1A67743  22.871  41.444   6.242
 5285POPC   D2A67744  23.052  41.271   6.587
 5285POPC   C3A67745  22.880  41.387   6.930
 5285POPC   C4A67746  22.997  41.480   7.317
 5285POPC   C1B67747  22.731  41.913   6.159
 5285POPC   C2B67748  22.912  41.814   6.589
 5285POPC   C3B67749  22.720  41.872   6.987
 5285POPC   C4B67750  22.487  42.066   7.304
 5286POPC   NC367751  24.326   8.482   5.351
 5286POPC   PO467752  24.855   7.953   5.488
 5286POPC   GL167753  24.659   8.175   5.793
 5286POPC   GL267754  24.329   8.046   5.795
 5286POPC   C1A67755  24.750   8.365   6.197
 5286POPC   D2A67756  24.583   8.461   6.585
 5286POPC   C3A67757  24.750   8.331   6.988
 5286POPC   C4A67758  24.544   8.391   7.365
 5286POPC   C1B67759  24.254   8.213   6.190
 5286POPC   C2B67760  24.230   8.110   6.604
 5286POPC   C3B67761  24.236   8.269   6.991
 5286POPC   C4B67762  24.235   7.991   7.401
 5287POPC   NC367763   9.795  36.467   5.323
 5287POPC   PO467764   9.313  36.045   5.531
 5287POPC   GL167765   9.744  36.108   5.753
 5287POPC   GL267766   9.883  36.444   5.826
 5287POPC   C1A67767   9.987  36.043   6.165
 5287POPC   D2A67768   9.990  35.990   6.626
 5287POPC   C3A67769   9.657  36.080   6.876
 5287POPC   C4A67770   9.633  35.915   7.286
 5287POPC   C1B67771  10.028  36.598   6.215
 5287POPC   C2B67772   9.875  36.500   6.603
 5287POPC   C3B67773  10.074  36.498   6.963
 5287POPC   C4B67774   9.919  36.325   7.288
 5288POPC   NC367775  22.432  20.103   5.478
 5288POPC   PO467776  21.756  20.035   5.348
 5288POPC   GL167777  21.977  19.885   5.716
 5288POPC   GL267778  22.000  19.498   5.733
 5288POPC   C1A67779  22.192  19.828   6.103
 5288POPC   D2A67780  22.026  19.781   6.499
 5288POPC   C3A67781  22.279  19.855   6.850
 5288POPC   C4A67782  22.044  19.990   7.197
 5288POPC   C1B67783  21.837  19.390   6.167
 5288POPC   C2B67784  21.838  19.336   6.640
 5288POPC   C3B67785  22.003  19.484   7.085
 5288POPC   C4B67786  22.388  19.597   7.297
 5289POPC   NC367787   9.558   7.589   5.420
 5289POPC   PO467788  10.252   7.615   5.513
 5289POPC   GL167789   9.896   7.414   5.798
 5289POPC   GL267790   9.512   7.324   5.845
 5289POPC   C1A67791   9.914   7.262   6.223
 5289POPC   D2A67792   9.657   7.255   6.602
 5289POPC   C3A67793   9.890   7.288   6.995
 5289POPC   C4A67794   9.725   7.288   7.399
 5289POPC   C1B67795   9.566   7.649   6.126
 5289POPC   C2B67796   9.410   7.706   6.518
 5289POPC   C3B67797   9.625   7.720   6.889
 5289POPC   C4B67798   9.726   7.961   7.229
 5290POPC   NC367799  15.428   6.271   5.311
 5290POPC   PO467800  14.906   6.634   5.387
 5290POPC   GL167801  15.138   6.507   5.769
 5290POPC   GL267802  15.488   6.631   5.788
 5290POPC   C1A67803  15.218   6.584   6.226
 5290POPC   D2A67804  15.059   6.470   6.644
 5290POPC   C3A67805  15.109   6.815   6.951
 5290POPC   C4A67806  14.821   6.949   7.270
 5290POPC   C1B67807  15.663   6.349   6.115
 5290POPC   C2B67808  15.538   6.329   6.561
 5290POPC   C3B67809  15.439   6.392   6.996
 5290POPC   C4B67810  15.297   6.572   7.365
 5291POPC   NC367811  31.459  13.055   5.310
 5291POPC   PO467812  30.715  13.076   5.363
 5291POPC   GL167813  30.783  12.935   5.763
 5291POPC   GL267814  31.094  13.085   5.725
 5291POPC   C1A67815  30.637  12.734   6.173
 5291POPC   D2A67816  30.810  12.738   6.605
 5291POPC   C3A67817  30.584  12.762   7.004
 5291POPC   C4A67818  30.686  12.548   7.380
 5291POPC   C1B67819  31.096  12.987   6.174
 5291POPC   C2B67820  31.018  13.200   6.557
 5291POPC   C3B67821  31.041  13.040   6.989
 5291POPC   C4B67822  31.045  13.265   7.356
 5292POPC   NC367823  10.283   1.398   5.485
 5292POPC   PO467824  10.823   1.131   5.311
 5292POPC   GL167825  10.631   1.084   5.769
 5292POPC   GL267826  10.258   1.120   5.912
 5292POPC   C1A67827  10.640   1.031   6.249
 5292POPC   D2A67828  10.312   1.139   6.576
 5292POPC   C3A67829  10.321   1.034   7.026
 5292POPC   C4A67830  10.549   1.212   7.361
 5292POPC   C1B67831  10.472   1.496   6.127
 5292POPC   C2B67832  10.697   1.475   6.518
 5292POPC   C3B67833  10.817   1.259   6.889
 5292POPC   C4B67834  10.935   1.544   7.215
 5293POPC   NC367835  18.268  33.104   4.944
 5293POPC   PO467836  17.991  33.548   5.386
 5293POPC   GL167837  18.192  33.305   5.818
 5293POPC   GL267838  18.117  32.889   5.831
 5293POPC   C1A67839  18.072  33.138   6.261
 5293POPC   D2A67840  17.906  32.945   6.646
 5293POPC   C3A67841  18.163  33.125   6.975
 5293POPC   C4A67842  18.485  33.303   7.253
 5293POPC   C1B67843  18.203  32.634   6.252
 5293POPC   C2B67844  18.302  32.577   6.725
 5293POPC   C3B67845  18.539  32.772   7.095
 5293POPC   C4B67846  18.646  32.918   7.550
 5294POPC   NC367847  23.968  28.956   5.325
 5294POPC   PO467848  23.249  28.964   5.270
 5294POPC   GL167849  23.585  29.110   5.672
 5294POPC   GL267850  23.982  29.130   5.793
 5294POPC   C1A67851  23.633  29.244   6.146
 5294POPC   D2A67852  23.633  29.385   6.589
 5294POPC   C3A67853  23.370  29.128   6.820
 5294POPC   C4A67854  23.383  29.079   7.230
 5294POPC   C1B67855  23.904  28.831   6.109
 5294POPC   C2B67856  23.761  28.872   6.538
 5294POPC   C3B67857  23.909  29.082   6.914
 5294POPC   C4B67858  23.890  29.075   7.352
 5295POPC   NC367859  41.507  40.814   5.348
 5295POPC   PO467860  42.078  40.508   5.166
 5295POPC   GL167861  41.865  40.689   5.673
 5295POPC   GL267862  41.512  40.782   5.839
 5295POPC   C1A67863  41.865  40.672   6.173
 5295POPC   D2A67864  41.687  40.625   6.604
 5295POPC   C3A67865  41.865  40.840   6.966
 5295POPC   C4A67866  41.663  40.937   7.318
 5295POPC   C1B67867  41.286  40.554   6.157
 5295POPC   C2B67868  41.133  40.662   6.569
 5295POPC   C3B67869  41.322  40.871   6.915
 5295POPC   C4B67870  41.307  40.564   7.244
 5296POPC   NC367871  44.190  44.744   5.333
 5296POPC   PO467872  43.476  44.905   5.483
 5296POPC   GL167873  43.746  44.621   5.739
 5296POPC   GL267874  44.075  44.709   5.816
 5296POPC   C1A67875  43.901  44.369   6.114
 5296POPC   D2A67876  44.070  44.532   6.507
 5296POPC   C3A67877  43.837  44.588   6.895
 5296POPC   C4A67878  43.903  44.621   7.354
 5296POPC   C1B67879  43.874  44.894   6.182
 5296POPC   C2B67880  43.944   0.058   6.621
 5296POPC   C3B67881  44.016   0.066   7.060
 5296POPC   C4B67882  44.407   0.104   7.297
 5297POPC   NC367883  27.487  33.471   5.435
 5297POPC   PO467884  27.460  34.114   5.241
 5297POPC   GL167885  27.670  33.886   5.657
 5297POPC   GL267886  27.914  34.110   5.822
 5297POPC   C1A67887  27.577  33.736   6.081
 5297POPC   D2A67888  27.405  33.905   6.481
 5297POPC   C3A67889  27.543  33.737   6.873
 5297POPC   C4A67890  27.518  33.709   7.305
 5297POPC   C1B67891  27.931  34.045   6.284
 5297POPC   C2B67892  27.802  34.143   6.706
 5297POPC   C3B67893  27.875  34.078   7.168
 5297POPC   C4B67894  27.896  33.855   7.590
 5298POPC   NC367895  30.894  43.592   5.386
 5298POPC   PO467896  30.282  43.686   5.567
 5298POPC   GL167897  30.714  43.851   5.788
 5298POPC   GL267898  30.792  44.197   5.780
 5298POPC   C1A67899  30.967  43.919   6.189
 5298POPC   D2A67900  30.850  43.721   6.597
 5298POPC   C3A67901  30.825  43.950   7.008
 5298POPC   C4A67902  30.538  43.807   7.320
 5298POPC   C1B67903  30.483  44.148   6.158
 5298POPC   C2B67904  30.352  43.928   6.563
 5298POPC   C3B67905  30.233  44.044   6.983
 5298POPC   C4B67906  30.368  44.292   7.324
 5299POPC   NC367907  35.248  37.392   5.334
 5299POPC   PO467908  35.612  38.004   5.361
 5299POPC   GL167909  35.700  37.592   5.609
 5299POPC   GL267910  35.402  37.609   5.751
 5299POPC   C1A67911  35.676  37.321   6.048
 5299POPC   D2A67912  35.453  37.274   6.470
 5299POPC   C3A67913  35.680  37.504   6.807
 5299POPC   C4A67914  35.523  37.406   7.216
 5299POPC   C1B67915  35.214  37.626   6.131
 5299POPC   C2B67916  35.350  37.781   6.499
 5299POPC   C3B67917  35.221  37.707   6.903
 5299POPC   C4B67918  35.428  37.936   7.198
 5300POPC   NC367919  33.268  12.462   5.421
 5300POPC   PO467920  32.787  12.936   5.365
 5300POPC   GL167921  32.807  13.044   5.773
 5300POPC   GL267922  33.134  12.864   5.790
 5300POPC   C1A67923  32.891  13.075   6.217
 5300POPC   D2A67924  32.942  12.806   6.580
 5300POPC   C3A67925  32.837  12.907   7.006
 5300POPC   C4A67926  32.805  12.627   7.348
 5300POPC   C1B67927  33.323  12.771   6.180
 5300POPC   C2B67928  33.450  12.996   6.539
 5300POPC   C3B67929  33.355  12.897   6.912
 5300POPC   C4B67930  33.276  12.737   7.288
 5301POPC   NC367931  23.815  18.856   5.379
 5301POPC   PO467932  23.916  19.444   5.491
 5301POPC   GL167933  23.731  19.152   5.788
 5301POPC   GL267934  23.506  19.372   5.961
 5301POPC   C1A67935  23.633  18.864   6.139
 5301POPC   D2A67936  23.901  18.738   6.492
 5301POPC   C3A67937  23.747  18.903   6.874
 5301POPC   C4A67938  23.325  18.900   7.052
 5301POPC   C1B67939  23.870  19.330   6.243
 5301POPC   C2B67940  24.065  19.328   6.635
 5301POPC   C3B67941  23.926  19.357   7.040
 5301POPC   C4B67942  23.465  19.370   7.114
 5302POPC   NC367943  36.686  15.610   5.336
 5302POPC   PO467944  37.132  16.123   5.438
 5302POPC   GL167945  36.868  16.186   5.779
 5302POPC   GL267946  37.039  16.468   5.864
 5302POPC   C1A67947  36.948  16.014   6.190
 5302POPC   D2A67948  37.210  15.796   6.481
 5302POPC   C3A67949  36.992  15.826   6.847
 5302POPC   C4A67950  36.952  15.806   7.263
 5302POPC   C1B67951  36.967  16.531   6.265
 5302POPC   C2B67952  37.222  16.317   6.557
 5302POPC   C3B67953  37.128  16.300   6.966
 5302POPC   C4B67954  36.784  16.310   7.235
 5303POPC   NC367955   1.653  18.784   5.380
 5303POPC   PO467956   2.218  19.252   5.342
 5303POPC   GL167957   2.204  19.165   5.759
 5303POPC   GL267958   2.005  18.868   5.753
 5303POPC   C1A67959   2.003  19.303   6.136
 5303POPC   D2A67960   2.049  19.500   6.524
 5303POPC   C3A67961   1.963  19.318   6.901
 5303POPC   C4A67962   2.198  19.387   7.261
 5303POPC   C1B67963   2.179  18.821   6.159
 5303POPC   C2B67964   2.037  18.933   6.543
 5303POPC   C3B67965   2.023  18.829   6.958
 5303POPC   C4B67966   2.067  18.865   7.382
 5304POPC   NC367967   8.787  27.497   5.146
 5304POPC   PO467968   8.785  27.213   5.735
 5304POPC   GL167969   9.088  27.478   5.922
 5304POPC   GL267970   9.125  27.848   5.823
 5304POPC   C1A67971   9.015  27.445   6.359
 5304POPC   D2A67972   9.190  27.264   6.719
 5304POPC   C3A67973   9.018  27.386   7.097
 5304POPC   C4A67974   9.025  27.800   7.277
 5304POPC   C1B67975   9.058  27.930   6.252
 5304POPC   C2B67976   9.026  27.801   6.728
 5304POPC   C3B67977   8.652  27.727   6.939
 5304POPC   C4B67978   8.592  27.561   7.363
 5305POPC   NC367979  33.351  15.418   5.443
 5305POPC   PO467980  33.119  14.859   5.777
 5305POPC   GL167981  33.189  15.300   5.927
 5305POPC   GL267982  32.927  15.563   5.924
 5305POPC   C1A67983  33.288  15.433   6.341
 5305POPC   D2A67984  33.150  15.285   6.772
 5305POPC   C3A67985  33.379  14.930   6.966
 5305POPC   C4A67986  33.614  14.754   7.338
 5305POPC   C1B67987  32.797  15.420   6.335
 5305POPC   C2B67988  32.617  15.465   6.741
 5305POPC   C3B67989  32.822  15.499   7.099
 5305POPC   C4B67990  32.787  15.057   7.205
 5306POPC   NC367991  29.244   7.317   5.463
 5306POPC   PO467992  29.119   7.985   5.378
 5306POPC   GL167993  29.133   7.736   5.787
 5306POPC   GL267994  29.453   7.520   5.874
 5306POPC   C1A67995  28.982   7.755   6.220
 5306POPC   D2A67996  29.223   7.808   6.627
 5306POPC   C3A67997  29.092   7.557   7.002
 5306POPC   C4A67998  28.744   7.296   7.218
 5306POPC   C1B67999  29.347   7.437   6.282
 5306POPC   C2B68000  29.008   7.291   6.572
 5306POPC   C3B68001  29.073   7.047   6.948
 5306POPC   C4B68002  29.411   7.146   7.133
 5307POPC   NC368003  19.054  10.855   5.426
 5307POPC   PO468004  18.747  10.223   5.450
 5307POPC   GL168005  18.883  10.279   5.861
 5307POPC   GL268006  18.894  10.615   5.840
 5307POPC   C1A68007  18.952  10.222   6.303
 5307POPC   D2A68008  18.898  10.198   6.737
 5307POPC   C3A68009  19.264  10.355   6.986
 5307POPC   C4A68010  19.299  10.798   7.110
 5307POPC   C1B68011  18.803  10.697   6.243
 5307POPC   C2B68012  19.027  10.675   6.621
 5307POPC   C3B68013  18.824  10.634   7.010
 5307POPC   C4B68014  18.568  10.288   7.118
 5308POPC   NC368015  41.599  20.968   5.349
 5308POPC   PO468016  41.875  20.372   5.244
 5308POPC   GL168017  41.789  20.480   5.733
 5308POPC   GL268018  41.725  20.838   5.828
 5308POPC   C1A68019  41.585  20.400   6.151
 5308POPC   D2A68020  41.745  20.358   6.584
 5308POPC   C3A68021  41.585  20.478   6.986
 5308POPC   C4A68022  41.250  20.660   7.174
 5308POPC   C1B68023  41.820  20.843   6.274
 5308POPC   C2B68024  41.610  20.908   6.665
 5308POPC   C3B68025  41.691  20.978   7.091
 5308POPC   C4B68026  41.687  21.039   7.562
 5309POPC   NC368027   2.406  20.444   5.361
 5309POPC   PO468028   1.769  20.666   5.378
 5309POPC   GL168029   1.803  20.714   5.805
 5309POPC   GL268030   2.150  20.691   5.738
 5309POPC   C1A68031   1.691  20.619   6.253
 5309POPC   D2A68032   1.675  20.614   6.711
 5309POPC   C3A68033   1.975  20.800   6.976
 5309POPC   C4A68034   1.781  20.729   7.349
 5309POPC   C1B68035   2.151  20.399   6.074
 5309POPC   C2B68036   2.160  20.496   6.507
 5309POPC   C3B68037   2.205  20.354   6.912
 5309POPC   C4B68038   2.295  20.547   7.300
 5310POPC   NC368039  31.454  22.161   5.290
 5310POPC   PO468040  31.288  22.711   5.437
 5310POPC   GL168041  31.484  22.381   5.759
 5310POPC   GL268042  31.459  21.978   5.746
 5310POPC   C1A68043  31.447  22.407   6.224
 5310POPC   D2A68044  31.333  22.613   6.629
 5310POPC   C3A68045  31.232  22.357   6.959
 5310POPC   C4A68046  31.528  22.271   7.273
 5310POPC   C1B68047  31.510  21.902   6.166
 5310POPC   C2B68048  31.461  22.056   6.601
 5310POPC   C3B68049  31.522  21.864   6.988
 5310POPC   C4B68050  31.807  21.590   7.164
 5311POPC   NC368051  44.688  34.280   5.560
 5311POPC   PO468052  44.880  33.657   5.360
 5311POPC   GL168053  44.658  33.826   5.823
 5311POPC   GL268054  44.515  34.179   6.010
 5311POPC   C1A68055  44.718  33.839   6.320
 5311POPC   D2A68056  44.486  33.780   6.742
 5311POPC   C3A68057  44.615  33.808   7.212
 5311POPC   C4A68058  44.383  33.944   7.608
 5311POPC   C1B68059  44.876  34.333   6.277
 5311POPC   C2B68060  44.854  34.275   6.745
 5311POPC   C3B68061  44.841  34.278   7.202
 5311POPC   C4B68062  44.834  34.190   7.657
 5312POPC   NC368063  37.080  22.860   5.340
 5312POPC   PO468064  36.440  22.815   5.528
 5312POPC   GL168065  36.718  22.870   5.884
 5312POPC   GL268066  37.075  22.840   5.834
 5312POPC   C1A68067  36.674  22.809   6.344
 5312POPC   D2A68068  36.366  22.752   6.700
 5312POPC   C3A68069  36.530  22.906   7.090
 5312POPC   C4A68070  36.806  22.802   7.416
 5312POPC   C1B68071  37.200  22.959   6.227
 5312POPC   C2B68072  37.227  22.726   6.594
 5312POPC   C3B68073  37.148  22.809   7.016
 5312POPC   C4B68074  37.106  23.153   7.264
 5313POPC   NC368075  18.344  32.008   5.393
 5313POPC   PO468076  17.962  32.549   5.407
 5313POPC   GL168077  18.133  32.336   5.813
 5313POPC   GL268078  17.988  31.999   5.825
 5313POPC   C1A68079  18.500  32.198   6.145
 5313POPC   D2A68080  18.784  32.166   6.539
 5313POPC   C3A68081  18.690  32.280   6.976
 5313POPC   C4A68082  18.715  32.410   7.435
 5313POPC   C1B68083  18.031  32.112   6.275
 5313POPC   C2B68084  18.271  32.011   6.630
 5313POPC   C3B68085  18.223  32.110   7.060
 5313POPC   C4B68086  18.221  32.294   7.464
 5314POPC   NC368087   3.432   6.582   5.335
 5314POPC   PO468088   3.922   6.168   5.619
 5314POPC   GL168089   3.623   6.530   5.853
 5314POPC   GL268090   3.378   6.831   5.798
 5314POPC   C1A68091   3.675   6.842   6.234
 5314POPC   D2A68092   3.501   6.648   6.618
 5314POPC   C3A68093   3.669   6.634   7.031
 5314POPC   C4A68094   3.553   6.791   7.439
 5314POPC   C1B68095   3.171   6.782   6.229
 5314POPC   C2B68096   3.084   6.963   6.691
 5314POPC   C3B68097   3.124   6.879   7.160
 5314POPC   C4B68098   3.083   6.839   7.648
 5315POPC   NC368099  41.108  15.571   5.668
 5315POPC   PO468100  40.439  15.682   5.510
 5315POPC   GL168101  40.641  15.906   5.909
 5315POPC   GL268102  40.777  16.256   5.899
 5315POPC   C1A68103  40.529  16.104   6.301
 5315POPC   D2A68104  40.288  16.077   6.646
 5315POPC   C3A68105  40.512  15.812   6.904
 5315POPC   C4A68106  40.484  15.934   7.316
 5315POPC   C1B68107  41.054  16.151   6.240
 5315POPC   C2B68108  40.910  16.124   6.663
 5315POPC   C3B68109  40.926  16.032   7.089
 5315POPC   C4B68110  40.874  16.184   7.515
 5316POPC   NC368111  17.567  33.739   5.269
 5316POPC   PO468112  17.315  33.319   5.727
 5316POPC   GL168113  17.341  33.720   5.792
 5316POPC   GL268114  17.682  33.734   5.785
 5316POPC   C1A68115  17.411  33.846   6.221
 5316POPC   D2A68116  17.600  33.854   6.616
 5316POPC   C3A68117  17.366  33.866   6.997
 5316POPC   C4A68118  17.257  34.148   7.317
 5316POPC   C1B68119  17.874  33.603   6.189
 5316POPC   C2B68120  18.005  33.504   6.630
 5316POPC   C3B68121  17.760  33.535   6.992
 5316POPC   C4B68122  17.744  33.825   7.361
 5317POPC   NC368123  44.869  15.778   5.442
 5317POPC   PO468124  44.260  16.012   5.552
 5317POPC   GL168125  44.512  15.759   5.826
 5317POPC   GL268126  44.220  15.551   5.864
 5317POPC   C1A68127  44.770  15.792   6.229
 5317POPC   D2A68128  44.685  15.989   6.648
 5317POPC   C3A68129  44.754  15.824   7.072
 5317POPC   C4A68130  44.785  16.104   7.470
 5317POPC   C1B68131  44.254  15.756   6.292
 5317POPC   C2B68132  44.229  15.733   6.746
 5317POPC   C3B68133  44.241  15.797   7.174
 5317POPC   C4B68134  44.509  15.671   7.515
 5318POPC   NC368135   9.979  19.373   5.543
 5318POPC   PO468136   9.783  19.911   5.396
 5318POPC   GL168137   9.859  20.052   5.836
 5318POPC   GL268138  10.033  20.397   5.881
 5318POPC   C1A68139   9.754  19.884   6.252
 5318POPC   D2A68140   9.487  20.032   6.618
 5318POPC   C3A68141   9.590  19.829   6.997
 5318POPC   C4A68142  10.022  19.826   7.144
 5318POPC   C1B68143  10.132  20.247   6.254
 5318POPC   C2B68144  10.078  20.024   6.619
 5318POPC   C3B68145  10.318  20.166   6.904
 5318POPC   C4B68146  10.343  20.224   7.306
 5319POPC   NC368147  31.696   0.206   5.261
 5319POPC   PO468148  31.453   0.820   5.282
 5319POPC   GL168149  31.558   0.565   5.674
 5319POPC   GL268150  31.761   0.800   5.824
 5319POPC   C1A68151  31.689   0.322   6.076
 5319POPC   D2A68152  31.811   0.356   6.545
 5319POPC   C3A68153  31.561   0.230   6.937
 5319POPC   C4A68154  31.715   0.250   7.372
 5319POPC   C1B68155  31.643   0.788   6.280
 5319POPC   C2B68156  31.423   0.655   6.670
 5319POPC   C3B68157  31.484   0.702   7.118
 5319POPC   C4B68158  31.300   0.972   7.433
 5320POPC   NC368159  35.725  40.760   5.293
 5320POPC   PO468160  36.407  40.990   5.358
 5320POPC   GL168161  36.053  40.822   5.717
 5320POPC   GL268162  35.756  41.041   5.776
 5320POPC   C1A68163  35.883  40.698   6.175
 5320POPC   D2A68164  35.779  40.410   6.519
 5320POPC   C3A68165  35.839  40.626   6.911
 5320POPC   C4A68166  36.250  40.718   7.012
 5320POPC   C1B68167  35.990  41.202   6.156
 5320POPC   C2B68168  36.067  41.022   6.585
 5320POPC   C3B68169  36.021  41.195   7.010
 5320POPC   C4B68170  36.233  41.064   7.393
 5321POPC   NC368171  12.307   5.147   5.362
 5321POPC   PO468172  11.671   5.412   5.354
 5321POPC   GL168173  11.883   5.080   5.710
 5321POPC   GL268174  12.218   4.837   5.788
 5321POPC   C1A68175  11.997   5.128   6.155
 5321POPC   D2A68176  11.995   5.323   6.561
 5321POPC   C3A68177  11.865   5.043   6.871
 5321POPC   C4A68178  12.001   4.981   7.260
 5321POPC   C1B68179  12.447   4.889   6.171
 5321POPC   C2B68180  12.272   4.908   6.566
 5321POPC   C3B68181  12.380   5.119   6.939
 5321POPC   C4B68182  12.663   4.977   7.222
 5322POPC   NC368183  39.650  42.389   5.136
 5322POPC   PO468184  40.138  42.517   5.607
 5322POPC   GL168185  39.979  42.225   5.862
 5322POPC   GL268186  39.664  42.161   5.764
 5322POPC   C1A68187  39.979  42.242   6.288
 5322POPC   D2A68188  39.957  42.342   6.709
 5322POPC   C3A68189  40.256  42.456   7.025
 5322POPC   C4A68190  40.157  42.432   7.482
 5322POPC   C1B68191  39.633  41.892   6.124
 5322POPC   C2B68192  39.591  41.941   6.583
 5322POPC   C3B68193  39.887  41.929   6.982
 5322POPC   C4B68194  39.892  41.954   7.450
 5323POPC   NC368195  10.727   6.226   5.390
 5323POPC   PO468196  10.170   6.622   5.474
 5323POPC   GL168197  10.470   6.495   5.801
 5323POPC   GL268198  10.441   6.844   5.872
 5323POPC   C1A68199  10.640   6.589   6.251
 5323POPC   D2A68200  10.630   6.954   6.576
 5323POPC   C3A68201  10.660   6.751   7.012
 5323POPC   C4A68202  10.636   6.283   7.086
 5323POPC   C1B68203  10.188   6.797   6.277
 5323POPC   C2B68204  10.291   6.548   6.678
 5323POPC   C3B68205  10.179   6.565   7.130
 5323POPC   C4B68206  10.314   6.446   7.537
 5324POPC   NC368207  23.785   3.944   5.377
 5324POPC   PO468208  23.393   3.391   5.270
 5324POPC   GL168209  23.648   3.439   5.687
 5324POPC   GL268210  23.809   3.742   5.835
 5324POPC   C1A68211  23.813   3.323   6.111
 5324POPC   D2A68212  23.818   3.275   6.553
 5324POPC   C3A68213  23.999   3.463   6.923
 5324POPC   C4A68214  23.740   3.233   7.229
 5324POPC   C1B68215  23.563   3.816   6.222
 5324POPC   C2B68216  23.667   3.845   6.663
 5324POPC   C3B68217  23.543   3.668   7.062
 5324POPC   C4B68218  23.844   3.694   7.415
 5325POPC   NC368219  10.019   5.712   5.379
 5325POPC   PO468220   9.524   5.560   5.803
 5325POPC   GL168221   9.741   5.967   5.784
 5325POPC   GL268222  10.008   6.234   5.815
 5325POPC   C1A68223   9.863   5.951   6.226
 5325POPC   D2A68224   9.676   5.882   6.641
 5325POPC   C3A68225   9.724   5.771   7.084
 5325POPC   C4A68226   9.378   5.547   7.241
 5325POPC   C1B68227  10.259   6.251   6.205
 5325POPC   C2B68228  10.203   6.021   6.593
 5325POPC   C3B68229  10.199   6.050   7.014
 5325POPC   C4B68230   9.976   6.112   7.379
 5326POPC   NC368231  21.592  25.942   5.255
 5326POPC   PO468232  21.334  26.597   5.467
 5326POPC   GL168233  21.350  26.258   5.759
 5326POPC   GL268234  21.661  26.121   5.891
 5326POPC   C1A68235  21.273  26.207   6.212
 5326POPC   D2A68236  21.186  26.354   6.614
 5326POPC   C3A68237  21.424  26.194   6.937
 5326POPC   C4A68238  21.331  26.048   7.347
 5326POPC   C1B68239  21.681  25.853   6.274
 5326POPC   C2B68240  21.388  25.793   6.617
 5326POPC   C3B68241  21.411  25.656   7.048
 5326POPC   C4B68242  21.756  25.767   7.341
 5327POPC   NC368243   6.952   5.601   5.088
 5327POPC   PO468244   6.695   6.021   5.590
 5327POPC   GL168245   6.461   5.948   5.960
 5327POPC   GL268246   6.556   5.626   6.041
 5327POPC   C1A68247   6.505   5.987   6.408
 5327POPC   D2A68248   6.867   6.158   6.628
 5327POPC   C3A68249   6.943   5.941   6.994
 5327POPC   C4A68250   6.604   5.859   7.250
 5327POPC   C1B68251   6.830   5.595   6.426
 5327POPC   C2B68252   6.712   5.421   6.836
 5327POPC   C3B68253   6.509   5.371   7.252
 5327POPC   C4B68254   6.636   5.491   7.674
 5328POPC   NC368255  29.562  20.237   5.103
 5328POPC   PO468256  29.066  20.655   5.436
 5328POPC   GL168257  28.910  20.557   5.896
 5328POPC   GL268258  29.209  20.461   6.023
 5328POPC   C1A68259  28.936  20.560   6.408
 5328POPC   D2A68260  29.279  20.731   6.623
 5328POPC   C3A68261  29.190  20.764   7.036
 5328POPC   C4A68262  28.783  20.649   7.180
 5328POPC   C1B68263  29.572  20.687   6.177
 5328POPC   C2B68264  29.786  20.683   6.546
 5328POPC   C3B68265  29.644  20.508   6.920
 5328POPC   C4B68266  29.479  20.421   7.307
 5329POPC   NC368267  18.256   6.493   5.416
 5329POPC   PO468268  18.239   7.150   5.284
 5329POPC   GL168269  18.278   7.045   5.732
 5329POPC   GL268270  18.405   6.711   5.876
 5329POPC   C1A68271  18.183   7.073   6.187
 5329POPC   D2A68272  18.206   6.763   6.522
 5329POPC   C3A68273  18.543   6.745   6.843
 5329POPC   C4A68274  18.387   6.856   7.247
 5329POPC   C1B68275  18.137   6.412   6.142
 5329POPC   C2B68276  18.007   6.297   6.597
 5329POPC   C3B68277  18.178   6.424   7.031
 5329POPC   C4B68278  18.262   6.406   7.499
 5330POPC   NC368279   3.786  27.845   5.606
 5330POPC   PO468280   3.314  28.267   5.248
 5330POPC   GL168281   3.315  28.379   5.740
 5330POPC   GL268282   3.636  28.252   5.889
 5330POPC   C1A68283   3.344  28.554   6.176
 5330POPC   D2A68284   3.216  28.446   6.600
 5330POPC   C3A68285   3.390  28.657   6.979
 5330POPC   C4A68286   3.522  28.623   7.431
 5330POPC   C1B68287   3.985  28.143   6.182
 5330POPC   C2B68288   3.948  27.989   6.584
 5330POPC   C3B68289   3.656  28.212   6.812
 5330POPC   C4B68290   3.469  28.180   7.184
 5331POPC   NC368291   8.565  11.486   5.286
 5331POPC   PO468292   8.137  10.981   5.353
 5331POPC   GL168293   8.390  10.983   5.736
 5331POPC   GL268294   8.179  11.245   5.820
 5331POPC   C1A68295   8.482  11.108   6.193
 5331POPC   D2A68296   8.210  11.256   6.553
 5331POPC   C3A68297   8.203  11.139   6.971
 5331POPC   C4A68298   7.984  11.254   7.331
 5331POPC   C1B68299   8.229  11.568   6.162
 5331POPC   C2B68300   8.433  11.737   6.579
 5331POPC   C3B68301   8.401  11.604   7.041
 5331POPC   C4B68302   8.299  11.618   7.485
 5332POPC   NC368303  21.042   9.498   5.438
 5332POPC   PO468304  21.264  10.056   5.190
 5332POPC   GL168305  21.346   9.861   5.660
 5332POPC   GL268306  21.651   9.649   5.785
 5332POPC   C1A68307  21.403   9.977   6.113
 5332POPC   D2A68308  21.627  10.084   6.506
 5332POPC   C3A68309  21.422  10.024   6.898
 5332POPC   C4A68310  21.566   9.941   7.325
 5332POPC   C1B68311  21.339   9.476   6.107
 5332POPC   C2B68312  21.362   9.359   6.550
 5332POPC   C3B68313  21.456   9.499   6.975
 5332POPC   C4B68314  21.401   9.445   7.421
 5333POPC   NC368315  42.308  44.569   5.230
 5333POPC   PO468316  42.547   0.113   5.519
 5333POPC   GL168317  42.293  44.917   5.843
 5333POPC   GL268318  42.431  44.558   5.911
 5333POPC   C1A68319  42.281  44.819   6.313
 5333POPC   D2A68320  42.611  44.771   6.611
 5333POPC   C3A68321  42.448  44.735   7.034
 5333POPC   C4A68322  42.025  44.767   7.175
 5333POPC   C1B68323  42.568  44.322   6.342
 5333POPC   C2B68324  42.642  44.278   6.835
 5333POPC   C3B68325  42.522  44.299   7.325
 5333POPC   C4B68326  42.588  44.343   7.809
 5334POPC   NC368327  13.817  27.793   5.503
 5334POPC   PO468328  13.204  27.516   5.527
 5334POPC   GL168329  13.547  27.527   5.854
 5334POPC   GL268330  13.872  27.331   5.744
 5334POPC   C1A68331  13.675  27.790   6.203
 5334POPC   D2A68332  13.705  27.915   6.626
 5334POPC   C3A68333  13.976  27.727   6.857
 5334POPC   C4A68334  13.798  27.701   7.212
 5334POPC   C1B68335  13.869  27.288   6.190
 5334POPC   C2B68336  13.701  27.384   6.579
 5334POPC   C3B68337  13.807  27.243   6.988
 5334POPC   C4B68338  13.977  27.262   7.399
 5335POPC   NC368339   6.889   5.575   5.633
 5335POPC   PO468340   7.230   5.961   5.124
 5335POPC   GL168341   7.374   5.889   5.606
 5335POPC   GL268342   7.533   5.549   5.714
 5335POPC   C1A68343   7.473   5.918   6.091
 5335POPC   D2A68344   7.270   5.845   6.512
 5335POPC   C3A68345   7.443   5.831   6.933
 5335POPC   C4A68346   7.413   6.046   7.327
 5335POPC   C1B68347   7.815   5.531   6.100
 5335POPC   C2B68348   7.838   5.801   6.507
 5335POPC   C3B68349   7.901   5.621   6.942
 5335POPC   C4B68350   7.909   5.766   7.353
 5336POPC   NC368351  34.743  14.918   4.974
 5336POPC   PO468352  34.752  15.288   5.529
 5336POPC   GL168353  34.774  15.091   5.892
 5336POPC   GL268354  34.967  14.802   5.868
 5336POPC   C1A68355  34.583  15.202   6.268
 5336POPC   D2A68356  34.417  15.432   6.564
 5336POPC   C3A68357  34.651  15.378   6.913
 5336POPC   C4A68358  34.349  15.398   7.202
 5336POPC   C1B68359  34.805  14.761   6.302
 5336POPC   C2B68360  34.625  14.883   6.715
 5336POPC   C3B68361  34.601  14.900   7.185
 5336POPC   C4B68362  34.896  14.842   7.537
 5337POPC   NC368363  11.200  29.905   5.424
 5337POPC   PO468364  11.795  29.542   5.392
 5337POPC   GL168365  11.697  29.863   5.722
 5337POPC   GL268366  11.415  29.683   5.843
 5337POPC   C1A68367  11.585  30.101   6.116
 5337POPC   D2A68368  11.319  30.071   6.505
 5337POPC   C3A68369  11.512  30.085   6.929
 5337POPC   C4A68370  11.618  29.777   7.269
 5337POPC   C1B68371  11.154  29.542   6.168
 5337POPC   C2B68372  11.008  29.661   6.549
 5337POPC   C3B68373  11.212  29.669   6.921
 5337POPC   C4B68374  11.037  29.705   7.298
 5338POPC   NC368375  11.032  25.105   5.262
 5338POPC   PO468376  11.667  25.337   5.501
 5338POPC   GL168377  11.320  25.211   5.749
 5338POPC   GL268378  11.034  24.990   5.766
 5338POPC   C1A68379  11.279  25.314   6.173
 5338POPC   D2A68380  11.304  25.644   6.481
 5338POPC   C3A68381  11.218  25.495   6.890
 5338POPC   C4A68382  11.465  25.430   7.249
 5338POPC   C1B68383  10.921  24.947   6.221
 5338POPC   C2B68384  11.060  25.027   6.681
 5338POPC   C3B68385  11.067  25.027   7.161
 5338POPC   C4B68386  11.321  24.910   7.533
 5339POPC   NC368387   1.092  30.169   5.280
 5339POPC   PO468388   1.642  29.723   5.423
 5339POPC   GL168389   1.450  30.004   5.727
 5339POPC   GL268390   1.099  29.980   5.763
 5339POPC   C1A68391   1.420  29.911   6.189
 5339POPC   D2A68392   1.229  29.906   6.621
 5339POPC   C3A68393   1.412  30.032   7.031
 5339POPC   C4A68394   1.449  30.392   7.292
 5339POPC   C1B68395   0.925  29.952   6.177
 5339POPC   C2B68396   0.755  29.734   6.557
 5339POPC   C3B68397   0.800  29.606   6.983
 5339POPC   C4B68398   1.020  29.817   7.304
 5340POPC   NC368399  15.767  25.363   5.455
 5340POPC   PO468400  16.341  25.061   5.563
 5340POPC   GL168401  16.066  25.223   5.858
 5340POPC   GL268402  15.757  25.023   5.853
 5340POPC   C1A68403  16.063  25.080   6.282
 5340POPC   D2A68404  16.037  25.253   6.677
 5340POPC   C3A68405  16.206  25.071   7.044
 5340POPC   C4A68406  16.200  25.487   7.208
 5340POPC   C1B68407  15.546  25.162   6.266
 5340POPC   C2B68408  15.540  25.181   6.751
 5340POPC   C3B68409  15.734  25.258   7.170
 5340POPC   C4B68410  15.896  25.204   7.629
 5341POPC   NC368411  19.531  21.433   5.105
 5341POPC   PO468412  19.431  21.666   5.691
 5341POPC   GL168413  19.631  21.311   5.955
 5341POPC   GL268414  19.948  21.225   5.777
 5341POPC   C1A68415  19.597  21.226   6.401
 5341POPC   D2A68416  19.798  21.526   6.672
 5341POPC   C3A68417  19.673  21.446   7.083
 5341POPC   C4A68418  19.574  21.510   7.508
 5341POPC   C1B68419  20.094  21.293   6.217
 5341POPC   C2B68420  20.064  21.083   6.621
 5341POPC   C3B68421  20.113  21.168   7.065
 5341POPC   C4B68422  19.874  21.112   7.437
 5342POPC   NC368423   5.417  37.674   5.428
 5342POPC   PO468424   4.877  38.066   5.347
 5342POPC   GL168425   4.902  37.786   5.719
 5342POPC   GL268426   4.986  37.428   5.719
 5342POPC   C1A68427   5.196  37.765   6.096
 5342POPC   D2A68428   5.216  37.859   6.569
 5342POPC   C3A68429   5.165  37.954   7.018
 5342POPC   C4A68430   4.814  37.831   7.292
 5342POPC   C1B68431   4.956  37.343   6.193
 5342POPC   C2B68432   5.170  37.363   6.602
 5342POPC   C3B68433   4.984  37.441   6.996
 5342POPC   C4B68434   4.785  37.247   7.345
 5343POPC   NC368435  24.933  13.887   5.544
 5343POPC   PO468436  25.473  13.697   5.448
 5343POPC   GL168437  25.270  13.557   5.870
 5343POPC   GL268438  25.166  13.194   5.935
 5343POPC   C1A68439  25.014  13.536   6.271
 5343POPC   D2A68440  25.135  13.374   6.698
 5343POPC   C3A68441  24.912  13.499   7.065
 5343POPC   C4A68442  24.958  13.521   7.507
 5343POPC   C1B68443  25.446  13.233   6.302
 5343POPC   C2B68444  25.683  13.409   6.655
 5343POPC   C3B68445  25.513  13.538   7.082
 5343POPC   C4B68446  25.508  13.541   7.540
 5344POPC   NC368447  43.627  27.564   5.433
 5344POPC   PO468448  43.293  27.081   5.520
 5344POPC   GL168449  43.153  27.458   5.755
 5344POPC   GL268450  43.454  27.548   5.908
 5344POPC   C1A68451  43.071  27.755   6.130
 5344POPC   D2A68452  43.353  27.765   6.473
 5344POPC   C3A68453  43.256  27.807   6.896
 5344POPC   C4A68454  42.891  27.650   7.067
 5344POPC   C1B68455  43.273  27.301   6.260
 5344POPC   C2B68456  43.162  27.323   6.705
 5344POPC   C3B68457  43.326  27.345   7.136
 5344POPC   C4B68458  43.480  27.292   7.593
 5345POPC   NC368459  12.914   8.530   5.128
 5345POPC   PO468460  12.900   7.909   5.308
 5345POPC   GL168461  12.916   8.052   5.740
 5345POPC   GL268462  12.750   8.389   5.703
 5345POPC   C1A68463  13.046   7.944   6.179
 5345POPC   D2A68464  13.023   8.161   6.604
 5345POPC   C3A68465  12.954   7.962   7.019
 5345POPC   C4A68466  12.727   7.954   7.441
 5345POPC   C1B68467  12.864   8.431   6.150
 5345POPC   C2B68468  12.731   8.587   6.560
 5345POPC   C3B68469  12.907   8.520   6.949
 5345POPC   C4B68470  12.663   8.605   7.294
 5346POPC   NC368471  34.021  19.824   5.151
 5346POPC   PO468472  34.629  19.775   5.360
 5346POPC   GL168473  34.584  19.975   5.773
 5346POPC   GL268474  34.211  20.084   5.735
 5346POPC   C1A68475  34.715  19.995   6.220
 5346POPC   D2A68476  34.749  19.662   6.534
 5346POPC   C3A68477  34.587  19.740   6.939
 5346POPC   C4A68478  34.529  19.470   7.254
 5346POPC   C1B68479  34.221  19.848   6.127
 5346POPC   C2B68480  34.266  19.898   6.575
 5346POPC   C3B68481  34.083  19.780   6.999
 5346POPC   C4B68482  34.291  19.898   7.373
 5347POPC   NC368483  22.875   7.709   5.534
 5347POPC   PO468484  23.277   8.058   5.101
 5347POPC   GL168485  23.208   8.094   5.660
 5347POPC   GL268486  22.876   8.014   5.917
 5347POPC   C1A68487  23.268   8.141   6.178
 5347POPC   D2A68488  23.287   8.371   6.597
 5347POPC   C3A68489  23.139   8.238   7.001
 5347POPC   C4A68490  22.717   8.288   7.202
 5347POPC   C1B68491  22.715   8.357   6.202
 5347POPC   C2B68492  22.755   8.390   6.647
 5347POPC   C3B68493  22.742   7.975   6.804
 5347POPC   C4B68494  22.614   7.762   7.178
 5348POPC   NC368495  16.417  16.767   5.283
 5348POPC   PO468496  16.775  17.077   5.627
 5348POPC   GL168497  16.376  17.068   5.864
 5348POPC   GL268498  16.239  16.729   5.815
 5348POPC   C1A68499  16.387  17.046   6.344
 5348POPC   D2A68500  16.708  17.004   6.644
 5348POPC   C3A68501  16.619  16.949   7.081
 5348POPC   C4A68502  16.998  16.835   7.285
 5348POPC   C1B68503  16.415  16.562   6.234
 5348POPC   C2B68504  16.430  16.586   6.718
 5348POPC   C3B68505  16.717  16.442   7.088
 5348POPC   C4B68506  16.660  16.184   7.474
 5349POPC   NC368507  28.726  28.381   5.626
 5349POPC   PO468508  28.140  28.686   5.346
 5349POPC   GL168509  28.235  28.522   5.749
 5349POPC   GL268510  28.151  28.216   5.905
 5349POPC   C1A68511  28.180  28.670   6.164
 5349POPC   D2A68512  28.131  28.426   6.564
 5349POPC   C3A68513  28.241  28.672   6.911
 5349POPC   C4A68514  28.375  28.615   7.305
 5349POPC   C1B68515  28.495  28.271   6.200
 5349POPC   C2B68516  28.639  28.172   6.571
 5349POPC   C3B68517  28.596  28.297   6.959
 5349POPC   C4B68518  28.601  28.145   7.378
 5350POPC   NC368519  41.853   4.543   5.464
 5350POPC   PO468520  42.397   4.085   5.189
 5350POPC   GL168521  42.392   4.320   5.628
 5350POPC   GL268522  42.210   4.598   5.813
 5350POPC   C1A68523  42.367   4.216   6.099
 5350POPC   D2A68524  42.570   4.256   6.516
 5350POPC   C3A68525  42.412   4.127   6.932
 5350POPC   C4A68526  42.364   4.230   7.369
 5350POPC   C1B68527  42.354   4.733   6.242
 5350POPC   C2B68528  42.398   4.773   6.699
 5350POPC   C3B68529  42.258   4.645   7.096
 5350POPC   C4B68530  42.098   4.685   7.524
 5351POPC   NC368531  35.320   1.094   4.981
 5351POPC   PO468532  35.236   0.617   5.365
 5351POPC   GL168533  35.294   0.792   5.821
 5351POPC   GL268534  34.999   0.910   5.947
 5351POPC   C1A68535  35.338   0.844   6.323
 5351POPC   D2A68536  35.279   0.984   6.789
 5351POPC   C3A68537  35.528   1.302   7.049
 5351POPC   C4A68538  35.414   1.437   7.471
 5351POPC   C1B68539  34.997   1.226   6.307
 5351POPC   C2B68540  35.129   1.479   6.690
 5351POPC   C3B68541  35.026   1.350   7.107
 5351POPC   C4B68542  34.942   1.217   7.526
 5352POPC   NC368543   4.813  21.598   5.111
 5352POPC   PO468544   5.410  21.574   5.451
 5352POPC   GL168545   5.370  21.410   5.863
 5352POPC   GL268546   5.648  21.224   5.862
 5352POPC   C1A68547   5.198  21.441   6.272
 5352POPC   D2A68548   5.245  21.595   6.679
 5352POPC   C3A68549   5.042  21.376   6.981
 5352POPC   C4A68550   4.749  21.595   7.204
 5352POPC   C1B68551   5.527  21.055   6.260
 5352POPC   C2B68552   5.322  21.056   6.659
 5352POPC   C3B68553   5.477  21.106   7.127
 5352POPC   C4B68554   5.474  21.113   7.652
 5353POPC   NC368555   8.145  36.333   5.268
 5353POPC   PO468556   8.402  35.697   5.306
 5353POPC   GL168557   8.204  35.806   5.731
 5353POPC   GL268558   7.831  35.765   5.689
 5353POPC   C1A68559   8.324  35.759   6.209
 5353POPC   D2A68560   8.373  35.809   6.686
 5353POPC   C3A68561   8.299  36.228   6.861
 5353POPC   C4A68562   8.105  36.336   7.243
 5353POPC   C1B68563   7.676  35.674   6.114
 5353POPC   C2B68564   7.883  35.690   6.536
 5353POPC   C3B68565   7.932  35.861   6.958
 5353POPC   C4B68566   8.283  35.825   7.222
 5354POPC   NC368567  43.489   3.441   5.558
 5354POPC   PO468568  42.919   3.816   5.435
 5354POPC   GL168569  43.011   3.624   5.802
 5354POPC   GL268570  43.316   3.833   5.840
 5354POPC   C1A68571  43.139   3.328   6.133
 5354POPC   D2A68572  43.326   3.364   6.550
 5354POPC   C3A68573  43.120   3.293   6.947
 5354POPC   C4A68574  43.202   3.180   7.365
 5354POPC   C1B68575  43.289   3.809   6.276
 5354POPC   C2B68576  43.279   3.869   6.727
 5354POPC   C3B68577  43.482   3.691   7.062
 5354POPC   C4B68578  43.461   3.636   7.510
 5355POPC   NC368579  40.292  30.813   5.466
 5355POPC   PO468580  39.766  31.168   5.756
 5355POPC   GL168581  39.805  30.707   5.842
 5355POPC   GL268582  40.126  30.750   5.954
 5355POPC   C1A68583  39.848  30.449   6.248
 5355POPC   D2A68584  39.941  30.659   6.670
 5355POPC   C3A68585  40.053  30.394   7.016
 5355POPC   C4A68586  39.785  30.236   7.298
 5355POPC   C1B68587  40.342  30.766   6.347
 5355POPC   C2B68588  40.554  30.951   6.701
 5355POPC   C3B68589  40.390  30.790   7.068
 5355POPC   C4B68590  39.969  30.876   7.190
 5356POPC   NC368591  19.788  20.374   5.390
 5356POPC   PO468592  19.752  21.020   5.226
 5356POPC   GL168593  19.655  20.821   5.675
 5356POPC   GL268594  19.461  20.530   5.778
 5356POPC   C1A68595  19.797  20.833   6.137
 5356POPC   D2A68596  19.974  20.557   6.487
 5356POPC   C3A68597  20.033  20.671   6.937
 5356POPC   C4A68598  19.729  20.648   7.315
 5356POPC   C1B68599  19.636  20.338   6.164
 5356POPC   C2B68600  19.645  20.157   6.560
 5356POPC   C3B68601  19.710  20.289   6.938
 5356POPC   C4B68602  19.649  20.156   7.326
 5357POPC   NC368603  31.361  42.615   5.577
 5357POPC   PO468604  31.458  41.926   5.328
 5357POPC   GL168605  31.445  42.153   5.774
 5357POPC   GL268606  31.706  42.364   5.894
 5357POPC   C1A68607  31.514  42.050   6.247
 5357POPC   D2A68608  31.254  42.198   6.608
 5357POPC   C3A68609  31.419  42.336   6.999
 5357POPC   C4A68610  31.549  42.442   7.412
 5357POPC   C1B68611  31.405  42.554   6.252
 5357POPC   C2B68612  31.240  42.723   6.696
 5357POPC   C3B68613  31.144  42.723   7.181
 5357POPC   C4B68614  31.166  42.709   7.659
 5358POPC   NC368615  26.000  36.667   5.313
 5358POPC   PO468616  26.552  37.004   5.242
 5358POPC   GL168617  26.206  37.085   5.565
 5358POPC   GL268618  26.259  37.354   5.857
 5358POPC   C1A68619  25.958  36.947   5.926
 5358POPC   D2A68620  26.042  37.031   6.384
 5358POPC   C3A68621  25.981  36.823   6.794
 5358POPC   C4A68622  26.108  36.718   7.218
 5358POPC   C1B68623  25.841  37.409   6.058
 5358POPC   C2B68624  25.644  37.363   6.421
 5358POPC   C3B68625  25.797  37.293   6.813
 5358POPC   C4B68626  25.925  37.181   7.201
 5359POPC   NC368627   3.800   5.713   5.650
 5359POPC   PO468628   3.309   5.775   5.176
 5359POPC   GL168629   3.343   5.979   5.639
 5359POPC   GL268630   3.462   5.780   5.997
 5359POPC   C1A68631   3.273   6.236   6.033
 5359POPC   D2A68632   3.557   6.156   6.410
 5359POPC   C3A68633   3.397   6.134   6.847
 5359POPC   C4A68634   3.365   6.299   7.278
 5359POPC   C1B68635   3.409   5.484   6.344
 5359POPC   C2B68636   3.284   5.579   6.766
 5359POPC   C3B68637   3.451   5.722   7.178
 5359POPC   C4B68638   3.861   5.579   7.379
 5360POPC   NC368639   3.249  12.555   5.230
 5360POPC   PO468640   3.631  13.056   5.227
 5360POPC   GL168641   3.347  12.913   5.597
 5360POPC   GL268642   3.628  12.732   5.706
 5360POPC   C1A68643   3.265  12.714   6.066
 5360POPC   D2A68644   3.433  12.686   6.502
 5360POPC   C3A68645   3.249  12.699   6.926
 5360POPC   C4A68646   3.329  12.969   7.239
 5360POPC   C1B68647   3.791  12.774   6.137
 5360POPC   C2B68648   3.935  12.863   6.567
 5360POPC   C3B68649   3.799  12.886   7.006
 5360POPC   C4B68650   3.768  13.229   7.298
 5361POPC   NC368651  41.993  10.736   5.424
 5361POPC   PO468652  41.752  10.144   5.187
 5361POPC   GL168653  41.602  10.354   5.676
 5361POPC   GL268654  41.322  10.624   5.672
 5361POPC   C1A68655  41.799  10.448   6.166
 5361POPC   D2A68656  41.873  10.613   6.616
 5361POPC   C3A68657  41.552  10.713   6.923
 5361POPC   C4A68658  41.518  10.500   7.336
 5361POPC   C1B68659  41.336  10.691   6.130
 5361POPC   C2B68660  41.389  10.401   6.499
 5361POPC   C3B68661  41.236  10.293   6.921
 5361POPC   C4B68662  41.062  10.642   7.168
 5362POPC   NC368663  36.818   6.878   5.132
 5362POPC   PO468664  36.843   7.582   5.129
 5362POPC   GL168665  36.777   7.434   5.573
 5362POPC   GL268666  37.092   7.489   5.703
 5362POPC   C1A68667  36.673   7.283   6.021
 5362POPC   D2A68668  36.692   7.344   6.505
 5362POPC   C3A68669  36.784   7.109   6.898
 5362POPC   C4A68670  36.693   7.107   7.334
 5362POPC   C1B68671  36.945   7.702   6.072
 5362POPC   C2B68672  37.075   7.712   6.464
 5362POPC   C3B68673  36.848   7.699   6.839
 5362POPC   C4B68674  36.900   7.536   7.201
 5363POPC   NC368675  12.372  22.305   5.287
 5363POPC   PO468676  11.705  22.146   5.400
 5363POPC   GL168677  12.001  22.308   5.683
 5363POPC   GL268678  12.191  22.039   5.685
 5363POPC   C1A68679  12.173  22.336   6.129
 5363POPC   D2A68680  11.901  22.238   6.528
 5363POPC   C3A68681  12.048  22.282   6.971
 5363POPC   C4A68682  12.333  22.016   7.206
 5363POPC   C1B68683  11.908  21.928   6.037
 5363POPC   C2B68684  12.137  21.814   6.368
 5363POPC   C3B68685  12.114  21.775   6.820
 5363POPC   C4B68686  11.867  21.816   7.231
 5364POPC   NC368687   0.060  39.778   5.654
 5364POPC   PO468688   0.789  39.748   5.524
 5364POPC   GL168689   0.518  40.024   5.779
 5364POPC   GL268690   0.756  40.235   5.940
 5364POPC   C1A68691   0.347  40.008   6.215
 5364POPC   D2A68692   0.314  40.198   6.634
 5364POPC   C3A68693   0.262  39.969   7.008
 5364POPC   C4A68694   0.589  39.918   7.316
 5364POPC   C1B68695   0.653  40.444   6.305
 5364POPC   C2B68696   0.617  40.621   6.705
 5364POPC   C3B68697   0.631  40.373   7.076
 5364POPC   C4B68698   0.672  40.382   7.541
 5365POPC   NC368699  15.024  17.734   5.420
 5365POPC   PO468700  15.325  17.144   5.351
 5365POPC   GL168701  15.077  17.220   5.735
 5365POPC   GL268702  15.208  17.543   5.831
 5365POPC   C1A68703  14.965  17.295   6.196
 5365POPC   D2A68704  15.106  17.483   6.578
 5365POPC   C3A68705  15.086  17.318   6.991
 5365POPC   C4A68706  14.997  17.531   7.365
 5365POPC   C1B68707  15.389  17.693   6.192
 5365POPC   C2B68708  15.492  17.823   6.603
 5365POPC   C3B68709  15.260  17.865   6.984
 5365POPC   C4B68710  15.461  18.030   7.351
 5366POPC   NC368711  37.836  30.838   5.403
 5366POPC   PO468712  37.426  30.284   5.562
 5366POPC   GL168713  37.644  30.569   5.855
 5366POPC   GL268714  37.708  30.937   5.879
 5366POPC   C1A68715  37.806  30.612   6.276
 5366POPC   D2A68716  38.039  30.727   6.641
 5366POPC   C3A68717  38.013  30.515   7.042
 5366POPC   C4A68718  37.727  30.510   7.406
 5366POPC   C1B68719  37.948  31.096   6.252
 5366POPC   C2B68720  37.938  31.250   6.693
 5366POPC   C3B68721  37.773  31.049   7.072
 5366POPC   C4B68722  37.630  30.992   7.534
 5367POPC   NC368723   0.891  18.492   5.017
 5367POPC   PO468724   1.286  18.042   5.267
 5367POPC   GL168725   1.228  18.161   5.728
 5367POPC   GL268726   0.910  18.030   5.853
 5367POPC   C1A68727   1.352  18.193   6.174
 5367POPC   D2A68728   1.330  18.043   6.593
 5367POPC   C3A68729   1.244  18.194   7.010
 5367POPC   C4A68730   1.232  18.378   7.405
 5367POPC   C1B68731   0.916  17.922   6.301
 5367POPC   C2B68732   0.858  17.897   6.752
 5367POPC   C3B68733   0.777  18.023   7.169
 5367POPC   C4B68734   1.070  17.903   7.473
 5368POPC   NC368735  40.517   1.176   5.331
 5368POPC   PO468736  41.113   1.407   5.354
 5368POPC   GL168737  41.051   1.072   5.715
 5368POPC   GL268738  40.694   1.091   5.813
 5368POPC   C1A68739  41.028   0.960   6.200
 5368POPC   D2A68740  40.990   0.962   6.695
 5368POPC   C3A68741  40.815   1.098   7.127
 5368POPC   C4A68742  40.930   1.218   7.572
 5368POPC   C1B68743  40.561   1.190   6.245
 5368POPC   C2B68744  40.539   1.225   6.703
 5368POPC   C3B68745  40.317   1.223   7.097
 5368POPC   C4B68746  40.434   1.344   7.509
 5369POPC   NC368747  11.800  23.086   5.382
 5369POPC   PO468748  12.295  22.693   5.506
 5369POPC   GL168749  11.911  22.799   5.797
 5369POPC   GL268750  11.856  23.166   5.893
 5369POPC   C1A68751  11.876  22.735   6.260
 5369POPC   D2A68752  12.247  22.630   6.548
 5369POPC   C3A68753  12.264  22.784   6.962
 5369POPC   C4A68754  11.906  22.755   7.220
 5369POPC   C1B68755  12.257  23.086   6.131
 5369POPC   C2B68756  12.431  23.118   6.561
 5369POPC   C3B68757  12.467  23.275   6.953
 5369POPC   C4B68758  12.109  23.255   7.145
 5370POPC   NC368759  21.247  18.757   5.669
 5370POPC   PO468760  21.234  18.210   5.262
 5370POPC   GL168761  21.348  18.221   5.718
 5370POPC   GL268762  21.016  18.315   5.846
 5370POPC   C1A68763  21.670  18.104   6.071
 5370POPC   D2A68764  21.939  18.182   6.471
 5370POPC   C3A68765  21.739  18.045   6.863
 5370POPC   C4A68766  21.397  18.198   7.128
 5370POPC   C1B68767  21.127  18.062   6.243
 5370POPC   C2B68768  21.102  18.109   6.713
 5370POPC   C3B68769  20.911  18.025   7.128
 5370POPC   C4B68770  21.180  17.866   7.437
 5371POPC   NC368771  14.868   7.007   5.689
 5371POPC   PO468772  15.388   7.365   5.420
 5371POPC   GL168773  15.292   7.337   5.862
 5371POPC   GL268774  15.564   7.136   5.939
 5371POPC   C1A68775  15.261   7.301   6.340
 5371POPC   D2A68776  15.387   7.262   6.789
 5371POPC   C3A68777  15.104   7.350   7.099
 5371POPC   C4A68778  14.928   7.738   7.164
 5371POPC   C1B68779  15.695   6.836   6.258
 5371POPC   C2B68780  15.656   6.807   6.729
 5371POPC   C3B68781  15.570   6.949   7.153
 5371POPC   C4B68782  15.257   7.082   7.511
 5372POPC   NC368783  23.639  17.873   5.427
 5372POPC   PO468784  23.957  18.425   5.428
 5372POPC   GL168785  23.796  18.186   5.802
 5372POPC   GL268786  24.012  17.896   5.887
 5372POPC   C1A68787  23.699  18.333   6.202
 5372POPC   D2A68788  23.787  18.221   6.611
 5372POPC   C3A68789  23.975  18.417   6.907
 5372POPC   C4A68790  23.765  18.538   7.233
 5372POPC   C1B68791  23.793  17.804   6.297
 5372POPC   C2B68792  23.694  17.755   6.753
 5372POPC   C3B68793  23.671  18.021   7.130
 5372POPC   C4B68794  23.880  18.100   7.525
 5373POPC   NC368795  21.567   4.704   5.205
 5373POPC   PO468796  21.257   5.262   5.349
 5373POPC   GL168797  21.330   5.134   5.799
 5373POPC   GL268798  21.195   4.828   5.926
 5373POPC   C1A68799  21.131   5.267   6.227
 5373POPC   D2A68800  21.178   5.087   6.617
 5373POPC   C3A68801  21.225   5.310   6.969
 5373POPC   C4A68802  21.529   5.276   7.265
 5373POPC   C1B68803  21.536   4.958   6.267
 5373POPC   C2B68804  21.762   4.699   6.557
 5373POPC   C3B68805  21.594   4.888   6.904
 5373POPC   C4B68806  21.652   4.789   7.291
 5374POPC   NC368807  20.821  10.635   5.509
 5374POPC   PO468808  20.317  10.228   5.162
 5374POPC   GL168809  20.393  10.329   5.602
 5374POPC   GL268810  20.425  10.049   5.746
 5374POPC   C1A68811  20.436  10.490   6.052
 5374POPC   D2A68812  20.658  10.485   6.449
 5374POPC   C3A68813  20.452  10.599   6.852
 5374POPC   C4A68814  20.606  10.795   7.198
 5374POPC   C1B68815  20.227  10.007   6.141
 5374POPC   C2B68816  20.419  10.035   6.527
 5374POPC   C3B68817  20.744  10.123   6.820
 5374POPC   C4B68818  20.693  10.306   7.223
 5375POPC   NC368819  10.007   0.446   5.350
 5375POPC   PO468820   9.357   0.440   5.173
 5375POPC   GL168821   9.537   0.365   5.625
 5375POPC   GL268822   9.469   0.703   5.740
 5375POPC   C1A68823   9.760   0.353   6.066
 5375POPC   D2A68824   9.676   0.412   6.514
 5375POPC   C3A68825   9.748   0.342   6.953
 5375POPC   C4A68826   9.545   0.207   7.325
 5375POPC   C1B68827   9.378   0.674   6.167
 5375POPC   C2B68828   9.369   0.853   6.564
 5375POPC   C3B68829   9.331   0.674   6.957
 5375POPC   C4B68830   9.298   0.693   7.382
 5376POPC   NC368831  33.067   8.881   5.302
 5376POPC   PO468832  32.503   9.134   5.531
 5376POPC   GL168833  32.894   9.134   5.742
 5376POPC   GL268834  32.824   8.794   5.875
 5376POPC   C1A68835  33.168   9.102   6.112
 5376POPC   D2A68836  33.048   8.925   6.520
 5376POPC   C3A68837  33.026   9.074   6.953
 5376POPC   C4A68838  33.341   9.333   7.152
 5376POPC   C1B68839  32.643   8.651   6.317
 5376POPC   C2B68840  32.648   8.721   6.819
 5376POPC   C3B68841  32.774   8.769   7.294
 5376POPC   C4B68842  32.938   8.624   7.764
 5377POPC   NC368843  13.981  14.359   5.426
 5377POPC   PO468844  13.373  14.006   5.616
 5377POPC   GL168845  13.435  14.309   5.902
 5377POPC   GL268846  13.725  14.543   5.854
 5377POPC   C1A68847  13.447  14.307   6.328
 5377POPC   D2A68848  13.666  14.471   6.660
 5377POPC   C3A68849  13.464  14.465   7.049
 5377POPC   C4A68850  13.563  14.787   7.348
 5377POPC   C1B68851  13.973  14.329   6.170
 5377POPC   C2B68852  13.883  14.030   6.486
 5377POPC   C3B68853  13.942  14.102   6.920
 5377POPC   C4B68854  13.943  14.437   7.238
 5378POPC   NC368855  28.676   8.592   5.180
 5378POPC   PO468856  28.358   8.066   5.356
 5378POPC   GL168857  28.284   8.139   5.805
 5378POPC   GL268858  28.407   8.461   5.850
 5378POPC   C1A68859  28.390   8.172   6.270
 5378POPC   D2A68860  28.290   8.004   6.690
 5378POPC   C3A68861  28.427   8.242   7.031
 5378POPC   C4A68862  28.178   8.388   7.367
 5378POPC   C1B68863  28.612   8.661   6.228
 5378POPC   C2B68864  28.625   8.545   6.633
 5378POPC   C3B68865  28.863   8.564   6.988
 5378POPC   C4B68866  28.631   8.629   7.316
 5379POPC   NC368867  14.761  11.246   5.111
 5379POPC   PO468868  15.197  10.916   5.573
 5379POPC   GL168869  15.135  11.199   5.906
 5379POPC   GL268870  15.393  11.327   5.989
 5379POPC   C1A68871  14.946  11.227   6.304
 5379POPC   D2A68872  14.940  11.017   6.678
 5379POPC   C3A68873  15.075  11.223   7.048
 5379POPC   C4A68874  14.961  11.067   7.432
 5379POPC   C1B68875  15.422  11.044   6.317
 5379POPC   C2B68876  15.523  11.065   6.737
 5379POPC   C3B68877  15.521  11.009   7.172
 5379POPC   C4B68878  15.425  11.200   7.559
 5380POPC   NC368879  43.599  25.308   5.342
 5380POPC   PO468880  44.260  25.296   5.267
 5380POPC   GL168881  44.149  25.449   5.690
 5380POPC   GL268882  43.838  25.264   5.812
 5380POPC   C1A68883  44.229  25.320   6.134
 5380POPC   D2A68884  43.987  25.095   6.447
 5380POPC   C3A68885  44.102  25.137   6.863
 5380POPC   C4A68886  43.891  25.017   7.214
 5380POPC   C1B68887  43.725  25.480   6.213
 5380POPC   C2B68888  43.786  25.506   6.667
 5380POPC   C3B68889  43.645  25.447   7.065
 5380POPC   C4B68890  43.337  25.597   7.384
 5381POPC   NC368891  10.259  41.305   5.457
 5381POPC   PO468892  10.879  41.519   5.577
 5381POPC   GL168893  10.585  41.515   5.869
 5381POPC   GL268894  10.378  41.758   5.731
 5381POPC   C1A68895  10.657  41.486   6.303
 5381POPC   D2A68896  10.594  41.267   6.694
 5381POPC   C3A68897  10.680  41.558   7.036
 5381POPC   C4A68898  10.734  41.418   7.463
 5381POPC   C1B68899  10.246  41.784   6.169
 5381POPC   C2B68900  10.342  41.722   6.617
 5381POPC   C3B68901  10.301  41.927   6.994
 5381POPC   C4B68902  10.328  41.757   7.408
 5382POPC   NC368903  33.354  38.964   5.559
 5382POPC   PO468904  33.235  39.590   5.242
 5382POPC   GL168905  33.006  39.384   5.631
 5382POPC   GL268906  32.652  39.482   5.717
 5382POPC   C1A68907  32.958  39.184   6.085
 5382POPC   D2A68908  33.137  39.017   6.508
 5382POPC   C3A68909  32.933  39.090   6.913
 5382POPC   C4A68910  33.115  39.236   7.287
 5382POPC   C1B68911  32.762  39.688   6.112
 5382POPC   C2B68912  32.838  39.468   6.518
 5382POPC   C3B68913  32.980  39.580   6.929
 5382POPC   C4B68914  32.654  39.447   7.189
 5383POPC   NC368915   1.648  44.503   5.557
 5383POPC   PO468916   1.935   0.025   5.266
 5383POPC   GL168917   1.997  44.839   5.722
 5383POPC   GL268918   2.281  44.990   5.808
 5383POPC   C1A68919   1.824  44.694   6.196
 5383POPC   D2A68920   1.912  44.498   6.655
 5383POPC   C3A68921   1.706  44.621   7.056
 5383POPC   C4A68922   1.725  44.628   7.569
 5383POPC   C1B68923   2.326  44.672   6.126
 5383POPC   C2B68924   2.289  44.840   6.548
 5383POPC   C3B68925   2.171  44.828   6.977
 5383POPC   C4B68926   2.410  44.799   7.351
 5384POPC   NC368927  29.021  22.125   5.366
 5384POPC   PO468928  29.553  22.474   5.459
 5384POPC   GL168929  29.405  22.232   5.849
 5384POPC   GL268930  29.281  21.898   5.796
 5384POPC   C1A68931  29.321  22.076   6.284
 5384POPC   D2A68932  29.310  21.813   6.653
 5384POPC   C3A68933  29.279  21.990   7.080
 5384POPC   C4A68934  29.300  22.130   7.550
 5384POPC   C1B68935  28.934  21.776   6.101
 5384POPC   C2B68936  28.875  21.557   6.530
 5384POPC   C3B68937  28.848  21.676   6.993
 5384POPC   C4B68938  28.839  22.012   7.329
 5385POPC   NC368939  29.750  12.432   5.518
 5385POPC   PO468940  30.382  12.138   5.454
 5385POPC   GL168941  30.063  12.147   5.816
 5385POPC   GL268942  29.724  11.959   5.845
 5385POPC   C1A68943  29.966  12.058   6.273
 5385POPC   D2A68944  30.015  11.862   6.671
 5385POPC   C3A68945  29.902  12.166   7.001
 5385POPC   C4A68946  30.223  12.394   7.222
 5385POPC   C1B68947  29.656  11.637   6.170
 5385POPC   C2B68948  29.639  11.534   6.606
 5385POPC   C3B68949  29.628  11.700   7.082
 5385POPC   C4B68950  29.503  11.911   7.518
 5386POPC   NC368951   3.849  34.371   5.587
 5386POPC   PO468952   3.518  34.966   5.307
 5386POPC   GL168953   3.725  34.872   5.699
 5386POPC   GL268954   3.438  34.713   5.818
 5386POPC   C1A68955   3.830  34.680   6.149
 5386POPC   D2A68956   3.933  34.733   6.564
 5386POPC   C3A68957   3.670  34.710   6.946
 5386POPC   C4A68958   3.783  34.650   7.379
 5386POPC   C1B68959   3.385  34.395   6.133
 5386POPC   C2B68960   3.526  34.408   6.534
 5386POPC   C3B68961   3.446  34.233   6.912
 5386POPC   C4B68962   3.322  34.427   7.251
 5387POPC   NC368963  14.417  38.563   5.364
 5387POPC   PO468964  14.985  38.431   5.394
 5387POPC   GL168965  14.658  38.328   5.802
 5387POPC   GL268966  14.326  38.519   5.859
 5387POPC   C1A68967  14.496  38.336   6.300
 5387POPC   D2A68968  14.465  38.730   6.628
 5387POPC   C3A68969  14.688  38.713   7.069
 5387POPC   C4A68970  14.511  38.384   7.337
 5387POPC   C1B68971  14.080  38.619   6.230
 5387POPC   C2B68972  13.896  38.292   6.533
 5387POPC   C3B68973  13.959  38.301   6.989
 5387POPC   C4B68974  14.180  38.692   7.097
 5388POPC   NC368975  23.123  38.868   4.939
 5388POPC   PO468976  22.795  38.397   5.217
 5388POPC   GL168977  23.021  38.338   5.623
 5388POPC   GL268978  22.820  38.542   5.863
 5388POPC   C1A68979  23.298  38.424   5.986
 5388POPC   D2A68980  23.436  38.438   6.424
 5388POPC   C3A68981  23.203  38.475   6.817
 5388POPC   C4A68982  23.093  38.393   7.257
 5388POPC   C1B68983  22.646  38.779   6.177
 5388POPC   C2B68984  22.779  38.690   6.586
 5388POPC   C3B68985  22.687  38.557   7.003
 5388POPC   C4B68986  22.397  38.605   7.306
 5389POPC   NC368987   9.918   2.909   5.202
 5389POPC   PO468988   9.621   3.348   5.635
 5389POPC   GL168989   9.814   2.924   5.748
 5389POPC   GL268990   9.588   2.678   5.674
 5389POPC   C1A68991   9.895   2.785   6.201
 5389POPC   D2A68992   9.829   3.069   6.580
 5389POPC   C3A68993  10.073   2.951   6.939
 5389POPC   C4A68994   9.909   2.791   7.361
 5389POPC   C1B68995   9.408   2.802   6.081
 5389POPC   C2B68996   9.505   2.684   6.556
 5389POPC   C3B68997   9.506   2.830   7.014
 5389POPC   C4B68998   9.438   2.577   7.410
 5390POPC   NC368999  15.593  19.125   5.252
 5390POPC   PO469000  16.196  18.585   5.437
 5390POPC   GL169001  16.123  18.871   5.801
 5390POPC   GL269002  16.159  19.221   5.960
 5390POPC   C1A69003  16.012  18.836   6.247
 5390POPC   D2A69004  15.700  18.868   6.557
 5390POPC   C3A69005  15.915  18.876   6.943
 5390POPC   C4A69006  16.189  19.178   7.156
 5390POPC   C1B69007  15.826  19.320   6.328
 5390POPC   C2B69008  15.685  19.346   6.786
 5390POPC   C3B69009  15.690  19.226   7.253
 5390POPC   C4B69010  15.668  19.486   7.624
 5391POPC   NC369011  30.235  24.583   5.400
 5391POPC   PO469012  30.872  24.396   5.441
 5391POPC   GL169013  30.786  24.560   5.778
 5391POPC   GL269014  30.486  24.396   5.787
 5391POPC   C1A69015  30.953  24.537   6.168
 5391POPC   D2A69016  30.810  24.485   6.565
 5391POPC   C3A69017  31.028  24.619   6.910
 5391POPC   C4A69018  30.807  24.516   7.269
 5391POPC   C1B69019  30.420  24.443   6.193
 5391POPC   C2B69020  30.334  24.666   6.526
 5391POPC   C3B69021  30.373  24.563   6.901
 5391POPC   C4B69022  30.378  24.795   7.255
 5392POPC   NC369023  18.762  26.212   5.023
 5392POPC   PO469024  19.321  26.060   5.259
 5392POPC   GL169025  19.211  26.017   5.719
 5392POPC   GL269026  19.245  25.685   5.808
 5392POPC   C1A69027  18.915  25.971   6.092
 5392POPC   D2A69028  18.645  25.965   6.448
 5392POPC   C3A69029  18.790  26.068   6.859
 5392POPC   C4A69030  18.904  25.930   7.270
 5392POPC   C1B69031  19.395  25.889   6.211
 5392POPC   C2B69032  19.193  26.194   6.531
 5392POPC   C3B69033  19.251  26.264   7.003
 5392POPC   C4B69034  19.408  25.891   7.261
 5393POPC   NC369035  11.169   3.886   5.563
 5393POPC   PO469036  11.412   4.446   5.349
 5393POPC   GL169037  11.357   4.336   5.758
 5393POPC   GL269038  11.585   4.091   5.830
 5393POPC   C1A69039  11.337   4.468   6.171
 5393POPC   D2A69040  11.280   4.288   6.550
 5393POPC   C3A69041  11.257   4.536   6.887
 5393POPC   C4A69042  11.151   4.375   7.255
 5393POPC   C1B69043  11.554   3.950   6.250
 5393POPC   C2B69044  11.727   4.078   6.655
 5393POPC   C3B69045  11.514   4.114   7.041
 5393POPC   C4B69046  11.522   4.083   7.524
 5394POPC   NC369047  21.686   9.856   5.279
 5394POPC   PO469048  22.285   9.465   5.422
 5394POPC   GL169049  22.249   9.749   5.792
 5394POPC   GL269050  22.556   9.977   5.793
 5394POPC   C1A69051  21.974   9.721   6.189
 5394POPC   D2A69052  21.813   9.607   6.586
 5394POPC   C3A69053  21.916   9.868   6.943
 5394POPC   C4A69054  22.046   9.736   7.357
 5394POPC   C1B69055  22.482   9.868   6.240
 5394POPC   C2B69056  22.333   9.750   6.673
 5394POPC   C3B69057  22.492   9.810   7.113
 5394POPC   C4B69058  22.475   9.886   7.591
 5395POPC   NC369059   8.558   7.666   5.379
 5395POPC   PO469060   7.857   7.436   5.177
 5395POPC   GL169061   7.920   7.463   5.642
 5395POPC   GL269062   7.890   7.127   5.743
 5395POPC   C1A69063   8.053   7.576   6.076
 5395POPC   D2A69064   8.355   7.662   6.417
 5395POPC   C3A69065   8.222   7.650   6.836
 5395POPC   C4A69066   8.159   7.557   7.287
 5395POPC   C1B69067   8.033   7.040   6.154
 5395POPC   C2B69068   8.029   7.237   6.553
 5395POPC   C3B69069   8.130   7.147   6.975
 5395POPC   C4B69070   7.858   7.146   7.331
 5396POPC   NC369071  31.838  18.157   5.583
 5396POPC   PO469072  32.462  18.095   5.295
 5396POPC   GL169073  32.313  18.129   5.738
 5396POPC   GL269074  32.298  18.497   5.789
 5396POPC   C1A69075  32.149  18.198   6.202
 5396POPC   D2A69076  31.991  18.135   6.645
 5396POPC   C3A69077  32.197  18.204   7.068
 5396POPC   C4A69078  32.158  18.055   7.553
 5396POPC   C1B69079  32.520  18.654   6.201
 5396POPC   C2B69080  32.640  18.860   6.628
 5396POPC   C3B69081  32.582  18.796   7.085
 5396POPC   C4B69082  32.265  18.635   7.368
 5397POPC   NC369083  34.575   4.180   5.223
 5397POPC   PO469084  34.996   4.473   5.482
 5397POPC   GL169085  34.751   4.197   5.748
 5397POPC   GL269086  34.458   4.366   5.820
 5397POPC   C1A69087  34.719   4.071   6.192
 5397POPC   D2A69088  34.724   4.277   6.613
 5397POPC   C3A69089  34.738   4.094   7.015
 5397POPC   C4A69090  35.094   4.014   7.264
 5397POPC   C1B69091  34.636   4.594   6.207
 5397POPC   C2B69092  34.606   4.763   6.666
 5397POPC   C3B69093  34.437   4.616   7.078
 5397POPC   C4B69094  34.217   4.712   7.487
 5398POPC   NC369095  44.394  26.689   5.339
 5398POPC   PO469096  44.896  27.167   5.479
 5398POPC   GL169097  44.723  26.804   5.727
 5398POPC   GL269098  44.398  26.930   5.820
 5398POPC   C1A69099  44.652  26.687   6.183
 5398POPC   D2A69100  44.656  26.964   6.584
 5398POPC   C3A69101  44.819  26.732   6.943
 5398POPC   C4A69102  44.530  26.498   7.185
 5398POPC   C1B69103  44.732  27.204   6.120
 5398POPC   C2B69104   0.036  27.295   6.501
 5398POPC   C3B69105  44.891  27.248   6.959
 5398POPC   C4B69106  44.499  27.043   7.187
 5399POPC   NC369107   0.914  13.058   5.540
 5399POPC   PO469108   1.349  12.515   5.418
 5399POPC   GL169109   1.231  12.737   5.797
 5399POPC   GL269110   0.861  12.621   5.805
 5399POPC   C1A69111   1.439  12.924   6.206
 5399POPC   D2A69112   1.525  13.174   6.617
 5399POPC   C3A69113   1.372  12.982   7.000
 5399POPC   C4A69114   1.393  12.575   7.149
 5399POPC   C1B69115   0.923  12.926   6.176
 5399POPC   C2B69116   1.039  12.909   6.587
 5399POPC   C3B69117   0.828  12.955   6.959
 5399POPC   C4B69118   0.953  12.971   7.360
 5400POPC   NC369119  35.931  42.356   5.368
 5400POPC   PO469120  36.593  42.380   5.509
 5400POPC   GL169121  36.254  42.519   5.862
 5400POPC   GL269122  35.855  42.613   5.899
 5400POPC   C1A69123  36.079  42.279   6.207
 5400POPC   D2A69124  36.173  42.043   6.569
 5400POPC   C3A69125  36.463  42.236   6.825
 5400POPC   C4A69126  36.296  42.081   7.198
 5400POPC   C1B69127  36.039  42.795   6.265
 5400POPC   C2B69128  36.118  42.569   6.644
 5400POPC   C3B69129  36.128  42.555   7.081
 5400POPC   C4B69130  36.006  42.822   7.378
 5401POPC   NC369131  12.527  40.555   5.385
 5401POPC   PO469132  13.041  40.974   5.482
 5401POPC   GL169133  12.777  40.786   5.765
 5401POPC   GL269134  13.050  40.754   5.978
 5401POPC   C1A69135  12.547  40.652   6.131
 5401POPC   D2A69136  12.625  40.531   6.553
 5401POPC   C3A69137  12.542  40.594   6.948
 5401POPC   C4A69138  12.869  40.739   7.224
 5401POPC   C1B69139  12.931  40.923   6.375
 5401POPC   C2B69140  13.139  40.851   6.761
 5401POPC   C3B69141  13.297  41.020   7.146
 5401POPC   C4B69142  13.228  40.970   7.591
 5402POPC   NC369143  36.615  24.534   5.534
 5402POPC   PO469144  35.944  24.539   5.280
 5402POPC   GL169145  36.129  24.599   5.758
 5402POPC   GL269146  36.361  24.324   5.925
 5402POPC   C1A69147  36.231  24.710   6.241
 5402POPC   D2A69148  36.062  24.651   6.695
 5402POPC   C3A69149  36.171  24.852   7.091
 5402POPC   C4A69150  36.351  24.760   7.526
 5402POPC   C1B69151  36.589  24.260   6.336
 5402POPC   C2B69152  36.592  24.199   6.805
 5402POPC   C3B69153  36.276  24.336   7.107
 5402POPC   C4B69154  36.267  24.213   7.562
 5403POPC   NC369155  21.752  26.594   5.689
 5403POPC   PO469156  21.396  27.191   5.363
 5403POPC   GL169157  21.452  26.996   5.764
 5403POPC   GL269158  21.797  27.144   5.837
 5403POPC   C1A69159  21.226  26.761   6.117
 5403POPC   D2A69160  21.021  26.828   6.505
 5403POPC   C3A69161  21.239  26.788   6.905
 5403POPC   C4A69162  21.374  26.567   7.266
 5403POPC   C1B69163  21.591  27.098   6.247
 5403POPC   C2B69164  21.589  26.739   6.528
 5403POPC   C3B69165  21.749  26.677   6.950
 5403POPC   C4B69166  21.590  27.036   7.222
 5404POPC   NC369167  17.583   1.614   5.425
 5404POPC   PO469168  17.066   1.922   5.636
 5404POPC   GL169169  17.373   1.631   5.911
 5404POPC   GL269170  17.644   1.363   5.866
 5404POPC   C1A69171  17.635   1.621   6.307
 5404POPC   D2A69172  17.531   1.410   6.701
 5404POPC   C3A69173  17.757   1.253   7.050
 5404POPC   C4A69174  17.565   1.254   7.452
 5404POPC   C1B69175  17.438   1.141   6.263
 5404POPC   C2B69176  17.411   0.914   6.705
 5404POPC   C3B69177  17.485   0.801   7.155
 5404POPC   C4B69178  17.439   0.660   7.604
 5405POPC   NC369179  38.458  35.023   5.315
 5405POPC   PO469180  38.734  34.525   5.475
 5405POPC   GL169181  38.517  34.767   5.795
 5405POPC   GL269182  38.397  34.479   5.958
 5405POPC   C1A69183  38.655  34.788   6.255
 5405POPC   D2A69184  38.610  34.503   6.650
 5405POPC   C3A69185  38.544  34.751   7.039
 5405POPC   C4A69186  38.655  34.652   7.453
 5405POPC   C1B69187  38.145  34.461   6.313
 5405POPC   C2B69188  38.017  34.254   6.679
 5405POPC   C3B69189  38.178  34.378   7.065
 5405POPC   C4B69190  38.093  34.640   7.393
 5406POPC   NC369191  29.687  26.992   5.446
 5406POPC   PO469192  29.959  26.402   5.358
 5406POPC   GL169193  29.906  26.623   5.772
 5406POPC   GL269194  29.951  26.982   5.874
 5406POPC   C1A69195  29.966  26.605   6.250
 5406POPC   D2A69196  29.825  26.757   6.679
 5406POPC   C3A69197  29.925  26.548   7.035
 5406POPC   C4A69198  30.217  26.670   7.295
 5406POPC   C1B69199  29.644  26.999   6.216
 5406POPC   C2B69200  29.415  27.026   6.572
 5406POPC   C3B69201  29.432  27.099   7.010
 5406POPC   C4B69202  29.784  26.983   7.249
 5407POPC   NC369203   3.078  16.813   5.487
 5407POPC   PO469204   2.312  16.880   5.432
 5407POPC   GL169205   2.624  16.737   5.735
 5407POPC   GL269206   2.744  16.386   5.634
 5407POPC   C1A69207   2.806  16.907   6.133
 5407POPC   D2A69208   2.600  16.967   6.517
 5407POPC   C3A69209   2.723  17.099   6.910
 5407POPC   C4A69210   2.974  16.887   7.216
 5407POPC   C1B69211   2.924  16.377   6.060
 5407POPC   C2B69212   2.748  16.462   6.467
 5407POPC   C3B69213   2.899  16.387   6.891
 5407POPC   C4B69214   2.644  16.492   7.231
 5408POPC   NC369215   5.295   2.804   5.635
 5408POPC   PO469216   4.606   2.930   5.647
 5408POPC   GL169217   4.912   2.927   5.943
 5408POPC   GL269218   4.917   2.553   5.894
 5408POPC   C1A69219   5.133   3.060   6.327
 5408POPC   D2A69220   4.941   3.159   6.733
 5408POPC   C3A69221   4.991   2.925   7.120
 5408POPC   C4A69222   4.740   2.859   7.503
 5408POPC   C1B69223   5.158   2.550   6.268
 5408POPC   C2B69224   5.164   2.677   6.691
 5408POPC   C3B69225   5.150   2.432   7.057
 5408POPC   C4B69226   4.978   2.430   7.478
 5409POPC   NC369227  24.273  34.434   5.312
 5409POPC   PO469228  24.847  34.793   5.216
 5409POPC   GL169229  24.663  34.640   5.582
 5409POPC   GL269230  24.415  34.888   5.634
 5409POPC   C1A69231  24.780  34.393   5.962
 5409POPC   D2A69232  24.711  34.540   6.395
 5409POPC   C3A69233  24.760  34.286   6.766
 5409POPC   C4A69234  24.599  34.328   7.168
 5409POPC   C1B69235  24.313  34.611   6.001
 5409POPC   C2B69236  24.217  34.702   6.447
 5409POPC   C3B69237  24.410  34.678   6.824
 5409POPC   C4B69238  24.377  34.801   7.235
 5410POPC   NC369239  31.041  19.428   5.562
 5410POPC   PO469240  30.630  18.924   5.444
 5410POPC   GL169241  30.702  19.003   5.839
 5410POPC   GL269242  30.995  18.811   5.847
 5410POPC   C1A69243  30.511  19.132   6.246
 5410POPC   D2A69244  30.272  19.135   6.646
 5410POPC   C3A69245  30.430  19.251   7.050
 5410POPC   C4A69246  30.615  19.064   7.429
 5410POPC   C1B69247  31.031  19.124   6.211
 5410POPC   C2B69248  30.835  19.113   6.629
 5410POPC   C3B69249  30.956  19.067   7.026
 5410POPC   C4B69250  31.007  18.741   7.316
 5411POPC   NC369251  13.700  20.914   5.474
 5411POPC   PO469252  13.564  20.183   5.352
 5411POPC   GL169253  13.746  20.300   5.732
 5411POPC   GL269254  13.493  20.556   5.778
 5411POPC   C1A69255  13.769  20.468   6.173
 5411POPC   D2A69256  13.488  20.480   6.535
 5411POPC   C3A69257  13.687  20.392   6.941
 5411POPC   C4A69258  13.596  20.212   7.337
 5411POPC   C1B69259  13.430  20.887   6.116
 5411POPC   C2B69260  13.363  20.986   6.561
 5411POPC   C3B69261  13.409  20.825   6.974
 5411POPC   C4B69262  13.315  21.037   7.353
 5412POPC   NC369263  10.027   8.408   5.270
 5412POPC   PO469264   9.409   8.094   5.290
 5412POPC   GL169265   9.435   8.156   5.737
 5412POPC   GL269266   9.591   8.469   5.669
 5412POPC   C1A69267   9.702   8.146   6.149
 5412POPC   D2A69268   9.652   8.171   6.616
 5412POPC   C3A69269   9.997   8.238   6.895
 5412POPC   C4A69270  10.154   8.332   7.321
 5412POPC   C1B69271   9.396   8.549   6.083
 5412POPC   C2B69272   9.372   8.639   6.524
 5412POPC   C3B69273   9.583   8.601   6.902
 5412POPC   C4B69274   9.588   8.733   7.311
 5413POPC   NC369275   3.541  33.413   5.621
 5413POPC   PO469276   3.305  32.783   5.532
 5413POPC   GL169277   3.642  32.922   5.815
 5413POPC   GL269278   3.616  33.172   6.048
 5413POPC   C1A69279   3.807  32.762   6.225
 5413POPC   D2A69280   3.821  33.043   6.570
 5413POPC   C3A69281   3.753  32.819   6.915
 5413POPC   C4A69282   3.637  32.980   7.290
 5413POPC   C1B69283   3.853  33.451   6.233
 5413POPC   C2B69284   3.844  33.603   6.634
 5413POPC   C3B69285   3.802  33.408   7.043
 5413POPC   C4B69286   3.757  33.530   7.484
 5414POPC   NC369287  34.561  20.369   5.457
 5414POPC   PO469288  35.002  20.941   5.311
 5414POPC   GL169289  34.823  20.750   5.731
 5414POPC   GL269290  34.478  20.749   5.835
 5414POPC   C1A69291  34.867  20.621   6.194
 5414POPC   D2A69292  34.828  20.451   6.640
 5414POPC   C3A69293  34.678  20.676   7.036
 5414POPC   C4A69294  34.765  20.802   7.492
 5414POPC   C1B69295  34.378  20.412   6.141
 5414POPC   C2B69296  34.288  20.417   6.589
 5414POPC   C3B69297  34.413  20.224   6.986
 5414POPC   C4B69298  34.527  20.343   7.412
 5415POPC   NC369299   7.685  21.416   5.470
 5415POPC   PO469300   7.010  21.368   5.549
 5415POPC   GL169301   7.371  21.287   5.868
 5415POPC   GL269302   7.628  21.560   5.935
 5415POPC   C1A69303   7.432  21.288   6.334
 5415POPC   D2A69304   7.244  21.170   6.728
 5415POPC   C3A69305   7.364  21.403   7.082
 5415POPC   C4A69306   7.768  21.413   7.247
 5415POPC   C1B69307   7.528  21.822   6.272
 5415POPC   C2B69308   7.432  21.772   6.696
 5415POPC   C3B69309   7.113  21.873   6.974
 5415POPC   C4B69310   7.016  21.729   7.362
 5416POPC   NC369311   1.030  19.470   5.174
 5416POPC   PO469312   1.548  19.951   5.264
 5416POPC   GL169313   1.431  19.919   5.707
 5416POPC   GL269314   1.088  20.006   5.766
 5416POPC   C1A69315   1.375  19.763   6.164
 5416POPC   D2A69316   1.131  19.747   6.556
 5416POPC   C3A69317   1.335  19.788   6.931
 5416POPC   C4A69318   1.315  19.506   7.261
 5416POPC   C1B69319   0.848  19.865   6.132
 5416POPC   C2B69320   0.744  20.062   6.536
 5416POPC   C3B69321   0.892  20.060   6.963
 5416POPC   C4B69322   1.111  19.999   7.360
 5417POPC   NC369323  30.735  31.905   5.353
 5417POPC   PO469324  30.567  32.577   5.297
 5417POPC   GL169325  30.774  32.347   5.680
 5417POPC   GL269326  30.610  32.037   5.835
 5417POPC   C1A69327  30.743  32.407   6.154
 5417POPC   D2A69328  30.494  32.211   6.504
 5417POPC   C3A69329  30.594  32.366   6.926
 5417POPC   C4A69330  30.439  32.326   7.355
 5417POPC   C1B69331  30.829  31.889   6.220
 5417POPC   C2B69332  30.944  32.020   6.659
 5417POPC   C3B69333  31.031  32.122   7.088
 5417POPC   C4B69334  30.851  32.087   7.522
 5418POPC   NC369335  38.339  29.446   5.283
 5418POPC   PO469336  38.152  28.775   5.557
 5418POPC   GL169337  38.396  29.133   5.841
 5418POPC   GL269338  38.701  29.315   5.667
 5418POPC   C1A69339  38.432  29.089   6.282
 5418POPC   D2A69340  38.237  28.806   6.535
 5418POPC   C3A69341  38.373  28.836   6.939
 5418POPC   C4A69342  38.572  29.080   7.227
 5418POPC   C1B69343  38.878  29.227   6.084
 5418POPC   C2B69344  38.847  29.398   6.499
 5418POPC   C3B69345  38.960  29.249   6.898
 5418POPC   C4B69346  39.028  29.302   7.318
 5419POPC   NC369347  38.916  30.259   5.361
 5419POPC   PO469348  39.476  29.893   5.414
 5419POPC   GL169349  39.270  29.946   5.792
 5419POPC   GL269350  38.959  29.794   5.637
 5419POPC   C1A69351  39.242  30.189   6.218
 5419POPC   D2A69352  39.474  30.330   6.611
 5419POPC   C3A69353  39.397  30.060   6.983
 5419POPC   C4A69354  39.413  29.919   7.418
 5419POPC   C1B69355  38.828  29.937   6.041
 5419POPC   C2B69356  38.876  29.929   6.491
 5419POPC   C3B69357  38.832  29.772   6.903
 5419POPC   C4B69358  38.944  29.983   7.267
 5420POPC   NC369359   2.575  28.895   5.359
 5420POPC   PO469360   1.858  29.126   5.336
 5420POPC   GL169361   2.228  29.107   5.669
 5420POPC   GL269362   2.307  28.745   5.777
 5420POPC   C1A69363   2.306  29.148   6.131
 5420POPC   D2A69364   2.043  29.387   6.451
 5420POPC   C3A69365   2.143  29.313   6.882
 5420POPC   C4A69366   1.939  29.191   7.262
 5420POPC   C1B69367   1.890  28.886   5.970
 5420POPC   C2B69368   1.752  28.945   6.394
 5420POPC   C3B69369   1.667  28.838   6.815
 5420POPC   C4B69370   1.712  28.715   7.239
 5421POPC   NC369371  30.311  11.652   5.417
 5421POPC   PO469372  29.664  11.331   5.500
 5421POPC   GL169373  29.981  11.374   5.817
 5421POPC   GL269374  30.160  11.660   5.912
 5421POPC   C1A69375  29.905  11.188   6.217
 5421POPC   D2A69376  29.666  11.016   6.524
 5421POPC   C3A69377  29.689  11.177   6.938
 5421POPC   C4A69378  29.819  11.044   7.289
 5421POPC   C1B69379  30.254  11.532   6.328
 5421POPC   C2B69380  30.127  11.336   6.708
 5421POPC   C3B69381  30.076  11.467   7.126
 5421POPC   C4B69382  30.327  11.578   7.485
 5422POPC   NC369383   4.141  16.936   5.396
 5422POPC   PO469384   3.569  16.433   5.435
 5422POPC   GL169385   3.522  16.767   5.784
 5422POPC   GL269386   3.510  17.145   5.685
 5422POPC   C1A69387   3.303  16.769   6.208
 5422POPC   D2A69388   3.118  16.787   6.646
 5422POPC   C3A69389   3.370  16.652   7.018
 5422POPC   C4A69390   3.369  16.669   7.495
 5422POPC   C1B69391   3.679  17.140   6.103
 5422POPC   C2B69392   3.536  17.104   6.521
 5422POPC   C3B69393   3.715  17.025   6.914
 5422POPC   C4B69394   3.832  16.784   7.267
 5423POPC   NC369395   5.556   7.402   5.024
 5423POPC   PO469396   6.102   7.626   5.437
 5423POPC   GL169397   6.160   7.428   5.835
 5423POPC   GL269398   5.869   7.233   5.841
 5423POPC   C1A69399   6.080   7.319   6.279
 5423POPC   D2A69400   5.874   7.518   6.591
 5423POPC   C3A69401   5.794   7.389   7.000
 5423POPC   C4A69402   6.076   7.604   7.253
 5423POPC   C1B69403   5.567   7.379   6.199
 5423POPC   C2B69404   5.371   7.497   6.608
 5423POPC   C3B69405   5.405   7.767   6.942
 5423POPC   C4B69406   5.492   7.639   7.349
 5424POPC   NC369407  33.986  22.267   5.375
 5424POPC   PO469408  33.582  21.788   5.508
 5424POPC   GL169409  33.854  21.974   5.785
 5424POPC   GL269410  33.620  22.286   5.735
 5424POPC   C1A69411  34.027  21.973   6.214
 5424POPC   D2A69412  33.800  22.020   6.628
 5424POPC   C3A69413  33.988  21.906   7.033
 5424POPC   C4A69414  33.890  22.070   7.468
 5424POPC   C1B69415  33.815  22.419   6.086
 5424POPC   C2B69416  33.682  22.501   6.477
 5424POPC   C3B69417  33.535  22.440   6.852
 5424POPC   C4B69418  33.804  22.400   7.116
 5425POPC   NC369419  20.703  17.213   5.453
 5425POPC   PO469420  20.391  17.816   5.625
 5425POPC   GL169421  20.614  17.501   5.853
 5425POPC   GL269422  20.413  17.195   5.896
 5425POPC   C1A69423  20.878  17.578   6.210
 5425POPC   D2A69424  20.720  17.750   6.629
 5425POPC   C3A69425  20.867  17.540   7.014
 5425POPC   C4A69426  20.777  17.568   7.448
 5425POPC   C1B69427  20.391  17.448   6.298
 5425POPC   C2B69428  20.299  17.431   6.714
 5425POPC   C3B69429  20.346  17.574   7.115
 5425POPC   C4B69430  20.341  17.292   7.448
 5426POPC   NC369431  10.200  31.266   5.520
 5426POPC   PO469432  10.617  31.765   5.405
 5426POPC   GL169433  10.430  31.628   5.828
 5426POPC   GL269434  10.592  31.312   5.836
 5426POPC   C1A69435  10.249  31.584   6.286
 5426POPC   D2A69436  10.486  31.607   6.708
 5426POPC   C3A69437  10.380  31.586   7.169
 5426POPC   C4A69438  10.492  31.308   7.545
 5426POPC   C1B69439  10.733  31.424   6.248
 5426POPC   C2B69440  10.761  31.194   6.638
 5426POPC   C3B69441  10.822  31.373   7.067
 5426POPC   C4B69442  10.817  31.683   7.453
 5427POPC   NC369443  37.316  42.901   5.167
 5427POPC   PO469444  36.788  43.306   5.345
 5427POPC   GL169445  36.940  43.368   5.749
 5427POPC   GL269446  36.840  43.047   5.830
 5427POPC   C1A69447  36.830  43.444   6.177
 5427POPC   D2A69448  36.710  43.216   6.551
 5427POPC   C3A69449  36.678  43.394   6.937
 5427POPC   C4A69450  36.853  43.330   7.327
 5427POPC   C1B69451  37.015  42.953   6.207
 5427POPC   C2B69452  37.086  42.852   6.625
 5427POPC   C3B69453  36.944  42.818   7.059
 5427POPC   C4B69454  37.077  42.902   7.469
 5428POPC   NC369455   1.404   7.975   5.152
 5428POPC   PO469456   0.956   8.381   5.323
 5428POPC   GL169457   1.166   8.388   5.761
 5428POPC   GL269458   1.324   8.055   5.827
 5428POPC   C1A69459   1.185   8.483   6.246
 5428POPC   D2A69460   1.419   8.285   6.590
 5428POPC   C3A69461   1.247   8.344   6.983
 5428POPC   C4A69462   1.074   8.691   7.186
 5428POPC   C1B69463   0.994   8.013   6.152
 5428POPC   C2B69464   0.927   8.125   6.579
 5428POPC   C3B69465   0.946   7.931   6.956
 5428POPC   C4B69466   1.146   7.926   7.315
 5429POPC   NC369467  30.986  23.236   5.472
 5429POPC   PO469468  30.348  22.805   5.421
 5429POPC   GL169469  30.651  22.817   5.804
 5429POPC   GL269470  31.023  22.910   5.865
 5429POPC   C1A69471  30.613  22.991   6.238
 5429POPC   D2A69472  30.423  23.193   6.597
 5429POPC   C3A69473  30.526  23.142   7.026
 5429POPC   C4A69474  30.515  23.049   7.471
 5429POPC   C1B69475  30.975  22.616   6.207
 5429POPC   C2B69476  30.826  22.581   6.629
 5429POPC   C3B69477  30.898  22.770   7.039
 5429POPC   C4B69478  30.951  22.767   7.500
 5430POPC   NC369479  11.762  36.905   5.341
 5430POPC   PO469480  12.420  36.844   5.218
 5430POPC   GL169481  12.126  36.766   5.659
 5430POPC   GL269482  11.960  37.049   5.793
 5430POPC   C1A69483  12.159  36.780   6.168
 5430POPC   D2A69484  12.219  37.031   6.578
 5430POPC   C3A69485  12.092  36.832   6.965
 5430POPC   C4A69486  11.987  36.649   7.357
 5430POPC   C1B69487  12.006  37.258   6.156
 5430POPC   C2B69488  11.746  37.227   6.515
 5430POPC   C3B69489  11.852  37.273   6.917
 5430POPC   C4B69490  11.674  37.176   7.300
 5431POPC   NC369491  20.944  20.479   5.467
 5431POPC   PO469492  20.273  20.408   5.386
 5431POPC   GL169493  20.451  20.574   5.728
 5431POPC   GL269494  20.158  20.745   5.801
 5431POPC   C1A69495  20.625  20.415   6.116
 5431POPC   D2A69496  20.444  20.428   6.506
 5431POPC   C3A69497  20.525  20.383   6.904
 5431POPC   C4A69498  20.778  20.376   7.247
 5431POPC   C1B69499  20.319  20.833   6.226
 5431POPC   C2B69500  20.565  20.918   6.636
 5431POPC   C3B69501  20.518  20.855   7.089
 5431POPC   C4B69502  20.298  20.546   7.369
 5432POPC   NC369503  40.093  22.897   5.365
 5432POPC   PO469504  39.600  23.341   5.542
 5432POPC   GL169505  39.777  22.950   5.789
 5432POPC   GL269506  40.176  22.869   5.857
 5432POPC   C1A69507  39.800  22.931   6.241
 5432POPC   D2A69508  39.978  23.209   6.560
 5432POPC   C3A69509  40.016  23.088   6.995
 5432POPC   C4A69510  39.814  23.010   7.406
 5432POPC   C1B69511  40.368  23.077   6.204
 5432POPC   C2B69512  40.471  23.023   6.617
 5432POPC   C3B69513  40.381  22.741   6.917
 5432POPC   C4B69514  40.210  22.726   7.305
 5433POPC   NC369515  36.737  17.872   5.268
 5433POPC   PO469516  37.283  18.124   5.483
 5433POPC   GL169517  36.930  18.223   5.736
 5433POPC   GL269518  37.019  18.547   5.899
 5433POPC   C1A69519  36.696  18.178   6.120
 5433POPC   D2A69520  36.837  18.148   6.521
 5433POPC   C3A69521  36.744  18.407   6.867
 5433POPC   C4A69522  36.736  18.161   7.265
 5433POPC   C1B69523  36.859  18.641   6.333
 5433POPC   C2B69524  36.526  18.867   6.566
 5433POPC   C3B69525  36.397  18.824   6.989
 5433POPC   C4B69526  36.734  18.688   7.284
 5434POPC   NC369527  40.340   4.885   5.323
 5434POPC   PO469528  39.999   5.432   5.391
 5434POPC   GL169529  40.033   5.155   5.736
 5434POPC   GL269530  40.364   5.060   5.832
 5434POPC   C1A69531  40.030   5.139   6.206
 5434POPC   D2A69532  40.158   5.398   6.562
 5434POPC   C3A69533  40.180   5.216   6.963
 5434POPC   C4A69534  39.887   5.141   7.322
 5434POPC   C1B69535  40.529   5.019   6.296
 5434POPC   C2B69536  40.410   4.810   6.723
 5434POPC   C3B69537  40.252   4.761   7.203
 5434POPC   C4B69538  40.233   4.937   7.655
 5435POPC   NC369539  38.124  22.052   5.403
 5435POPC   PO469540  38.797  22.349   5.470
 5435POPC   GL169541  38.621  22.144   5.813
 5435POPC   GL269542  38.263  22.182   5.884
 5435POPC   C1A69543  38.604  22.095   6.253
 5435POPC   D2A69544  38.292  22.217   6.535
 5435POPC   C3A69545  38.458  22.140   6.900
 5435POPC   C4A69546  38.819  22.248   7.127
 5435POPC   C1B69547  38.166  21.840   6.192
 5435POPC   C2B69548  38.371  21.699   6.605
 5435POPC   C3B69549  38.259  21.686   7.084
 5435POPC   C4B69550  38.510  21.755   7.499
 5436POPC   NC369551   8.495  22.727   5.410
 5436POPC   PO469552   9.206  22.904   5.413
 5436POPC   GL169553   8.864  22.926   5.709
 5436POPC   GL269554   8.848  22.588   5.794
 5436POPC   C1A69555   8.831  23.118   6.116
 5436POPC   D2A69556   9.112  23.139   6.494
 5436POPC   C3A69557   8.976  22.964   6.906
 5436POPC   C4A69558   8.909  23.120   7.307
 5436POPC   C1B69559   8.966  22.629   6.245
 5436POPC   C2B69560   9.260  22.644   6.569
 5436POPC   C3B69561   9.393  22.680   6.973
 5436POPC   C4B69562   9.161  22.678   7.368
 5437POPC   NC369563  42.505  16.842   5.096
 5437POPC   PO469564  43.167  16.817   5.292
 5437POPC   GL169565  43.077  16.738   5.721
 5437POPC   GL269566  43.326  16.496   5.811
 5437POPC   C1A69567  42.973  16.781   6.176
 5437POPC   D2A69568  43.054  16.579   6.606
 5437POPC   C3A69569  43.088  16.769   7.037
 5437POPC   C4A69570  42.935  16.837   7.462
 5437POPC   C1B69571  43.556  16.391   6.186
 5437POPC   C2B69572  43.559  16.434   6.625
 5437POPC   C3B69573  43.438  16.363   7.036
 5437POPC   C4B69574  43.462  16.603   7.456
 5438POPC   NC369575  41.494  34.146   5.412
 5438POPC   PO469576  41.703  34.786   5.420
 5438POPC   GL169577  41.458  34.747   5.793
 5438POPC   GL269578  41.390  34.392   5.834
 5438POPC   C1A69579  41.552  34.633   6.233
 5438POPC   D2A69580  41.693  34.572   6.616
 5438POPC   C3A69581  41.384  34.567   6.907
 5438POPC   C4A69582  41.237  34.825   7.213
 5438POPC   C1B69583  41.199  34.191   6.183
 5438POPC   C2B69584  41.354  34.179   6.568
 5438POPC   C3B69585  41.274  34.032   6.954
 5438POPC   C4B69586  41.394  34.236   7.309
 5439POPC   NC369587   2.835  34.119   5.570
 5439POPC   PO469588   3.147  33.524   5.415
 5439POPC   GL169589   2.818  33.605   5.729
 5439POPC   GL269590   2.504  33.421   5.761
 5439POPC   C1A69591   2.818  33.759   6.147
 5439POPC   D2A69592   2.909  33.601   6.532
 5439POPC   C3A69593   2.951  33.890   6.851
 5439POPC   C4A69594   2.874  33.868   7.276
 5439POPC   C1B69595   2.342  33.574   6.172
 5439POPC   C2B69596   2.435  33.822   6.559
 5439POPC   C3B69597   2.497  33.657   6.987
 5439POPC   C4B69598   2.362  33.668   7.408
 5440POPC   NC369599  38.949  37.412   5.522
 5440POPC   PO469600  39.479  37.855   5.368
 5440POPC   GL169601  39.256  37.807   5.770
 5440POPC   GL269602  39.243  37.488   5.918
 5440POPC   C1A69603  39.299  37.887   6.233
 5440POPC   D2A69604  39.189  38.100   6.617
 5440POPC   C3A69605  39.211  37.934   7.052
 5440POPC   C4A69606  39.520  37.769   7.320
 5440POPC   C1B69607  38.946  37.476   6.244
 5440POPC   C2B69608  39.057  37.328   6.660
 5440POPC   C3B69609  39.235  37.406   7.059
 5440POPC   C4B69610  38.998  37.230   7.370
 5441POPC   NC369611  32.548   9.571   5.688
 5441POPC   PO469612  33.132   9.660   5.319
 5441POPC   GL169613  33.075   9.648   5.779
 5441POPC   GL269614  32.909   9.945   5.882
 5441POPC   C1A69615  32.964   9.549   6.228
 5441POPC   D2A69616  33.169   9.446   6.629
 5441POPC   C3A69617  32.931   9.599   6.993
 5441POPC   C4A69618  32.522   9.774   7.006
 5441POPC   C1B69619  33.175  10.001   6.235
 5441POPC   C2B69620  32.979   9.979   6.630
 5441POPC   C3B69621  33.073  10.183   7.012
 5441POPC   C4B69622  32.909  10.296   7.391
 5442POPC   NC369623  26.487   9.337   5.506
 5442POPC   PO469624  26.615   8.714   5.411
 5442POPC   GL169625  26.820   8.972   5.758
 5442POPC   GL269626  27.091   9.234   5.720
 5442POPC   C1A69627  26.633   9.053   6.192
 5442POPC   D2A69628  26.811   9.202   6.596
 5442POPC   C3A69629  26.578   9.173   6.953
 5442POPC   C4A69630  26.691   9.072   7.350
 5442POPC   C1B69631  27.122   9.169   6.186
 5442POPC   C2B69632  27.252   8.936   6.585
 5442POPC   C3B69633  27.122   9.035   7.043
 5442POPC   C4B69634  27.189   8.912   7.489
 5443POPC   NC369635  11.516  26.531   5.318
 5443POPC   PO469636  11.084  27.125   5.203
 5443POPC   GL169637  11.122  26.758   5.529
 5443POPC   GL269638  11.445  26.828   5.719
 5443POPC   C1A69639  11.181  26.508   5.960
 5443POPC   D2A69640  11.190  26.614   6.398
 5443POPC   C3A69641  11.236  26.571   6.864
 5443POPC   C4A69642  11.055  26.800   7.231
 5443POPC   C1B69643  11.604  26.826   6.126
 5443POPC   C2B69644  11.610  26.821   6.575
 5443POPC   C3B69645  11.557  26.947   7.012
 5443POPC   C4B69646  11.548  26.732   7.375
 5444POPC   NC369647  34.999  31.270   5.255
 5444POPC   PO469648  34.324  31.447   5.436
 5444POPC   GL169649  34.675  31.563   5.743
 5444POPC   GL269650  34.934  31.298   5.758
 5444POPC   C1A69651  34.596  31.621   6.197
 5444POPC   D2A69652  34.378  31.660   6.582
 5444POPC   C3A69653  34.509  31.454   6.975
 5444POPC   C4A69654  34.526  31.626   7.385
 5444POPC   C1B69655  34.932  31.215   6.183
 5444POPC   C2B69656  34.868  31.360   6.608
 5444POPC   C3B69657  34.922  31.186   7.063
 5444POPC   C4B69658  34.628  31.140   7.450
 5445POPC   NC369659  19.605   5.916   5.264
 5445POPC   PO469660  19.504   5.382   5.688
 5445POPC   GL169661  19.764   5.747   5.792
 5445POPC   GL269662  19.720   6.100   5.761
 5445POPC   C1A69663  19.901   5.876   6.204
 5445POPC   D2A69664  19.968   6.031   6.632
 5445POPC   C3A69665  19.681   5.749   6.867
 5445POPC   C4A69666  19.754   5.524   7.229
 5445POPC   C1B69667  19.688   6.338   6.157
 5445POPC   C2B69668  19.486   6.227   6.551
 5445POPC   C3B69669  19.585   6.236   6.972
 5445POPC   C4B69670  19.934   6.032   7.230
 5446POPC   NC369671  21.257  41.601   5.417
 5446POPC   PO469672  21.632  41.092   5.617
 5446POPC   GL169673  21.381  41.387   5.863
 5446POPC   GL269674  20.994  41.338   5.831
 5446POPC   C1A69675  21.385  41.782   6.117
 5446POPC   D2A69676  21.591  41.811   6.534
 5446POPC   C3A69677  21.386  41.788   6.958
 5446POPC   C4A69678  21.450  41.637   7.380
 5446POPC   C1B69679  21.108  41.394   6.294
 5446POPC   C2B69680  21.050  41.471   6.729
 5446POPC   C3B69681  21.219  41.283   7.096
 5446POPC   C4B69682  21.161  41.264   7.542
 5447POPC   NC369683  11.624   1.285   5.398
 5447POPC   PO469684  12.149   1.534   5.504
 5447POPC   GL169685  11.926   1.249   5.816
 5447POPC   GL269686  12.093   0.931   5.786
 5447POPC   C1A69687  11.815   1.171   6.276
 5447POPC   D2A69688  11.738   1.432   6.670
 5447POPC   C3A69689  11.811   1.215   7.087
 5447POPC   C4A69690  11.939   0.797   7.258
 5447POPC   C1B69691  12.308   1.142   6.150
 5447POPC   C2B69692  12.228   1.243   6.611
 5447POPC   C3B69693  12.315   1.146   7.078
 5447POPC   C4B69694  12.421   1.448   7.417
 5448POPC   NC369695  44.894  11.616   5.348
 5448POPC   PO469696  44.544  11.113   5.334
 5448POPC   GL169697  44.767  11.326   5.724
 5448POPC   GL269698  44.562  11.343   5.986
 5448POPC   C1A69699   0.018  11.545   6.075
 5448POPC   D2A69700  44.732  11.478   6.456
 5448POPC   C3A69701  44.872  11.550   6.866
 5448POPC   C4A69702  44.724  11.391   7.281
 5448POPC   C1B69703  44.927  11.065   6.148
 5448POPC   C2B69704   0.066  10.988   6.554
 5448POPC   C3B69705  44.809  11.017   6.882
 5448POPC   C4B69706  44.952  10.949   7.277
 5449POPC   NC369707  29.227  34.235   5.125
 5449POPC   PO469708  28.954  34.637   5.591
 5449POPC   GL169709  29.234  34.872   5.794
 5449POPC   GL269710  29.340  34.591   5.958
 5449POPC   C1A69711  29.087  34.956   6.203
 5449POPC   D2A69712  28.872  34.747   6.523
 5449POPC   C3A69713  29.172  34.609   6.827
 5449POPC   C4A69714  29.393  34.601   7.200
 5449POPC   C1B69715  29.305  34.446   6.362
 5449POPC   C2B69716  29.336  34.140   6.700
 5449POPC   C3B69717  29.081  34.127   7.060
 5449POPC   C4B69718  29.209  34.211   7.479
 5450POPC   NC369719  31.611  41.463   5.336
 5450POPC   PO469720  31.043  41.254   5.621
 5450POPC   GL169721  31.396  41.354   5.828
 5450POPC   GL269722  31.479  41.663   5.791
 5450POPC   C1A69723  31.546  41.454   6.245
 5450POPC   D2A69724  31.718  41.415   6.642
 5450POPC   C3A69725  31.475  41.464   6.996
 5450POPC   C4A69726  31.067  41.394   7.186
 5450POPC   C1B69727  31.128  41.738   6.121
 5450POPC   C2B69728  31.143  41.681   6.595
 5450POPC   C3B69729  31.175  41.873   7.018
 5450POPC   C4B69730  31.517  41.948   7.325
 5451POPC   NC369731  11.917  31.724   5.477
 5451POPC   PO469732  12.215  31.105   5.590
 5451POPC   GL169733  11.990  31.351   5.889
 5451POPC   GL269734  11.622  31.434   5.797
 5451POPC   C1A69735  12.225  31.467   6.276
 5451POPC   D2A69736  12.350  31.603   6.709
 5451POPC   C3A69737  12.399  31.315   7.068
 5451POPC   C4A69738  12.402  31.342   7.548
 5451POPC   C1B69739  11.666  31.715   6.137
 5451POPC   C2B69740  11.888  31.755   6.545
 5451POPC   C3B69741  11.824  31.723   6.996
 5451POPC   C4B69742  11.934  31.380   7.306
 5452POPC   NC369743   6.226  32.495   5.537
 5452POPC   PO469744   5.987  31.947   5.249
 5452POPC   GL169745   5.969  31.999   5.719
 5452POPC   GL269746   5.679  32.222   5.815
 5452POPC   C1A69747   6.063  32.027   6.189
 5452POPC   D2A69748   6.237  32.107   6.636
 5452POPC   C3A69749   6.013  32.098   7.069
 5452POPC   C4A69750   5.964  31.965   7.551
 5452POPC   C1B69751   5.677  32.367   6.261
 5452POPC   C2B69752   5.804  32.481   6.705
 5452POPC   C3B69753   5.653  32.502   7.142
 5452POPC   C4B69754   5.413  32.630   7.549
 5453POPC   NC369755  31.236  40.760   5.677
 5453POPC   PO469756  30.729  40.542   5.234
 5453POPC   GL169757  30.747  40.550   5.664
 5453POPC   GL269758  30.965  40.262   5.700
 5453POPC   C1A69759  30.512  40.556   6.057
 5453POPC   D2A69760  30.512  40.722   6.481
 5453POPC   C3A69761  30.686  40.876   6.879
 5453POPC   C4A69762  30.333  40.791   7.163
 5453POPC   C1B69763  30.919  40.247   6.151
 5453POPC   C2B69764  30.890  40.395   6.582
 5453POPC   C3B69765  30.630  40.387   6.954
 5453POPC   C4B69766  30.712  40.540   7.375
 5454POPC   NC369767  35.872  36.622   5.382
 5454POPC   PO469768  36.534  36.763   5.382
 5454POPC   GL169769  36.240  36.813   5.719
 5454POPC   GL269770  36.008  37.109   5.642
 5454POPC   C1A69771  35.931  36.770   6.067
 5454POPC   D2A69772  35.811  36.724   6.501
 5454POPC   C3A69773  36.168  36.650   6.751
 5454POPC   C4A69774  36.198  36.774   7.185
 5454POPC   C1B69775  36.197  37.212   6.062
 5454POPC   C2B69776  35.969  37.198   6.475
 5454POPC   C3B69777  35.863  37.047   6.903
 5454POPC   C4B69778  35.985  37.205   7.315
 5455POPC   NC369779  18.482  22.730   5.626
 5455POPC   PO469780  18.593  22.213   5.213
 5455POPC   GL169781  18.445  22.147   5.686
 5455POPC   GL269782  18.204  22.387   5.855
 5455POPC   C1A69783  18.199  21.961   6.099
 5455POPC   D2A69784  18.048  22.033   6.518
 5455POPC   C3A69785  18.388  22.059   6.857
 5455POPC   C4A69786  18.498  21.843   7.257
 5455POPC   C1B69787  18.326  22.429   6.302
 5455POPC   C2B69788  18.160  22.514   6.707
 5455POPC   C3B69789  17.975  22.319   7.061
 5455POPC   C4B69790  18.170  22.449   7.463
 5456POPC   NC369791  20.009  16.785   5.337
 5456POPC   PO469792  19.777  16.245   5.654
 5456POPC   GL169793  19.921  16.628   5.809
 5456POPC   GL269794  19.594  16.762   5.752
 5456POPC   C1A69795  20.222  16.778   6.117
 5456POPC   D2A69796  20.391  16.901   6.544
 5456POPC   C3A69797  20.153  16.642   6.872
 5456POPC   C4A69798  20.233  16.279   7.167
 5456POPC   C1B69799  19.683  16.765   6.239
 5456POPC   C2B69800  19.652  16.637   6.705
 5456POPC   C3B69801  19.551  16.513   7.149
 5456POPC   C4B69802  19.483  16.786   7.508
 5457POPC   NC369803  11.764   4.131   5.348
 5457POPC   PO469804  12.074   4.745   5.321
 5457POPC   GL169805  11.828   4.549   5.651
 5457POPC   GL269806  12.065   4.288   5.731
 5457POPC   C1A69807  11.798   4.646   6.098
 5457POPC   D2A69808  11.620   4.723   6.537
 5457POPC   C3A69809  11.769   4.538   6.928
 5457POPC   C4A69810  11.940   4.284   7.277
 5457POPC   C1B69811  12.244   4.429   6.117
 5457POPC   C2B69812  12.103   4.422   6.558
 5457POPC   C3B69813  12.266   4.593   6.981
 5457POPC   C4B69814  12.323   4.638   7.436
 5458POPC   NC369815  34.751  42.494   5.333
 5458POPC   PO469816  34.890  41.827   5.365
 5458POPC   GL169817  34.638  42.145   5.735
 5458POPC   GL269818  34.568  42.535   5.810
 5458POPC   C1A69819  34.330  42.201   6.100
 5458POPC   D2A69820  34.411  42.458   6.439
 5458POPC   C3A69821  34.345  42.359   6.868
 5458POPC   C4A69822  34.463  42.567   7.262
 5458POPC   C1B69823  34.839  42.379   6.171
 5458POPC   C2B69824  34.835  42.207   6.614
 5458POPC   C3B69825  34.823  42.259   7.076
 5458POPC   C4B69826  34.799  42.317   7.536
 5459POPC   NC369827  19.206  37.401   5.518
 5459POPC   PO469828  19.366  37.991   5.232
 5459POPC   GL169829  19.270  38.007   5.701
 5459POPC   GL269830  18.958  37.814   5.768
 5459POPC   C1A69831  19.244  37.871   6.169
 5459POPC   D2A69832  18.942  37.783   6.515
 5459POPC   C3A69833  19.012  37.916   6.919
 5459POPC   C4A69834  19.267  37.828   7.261
 5459POPC   C1B69835  18.891  37.465   6.140
 5459POPC   C2B69836  18.792  37.303   6.595
 5459POPC   C3B69837  18.958  37.416   7.037
 5459POPC   C4B69838  18.833  37.637   7.411
 5460POPC   NC369839   0.801  25.957   5.544
 5460POPC   PO469840   1.193  26.399   5.221
 5460POPC   GL169841   1.139  26.323   5.725
 5460POPC   GL269842   0.896  26.523   5.786
 5460POPC   C1A69843   1.418  26.134   6.133
 5460POPC   D2A69844   1.382  25.728   6.395
 5460POPC   C3A69845   1.418  25.750   6.882
 5460POPC   C4A69846   1.245  25.601   7.313
 5460POPC   C1B69847   1.181  26.575   6.158
 5460POPC   C2B69848   1.276  26.406   6.548
 5460POPC   C3B69849   1.178  26.267   6.935
 5460POPC   C4B69850   0.939  26.063   7.233
 5461POPC   NC369851  39.719  44.193   5.592
 5461POPC   PO469852  40.054  43.610   5.342
 5461POPC   GL169853  40.081  43.839   5.702
 5461POPC   GL269854  39.749  43.769   5.866
 5461POPC   C1A69855  40.305  43.745   6.065
 5461POPC   D2A69856  40.349  43.889   6.467
 5461POPC   C3A69857  40.199  43.634   6.824
 5461POPC   C4A69858  40.106  43.755   7.247
 5461POPC   C1B69859  39.877  43.971   6.263
 5461POPC   C2B69860  39.958  44.105   6.713
 5461POPC   C3B69861  39.693  44.017   7.048
 5461POPC   C4B69862  39.552  43.627   7.242
 5462POPC   NC369863  27.877   1.857   5.395
 5462POPC   PO469864  27.296   2.083   5.594
 5462POPC   GL169865  27.416   1.877   5.940
 5462POPC   GL269866  27.677   2.130   5.949
 5462POPC   C1A69867  27.500   1.949   6.393
 5462POPC   D2A69868  27.535   2.221   6.723
 5462POPC   C3A69869  27.470   2.002   7.053
 5462POPC   C4A69870  27.166   1.759   7.275
 5462POPC   C1B69871  27.888   1.778   6.123
 5462POPC   C2B69872  27.934   1.625   6.543
 5462POPC   C3B69873  27.982   1.679   6.990
 5462POPC   C4B69874  27.824   1.886   7.371
 5463POPC   NC369875  10.992  27.549   5.412
 5463POPC   PO469876  10.290  27.699   5.405
 5463POPC   GL169877  10.430  27.752   5.865
 5463POPC   GL269878  10.768  27.574   5.918
 5463POPC   C1A69879  10.465  27.684   6.335
 5463POPC   D2A69880  10.850  27.537   6.543
 5463POPC   C3A69881  10.763  27.616   6.978
 5463POPC   C4A69882  10.345  27.514   7.133
 5463POPC   C1B69883  10.818  27.987   6.145
 5463POPC   C2B69884  10.760  28.076   6.605
 5463POPC   C3B69885  10.452  28.051   6.945
 5463POPC   C4B69886  10.511  27.950   7.377
 5464POPC   NC369887  22.130  25.741   5.343
 5464POPC   PO469888  21.847  26.356   5.295
 5464POPC   GL169889  22.098  26.172   5.654
 5464POPC   GL269890  22.355  25.945   5.739
 5464POPC   C1A69891  22.117  26.136   6.149
 5464POPC   D2A69892  21.859  26.265   6.540
 5464POPC   C3A69893  21.911  26.037   6.929
 5464POPC   C4A69894  21.959  26.254   7.304
 5464POPC   C1B69895  22.569  25.815   6.103
 5464POPC   C2B69896  22.630  25.789   6.559
 5464POPC   C3B69897  22.440  25.991   6.938
 5464POPC   C4B69898  22.290  25.859   7.363
 5465POPC   NC369899   3.186  18.508   5.310
 5465POPC   PO469900   3.650  18.006   5.397
 5465POPC   GL169901   3.513  18.116   5.810
 5465POPC   GL269902   3.203  18.126   5.680
 5465POPC   C1A69903   3.525  18.383   6.212
 5465POPC   D2A69904   3.533  18.278   6.587
 5465POPC   C3A69905   3.764  18.443   6.883
 5465POPC   C4A69906   3.590  18.176   7.224
 5465POPC   C1B69907   3.070  18.165   6.107
 5465POPC   C2B69908   3.138  17.943   6.486
 5465POPC   C3B69909   3.206  18.074   6.906
 5465POPC   C4B69910   3.064  18.119   7.323
 5466POPC   NC369911  35.221  39.189   5.261
 5466POPC   PO469912  34.958  38.704   5.649
 5466POPC   GL169913  35.255  39.060   5.753
 5466POPC   GL269914  35.000  39.343   5.757
 5466POPC   C1A69915  35.397  39.416   6.070
 5466POPC   D2A69916  35.390  39.623   6.503
 5466POPC   C3A69917  35.535  39.477   6.934
 5466POPC   C4A69918  35.497  39.048   7.136
 5466POPC   C1B69919  35.010  39.098   6.187
 5466POPC   C2B69920  34.941  39.134   6.620
 5466POPC   C3B69921  35.069  39.302   7.026
 5466POPC   C4B69922  35.190  39.261   7.485
 5467POPC   NC369923   4.578  33.706   5.426
 5467POPC   PO469924   3.961  34.083   5.255
 5467POPC   GL169925   4.214  33.988   5.704
 5467POPC   GL269926   4.265  33.671   5.882
 5467POPC   C1A69927   4.587  34.004   6.076
 5467POPC   D2A69928   4.605  33.742   6.466
 5467POPC   C3A69929   4.275  33.822   6.805
 5467POPC   C4A69930   4.227  33.645   7.240
 5467POPC   C1B69931   4.143  33.863   6.274
 5467POPC   C2B69932   3.977  34.181   6.512
 5467POPC   C3B69933   3.972  34.283   6.915
 5467POPC   C4B69934   3.850  33.963   7.163
 5468POPC   NC369935  24.165  42.633   5.431
 5468POPC   PO469936  24.307  41.937   5.506
 5468POPC   GL169937  24.481  42.080   5.873
 5468POPC   GL269938  24.652  42.385   5.765
 5468POPC   C1A69939  24.371  42.313   6.240
 5468POPC   D2A69940  24.429  42.450   6.663
 5468POPC   C3A69941  24.506  42.091   6.904
 5468POPC   C4A69942  24.451  42.082   7.322
 5468POPC   C1B69943  24.771  42.614   6.157
 5468POPC   C2B69944  24.927  42.536   6.595
 5468POPC   C3B69945  24.800  42.530   7.058
 5468POPC   C4B69946  24.677  42.535   7.505
 5469POPC   NC369947  43.588   4.850   5.518
 5469POPC   PO469948  43.774   5.439   5.282
 5469POPC   GL169949  43.875   5.241   5.731
 5469POPC   GL269950  43.593   5.142   5.921
 5469POPC   C1A69951  43.881   5.383   6.220
 5469POPC   D2A69952  43.624   5.145   6.538
 5469POPC   C3A69953  43.838   5.135   6.925
 5469POPC   C4A69954  44.197   5.349   7.063
 5469POPC   C1B69955  43.869   4.871   6.149
 5469POPC   C2B69956  43.824   4.662   6.545
 5469POPC   C3B69957  43.673   4.659   6.952
 5469POPC   C4B69958  43.988   4.694   7.220
 5470POPC   NC369959   6.336  31.595   5.491
 5470POPC   PO469960   6.803  31.167   5.692
 5470POPC   GL169961   6.718  31.600   5.964
 5470POPC   GL269962   6.452  31.851   5.905
 5470POPC   C1A69963   6.637  31.798   6.374
 5470POPC   D2A69964   6.570  31.390   6.522
 5470POPC   C3A69965   6.664  31.236   6.915
 5470POPC   C4A69966   6.488  31.323   7.323
 5470POPC   C1B69967   6.201  31.520   6.167
 5470POPC   C2B69968   6.053  31.501   6.605
 5470POPC   C3B69969   6.340  31.653   6.916
 5470POPC   C4B69970   6.370  31.816   7.312
 5471POPC   NC369971  42.856   2.745   5.291
 5471POPC   PO469972  43.486   2.995   5.426
 5471POPC   GL169973  43.182   2.921   5.760
 5471POPC   GL269974  43.034   2.583   5.750
 5471POPC   C1A69975  43.254   2.821   6.197
 5471POPC   D2A69976  43.357   2.660   6.597
 5471POPC   C3A69977  43.094   2.753   6.967
 5471POPC   C4A69978  42.865   2.783   7.345
 5471POPC   C1B69979  42.879   2.478   6.162
 5471POPC   C2B69980  42.744   2.506   6.632
 5471POPC   C3B69981  42.752   2.366   7.080
 5471POPC   C4B69982  42.861   2.291   7.523
 5472POPC   NC369983  11.644  17.909   5.444
 5472POPC   PO469984  11.892  17.303   5.386
 5472POPC   GL169985  12.108  17.543   5.751
 5472POPC   GL269986  12.480  17.515   5.814
 5472POPC   C1A69987  12.104  17.625   6.229
 5472POPC   D2A69988  11.790  17.543   6.592
 5472POPC   C3A69989  11.796  17.671   7.041
 5472POPC   C4A69990  12.149  17.727   7.343
 5472POPC   C1B69991  12.311  17.162   6.071
 5472POPC   C2B69992  12.134  17.154   6.488
 5472POPC   C3B69993  12.211  17.387   6.878
 5472POPC   C4B69994  12.000  17.245   7.248
 5473POPC   NC369995  15.729   7.622   5.248
 5473POPC   PO469996  15.908   8.248   5.430
 5473POPC   GL169997  15.922   8.430   5.815
 5473POPC   GL269998  15.630   8.225   5.906
 5473POPC   C1A69999  15.951   8.495   6.222
 5473POPC   D2A70000  15.717   8.383   6.552
 5473POPC   C3A70001  15.952   8.612   6.850
 5473POPC   C4A70002  16.016   8.443   7.270
 5473POPC   C1B70003  15.996   7.986   6.080
 5473POPC   C2B70004  16.244   8.094   6.442
 5473POPC   C3B70005  16.094   8.130   6.852
 5473POPC   C4B70006  16.132   7.959   7.254
 5474POPC   NC370007   9.933  28.821   5.284
 5474POPC   PO470008   9.764  28.189   5.373
 5474POPC   GL170009   9.769  28.420   5.752
 5474POPC   GL270010   9.560  28.721   5.667
 5474POPC   C1A70011   9.717  28.217   6.169
 5474POPC   D2A70012   9.904  28.044   6.559
 5474POPC   C3A70013   9.735  28.206   6.923
 5474POPC   C4A70014   9.327  28.121   7.028
 5474POPC   C1B70015   9.619  28.758   6.123
 5474POPC   C2B70016   9.692  28.572   6.534
 5474POPC   C3B70017   9.564  28.674   6.952
 5474POPC   C4B70018   9.864  28.741   7.197
 5475POPC   NC370019  18.778   8.169   5.423
 5475POPC   PO470020  19.401   8.436   5.329
 5475POPC   GL170021  19.155   8.522   5.726
 5475POPC   GL270022  18.825   8.432   5.849
 5475POPC   C1A70023  19.150   8.607   6.199
 5475POPC   D2A70024  19.423   8.529   6.593
 5475POPC   C3A70025  19.205   8.404   6.983
 5475POPC   C4A70026  19.150   7.983   7.121
 5475POPC   C1B70027  18.712   8.255   6.227
 5475POPC   C2B70028  18.831   8.217   6.661
 5475POPC   C3B70029  18.698   8.201   7.078
 5475POPC   C4B70030  18.700   7.945   7.439
 5476POPC   NC370031  23.245  15.846   5.114
 5476POPC   PO470032  22.745  16.176   5.189
 5476POPC   GL170033  22.837  15.899   5.603
 5476POPC   GL270034  23.095  15.614   5.578
 5476POPC   C1A70035  22.766  15.949   6.075
 5476POPC   D2A70036  22.622  16.014   6.508
 5476POPC   C3A70037  22.855  16.175   6.850
 5476POPC   C4A70038  22.847  15.965   7.221
 5476POPC   C1B70039  23.174  15.618   6.034
 5476POPC   C2B70040  23.093  15.816   6.447
 5476POPC   C3B70041  23.201  15.795   6.877
 5476POPC   C4B70042  23.166  15.546   7.228
 5477POPC   NC370043  11.746  11.968   5.498
 5477POPC   PO470044  12.429  11.820   5.431
 5477POPC   GL170045  12.156  11.947   5.806
 5477POPC   GL270046  11.885  12.191   5.945
 5477POPC   C1A70047  12.284  12.029   6.224
 5477POPC   D2A70048  12.355  11.811   6.618
 5477POPC   C3A70049  12.261  12.025   7.013
 5477POPC   C4A70050  12.506  12.330   7.215
 5477POPC   C1B70051  11.786  11.844   6.226
 5477POPC   C2B70052  11.832  11.914   6.653
 5477POPC   C3B70053  11.765  12.172   7.018
 5477POPC   C4B70054  11.765  12.198   7.476
 5478POPC   NC370055  24.989  27.743   5.481
 5478POPC   PO470056  24.353  27.566   5.609
 5478POPC   GL170057  24.695  27.630   5.903
 5478POPC   GL270058  24.962  27.920   5.937
 5478POPC   C1A70059  24.543  27.482   6.304
 5478POPC   D2A70060  24.192  27.552   6.599
 5478POPC   C3A70061  24.273  27.407   7.043
 5478POPC   C4A70062  24.170  27.145   7.397
 5478POPC   C1B70063  24.720  27.955   6.291
 5478POPC   C2B70064  24.708  27.762   6.704
 5478POPC   C3B70065  24.856  27.914   7.075
 5478POPC   C4B70066  24.761  27.955   7.538
 5479POPC   NC370067  22.074  21.515   5.351
 5479POPC   PO470068  21.648  21.018   5.465
 5479POPC   GL170069  21.975  21.168   5.820
 5479POPC   GL270070  22.129  21.514   5.865
 5479POPC   C1A70071  22.111  21.261   6.283
 5479POPC   D2A70072  21.938  21.437   6.636
 5479POPC   C3A70073  22.148  21.414   6.998
 5479POPC   C4A70074  22.384  21.099   7.170
 5479POPC   C1B70075  21.999  21.793   6.240
 5479POPC   C2B70076  21.644  21.840   6.571
 5479POPC   C3B70077  21.815  21.815   6.997
 5479POPC   C4B70078  22.023  21.682   7.433
 5480POPC   NC370079  16.957  31.607   4.986
 5480POPC   PO470080  16.482  31.610   5.359
 5480POPC   GL170081  16.730  31.460   5.741
 5480POPC   GL270082  17.011  31.208   5.721
 5480POPC   C1A70083  16.664  31.251   6.142
 5480POPC   D2A70084  16.466  31.263   6.528
 5480POPC   C3A70085  16.577  31.560   6.853
 5480POPC   C4A70086  16.516  31.410   7.256
 5480POPC   C1B70087  17.172  31.341   6.121
 5480POPC   C2B70088  16.967  31.523   6.474
 5480POPC   C3B70089  17.110  31.591   6.885
 5480POPC   C4B70090  17.027  31.358   7.250
 5481POPC   NC370091   8.166  37.291   5.541
 5481POPC   PO470092   8.256  36.742   5.069
 5481POPC   GL170093   8.166  36.779   5.605
 5481POPC   GL270094   8.446  36.967   5.807
 5481POPC   C1A70095   8.198  36.679   6.129
 5481POPC   D2A70096   8.550  36.670   6.498
 5481POPC   C3A70097   8.430  36.723   6.962
 5481POPC   C4A70098   8.108  36.844   7.292
 5481POPC   C1B70099   8.253  37.190   6.191
 5481POPC   C2B70100   8.174  37.017   6.600
 5481POPC   C3B70101   8.260  37.220   6.975
 5481POPC   C4B70102   8.685  37.164   7.125
 5482POPC   NC370103  17.355  30.870   5.543
 5482POPC   PO470104  17.930  30.577   5.404
 5482POPC   GL170105  17.727  30.567   5.778
 5482POPC   GL270106  17.746  30.905   5.864
 5482POPC   C1A70107  17.536  30.421   6.175
 5482POPC   D2A70108  17.160  30.426   6.482
 5482POPC   C3A70109  17.321  30.442   6.937
 5482POPC   C4A70110  17.628  30.457   7.294
 5482POPC   C1B70111  17.448  30.908   6.200
 5482POPC   C2B70112  17.493  30.784   6.595
 5482POPC   C3B70113  17.654  30.860   6.971
 5482POPC   C4B70114  17.519  31.102   7.294
 5483POPC   NC370115  11.967  30.036   5.313
 5483POPC   PO470116  12.270  29.473   5.106
 5483POPC   GL170117  12.200  29.724   5.627
 5483POPC   GL270118  12.279  30.057   5.726
 5483POPC   C1A70119  12.067  29.812   6.108
 5483POPC   D2A70120  11.897  29.745   6.529
 5483POPC   C3A70121  12.228  29.593   6.841
 5483POPC   C4A70122  12.099  29.603   7.272
 5483POPC   C1B70123  12.300  30.260   6.134
 5483POPC   C2B70124  12.119  30.217   6.538
 5483POPC   C3B70125  12.029  30.052   6.938
 5483POPC   C4B70126  12.042  30.115   7.353
 5484POPC   NC370127  21.655  20.329   5.705
 5484POPC   PO470128  21.246  20.741   5.263
 5484POPC   GL170129  21.311  20.722   5.741
 5484POPC   GL270130  21.615  20.802   5.899
 5484POPC   C1A70131  21.293  20.574   6.213
 5484POPC   D2A70132  20.946  20.523   6.499
 5484POPC   C3A70133  20.979  20.666   6.891
 5484POPC   C4A70134  21.260  20.529   7.224
 5484POPC   C1B70135  21.721  20.936   6.279
 5484POPC   C2B70136  21.724  20.600   6.522
 5484POPC   C3B70137  21.428  20.432   6.744
 5484POPC   C4B70138  21.659  20.266   7.037
 5485POPC   NC370139  31.667  25.202   5.319
 5485POPC   PO470140  32.166  25.500   5.579
 5485POPC   GL170141  31.810  25.250   5.811
 5485POPC   GL270142  31.610  24.909   5.759
 5485POPC   C1A70143  31.638  25.356   6.228
 5485POPC   D2A70144  31.750  25.646   6.573
 5485POPC   C3A70145  31.707  25.426   6.967
 5485POPC   C4A70146  31.295  25.239   7.063
 5485POPC   C1B70147  31.487  24.839   6.209
 5485POPC   C2B70148  31.594  25.005   6.650
 5485POPC   C3B70149  31.722  24.935   7.099
 5485POPC   C4B70150  31.357  24.791   7.316
 5486POPC   NC370151  11.826  28.189   5.395
 5486POPC   PO470152  12.146  28.681   5.023
 5486POPC   GL170153  12.111  28.552   5.565
 5486POPC   GL270154  12.362  28.398   5.732
 5486POPC   C1A70155  11.945  28.499   6.023
 5486POPC   D2A70156  12.070  28.237   6.404
 5486POPC   C3A70157  12.053  28.482   6.819
 5486POPC   C4A70158  11.961  28.366   7.265
 5486POPC   C1B70159  12.450  28.499   6.162
 5486POPC   C2B70160  12.526  28.353   6.589
 5486POPC   C3B70161  12.372  28.097   6.950
 5486POPC   C4B70162  12.450  28.210   7.394
 5487POPC   NC370163   3.240  21.880   5.474
 5487POPC   PO470164   3.758  21.446   5.522
 5487POPC   GL170165   3.560  21.457   5.921
 5487POPC   GL270166   3.846  21.632   6.038
 5487POPC   C1A70167   3.560  21.410   6.403
 5487POPC   D2A70168   3.328  21.176   6.701
 5487POPC   C3A70169   3.350  21.263   7.126
 5487POPC   C4A70170   3.260  21.528   7.474
 5487POPC   C1B70171   3.933  21.168   6.154
 5487POPC   C2B70172   3.906  21.019   6.582
 5487POPC   C3B70173   3.816  21.330   6.891
 5487POPC   C4B70174   3.730  21.610   7.224
 5488POPC   NC370175   3.099  10.908   5.585
 5488POPC   PO470176   2.566  10.578   5.435
 5488POPC   GL170177   2.682  10.744   5.842
 5488POPC   GL270178   2.420  10.618   6.030
 5488POPC   C1A70179   2.928  10.815   6.218
 5488POPC   D2A70180   3.078  10.563   6.549
 5488POPC   C3A70181   2.898  10.690   6.919
 5488POPC   C4A70182   2.931  11.078   7.104
 5488POPC   C1B70183   2.487  10.214   6.279
 5488POPC   C2B70184   2.616  10.315   6.665
 5488POPC   C3B70185   2.458  10.461   7.046
 5488POPC   C4B70186   2.484  10.377   7.472
 5489POPC   NC370187  39.223  26.100   5.112
 5489POPC   PO470188  39.410  25.581   5.421
 5489POPC   GL170189  39.315  25.914   5.708
 5489POPC   GL270190  39.636  25.836   5.851
 5489POPC   C1A70191  39.025  26.087   6.054
 5489POPC   D2A70192  39.103  26.195   6.510
 5489POPC   C3A70193  38.892  26.072   6.913
 5489POPC   C4A70194  39.085  26.261   7.282
 5489POPC   C1B70195  39.507  26.089   6.176
 5489POPC   C2B70196  39.518  25.916   6.544
 5489POPC   C3B70197  39.415  26.062   6.933
 5489POPC   C4B70198  39.522  26.019   7.358
 5490POPC   NC370199  39.727  26.215   5.557
 5490POPC   PO470200  40.368  25.866   5.449
 5490POPC   GL170201  40.137  26.014   5.798
 5490POPC   GL270202  40.120  26.390   5.892
 5490POPC   C1A70203  40.000  26.007   6.211
 5490POPC   D2A70204  39.963  26.164   6.602
 5490POPC   C3A70205  40.216  26.043   6.937
 5490POPC   C4A70206  40.011  25.907   7.284
 5490POPC   C1B70207  39.793  26.511   6.239
 5490POPC   C2B70208  39.613  26.528   6.690
 5490POPC   C3B70209  39.812  26.336   7.067
 5490POPC   C4B70210  39.860  26.358   7.516
 5491POPC   NC370211  13.121  26.139   5.477
 5491POPC   PO470212  12.473  25.808   5.471
 5491POPC   GL170213  12.709  26.054   5.785
 5491POPC   GL270214  13.030  25.863   5.876
 5491POPC   C1A70215  12.704  26.086   6.226
 5491POPC   D2A70216  12.854  25.899   6.594
 5491POPC   C3A70217  12.616  26.020   6.954
 5491POPC   C4A70218  12.434  25.727   7.185
 5491POPC   C1B70219  13.206  26.105   6.185
 5491POPC   C2B70220  13.156  26.322   6.538
 5491POPC   C3B70221  13.092  26.210   6.933
 5491POPC   C4B70222  12.860  26.373   7.226
 5492POPC   NC370223  28.528  36.342   5.442
 5492POPC   PO470224  28.003  35.929   5.425
 5492POPC   GL170225  28.283  35.973   5.787
 5492POPC   GL270226  28.657  35.954   5.819
 5492POPC   C1A70227  28.284  36.011   6.223
 5492POPC   D2A70228  28.379  36.189   6.600
 5492POPC   C3A70229  28.545  36.013   6.951
 5492POPC   C4A70230  28.324  36.123   7.299
 5492POPC   C1B70231  28.731  36.263   6.172
 5492POPC   C2B70232  28.880  36.342   6.616
 5492POPC   C3B70233  28.929  36.548   7.033
 5492POPC   C4B70234  28.801  36.263   7.363
 5493POPC   NC370235   6.154  26.243   5.441
 5493POPC   PO470236   6.791  25.894   5.483
 5493POPC   GL170237   6.678  26.220   5.753
 5493POPC   GL270238   6.425  26.027   5.871
 5493POPC   C1A70239   6.818  26.240   6.188
 5493POPC   D2A70240   6.716  26.030   6.587
 5493POPC   C3A70241   6.796  26.183   7.025
 5493POPC   C4A70242   6.846  25.877   7.367
 5493POPC   C1B70243   6.270  25.772   6.219
 5493POPC   C2B70244   6.409  25.591   6.604
 5493POPC   C3B70245   6.536  25.742   6.981
 5493POPC   C4B70246   6.364  26.039   7.295
 5494POPC   NC370247  42.963  30.478   5.389
 5494POPC   PO470248  43.373  31.054   5.320
 5494POPC   GL170249  43.125  30.903   5.700
 5494POPC   GL270250  43.204  30.542   5.831
 5494POPC   C1A70251  42.916  31.028   6.118
 5494POPC   D2A70252  42.972  30.875   6.535
 5494POPC   C3A70253  42.934  31.075   6.929
 5494POPC   C4A70254  42.939  30.869   7.298
 5494POPC   C1B70255  43.280  30.543   6.269
 5494POPC   C2B70256  43.073  30.387   6.642
 5494POPC   C3B70257  43.260  30.368   7.052
 5494POPC   C4B70258  43.212  30.452   7.480
 5495POPC   NC370259  14.652  16.028   5.647
 5495POPC   PO470260  14.156  16.424   5.522
 5495POPC   GL170261  14.195  16.003   5.862
 5495POPC   GL270262  14.491  15.906   6.078
 5495POPC   C1A70263  14.097  15.801   6.336
 5495POPC   D2A70264  14.513  15.964   6.570
 5495POPC   C3A70265  14.578  16.040   6.961
 5495POPC   C4A70266  14.198  15.944   7.146
 5495POPC   C1B70267  14.797  15.655   6.280
 5495POPC   C2B70268  14.944  15.687   6.700
 5495POPC   C3B70269  14.800  15.585   7.069
 5495POPC   C4B70270  14.849  15.645   7.487
 5496POPC   NC370271  30.993   7.208   5.347
 5496POPC   PO470272  31.525   7.596   5.361
 5496POPC   GL170273  31.341   7.520   5.746
 5496POPC   GL270274  31.652   7.348   5.824
 5496POPC   C1A70275  31.363   7.553   6.218
 5496POPC   D2A70276  31.199   7.542   6.628
 5496POPC   C3A70277  31.436   7.558   6.995
 5496POPC   C4A70278  31.302   7.396   7.388
 5496POPC   C1B70279  31.870   7.567   6.170
 5496POPC   C2B70280  31.800   7.485   6.605
 5496POPC   C3B70281  31.935   7.339   6.985
 5496POPC   C4B70282  31.790   7.215   7.364
 5497POPC   NC370283  15.443   3.634   5.394
 5497POPC   PO470284  15.003   3.120   5.497
 5497POPC   GL170285  15.334   3.338   5.802
 5497POPC   GL270286  15.359   3.717   5.883
 5497POPC   C1A70287  15.270   3.396   6.271
 5497POPC   D2A70288  14.896   3.615   6.521
 5497POPC   C3A70289  14.877   3.499   6.963
 5497POPC   C4A70290  15.147   3.200   7.189
 5497POPC   C1B70291  15.285   3.897   6.299
 5497POPC   C2B70292  15.309   3.830   6.740
 5497POPC   C3B70293  15.352   3.680   7.154
 5497POPC   C4B70294  15.587   3.703   7.525
 5498POPC   NC370295  23.059  17.631   5.220
 5498POPC   PO470296  22.713  17.097   5.429
 5498POPC   GL170297  22.913  17.318   5.802
 5498POPC   GL270298  23.065  17.673   5.748
 5498POPC   C1A70299  22.860  17.496   6.226
 5498POPC   D2A70300  22.825  17.754   6.586
 5498POPC   C3A70301  22.826  17.587   6.994
 5498POPC   C4A70302  22.987  17.235   7.213
 5498POPC   C1B70303  23.281  18.026   5.997
 5498POPC   C2B70304  23.338  18.029   6.447
 5498POPC   C3B70305  23.220  17.915   6.871
 5498POPC   C4B70306  23.259  17.702   7.265
 5499POPC   NC370307   0.473   6.130   5.426
 5499POPC   PO470308   0.704   5.503   5.347
 5499POPC   GL170309   0.577   5.690   5.776
 5499POPC   GL270310   0.258   5.928   5.848
 5499POPC   C1A70311   0.496   5.696   6.231
 5499POPC   D2A70312   0.411   5.850   6.639
 5499POPC   C3A70313   0.540   5.619   7.013
 5499POPC   C4A70314   0.768   5.848   7.323
 5499POPC   C1B70315   0.112   6.207   6.206
 5499POPC   C2B70316   0.125   6.324   6.650
 5499POPC   C3B70317   0.038   6.184   7.061
 5499POPC   C4B70318   0.282   5.950   7.353
 5500POPC   NC370319  40.416  15.170   5.453
 5500POPC   PO470320  41.097  15.089   5.670
 5500POPC   GL170321  40.734  15.076   5.896
 5500POPC   GL270322  40.697  15.409   5.908
 5500POPC   C1A70323  40.579  15.126   6.318
 5500POPC   D2A70324  40.562  15.327   6.702
 5500POPC   C3A70325  40.419  15.020   6.980
 5500POPC   C4A70326  40.746  14.862   7.212
 5500POPC   C1B70327  40.857  15.625   6.308
 5500POPC   C2B70328  41.039  15.618   6.736
 5500POPC   C3B70329  40.876  15.509   7.127
 5500POPC   C4B70330  40.467  15.428   7.287
 5501POPC   NC370331  11.395  11.320   5.378
 5501POPC   PO470332  10.781  11.084   5.434
 5501POPC   GL170333  11.032  11.184   5.785
 5501POPC   GL270334  11.292  11.440   5.852
 5501POPC   C1A70335  11.064  11.108   6.226
 5501POPC   D2A70336  10.957  11.343   6.596
 5501POPC   C3A70337  11.184  11.275   6.990
 5501POPC   C4A70338  11.325  11.402   7.411
 5501POPC   C1B70339  11.563  11.237   6.203
 5501POPC   C2B70340  11.524  11.055   6.646
 5501POPC   C3B70341  11.704  11.198   7.057
 5501POPC   C4B70342  11.774  11.247   7.526
 5502POPC   NC370343  10.533   9.808   5.383
 5502POPC   PO470344  10.820  10.322   5.429
 5502POPC   GL170345  10.784   9.981   5.782
 5502POPC   GL270346  10.798   9.601   5.817
 5502POPC   C1A70347  10.655   9.972   6.205
 5502POPC   D2A70348  10.795   9.693   6.528
 5502POPC   C3A70349  10.601   9.667   6.921
 5502POPC   C4A70350  10.559   9.816   7.290
 5502POPC   C1B70351  10.504   9.473   6.162
 5502POPC   C2B70352  10.323   9.400   6.585
 5502POPC   C3B70353  10.377   9.218   7.023
 5502POPC   C4B70354  10.462   9.328   7.488
 5503POPC   NC370355   7.162   6.510   5.414
 5503POPC   PO470356   7.759   6.247   5.562
 5503POPC   GL170357   7.452   6.391   5.871
 5503POPC   GL270358   7.230   6.674   5.908
 5503POPC   C1A70359   7.241   6.359   6.304
 5503POPC   D2A70360   7.378   6.290   6.725
 5503POPC   C3A70361   7.297   6.494   7.088
 5503POPC   C4A70362   7.469   6.846   7.252
 5503POPC   C1B70363   7.291   6.878   6.313
 5503POPC   C2B70364   7.086   6.743   6.684
 5503POPC   C3B70365   6.996   6.935   7.092
 5503POPC   C4B70366   7.027   6.791   7.497
 5504POPC   NC370367  41.291  39.857   5.545
 5504POPC   PO470368  40.630  40.007   5.466
 5504POPC   GL170369  40.825  40.165   5.832
 5504POPC   GL270370  40.717  39.821   5.963
 5504POPC   C1A70371  41.016  40.105   6.253
 5504POPC   D2A70372  40.777  39.826   6.532
 5504POPC   C3A70373  40.766  39.980   6.978
 5504POPC   C4A70374  41.022  40.120   7.299
 5504POPC   C1B70375  40.450  40.103   6.209
 5504POPC   C2B70376  40.307  39.998   6.630
 5504POPC   C3B70377  40.305  40.185   7.009
 5504POPC   C4B70378  40.477  40.289   7.367
 5505POPC   NC370379  23.011  18.638   5.288
 5505POPC   PO470380  22.956  18.060   5.308
 5505POPC   GL170381  22.752  18.119   5.713
 5505POPC   GL270382  22.904  18.427   5.789
 5505POPC   C1A70383  22.805  18.048   6.161
 5505POPC   D2A70384  22.914  18.285   6.550
 5505POPC   C3A70385  22.744  18.150   6.922
 5505POPC   C4A70386  22.966  18.151   7.258
 5505POPC   C1B70387  23.146  18.564   6.161
 5505POPC   C2B70388  23.391  18.582   6.555
 5505POPC   C3B70389  23.347  18.399   6.959
 5505POPC   C4B70390  23.275  18.559   7.393
 5506POPC   NC370391  28.562   2.328   5.395
 5506POPC   PO470392  28.337   1.754   5.290
 5506POPC   GL170393  28.255   1.797   5.757
 5506POPC   GL270394  28.147   2.146   5.741
 5506POPC   C1A70395  28.364   1.638   6.211
 5506POPC   D2A70396  28.567   1.794   6.597
 5506POPC   C3A70397  28.502   1.673   7.027
 5506POPC   C4A70398  28.287   1.735   7.439
 5506POPC   C1B70399  28.213   2.165   6.200
 5506POPC   C2B70400  28.123   2.078   6.659
 5506POPC   C3B70401  28.230   2.127   7.112
 5506POPC   C4B70402  28.188   2.257   7.546
 5507POPC   NC370403  12.302  19.685   5.212
 5507POPC   PO470404  12.283  19.021   5.377
 5507POPC   GL170405  12.203  19.091   5.839
 5507POPC   GL270406  12.553  19.126   5.908
 5507POPC   C1A70407  11.881  19.088   6.215
 5507POPC   D2A70408  11.917  18.979   6.663
 5507POPC   C3A70409  11.962  19.227   7.067
 5507POPC   C4A70410  12.054  19.244   7.555
 5507POPC   C1B70411  12.399  19.068   6.341
 5507POPC   C2B70412  12.435  19.053   6.794
 5507POPC   C3B70413  12.401  19.064   7.229
 5507POPC   C4B70414  12.621  19.187   7.600
 5508POPC   NC370415  33.121  21.782   5.503
 5508POPC   PO470416  32.752  22.341   5.433
 5508POPC   GL170417  32.758  22.053   5.782
 5508POPC   GL270418  33.107  22.196   5.844
 5508POPC   C1A70419  32.820  22.012   6.249
 5508POPC   D2A70420  32.810  22.322   6.602
 5508POPC   C3A70421  33.015  22.324   7.037
 5508POPC   C4A70422  32.939  22.398   7.522
 5508POPC   C1B70423  33.360  22.161   6.226
 5508POPC   C2B70424  33.268  22.041   6.653
 5508POPC   C3B70425  33.454  21.972   7.059
 5508POPC   C4B70426  33.349  22.101   7.466
 5509POPC   NC370427   7.296  22.514   5.335
 5509POPC   PO470428   7.452  21.840   5.411
 5509POPC   GL170429   7.612  22.053   5.782
 5509POPC   GL270430   7.609  22.400   5.717
 5509POPC   C1A70431   7.777  22.265   6.167
 5509POPC   D2A70432   7.544  22.290   6.543
 5509POPC   C3A70433   7.733  22.126   6.914
 5509POPC   C4A70434   7.548  21.871   7.247
 5509POPC   C1B70435   7.287  22.340   6.075
 5509POPC   C2B70436   7.127  22.576   6.437
 5509POPC   C3B70437   7.150  22.421   6.854
 5509POPC   C4B70438   7.343  22.322   7.219
 5510POPC   NC370439  31.466  39.257   4.935
 5510POPC   PO470440  31.727  39.266   5.522
 5510POPC   GL170441  31.624  39.101   5.926
 5510POPC   GL270442  31.356  39.323   6.019
 5510POPC   C1A70443  31.515  38.943   6.355
 5510POPC   D2A70444  31.252  39.052   6.719
 5510POPC   C3A70445  31.457  39.101   7.147
 5510POPC   C4A70446  31.865  39.089   7.345
 5510POPC   C1B70447  31.733  39.406   6.326
 5510POPC   C2B70448  31.734  39.335   6.765
 5510POPC   C3B70449  31.652  39.592   7.122
 5510POPC   C4B70450  31.566  39.570   7.537
 5511POPC   NC370451  41.344  42.425   5.344
 5511POPC   PO470452  41.870  42.059   5.334
 5511POPC   GL170453  41.643  42.198   5.729
 5511POPC   GL270454  41.540  42.548   5.788
 5511POPC   C1A70455  41.493  42.230   6.171
 5511POPC   D2A70456  41.522  42.113   6.573
 5511POPC   C3A70457  41.361  42.363   6.899
 5511POPC   C4A70458  41.312  42.265   7.332
 5511POPC   C1B70459  41.564  42.763   6.164
 5511POPC   C2B70460  41.685  42.633   6.534
 5511POPC   C3B70461  41.773  42.833   6.882
 5511POPC   C4B70462  41.565  42.712   7.231
 5512POPC   NC370463  11.760  29.085   5.542
 5512POPC   PO470464  11.079  29.443   5.492
 5512POPC   GL170465  11.214  29.161   5.820
 5512POPC   GL270466  11.245  28.810   5.715
 5512POPC   C1A70467  11.056  29.034   6.243
 5512POPC   D2A70468  11.007  29.156   6.684
 5512POPC   C3A70469  11.302  29.187   7.051
 5512POPC   C4A70470  11.169  29.266   7.509
 5512POPC   C1B70471  11.450  28.715   6.133
 5512POPC   C2B70472  11.415  28.857   6.592
 5512POPC   C3B70473  11.623  28.768   7.013
 5512POPC   C4B70474  11.461  28.853   7.433
 5513POPC   NC370475  31.346   9.994   5.204
 5513POPC   PO470476  31.928   9.769   5.337
 5513POPC   GL170477  31.697   9.917   5.688
 5513POPC   GL270478  31.354   9.905   5.710
 5513POPC   C1A70479  31.651   9.764   6.110
 5513POPC   D2A70480  31.398   9.539   6.416
 5513POPC   C3A70481  31.581   9.624   6.823
 5513POPC   C4A70482  31.502   9.762   7.230
 5513POPC   C1B70483  31.240  10.062   6.134
 5513POPC   C2B70484  31.205   9.973   6.573
 5513POPC   C3B70485  31.298  10.137   6.963
 5513POPC   C4B70486  31.157  10.095   7.405
 5514POPC   NC370487  16.055   2.200   5.357
 5514POPC   PO470488  16.125   1.603   5.527
 5514POPC   GL170489  16.104   2.013   5.832
 5514POPC   GL270490  16.342   2.307   5.833
 5514POPC   C1A70491  15.933   2.184   6.243
 5514POPC   D2A70492  15.996   1.970   6.655
 5514POPC   C3A70493  15.817   2.063   7.066
 5514POPC   C4A70494  15.599   1.837   7.417
 5514POPC   C1B70495  16.431   2.281   6.298
 5514POPC   C2B70496  16.211   2.425   6.677
 5514POPC   C3B70497  16.327   2.250   7.094
 5514POPC   C4B70498  16.701   2.136   7.347
 5515POPC   NC370499  41.447   9.897   5.418
 5515POPC   PO470500  41.958   9.417   5.458
 5515POPC   GL170501  41.932   9.581   5.861
 5515POPC   GL270502  41.775   9.884   5.814
 5515POPC   C1A70503  41.657   9.508   6.219
 5515POPC   D2A70504  41.311   9.700   6.460
 5515POPC   C3A70505  41.488   9.729   6.852
 5515POPC   C4A70506  41.639   9.418   7.097
 5515POPC   C1B70507  41.551  10.016   6.139
 5515POPC   C2B70508  41.749  10.051   6.546
 5515POPC   C3B70509  41.734  10.196   6.975
 5515POPC   C4B70510  41.456   9.968   7.295
 5516POPC   NC370511  40.153  16.596   5.265
 5516POPC   PO470512  39.657  17.025   5.307
 5516POPC   GL170513  39.866  16.888   5.711
 5516POPC   GL270514  40.234  16.818   5.781
 5516POPC   C1A70515  39.774  16.829   6.170
 5516POPC   D2A70516  39.923  16.916   6.606
 5516POPC   C3A70517  39.687  16.800   6.981
 5516POPC   C4A70518  39.712  16.578   7.365
 5516POPC   C1B70519  40.269  16.581   6.163
 5516POPC   C2B70520  40.371  16.575   6.597
 5516POPC   C3B70521  40.199  16.720   6.992
 5516POPC   C4B70522  40.131  16.852   7.395
 5517POPC   NC370523  36.787  37.873   5.661
 5517POPC   PO470524  37.215  37.460   5.472
 5517POPC   GL170525  37.211  37.718   5.881
 5517POPC   GL270526  37.071  37.455   6.002
 5517POPC   C1A70527  37.000  37.872   6.302
 5517POPC   D2A70528  37.068  37.818   6.775
 5517POPC   C3A70529  36.768  37.929   7.110
 5517POPC   C4A70530  36.800  37.818   7.532
 5517POPC   C1B70531  36.812  37.357   6.322
 5517POPC   C2B70532  36.780  37.373   6.760
 5517POPC   C3B70533  36.898  37.443   7.169
 5517POPC   C4B70534  36.891  37.288   7.573
 5518POPC   NC370535  26.350  29.342   5.374
 5518POPC   PO470536  25.814  28.876   5.432
 5518POPC   GL170537  25.827  29.048   5.823
 5518POPC   GL270538  26.127  29.230   5.817
 5518POPC   C1A70539  25.832  29.162   6.248
 5518POPC   D2A70540  25.743  29.336   6.622
 5518POPC   C3A70541  25.932  29.067   6.904
 5518POPC   C4A70542  26.110  28.808   7.186
 5518POPC   C1B70543  26.232  29.491   6.182
 5518POPC   C2B70544  26.104  29.744   6.523
 5518POPC   C3B70545  26.104  29.566   6.927
 5518POPC   C4B70546  26.222  29.301   7.247
 5519POPC   NC370547   2.898   8.491   5.359
 5519POPC   PO470548   2.607   7.913   5.260
 5519POPC   GL170549   2.586   8.117   5.699
 5519POPC   GL270550   2.911   8.315   5.840
 5519POPC   C1A70551   2.647   8.001   6.144
 5519POPC   D2A70552   2.904   8.162   6.476
 5519POPC   C3A70553   2.957   7.969   6.888
 5519POPC   C4A70554   2.806   8.113   7.272
 5519POPC   C1B70555   2.604   8.494   6.125
 5519POPC   C2B70556   2.422   8.373   6.516
 5519POPC   C3B70557   2.670   8.436   6.851
 5519POPC   C4B70558   2.658   8.669   7.197
 5520POPC   NC370559  25.515  36.359   5.405
 5520POPC   PO470560  25.183  35.741   5.311
 5520POPC   GL170561  25.177  35.853   5.727
 5520POPC   GL270562  25.511  35.946   5.740
 5520POPC   C1A70563  25.028  35.879   6.176
 5520POPC   D2A70564  24.955  36.139   6.575
 5520POPC   C3A70565  24.988  36.039   7.030
 5520POPC   C4A70566  25.001  36.356   7.363
 5520POPC   C1B70567  25.533  36.100   6.171
 5520POPC   C2B70568  25.474  36.208   6.621
 5520POPC   C3B70569  25.517  35.950   7.003
 5520POPC   C4B70570  25.366  35.988   7.424
 5521POPC   NC370571  10.870  10.699   5.687
 5521POPC   PO470572  10.245  10.548   5.406
 5521POPC   GL170573  10.365  10.651   5.848
 5521POPC   GL270574  10.535  10.384   5.911
 5521POPC   C1A70575  10.661  10.712   6.296
 5521POPC   D2A70576  11.029  10.766   6.613
 5521POPC   C3A70577  10.986  10.630   7.055
 5521POPC   C4A70578  10.671  10.579   7.399
 5521POPC   C1B70579  10.286  10.372   6.273
 5521POPC   C2B70580  10.304  10.523   6.689
 5521POPC   C3B70581  10.415  10.319   7.051
 5521POPC   C4B70582  10.287  10.210   7.471
 5522POPC   NC370583  31.580  43.247   5.250
 5522POPC   PO470584  31.818  42.699   5.518
 5522POPC   GL170585  31.687  42.887   5.910
 5522POPC   GL270586  31.622  43.226   5.854
 5522POPC   C1A70587  31.505  43.050   6.321
 5522POPC   D2A70588  31.176  43.243   6.589
 5522POPC   C3A70589  31.330  43.172   7.005
 5522POPC   C4A70590  31.633  42.827   7.065
 5522POPC   C1B70591  31.828  43.443   6.249
 5522POPC   C2B70592  31.805  43.289   6.691
 5522POPC   C3B70593  31.714  43.523   7.061
 5522POPC   C4B70594  31.711  43.543   7.535
 5523POPC   NC370595  42.196  32.566   5.179
 5523POPC   PO470596  42.084  32.049   5.610
 5523POPC   GL170597  41.998  32.351   5.875
 5523POPC   GL270598  42.271  32.550   5.691
 5523POPC   C1A70599  41.986  32.281   6.334
 5523POPC   D2A70600  42.366  32.093   6.444
 5523POPC   C3A70601  42.463  32.095   6.856
 5523POPC   C4A70602  42.175  32.208   7.179
 5523POPC   C1B70603  42.450  32.526   6.095
 5523POPC   C2B70604  42.363  32.605   6.514
 5523POPC   C3B70605  42.627  32.724   6.815
 5523POPC   C4B70606  42.656  32.459   7.170
 5524POPC   NC370607  31.318  14.382   5.148
 5524POPC   PO470608  31.952  14.414   5.457
 5524POPC   GL170609  31.669  14.344   5.826
 5524POPC   GL270610  31.341  14.356   5.695
 5524POPC   C1A70611  31.489  14.534   6.203
 5524POPC   D2A70612  31.530  14.462   6.641
 5524POPC   C3A70613  31.350  14.163   6.940
 5524POPC   C4A70614  31.460  14.440   7.260
 5524POPC   C1B70615  31.023  14.502   6.008
 5524POPC   C2B70616  31.023  14.589   6.483
 5524POPC   C3B70617  31.150  14.676   6.928
 5524POPC   C4B70618  31.024  14.705   7.360
 5525POPC   NC370619  42.073  26.907   5.489
 5525POPC   PO470620  42.746  27.178   5.550
 5525POPC   GL170621  42.473  26.881   5.852
 5525POPC   GL270622  42.124  26.691   5.938
 5525POPC   C1A70623  42.328  26.953   6.305
 5525POPC   D2A70624  42.319  27.170   6.692
 5525POPC   C3A70625  42.187  26.948   7.060
 5525POPC   C4A70626  42.289  26.903   7.518
 5525POPC   C1B70627  42.169  26.445   6.333
 5525POPC   C2B70628  42.216  26.480   6.800
 5525POPC   C3B70629  42.301  26.482   7.251
 5525POPC   C4B70630  42.242  26.444   7.746
 5526POPC   NC370631  37.523   9.405   5.380
 5526POPC   PO470632  37.855   8.837   5.382
 5526POPC   GL170633  37.880   8.919   5.806
 5526POPC   GL270634  37.529   8.857   5.822
 5526POPC   C1A70635  38.149   8.885   6.178
 5526POPC   D2A70636  38.183   8.717   6.605
 5526POPC   C3A70637  37.889   8.925   6.856
 5526POPC   C4A70638  37.887   9.100   7.234
 5526POPC   C1B70639  37.614   8.998   6.261
 5526POPC   C2B70640  37.584   9.315   6.580
 5526POPC   C3B70641  37.444   9.210   7.000
 5526POPC   C4B70642  37.501   8.787   7.223
 5527POPC   NC370643   3.892  35.326   5.294
 5527POPC   PO470644   3.272  35.594   5.531
 5527POPC   GL170645   3.473  35.549   5.900
 5527POPC   GL270646   3.769  35.390   5.796
 5527POPC   C1A70647   3.474  35.541   6.367
 5527POPC   D2A70648   3.162  35.542   6.676
 5527POPC   C3A70649   3.369  35.697   7.011
 5527POPC   C4A70650   3.683  35.512   7.251
 5527POPC   C1B70651   3.587  35.112   6.132
 5527POPC   C2B70652   3.482  34.989   6.535
 5527POPC   C3B70653   3.454  35.174   6.945
 5527POPC   C4B70654   3.440  35.067   7.404
 5528POPC   NC370655  12.809  21.409   5.368
 5528POPC   PO470656  13.150  20.822   5.505
 5528POPC   GL170657  13.040  21.211   5.844
 5528POPC   GL270658  12.914  21.607   5.826
 5528POPC   C1A70659  12.968  21.414   6.287
 5528POPC   D2A70660  13.093  21.416   6.733
 5528POPC   C3A70661  12.912  21.247   7.111
 5528POPC   C4A70662  12.960  21.340   7.578
 5528POPC   C1B70663  12.618  21.787   6.113
 5528POPC   C2B70664  12.585  21.670   6.541
 5528POPC   C3B70665  12.698  21.779   6.936
 5528POPC   C4B70666  12.717  21.696   7.345
 5529POPC   NC370667  42.599   7.140   5.305
 5529POPC   PO470668  42.129   7.529   5.254
 5529POPC   GL170669  42.229   7.414   5.719
 5529POPC   GL270670  42.325   7.037   5.749
 5529POPC   C1A70671  42.268   7.644   6.149
 5529POPC   D2A70672  42.472   7.841   6.516
 5529POPC   C3A70673  42.652   7.538   6.821
 5529POPC   C4A70674  42.543   7.535   7.275
 5529POPC   C1B70675  42.421   7.168   6.188
 5529POPC   C2B70676  42.252   7.247   6.596
 5529POPC   C3B70677  42.410   7.102   7.006
 5529POPC   C4B70678  42.507   7.039   7.459
 5530POPC   NC370679   6.740  27.014   5.192
 5530POPC   PO470680   6.196  26.704   5.437
 5530POPC   GL170681   6.496  26.718   5.727
 5530POPC   GL270682   6.484  27.057   5.776
 5530POPC   C1A70683   6.548  26.715   6.172
 5530POPC   D2A70684   6.677  26.559   6.581
 5530POPC   C3A70685   6.962  26.806   6.833
 5530POPC   C4A70686   6.859  26.658   7.223
 5530POPC   C1B70687   6.443  27.230   6.178
 5530POPC   C2B70688   6.522  27.064   6.574
 5530POPC   C3B70689   6.485  26.939   6.978
 5530POPC   C4B70690   6.447  27.104   7.371
 5531POPC   NC370691  44.607  10.602   5.351
 5531POPC   PO470692  43.994  10.493   5.167
 5531POPC   GL170693  44.061  10.509   5.656
 5531POPC   GL270694  43.723  10.492   5.864
 5531POPC   C1A70695  44.084  10.741   6.083
 5531POPC   D2A70696  43.911  10.912   6.482
 5531POPC   C3A70697  44.016  10.758   6.884
 5531POPC   C4A70698  44.134  10.391   7.103
 5531POPC   C1B70699  43.595  10.561   6.282
 5531POPC   C2B70700  43.541  10.609   6.718
 5531POPC   C3B70701  43.623  10.511   7.120
 5531POPC   C4B70702  43.559  10.727   7.498
 5532POPC   NC370703  40.988  38.920   5.309
 5532POPC   PO470704  40.762  38.218   5.459
 5532POPC   GL170705  40.819  38.507   5.794
 5532POPC   GL270706  41.152  38.655   5.754
 5532POPC   C1A70707  40.664  38.477   6.250
 5532POPC   D2A70708  40.676  38.698   6.688
 5532POPC   C3A70709  40.662  38.431   7.088
 5532POPC   C4A70710  40.541  38.419   7.551
 5532POPC   C1B70711  41.170  38.388   6.144
 5532POPC   C2B70712  41.185  38.159   6.521
 5532POPC   C3B70713  41.164  38.245   6.945
 5532POPC   C4B70714  41.141  38.649   7.111
 5533POPC   NC370715  24.781  16.720   5.370
 5533POPC   PO470716  24.195  16.482   5.304
 5533POPC   GL170717  24.392  16.718   5.731
 5533POPC   GL270718  24.681  17.024   5.763
 5533POPC   C1A70719  24.154  16.813   6.134
 5533POPC   D2A70720  24.094  16.956   6.545
 5533POPC   C3A70721  24.365  16.887   6.903
 5533POPC   C4A70722  24.314  16.664   7.287
 5533POPC   C1B70723  24.659  16.839   6.165
 5533POPC   C2B70724  24.776  16.863   6.584
 5533POPC   C3B70725  24.883  17.061   6.951
 5533POPC   C4B70726  24.688  16.990   7.334
 5534POPC   NC370727  27.588  17.424   4.918
 5534POPC   PO470728  27.842  17.661   5.355
 5534POPC   GL170729  27.944  17.444   5.773
 5534POPC   GL270730  27.793  17.101   5.802
 5534POPC   C1A70731  27.864  17.449   6.252
 5534POPC   D2A70732  27.575  17.498   6.618
 5534POPC   C3A70733  27.642  17.388   7.082
 5534POPC   C4A70734  27.468  17.649   7.445
 5534POPC   C1B70735  27.612  17.017   6.242
 5534POPC   C2B70736  27.659  17.005   6.705
 5534POPC   C3B70737  27.566  16.795   7.097
 5534POPC   C4B70738  27.785  16.790   7.510
 5535POPC   NC370739  37.957  13.184   5.437
 5535POPC   PO470740  37.534  12.755   5.287
 5535POPC   GL170741  37.616  12.848   5.767
 5535POPC   GL270742  37.956  12.894   5.854
 5535POPC   C1A70743  37.722  12.667   6.221
 5535POPC   D2A70744  37.633  12.791   6.631
 5535POPC   C3A70745  37.542  12.507   6.977
 5535POPC   C4A70746  37.457  12.699   7.390
 5535POPC   C1B70747  38.030  13.140   6.245
 5535POPC   C2B70748  38.103  12.998   6.681
 5535POPC   C3B70749  37.862  12.916   7.082
 5535POPC   C4B70750  37.934  12.877   7.520
 5536POPC   NC370751  11.464  40.098   5.578
 5536POPC   PO470752  11.044  39.574   5.348
 5536POPC   GL170753  11.054  39.822   5.779
 5536POPC   GL270754  10.974  40.201   5.840
 5536POPC   C1A70755  11.293  39.936   6.182
 5536POPC   D2A70756  11.541  39.692   6.495
 5536POPC   C3A70757  11.604  39.828   6.931
 5536POPC   C4A70758  11.375  39.813   7.335
 5536POPC   C1B70759  11.093  40.395   6.263
 5536POPC   C2B70760  11.405  40.227   6.591
 5536POPC   C3B70761  11.223  40.159   6.978
 5536POPC   C4B70762  10.843  40.287   7.154
 5537POPC   NC370763   3.827  30.174   5.506
 5537POPC   PO470764   3.277  29.818   5.490
 5537POPC   GL170765   3.515  29.924   5.824
 5537POPC   GL270766   3.740  29.656   5.827
 5537POPC   C1A70767   3.557  30.103   6.223
 5537POPC   D2A70768   3.345  30.068   6.615
 5537POPC   C3A70769   3.675  30.209   6.876
 5537POPC   C4A70770   3.666  30.271   7.283
 5537POPC   C1B70771   3.657  29.562   6.268
 5537POPC   C2B70772   3.655  29.677   6.728
 5537POPC   C3B70773   3.759  29.785   7.148
 5537POPC   C4B70774   3.818  29.871   7.593
 5538POPC   NC370775  42.488  39.301   5.354
 5538POPC   PO470776  41.904  39.664   5.398
 5538POPC   GL170777  42.103  39.374   5.727
 5538POPC   GL270778  42.109  39.005   5.692
 5538POPC   C1A70779  42.412  39.387   6.076
 5538POPC   D2A70780  42.492  39.346   6.537
 5538POPC   C3A70781  42.329  39.566   6.932
 5538POPC   C4A70782  42.083  39.768   7.265
 5538POPC   C1B70783  42.085  38.987   6.145
 5538POPC   C2B70784  42.284  38.876   6.542
 5538POPC   C3B70785  42.375  39.044   6.953
 5538POPC   C4B70786  42.020  39.215   7.187
 5539POPC   NC370787   1.607  23.594   5.427
 5539POPC   PO470788   2.088  24.032   5.451
 5539POPC   GL170789   1.915  23.802   5.814
 5539POPC   GL270790   1.939  23.436   5.819
 5539POPC   C1A70791   1.902  23.912   6.248
 5539POPC   D2A70792   2.172  24.088   6.563
 5539POPC   C3A70793   2.080  24.000   6.978
 5539POPC   C4A70794   2.159  23.855   7.374
 5539POPC   C1B70795   1.721  23.439   6.239
 5539POPC   C2B70796   1.780  23.660   6.671
 5539POPC   C3B70797   1.827  23.560   7.109
 5539POPC   C4B70798   1.764  23.571   7.580
 5540POPC   NC370799  38.029  39.844   5.475
 5540POPC   PO470800  38.531  40.138   4.987
 5540POPC   GL170801  38.565  40.161   5.510
 5540POPC   GL270802  38.906  40.200   5.655
 5540POPC   C1A70803  38.506  39.999   6.006
 5540POPC   D2A70804  38.489  39.688   6.408
 5540POPC   C3A70805  38.436  39.750   6.890
 5540POPC   C4A70806  38.446  39.966   7.330
 5540POPC   C1B70807  38.987  40.186   6.116
 5540POPC   C2B70808  38.927  39.969   6.523
 5540POPC   C3B70809  38.911  39.980   6.982
 5540POPC   C4B70810  38.953  40.300   7.343
 5541POPC   NC370811  35.978  14.174   5.361
 5541POPC   PO470812  36.486  14.537   5.445
 5541POPC   GL170813  36.328  14.484   5.876
 5541POPC   GL270814  35.977  14.351   5.839
 5541POPC   C1A70815  36.081  14.682   6.249
 5541POPC   D2A70816  35.862  14.711   6.669
 5541POPC   C3A70817  35.979  14.414   7.032
 5541POPC   C4A70818  36.226  14.327   7.451
 5541POPC   C1B70819  36.059  14.117   6.207
 5541POPC   C2B70820  35.781  14.195   6.566
 5541POPC   C3B70821  35.648  14.027   6.955
 5541POPC   C4B70822  35.964  13.943   7.263
 5542POPC   NC370823  26.339  26.790   5.559
 5542POPC   PO470824  25.991  27.193   5.103
 5542POPC   GL170825  25.820  27.139   5.594
 5542POPC   GL270826  26.008  26.936   5.882
 5542POPC   C1A70827  25.670  27.216   6.078
 5542POPC   D2A70828  25.906  27.069   6.485
 5542POPC   C3A70829  25.739  26.812   6.856
 5542POPC   C4A70830  25.638  26.960   7.270
 5542POPC   C1B70831  26.027  26.639   6.232
 5542POPC   C2B70832  26.193  26.649   6.656
 5542POPC   C3B70833  26.355  26.429   7.013
 5542POPC   C4B70834  26.167  26.097   7.288
 5543POPC   NC370835   3.499  38.167   5.268
 5543POPC   PO470836   3.142  38.610   5.406
 5543POPC   GL170837   3.330  38.483   5.792
 5543POPC   GL270838   3.462  38.117   5.793
 5543POPC   C1A70839   3.332  38.646   6.227
 5543POPC   D2A70840   3.422  38.474   6.636
 5543POPC   C3A70841   3.683  38.612   6.947
 5543POPC   C4A70842   3.494  38.608   7.304
 5543POPC   C1B70843   3.656  38.224   6.206
 5543POPC   C2B70844   3.842  38.207   6.642
 5543POPC   C3B70845   3.558  38.141   7.037
 5543POPC   C4B70846   3.542  38.165   7.529
 5544POPC   NC370847  11.327  22.063   5.128
 5544POPC   PO470848  11.022  22.567   5.434
 5544POPC   GL170849  11.023  22.196   5.709
 5544POPC   GL270850  11.307  21.959   5.696
 5544POPC   C1A70851  11.069  22.136   6.166
 5544POPC   D2A70852  11.116  21.866   6.529
 5544POPC   C3A70853  11.027  22.130   6.868
 5544POPC   C4A70854  11.183  22.423   7.148
 5544POPC   C1B70855  11.427  21.766   6.101
 5544POPC   C2B70856  11.644  21.755   6.517
 5544POPC   C3B70857  11.537  21.991   6.896
 5544POPC   C4B70858  11.296  21.924   7.289
 5545POPC   NC370859  13.933  19.873   5.317
 5545POPC   PO470860  14.562  20.146   5.313
 5545POPC   GL170861  14.471  19.796   5.659
 5545POPC   GL270862  14.106  19.729   5.782
 5545POPC   C1A70863  14.510  19.618   6.087
 5545POPC   D2A70864  14.350  19.769   6.485
 5545POPC   C3A70865  14.277  19.642   6.911
 5545POPC   C4A70866  14.486  19.971   7.199
 5545POPC   C1B70867  14.224  20.071   6.053
 5545POPC   C2B70868  14.084  20.207   6.465
 5545POPC   C3B70869  14.103  20.109   6.884
 5545POPC   C4B70870  14.092  20.314   7.285
 5546POPC   NC370871  20.875   5.115   5.112
 5546POPC   PO470872  20.320   5.032   5.517
 5546POPC   GL170873  20.463   5.268   5.870
 5546POPC   GL270874  20.810   5.221   5.866
 5546POPC   C1A70875  20.598   5.373   6.312
 5546POPC   D2A70876  20.468   5.174   6.707
 5546POPC   C3A70877  20.728   5.229   7.092
 5546POPC   C4A70878  20.577   5.150   7.526
 5546POPC   C1B70879  20.785   4.893   6.281
 5546POPC   C2B70880  20.815   4.785   6.753
 5546POPC   C3B70881  21.102   4.838   7.141
 5546POPC   C4B70882  21.082   5.163   7.487
 5547POPC   NC370883  34.904  41.353   5.256
 5547POPC   PO470884  34.351  41.351   5.606
 5547POPC   GL170885  34.516  41.469   5.922
 5547POPC   GL270886  34.759  41.664   5.824
 5547POPC   C1A70887  34.431  41.439   6.326
 5547POPC   D2A70888  34.599  41.235   6.665
 5547POPC   C3A70889  34.405  41.363   7.031
 5547POPC   C4A70890  34.541  41.560   7.414
 5547POPC   C1B70891  34.691  41.870   6.212
 5547POPC   C2B70892  34.407  41.919   6.559
 5547POPC   C3B70893  34.512  41.859   6.977
 5547POPC   C4B70894  34.420  42.049   7.350
 5548POPC   NC370895   5.707  22.960   5.095
 5548POPC   PO470896   5.080  22.958   5.311
 5548POPC   GL170897   4.899  22.921   5.730
 5548POPC   GL270898   5.160  23.088   5.858
 5548POPC   C1A70899   4.790  23.013   6.187
 5548POPC   D2A70900   4.964  23.076   6.592
 5548POPC   C3A70901   4.819  23.139   7.013
 5548POPC   C4A70902   4.865  22.926   7.406
 5548POPC   C1B70903   5.275  22.800   6.189
 5548POPC   C2B70904   5.241  22.641   6.592
 5548POPC   C3B70905   5.285  22.866   6.947
 5548POPC   C4B70906   5.381  22.642   7.272
 5549POPC   NC370907   8.457  34.333   5.398
 5549POPC   PO470908   7.910  34.829   5.366
 5549POPC   GL170909   8.205  34.792   5.712
 5549POPC   GL270910   8.169  34.462   5.864
 5549POPC   C1A70911   8.193  34.867   6.182
 5549POPC   D2A70912   8.283  34.726   6.611
 5549POPC   C3A70913   8.082  34.843   6.956
 5549POPC   C4A70914   8.122  34.910   7.340
 5549POPC   C1B70915   8.151  34.353   6.313
 5549POPC   C2B70916   8.030  34.292   6.766
 5549POPC   C3B70917   8.088  34.377   7.217
 5549POPC   C4B70918   7.938  34.206   7.623
 5550POPC   NC370919   5.360   6.558   5.327
 5550POPC   PO470920   4.699   6.365   5.440
 5550POPC   GL170921   4.893   6.676   5.686
 5550POPC   GL270922   5.228   6.618   5.804
 5550POPC   C1A70923   4.886   6.698   6.150
 5550POPC   D2A70924   5.118   6.542   6.503
 5550POPC   C3A70925   5.151   6.713   6.904
 5550POPC   C4A70926   5.141   6.773   7.331
 5550POPC   C1B70927   5.460   6.441   6.131
 5550POPC   C2B70928   5.625   6.511   6.562
 5550POPC   C3B70929   5.445   6.301   6.899
 5550POPC   C4B70930   5.614   6.307   7.268
 5551POPC   NC370931  17.112   2.376   5.556
 5551POPC   PO470932  17.638   2.054   5.333
 5551POPC   GL170933  17.756   1.956   5.780
 5551POPC   GL270934  17.472   2.130   5.911
 5551POPC   C1A70935  17.933   2.019   6.201
 5551POPC   D2A70936  17.942   2.244   6.604
 5551POPC   C3A70937  17.772   2.087   7.000
 5551POPC   C4A70938  17.583   1.715   7.159
 5551POPC   C1B70939  17.474   2.150   6.354
 5551POPC   C2B70940  17.383   1.904   6.714
 5551POPC   C3B70941  17.101   1.886   7.084
 5551POPC   C4B70942  17.111   1.761   7.532
 5552POPC   NC370943  19.015  29.391   5.187
 5552POPC   PO470944  19.033  28.707   5.223
 5552POPC   GL170945  19.131  28.981   5.598
 5552POPC   GL270946  18.837  29.163   5.655
 5552POPC   C1A70947  19.164  29.195   6.037
 5552POPC   D2A70948  18.935  29.308   6.409
 5552POPC   C3A70949  19.190  29.366   6.783
 5552POPC   C4A70950  19.090  29.360   7.210
 5552POPC   C1B70951  18.822  28.822   6.006
 5552POPC   C2B70952  18.855  28.806   6.460
 5552POPC   C3B70953  18.737  29.067   6.827
 5552POPC   C4B70954  18.792  28.950   7.266
 5553POPC   NC370955  16.466  40.493   5.456
 5553POPC   PO470956  16.790  41.079   5.373
 5553POPC   GL170957  16.960  40.782   5.676
 5553POPC   GL270958  16.677  40.882   5.843
 5553POPC   C1A70959  17.011  40.589   6.115
 5553POPC   D2A70960  16.767  40.440   6.490
 5553POPC   C3A70961  16.954  40.614   6.865
 5553POPC   C4A70962  17.089  40.770   7.252
 5553POPC   C1B70963  16.527  40.838   6.257
 5553POPC   C2B70964  16.623  40.946   6.692
 5553POPC   C3B70965  16.557  40.821   7.136
 5553POPC   C4B70966  16.247  40.846   7.499
 5554POPC   NC370967   6.880   1.743   5.190
 5554POPC   PO470968   6.525   1.254   5.505
 5554POPC   GL170969   6.745   1.262   5.869
 5554POPC   GL270970   6.836   0.935   5.958
 5554POPC   C1A70971   6.663   1.433   6.271
 5554POPC   D2A70972   6.529   1.554   6.683
 5554POPC   C3A70973   6.688   1.287   6.991
 5554POPC   C4A70974   6.882   1.068   7.319
 5554POPC   C1B70975   6.406   0.970   6.110
 5554POPC   C2B70976   6.281   1.136   6.495
 5554POPC   C3B70977   6.197   1.155   6.928
 5554POPC   C4B70978   6.066   0.837   7.209
 5555POPC   NC370979  37.536   4.895   5.395
 5555POPC   PO470980  37.244   5.277   5.000
 5555POPC   GL170981  37.303   5.342   5.519
 5555POPC   GL270982  37.160   5.064   5.732
 5555POPC   C1A70983  37.532   5.295   5.998
 5555POPC   D2A70984  37.646   5.095   6.463
 5555POPC   C3A70985  37.751   5.261   6.920
 5555POPC   C4A70986  37.933   5.486   7.300
 5555POPC   C1B70987  37.215   4.929   6.187
 5555POPC   C2B70988  37.154   4.963   6.650
 5555POPC   C3B70989  37.274   5.128   7.074
 5555POPC   C4B70990  37.600   5.049   7.383
 5556POPC   NC370991  43.874  22.708   5.413
 5556POPC   PO470992  44.076  23.370   5.216
 5556POPC   GL170993  44.005  23.182   5.681
 5556POPC   GL270994  43.651  23.154   5.777
 5556POPC   C1A70995  44.057  22.915   6.101
 5556POPC   D2A70996  43.980  22.651   6.510
 5556POPC   C3A70997  44.069  22.822   6.943
 5556POPC   C4A70998  43.932  22.721   7.336
 5556POPC   C1B70999  43.802  23.334   6.199
 5556POPC   C2B71000  43.943  23.167   6.594
 5556POPC   C3B71001  43.821  23.261   7.046
 5556POPC   C4B71002  43.866  23.185   7.515
 5557POPC   NC371003  12.985   7.454   5.327
 5557POPC   PO471004  12.911   6.779   5.445
 5557POPC   GL171005  12.978   7.175   5.771
 5557POPC   GL271006  12.806   7.525   5.809
 5557POPC   C1A71007  13.188   7.409   6.161
 5557POPC   D2A71008  13.060   7.621   6.582
 5557POPC   C3A71009  13.140   7.451   6.986
 5557POPC   C4A71010  13.146   7.634   7.395
 5557POPC   C1B71011  12.687   7.411   6.250
 5557POPC   C2B71012  12.507   7.468   6.678
 5557POPC   C3B71013  12.641   7.545   7.126
 5557POPC   C4B71014  12.701   7.472   7.600
 5558POPC   NC371015  24.645  40.860   5.191
 5558POPC   PO471016  24.329  40.471   5.622
 5558POPC   GL171017  24.644  40.658   5.862
 5558POPC   GL271018  24.851  40.385   5.840
 5558POPC   C1A71019  24.650  40.786   6.305
 5558POPC   D2A71020  24.943  40.996   6.572
 5558POPC   C3A71021  24.741  41.132   6.928
 5558POPC   C4A71022  24.463  41.000   7.233
 5558POPC   C1B71023  24.573  40.269   6.193
 5558POPC   C2B71024  24.643  40.360   6.601
 5558POPC   C3B71025  24.568  40.594   6.941
 5558POPC   C4B71026  24.408  40.496   7.327
 5559POPC   NC371027  23.966  16.935   5.541
 5559POPC   PO471028  23.469  17.439   5.370
 5559POPC   GL171029  23.758  17.415   5.689
 5559POPC   GL271030  23.572  17.635   5.870
 5559POPC   C1A71031  23.894  17.327   6.106
 5559POPC   D2A71032  23.737  17.310   6.507
 5559POPC   C3A71033  23.978  17.336   6.860
 5559POPC   C4A71034  23.817  17.533   7.196
 5559POPC   C1B71035  23.359  17.377   6.138
 5559POPC   C2B71036  23.275  17.505   6.555
 5559POPC   C3B71037  23.415  17.327   6.935
 5559POPC   C4B71038  23.490  17.204   7.369
 5560POPC   NC371039  20.346   0.188   5.233
 5560POPC   PO471040  20.609   0.780   5.423
 5560POPC   GL171041  20.488   0.613   5.825
 5560POPC   GL271042  20.138   0.478   5.854
 5560POPC   C1A71043  20.654   0.450   6.241
 5560POPC   D2A71044  20.960   0.576   6.585
 5560POPC   C3A71045  20.836   0.504   7.033
 5560POPC   C4A71046  20.381   0.553   7.143
 5560POPC   C1B71047  20.193   0.743   6.234
 5560POPC   C2B71048  20.446   0.732   6.624
 5560POPC   C3B71049  20.502   0.275   6.728
 5560POPC   C4B71050  20.366   0.013   7.076
 5561POPC   NC371051  43.470  18.914   5.373
 5561POPC   PO471052  42.969  19.353   5.422
 5561POPC   GL171053  43.164  19.144   5.749
 5561POPC   GL271054  43.046  18.818   5.682
 5561POPC   C1A71055  43.346  19.242   6.145
 5561POPC   D2A71056  43.474  19.145   6.562
 5561POPC   C3A71057  43.150  19.230   6.867
 5561POPC   C4A71058  42.996  19.385   7.257
 5561POPC   C1B71059  43.015  18.787   6.147
 5561POPC   C2B71060  43.143  18.702   6.576
 5561POPC   C3B71061  43.108  18.716   7.018
 5561POPC   C4B71062  43.377  19.027   7.273
 5562POPC   NC371063  44.419   6.713   5.658
 5562POPC   PO471064   0.034   6.400   5.390
 5562POPC   GL171065  44.838   6.493   5.847
 5562POPC   GL271066  44.515   6.462   6.110
 5562POPC   C1A71067  44.888   6.754   6.234
 5562POPC   D2A71068  44.637   6.648   6.592
 5562POPC   C3A71069  44.851   6.691   6.960
 5562POPC   C4A71070  44.746   6.534   7.372
 5562POPC   C1B71071  44.259   6.864   6.272
 5562POPC   C2B71072  44.161   7.115   6.638
 5562POPC   C3B71073  44.381   6.940   6.951
 5562POPC   C4B71074  44.628   7.029   7.288
 5563POPC   NC371075  28.752  12.464   5.473
 5563POPC   PO471076  29.384  12.153   5.514
 5563POPC   GL171077  29.186  12.127   5.875
 5563POPC   GL271078  28.812  11.993   5.809
 5563POPC   C1A71079  29.408  12.076   6.269
 5563POPC   D2A71080  29.538  12.022   6.682
 5563POPC   C3A71081  29.333  12.123   7.067
 5563POPC   C4A71082  28.893  12.159   7.103
 5563POPC   C1B71083  29.021  11.726   6.124
 5563POPC   C2B71084  29.169  11.676   6.490
 5563POPC   C3B71085  29.146  11.672   6.894
 5563POPC   C4B71086  29.107  11.711   7.300
 5564POPC   NC371087  18.591  39.646   5.364
 5564POPC   PO471088  18.240  39.051   5.477
 5564POPC   GL171089  18.378  39.263   5.848
 5564POPC   GL271090  18.548  38.982   5.943
 5564POPC   C1A71091  18.330  39.516   6.257
 5564POPC   D2A71092  18.489  39.733   6.647
 5564POPC   C3A71093  18.525  39.537   7.103
 5564POPC   C4A71094  18.278  39.405   7.517
 5564POPC   C1B71095  18.445  39.006   6.371
 5564POPC   C2B71096  18.272  39.282   6.705
 5564POPC   C3B71097  18.136  39.169   7.094
 5564POPC   C4B71098  18.005  38.889   7.402
 5565POPC   NC371099  39.845  38.974   5.291
 5565POPC   PO471100  40.153  39.470   5.672
 5565POPC   GL171101  40.025  39.223   5.985
 5565POPC   GL271102  39.934  38.935   5.799
 5565POPC   C1A71103  39.829  39.275   6.373
 5565POPC   D2A71104  39.774  39.456   6.758
 5565POPC   C3A71105  39.992  39.238   7.060
 5565POPC   C4A71106  40.092  39.359   7.487
 5565POPC   C1B71107  39.800  38.792   6.198
 5565POPC   C2B71108  39.670  38.852   6.622
 5565POPC   C3B71109  39.807  38.746   7.018
 5565POPC   C4B71110  39.826  38.912   7.412
 5566POPC   NC371111  23.355  43.219   5.463
 5566POPC   PO471112  23.972  43.549   5.410
 5566POPC   GL171113  23.821  43.239   5.729
 5566POPC   GL271114  23.624  42.924   5.781
 5566POPC   C1A71115  23.716  43.308   6.169
 5566POPC   D2A71116  23.491  43.364   6.575
 5566POPC   C3A71117  23.776  43.357   6.937
 5566POPC   C4A71118  23.656  43.373   7.350
 5566POPC   C1B71119  23.508  42.830   6.213
 5566POPC   C2B71120  23.676  42.867   6.649
 5566POPC   C3B71121  23.491  42.963   7.056
 5566POPC   C4B71122  23.444  42.933   7.504
 5567POPC   NC371123  32.479  33.934   5.501
 5567POPC   PO471124  32.091  33.413   5.413
 5567POPC   GL171125  32.149  33.650   5.794
 5567POPC   GL271126  32.453  33.505   5.872
 5567POPC   C1A71127  32.006  33.868   6.181
 5567POPC   D2A71128  31.974  34.057   6.624
 5567POPC   C3A71129  31.950  33.820   7.001
 5567POPC   C4A71130  31.913  33.880   7.449
 5567POPC   C1B71131  32.442  33.654   6.267
 5567POPC   C2B71132  32.228  33.600   6.633
 5567POPC   C3B71133  32.445  33.698   7.035
 5567POPC   C4B71134  32.661  34.080   7.151
 5568POPC   NC371135  24.264  39.639   5.402
 5568POPC   PO471136  23.577  39.764   5.436
 5568POPC   GL171137  23.618  39.917   5.851
 5568POPC   GL271138  23.967  39.888   5.794
 5568POPC   C1A71139  23.474  40.130   6.258
 5568POPC   D2A71140  23.741  40.328   6.607
 5568POPC   C3A71141  23.672  40.170   7.060
 5568POPC   C4A71142  23.745  39.746   7.224
 5568POPC   C1B71143  23.991  40.127   6.166
 5568POPC   C2B71144  24.209  40.086   6.550
 5568POPC   C3B71145  24.190  40.220   6.958
 5568POPC   C4B71146  24.152  40.052   7.370
 5569POPC   NC371147  16.035  28.650   5.360
 5569POPC   PO471148  15.995  29.258   5.461
 5569POPC   GL171149  16.077  29.392   5.885
 5569POPC   GL271150  15.753  29.340   5.929
 5569POPC   C1A71151  16.068  29.132   6.306
 5569POPC   D2A71152  16.390  29.099   6.657
 5569POPC   C3A71153  16.234  29.163   7.048
 5569POPC   C4A71154  16.177  29.585   7.027
 5569POPC   C1B71155  15.559  29.314   6.339
 5569POPC   C2B71156  15.808  29.326   6.724
 5569POPC   C3B71157  15.723  29.406   7.133
 5569POPC   C4B71158  15.798  28.997   7.254
 5570POPC   NC371159  37.819  36.998   5.390
 5570POPC   PO471160  37.488  36.609   5.739
 5570POPC   GL171161  37.718  36.936   5.960
 5570POPC   GL271162  38.018  37.136   5.843
 5570POPC   C1A71163  37.715  36.933   6.403
 5570POPC   D2A71164  37.549  37.008   6.794
 5570POPC   C3A71165  37.671  36.779   7.188
 5570POPC   C4A71166  37.988  36.571   7.502
 5570POPC   C1B71167  38.077  37.287   6.262
 5570POPC   C2B71168  38.062  37.171   6.690
 5570POPC   C3B71169  37.877  37.260   7.088
 5570POPC   C4B71170  38.010  37.059   7.438
 5571POPC   NC371171  23.273  14.933   5.522
 5571POPC   PO471172  22.715  15.162   5.305
 5571POPC   GL171173  22.698  15.162   5.789
 5571POPC   GL271174  22.670  15.491   5.882
 5571POPC   C1A71175  22.902  15.226   6.248
 5571POPC   D2A71176  23.208  15.342   6.613
 5571POPC   C3A71177  23.223  15.055   6.970
 5571POPC   C4A71178  23.045  14.996   7.384
 5571POPC   C1B71179  22.505  15.547   6.297
 5571POPC   C2B71180  22.706  15.532   6.689
 5571POPC   C3B71181  22.766  15.275   7.033
 5571POPC   C4B71182  22.668  15.501   7.372
 5572POPC   NC371183  25.744  31.747   5.071
 5572POPC   PO471184  25.913  31.184   5.296
 5572POPC   GL171185  26.009  31.414   5.692
 5572POPC   GL271186  26.375  31.470   5.747
 5572POPC   C1A71187  25.959  31.592   6.121
 5572POPC   D2A71188  25.824  31.716   6.525
 5572POPC   C3A71189  25.910  31.480   6.876
 5572POPC   C4A71190  25.679  31.481   7.218
 5572POPC   C1B71191  26.453  31.480   6.183
 5572POPC   C2B71192  26.344  31.654   6.576
 5572POPC   C3B71193  26.402  31.525   7.016
 5572POPC   C4B71194  26.176  31.358   7.368
 5573POPC   NC371195  27.824  36.980   5.210
 5573POPC   PO471196  28.480  36.804   5.340
 5573POPC   GL171197  28.232  36.761   5.706
 5573POPC   GL271198  28.524  36.623   5.864
 5573POPC   C1A71199  28.126  37.027   6.082
 5573POPC   D2A71200  28.029  36.975   6.540
 5573POPC   C3A71201  28.271  37.088   6.929
 5573POPC   C4A71202  28.232  37.218   7.375
 5573POPC   C1B71203  28.291  36.551   6.223
 5573POPC   C2B71204  28.449  36.689   6.622
 5573POPC   C3B71205  28.425  36.563   7.027
 5573POPC   C4B71206  28.417  36.646   7.441
 5574POPC   NC371207  36.010  10.289   5.097
 5574POPC   PO471208  36.425  10.033   5.590
 5574POPC   GL171209  36.307   9.847   5.970
 5574POPC   GL271210  36.551   9.559   5.977
 5574POPC   C1A71211  36.164   9.601   6.336
 5574POPC   D2A71212  35.909   9.506   6.711
 5574POPC   C3A71213  35.968   9.811   7.032
 5574POPC   C4A71214  35.771  10.037   7.340
 5574POPC   C1B71215  36.654   9.842   6.339
 5574POPC   C2B71216  36.448   9.822   6.740
 5574POPC   C3B71217  36.357   9.464   6.977
 5574POPC   C4B71218  36.216   9.393   7.388
 5575POPC   NC371219  37.375  12.343   5.403
 5575POPC   PO471220  37.802  11.733   5.408
 5575POPC   GL171221  37.669  12.027   5.728
 5575POPC   GL271222  37.822  12.368   5.752
 5575POPC   C1A71223  37.490  12.176   6.128
 5575POPC   D2A71224  37.634  12.235   6.544
 5575POPC   C3A71225  37.546  11.979   6.909
 5575POPC   C4A71226  37.399  12.112   7.297
 5575POPC   C1B71227  38.023  12.244   6.154
 5575POPC   C2B71228  38.103  12.401   6.581
 5575POPC   C3B71229  37.998  12.254   6.944
 5575POPC   C4B71230  37.886  12.400   7.331
 5576POPC   NC371231  31.675   8.265   5.250
 5576POPC   PO471232  30.995   8.273   5.198
 5576POPC   GL171233  31.228   8.305   5.632
 5576POPC   GL271234  31.479   8.031   5.678
 5576POPC   C1A71235  31.501   8.475   5.986
 5576POPC   D2A71236  31.489   8.593   6.427
 5576POPC   C3A71237  31.296   8.343   6.776
 5576POPC   C4A71238  31.372   8.056   7.139
 5576POPC   C1B71239  31.584   7.997   6.130
 5576POPC   C2B71240  31.581   7.941   6.589
 5576POPC   C3B71241  31.842   7.899   6.967
 5576POPC   C4B71242  31.755   7.722   7.382
 5577POPC   NC371243  40.909  18.718   5.116
 5577POPC   PO471244  40.471  19.224   5.284
 5577POPC   GL171245  40.646  19.152   5.718
 5577POPC   GL271246  40.805  18.839   5.892
 5577POPC   C1A71247  40.593  19.236   6.161
 5577POPC   D2A71248  40.783  19.129   6.545
 5577POPC   C3A71249  40.684  19.353   6.924
 5577POPC   C4A71250  41.006  19.284   7.212
 5577POPC   C1B71251  40.527  18.721   6.290
 5577POPC   C2B71252  40.359  18.889   6.690
 5577POPC   C3B71253  40.662  18.841   6.979
 5577POPC   C4B71254  40.800  18.594   7.290
 5578POPC   NC371255  26.574  38.754   5.347
 5578POPC   PO471256  26.615  39.332   5.095
 5578POPC   GL171257  26.645  39.242   5.604
 5578POPC   GL271258  26.415  39.003   5.751
 5578POPC   C1A71259  26.780  39.158   6.072
 5578POPC   D2A71260  26.954  39.335   6.481
 5578POPC   C3A71261  26.911  39.170   6.898
 5578POPC   C4A71262  27.064  39.125   7.323
 5578POPC   C1B71263  26.328  38.834   6.108
 5578POPC   C2B71264  26.493  38.984   6.480
 5578POPC   C3B71265  26.663  38.721   6.800
 5578POPC   C4B71266  26.655  38.790   7.219
 5579POPC   NC371267  34.773  32.773   5.478
 5579POPC   PO471268  34.347  33.352   5.428
 5579POPC   GL171269  34.442  33.073   5.803
 5579POPC   GL271270  34.767  33.126   5.859
 5579POPC   C1A71271  34.603  32.786   6.173
 5579POPC   D2A71272  34.676  32.885   6.606
 5579POPC   C3A71273  34.836  33.180   6.894
 5579POPC   C4A71274  34.658  32.974   7.251
 5579POPC   C1B71275  34.666  33.304   6.270
 5579POPC   C2B71276  34.393  33.329   6.638
 5579POPC   C3B71277  34.369  33.436   7.061
 5579POPC   C4B71278  34.404  33.342   7.504
 5580POPC   NC371279  13.027  35.592   5.433
 5580POPC   PO471280  12.530  35.140   5.243
 5580POPC   GL171281  12.716  35.232   5.659
 5580POPC   GL271282  12.883  34.953   5.826
 5580POPC   C1A71283  12.856  35.402   6.081
 5580POPC   D2A71284  12.677  35.522   6.505
 5580POPC   C3A71285  12.835  35.314   6.870
 5580POPC   C4A71286  13.041  35.583   7.153
 5580POPC   C1B71287  13.208  34.996   6.173
 5580POPC   C2B71288  13.255  35.083   6.639
 5580POPC   C3B71289  13.226  35.045   7.106
 5580POPC   C4B71290  13.023  35.207   7.482
 5581POPC   NC371291  13.407  29.651   5.675
 5581POPC   PO471292  13.703  29.068   5.368
 5581POPC   GL171293  13.579  29.162   5.795
 5581POPC   GL271294  13.305  28.956   5.887
 5581POPC   C1A71295  13.600  29.287   6.247
 5581POPC   D2A71296  13.566  29.107   6.664
 5581POPC   C3A71297  13.687  29.332   7.040
 5581POPC   C4A71298  13.638  29.195   7.468
 5581POPC   C1B71299  13.104  29.068   6.281
 5581POPC   C2B71300  13.062  29.171   6.719
 5581POPC   C3B71301  13.218  29.120   7.143
 5581POPC   C4B71302  13.228  28.880   7.543
 5582POPC   NC371303   6.580  10.324   5.390
 5582POPC   PO471304   6.616   9.685   5.412
 5582POPC   GL171305   6.830   9.713   5.805
 5582POPC   GL271306   6.543   9.569   5.918
 5582POPC   C1A71307   6.786   9.970   6.170
 5582POPC   D2A71308   6.637   9.805   6.534
 5582POPC   C3A71309   6.799   9.907   6.936
 5582POPC   C4A71310   6.553  10.002   7.300
 5582POPC   C1B71311   6.605   9.355   6.258
 5582POPC   C2B71312   6.384   9.366   6.590
 5582POPC   C3B71313   6.425   9.558   6.959
 5582POPC   C4B71314   6.653   9.358   7.248
 5583POPC   NC371315  12.402  20.071   5.656
 5583POPC   PO471316  11.873  19.707   5.382
 5583POPC   GL171317  11.985  19.795   5.751
 5583POPC   GL271318  12.304  19.581   5.743
 5583POPC   C1A71319  11.825  19.948   6.154
 5583POPC   D2A71320  12.018  19.930   6.548
 5583POPC   C3A71321  12.221  20.233   6.803
 5583POPC   C4A71322  12.172  19.994   7.151
 5583POPC   C1B71323  12.108  19.521   6.143
 5583POPC   C2B71324  12.109  19.435   6.569
 5583POPC   C3B71325  12.319  19.538   6.921
 5583POPC   C4B71326  12.357  19.574   7.339
 5584POPC   NC371327  43.779  16.748   5.418
 5584POPC   PO471328  44.467  16.785   5.600
 5584POPC   GL171329  44.105  16.670   5.904
 5584POPC   GL271330  43.750  16.809   5.922
 5584POPC   C1A71331  43.971  16.670   6.371
 5584POPC   D2A71332  43.712  16.959   6.617
 5584POPC   C3A71333  43.622  16.860   7.053
 5584POPC   C4A71334  43.842  16.947   7.478
 5584POPC   C1B71335  43.995  17.140   6.153
 5584POPC   C2B71336  44.208  17.156   6.549
 5584POPC   C3B71337  44.086  17.068   6.963
 5584POPC   C4B71338  44.111  16.654   7.153
 5585POPC   NC371339  34.054   2.582   5.130
 5585POPC   PO471340  33.482   2.559   5.377
 5585POPC   GL171341  33.842   2.694   5.664
 5585POPC   GL271342  34.162   2.552   5.647
 5585POPC   C1A71343  33.908   2.857   6.110
 5585POPC   D2A71344  33.896   2.983   6.560
 5585POPC   C3A71345  33.618   2.819   6.909
 5585POPC   C4A71346  33.709   2.797   7.341
 5585POPC   C1B71347  34.164   2.424   6.088
 5585POPC   C2B71348  33.912   2.421   6.487
 5585POPC   C3B71349  33.967   2.437   6.951
 5585POPC   C4B71350  34.247   2.557   7.288
 5586POPC   NC371351  27.072  18.363   5.238
 5586POPC   PO471352  26.493  18.162   5.401
 5586POPC   GL171353  26.541  18.150   5.847
 5586POPC   GL271354  26.576  18.477   5.917
 5586POPC   C1A71355  26.677  18.151   6.324
 5586POPC   D2A71356  26.967  18.371   6.684
 5586POPC   C3A71357  27.062  18.125   7.092
 5586POPC   C4A71358  26.963  17.866   7.491
 5586POPC   C1B71359  26.680  18.672   6.299
 5586POPC   C2B71360  26.483  18.486   6.649
 5586POPC   C3B71361  26.557  18.177   6.959
 5586POPC   C4B71362  26.650  18.256   7.380
 5587POPC   NC371363  23.055  22.633   5.338
 5587POPC   PO471364  22.448  22.932   5.429
 5587POPC   GL171365  22.647  22.914   5.829
 5587POPC   GL271366  22.922  22.665   5.830
 5587POPC   C1A71367  22.795  22.941   6.260
 5587POPC   D2A71368  22.822  22.790   6.680
 5587POPC   C3A71369  22.716  23.030   7.078
 5587POPC   C4A71370  22.948  23.259   7.435
 5587POPC   C1B71371  23.265  22.744   6.155
 5587POPC   C2B71372  23.333  22.898   6.595
 5587POPC   C3B71373  23.198  22.891   7.029
 5587POPC   C4B71374  23.352  22.702   7.391
 5588POPC   NC371375   9.978  39.003   5.310
 5588POPC   PO471376   9.389  39.424   5.471
 5588POPC   GL171377   9.557  39.409   5.846
 5588POPC   GL271378   9.877  39.365   5.680
 5588POPC   C1A71379   9.532  39.106   6.193
 5588POPC   D2A71380   9.732  39.048   6.557
 5588POPC   C3A71381   9.464  39.018   6.923
 5588POPC   C4A71382   9.372  39.118   7.328
 5588POPC   C1B71383  10.002  39.303   6.100
 5588POPC   C2B71384  10.139  39.425   6.490
 5588POPC   C3B71385   9.973  39.335   6.880
 5588POPC   C4B71386   9.839  39.290   7.268
 5589POPC   NC371387   7.234  31.023   5.699
 5589POPC   PO471388   7.548  30.446   5.600
 5589POPC   GL171389   7.356  30.253   5.925
 5589POPC   GL271390   7.211  30.560   5.988
 5589POPC   C1A71391   7.443  30.272   6.373
 5589POPC   D2A71392   7.680  30.514   6.674
 5589POPC   C3A71393   7.401  30.608   6.979
 5589POPC   C4A71394   7.485  30.957   7.176
 5589POPC   C1B71395   7.494  30.784   6.262
 5589POPC   C2B71396   7.458  31.013   6.630
 5589POPC   C3B71397   7.266  31.297   6.872
 5589POPC   C4B71398   7.053  31.203   7.231
 5590POPC   NC371399  27.312   5.857   5.410
 5590POPC   PO471400  27.337   5.302   5.731
 5590POPC   GL171401  27.443   5.702   5.930
 5590POPC   GL271402  27.525   6.039   5.839
 5590POPC   C1A71403  27.688   5.827   6.298
 5590POPC   D2A71404  27.505   5.712   6.683
 5590POPC   C3A71405  27.732   5.648   7.043
 5590POPC   C4A71406  27.912   5.864   7.389
 5590POPC   C1B71407  27.326   6.172   6.204
 5590POPC   C2B71408  27.448   6.235   6.603
 5590POPC   C3B71409  27.328   6.072   6.993
 5590POPC   C4B71410  27.262   5.702   7.237
 5591POPC   NC371411  11.260  44.511   5.405
 5591POPC   PO471412  11.611  44.982   5.408
 5591POPC   GL171413  11.481  44.745   5.816
 5591POPC   GL271414  11.097  44.727   5.853
 5591POPC   C1A71415  11.452  44.623   6.294
 5591POPC   D2A71416  11.463  44.490   6.773
 5591POPC   C3A71417  11.519  44.769   7.144
 5591POPC   C4A71418  11.650  44.705   7.568
 5591POPC   C1B71419  10.996  44.846   6.294
 5591POPC   C2B71420  10.966  44.650   6.704
 5591POPC   C3B71421  10.990  44.749   7.150
 5591POPC   C4B71422  11.151  44.921   7.536
 5592POPC   NC371423  12.449  33.068   5.513
 5592POPC   PO471424  11.802  32.862   5.412
 5592POPC   GL171425  11.998  33.004   5.772
 5592POPC   GL271426  12.194  32.697   5.756
 5592POPC   C1A71427  12.031  33.088   6.228
 5592POPC   D2A71428  11.809  33.001   6.614
 5592POPC   C3A71429  12.112  33.043   6.924
 5592POPC   C4A71430  12.011  33.325   7.276
 5592POPC   C1B71431  11.935  32.608   6.105
 5592POPC   C2B71432  12.113  32.626   6.511
 5592POPC   C3B71433  11.856  32.581   6.904
 5592POPC   C4B71434  11.773  32.875   7.239
 5593POPC   NC371435  31.634  23.831   5.298
 5593POPC   PO471436  30.951  23.619   5.191
 5593POPC   GL171437  31.166  23.785   5.631
 5593POPC   GL271438  31.527  23.844   5.776
 5593POPC   C1A71439  31.242  23.587   6.102
 5593POPC   D2A71440  31.360  23.762   6.525
 5593POPC   C3A71441  31.394  23.570   6.919
 5593POPC   C4A71442  31.164  23.720   7.241
 5593POPC   C1B71443  31.721  23.816   6.160
 5593POPC   C2B71444  31.801  24.047   6.526
 5593POPC   C3B71445  31.665  24.017   6.917
 5593POPC   C4B71446  31.654  23.817   7.291
 5594POPC   NC371447   7.072   3.382   5.359
 5594POPC   PO471448   7.716   3.629   5.437
 5594POPC   GL171449   7.422   3.503   5.726
 5594POPC   GL271450   7.192   3.767   5.724
 5594POPC   C1A71451   7.395   3.376   6.146
 5594POPC   D2A71452   7.679   3.483   6.476
 5594POPC   C3A71453   7.441   3.405   6.825
 5594POPC   C4A71454   7.671   3.250   7.124
 5594POPC   C1B71455   7.442   3.873   6.117
 5594POPC   C2B71456   7.325   3.850   6.565
 5594POPC   C3B71457   7.472   3.876   7.001
 5594POPC   C4B71458   7.298   3.577   7.305
 5595POPC   NC371459  26.272  30.887   5.327
 5595POPC   PO471460  25.890  30.324   5.425
 5595POPC   GL171461  26.116  30.554   5.710
 5595POPC   GL271462  25.932  30.875   5.716
 5595POPC   C1A71463  26.321  30.510   6.101
 5595POPC   D2A71464  26.243  30.720   6.497
 5595POPC   C3A71465  26.157  30.528   6.892
 5595POPC   C4A71466  25.827  30.463   7.149
 5595POPC   C1B71467  26.095  31.081   6.076
 5595POPC   C2B71468  26.127  31.210   6.491
 5595POPC   C3B71469  26.219  31.052   6.907
 5595POPC   C4B71470  25.846  30.985   7.124
 5596POPC   NC371471  15.405  30.654   5.443
 5596POPC   PO471472  14.953  30.213   5.317
 5596POPC   GL171473  15.050  30.558   5.779
 5596POPC   GL271474  15.397  30.657   5.944
 5596POPC   C1A71475  15.039  30.861   6.200
 5596POPC   D2A71476  15.067  30.706   6.635
 5596POPC   C3A71477  15.215  30.784   7.059
 5596POPC   C4A71478  15.069  30.793   7.512
 5596POPC   C1B71479  15.201  30.367   6.277
 5596POPC   C2B71480  15.246  30.215   6.728
 5596POPC   C3B71481  15.497  30.334   7.067
 5596POPC   C4B71482  15.514  30.567   7.437
 5597POPC   NC371483  41.729   6.891   5.323
 5597POPC   PO471484  41.208   6.488   5.509
 5597POPC   GL171485  41.613   6.531   5.719
 5597POPC   GL271486  41.703   6.873   5.839
 5597POPC   C1A71487  41.699   6.451   6.160
 5597POPC   D2A71488  41.442   6.483   6.539
 5597POPC   C3A71489  41.618   6.401   6.933
 5597POPC   C4A71490  41.807   6.576   7.270
 5597POPC   C1B71491  41.322   6.823   6.112
 5597POPC   C2B71492  41.210   6.951   6.539
 5597POPC   C3B71493  41.197   6.753   6.927
 5597POPC   C4B71494  41.348   6.831   7.303
 5598POPC   NC371495  26.658  32.542   5.468
 5598POPC   PO471496  27.103  31.949   5.499
 5598POPC   GL171497  26.979  32.206   5.811
 5598POPC   GL271498  26.647  32.165   5.823
 5598POPC   C1A71499  27.011  32.327   6.233
 5598POPC   D2A71500  27.086  32.188   6.631
 5598POPC   C3A71501  26.967  32.383   7.037
 5598POPC   C4A71502  26.982  32.281   7.485
 5598POPC   C1B71503  26.545  32.465   6.129
 5598POPC   C2B71504  26.569  32.347   6.555
 5598POPC   C3B71505  26.444  32.483   6.960
 5598POPC   C4B71506  26.345  32.319   7.365
 5599POPC   NC371507  17.043  27.677   5.489
 5599POPC   PO471508  16.375  27.482   5.332
 5599POPC   GL171509  16.395  27.355   5.786
 5599POPC   GL271510  16.787  27.383   5.865
 5599POPC   C1A71511  16.474  27.156   6.196
 5599POPC   D2A71512  16.837  27.327   6.428
 5599POPC   C3A71513  16.895  27.437   6.863
 5599POPC   C4A71514  16.645  27.534   7.217
 5599POPC   C1B71515  17.078  27.673   6.128
 5599POPC   C2B71516  17.136  27.790   6.547
 5599POPC   C3B71517  17.019  27.929   6.971
 5599POPC   C4B71518  16.810  27.996   7.356
 5600POPC   NC371519  42.986   8.618   5.480
 5600POPC   PO471520  42.906   9.219   5.209
 5600POPC   GL171521  42.837   9.225   5.672
 5600POPC   GL271522  43.111   8.970   5.857
 5600POPC   C1A71523  42.737   9.188   6.123
 5600POPC   D2A71524  43.057   9.164   6.440
 5600POPC   C3A71525  42.978   9.181   6.875
 5600POPC   C4A71526  43.044   8.903   7.201
 5600POPC   C1B71527  43.439   8.714   6.140
 5600POPC   C2B71528  43.526   8.538   6.576
 5600POPC   C3B71529  43.452   8.625   7.025
 5600POPC   C4B71530  43.383   8.637   7.455
 5601POPC   NC371531  10.622  43.257   5.325
 5601POPC   PO471532  10.288  42.647   5.428
 5601POPC   GL171533  10.566  42.938   5.768
 5601POPC   GL271534  10.662  43.299   5.827
 5601POPC   C1A71535  10.363  43.109   6.186
 5601POPC   D2A71536  10.445  42.914   6.563
 5601POPC   C3A71537  10.322  43.148   6.895
 5601POPC   C4A71538  10.206  43.065   7.296
 5601POPC   C1B71539  10.862  43.061   6.206
 5601POPC   C2B71540  10.924  42.971   6.654
 5601POPC   C3B71541  10.694  42.831   7.020
 5601POPC   C4B71542  10.694  43.207   7.269
 5602POPC   NC371543  20.042   0.825   5.494
 5602POPC   PO471544  20.097   1.462   5.471
 5602POPC   GL171545  19.842   1.280   5.779
 5602POPC   GL271546  19.645   1.557   5.925
 5602POPC   C1A71547  19.821   1.104   6.174
 5602POPC   D2A71548  19.585   1.198   6.547
 5602POPC   C3A71549  19.685   1.134   6.967
 5602POPC   C4A71550  19.483   1.437   7.217
 5602POPC   C1B71551  19.942   1.584   6.312
 5602POPC   C2B71552  19.907   1.631   6.773
 5602POPC   C3B71553  19.963   1.609   7.225
 5602POPC   C4B71554  19.762   1.613   7.672
 5603POPC   NC371555   3.363  15.030   5.381
 5603POPC   PO471556   3.733  15.468   5.641
 5603POPC   GL171557   3.706  15.127   5.880
 5603POPC   GL271558   3.383  15.111   5.884
 5603POPC   C1A71559   3.643  15.159   6.320
 5603POPC   D2A71560   3.369  15.217   6.628
 5603POPC   C3A71561   3.623  15.093   6.961
 5603POPC   C4A71562   3.947  15.096   7.247
 5603POPC   C1B71563   3.172  14.937   6.215
 5603POPC   C2B71564   2.926  14.936   6.567
 5603POPC   C3B71565   3.103  14.950   6.968
 5603POPC   C4B71566   3.300  15.019   7.351
 5604POPC   NC371567   1.536  16.865   5.174
 5604POPC   PO471568   0.961  16.571   5.460
 5604POPC   GL171569   1.196  16.718   5.819
 5604POPC   GL271570   1.421  16.961   5.672
 5604POPC   C1A71571   1.147  16.675   6.298
 5604POPC   D2A71572   1.126  16.929   6.670
 5604POPC   C3A71573   1.328  16.745   7.054
 5604POPC   C4A71574   1.656  16.425   7.165
 5604POPC   C1B71575   1.353  17.115   6.116
 5604POPC   C2B71576   1.583  17.068   6.483
 5604POPC   C3B71577   1.469  17.222   6.882
 5604POPC   C4B71578   1.205  17.204   7.213
 5605POPC   NC371579   0.997  12.232   5.331
 5605POPC   PO471580   0.990  11.582   5.395
 5605POPC   GL171581   1.057  11.825   5.794
 5605POPC   GL271582   1.159  12.188   5.809
 5605POPC   C1A71583   1.207  11.900   6.240
 5605POPC   D2A71584   1.311  12.013   6.667
 5605POPC   C3A71585   1.184  11.717   6.964
 5605POPC   C4A71586   1.300  11.737   7.433
 5605POPC   C1B71587   1.155  12.426   6.191
 5605POPC   C2B71588   0.954  12.385   6.552
 5605POPC   C3B71589   0.942  12.464   6.962
 5605POPC   C4B71590   1.104  12.159   7.204
 5606POPC   NC371591  19.425  23.055   5.557
 5606POPC   PO471592  18.902  22.566   5.519
 5606POPC   GL171593  19.003  22.837   5.847
 5606POPC   GL271594  18.995  23.176   5.879
 5606POPC   C1A71595  19.261  22.840   6.207
 5606POPC   D2A71596  19.104  22.818   6.630
 5606POPC   C3A71597  18.857  23.027   6.931
 5606POPC   C4A71598  19.049  22.712   7.164
 5606POPC   C1B71599  18.887  23.176   6.340
 5606POPC   C2B71600  19.157  23.339   6.644
 5606POPC   C3B71601  19.381  23.333   7.019
 5606POPC   C4B71602  19.233  23.378   7.404
 5607POPC   NC371603  38.872  17.715   5.657
 5607POPC   PO471604  38.304  17.634   5.240
 5607POPC   GL171605  38.222  17.422   5.715
 5607POPC   GL271606  38.595  17.311   5.801
 5607POPC   C1A71607  38.067  17.530   6.209
 5607POPC   D2A71608  38.086  17.875   6.588
 5607POPC   C3A71609  38.424  17.895   6.914
 5607POPC   C4A71610  38.650  17.607   7.220
 5607POPC   C1B71611  38.701  17.225   6.249
 5607POPC   C2B71612  38.441  17.380   6.606
 5607POPC   C3B71613  38.214  17.442   6.979
 5607POPC   C4B71614  38.139  17.349   7.373
 5608POPC   NC371615  25.124  42.448   5.543
 5608POPC   PO471616  25.434  42.949   5.372
 5608POPC   GL171617  25.530  42.702   5.774
 5608POPC   GL271618  25.495  42.292   5.849
 5608POPC   C1A71619  25.648  42.583   6.211
 5608POPC   D2A71620  25.481  42.249   6.485
 5608POPC   C3A71621  25.490  42.367   6.912
 5608POPC   C4A71622  25.369  42.146   7.270
 5608POPC   C1B71623  25.102  42.220   6.151
 5608POPC   C2B71624  24.922  42.044   6.528
 5608POPC   C3B71625  25.018  42.083   6.920
 5608POPC   C4B71626  24.924  41.908   7.316
 5609POPC   NC371627  40.603  16.108   5.453
 5609POPC   PO471628  40.605  16.710   5.352
 5609POPC   GL171629  40.758  16.747   5.800
 5609POPC   GL271630  41.038  16.929   5.928
 5609POPC   C1A71631  40.785  16.603   6.265
 5609POPC   D2A71632  40.956  16.840   6.622
 5609POPC   C3A71633  40.721  16.750   6.984
 5609POPC   C4A71634  40.548  16.346   7.027
 5609POPC   C1B71635  41.288  16.663   6.214
 5609POPC   C2B71636  41.355  16.454   6.594
 5609POPC   C3B71637  41.165  16.461   6.973
 5609POPC   C4B71638  41.044  16.627   7.345
 5610POPC   NC371639  29.527  30.226   5.385
 5610POPC   PO471640  30.136  29.918   5.283
 5610POPC   GL171641  29.947  29.986   5.706
 5610POPC   GL271642  30.044  30.309   5.747
 5610POPC   C1A71643  29.925  29.778   6.156
 5610POPC   D2A71644  30.165  29.785   6.576
 5610POPC   C3A71645  29.983  29.845   6.975
 5610POPC   C4A71646  29.669  29.710   7.251
 5610POPC   C1B71647  30.092  30.451   6.183
 5610POPC   C2B71648  29.965  30.459   6.608
 5610POPC   C3B71649  30.051  30.346   7.034
 5610POPC   C4B71650  29.891  30.132   7.425
 5611POPC   NC371651  10.655  26.029   5.333
 5611POPC   PO471652  10.297  26.701   5.472
 5611POPC   GL171653  10.406  26.335   5.659
 5611POPC   GL271654  10.740  26.435   5.701
 5611POPC   C1A71655  10.453  26.004   6.003
 5611POPC   D2A71656  10.436  26.031   6.471
 5611POPC   C3A71657  10.648  25.880   6.862
 5611POPC   C4A71658  10.377  26.097   7.127
 5611POPC   C1B71659  10.728  26.435   6.187
 5611POPC   C2B71660  10.873  26.275   6.619
 5611POPC   C3B71661  10.817  26.365   7.081
 5611POPC   C4B71662  10.804  26.504   7.560
 5612POPC   NC371663  17.719   4.282   5.559
 5612POPC   PO471664  18.382   4.195   5.567
 5612POPC   GL171665  18.103   4.130   5.868
 5612POPC   GL271666  18.037   4.478   5.918
 5612POPC   C1A71667  18.136   4.154   6.282
 5612POPC   D2A71668  18.108   4.380   6.633
 5612POPC   C3A71669  18.275   4.140   6.955
 5612POPC   C4A71670  18.546   3.926   7.213
 5612POPC   C1B71671  18.378   4.650   6.204
 5612POPC   C2B71672  18.675   4.779   6.544
 5612POPC   C3B71673  18.485   4.660   6.890
 5612POPC   C4B71674  18.105   4.597   7.100
 5613POPC   NC371675  40.813  17.123   5.410
 5613POPC   PO471676  40.469  17.608   5.331
 5613POPC   GL171677  40.556  17.559   5.743
 5613POPC   GL271678  40.590  17.226   5.847
 5613POPC   C1A71679  40.670  17.637   6.162
 5613POPC   D2A71680  40.746  17.485   6.571
 5613POPC   C3A71681  40.817  17.789   6.855
 5613POPC   C4A71682  40.759  17.615   7.253
 5613POPC   C1B71683  40.651  17.089   6.255
 5613POPC   C2B71684  40.468  17.065   6.675
 5613POPC   C3B71685  40.469  17.198   7.121
 5613POPC   C4B71686  40.538  17.107   7.570
 5614POPC   NC371687  34.540  20.983   5.336
 5614POPC   PO471688  34.338  21.681   5.400
 5614POPC   GL171689  34.253  21.554   5.803
 5614POPC   GL271690  34.479  21.271   5.773
 5614POPC   C1A71691  34.410  21.594   6.191
 5614POPC   D2A71692  34.653  21.483   6.517
 5614POPC   C3A71693  34.442  21.647   6.866
 5614POPC   C4A71694  34.360  21.567   7.272
 5614POPC   C1B71695  34.673  21.114   6.137
 5614POPC   C2B71696  34.641  20.951   6.549
 5614POPC   C3B71697  34.586  21.161   6.927
 5614POPC   C4B71698  34.384  21.061   7.288
 5615POPC   NC371699   5.102  34.114   5.222
 5615POPC   PO471700   5.344  33.642   5.591
 5615POPC   GL171701   5.090  33.833   5.886
 5615POPC   GL271702   4.819  33.599   5.872
 5615POPC   C1A71703   5.127  33.716   6.329
 5615POPC   D2A71704   5.017  33.718   6.755
 5615POPC   C3A71705   5.170  33.907   7.098
 5615POPC   C4A71706   4.926  34.149   7.446
 5615POPC   C1B71707   4.796  33.301   6.216
 5615POPC   C2B71708   4.894  33.256   6.621
 5615POPC   C3B71709   4.620  33.452   6.934
 5615POPC   C4B71710   4.678  33.834   7.128
 5616POPC   NC371711  42.100  29.973   5.367
 5616POPC   PO471712  42.632  29.682   5.530
 5616POPC   GL171713  42.261  29.721   5.786
 5616POPC   GL271714  42.237  30.081   5.825
 5616POPC   C1A71715  42.343  29.709   6.213
 5616POPC   D2A71716  42.581  29.568   6.517
 5616POPC   C3A71717  42.350  29.606   6.885
 5616POPC   C4A71718  42.553  29.709   7.260
 5616POPC   C1B71719  42.358  30.231   6.195
 5616POPC   C2B71720  42.627  30.089   6.513
 5616POPC   C3B71721  42.460  30.095   6.902
 5616POPC   C4B71722  42.379  30.187   7.298
 5617POPC   NC371723  39.714  12.680   5.523
 5617POPC   PO471724  39.098  13.038   5.492
 5617POPC   GL171725  39.162  12.965   5.904
 5617POPC   GL271726  39.250  12.614   5.877
 5617POPC   C1A71727  39.275  12.882   6.338
 5617POPC   D2A71728  39.450  12.836   6.756
 5617POPC   C3A71729  39.144  12.837   7.080
 5617POPC   C4A71730  38.970  12.869   7.497
 5617POPC   C1B71731  39.522  12.454   6.221
 5617POPC   C2B71732  39.450  12.326   6.663
 5617POPC   C3B71733  39.546  12.433   7.093
 5617POPC   C4B71734  39.263  12.467   7.445
 5618POPC   NC371735  35.802  11.789   5.450
 5618POPC   PO471736  35.483  12.385   5.195
 5618POPC   GL171737  35.502  12.220   5.661
 5618POPC   GL271738  35.366  11.890   5.803
 5618POPC   C1A71739  35.535  12.258   6.128
 5618POPC   D2A71740  35.419  12.198   6.554
 5618POPC   C3A71741  35.629  11.995   6.879
 5618POPC   C4A71742  35.644  12.103   7.295
 5618POPC   C1B71743  35.092  12.000   6.178
 5618POPC   C2B71744  34.935  12.035   6.597
 5618POPC   C3B71745  35.145  12.019   6.964
 5618POPC   C4B71746  35.136  12.029   7.373
 5619POPC   NC371747  12.114  35.500   5.329
 5619POPC   PO471748  11.999  34.875   5.377
 5619POPC   GL171749  12.136  35.167   5.748
 5619POPC   GL271750  11.915  35.444   5.816
 5619POPC   C1A71751  12.343  35.305   6.163
 5619POPC   D2A71752  12.187  35.387   6.620
 5619POPC   C3A71753  12.370  35.470   7.020
 5619POPC   C4A71754  12.085  35.434   7.373
 5619POPC   C1B71755  11.843  35.364   6.244
 5619POPC   C2B71756  11.717  35.619   6.619
 5619POPC   C3B71757  11.690  35.621   7.078
 5619POPC   C4B71758  11.843  35.873   7.447
 5620POPC   NC371759  37.136  10.813   5.289
 5620POPC   PO471760  36.633  10.382   5.180
 5620POPC   GL171761  36.803  10.489   5.647
 5620POPC   GL271762  37.108  10.677   5.781
 5620POPC   C1A71763  36.703  10.366   6.099
 5620POPC   D2A71764  36.492  10.298   6.509
 5620POPC   C3A71765  36.784  10.210   6.850
 5620POPC   C4A71766  36.916  10.463   7.182
 5620POPC   C1B71767  36.920  10.820   6.169
 5620POPC   C2B71768  36.939  10.616   6.558
 5620POPC   C3B71769  37.080  10.832   6.906
 5620POPC   C4B71770  36.966  10.983   7.317
 5621POPC   NC371771  38.145  43.398   5.204
 5621POPC   PO471772  37.639  43.826   5.414
 5621POPC   GL171773  37.631  44.011   5.810
 5621POPC   GL271774  37.963  44.046   5.852
 5621POPC   C1A71775  37.590  43.870   6.237
 5621POPC   D2A71776  37.393  43.808   6.630
 5621POPC   C3A71777  37.568  43.563   6.931
 5621POPC   C4A71778  37.768  43.590   7.310
 5621POPC   C1B71779  38.089  43.865   6.249
 5621POPC   C2B71780  38.110  43.900   6.706
 5621POPC   C3B71781  37.862  44.015   7.047
 5621POPC   C4B71782  37.453  44.055   7.061
 5622POPC   NC371783  43.067  14.038   5.481
 5622POPC   PO471784  43.171  13.317   5.450
 5622POPC   GL171785  43.093  13.606   5.766
 5622POPC   GL271786  43.440  13.662   5.834
 5622POPC   C1A71787  42.920  13.748   6.163
 5622POPC   D2A71788  43.028  13.782   6.610
 5622POPC   C3A71789  43.030  13.569   6.975
 5622POPC   C4A71790  42.852  13.740   7.326
 5622POPC   C1B71791  43.421  13.749   6.274
 5622POPC   C2B71792  43.505  13.984   6.652
 5622POPC   C3B71793  43.568  13.768   7.018
 5622POPC   C4B71794  43.350  13.664   7.385
 5623POPC   NC371795  20.530  13.062   4.958
 5623POPC   PO471796  20.681  12.526   5.310
 5623POPC   GL171797  20.803  12.724   5.791
 5623POPC   GL271798  20.506  12.784   6.000
 5623POPC   C1A71799  20.909  12.849   6.293
 5623POPC   D2A71800  20.582  12.799   6.643
 5623POPC   C3A71801  20.597  12.692   7.094
 5623POPC   C4A71802  20.617  12.867   7.555
 5623POPC   C1B71803  20.533  13.180   6.288
 5623POPC   C2B71804  20.763  13.295   6.692
 5623POPC   C3B71805  20.678  13.178   7.130
 5623POPC   C4B71806  20.392  13.322   7.477
 5624POPC   NC371807  36.231  22.552   5.220
 5624POPC   PO471808  36.167  21.886   5.369
 5624POPC   GL171809  36.204  22.143   5.712
 5624POPC   GL271810  35.925  21.947   5.855
 5624POPC   C1A71811  36.194  22.266   6.144
 5624POPC   D2A71812  36.074  21.987   6.500
 5624POPC   C3A71813  36.327  22.100   6.848
 5624POPC   C4A71814  36.249  22.377   7.177
 5624POPC   C1B71815  35.681  22.112   6.163
 5624POPC   C2B71816  35.559  22.152   6.574
 5624POPC   C3B71817  35.723  22.036   6.983
 5624POPC   C4B71818  36.033  21.874   7.221
 5625POPC   NC371819  23.433   2.017   5.277
 5625POPC   PO471820  24.084   1.720   5.428
 5625POPC   GL171821  23.872   1.876   5.773
 5625POPC   GL271822  23.756   2.206   5.778
 5625POPC   C1A71823  23.913   1.931   6.206
 5625POPC   D2A71824  23.727   1.834   6.578
 5625POPC   C3A71825  24.009   1.789   6.901
 5625POPC   C4A71826  23.894   2.010   7.241
 5625POPC   C1B71827  23.727   2.414   6.207
 5625POPC   C2B71828  23.520   2.435   6.628
 5625POPC   C3B71829  23.477   2.155   6.964
 5625POPC   C4B71830  23.496   1.728   7.021
 5626POPC   NC371831  44.527  31.662   5.470
 5626POPC   PO471832  44.915  31.071   5.536
 5626POPC   GL171833  44.706  31.271   5.851
 5626POPC   GL271834  44.801  31.610   5.929
 5626POPC   C1A71835  44.571  31.323   6.276
 5626POPC   D2A71836  44.434  31.479   6.657
 5626POPC   C3A71837  44.602  31.262   7.004
 5626POPC   C4A71838  44.802  31.193   7.397
 5626POPC   C1B71839  44.728  31.841   6.318
 5626POPC   C2B71840  44.915  31.888   6.712
 5626POPC   C3B71841  44.915  31.669   7.103
 5626POPC   C4B71842  44.817  31.684   7.567
 5627POPC   NC371843  18.854  40.611   5.343
 5627POPC   PO471844  19.312  41.077   5.296
 5627POPC   GL171845  19.140  40.911   5.698
 5627POPC   GL271846  18.762  40.959   5.740
 5627POPC   C1A71847  19.164  40.620   6.087
 5627POPC   D2A71848  19.360  40.570   6.545
 5627POPC   C3A71849  19.076  40.390   6.904
 5627POPC   C4A71850  18.877  40.594   7.281
 5627POPC   C1B71851  18.991  41.153   6.099
 5627POPC   C2B71852  18.997  40.915   6.476
 5627POPC   C3B71853  19.099  40.907   6.909
 5627POPC   C4B71854  18.931  41.103   7.270
 5628POPC   NC371855  12.774  38.128   5.311
 5628POPC   PO471856  12.673  38.796   5.261
 5628POPC   GL171857  12.928  38.627   5.635
 5628POPC   GL271858  12.867  38.293   5.776
 5628POPC   C1A71859  13.081  38.614   6.081
 5628POPC   D2A71860  12.907  38.481   6.472
 5628POPC   C3A71861  12.860  38.681   6.845
 5628POPC   C4A71862  12.800  38.508   7.257
 5628POPC   C1B71863  12.793  38.109   6.135
 5628POPC   C2B71864  12.615  38.054   6.508
 5628POPC   C3B71865  12.823  38.120   6.884
 5628POPC   C4B71866  12.652  37.966   7.248
 5629POPC   NC371867  35.180   9.606   5.290
 5629POPC   PO471868  35.730   9.960   5.259
 5629POPC   GL171869  35.705   9.847   5.725
 5629POPC   GL271870  35.365   9.707   5.776
 5629POPC   C1A71871  35.693   9.833   6.211
 5629POPC   D2A71872  35.433   9.736   6.610
 5629POPC   C3A71873  35.424   9.727   7.082
 5629POPC   C4A71874  35.447   9.705   7.554
 5629POPC   C1B71875  35.229  10.051   6.063
 5629POPC   C2B71876  35.061  10.070   6.492
 5629POPC   C3B71877  34.990   9.966   6.930
 5629POPC   C4B71878  35.076  10.004   7.378
 5630POPC   NC371879  21.046   6.364   5.370
 5630POPC   PO471880  21.452   6.883   5.393
 5630POPC   GL171881  21.379   6.645   5.754
 5630POPC   GL271882  21.042   6.684   5.789
 5630POPC   C1A71883  21.597   6.559   6.138
 5630POPC   D2A71884  21.780   6.299   6.447
 5630POPC   C3A71885  21.601   6.305   6.863
 5630POPC   C4A71886  21.614   6.628   7.165
 5630POPC   C1B71887  21.092   6.526   6.213
 5630POPC   C2B71888  21.301   6.666   6.605
 5630POPC   C3B71889  21.148   6.592   7.022
 5630POPC   C4B71890  21.134   6.463   7.516
 5631POPC   NC371891  15.551  29.074   5.422
 5631POPC   PO471892  15.135  29.517   5.075
 5631POPC   GL171893  15.345  29.496   5.658
 5631POPC   GL271894  15.315  29.102   5.853
 5631POPC   C1A71895  15.107  29.481   6.089
 5631POPC   D2A71896  15.020  29.414   6.559
 5631POPC   C3A71897  15.301  29.222   6.880
 5631POPC   C4A71898  15.296  29.238   7.348
 5631POPC   C1B71899  15.143  28.985   6.249
 5631POPC   C2B71900  14.988  28.878   6.647
 5631POPC   C3B71901  14.986  28.806   7.077
 5631POPC   C4B71902  14.909  28.953   7.492
 5632POPC   NC371903  17.323  40.350   5.418
 5632POPC   PO471904  17.789  39.923   5.286
 5632POPC   GL171905  17.695  39.975   5.711
 5632POPC   GL271906  17.701  40.319   5.770
 5632POPC   C1A71907  17.761  39.833   6.147
 5632POPC   D2A71908  17.593  39.985   6.534
 5632POPC   C3A71909  17.460  39.770   6.890
 5632POPC   C4A71910  17.595  39.892   7.283
 5632POPC   C1B71911  17.369  40.192   6.103
 5632POPC   C2B71912  17.262  40.364   6.529
 5632POPC   C3B71913  17.177  40.184   6.987
 5632POPC   C4B71914  17.106  39.861   7.331
 5633POPC   NC371915  42.077  16.870   5.572
 5633POPC   PO471916  42.605  16.469   5.334
 5633POPC   GL171917  42.554  16.729   5.712
 5633POPC   GL271918  42.327  16.496   5.867
 5633POPC   C1A71919  42.434  16.950   6.139
 5633POPC   D2A71920  42.104  17.043   6.493
 5633POPC   C3A71921  42.220  16.899   6.945
 5633POPC   C4A71922  42.565  17.092   7.161
 5633POPC   C1B71923  42.569  16.441   6.252
 5633POPC   C2B71924  42.539  16.487   6.717
 5633POPC   C3B71925  42.601  16.539   7.174
 5633POPC   C4B71926  42.636  16.349   7.654
 5634POPC   NC371927  23.141  10.640   5.472
 5634POPC   PO471928  22.464  10.764   5.351
 5634POPC   GL171929  22.686  10.783   5.770
 5634POPC   GL271930  22.805  10.439   5.802
 5634POPC   C1A71931  22.910  10.749   6.198
 5634POPC   D2A71932  23.187  10.557   6.507
 5634POPC   C3A71933  23.103  10.282   6.855
 5634POPC   C4A71934  23.136  10.500   7.260
 5634POPC   C1B71935  22.550  10.374   6.142
 5634POPC   C2B71936  22.689  10.379   6.545
 5634POPC   C3B71937  22.703  10.588   6.931
 5634POPC   C4B71938  22.673  10.283   7.269
 5635POPC   NC371939  42.408  25.887   5.457
 5635POPC   PO471940  42.068  26.446   5.482
 5635POPC   GL171941  42.284  26.224   5.824
 5635POPC   GL271942  42.568  26.376   5.994
 5635POPC   C1A71943  42.214  25.929   6.150
 5635POPC   D2A71944  42.103  25.767   6.563
 5635POPC   C3A71945  42.217  25.983   6.974
 5635POPC   C4A71946  42.092  26.070   7.421
 5635POPC   C1B71947  42.715  26.019   6.255
 5635POPC   C2B71948  42.864  25.675   6.524
 5635POPC   C3B71949  42.650  25.567   6.916
 5635POPC   C4B71950  42.532  25.749   7.337
 5636POPC   NC371951  28.949  38.877   5.084
 5636POPC   PO471952  29.307  39.338   5.435
 5636POPC   GL171953  29.174  39.313   5.836
 5636POPC   GL271954  28.853  39.172   5.761
 5636POPC   C1A71955  29.174  39.427   6.280
 5636POPC   D2A71956  28.955  39.456   6.691
 5636POPC   C3A71957  29.098  39.413   7.120
 5636POPC   C4A71958  28.870  39.342   7.500
 5636POPC   C1B71959  28.976  38.951   6.153
 5636POPC   C2B71960  29.122  38.988   6.556
 5636POPC   C3B71961  28.904  38.959   6.927
 5636POPC   C4B71962  29.031  38.899   7.311
 5637POPC   NC371963  23.566  32.671   5.334
 5637POPC   PO471964  23.687  32.006   5.516
 5637POPC   GL171965  23.873  32.262   5.849
 5637POPC   GL271966  23.607  32.452   5.953
 5637POPC   C1A71967  23.874  32.150   6.283
 5637POPC   D2A71968  23.554  32.225   6.577
 5637POPC   C3A71969  23.701  32.219   6.958
 5637POPC   C4A71970  23.898  32.070   7.320
 5637POPC   C1B71971  23.330  32.115   6.128
 5637POPC   C2B71972  23.062  32.066   6.516
 5637POPC   C3B71973  23.168  32.164   6.962
 5637POPC   C4B71974  23.102  32.142   7.413
 5638POPC   NC371975  16.061  31.407   5.382
 5638POPC   PO471976  15.520  31.721   5.610
 5638POPC   GL171977  15.863  31.405   5.848
 5638POPC   GL271978  16.237  31.256   5.821
 5638POPC   C1A71979  15.979  31.312   6.266
 5638POPC   D2A71980  15.835  31.451   6.635
 5638POPC   C3A71981  16.108  31.329   6.938
 5638POPC   C4A71982  15.970  31.131   7.286
 5638POPC   C1B71983  16.340  31.639   6.067
 5638POPC   C2B71984  16.234  31.732   6.501
 5638POPC   C3B71985  16.091  31.847   6.926
 5638POPC   C4B71986  16.289  32.076   7.250
 5639POPC   NC371987  24.214  28.000   5.484
 5639POPC   PO471988  23.869  27.489   5.259
 5639POPC   GL171989  23.853  27.620   5.717
 5639POPC   GL271990  23.504  27.679   5.820
 5639POPC   C1A71991  23.855  27.477   6.184
 5639POPC   D2A71992  23.525  27.513   6.532
 5639POPC   C3A71993  23.759  27.506   6.886
 5639POPC   C4A71994  23.792  27.483   7.267
 5639POPC   C1B71995  23.608  27.907   6.204
 5639POPC   C2B71996  23.807  27.924   6.598
 5639POPC   C3B71997  23.621  27.972   7.053
 5639POPC   C4B71998  23.695  27.898   7.557
 5640POPC   NC371999  24.630  38.892   5.469
 5640POPC   PO472000  24.735  39.571   5.463
 5640POPC   GL172001  24.497  39.411   5.835
 5640POPC   GL272002  24.422  39.052   5.899
 5640POPC   C1A72003  24.508  39.342   6.305
 5640POPC   D2A72004  24.725  39.337   6.696
 5640POPC   C3A72005  24.457  39.281   7.069
 5640POPC   C4A72006  24.213  39.532   7.313
 5640POPC   C1B72007  24.137  38.994   6.232
 5640POPC   C2B72008  24.217  39.021   6.696
 5640POPC   C3B72009  24.154  38.888   7.165
 5640POPC   C4B72010  24.547  38.903   7.433
 5641POPC   NC372011  25.519  30.060   5.576
 5641POPC   PO472012  25.152  30.623   5.361
 5641POPC   GL172013  25.286  30.705   5.801
 5641POPC   GL272014  25.580  30.513   5.814
 5641POPC   C1A72015  25.319  30.783   6.285
 5641POPC   D2A72016  25.022  30.809   6.666
 5641POPC   C3A72017  25.086  30.760   7.124
 5641POPC   C4A72018  24.968  30.831   7.558
 5641POPC   C1B72019  25.820  30.656   6.184
 5641POPC   C2B72020  25.749  30.775   6.630
 5641POPC   C3B72021  25.441  30.536   6.848
 5641POPC   C4B72022  25.343  30.316   7.240
 5642POPC   NC372023   8.557   5.166   5.484
 5642POPC   PO472024   7.904   5.272   5.391
 5642POPC   GL172025   8.110   5.135   5.747
 5642POPC   GL272026   8.257   5.453   5.804
 5642POPC   C1A72027   8.180   5.130   6.191
 5642POPC   D2A72028   8.064   5.343   6.542
 5642POPC   C3A72029   7.922   5.103   6.877
 5642POPC   C4A72030   8.036   5.222   7.285
 5642POPC   C1B72031   8.618   5.388   6.126
 5642POPC   C2B72032   8.577   5.284   6.588
 5642POPC   C3B72033   8.410   5.451   7.016
 5642POPC   C4B72034   8.383   5.550   7.469
 5643POPC   NC372035  28.828  30.546   5.538
 5643POPC   PO472036  29.155  29.895   5.475
 5643POPC   GL172037  29.055  29.815   5.888
 5643POPC   GL272038  28.928  29.527   5.798
 5643POPC   C1A72039  28.879  29.884   6.327
 5643POPC   D2A72040  28.898  29.975   6.782
 5643POPC   C3A72041  29.295  29.967   7.015
 5643POPC   C4A72042  29.359  30.032   7.480
 5643POPC   C1B72043  28.962  29.400   6.202
 5643POPC   C2B72044  29.159  29.488   6.604
 5643POPC   C3B72045  29.021  29.518   7.018
 5643POPC   C4B72046  28.892  29.901   7.306
 5644POPC   NC372047  27.821  28.979   5.554
 5644POPC   PO472048  27.475  29.538   5.385
 5644POPC   GL172049  27.404  29.229   5.747
 5644POPC   GL272050  27.203  29.476   5.867
 5644POPC   C1A72051  27.559  28.982   6.170
 5644POPC   D2A72052  27.874  28.902   6.503
 5644POPC   C3A72053  27.769  28.853   6.902
 5644POPC   C4A72054  27.612  29.015   7.229
 5644POPC   C1B72055  27.548  29.488   6.191
 5644POPC   C2B72056  27.516  29.286   6.622
 5644POPC   C3B72057  27.398  29.423   7.047
 5644POPC   C4B72058  27.348  29.353   7.506
 5645POPC   NC372059  22.485   6.101   5.379
 5645POPC   PO472060  21.838   6.013   5.480
 5645POPC   GL172061  22.178   5.767   5.656
 5645POPC   GL272062  21.969   5.548   5.809
 5645POPC   C1A72063  22.387   5.802   6.062
 5645POPC   D2A72064  22.308   6.059   6.423
 5645POPC   C3A72065  22.355   5.813   6.778
 5645POPC   C4A72066  22.429   5.746   7.186
 5645POPC   C1B72067  21.887   5.864   6.159
 5645POPC   C2B72068  21.866   5.833   6.613
 5645POPC   C3B72069  21.950   5.969   7.051
 5645POPC   C4B72070  22.117   6.084   7.458
 5646POPC   NC372071  19.265   6.706   5.426
 5646POPC   PO472072  18.675   6.366   5.564
 5646POPC   GL172073  18.982   6.591   5.861
 5646POPC   GL272074  19.223   6.886   5.878
 5646POPC   C1A72075  19.205   6.536   6.256
 5646POPC   D2A72076  19.068   6.724   6.652
 5646POPC   C3A72077  19.145   6.587   7.065
 5646POPC   C4A72078  18.756   6.488   7.320
 5646POPC   C1B72079  19.182   7.052   6.262
 5646POPC   C2B72080  19.336   7.247   6.611
 5646POPC   C3B72081  19.334   7.080   7.000
 5646POPC   C4B72082  19.516   6.861   7.330
 5647POPC   NC372083  17.508  32.553   5.323
 5647POPC   PO472084  17.183  31.953   5.210
 5647POPC   GL172085  17.393  32.154   5.637
 5647POPC   GL272086  17.123  32.370   5.761
 5647POPC   C1A72087  17.609  32.273   6.070
 5647POPC   D2A72088  17.648  32.279   6.563
 5647POPC   C3A72089  17.834  32.451   6.977
 5647POPC   C4A72090  17.723  32.481   7.452
 5647POPC   C1B72091  17.150  32.033   6.092
 5647POPC   C2B72092  17.305  31.905   6.501
 5647POPC   C3B72093  17.260  32.120   6.890
 5647POPC   C4B72094  17.326  32.143   7.317
 5648POPC   NC372095  22.544  37.406   5.458
 5648POPC   PO472096  22.253  37.988   5.392
 5648POPC   GL172097  22.270  37.749   5.760
 5648POPC   GL272098  22.071  37.445   5.713
 5648POPC   C1A72099  22.416  37.766   6.212
 5648POPC   D2A72100  22.366  37.959   6.611
 5648POPC   C3A72101  22.368  37.707   6.970
 5648POPC   C4A72102  22.191  37.726   7.360
 5648POPC   C1B72103  21.930  37.612   6.141
 5648POPC   C2B72104  21.979  37.603   6.617
 5648POPC   C3B72105  21.810  37.725   7.030
 5648POPC   C4B72106  21.712  37.610   7.486
 5649POPC   NC372107  16.524  11.395   5.243
 5649POPC   PO472108  16.741  10.816   5.458
 5649POPC   GL172109  16.613  10.993   5.851
 5649POPC   GL272110  16.921  11.089   6.060
 5649POPC   C1A72111  16.449  11.065   6.266
 5649POPC   D2A72112  16.631  11.133   6.675
 5649POPC   C3A72113  16.490  11.191   7.109
 5649POPC   C4A72114  16.697  11.086   7.500
 5649POPC   C1B72115  16.949  11.430   6.398
 5649POPC   C2B72116  16.865  11.549   6.854
 5649POPC   C3B72117  17.050  11.331   7.217
 5649POPC   C4B72118  17.365  11.370   7.557
 5650POPC   NC372119  39.943  29.848   5.408
 5650POPC   PO472120  40.405  30.357   5.453
 5650POPC   GL172121  40.152  30.243   5.798
 5650POPC   GL272122  39.780  30.166   5.788
 5650POPC   C1A72123  40.174  30.035   6.174
 5650POPC   D2A72124  40.192  30.211   6.557
 5650POPC   C3A72125  40.277  29.927   6.876
 5650POPC   C4A72126  40.365  29.810   7.284
 5650POPC   C1B72127  39.671  29.945   6.175
 5650POPC   C2B72128  39.775  29.902   6.629
 5650POPC   C3B72129  39.827  29.758   7.074
 5650POPC   C4B72130  39.892  29.780   7.524
 5651POPC   NC372131  18.821  42.906   5.658
 5651POPC   PO472132  19.236  43.393   5.443
 5651POPC   GL172133  19.228  43.153   5.820
 5651POPC   GL272134  18.920  43.385   5.889
 5651POPC   C1A72135  19.058  43.068   6.255
 5651POPC   D2A72136  18.932  43.249   6.627
 5651POPC   C3A72137  18.985  42.954   6.961
 5651POPC   C4A72138  19.200  43.043   7.313
 5651POPC   C1B72139  19.336  43.521   6.143
 5651POPC   C2B72140  19.566  43.397   6.520
 5651POPC   C3B72141  19.384  43.278   6.891
 5651POPC   C4B72142  19.302  43.519   7.271
 5652POPC   NC372143  26.564  11.099   5.557
 5652POPC   PO472144  26.033  11.503   5.375
 5652POPC   GL172145  26.020  11.448   5.858
 5652POPC   GL272146  26.219  11.186   5.921
 5652POPC   C1A72147  25.946  11.498   6.329
 5652POPC   D2A72148  25.787  11.448   6.791
 5652POPC   C3A72149  26.094  11.596   7.152
 5652POPC   C4A72150  26.131  11.569   7.645
 5652POPC   C1B72151  26.354  11.067   6.298
 5652POPC   C2B72152  26.126  11.063   6.608
 5652POPC   C3B72153  26.112  11.124   6.993
 5652POPC   C4B72154  26.015  11.112   7.397
 5653POPC   NC372155  38.229  11.847   5.558
 5653POPC   PO472156  38.671  12.226   5.455
 5653POPC   GL172157  38.454  12.223   5.844
 5653POPC   GL272158  38.523  11.875   5.983
 5653POPC   C1A72159  38.531  12.266   6.285
 5653POPC   D2A72160  38.421  11.990   6.586
 5653POPC   C3A72161  38.529  12.230   6.931
 5653POPC   C4A72162  38.335  12.155   7.313
 5653POPC   C1B72163  38.869  11.852   6.294
 5653POPC   C2B72164  38.900  11.884   6.756
 5653POPC   C3B72165  38.528  11.740   7.054
 5653POPC   C4B72166  38.372  11.661   7.516
 5654POPC   NC372167  21.010  12.845   5.334
 5654POPC   PO472168  21.632  12.765   5.431
 5654POPC   GL172169  21.352  12.782   5.763
 5654POPC   GL272170  21.235  12.465   5.845
 5654POPC   C1A72171  21.365  13.051   6.145
 5654POPC   D2A72172  21.392  12.985   6.591
 5654POPC   C3A72173  21.037  12.897   6.862
 5654POPC   C4A72174  21.062  12.876   7.314
 5654POPC   C1B72175  21.313  12.555   6.245
 5654POPC   C2B72176  21.477  12.486   6.620
 5654POPC   C3B72177  21.445  12.670   7.032
 5654POPC   C4B72178  21.347  12.448   7.420
 5655POPC   NC372179   1.532  26.181   5.477
 5655POPC   PO472180   2.190  26.399   5.301
 5655POPC   GL172181   2.054  26.079   5.622
 5655POPC   GL272182   2.316  25.822   5.739
 5655POPC   C1A72183   1.910  26.030   6.087
 5655POPC   D2A72184   1.861  25.794   6.517
 5655POPC   C3A72185   1.897  25.947   6.975
 5655POPC   C4A72186   1.886  25.825   7.434
 5655POPC   C1B72187   2.309  25.758   6.204
 5655POPC   C2B72188   2.272  26.088   6.538
 5655POPC   C3B72189   2.382  26.127   6.972
 5655POPC   C4B72190   2.360  25.781   7.242
 5656POPC   NC372191  16.010  38.078   5.578
 5656POPC   PO472192  15.861  38.665   5.403
 5656POPC   GL172193  16.101  38.746   5.763
 5656POPC   GL272194  15.807  38.923   5.888
 5656POPC   C1A72195  16.191  38.522   6.135
 5656POPC   D2A72196  16.011  38.286   6.469
 5656POPC   C3A72197  16.080  38.450   6.895
 5656POPC   C4A72198  15.834  38.313   7.231
 5656POPC   C1B72199  15.775  38.790   6.330
 5656POPC   C2B72200  15.779  38.896   6.764
 5656POPC   C3B72201  15.683  38.799   7.174
 5656POPC   C4B72202  15.625  38.891   7.628
 5657POPC   NC372203  40.978  36.602   5.579
 5657POPC   PO472204  40.332  36.689   5.734
 5657POPC   GL172205  40.739  36.914   5.897
 5657POPC   GL272206  41.139  37.019   5.787
 5657POPC   C1A72207  40.945  36.758   6.222
 5657POPC   D2A72208  40.665  36.698   6.532
 5657POPC   C3A72209  40.756  36.760   6.932
 5657POPC   C4A72210  40.824  37.076   7.185
 5657POPC   C1B72211  41.133  37.225   6.163
 5657POPC   C2B72212  41.158  37.077   6.571
 5657POPC   C3B72213  41.146  37.327   6.898
 5657POPC   C4B72214  41.249  37.450   7.261
 5658POPC   NC372215  29.732  39.561   5.375
 5658POPC   PO472216  30.259  39.137   5.327
 5658POPC   GL172217  30.054  39.096   5.719
 5658POPC   GL272218  29.688  39.130   5.742
 5658POPC   C1A72219  30.038  39.130   6.163
 5658POPC   D2A72220  29.865  39.312   6.536
 5658POPC   C3A72221  29.926  39.116   6.952
 5658POPC   C4A72222  29.732  39.412   7.231
 5658POPC   C1B72223  29.521  39.003   6.163
 5658POPC   C2B72224  29.613  38.864   6.592
 5658POPC   C3B72225  29.431  39.001   6.987
 5658POPC   C4B72226  29.537  38.976   7.412
 5659POPC   NC372227   3.903  18.481   5.509
 5659POPC   PO472228   4.418  18.113   5.402
 5659POPC   GL172229   4.318  18.221   5.818
 5659POPC   GL272230   4.015  18.083   5.851
 5659POPC   C1A72231   4.292  18.332   6.272
 5659POPC   D2A72232   4.386  18.168   6.706
 5659POPC   C3A72233   4.489  18.454   7.074
 5659POPC   C4A72234   4.318  18.548   7.486
 5659POPC   C1B72235   3.866  18.027   6.272
 5659POPC   C2B72236   3.905  17.973   6.745
 5659POPC   C3B72237   4.087  18.155   7.149
 5659POPC   C4B72238   4.296  18.041   7.511
 5660POPC   NC372239  13.833  38.437   5.601
 5660POPC   PO472240  13.218  38.248   5.421
 5660POPC   GL172241  13.353  38.110   5.852
 5660POPC   GL272242  13.708  38.143   6.015
 5660POPC   C1A72243  13.279  38.176   6.295
 5660POPC   D2A72244  13.393  38.424   6.672
 5660POPC   C3A72245  13.244  38.350   7.070
 5660POPC   C4A72246  13.105  38.174   7.480
 5660POPC   C1B72247  13.582  38.577   6.216
 5660POPC   C2B72248  13.751  38.784   6.628
 5660POPC   C3B72249  13.667  38.719   7.088
 5660POPC   C4B72250  13.529  38.506   7.469
 5661POPC   NC372251  27.043  12.266   4.957
 5661POPC   PO472252  26.682  12.476   5.535
 5661POPC   GL172253  26.668  12.832   5.843
 5661POPC   GL272254  26.338  12.902   5.953
 5661POPC   C1A72255  26.798  12.966   6.297
 5661POPC   D2A72256  26.915  12.714   6.699
 5661POPC   C3A72257  27.232  12.869   7.028
 5661POPC   C4A72258  27.406  12.996   7.451
 5661POPC   C1B72259  26.472  12.588   6.250
 5661POPC   C2B72260  26.405  12.568   6.692
 5661POPC   C3B72261  26.578  12.718   7.102
 5661POPC   C4B72262  26.604  12.592   7.545
 5662POPC   NC372263  19.234   1.407   5.316
 5662POPC   PO472264  19.634   1.001   5.394
 5662POPC   GL172265  19.304   1.105   5.739
 5662POPC   GL272266  18.958   1.307   5.766
 5662POPC   C1A72267  19.267   1.263   6.159
 5662POPC   D2A72268  19.118   1.457   6.542
 5662POPC   C3A72269  19.155   1.184   6.886
 5662POPC   C4A72270  18.836   0.956   7.102
 5662POPC   C1B72271  18.745   1.477   6.156
 5662POPC   C2B72272  18.587   1.467   6.598
 5662POPC   C3B72273  18.770   1.501   7.016
 5662POPC   C4B72274  18.600   1.450   7.424
 5663POPC   NC372275  33.281  37.699   5.311
 5663POPC   PO472276  33.978  37.384   5.404
 5663POPC   GL172277  33.831  37.630   5.765
 5663POPC   GL272278  33.629  37.942   5.708
 5663POPC   C1A72279  33.986  37.820   6.150
 5663POPC   D2A72280  33.803  37.652   6.524
 5663POPC   C3A72281  33.993  37.582   6.896
 5663POPC   C4A72282  33.842  37.781   7.237
 5663POPC   C1B72283  33.484  37.867   6.147
 5663POPC   C2B72284  33.431  37.981   6.567
 5663POPC   C3B72285  33.407  37.952   6.998
 5663POPC   C4B72286  33.408  37.922   7.464
 5664POPC   NC372287  32.474  41.334   5.543
 5664POPC   PO472288  31.931  41.706   5.545
 5664POPC   GL172289  32.039  41.436   5.852
 5664POPC   GL272290  32.332  41.652   5.910
 5664POPC   C1A72291  32.059  41.546   6.301
 5664POPC   D2A72292  32.236  41.535   6.698
 5664POPC   C3A72293  32.002  41.433   7.070
 5664POPC   C4A72294  31.954  41.229   7.464
 5664POPC   C1B72295  32.593  41.712   6.269
 5664POPC   C2B72296  32.716  41.682   6.687
 5664POPC   C3B72297  32.558  41.690   7.079
 5664POPC   C4B72298  32.370  41.535   7.430
 5665POPC   NC372299  23.969  12.175   5.315
 5665POPC   PO472300  23.325  11.993   5.586
 5665POPC   GL172301  23.732  12.119   5.782
 5665POPC   GL272302  23.976  11.865   5.927
 5665POPC   C1A72303  23.808  12.334   6.170
 5665POPC   D2A72304  23.938  12.116   6.527
 5665POPC   C3A72305  23.750  12.176   6.930
 5665POPC   C4A72306  23.821  11.936   7.296
 5665POPC   C1B72307  23.618  11.826   6.224
 5665POPC   C2B72308  23.345  11.651   6.549
 5665POPC   C3B72309  23.386  11.613   7.014
 5665POPC   C4B72310  23.326  11.852   7.386
 5666POPC   NC372311  26.460  35.772   5.137
 5666POPC   PO472312  25.955  36.206   5.320
 5666POPC   GL172313  26.008  36.057   5.712
 5666POPC   GL272314  26.260  36.314   5.735
 5666POPC   C1A72315  26.034  35.976   6.186
 5666POPC   D2A72316  25.874  35.875   6.635
 5666POPC   C3A72317  26.125  35.912   7.035
 5666POPC   C4A72318  26.316  36.268   7.221
 5666POPC   C1B72319  25.918  36.450   6.020
 5666POPC   C2B72320  25.919  36.436   6.462
 5666POPC   C3B72321  25.868  36.344   6.924
 5666POPC   C4B72322  25.481  36.428   7.168
 5667POPC   NC372323  28.518  32.531   5.403
 5667POPC   PO472324  28.184  31.895   5.480
 5667POPC   GL172325  28.478  32.110   5.709
 5667POPC   GL272326  28.306  32.425   5.839
 5667POPC   C1A72327  28.603  32.106   6.128
 5667POPC   D2A72328  28.237  32.154   6.357
 5667POPC   C3A72329  28.251  32.057   6.778
 5667POPC   C4A72330  28.297  32.086   7.203
 5667POPC   C1B72331  28.451  32.625   6.188
 5667POPC   C2B72332  28.585  32.527   6.556
 5667POPC   C3B72333  28.408  32.549   6.923
 5667POPC   C4B72334  28.584  32.480   7.280
 5668POPC   NC372335  12.939  14.091   5.483
 5668POPC   PO472336  12.954  13.449   5.426
 5668POPC   GL172337  13.051  13.555   5.859
 5668POPC   GL272338  12.763  13.773   5.897
 5668POPC   C1A72339  13.007  13.409   6.313
 5668POPC   D2A72340  12.983  13.615   6.738
 5668POPC   C3A72341  13.231  13.487   7.113
 5668POPC   C4A72342  13.012  13.439   7.543
 5668POPC   C1B72343  13.000  13.915   6.256
 5668POPC   C2B72344  12.973  14.223   6.554
 5668POPC   C3B72345  13.004  14.116   6.973
 5668POPC   C4B72346  12.824  13.781   7.220
 5669POPC   NC372347  21.340  25.219   5.348
 5669POPC   PO472348  21.735  25.693   5.616
 5669POPC   GL172349  21.709  25.210   5.822
 5669POPC   GL272350  21.541  24.847   5.746
 5669POPC   C1A72351  21.740  25.184   6.299
 5669POPC   D2A72352  21.721  25.393   6.727
 5669POPC   C3A72353  21.643  25.201   7.153
 5669POPC   C4A72354  21.730  25.087   7.607
 5669POPC   C1B72355  21.187  24.889   6.063
 5669POPC   C2B72356  21.124  24.931   6.521
 5669POPC   C3B72357  21.197  25.168   6.918
 5669POPC   C4B72358  21.233  25.000   7.358
 5670POPC   NC372359   4.448  19.295   5.347
 5670POPC   PO472360   3.877  18.956   5.374
 5670POPC   GL172361   4.154  18.951   5.715
 5670POPC   GL272362   4.265  19.278   5.832
 5670POPC   C1A72363   4.128  18.884   6.149
 5670POPC   D2A72364   4.095  18.716   6.556
 5670POPC   C3A72365   4.382  18.918   6.814
 5670POPC   C4A72366   4.222  18.908   7.166
 5670POPC   C1B72367   4.503  19.333   6.241
 5670POPC   C2B72368   4.541  19.408   6.708
 5670POPC   C3B72369   4.547  19.327   7.173
 5670POPC   C4B72370   4.768  19.315   7.613
 5671POPC   NC372371  28.729  42.502   5.406
 5671POPC   PO472372  29.332  42.241   5.331
 5671POPC   GL172373  29.150  42.312   5.725
 5671POPC   GL272374  29.046  42.661   5.808
 5671POPC   C1A72375  29.363  42.170   6.076
 5671POPC   D2A72376  29.300  42.245   6.509
 5671POPC   C3A72377  29.159  42.158   6.909
 5671POPC   C4A72378  29.398  42.383   7.182
 5671POPC   C1B72379  28.969  42.472   6.212
 5671POPC   C2B72380  28.956  42.593   6.647
 5671POPC   C3B72381  28.959  42.628   7.077
 5671POPC   C4B72382  28.964  42.380   7.478
 5672POPC   NC372383   5.883  38.681   5.491
 5672POPC   PO472384   5.515  38.125   5.484
 5672POPC   GL172385   5.629  38.390   5.845
 5672POPC   GL272386   5.945  38.271   5.879
 5672POPC   C1A72387   5.786  38.546   6.288
 5672POPC   D2A72388   5.689  38.730   6.715
 5672POPC   C3A72389   5.952  38.636   7.091
 5672POPC   C4A72390   5.767  38.527   7.520
 5672POPC   C1B72391   6.085  38.121   6.261
 5672POPC   C2B72392   6.033  38.278   6.690
 5672POPC   C3B72393   6.173  38.179   7.111
 5672POPC   C4B72394   6.079  38.130   7.549
 5673POPC   NC372395  33.191  13.152   5.358
 5673POPC   PO472396  33.262  13.816   5.382
 5673POPC   GL172397  32.966  13.560   5.645
 5673POPC   GL272398  33.187  13.382   5.791
 5673POPC   C1A72399  32.859  13.579   6.121
 5673POPC   D2A72400  32.807  13.817   6.543
 5673POPC   C3A72401  32.720  13.714   6.968
 5673POPC   C4A72402  32.858  13.630   7.361
 5673POPC   C1B72403  33.360  13.280   6.121
 5673POPC   C2B72404  33.195  13.433   6.485
 5673POPC   C3B72405  33.315  13.420   6.880
 5673POPC   C4B72406  33.183  13.240   7.250
 5674POPC   NC372407  32.521  15.687   5.600
 5674POPC   PO472408  32.319  16.296   5.582
 5674POPC   GL172409  32.247  15.991   5.938
 5674POPC   GL272410  32.061  15.667   5.891
 5674POPC   C1A72411  32.188  15.969   6.390
 5674POPC   D2A72412  32.127  15.650   6.729
 5674POPC   C3A72413  32.289  15.854   7.038
 5674POPC   C4A72414  32.505  15.820   7.394
 5674POPC   C1B72415  31.783  15.707   6.289
 5674POPC   C2B72416  31.721  15.945   6.722
 5674POPC   C3B72417  31.647  15.947   7.200
 5674POPC   C4B72418  31.671  15.933   7.690
 5675POPC   NC372419  11.008   1.558   5.346
 5675POPC   PO472420  11.344   0.942   5.490
 5675POPC   GL172421  11.386   1.286   5.826
 5675POPC   GL272422  11.053   1.303   5.993
 5675POPC   C1A72423  11.465   1.528   6.209
 5675POPC   D2A72424  11.218   1.351   6.556
 5675POPC   C3A72425  11.331   1.321   6.996
 5675POPC   C4A72426  11.472   1.502   7.402
 5675POPC   C1B72427  11.333   0.991   6.232
 5675POPC   C2B72428  11.537   0.952   6.671
 5675POPC   C3B72429  11.426   0.794   7.092
 5675POPC   C4B72430  11.197   0.599   7.476
 5676POPC   NC372431   3.533  23.711   5.299
 5676POPC   PO472432   3.820  23.137   5.644
 5676POPC   GL172433   3.487  23.458   5.757
 5676POPC   GL272434   3.513  23.846   5.793
 5676POPC   C1A72435   3.382  23.574   6.199
 5676POPC   D2A72436   3.626  23.692   6.551
 5676POPC   C3A72437   3.414  23.492   6.896
 5676POPC   C4A72438   3.489  23.618   7.306
 5676POPC   C1B72439   3.239  24.050   6.137
 5676POPC   C2B72440   3.179  23.939   6.615
 5676POPC   C3B72441   3.485  24.009   6.972
 5676POPC   C4B72442   3.393  24.130   7.418
 5677POPC   NC372443   8.617  44.874   5.417
 5677POPC   PO472444   9.052  44.485   5.181
 5677POPC   GL172445   9.138  44.527   5.659
 5677POPC   GL272446   8.846  44.713   5.836
 5677POPC   C1A72447   9.220  44.570   6.139
 5677POPC   D2A72448   9.256  44.836   6.522
 5677POPC   C3A72449   9.065  44.703   6.862
 5677POPC   C4A72450   9.198  44.745   7.250
 5677POPC   C1B72451   8.840  44.928   6.248
 5677POPC   C2B72452   8.755   0.095   6.668
 5677POPC   C3B72453   8.653  44.956   7.099
 5677POPC   C4B72454   8.779  44.791   7.509
 5678POPC   NC372455   9.833  43.795   5.449
 5678POPC   PO472456  10.018  44.449   5.244
 5678POPC   GL172457   9.995  44.160   5.733
 5678POPC   GL272458   9.713  43.946   5.904
 5678POPC   C1A72459  10.079  44.016   6.205
 5678POPC   D2A72460   9.874  44.028   6.600
 5678POPC   C3A72461   9.784  43.959   7.002
 5678POPC   C4A72462  10.021  43.976   7.362
 5678POPC   C1B72463   9.612  43.747   6.266
 5678POPC   C2B72464   9.668  43.533   6.632
 5678POPC   C3B72465   9.525  43.504   7.007
 5678POPC   C4B72466   9.587  43.641   7.377
 5679POPC   NC372467   3.037  27.208   5.413
 5679POPC   PO472468   2.806  27.774   5.238
 5679POPC   GL172469   2.684  27.535   5.683
 5679POPC   GL272470   2.973  27.533   5.825
 5679POPC   C1A72471   2.687  27.342   6.164
 5679POPC   D2A72472   2.952  27.532   6.497
 5679POPC   C3A72473   2.838  27.397   6.891
 5679POPC   C4A72474   2.717  27.359   7.299
 5679POPC   C1B72475   2.755  27.836   6.118
 5679POPC   C2B72476   2.861  28.045   6.486
 5679POPC   C3B72477   2.779  27.905   6.848
 5679POPC   C4B72478   2.901  27.832   7.232
 5680POPC   NC372479  39.749  34.986   5.418
 5680POPC   PO472480  40.370  34.668   5.396
 5680POPC   GL172481  40.058  34.693   5.745
 5680POPC   GL272482  39.935  34.356   5.806
 5680POPC   C1A72483  39.908  34.680   6.191
 5680POPC   D2A72484  39.912  34.450   6.587
 5680POPC   C3A72485  39.957  34.719   6.912
 5680POPC   C4A72486  40.070  34.612   7.298
 5680POPC   C1B72487  40.211  34.269   6.208
 5680POPC   C2B72488  40.360  34.231   6.681
 5680POPC   C3B72489  40.373  34.240   7.169
 5680POPC   C4B72490  40.305  34.353   7.666
 5681POPC   NC372491   6.890   1.726   5.701
 5681POPC   PO472492   6.481   2.084   5.321
 5681POPC   GL172493   6.542   2.084   5.775
 5681POPC   GL272494   6.845   2.271   5.783
 5681POPC   C1A72495   6.734   2.028   6.225
 5681POPC   D2A72496   6.967   1.891   6.560
 5681POPC   C3A72497   6.756   1.957   6.923
 5681POPC   C4A72498   6.951   1.686   7.206
 5681POPC   C1B72499   6.942   2.481   6.172
 5681POPC   C2B72500   6.767   2.417   6.588
 5681POPC   C3B72501   6.960   2.474   6.982
 5681POPC   C4B72502   7.012   2.203   7.285
 5682POPC   NC372503   3.086  11.259   5.153
 5682POPC   PO472504   3.528  11.508   5.616
 5682POPC   GL172505   3.758  11.446   5.925
 5682POPC   GL272506   3.693  11.080   5.873
 5682POPC   C1A72507   3.835  11.305   6.299
 5682POPC   D2A72508   3.691  11.228   6.649
 5682POPC   C3A72509   3.456  11.506   6.820
 5682POPC   C4A72510   3.674  11.490   7.200
 5682POPC   C1B72511   3.449  10.941   6.255
 5682POPC   C2B72512   3.235  11.027   6.661
 5682POPC   C3B72513   3.431  11.038   7.066
 5682POPC   C4B72514   3.393  11.114   7.512
 5683POPC   NC372515  27.555  19.234   5.318
 5683POPC   PO472516  28.084  18.953   5.424
 5683POPC   GL172517  27.807  19.107   5.798
 5683POPC   GL272518  27.457  19.306   5.807
 5683POPC   C1A72519  27.618  19.071   6.234
 5683POPC   D2A72520  27.690  19.322   6.588
 5683POPC   C3A72521  27.775  19.107   6.984
 5683POPC   C4A72522  27.570  18.725   7.184
 5683POPC   C1B72523  27.275  19.473   6.216
 5683POPC   C2B72524  27.158  19.410   6.671
 5683POPC   C3B72525  27.423  19.481   7.066
 5683POPC   C4B72526  27.286  19.562   7.541
 5684POPC   NC372527   5.088  26.925   5.552
 5684POPC   PO472528   4.997  26.203   5.536
 5684POPC   GL172529   5.141  26.499   5.839
 5684POPC   GL272530   4.842  26.632   5.924
 5684POPC   C1A72531   5.258  26.808   6.186
 5684POPC   D2A72532   5.058  26.980   6.568
 5684POPC   C3A72533   5.296  26.788   6.876
 5684POPC   C4A72534   5.518  26.705   7.245
 5684POPC   C1B72535   4.819  26.368   6.302
 5684POPC   C2B72536   4.983  26.268   6.727
 5684POPC   C3B72537   4.953  26.497   7.132
 5684POPC   C4B72538   5.111  26.617   7.555
 5685POPC   NC372539  17.620  36.810   5.392
 5685POPC   PO472540  17.072  37.087   5.458
 5685POPC   GL172541  17.303  36.968   5.813
 5685POPC   GL272542  17.154  36.649   5.891
 5685POPC   C1A72543  17.497  36.983   6.241
 5685POPC   D2A72544  17.573  36.723   6.644
 5685POPC   C3A72545  17.584  36.756   7.090
 5685POPC   C4A72546  17.602  37.178   7.205
 5685POPC   C1B72547  17.177  36.597   6.346
 5685POPC   C2B72548  17.049  36.701   6.786
 5685POPC   C3B72549  17.048  36.635   7.248
 5685POPC   C4B72550  17.259  36.428   7.615
 5686POPC   NC372551   4.118  32.024   5.116
 5686POPC   PO472552   4.511  32.470   5.428
 5686POPC   GL172553   4.340  32.375   5.825
 5686POPC   GL272554   4.148  32.682   5.863
 5686POPC   C1A72555   4.447  32.072   6.189
 5686POPC   D2A72556   4.413  31.814   6.599
 5686POPC   C3A72557   4.345  32.023   7.025
 5686POPC   C4A72558   4.363  31.865   7.486
 5686POPC   C1B72559   4.258  32.538   6.297
 5686POPC   C2B72560   4.482  32.351   6.638
 5686POPC   C3B72561   4.324  32.580   6.970
 5686POPC   C4B72562   4.070  32.685   7.270
 5687POPC   NC372563  17.899  38.728   5.465
 5687POPC   PO472564  17.869  38.058   5.559
 5687POPC   GL172565  17.560  38.209   5.853
 5687POPC   GL272566  17.568  38.584   5.831
 5687POPC   C1A72567  17.386  38.343   6.260
 5687POPC   D2A72568  17.575  38.496   6.643
 5687POPC   C3A72569  17.394  38.474   7.051
 5687POPC   C4A72570  17.686  38.472   7.393
 5687POPC   C1B72571  17.524  38.836   6.196
 5687POPC   C2B72572  17.418  38.994   6.589
 5687POPC   C3B72573  17.629  38.926   6.973
 5687POPC   C4B72574  17.489  38.929   7.383
 5688POPC   NC372575  19.896   1.872   5.418
 5688POPC   PO472576  19.555   2.423   5.564
 5688POPC   GL172577  19.842   2.163   5.847
 5688POPC   GL272578  20.082   1.843   5.876
 5688POPC   C1A72579  19.735   2.047   6.274
 5688POPC   D2A72580  19.660   2.302   6.675
 5688POPC   C3A72581  19.765   2.070   7.058
 5688POPC   C4A72582  19.951   2.046   7.476
 5688POPC   C1B72583  20.238   2.131   6.178
 5688POPC   C2B72584  20.115   2.097   6.603
 5688POPC   C3B72585  20.267   2.016   6.971
 5688POPC   C4B72586  20.411   1.864   7.308
 5689POPC   NC372587  32.679  21.031   5.139
 5689POPC   PO472588  33.016  20.463   5.420
 5689POPC   GL172589  32.905  20.391   5.811
 5689POPC   GL272590  33.174  20.159   5.807
 5689POPC   C1A72591  32.919  20.500   6.245
 5689POPC   D2A72592  32.734  20.358   6.595
 5689POPC   C3A72593  32.790  20.556   6.985
 5689POPC   C4A72594  33.115  20.852   7.136
 5689POPC   C1B72595  33.350  20.176   6.217
 5689POPC   C2B72596  33.275  20.209   6.641
 5689POPC   C3B72597  33.284  20.399   7.013
 5689POPC   C4B72598  33.057  20.316   7.373
 5690POPC   NC372599  34.224  33.789   5.509
 5690POPC   PO472600  33.559  33.632   5.408
 5690POPC   GL172601  33.732  33.625   5.793
 5690POPC   GL272602  34.039  33.468   5.823
 5690POPC   C1A72603  33.899  33.857   6.125
 5690POPC   D2A72604  33.946  34.174   6.408
 5690POPC   C3A72605  33.737  33.971   6.728
 5690POPC   C4A72606  33.612  33.920   7.156
 5690POPC   C1B72607  34.157  33.341   6.175
 5690POPC   C2B72608  33.895  33.473   6.503
 5690POPC   C3B72609  33.867  33.517   6.930
 5690POPC   C4B72610  33.924  33.352   7.337
 5691POPC   NC372611  36.862  14.827   5.549
 5691POPC   PO472612  37.158  15.418   5.274
 5691POPC   GL172613  37.138  15.268   5.779
 5691POPC   GL272614  37.300  14.989   5.904
 5691POPC   C1A72615  36.931  15.454   6.190
 5691POPC   D2A72616  36.976  15.356   6.641
 5691POPC   C3A72617  36.741  15.045   6.859
 5691POPC   C4A72618  36.581  15.114   7.269
 5691POPC   C1B72619  37.010  14.958   6.292
 5691POPC   C2B72620  36.987  14.582   6.585
 5691POPC   C3B72621  37.065  14.645   7.026
 5691POPC   C4B72622  37.098  15.001   7.298
 5692POPC   NC372623  20.159  39.852   5.546
 5692POPC   PO472624  20.843  39.739   5.270
 5692POPC   GL172625  20.646  40.006   5.707
 5692POPC   GL272626  20.553  40.274   5.905
 5692POPC   C1A72627  20.726  39.940   6.225
 5692POPC   D2A72628  20.514  40.011   6.632
 5692POPC   C3A72629  20.762  39.857   6.910
 5692POPC   C4A72630  20.844  39.801   7.313
 5692POPC   C1B72631  20.242  40.086   6.207
 5692POPC   C2B72632  20.247  39.651   6.384
 5692POPC   C3B72633  20.312  39.539   6.820
 5692POPC   C4B72634  20.302  39.866   7.123
 5693POPC   NC372635  25.554   5.241   5.340
 5693POPC   PO472636  25.065   4.762   5.485
 5693POPC   GL172637  25.403   4.975   5.744
 5693POPC   GL272638  25.252   5.323   5.759
 5693POPC   C1A72639  25.601   4.924   6.168
 5693POPC   D2A72640  25.498   4.698   6.578
 5693POPC   C3A72641  25.532   4.963   6.969
 5693POPC   C4A72642  25.841   5.260   7.114
 5693POPC   C1B72643  25.095   5.094   6.124
 5693POPC   C2B72644  25.224   5.128   6.522
 5693POPC   C3B72645  25.066   5.182   6.889
 5693POPC   C4B72646  25.077   5.022   7.260
 5694POPC   NC372647  35.423  41.849   5.388
 5694POPC   PO472648  35.295  41.104   5.321
 5694POPC   GL172649  35.318  41.339   5.735
 5694POPC   GL272650  34.988  41.219   5.770
 5694POPC   C1A72651  35.551  41.509   6.176
 5694POPC   D2A72652  35.540  41.720   6.630
 5694POPC   C3A72653  35.529  41.440   7.033
 5694POPC   C4A72654  35.348  41.494   7.468
 5694POPC   C1B72655  35.033  41.456   6.175
 5694POPC   C2B72656  35.118  41.419   6.600
 5694POPC   C3B72657  34.976  41.501   7.012
 5694POPC   C4B72658  34.936  41.199   7.303
 5695POPC   NC372659  42.806  32.587   5.472
 5695POPC   PO472660  42.469  32.164   5.130
 5695POPC   GL172661  42.699  32.082   5.567
 5695POPC   GL272662  43.072  32.190   5.677
 5695POPC   C1A72663  42.720  32.095   6.053
 5695POPC   D2A72664  42.814  32.340   6.455
 5695POPC   C3A72665  42.977  32.162   6.840
 5695POPC   C4A72666  43.149  32.352   7.201
 5695POPC   C1B72667  43.229  32.038   6.119
 5695POPC   C2B72668  43.320  31.870   6.548
 5695POPC   C3B72669  43.483  32.025   6.948
 5695POPC   C4B72670  43.497  32.059   7.421
 5696POPC   NC372671  39.984   8.866   5.355
 5696POPC   PO472672  40.348   9.380   5.574
 5696POPC   GL172673  39.986   9.239   5.912
 5696POPC   GL272674  39.881   8.905   5.846
 5696POPC   C1A72675  39.657   9.068   6.250
 5696POPC   D2A72676  39.610   8.932   6.649
 5696POPC   C3A72677  39.988   8.911   6.888
 5696POPC   C4A72678  39.762   8.993   7.255
 5696POPC   C1B72679  40.133   8.888   6.261
 5696POPC   C2B72680  40.377   8.619   6.572
 5696POPC   C3B72681  40.244   8.430   6.956
 5696POPC   C4B72682  40.108   8.634   7.327
 5697POPC   NC372683  24.207   9.342   5.336
 5697POPC   PO472684  24.805   9.548   5.383
 5697POPC   GL172685  24.710   9.787   5.769
 5697POPC   GL272686  24.625   9.466   5.893
 5697POPC   C1A72687  24.557   9.864   6.205
 5697POPC   D2A72688  24.739   9.775   6.585
 5697POPC   C3A72689  24.671  10.042   6.904
 5697POPC   C4A72690  24.572   9.950   7.309
 5697POPC   C1B72691  24.732   9.340   6.315
 5697POPC   C2B72692  24.790   9.295   6.753
 5697POPC   C3B72693  24.619   9.484   7.087
 5697POPC   C4B72694  24.246   9.437   7.323
 5698POPC   NC372695  13.454   2.609   5.280
 5698POPC   PO472696  13.703   2.028   5.325
 5698POPC   GL172697  13.677   2.330   5.712
 5698POPC   GL272698  13.336   2.417   5.745
 5698POPC   C1A72699  13.770   2.342   6.204
 5698POPC   D2A72700  13.779   2.098   6.622
 5698POPC   C3A72701  13.850   2.266   7.056
 5698POPC   C4A72702  13.855   2.008   7.464
 5698POPC   C1B72703  13.316   2.587   6.162
 5698POPC   C2B72704  13.415   2.443   6.583
 5698POPC   C3B72705  13.333   2.282   6.992
 5698POPC   C4B72706  13.447   2.324   7.420
 5699POPC   NC372707  44.428  35.789   5.440
 5699POPC   PO472708  43.847  36.203   5.329
 5699POPC   GL172709  43.646  36.130   5.729
 5699POPC   GL272710  43.952  35.970   5.853
 5699POPC   C1A72711  43.608  36.278   6.145
 5699POPC   D2A72712  43.855  36.277   6.539
 5699POPC   C3A72713  43.622  36.408   6.900
 5699POPC   C4A72714  43.753  36.394   7.336
 5699POPC   C1B72715  43.773  35.821   6.271
 5699POPC   C2B72716  43.538  35.900   6.683
 5699POPC   C3B72717  43.791  35.958   7.066
 5699POPC   C4B72718  44.180  35.758   7.193
 5700POPC   NC372719  11.935  20.927   5.433
 5700POPC   PO472720  12.024  20.325   5.646
 5700POPC   GL172721  12.199  20.494   5.956
 5700POPC   GL272722  12.269  20.843   5.850
 5700POPC   C1A72723  12.028  20.404   6.353
 5700POPC   D2A72724  11.723  20.608   6.604
 5700POPC   C3A72725  11.908  20.795   6.960
 5700POPC   C4A72726  12.062  20.490   7.233
 5700POPC   C1B72727  12.149  20.896   6.287
 5700POPC   C2B72728  12.344  20.718   6.673
 5700POPC   C3B72729  12.465  20.805   7.101
 5700POPC   C4B72730  12.403  20.688   7.569
 5701POPC   NC372731   4.329   2.556   5.716
 5701POPC   PO472732   4.184   3.164   5.389
 5701POPC   GL172733   4.116   3.021   5.824
 5701POPC   GL272734   4.408   3.103   6.088
 5701POPC   C1A72735   3.997   2.853   6.228
 5701POPC   D2A72736   4.165   3.007   6.594
 5701POPC   C3A72737   4.070   2.733   6.916
 5701POPC   C4A72738   4.290   2.834   7.228
 5701POPC   C1B72739   4.651   2.857   6.375
 5701POPC   C2B72740   4.603   2.779   6.791
 5701POPC   C3B72741   4.646   2.513   7.093
 5701POPC   C4B72742   4.466   2.424   7.465
 5702POPC   NC372743  35.902   5.470   5.339
 5702POPC   PO472744  35.930   4.820   5.571
 5702POPC   GL172745  36.010   5.028   5.974
 5702POPC   GL272746  35.927   5.356   5.858
 5702POPC   C1A72747  36.008   4.951   6.444
 5702POPC   D2A72748  36.069   4.716   6.814
 5702POPC   C3A72749  36.180   4.990   7.161
 5702POPC   C4A72750  36.564   5.048   7.423
 5702POPC   C1B72751  35.780   5.391   6.286
 5702POPC   C2B72752  35.793   5.553   6.757
 5702POPC   C3B72753  35.780   5.326   7.179
 5702POPC   C4B72754  35.574   5.135   7.543
 5703POPC   NC372755  10.465   3.928   5.144
 5703POPC   PO472756  10.421   4.550   5.431
 5703POPC   GL172757  10.696   4.365   5.766
 5703POPC   GL272758  10.656   3.996   5.820
 5703POPC   C1A72759  10.865   4.270   6.186
 5703POPC   D2A72760  10.800   4.449   6.572
 5703POPC   C3A72761  10.475   4.378   6.859
 5703POPC   C4A72762  10.650   4.517   7.222
 5703POPC   C1B72763  10.500   3.912   6.277
 5703POPC   C2B72764  10.661   3.924   6.697
 5703POPC   C3B72765  10.795   4.029   7.127
 5703POPC   C4B72766  11.075   3.834   7.426
 5704POPC   NC372767  13.852  32.099   5.476
 5704POPC   PO472768  13.213  32.297   5.356
 5704POPC   GL172769  13.456  32.328   5.751
 5704POPC   GL272770  13.568  31.971   5.867
 5704POPC   C1A72771  13.499  32.391   6.210
 5704POPC   D2A72772  13.561  32.122   6.583
 5704POPC   C3A72773  13.653  32.348   6.940
 5704POPC   C4A72774  13.340  32.619   7.116
 5704POPC   C1B72775  13.847  31.872   6.231
 5704POPC   C2B72776  13.871  31.709   6.693
 5704POPC   C3B72777  13.675  31.834   7.093
 5704POPC   C4B72778  13.870  31.909   7.527
 5705POPC   NC372779  41.668  31.899   5.464
 5705POPC   PO472780  41.577  32.552   5.233
 5705POPC   GL172781  41.512  32.386   5.662
 5705POPC   GL272782  41.234  32.174   5.838
 5705POPC   C1A72783  41.553  32.527   6.089
 5705POPC   D2A72784  41.453  32.358   6.461
 5705POPC   C3A72785  41.702  32.327   6.816
 5705POPC   C4A72786  41.659  32.298   7.241
 5705POPC   C1B72787  41.127  31.925   6.236
 5705POPC   C2B72788  41.085  31.971   6.704
 5705POPC   C3B72789  41.322  31.880   7.096
 5705POPC   C4B72790  41.229  31.919   7.572
 5706POPC   NC372791  41.163  12.470   5.509
 5706POPC   PO472792  40.844  13.062   5.433
 5706POPC   GL172793  40.860  13.100   5.843
 5706POPC   GL272794  40.513  13.128   5.878
 5706POPC   C1A72795  41.004  12.741   6.105
 5706POPC   D2A72796  40.817  12.552   6.468
 5706POPC   C3A72797  40.839  12.871   6.802
 5706POPC   C4A72798  40.989  12.843   7.217
 5706POPC   C1B72799  40.605  13.018   6.306
 5706POPC   C2B72800  40.354  12.818   6.614
 5706POPC   C3B72801  40.412  12.618   6.997
 5706POPC   C4B72802  40.475  12.931   7.277
 5707POPC   NC372803   1.494  14.566   5.341
 5707POPC   PO472804   0.905  14.247   5.449
 5707POPC   GL172805   1.226  14.334   5.718
 5707POPC   GL272806   1.267  14.682   5.813
 5707POPC   C1A72807   1.385  14.266   6.117
 5707POPC   D2A72808   1.331  14.516   6.447
 5707POPC   C3A72809   1.340  14.409   6.845
 5707POPC   C4A72810   1.482  14.709   7.108
 5707POPC   C1B72811   0.947  14.615   6.134
 5707POPC   C2B72812   0.823  14.534   6.584
 5707POPC   C3B72813   0.914  14.650   7.029
 5707POPC   C4B72814   0.845  14.684   7.540
 5708POPC   NC372815  34.989  36.765   5.585
 5708POPC   PO472816  35.565  37.005   5.346
 5708POPC   GL172817  35.409  37.024   5.753
 5708POPC   GL272818  35.115  37.193   5.872
 5708POPC   C1A72819  35.430  36.857   6.166
 5708POPC   D2A72820  35.308  36.590   6.504
 5708POPC   C3A72821  35.405  36.792   6.880
 5708POPC   C4A72822  35.566  36.899   7.297
 5708POPC   C1B72823  34.948  37.014   6.277
 5708POPC   C2B72824  34.969  37.047   6.728
 5708POPC   C3B72825  35.110  37.097   7.165
 5708POPC   C4B72826  35.092  36.640   7.292
 5709POPC   NC372827  24.433  18.481   5.398
 5709POPC   PO472828  24.854  17.984   5.455
 5709POPC   GL172829  24.490  18.114   5.831
 5709POPC   GL272830  24.248  18.419   5.860
 5709POPC   C1A72831  24.233  18.150   6.281
 5709POPC   D2A72832  24.532  18.223   6.635
 5709POPC   C3A72833  24.429  18.263   7.080
 5709POPC   C4A72834  24.388  18.116   7.511
 5709POPC   C1B72835  24.528  18.549   6.183
 5709POPC   C2B72836  24.783  18.695   6.520
 5709POPC   C3B72837  24.808  18.590   6.938
 5709POPC   C4B72838  24.713  18.557   7.368
 5710POPC   NC372839  32.520  43.539   5.421
 5710POPC   PO472840  31.996  44.043   5.517
 5710POPC   GL172841  32.178  43.953   5.885
 5710POPC   GL272842  32.263  43.608   5.903
 5710POPC   C1A72843  32.039  43.929   6.290
 5710POPC   D2A72844  31.956  43.796   6.666
 5710POPC   C3A72845  32.122  44.025   6.965
 5710POPC   C4A72846  32.022  43.863   7.277
 5710POPC   C1B72847  32.533  43.784   6.254
 5710POPC   C2B72848  32.518  43.838   6.714
 5710POPC   C3B72849  32.542  43.780   7.178
 5710POPC   C4B72850  32.574  43.871   7.606
 5711POPC   NC372851  16.807   3.030   5.193
 5711POPC   PO472852  16.359   2.549   5.307
 5711POPC   GL172853  16.647   2.669   5.598
 5711POPC   GL272854  16.542   3.000   5.678
 5711POPC   C1A72855  16.660   2.693   6.064
 5711POPC   D2A72856  16.525   2.798   6.493
 5711POPC   C3A72857  16.693   2.571   6.834
 5711POPC   C4A72858  16.931   2.615   7.219
 5711POPC   C1B72859  16.371   3.151   6.088
 5711POPC   C2B72860  16.441   3.294   6.543
 5711POPC   C3B72861  16.549   3.095   6.955
 5711POPC   C4B72862  16.429   2.734   7.229
 5712POPC   NC372863  19.138  34.750   5.208
 5712POPC   PO472864  18.699  34.395   5.393
 5712POPC   GL172865  19.012  34.568   5.760
 5712POPC   GL272866  19.327  34.766   5.708
 5712POPC   C1A72867  19.120  34.646   6.251
 5712POPC   D2A72868  18.861  34.754   6.673
 5712POPC   C3A72869  18.650  34.452   6.978
 5712POPC   C4A72870  18.630  34.425   7.441
 5712POPC   C1B72871  19.641  34.620   6.035
 5712POPC   C2B72872  19.662  34.466   6.477
 5712POPC   C3B72873  19.312  34.457   6.794
 5712POPC   C4B72874  19.078  34.645   7.134
 5713POPC   NC372875  41.412  35.104   5.263
 5713POPC   PO472876  41.710  35.631   5.041
 5713POPC   GL172877  41.613  35.526   5.553
 5713POPC   GL272878  41.748  35.203   5.687
 5713POPC   C1A72879  41.552  35.494   6.061
 5713POPC   D2A72880  41.227  35.285   6.378
 5713POPC   C3A72881  41.323  35.210   6.833
 5713POPC   C4A72882  41.526  35.464   7.137
 5713POPC   C1B72883  41.859  35.047   6.112
 5713POPC   C2B72884  41.818  35.082   6.573
 5713POPC   C3B72885  41.748  34.941   6.995
 5713POPC   C4B72886  41.688  34.866   7.419
 5714POPC   NC372887  38.384  36.365   4.924
 5714POPC   PO472888  38.640  36.141   5.539
 5714POPC   GL172889  38.690  36.197   5.926
 5714POPC   GL272890  38.830  35.871   6.005
 5714POPC   C1A72891  38.469  36.345   6.270
 5714POPC   D2A72892  38.311  36.185   6.614
 5714POPC   C3A72893  38.525  36.302   6.905
 5714POPC   C4A72894  38.671  36.286   7.298
 5714POPC   C1B72895  38.497  35.821   6.246
 5714POPC   C2B72896  38.432  35.670   6.624
 5714POPC   C3B72897  38.527  35.801   6.974
 5714POPC   C4B72898  38.217  35.968   7.181
 5715POPC   NC372899   9.195  22.386   5.361
 5715POPC   PO472900   8.904  22.061   5.858
 5715POPC   GL172901   8.912  21.840   6.181
 5715POPC   GL272902   9.203  21.630   6.022
 5715POPC   C1A72903   8.618  22.006   6.506
 5715POPC   D2A72904   8.573  22.441   6.671
 5715POPC   C3A72905   8.921  22.467   6.940
 5715POPC   C4A72906   8.873  22.274   7.341
 5715POPC   C1B72907   9.395  21.903   6.320
 5715POPC   C2B72908   9.118  22.154   6.556
 5715POPC   C3B72909   8.939  21.969   6.925
 5715POPC   C4B72910   9.057  21.785   7.308
 5716POPC   NC372911  31.125   0.530   5.372
 5716POPC   PO472912  30.509   0.471   5.434
 5716POPC   GL172913  30.772   0.156   5.712
 5716POPC   GL272914  30.511   0.173   5.923
 5716POPC   C1A72915  30.934   0.058   6.179
 5716POPC   D2A72916  30.770   0.266   6.550
 5716POPC   C3A72917  31.045   0.354   6.925
 5716POPC   C4A72918  30.910   0.704   7.201
 5716POPC   C1B72919  30.401  44.974   6.281
 5716POPC   C2B72920  30.413  44.911   6.729
 5716POPC   C3B72921  30.554   0.209   7.015
 5716POPC   C4B72922  30.799   0.237   7.381
 5717POPC   NC372923  27.749  31.898   5.314
 5717POPC   PO472924  27.882  32.536   5.239
 5717POPC   GL172925  27.814  32.299   5.672
 5717POPC   GL272926  27.981  32.047   5.906
 5717POPC   C1A72927  27.494  32.340   6.021
 5717POPC   D2A72928  27.416  32.575   6.423
 5717POPC   C3A72929  27.466  32.470   6.867
 5717POPC   C4A72930  27.441  32.299   7.263
 5717POPC   C1B72931  27.750  31.986   6.260
 5717POPC   C2B72932  27.610  32.058   6.630
 5717POPC   C3B72933  27.772  31.983   7.018
 5717POPC   C4B72934  27.852  32.040   7.443
 5718POPC   NC372935  16.785   9.225   5.682
 5718POPC   PO472936  16.339   8.686   5.647
 5718POPC   GL172937  16.679   8.792   5.961
 5718POPC   GL272938  17.037   8.637   6.009
 5718POPC   C1A72939  16.602   9.119   6.302
 5718POPC   D2A72940  16.656   9.405   6.651
 5718POPC   C3A72941  16.628   9.164   7.026
 5718POPC   C4A72942  17.020   8.993   7.189
 5718POPC   C1B72943  16.897   8.701   6.418
 5718POPC   C2B72944  16.505   8.573   6.630
 5718POPC   C3B72945  16.439   8.637   7.070
 5718POPC   C4B72946  16.576   8.848   7.441
 5719POPC   NC372947   3.493   9.295   5.366
 5719POPC   PO472948   3.376  10.039   5.356
 5719POPC   GL172949   3.482   9.970   5.781
 5719POPC   GL272950   3.814   9.821   5.717
 5719POPC   C1A72951   3.324   9.806   6.202
 5719POPC   D2A72952   3.308   9.587   6.627
 5719POPC   C3A72953   3.336   9.857   7.018
 5719POPC   C4A72954   3.287   9.999   7.428
 5719POPC   C1B72955   3.775   9.546   6.078
 5719POPC   C2B72956   3.867   9.448   6.510
 5719POPC   C3B72957   3.740   9.578   6.904
 5719POPC   C4B72958   3.755   9.719   7.337
 5720POPC   NC372959   7.766   4.081   5.342
 5720POPC   PO472960   7.251   4.520   5.324
 5720POPC   GL172961   7.321   4.662   5.728
 5720POPC   GL272962   7.546   4.380   5.739
 5720POPC   C1A72963   7.442   4.651   6.152
 5720POPC   D2A72964   7.416   4.325   6.403
 5720POPC   C3A72965   7.481   4.371   6.821
 5720POPC   C4A72966   7.650   4.342   7.239
 5720POPC   C1B72967   7.152   4.244   5.956
 5720POPC   C2B72968   6.955   4.162   6.351
 5720POPC   C3B72969   7.001   4.140   6.833
 5720POPC   C4B72970   7.097   4.052   7.290
 5721POPC   NC372971   4.067  17.790   5.422
 5721POPC   PO472972   4.522  17.339   5.386
 5721POPC   GL172973   4.395  17.362   5.790
 5721POPC   GL272974   4.376  17.699   5.817
 5721POPC   C1A72975   4.179  17.317   6.182
 5721POPC   D2A72976   4.047  17.108   6.546
 5721POPC   C3A72977   4.193  17.165   7.005
 5721POPC   C4A72978   3.947  17.276   7.377
 5721POPC   C1B72979   4.317  17.802   6.251
 5721POPC   C2B72980   4.207  17.586   6.647
 5721POPC   C3B72981   4.255  17.688   7.069
 5721POPC   C4B72982   4.621  17.956   7.126
 5722POPC   NC372983   5.390  36.323   5.396
 5722POPC   PO472984   5.061  35.841   5.003
 5722POPC   GL172985   5.174  35.886   5.512
 5722POPC   GL272986   5.035  36.181   5.723
 5722POPC   C1A72987   5.305  35.879   6.018
 5722POPC   D2A72988   5.117  36.063   6.411
 5722POPC   C3A72989   5.236  36.021   6.845
 5722POPC   C4A72990   5.078  35.801   7.200
 5722POPC   C1B72991   5.293  36.408   6.061
 5722POPC   C2B72992   5.389  36.579   6.499
 5722POPC   C3B72993   5.243  36.540   6.958
 5722POPC   C4B72994   5.093  36.290   7.303
 5723POPC   NC372995   7.686  31.967   5.513
 5723POPC   PO472996   7.332  32.527   5.307
 5723POPC   GL172997   7.419  32.358   5.744
 5723POPC   GL272998   7.329  32.005   5.865
 5723POPC   C1A72999   7.588  32.303   6.185
 5723POPC   D2A73000   7.684  32.079   6.555
 5723POPC   C3A73001   7.589  32.276   6.953
 5723POPC   C4A73002   7.643  32.471   7.369
 5723POPC   C1B73003   7.258  31.894   6.295
 5723POPC   C2B73004   7.163  32.108   6.668
 5723POPC   C3B73005   7.166  32.046   7.101
 5723POPC   C4B73006   7.410  31.996   7.456
 5724POPC   NC373007  34.372  14.138   5.478
 5724POPC   PO473008  34.900  14.534   5.191
 5724POPC   GL173009  34.849  14.355   5.616
 5724POPC   GL273010  34.551  14.532   5.767
 5724POPC   C1A73011  34.915  14.319   6.076
 5724POPC   D2A73012  34.805  14.317   6.539
 5724POPC   C3A73013  34.925  14.494   6.941
 5724POPC   C4A73014  34.723  14.395   7.343
 5724POPC   C1B73015  34.393  14.464   6.186
 5724POPC   C2B73016  34.304  14.238   6.585
 5724POPC   C3B73017  34.410  14.453   6.932
 5724POPC   C4B73018  34.230  14.525   7.308
 5725POPC   NC373019  12.550  13.177   5.367
 5725POPC   PO473020  12.883  12.607   5.317
 5725POPC   GL173021  12.901  12.687   5.759
 5725POPC   GL273022  12.854  13.057   5.815
 5725POPC   C1A73023  12.859  12.663   6.213
 5725POPC   D2A73024  12.926  12.930   6.594
 5725POPC   C3A73025  12.782  12.684   6.950
 5725POPC   C4A73026  12.848  12.624   7.424
 5725POPC   C1B73027  12.591  13.106   6.197
 5725POPC   C2B73028  12.482  13.259   6.615
 5725POPC   C3B73029  12.705  13.269   7.020
 5725POPC   C4B73030  13.008  13.050   7.225
 5726POPC   NC373031  26.240  17.813   5.261
 5726POPC   PO473032  25.729  17.531   5.540
 5726POPC   GL173033  25.816  17.741   5.933
 5726POPC   GL273034  26.118  17.853   5.781
 5726POPC   C1A73035  25.878  17.713   6.379
 5726POPC   D2A73036  25.899  17.477   6.756
 5726POPC   C3A73037  25.780  17.667   7.136
 5726POPC   C4A73038  25.721  17.766   7.582
 5726POPC   C1B73039  26.347  17.774   6.159
 5726POPC   C2B73040  26.382  17.620   6.586
 5726POPC   C3B73041  26.285  17.724   7.017
 5726POPC   C4B73042  26.187  17.579   7.457
 5727POPC   NC373043   0.029  24.263   5.344
 5727POPC   PO473044   0.642  24.651   5.259
 5727POPC   GL173045   0.502  24.631   5.689
 5727POPC   GL273046   0.413  24.301   5.695
 5727POPC   C1A73047   0.277  24.655   6.106
 5727POPC   D2A73048   0.367  24.514   6.531
 5727POPC   C3A73049   0.338  24.745   6.903
 5727POPC   C4A73050   0.480  24.680   7.331
 5727POPC   C1B73051   0.525  24.152   6.077
 5727POPC   C2B73052   0.520  24.021   6.496
 5727POPC   C3B73053   0.519  24.075   6.929
 5727POPC   C4B73054   0.538  24.129   7.397
 5728POPC   NC373055  13.421  31.210   5.320
 5728POPC   PO473056  13.939  31.639   5.557
 5728POPC   GL173057  13.710  31.461   5.872
 5728POPC   GL273058  13.368  31.476   5.765
 5728POPC   C1A73059  13.750  31.380   6.306
 5728POPC   D2A73060  13.815  31.103   6.632
 5728POPC   C3A73061  13.665  31.301   7.007
 5728POPC   C4A73062  13.667  31.443   7.435
 5728POPC   C1B73063  13.196  31.483   6.193
 5728POPC   C2B73064  13.366  31.644   6.612
 5728POPC   C3B73065  13.230  31.553   7.034
 5728POPC   C4B73066  13.206  31.246   7.361
 5729POPC   NC373067  16.702  22.304   5.267
 5729POPC   PO473068  17.101  21.930   5.539
 5729POPC   GL173069  16.789  22.201   5.751
 5729POPC   GL273070  16.913  22.518   5.793
 5729POPC   C1A73071  16.525  22.313   6.111
 5729POPC   D2A73072  16.626  22.191   6.535
 5729POPC   C3A73073  16.447  22.349   6.893
 5729POPC   C4A73074  16.487  22.112   7.235
 5729POPC   C1B73075  17.044  22.250   6.181
 5729POPC   C2B73076  17.115  22.066   6.581
 5729POPC   C3B73077  16.973  22.259   6.984
 5729POPC   C4B73078  17.030  22.028   7.375
 5730POPC   NC373079   6.772  20.097   5.400
 5730POPC   PO473080   6.376  19.653   5.582
 5730POPC   GL173081   6.769  19.786   5.841
 5730POPC   GL273082   6.884  20.137   5.904
 5730POPC   C1A73083   6.861  19.702   6.293
 5730POPC   D2A73084   6.983  19.818   6.737
 5730POPC   C3A73085   6.661  19.720   7.083
 5730POPC   C4A73086   6.477  19.647   7.514
 5730POPC   C1B73087   6.777  20.233   6.327
 5730POPC   C2B73088   6.935  20.332   6.742
 5730POPC   C3B73089   6.918  20.163   7.127
 5730POPC   C4B73090   6.889  19.973   7.498
 5731POPC   NC373091   8.585  10.693   5.344
 5731POPC   PO473092   8.159  10.167   5.453
 5731POPC   GL173093   8.217  10.502   5.700
 5731POPC   GL273094   8.532  10.433   5.809
 5731POPC   C1A73095   8.239  10.646   6.158
 5731POPC   D2A73096   7.978  10.477   6.509
 5731POPC   C3A73097   8.112  10.641   6.906
 5731POPC   C4A73098   8.178  10.792   7.354
 5731POPC   C1B73099   8.608  10.256   6.220
 5731POPC   C2B73100   8.518  10.489   6.601
 5731POPC   C3B73101   8.600  10.598   7.033
 5731POPC   C4B73102   8.396  10.352   7.337
 5732POPC   NC373103  14.503   4.209   5.336
 5732POPC   PO473104  13.894   4.348   5.514
 5732POPC   GL173105  14.258   4.352   5.775
 5732POPC   GL273106  14.631   4.409   5.779
 5732POPC   C1A73107  14.321   4.251   6.180
 5732POPC   D2A73108  14.116   4.024   6.481
 5732POPC   C3A73109  14.482   4.018   6.736
 5732POPC   C4A73110  14.529   4.283   7.091
 5732POPC   C1B73111  14.733   4.570   6.171
 5732POPC   C2B73112  14.571   4.517   6.590
 5732POPC   C3B73113  14.763   4.706   6.940
 5732POPC   C4B73114  15.002   4.505   7.250
 5733POPC   NC373115  44.059  24.496   5.409
 5733POPC   PO473116  43.379  24.830   5.355
 5733POPC   GL173117  43.505  24.494   5.670
 5733POPC   GL273118  43.846  24.556   5.858
 5733POPC   C1A73119  43.465  24.397   6.133
 5733POPC   D2A73120  43.798  24.601   6.394
 5733POPC   C3A73121  43.747  24.688   6.817
 5733POPC   C4A73122  43.800  24.364   7.130
 5733POPC   C1B73123  44.188  24.777   6.096
 5733POPC   C2B73124  44.319  24.721   6.550
 5733POPC   C3B73125  44.224  24.652   6.989
 5733POPC   C4B73126  44.301  24.334   7.267
 5734POPC   NC373127   9.689   9.303   5.203
 5734POPC   PO473128  10.123   8.838   5.433
 5734POPC   GL173129   9.995   8.739   5.848
 5734POPC   GL273130   9.672   8.929   5.858
 5734POPC   C1A73131   9.855   8.702   6.299
 5734POPC   D2A73132   9.942   9.030   6.604
 5734POPC   C3A73133   9.917   8.979   7.006
 5734POPC   C4A73134   9.953   9.138   7.369
 5734POPC   C1B73135   9.624   9.181   6.225
 5734POPC   C2B73136   9.422   9.148   6.616
 5734POPC   C3B73137   9.417   9.120   7.036
 5734POPC   C4B73138   9.123   9.189   7.383
 5735POPC   NC373139  22.016   8.164   5.431
 5735POPC   PO473140  22.725   8.161   5.434
 5735POPC   GL173141  22.419   8.157   5.751
 5735POPC   GL273142  22.388   7.815   5.702
 5735POPC   C1A73143  22.186   8.272   6.131
 5735POPC   D2A73144  22.116   8.070   6.529
 5735POPC   C3A73145  22.304   8.258   6.881
 5735POPC   C4A73146  22.073   8.243   7.235
 5735POPC   C1B73147  22.367   7.788   6.160
 5735POPC   C2B73148  22.379   7.658   6.613
 5735POPC   C3B73149  22.148   7.787   7.003
 5735POPC   C4B73150  22.205   7.809   7.493
 5736POPC   NC373151   9.861  20.358   5.415
 5736POPC   PO473152   9.410  20.839   5.385
 5736POPC   GL173153   9.605  20.692   5.776
 5736POPC   GL273154   9.451  20.369   5.759
 5736POPC   C1A73155   9.852  20.800   6.182
 5736POPC   D2A73156   9.822  20.973   6.612
 5736POPC   C3A73157   9.972  20.781   7.015
 5736POPC   C4A73158   9.928  20.900   7.476
 5736POPC   C1B73159   9.608  20.356   6.184
 5736POPC   C2B73160   9.782  20.453   6.581
 5736POPC   C3B73161   9.804  20.298   6.989
 5736POPC   C4B73162   9.621  20.539   7.297
 5737POPC   NC373163   7.715  27.085   5.403
 5737POPC   PO473164   7.097  26.752   5.404
 5737POPC   GL173165   7.417  26.831   5.732
 5737POPC   GL273166   7.578  26.539   5.784
 5737POPC   C1A73167   7.484  26.964   6.170
 5737POPC   D2A73168   7.314  27.093   6.561
 5737POPC   C3A73169   7.572  26.948   6.879
 5737POPC   C4A73170   7.345  26.854   7.217
 5737POPC   C1B73171   7.294  26.482   6.139
 5737POPC   C2B73172   7.376  26.547   6.588
 5737POPC   C3B73173   7.275  26.392   6.999
 5737POPC   C4B73174   7.237  26.411   7.460
 5738POPC   NC373175  17.007  19.839   5.177
 5738POPC   PO473176  16.470  20.167   5.525
 5738POPC   GL173177  16.770  19.943   5.718
 5738POPC   GL273178  16.996  19.696   5.671
 5738POPC   C1A73179  16.820  19.945   6.132
 5738POPC   D2A73180  16.574  19.913   6.509
 5738POPC   C3A73181  16.685  20.208   6.815
 5738POPC   C4A73182  16.774  20.004   7.196
 5738POPC   C1B73183  17.155  19.544   6.096
 5738POPC   C2B73184  17.039  19.718   6.527
 5738POPC   C3B73185  17.032  19.578   6.945
 5738POPC   C4B73186  17.030  19.578   7.387
 5739POPC   NC373187  31.042   7.875   5.421
 5739POPC   PO473188  30.573   7.370   5.274
 5739POPC   GL173189  30.778   7.510   5.721
 5739POPC   GL273190  30.478   7.627   5.906
 5739POPC   C1A73191  30.851   7.515   6.219
 5739POPC   D2A73192  30.656   7.583   6.644
 5739POPC   C3A73193  30.883   7.447   7.051
 5739POPC   C4A73194  30.836   7.189   7.457
 5739POPC   C1B73195  30.361   7.306   6.242
 5739POPC   C2B73196  30.345   7.172   6.685
 5739POPC   C3B73197  30.366   7.410   7.066
 5739POPC   C4B73198  30.048   7.682   7.185
 5740POPC   NC373199  10.626  10.707   5.216
 5740POPC   PO473200  11.252  10.799   5.435
 5740POPC   GL173201  11.350  10.619   5.839
 5740POPC   GL273202  11.180  10.303   5.856
 5740POPC   C1A73203  11.442  10.675   6.276
 5740POPC   D2A73204  11.433  10.419   6.658
 5740POPC   C3A73205  11.524  10.652   7.005
 5740POPC   C4A73206  11.412  10.909   7.348
 5740POPC   C1B73207  11.030  10.347   6.263
 5740POPC   C2B73208  10.759  10.285   6.610
 5740POPC   C3B73209  10.875  10.125   6.987
 5740POPC   C4B73210  11.282  10.169   7.161
 5741POPC   NC373211  27.780   2.614   4.841
 5741POPC   PO473212  28.166   2.566   5.420
 5741POPC   GL173213  28.219   2.637   5.888
 5741POPC   GL273214  27.910   2.571   6.029
 5741POPC   C1A73215  28.265   2.812   6.342
 5741POPC   D2A73216  28.411   3.140   6.665
 5741POPC   C3A73217  28.490   3.008   7.095
 5741POPC   C4A73218  28.413   3.139   7.532
 5741POPC   C1B73219  27.880   2.480   6.450
 5741POPC   C2B73220  27.930   2.497   6.910
 5741POPC   C3B73221  28.059   2.766   7.257
 5741POPC   C4B73222  28.043   2.753   7.705
 5742POPC   NC373223  44.431   0.713   5.374
 5742POPC   PO473224   0.065   0.464   5.269
 5742POPC   GL173225  44.936   0.553   5.789
 5742POPC   GL273226  44.567   0.481   5.817
 5742POPC   C1A73227  44.779   0.503   6.274
 5742POPC   D2A73228  44.513   0.289   6.628
 5742POPC   C3A73229  44.778   0.161   6.962
 5742POPC   C4A73230   0.129   0.356   7.117
 5742POPC   C1B73231  44.358   0.750   6.113
 5742POPC   C2B73232  44.446   0.803   6.533
 5742POPC   C3B73233  44.655   0.699   6.928
 5742POPC   C4B73234  44.578   0.904   7.290
 5743POPC   NC373235  14.257  29.222   5.371
 5743POPC   PO473236  14.996  29.226   5.475
 5743POPC   GL173237  14.799  29.100   5.834
 5743POPC   GL273238  14.463  29.119   5.806
 5743POPC   C1A73239  14.688  29.211   6.236
 5743POPC   D2A73240  14.510  29.026   6.563
 5743POPC   C3A73241  14.634  29.156   6.951
 5743POPC   C4A73242  14.475  28.900   7.245
 5743POPC   C1B73243  14.168  29.081   6.136
 5743POPC   C2B73244  14.046  29.230   6.530
 5743POPC   C3B73245  14.089  29.010   6.912
 5743POPC   C4B73246  14.155  29.295   7.241
 5744POPC   NC373247   3.918  16.126   5.340
 5744POPC   PO473248   4.524  15.828   5.289
 5744POPC   GL173249   4.455  15.712   5.712
 5744POPC   GL273250   4.116  15.821   5.760
 5744POPC   C1A73251   4.420  15.780   6.188
 5744POPC   D2A73252   4.265  16.022   6.582
 5744POPC   C3A73253   4.419  15.946   7.024
 5744POPC   C4A73254   4.484  16.196   7.413
 5744POPC   C1B73255   3.915  16.027   6.113
 5744POPC   C2B73256   3.741  16.053   6.529
 5744POPC   C3B73257   3.886  16.001   6.945
 5744POPC   C4B73258   4.027  15.945   7.376
 5745POPC   NC373259  12.419  34.805   5.541
 5745POPC   PO473260  12.170  34.251   5.642
 5745POPC   GL173261  11.942  34.409   5.941
 5745POPC   GL273262  11.790  34.723   5.837
 5745POPC   C1A73263  12.069  34.370   6.370
 5745POPC   D2A73264  12.128  34.496   6.779
 5745POPC   C3A73265  12.049  34.339   7.165
 5745POPC   C4A73266  11.922  34.722   7.411
 5745POPC   C1B73267  12.082  34.855   6.176
 5745POPC   C2B73268  12.335  34.901   6.557
 5745POPC   C3B73269  12.228  34.974   7.008
 5745POPC   C4B73270  12.582  35.080   7.278
 5746POPC   NC373271   1.405  40.674   5.294
 5746POPC   PO473272   0.852  40.732   5.739
 5746POPC   GL173273   1.272  40.614   5.788
 5746POPC   GL273274   1.492  40.918   5.776
 5746POPC   C1A73275   1.312  40.466   6.198
 5746POPC   D2A73276   1.110  40.692   6.530
 5746POPC   C3A73277   1.175  40.526   6.935
 5746POPC   C4A73278   0.949  40.728   7.254
 5746POPC   C1B73279   1.246  41.048   6.128
 5746POPC   C2B73280   1.267  41.194   6.541
 5746POPC   C3B73281   1.274  41.044   6.964
 5746POPC   C4B73282   1.577  40.835   7.219
 5747POPC   NC373283  27.934   0.121   5.204
 5747POPC   PO473284  27.395  44.827   5.494
 5747POPC   GL173285  27.461  44.552   5.838
 5747POPC   GL273286  27.821  44.543   5.824
 5747POPC   C1A73287  27.327  44.523   6.286
 5747POPC   D2A73288  27.569  44.572   6.647
 5747POPC   C3A73289  27.441  44.455   7.051
 5747POPC   C4A73290  27.745  44.592   7.342
 5747POPC   C1B73291  28.009  44.907   6.082
 5747POPC   C2B73292  28.033   0.110   6.504
 5747POPC   C3B73293  28.026  44.940   6.924
 5747POPC   C4B73294  27.963   0.046   7.366
 5748POPC   NC373295  11.005   3.239   5.434
 5748POPC   PO473296  11.584   3.700   5.447
 5748POPC   GL173297  11.475   3.573   5.870
 5748POPC   GL273298  11.338   3.279   5.813
 5748POPC   C1A73299  11.401   3.455   6.318
 5748POPC   D2A73300  11.286   3.771   6.667
 5748POPC   C3A73301  11.412   3.623   7.060
 5748POPC   C4A73302  11.812   3.756   7.216
 5748POPC   C1B73303  11.039   3.126   6.127
 5748POPC   C2B73304  11.187   2.956   6.519
 5748POPC   C3B73305  11.226   3.160   6.927
 5748POPC   C4B73306  11.104   3.240   7.367
 5749POPC   NC373307   6.069  28.701   5.404
 5749POPC   PO473308   5.441  28.525   5.296
 5749POPC   GL173309   5.535  28.341   5.696
 5749POPC   GL273310   5.875  28.182   5.672
 5749POPC   C1A73311   5.517  28.209   6.132
 5749POPC   D2A73312   5.435  28.138   6.603
 5749POPC   C3A73313   5.712  28.380   6.882
 5749POPC   C4A73314   5.933  28.690   7.121
 5749POPC   C1B73315   6.095  28.136   6.086
 5749POPC   C2B73316   6.268  28.094   6.510
 5749POPC   C3B73317   6.185  28.185   6.961
 5749POPC   C4B73318   6.160  28.292   7.414
 5750POPC   NC373319  28.110  43.058   5.585
 5750POPC   PO473320  28.697  42.952   5.279
 5750POPC   GL173321  28.569  42.916   5.803
 5750POPC   GL273322  28.244  42.781   6.001
 5750POPC   C1A73323  28.463  43.182   6.227
 5750POPC   D2A73324  28.154  43.240   6.578
 5750POPC   C3A73325  28.351  43.361   6.947
 5750POPC   C4A73326  28.602  43.228   7.280
 5750POPC   C1B73327  28.523  42.680   6.319
 5750POPC   C2B73328  28.570  42.936   6.699
 5750POPC   C3B73329  28.312  42.855   7.065
 5750POPC   C4B73330  28.515  42.607   7.348
 5751POPC   NC373331  31.589   9.425   5.442
 5751POPC   PO473332  31.488   8.672   5.366
 5751POPC   GL173333  31.414   8.951   5.783
 5751POPC   GL273334  31.570   9.288   5.911
 5751POPC   C1A73335  31.304   9.052   6.260
 5751POPC   D2A73336  31.339   9.148   6.740
 5751POPC   C3A73337  31.560   8.791   6.895
 5751POPC   C4A73338  31.511   8.544   7.231
 5751POPC   C1B73339  31.810   9.286   6.270
 5751POPC   C2B73340  31.845   9.189   6.697
 5751POPC   C3B73341  31.718   9.211   7.121
 5751POPC   C4B73342  31.777   9.464   7.506
 5752POPC   NC373343  21.911   1.362   5.579
 5752POPC   PO473344  22.403   0.992   5.395
 5752POPC   GL173345  22.362   1.159   5.835
 5752POPC   GL273346  22.006   1.077   5.980
 5752POPC   C1A73347  22.345   1.270   6.302
 5752POPC   D2A73348  21.971   1.142   6.549
 5752POPC   C3A73349  22.086   1.045   6.946
 5752POPC   C4A73350  22.035   1.238   7.317
 5752POPC   C1B73351  21.888   1.498   6.202
 5752POPC   C2B73352  21.620   1.634   6.584
 5752POPC   C3B73353  21.729   1.631   7.040
 5752POPC   C4B73354  21.776   1.616   7.513
 5753POPC   NC373355  19.894  28.960   5.257
 5753POPC   PO473356  19.399  29.421   5.441
 5753POPC   GL173357  19.633  29.104   5.719
 5753POPC   GL273358  20.009  28.967   5.739
 5753POPC   C1A73359  19.645  29.113   6.160
 5753POPC   D2A73360  19.679  29.325   6.525
 5753POPC   C3A73361  19.663  29.132   6.899
 5753POPC   C4A73362  19.953  29.306   7.190
 5753POPC   C1B73363  20.143  29.173   6.091
 5753POPC   C2B73364  20.064  28.966   6.454
 5753POPC   C3B73365  20.141  28.958   6.835
 5753POPC   C4B73366  20.013  28.775   7.186
 5754POPC   NC373367  18.161  18.593   5.350
 5754POPC   PO473368  18.814  18.447   5.356
 5754POPC   GL173369  18.559  18.420   5.747
 5754POPC   GL273370  18.259  18.223   5.684
 5754POPC   C1A73371  18.514  18.249   6.174
 5754POPC   D2A73372  18.507  18.422   6.585
 5754POPC   C3A73373  18.546  18.180   6.970
 5754POPC   C4A73374  18.401  18.491   7.243
 5754POPC   C1B73375  18.036  18.212   6.056
 5754POPC   C2B73376  17.977  18.325   6.446
 5754POPC   C3B73377  18.067  18.363   6.855
 5754POPC   C4B73378  18.091  18.080   7.193
 5755POPC   NC373379  24.614   3.179   5.534
 5755POPC   PO473380  24.098   3.586   5.403
 5755POPC   GL173381  24.288   3.539   5.797
 5755POPC   GL273382  24.216   3.205   5.832
 5755POPC   C1A73383  24.455   3.769   6.180
 5755POPC   D2A73384  24.315   3.824   6.599
 5755POPC   C3A73385  24.547   3.810   6.961
 5755POPC   C4A73386  24.347   3.656   7.287
 5755POPC   C1B73387  24.485   3.252   6.204
 5755POPC   C2B73388  24.350   3.194   6.623
 5755POPC   C3B73389  24.550   3.271   7.017
 5755POPC   C4B73390  24.977   3.284   7.180
 5756POPC   NC373391   6.132  14.555   5.508
 5756POPC   PO473392   6.522  14.130   5.489
 5756POPC   GL173393   6.233  14.151   5.835
 5756POPC   GL273394   6.406  14.433   5.944
 5756POPC   C1A73395   6.355  13.973   6.259
 5756POPC   D2A73396   6.347  14.078   6.709
 5756POPC   C3A73397   6.660  14.357   6.888
 5756POPC   C4A73398   6.818  14.546   7.257
 5756POPC   C1B73399   6.568  14.458   6.370
 5756POPC   C2B73400   6.610  14.805   6.661
 5756POPC   C3B73401   6.466  14.885   7.066
 5756POPC   C4B73402   6.652  14.981   7.495
 5757POPC   NC373403   1.043  13.825   5.328
 5757POPC   PO473404   1.330  13.270   5.615
 5757POPC   GL173405   1.180  13.507   5.876
 5757POPC   GL273406   1.300  13.835   5.787
 5757POPC   C1A73407   1.192  13.385   6.299
 5757POPC   D2A73408   1.248  13.625   6.658
 5757POPC   C3A73409   1.281  13.480   7.061
 5757POPC   C4A73410   1.652  13.434   7.361
 5757POPC   C1B73411   1.045  13.895   6.192
 5757POPC   C2B73412   1.047  14.079   6.566
 5757POPC   C3B73413   1.076  13.992   6.991
 5757POPC   C4B73414   1.068  14.275   7.314
 5758POPC   NC373415  25.818  33.992   5.296
 5758POPC   PO473416  26.300  34.598   5.402
 5758POPC   GL173417  26.126  34.666   5.844
 5758POPC   GL273418  25.963  34.347   5.961
 5758POPC   C1A73419  26.187  34.623   6.311
 5758POPC   D2A73420  25.890  34.551   6.658
 5758POPC   C3A73421  26.060  34.482   7.073
 5758POPC   C4A73422  26.254  34.561   7.468
 5758POPC   C1B73423  25.661  34.351   6.239
 5758POPC   C2B73424  25.536  34.121   6.605
 5758POPC   C3B73425  25.578  34.304   6.999
 5758POPC   C4B73426  25.737  34.209   7.371
 5759POPC   NC373427  43.779   8.169   5.239
 5759POPC   PO473428  44.250   8.465   5.580
 5759POPC   GL173429  43.919   8.233   5.755
 5759POPC   GL273430  44.154   8.013   5.827
 5759POPC   C1A73431  43.746   8.222   6.191
 5759POPC   D2A73432  43.644   8.027   6.613
 5759POPC   C3A73433  43.759   8.226   7.070
 5759POPC   C4A73434  43.697   8.293   7.600
 5759POPC   C1B73435  44.259   8.262   6.196
 5759POPC   C2B73436  44.124   8.191   6.608
 5759POPC   C3B73437  44.257   8.255   7.005
 5759POPC   C4B73438  44.162   8.224   7.426
 5760POPC   NC373439  27.318  40.303   5.431
 5760POPC   PO473440  27.457  40.990   5.177
 5760POPC   GL173441  27.676  40.812   5.592
 5760POPC   GL273442  27.598  40.516   5.791
 5760POPC   C1A73443  27.905  40.838   6.027
 5760POPC   D2A73444  27.772  40.641   6.464
 5760POPC   C3A73445  27.732  40.829   6.920
 5760POPC   C4A73446  27.676  40.876   7.433
 5760POPC   C1B73447  27.259  40.615   6.063
 5760POPC   C2B73448  27.263  40.711   6.484
 5760POPC   C3B73449  27.310  40.488   6.851
 5760POPC   C4B73450  27.257  40.756   7.182
 5761POPC   NC373451  37.924  24.319   5.267
 5761POPC   PO473452  37.353  24.246   5.565
 5761POPC   GL173453  37.658  24.515   5.762
 5761POPC   GL273454  38.031  24.494   5.730
 5761POPC   C1A73455  37.710  24.707   6.175
 5761POPC   D2A73456  37.847  24.574   6.595
 5761POPC   C3A73457  37.548  24.441   6.892
 5761POPC   C4A73458  37.401  24.710   7.223
 5761POPC   C1B73459  37.966  24.261   6.096
 5761POPC   C2B73460  38.005  24.089   6.505
 5761POPC   C3B73461  38.137  24.208   6.951
 5761POPC   C4B73462  37.913  24.458   7.258
 5762POPC   NC373463  43.872  15.758   5.521
 5762POPC   PO473464  43.577  16.329   5.391
 5762POPC   GL173465  43.821  16.247   5.755
 5762POPC   GL273466  43.671  15.947   5.946
 5762POPC   C1A73467  44.050  16.212   6.142
 5762POPC   D2A73468  43.859  16.029   6.485
 5762POPC   C3A73469  43.990  16.212   6.853
 5762POPC   C4A73470  43.889  16.200   7.254
 5762POPC   C1B73471  43.611  15.589   6.222
 5762POPC   C2B73472  43.755  15.555   6.640
 5762POPC   C3B73473  43.745  15.764   7.022
 5762POPC   C4B73474  43.501  15.625   7.358
 5763POPC   NC373475  20.705  11.988   5.167
 5763POPC   PO473476  21.032  11.545   5.606
 5763POPC   GL173477  20.779  11.869   5.847
 5763POPC   GL273478  20.816  12.200   5.701
 5763POPC   C1A73479  20.574  11.946   6.292
 5763POPC   D2A73480  20.517  12.269   6.637
 5763POPC   C3A73481  20.492  12.189   7.085
 5763POPC   C4A73482  20.213  11.878   7.302
 5763POPC   C1B73483  20.840  12.355   6.162
 5763POPC   C2B73484  20.977  12.453   6.607
 5763POPC   C3B73485  21.015  12.353   7.034
 5763POPC   C4B73486  20.834  12.421   7.434
 5764POPC   NC373487  13.838  39.916   5.138
 5764POPC   PO473488  14.078  39.781   5.754
 5764POPC   GL173489  13.792  40.061   5.957
 5764POPC   GL273490  13.581  40.215   5.714
 5764POPC   C1A73491  13.665  40.023   6.366
 5764POPC   D2A73492  13.348  40.030   6.634
 5764POPC   C3A73493  13.520  40.168   6.979
 5764POPC   C4A73494  13.538  39.882   7.238
 5764POPC   C1B73495  13.373  40.356   6.105
 5764POPC   C2B73496  13.082  40.407   6.416
 5764POPC   C3B73497  13.039  40.374   6.884
 5764POPC   C4B73498  13.283  40.487   7.304
 5765POPC   NC373499  10.503  21.523   5.300
 5765POPC   PO473500  10.850  21.002   5.106
 5765POPC   GL173501  10.798  21.206   5.573
 5765POPC   GL273502  10.940  21.553   5.669
 5765POPC   C1A73503  10.490  21.307   5.957
 5765POPC   D2A73504  10.297  21.048   6.323
 5765POPC   C3A73505  10.277  21.145   6.781
 5765POPC   C4A73506  10.332  21.161   7.237
 5765POPC   C1B73507  10.862  21.626   6.133
 5765POPC   C2B73508  10.638  21.421   6.498
 5765POPC   C3B73509  10.746  21.308   6.939
 5765POPC   C4B73510  10.985  21.510   7.237
 5766POPC   NC373511  33.293  43.077   5.412
 5766POPC   PO473512  32.766  42.726   5.583
 5766POPC   GL173513  32.992  43.002   5.844
 5766POPC   GL273514  33.313  42.839   5.857
 5766POPC   C1A73515  32.971  43.029   6.292
 5766POPC   D2A73516  32.817  43.308   6.633
 5766POPC   C3A73517  32.880  43.065   6.980
 5766POPC   C4A73518  32.574  42.715   7.095
 5766POPC   C1B73519  33.421  43.185   6.111
 5766POPC   C2B73520  33.346  43.232   6.563
 5766POPC   C3B73521  33.362  43.233   6.973
 5766POPC   C4B73522  33.253  43.094   7.373
 5767POPC   NC373523  18.570  41.941   5.579
 5767POPC   PO473524  18.503  42.625   5.449
 5767POPC   GL173525  18.347  42.396   5.817
 5767POPC   GL273526  18.090  42.140   5.728
 5767POPC   C1A73527  18.366  42.511   6.275
 5767POPC   D2A73528  18.436  42.322   6.692
 5767POPC   C3A73529  18.588  42.506   7.071
 5767POPC   C4A73530  18.257  42.649   7.346
 5767POPC   C1B73531  18.197  42.046   6.186
 5767POPC   C2B73532  18.160  41.879   6.610
 5767POPC   C3B73533  18.220  41.981   7.043
 5767POPC   C4B73534  18.398  42.169   7.434
 5768POPC   NC373535  26.665  31.798   5.457
 5768POPC   PO473536  26.880  31.212   5.502
 5768POPC   GL173537  26.866  31.331   5.909
 5768POPC   GL273538  26.860  31.693   5.916
 5768POPC   C1A73539  26.933  31.377   6.342
 5768POPC   D2A73540  26.626  31.210   6.615
 5768POPC   C3A73541  26.785  31.188   6.985
 5768POPC   C4A73542  27.096  31.448   7.114
 5768POPC   C1B73543  26.762  31.879   6.329
 5768POPC   C2B73544  26.800  31.759   6.768
 5768POPC   C3B73545  26.749  31.914   7.163
 5768POPC   C4B73546  26.433  31.826   7.447
 5769POPC   NC373547  16.481  19.017   5.397
 5769POPC   PO473548  17.025  19.373   5.277
 5769POPC   GL173549  16.934  19.193   5.704
 5769POPC   GL273550  16.613  19.368   5.753
 5769POPC   C1A73551  16.700  18.944   6.039
 5769POPC   D2A73552  16.562  18.839   6.455
 5769POPC   C3A73553  16.819  18.921   6.821
 5769POPC   C4A73554  16.596  18.874   7.204
 5769POPC   C1B73555  16.653  19.453   6.200
 5769POPC   C2B73556  16.625  19.400   6.651
 5769POPC   C3B73557  16.542  19.555   7.073
 5769POPC   C4B73558  16.580  19.331   7.463
 5770POPC   NC373559  41.563  15.730   5.337
 5770POPC   PO473560  41.072  16.047   5.559
 5770POPC   GL173561  41.501  16.132   5.766
 5770POPC   GL273562  41.886  16.019   5.782
 5770POPC   C1A73563  41.587  16.147   6.211
 5770POPC   D2A73564  41.410  15.940   6.572
 5770POPC   C3A73565  41.413  16.009   6.983
 5770POPC   C4A73566  41.218  15.795   7.398
 5770POPC   C1B73567  41.946  15.756   6.160
 5770POPC   C2B73568  41.889  15.728   6.591
 5770POPC   C3B73569  42.077  15.858   6.975
 5770POPC   C4B73570  41.827  16.056   7.266
 5771POPC   NC373571  27.247  31.481   5.600
 5771POPC   PO473572  27.813  31.446   5.229
 5771POPC   GL173573  27.751  31.589   5.724
 5771POPC   GL273574  27.516  31.867   5.798
 5771POPC   C1A73575  27.592  31.484   6.189
 5771POPC   D2A73576  27.437  31.233   6.569
 5771POPC   C3A73577  27.594  31.458   6.951
 5771POPC   C4A73578  27.789  31.387   7.356
 5771POPC   C1B73579  27.258  31.878   6.179
 5771POPC   C2B73580  27.263  31.706   6.589
 5771POPC   C3B73581  27.263  31.901   7.004
 5771POPC   C4B73582  27.443  31.743   7.370
 5772POPC   NC373583  17.545   7.026   5.534
 5772POPC   PO473584  17.592   6.399   5.421
 5772POPC   GL173585  17.461   6.590   5.835
 5772POPC   GL273586  17.291   6.933   5.952
 5772POPC   C1A73587  17.664   6.615   6.263
 5772POPC   D2A73588  17.720   6.702   6.721
 5772POPC   C3A73589  17.675   6.370   7.038
 5772POPC   C4A73590  17.625   6.287   7.498
 5772POPC   C1B73591  17.627   7.128   6.231
 5772POPC   C2B73592  17.859   7.181   6.599
 5772POPC   C3B73593  17.578   7.152   6.930
 5772POPC   C4B73594  17.419   6.888   7.235
 5773POPC   NC373595  41.076  13.464   5.451
 5773POPC   PO473596  40.525  13.727   5.226
 5773POPC   GL173597  40.630  13.618   5.677
 5773POPC   GL273598  40.678  13.966   5.842
 5773POPC   C1A73599  40.680  13.523   6.142
 5773POPC   D2A73600  40.845  13.605   6.555
 5773POPC   C3A73601  40.748  13.365   6.944
 5773POPC   C4A73602  40.901  13.603   7.271
 5773POPC   C1B73603  40.984  14.088   6.199
 5773POPC   C2B73604  41.045  14.275   6.628
 5773POPC   C3B73605  41.061  14.052   7.047
 5773POPC   C4B73606  41.082  13.981   7.562
 5774POPC   NC373607  37.169  26.847   4.879
 5774POPC   PO473608  36.731  26.921   5.409
 5774POPC   GL173609  36.809  26.722   5.793
 5774POPC   GL273610  37.097  26.516   5.783
 5774POPC   C1A73611  37.005  26.842   6.183
 5774POPC   D2A73612  36.870  26.711   6.581
 5774POPC   C3A73613  36.980  27.001   6.877
 5774POPC   C4A73614  36.773  27.215   7.161
 5774POPC   C1B73615  37.046  26.344   6.219
 5774POPC   C2B73616  37.239  26.349   6.631
 5774POPC   C3B73617  37.053  26.494   7.020
 5774POPC   C4B73618  36.859  26.410   7.452
 5775POPC   NC373619  32.900  35.706   5.571
 5775POPC   PO473620  33.306  36.172   5.261
 5775POPC   GL173621  33.058  36.255   5.738
 5775POPC   GL273622  32.705  36.097   5.851
 5775POPC   C1A73623  33.071  36.146   6.213
 5775POPC   D2A73624  32.975  36.064   6.632
 5775POPC   C3A73625  33.338  35.959   6.838
 5775POPC   C4A73626  33.374  36.058   7.253
 5775POPC   C1B73627  32.694  36.474   6.140
 5775POPC   C2B73628  32.485  36.552   6.561
 5775POPC   C3B73629  32.641  36.445   6.970
 5775POPC   C4B73630  32.874  36.287   7.333
 5776POPC   NC373631  29.784  26.232   4.967
 5776POPC   PO473632  29.723  25.682   5.425
 5776POPC   GL173633  29.834  25.825   5.814
 5776POPC   GL273634  29.676  26.126   5.693
 5776POPC   C1A73635  29.963  26.031   6.209
 5776POPC   D2A73636  29.945  26.242   6.618
 5776POPC   C3A73637  30.134  26.074   7.033
 5776POPC   C4A73638  30.330  25.821   7.387
 5776POPC   C1B73639  29.584  26.346   6.046
 5776POPC   C2B73640  29.473  26.495   6.441
 5776POPC   C3B73641  29.508  26.301   6.846
 5776POPC   C4B73642  29.646  26.199   7.260
 5777POPC   NC373643  24.391  11.679   5.634
 5777POPC   PO473644  24.497  11.065   5.291
 5777POPC   GL173645  24.352  11.117   5.720
 5777POPC   GL273646  24.662  11.065   5.877
 5777POPC   C1A73647  24.287  11.181   6.197
 5777POPC   D2A73648  24.296  11.513   6.552
 5777POPC   C3A73649  24.435  11.451   6.997
 5777POPC   C4A73650  24.298  11.094   7.194
 5777POPC   C1B73651  24.797  11.119   6.294
 5777POPC   C2B73652  24.543  11.058   6.662
 5777POPC   C3B73653  24.733  10.943   7.035
 5777POPC   C4B73654  24.812  11.121   7.413
 5778POPC   NC373655  38.273  19.606   5.445
 5778POPC   PO473656  38.637  20.269   5.453
 5778POPC   GL173657  38.392  20.022   5.727
 5778POPC   GL273658  38.650  19.797   5.748
 5778POPC   C1A73659  38.333  19.787   6.138
 5778POPC   D2A73660  38.607  19.815   6.507
 5778POPC   C3A73661  38.495  19.986   6.899
 5778POPC   C4A73662  38.410  19.719   7.235
 5778POPC   C1B73663  38.750  20.104   6.096
 5778POPC   C2B73664  38.996  20.144   6.473
 5778POPC   C3B73665  39.000  20.069   6.891
 5778POPC   C4B73666  38.814  20.058   7.299
 5779POPC   NC373667  44.308  13.259   5.040
 5779POPC   PO473668  44.807  13.625   5.406
 5779POPC   GL173669  44.538  13.650   5.768
 5779POPC   GL273670  44.407  13.950   5.755
 5779POPC   C1A73671  44.489  13.479   6.181
 5779POPC   D2A73672  44.766  13.498   6.512
 5779POPC   C3A73673  44.578  13.488   6.893
 5779POPC   C4A73674  44.755  13.629   7.237
 5779POPC   C1B73675  44.360  13.975   6.179
 5779POPC   C2B73676  44.482  13.912   6.604
 5779POPC   C3B73677  44.424  13.973   7.039
 5779POPC   C4B73678  44.639  14.072   7.431
 5780POPC   NC373679  23.842  23.235   5.467
 5780POPC   PO473680  23.675  23.860   5.345
 5780POPC   GL173681  23.694  23.892   5.774
 5780POPC   GL273682  23.645  23.554   5.849
 5780POPC   C1A73683  23.724  23.883   6.234
 5780POPC   D2A73684  23.588  23.966   6.644
 5780POPC   C3A73685  23.653  23.809   7.058
 5780POPC   C4A73686  23.651  24.035   7.472
 5780POPC   C1B73687  23.420  23.466   6.258
 5780POPC   C2B73688  23.502  23.424   6.703
 5780POPC   C3B73689  23.390  23.354   7.116
 5780POPC   C4B73690  23.465  23.178   7.528
 5781POPC   NC373691  13.295  17.264   5.572
 5781POPC   PO473692  13.392  17.931   5.441
 5781POPC   GL173693  13.221  17.790   5.851
 5781POPC   GL273694  13.000  17.501   5.890
 5781POPC   C1A73695  12.991  17.816   6.272
 5781POPC   D2A73696  12.829  17.630   6.684
 5781POPC   C3A73697  13.091  17.646   7.074
 5781POPC   C4A73698  13.287  17.347   7.334
 5781POPC   C1B73699  12.757  17.358   6.222
 5781POPC   C2B73700  12.631  17.155   6.567
 5781POPC   C3B73701  12.657  17.132   6.986
 5781POPC   C4B73702  12.519  17.368   7.340
 5782POPC   NC373703   6.481  12.019   5.333
 5782POPC   PO473704   7.067  12.289   5.660
 5782POPC   GL173705   6.749  11.984   5.810
 5782POPC   GL273706   6.375  11.907   5.805
 5782POPC   C1A73707   6.715  11.878   6.214
 5782POPC   D2A73708   6.893  12.050   6.559
 5782POPC   C3A73709   6.722  11.899   6.932
 5782POPC   C4A73710   6.650  12.188   7.243
 5782POPC   C1B73711   6.209  11.836   6.201
 5782POPC   C2B73712   6.324  12.096   6.569
 5782POPC   C3B73713   6.237  12.205   6.980
 5782POPC   C4B73714   6.299  11.803   7.202
 5783POPC   NC373715   5.094  23.721   5.420
 5783POPC   PO473716   4.514  23.625   5.560
 5783POPC   GL173717   4.869  23.697   5.888
 5783POPC   GL273718   5.255  23.586   5.898
 5783POPC   C1A73719   5.016  23.743   6.329
 5783POPC   D2A73720   5.226  23.987   6.644
 5783POPC   C3A73721   4.955  23.911   6.937
 5783POPC   C4A73722   4.855  23.622   7.257
 5783POPC   C1B73723   5.296  23.321   6.297
 5783POPC   C2B73724   5.224  23.468   6.748
 5783POPC   C3B73725   5.376  23.672   7.104
 5783POPC   C4B73726   5.363  23.634   7.585
 5784POPC   NC373727  40.324  42.092   5.500
 5784POPC   PO473728  40.886  42.531   5.408
 5784POPC   GL173729  40.701  42.346   5.801
 5784POPC   GL273730  40.434  42.500   6.011
 5784POPC   C1A73731  40.922  42.318   6.212
 5784POPC   D2A73732  40.923  41.989   6.544
 5784POPC   C3A73733  40.880  42.150   6.990
 5784POPC   C4A73734  40.884  42.605   7.150
 5784POPC   C1B73735  40.459  42.078   6.241
 5784POPC   C2B73736  40.424  42.047   6.703
 5784POPC   C3B73737  40.391  41.986   7.132
 5784POPC   C4B73738  40.631  42.239   7.440
 5785POPC   NC373739  20.757  40.469   5.469
 5785POPC   PO473740  20.175  40.740   5.286
 5785POPC   GL173741  20.417  40.735   5.761
 5785POPC   GL273742  20.749  40.762   5.888
 5785POPC   C1A73743  20.415  40.632   6.246
 5785POPC   D2A73744  20.234  40.664   6.666
 5785POPC   C3A73745  20.427  40.815   7.053
 5785POPC   C4A73746  20.307  41.088   7.411
 5785POPC   C1B73747  20.892  40.459   6.234
 5785POPC   C2B73748  20.719  40.478   6.664
 5785POPC   C3B73749  20.607  40.327   7.064
 5785POPC   C4B73750  20.860  40.387   7.398
 5786POPC   NC373751  35.212  40.266   5.660
 5786POPC   PO473752  35.190  39.645   5.370
 5786POPC   GL173753  35.422  39.814   5.764
 5786POPC   GL273754  35.135  39.848   5.985
 5786POPC   C1A73755  35.535  40.063   6.186
 5786POPC   D2A73756  35.319  40.129   6.581
 5786POPC   C3A73757  35.438  39.983   6.976
 5786POPC   C4A73758  35.280  39.728   7.326
 5786POPC   C1B73759  34.918  40.179   6.229
 5786POPC   C2B73760  34.889  40.411   6.589
 5786POPC   C3B73761  34.907  40.294   7.016
 5786POPC   C4B73762  35.119  40.206   7.423
 5787POPC   NC373763  25.567  40.793   5.488
 5787POPC   PO473764  25.293  40.259   5.606
 5787POPC   GL173765  25.345  40.560   5.899
 5787POPC   GL273766  25.163  40.882   5.830
 5787POPC   C1A73767  25.148  40.612   6.279
 5787POPC   D2A73768  25.374  40.684   6.645
 5787POPC   C3A73769  25.069  40.626   6.931
 5787POPC   C4A73770  24.924  40.795   7.274
 5787POPC   C1B73771  25.421  41.061   6.198
 5787POPC   C2B73772  25.397  41.299   6.593
 5787POPC   C3B73773  25.282  41.110   6.956
 5787POPC   C4B73774  25.506  40.785   7.164
 5788POPC   NC373775  37.255  44.847   5.469
 5788POPC   PO473776  36.655  44.934   5.284
 5788POPC   GL173777  36.782  44.714   5.764
 5788POPC   GL273778  36.689  44.362   5.855
 5788POPC   C1A73779  36.967  44.566   6.233
 5788POPC   D2A73780  36.919  44.717   6.697
 5788POPC   C3A73781  36.942  44.532   7.111
 5788POPC   C4A73782  37.214  44.675   7.480
 5788POPC   C1B73783  36.475  44.570   6.155
 5788POPC   C2B73784  36.414  44.530   6.560
 5788POPC   C3B73785  36.414  44.531   6.993
 5788POPC   C4B73786  36.529  44.801   7.294
 5789POPC   NC373787  10.977   0.689   5.358
 5789POPC   PO473788  10.432   0.288   5.253
 5789POPC   GL173789  10.353   0.366   5.720
 5789POPC   GL273790  10.429   0.050   5.814
 5789POPC   C1A73791  10.318   0.572   6.164
 5789POPC   D2A73792  10.514   0.667   6.594
 5789POPC   C3A73793  10.515   0.379   6.939
 5789POPC   C4A73794  10.191   0.508   7.183
 5789POPC   C1B73795  10.168   0.068   6.183
 5789POPC   C2B73796  10.161   0.276   6.584
 5789POPC   C3B73797  10.147   0.014   6.951
 5789POPC   C4B73798  10.029   0.055   7.340
 5790POPC   NC373799   2.903   1.679   5.460
 5790POPC   PO473800   2.448   1.188   5.401
 5790POPC   GL173801   2.702   1.251   5.754
 5790POPC   GL273802   2.565   1.560   5.830
 5790POPC   C1A73803   2.724   1.157   6.201
 5790POPC   D2A73804   2.518   1.039   6.568
 5790POPC   C3A73805   2.799   1.062   6.917
 5790POPC   C4A73806   2.577   1.031   7.282
 5790POPC   C1B73807   2.945   1.613   6.106
 5790POPC   C2B73808   2.952   1.545   6.527
 5790POPC   C3B73809   2.627   1.542   6.789
 5790POPC   C4B73810   2.640   1.546   7.195
 5791POPC   NC373811  42.956  17.204   5.411
 5791POPC   PO473812  43.230  17.813   5.228
 5791POPC   GL173813  43.114  17.761   5.685
 5791POPC   GL273814  43.330  17.901   5.961
 5791POPC   C1A73815  43.118  17.447   6.053
 5791POPC   D2A73816  43.313  17.169   6.373
 5791POPC   C3A73817  43.296  17.242   6.834
 5791POPC   C4A73818  43.024  17.300   7.206
 5791POPC   C1B73819  42.939  17.920   6.164
 5791POPC   C2B73820  42.827  17.771   6.526
 5791POPC   C3B73821  43.051  17.714   6.882
 5791POPC   C4B73822  42.995  17.797   7.307
 5792POPC   NC373823  30.131  32.733   5.363
 5792POPC   PO473824  29.520  33.000   5.304
 5792POPC   GL173825  29.627  33.084   5.750
 5792POPC   GL273826  30.017  33.059   5.781
 5792POPC   C1A73827  29.756  33.014   6.195
 5792POPC   D2A73828  30.030  32.879   6.465
 5792POPC   C3A73829  29.897  32.977   6.846
 5792POPC   C4A73830  29.699  32.991   7.197
 5792POPC   C1B73831  30.246  33.237   6.146
 5792POPC   C2B73832  30.421  33.258   6.590
 5792POPC   C3B73833  30.280  33.302   7.049
 5792POPC   C4B73834  30.370  33.297   7.511
 5793POPC   NC373835  38.704  31.205   5.115
 5793POPC   PO473836  38.311  30.730   5.427
 5793POPC   GL173837  38.454  30.647   5.834
 5793POPC   GL273838  38.612  30.341   5.813
 5793POPC   C1A73839  38.388  30.788   6.258
 5793POPC   D2A73840  38.587  30.818   6.660
 5793POPC   C3A73841  38.314  30.968   6.988
 5793POPC   C4A73842  38.131  30.893   7.372
 5793POPC   C1B73843  38.563  30.300   6.284
 5793POPC   C2B73844  38.555  30.286   6.733
 5793POPC   C3B73845  38.561  30.533   7.094
 5793POPC   C4B73846  38.806  30.435   7.429
 5794POPC   NC373847  18.909  41.307   5.393
 5794POPC   PO473848  19.018  41.999   5.549
 5794POPC   GL173849  18.989  41.636   5.787
 5794POPC   GL273850  19.288  41.411   5.726
 5794POPC   C1A73851  18.962  41.653   6.216
 5794POPC   D2A73852  18.825  41.389   6.523
 5794POPC   C3A73853  19.004  41.426   6.887
 5794POPC   C4A73854  18.897  41.616   7.270
 5794POPC   C1B73855  19.444  41.515   6.121
 5794POPC   C2B73856  19.424  41.786   6.496
 5794POPC   C3B73857  19.276  41.853   6.921
 5794POPC   C4B73858  19.393  41.554   7.224
 5795POPC   NC373859  26.997  12.152   5.460
 5795POPC   PO473860  27.025  11.575   5.269
 5795POPC   GL173861  26.853  11.713   5.684
 5795POPC   GL273862  26.526  11.576   5.743
 5795POPC   C1A73863  26.757  11.961   6.085
 5795POPC   D2A73864  26.762  11.890   6.559
 5795POPC   C3A73865  26.774  12.229   6.867
 5795POPC   C4A73866  26.769  12.181   7.285
 5795POPC   C1B73867  26.439  11.578   6.214
 5795POPC   C2B73868  26.374  11.527   6.687
 5795POPC   C3B73869  26.604  11.700   7.072
 5795POPC   C4B73870  26.704  11.695   7.559
 5796POPC   NC373871  31.032   8.714   5.324
 5796POPC   PO473872  30.432   8.912   5.384
 5796POPC   GL173873  30.749   8.934   5.708
 5796POPC   GL273874  30.796   8.577   5.780
 5796POPC   C1A73875  30.763   9.004   6.164
 5796POPC   D2A73876  30.882   9.260   6.524
 5796POPC   C3A73877  30.710   9.202   6.946
 5796POPC   C4A73878  30.823   9.118   7.370
 5796POPC   C1B73879  31.026   8.550   6.185
 5796POPC   C2B73880  31.034   8.780   6.591
 5796POPC   C3B73881  31.047   8.756   7.024
 5796POPC   C4B73882  30.893   8.362   7.146
 5797POPC   NC373883  25.934  18.605   5.139
 5797POPC   PO473884  26.219  19.111   5.364
 5797POPC   GL173885  25.932  18.889   5.655
 5797POPC   GL273886  26.148  18.746   5.893
 5797POPC   C1A73887  25.860  19.104   6.084
 5797POPC   D2A73888  26.090  19.296   6.439
 5797POPC   C3A73889  25.862  19.156   6.790
 5797POPC   C4A73890  26.035  18.951   7.180
 5797POPC   C1B73891  26.192  18.790   6.347
 5797POPC   C2B73892  26.306  18.929   6.761
 5797POPC   C3B73893  26.448  18.667   7.120
 5797POPC   C4B73894  26.242  18.538   7.474
 5798POPC   NC373895   4.053  44.483   5.453
 5798POPC   PO473896   4.521  44.896   5.388
 5798POPC   GL173897   4.337  44.999   5.809
 5798POPC   GL273898   3.970   0.031   5.818
 5798POPC   C1A73899   4.406  44.976   6.292
 5798POPC   D2A73900   4.448   0.163   6.727
 5798POPC   C3A73901   4.453  44.801   7.020
 5798POPC   C4A73902   4.308  44.530   7.393
 5798POPC   C1B73903   4.031  44.677   6.087
 5798POPC   C2B73904   3.916  44.667   6.522
 5798POPC   C3B73905   3.853  44.955   6.850
 5798POPC   C4B73906   4.034  44.942   7.247
 5799POPC   NC373907  23.837  41.927   5.508
 5799POPC   PO473908  23.679  42.593   5.401
 5799POPC   GL173909  23.761  42.402   5.828
 5799POPC   GL273910  23.582  42.078   5.934
 5799POPC   C1A73911  23.843  42.452   6.291
 5799POPC   D2A73912  23.578  42.347   6.655
 5799POPC   C3A73913  23.599  42.472   7.106
 5799POPC   C4A73914  23.379  42.385   7.481
 5799POPC   C1B73915  23.972  41.973   6.168
 5799POPC   C2B73916  24.062  42.086   6.601
 5799POPC   C3B73917  23.998  42.162   7.041
 5799POPC   C4B73918  23.854  42.124   7.492
 5800POPC   NC373919  11.230  37.468   5.469
 5800POPC   PO473920  11.319  38.155   5.360
 5800POPC   GL173921  11.536  37.999   5.737
 5800POPC   GL273922  11.617  37.664   5.744
 5800POPC   C1A73923  11.488  38.027   6.180
 5800POPC   D2A73924  11.578  37.745   6.516
 5800POPC   C3A73925  11.308  37.752   6.851
 5800POPC   C4A73926  11.599  37.648   7.161
 5800POPC   C1B73927  11.507  37.353   6.065
 5800POPC   C2B73928  11.248  37.298   6.438
 5800POPC   C3B73929  11.327  37.219   6.871
 5800POPC   C4B73930  11.103  37.416   7.209
 5801POPC   NC373931   8.566  41.574   5.438
 5801POPC   PO473932   9.144  41.552   5.167
 5801POPC   GL173933   9.109  41.537   5.690
 5801POPC   GL273934   8.776  41.469   5.877
 5801POPC   C1A73935   9.134  41.482   6.211
 5801POPC   D2A73936   8.870  41.438   6.616
 5801POPC   C3A73937   9.093  41.262   7.008
 5801POPC   C4A73938   9.430  41.351   7.317
 5801POPC   C1B73939   8.736  41.800   6.220
 5801POPC   C2B73940   8.888  41.963   6.616
 5801POPC   C3B73941   8.995  41.768   6.993
 5801POPC   C4B73942   9.374  41.827   7.124
 5802POPC   NC373943  22.008  19.217   5.280
 5802POPC   PO473944  22.554  18.767   5.383
 5802POPC   GL173945  22.328  19.061   5.698
 5802POPC   GL273946  22.049  18.948   5.712
 5802POPC   C1A73947  22.366  19.344   6.072
 5802POPC   D2A73948  22.436  19.439   6.538
 5802POPC   C3A73949  22.466  19.065   6.837
 5802POPC   C4A73950  22.360  18.985   7.288
 5802POPC   C1B73951  22.144  18.875   6.167
 5802POPC   C2B73952  21.991  18.817   6.593
 5802POPC   C3B73953  21.960  18.992   6.990
 5802POPC   C4B73954  21.840  18.916   7.407
 5803POPC   NC373955  38.032  10.532   5.634
 5803POPC   PO473956  37.334  10.391   5.375
 5803POPC   GL173957  37.546  10.349   5.767
 5803POPC   GL273958  37.625  10.670   5.895
 5803POPC   C1A73959  37.728  10.251   6.192
 5803POPC   D2A73960  37.856  10.438   6.598
 5803POPC   C3A73961  37.839  10.223   6.994
 5803POPC   C4A73962  37.775  10.380   7.409
 5803POPC   C1B73963  37.408  10.681   6.274
 5803POPC   C2B73964  37.546  10.857   6.652
 5803POPC   C3B73965  37.658  10.699   7.030
 5803POPC   C4B73966  37.350  10.644   7.353
 5804POPC   NC373967  28.155  27.493   5.490
 5804POPC   PO473968  28.381  28.113   5.453
 5804POPC   GL173969  28.544  27.887   5.824
 5804POPC   GL273970  28.638  27.544   5.756
 5804POPC   C1A73971  28.394  27.783   6.266
 5804POPC   D2A73972  28.229  27.917   6.685
 5804POPC   C3A73973  28.473  27.800   7.014
 5804POPC   C4A73974  28.516  27.556   7.348
 5804POPC   C1B73975  28.718  27.387   6.180
 5804POPC   C2B73976  28.558  27.462   6.629
 5804POPC   C3B73977  28.322  27.261   6.973
 5804POPC   C4B73978  28.070  27.303   7.347
 5805POPC   NC373979   3.623   5.432   5.249
 5805POPC   PO473980   3.424   4.785   5.213
 5805POPC   GL173981   3.539   4.910   5.660
 5805POPC   GL273982   3.234   4.823   5.791
 5805POPC   C1A73983   3.569   5.032   6.143
 5805POPC   D2A73984   3.668   5.060   6.628
 5805POPC   C3A73985   3.568   5.246   7.062
 5805POPC   C4A73986   3.694   5.086   7.525
 5805POPC   C1B73987   3.058   4.887   6.193
 5805POPC   C2B73988   3.167   5.059   6.570
 5805POPC   C3B73989   3.119   4.911   6.973
 5805POPC   C4B73990   3.101   5.209   7.276
 5806POPC   NC373991  31.248  17.224   5.256
 5806POPC   PO473992  31.716  17.754   5.383
 5806POPC   GL173993  31.692  17.526   5.743
 5806POPC   GL273994  31.421  17.296   5.753
 5806POPC   C1A73995  31.801  17.670   6.158
 5806POPC   D2A73996  31.564  17.851   6.488
 5806POPC   C3A73997  31.749  17.721   6.833
 5806POPC   C4A73998  31.632  17.536   7.162
 5806POPC   C1B73999  31.341  17.440   6.199
 5806POPC   C2B74000  31.339  17.428   6.685
 5806POPC   C3B74001  31.218  17.243   7.093
 5806POPC   C4B74002  31.032  17.067   7.482
 5807POPC   NC374003  39.670  42.651   5.606
 5807POPC   PO474004  39.244  42.214   5.276
 5807POPC   GL174005  39.167  42.174   5.734
 5807POPC   GL274006  39.223  42.497   5.835
 5807POPC   C1A74007  39.069  42.110   6.169
 5807POPC   D2A74008  39.078  42.362   6.527
 5807POPC   C3A74009  38.971  42.172   6.908
 5807POPC   C4A74010  39.136  42.392   7.258
 5807POPC   C1B74011  39.499  42.401   6.189
 5807POPC   C2B74012  39.536  42.601   6.573
 5807POPC   C3B74013  39.474  42.323   6.888
 5807POPC   C4B74014  39.728  42.352   7.209
 5808POPC   NC374015  19.440  42.153   5.434
 5808POPC   PO474016  19.483  42.819   5.491
 5808POPC   GL174017  19.255  42.578   5.794
 5808POPC   GL274018  18.881  42.420   5.817
 5808POPC   C1A74019  19.173  42.554   6.229
 5808POPC   D2A74020  18.919  42.405   6.566
 5808POPC   C3A74021  19.090  42.350   6.950
 5808POPC   C4A74022  19.065  42.568   7.317
 5808POPC   C1B74023  18.718  42.135   6.177
 5808POPC   C2B74024  18.686  41.892   6.576
 5808POPC   C3B74025  18.722  41.999   6.997
 5808POPC   C4B74026  18.902  42.117   7.386
 5809W        W74027  26.104  23.507   3.802
 5810W        W74028  39.614  40.954   1.376
 5811W        W74029  19.763  19.898   3.298
 5812W        W74030  23.500  40.418  10.724
 5813W        W74031  20.742  25.634   2.192
 5814W        W74032  10.828   9.212  14.557
 5815W        W74033  23.321  35.045   0.289
 5816W        W74034  26.214  20.805  11.217
 5817W        W74035  10.388  34.193   1.766
 5818W        W74036  10.050   6.970   4.446
 5819W        W74037  38.023   6.432   4.601
 5820W        W74038  32.531   0.457  10.713
 5821W        W74039  40.878  14.048  12.044
 5822W        W74040   1.469  44.746  13.379
 5823W        W74041   3.596   5.363   0.086
 5824W        W74042  37.932  26.953   4.074
 5825W        W74043  36.029  39.964   2.781
 5826W        W74044   6.440  40.556  12.911
 5827W        W74045  30.157   2.405  13.757
 5828W        W74046  26.217  43.001  10.745
 5829W        W74047  31.946   1.998   3.239
 5830W        W74048  12.839   4.234   3.047
 5831W        W74049  17.768  38.302   1.867
 5832W        W74050  32.381   4.257   2.183
 5833W        W74051  20.485   7.683   4.856
 5834W        W74052   0.777  38.133  14.392
 5835W        W74053  17.574   7.150  11.187
 5836W        W74054   9.087  28.050   0.443
 5837W        W74055  26.431   9.336  12.453
 5838W        W74056   6.781  33.534   1.179
 5839W        W74057  38.882   4.535   1.677
 5840W        W74058  30.122  43.163   2.719
 5841W        W74059  24.102  23.159  13.336
 5842W        W74060  27.145  38.211  12.509
 5843W        W74061  40.823  23.543  10.726
 5844W        W74062  27.687  38.009   4.027
 5845W        W74063  38.106  30.567   2.225
 5846W        W74064  26.477  42.525  10.813
 5847W        W74065  13.703  28.557   2.901
 5848W        W74066  40.181  40.331   2.773
 5849W        W74067  10.758  11.972   4.963
 5850W        W74068  19.302  18.803  12.423
 5851W        W74069   6.695  40.392   5.104
 5852W        W74070  11.745  12.657   3.701
 5853W        W74071  28.550  42.735  12.499
 5854W        W74072   0.062  24.639   1.779
 5855W        W74073   2.209  11.893  14.893
 5856W        W74074  28.874  14.896   1.275
 5857W        W74075  38.992  26.416  12.546
 5858W        W74076  15.024  12.363  14.858
 5859W        W74077  36.943   3.283  14.299
 5860W        W74078  35.199  38.341   3.198
 5861W        W74079  13.323   2.579  14.831
 5862W        W74080  23.114  31.610   4.255
 5863W        W74081   8.635  26.047  12.155
 5864W        W74082  17.303  33.576  13.072
 5865W        W74083  31.033   1.938  14.033
 5866W        W74084  11.886  38.099   3.794
 5867W        W74085  41.880  35.454   2.776
 5868W        W74086  13.990  39.532  11.659
 5869W        W74087  39.973   0.508   2.408
 5870W        W74088  20.148  34.135  14.585
 5871W        W74089  10.714   4.203  11.348
 5872W        W74090   3.389  43.303  14.828
 5873W        W74091  10.368  16.186   3.596
 5874W        W74092  43.573  16.654   4.332
 5875W        W74093   9.074  20.041  12.835
 5876W        W74094  37.538  33.431   5.206
 5877W        W74095  29.066  36.775   4.643
 5878W        W74096  19.760  12.211  11.672
 5879W        W74097  33.681   4.337  11.665
 5880W        W74098   4.936  12.260  13.350
 5881W        W74099  26.701  31.498  12.064
 5882W        W74100  35.467  13.586  13.967
 5883W        W74101  37.508  32.829  14.109
 5884W        W74102   3.735  14.280   2.375
 5885W        W74103  33.804  25.192   0.801
 5886W        W74104   0.896  19.796   2.909
 5887W        W74105  44.546  26.027   3.846
 5888W        W74106  29.060  43.443  13.001
 5889W        W74107   3.275  35.665  11.180
 5890W        W74108  28.473   0.922  14.293
 5891W        W74109  26.124  26.505   1.876
 5892W        W74110   5.581   5.781   0.193
 5893W        W74111  20.704   0.030   2.195
 5894W        W74112   0.261  16.729  12.802
 5895W        W74113  44.073   9.763   3.619
 5896W        W74114  34.399  39.757  13.147
 5897W        W74115  10.164  44.002  13.442
 5898W        W74116  10.342  30.832  14.015
 5899W        W74117  11.521  40.063   0.447
 5900W        W74118  17.693  41.227   0.250
 5901W        W74119  30.170   5.733  12.520
 5902W        W74120  36.902   8.367   0.531
 5903W        W74121  43.020  34.018  10.324
 5904W        W74122  29.009  41.886  14.769
 5905W        W74123  33.840  13.756   2.658
 5906W        W74124   1.335  32.111  13.440
 5907W        W74125  25.683  34.728   4.984
 5908W        W74126  42.082  19.276   1.863
 5909W        W74127  31.874  44.441  10.332
 5910W        W74128   5.479  36.832  10.732
 5911W        W74129  35.932  37.304  14.831
 5912W        W74130  44.197  37.390   0.348
 5913W        W74131  23.571   1.198  10.627
 5914W        W74132   4.163  30.812   0.952
 5915W        W74133  13.588   1.008  11.669
 5916W        W74134  11.088  31.281  14.379
 5917W        W74135  41.261   3.827  13.901
 5918W        W74136  30.371   4.274  14.389
 5919W        W74137  10.367   9.322   2.218
 5920W        W74138  34.664  24.063   2.123
 5921W        W74139   1.926   7.038  11.999
 5922W        W74140  18.704   4.819   4.306
 5923W        W74141  13.275   8.024  14.938
 5924W        W74142  41.292  33.314   0.702
 5925W        W74143  42.922  25.495   1.301
 5926W        W74144  17.984   3.957  13.489
 5927W        W74145  17.466  27.861   4.587
 5928W        W74146  17.147  32.846  13.342
 5929W        W74147  38.823   8.578  14.455
 5930W        W74148  24.546  28.339  13.824
 5931W        W74149  10.884   5.955   2.097
 5932W        W74150  21.376  15.696  11.542
 5933W        W74151  13.379  30.242  12.478
 5934W        W74152  21.662  11.282   4.097
 5935W        W74153  30.515  31.592   1.717
 5936W        W74154  18.428  34.874  11.000
 5937W        W74155  33.080  32.955   1.412
 5938W        W74156   5.319  17.540  10.879
 5939W        W74157  30.409   0.430   0.283
 5940W        W74158   7.699  19.140   2.370
 5941W        W74159   4.865  41.918  13.493
 5942W        W74160   6.933  38.571  11.700
 5943W        W74161  42.082   1.376  12.942
 5944W        W74162   9.186  12.747   1.685
 5945W        W74163   1.796  41.809   1.216
 5946W        W74164  21.142  11.063   1.705
 5947W        W74165  11.256  44.723   3.678
 5948W        W74166   9.107  42.845   0.951
 5949W        W74167  26.563  19.224  14.370
 5950W        W74168  17.007   9.327   4.104
 5951W        W74169  44.504   3.829   4.684
 5952W        W74170  14.067  31.583  14.824
 5953W        W74171  37.555  15.392   0.829
 5954W        W74172  16.270  44.440   2.431
 5955W        W74173  33.160  21.420  11.557
 5956W        W74174  28.938  27.052  12.003
 5957W        W74175  36.012  18.209   1.361
 5958W        W74176  43.855   4.091   3.488
 5959W        W74177  18.029  38.772  13.886
 5960W        W74178   2.304  43.965   4.031
 5961W        W74179  40.913  42.546   4.515
 5962W        W74180  26.488  31.538   1.760
 5963W        W74181  44.208  31.830  11.638
 5964W        W74182  30.688  35.137  11.563
 5965W        W74183  20.034  24.179  12.007
 5966W        W74184  22.717  11.708   2.637
 5967W        W74185   0.777  39.868   0.388
 5968W        W74186  32.456  34.517  13.363
 5969W        W74187  16.733   1.705  13.756
 5970W        W74188   0.256  43.981   3.687
 5971W        W74189  27.761   6.299  12.412
 5972W        W74190  12.760  34.400   2.359
 5973W        W74191  13.675  24.588  11.224
 5974W        W74192  29.367  14.138  10.351
 5975W        W74193   8.794  11.276   1.466
 5976W        W74194   2.979  42.841  11.600
 5977W        W74195  27.280  10.448   2.694
 5978W        W74196  29.450  33.943   1.244
 5979W        W74197  43.954  38.444   2.672
 5980W        W74198   3.626  41.124  12.692
 5981W        W74199   0.965   7.438  14.683
 5982W        W74200  43.880  12.260  11.578
 5983W        W74201  14.354  24.648   1.867
 5984W        W74202  29.969  38.805   2.011
 5985W        W74203  31.095   0.425  10.586
 5986W        W74204  15.983  30.403  11.984
 5987W        W74205  44.542  42.911   2.827
 5988W        W74206  35.559  22.600   0.825
 5989W        W74207  29.232   6.108  14.692
 5990W        W74208  17.527  11.096   3.319
 5991W        W74209   4.062   5.498   2.698
 5992W        W74210  32.089  34.032   0.372
 5993W        W74211  36.614  27.390  11.873
 5994W        W74212   5.806  38.826  13.858
 5995W        W74213  33.778  40.655  14.541
 5996W        W74214   5.772  11.716   3.827
 5997W        W74215  32.970  20.181   1.474
 5998W        W74216  17.557  17.310  10.910
 5999W        W74217  30.094  41.747  10.672
 6000W        W74218  22.214  25.505   0.850
 6001W        W74219  43.709  38.295  12.501
 6002W        W74220  21.758  21.404  10.977
 6003W        W74221  40.263  24.264  12.907
 6004W        W74222  13.891  40.324  10.730
 6005W        W74223  16.352  27.752   1.508
 6006W        W74224  25.182  37.541  11.721
 6007W        W74225  44.343  41.035   0.247
 6008W        W74226  15.204   0.636  11.107
 6009W        W74227  35.533  19.495  13.031
 6010W        W74228  19.697  30.117  13.687
 6011W        W74229  32.586  11.724   4.490
 6012W        W74230  35.806   7.374  12.658
 6013W        W74231  26.936  16.847  11.023
 6014W        W74232  20.747  22.639  12.355
 6015W        W74233  25.076  26.913  12.881
 6016W        W74234   0.930  44.657   1.271
 6017W        W74235   7.329  12.933   2.844
 6018W        W74236  25.998   5.658   1.922
 6019W        W74237  19.135  36.554   0.881
 6020W        W74238   6.972  30.040  13.108
 6021W        W74239   9.247  21.744   0.839
 6022W        W74240   7.154  34.754  13.977
 6023W        W74241   3.914   6.417  12.980
 6024W        W74242  32.821   8.106  14.786
 6025W        W74243  10.098   4.356   0.896
 6026W        W74244  43.318   7.304  13.374
 6027W        W74245   5.123  44.566   0.030
 6028W        W74246   8.448  24.474  14.867
 6029W        W74247  27.975  20.454   5.054
 6030W        W74248  21.615  13.341   3.747
 6031W        W74249   6.927  29.995  14.912
 6032W        W74250  26.845   6.560   5.113
 6033W        W74251  30.696  42.635   0.257
 6034W        W74252   5.207  28.194  12.021
 6035W        W74253  33.470   9.903   0.480
 6036W        W74254  23.308  29.957  13.738
 6037W        W74255   1.336  44.758  12.854
 6038W        W74256  30.915   5.180   1.390
 6039W        W74257   9.314  42.184  11.422
 6040W        W74258  14.626  26.922  11.872
 6041W        W74259  42.562  13.563  12.329
 6042W        W74260  22.672   7.840   1.921
 6043W        W74261   9.384  17.222  12.449
 6044W        W74262  15.732  39.578  12.581
 6045W        W74263   8.514   0.378   2.808
 6046W        W74264  10.916  18.861  11.423
 6047W        W74265  24.326   8.640   3.697
 6048W        W74266  16.173  15.792  13.499
 6049W        W74267  26.662  43.064  12.925
 6050W        W74268  40.996  12.620   0.420
 6051W        W74269  41.130  30.975  14.910
 6052W        W74270   7.931  38.013  14.867
 6053W        W74271   5.904  33.568  12.483
 6054W        W74272  31.911  14.814   4.627
 6055W        W74273  25.578   1.130  13.765
 6056W        W74274  33.682  36.893  14.374
 6057W        W74275  19.750   0.455  12.012
 6058W        W74276  39.904  34.051  14.907
 6059W        W74277   8.279  38.595  13.526
 6060W        W74278  40.009   7.816  13.486
 6061W        W74279  22.596  39.304   2.344
 6062W        W74280  19.696   3.953   1.701
 6063W        W74281   5.247  30.438  11.020
 6064W        W74282  42.542  40.312  13.287
 6065W        W74283  21.046   4.020  13.737
 6066W        W74284  34.808   7.323   2.247
 6067W        W74285  32.616  39.516  12.025
 6068W        W74286  34.559  30.112   1.121
 6069W        W74287  19.068  19.625   0.847
 6070W        W74288  27.468  22.054   3.641
 6071W        W74289  20.061   2.695  11.071
 6072W        W74290  13.751  12.553   3.489
 6073W        W74291  35.947  21.134  11.915
 6074W        W74292  16.522  19.678   5.328
 6075W        W74293  33.406  33.554  14.273
 6076W        W74294  17.820   2.419   3.777
 6077W        W74295   7.239  18.848   2.320
 6078W        W74296  23.279  15.315  13.276
 6079W        W74297   7.771   3.005   0.729
 6080W        W74298  11.388  20.586   2.283
 6081W        W74299   5.886   7.791  11.979
 6082W        W74300  33.466  34.628   3.097
 6083W        W74301  39.307   9.989  13.378
 6084W        W74302  31.103  14.109  13.120
 6085W        W74303  44.748  43.853   3.815
 6086W        W74304   0.563  24.439   1.930
 6087W        W74305  23.101  28.950   1.275
 6088W        W74306  35.408  42.491   3.067
 6089W        W74307   9.473  28.439   2.682
 6090W        W74308   3.134   5.463   2.679
 6091W        W74309  24.010   9.861   0.410
 6092W        W74310  28.586   5.429   0.205
 6093W        W74311  23.160   8.100   4.245
 6094W        W74312  17.911  33.641   3.862
 6095W        W74313  19.249  37.951  13.169
 6096W        W74314   9.961  17.718   3.715
 6097W        W74315  35.968  33.518  13.040
 6098W        W74316  31.994  21.738   2.956
 6099W        W74317   9.290  41.900  13.766
 6100W        W74318  38.843   0.942   4.351
 6101W        W74319   7.470  35.999   4.128
 6102W        W74320  26.589  13.365   2.577
 6103W        W74321   8.313   8.695   0.052
 6104W        W74322  10.807   0.582  12.248
 6105W        W74323  30.349   5.465   2.760
 6106W        W74324  32.831  37.065  14.606
 6107W        W74325  10.694  40.899  12.921
 6108W        W74326   7.930  20.108   1.440
 6109W        W74327  13.259  25.216   3.742
 6110W        W74328  32.021   3.949   2.809
 6111W        W74329  20.303  41.764  12.330
 6112W        W74330   0.753   3.652   4.204
 6113W        W74331  38.135  10.170   0.031
 6114W        W74332   7.638  14.604   2.230
 6115W        W74333  37.438   9.121  12.825
 6116W        W74334  22.948   6.371  13.864
 6117W        W74335  24.730  26.658  13.389
 6118W        W74336   3.451  22.574   0.640
 6119W        W74337  42.344  11.646  12.800
 6120W        W74338  22.946  35.033  10.668
 6121W        W74339   7.937   8.839   3.692
 6122W        W74340  43.500  24.574  12.545
 6123W        W74341   1.023  27.389  11.594
 6124W        W74342   1.008  41.619   0.723
 6125W        W74343  18.743  10.856  12.904
 6126W        W74344  11.177  18.566   0.332
 6127W        W74345  26.103  12.224  11.357
 6128W        W74346  25.050  17.116  13.481
 6129W        W74347  25.720  38.413   3.186
 6130W        W74348  39.038  29.496   4.665
 6131W        W74349   6.774  44.553   5.204
 6132W        W74350  11.633  26.982  14.392
 6133W        W74351  25.685  15.132   1.712
 6134W        W74352  13.223  23.952  12.184
 6135W        W74353  17.574   9.636   0.502
 6136W        W74354  11.621  14.519   1.440
 6137W        W74355  29.384   2.169   5.020
 6138W        W74356   7.424  30.666  12.923
 6139W        W74357  39.482   1.342  10.988
 6140W        W74358  37.882  14.887   4.445
 6141W        W74359  36.765  30.507   4.074
 6142W        W74360   7.745  42.829  12.501
 6143W        W74361   5.357   5.511   0.588
 6144W        W74362  11.229  13.411  10.687
 6145W        W74363  10.093  28.594   3.880
 6146W        W74364  39.481   9.987   1.894
 6147W        W74365   9.358   5.545   0.426
 6148W        W74366  44.266   1.738   4.228
 6149W        W74367  39.876   0.987  14.757
 6150W        W74368  21.564  44.607   3.600
 6151W        W74369   3.375  22.661   4.636
 6152W        W74370  40.006  11.129   3.433
 6153W        W74371  16.627  14.756   3.392
 6154W        W74372  36.873  21.638   3.309
 6155W        W74373  44.938  39.580   3.730
 6156W        W74374   8.165  25.751  11.081
 6157W        W74375  35.327  41.915   4.523
 6158W        W74376  34.950   5.851  14.051
 6159W        W74377  40.060   2.760   2.206
 6160W        W74378  29.939  20.138  12.935
 6161W        W74379  28.972  10.895   1.948
 6162W        W74380  33.378  22.449  14.793
 6163W        W74381  31.771  19.062   3.678
 6164W        W74382   2.457  13.994  11.975
 6165W        W74383  13.557  27.069  10.326
 6166W        W74384  32.376  15.067  14.783
 6167W        W74385   9.868   5.452   1.319
 6168W        W74386  14.420   1.253   9.971
 6169W        W74387  21.184   6.216   0.242
 6170W        W74388  11.826  37.614  11.027
 6171W        W74389  35.706   6.264   1.851
 6172W        W74390  17.813  17.492  14.341
 6173W        W74391   6.343  28.627   2.369
 6174W        W74392   6.433  18.799  12.391
 6175W        W74393   2.402  20.808   3.651
 6176W        W74394   1.225  38.980  13.595
 6177W        W74395  29.314   1.816   1.821
 6178W        W74396   8.616  18.548   2.337
 6179W        W74397  10.196  27.458  11.712
 6180W        W74398   2.754  12.054   3.629
 6181W        W74399  27.887  43.994  14.721
 6182W        W74400  29.825   5.366  14.936
 6183W        W74401  29.908  34.533   0.495
 6184W        W74402  32.809  28.224   1.000
 6185W        W74403   6.813   9.664   0.297
 6186W        W74404  43.006   1.981   3.888
 6187W        W74405  16.103  30.912  10.719
 6188W        W74406  19.006  21.140  11.276
 6189W        W74407  39.601  22.784  11.661
 6190W        W74408   8.412  22.880  11.681
 6191W        W74409  31.562   6.200   3.667
 6192W        W74410  11.673   8.386   4.313
 6193W        W74411  19.514  33.176   9.881
 6194W        W74412  11.332  11.329   2.556
 6195W        W74413  30.159  36.542   2.760
 6196W        W74414   2.141  41.894  12.494
 6197W        W74415  37.149  26.580  11.492
 6198W        W74416   8.935  23.663  11.974
 6199W        W74417  13.751  30.676  14.838
 6200W        W74418  34.499  31.879   0.997
 6201W        W74419  41.249   6.370   2.022
 6202W        W74420  11.176   0.005  13.408
 6203W        W74421   4.578  27.090   4.134
 6204W        W74422   8.138  20.973  12.003
 6205W        W74423  25.850  22.728   0.251
 6206W        W74424  12.406  16.070   2.661
 6207W        W74425   9.493  23.645   4.466
 6208W        W74426  32.093  26.769  13.850
 6209W        W74427  34.580  43.724   4.717
 6210W        W74428  22.058  28.188  14.390
 6211W        W74429  13.837  19.236   3.176
 6212W        W74430   2.327  35.125   0.415
 6213W        W74431   0.266  21.621  12.509
 6214W        W74432  35.318  27.955   2.221
 6215W        W74433  43.997  38.458   2.153
 6216W        W74434  26.257  21.074  14.827
 6217W        W74435  31.851   1.864  12.001
 6218W        W74436  13.853  34.282  14.488
 6219W        W74437  29.571  20.899  10.374
 6220W        W74438   9.694   8.185   3.576
 6221W        W74439  17.968   7.465  11.104
 6222W        W74440  24.537  31.516  13.563
 6223W        W74441  36.497  17.111   4.708
 6224W        W74442  27.668  16.270  13.889
 6225W        W74443  29.538  41.036  14.809
 6226W        W74444  32.503  10.960  12.810
 6227W        W74445  11.853  17.139  11.998
 6228W        W74446  34.405  41.780   1.452
 6229W        W74447   7.828  25.662  12.381
 6230W        W74448  44.501  18.701  14.422
 6231W        W74449  18.896  28.064   0.402
 6232W        W74450  21.174  14.666  14.422
 6233W        W74451  41.078  25.001   0.342
 6234W        W74452  40.368  34.808   3.365
 6235W        W74453  10.589  12.617   0.555
 6236W        W74454   4.230  14.349   3.277
 6237W        W74455  11.195  44.296   2.921
 6238W        W74456  27.557  33.194   0.888
 6239W        W74457  23.288  13.184   3.239
 6240W        W74458  23.627   6.339   0.148
 6241W        W74459  29.357  25.133  12.038
 6242W        W74460   6.688  28.093   3.654
 6243W        W74461  24.132  26.571  13.124
 6244W        W74462   8.674  35.435  14.880
 6245W        W74463  32.955  37.479   0.841
 6246W        W74464  14.294   2.313   2.198
 6247W        W74465  33.641  32.554  14.866
 6248W        W74466  15.993  21.260  14.462
 6249W        W74467  29.717  20.565   1.276
 6250W        W74468  25.014  23.420   2.740
 6251W        W74469   6.238  15.072  13.121
 6252W        W74470  22.249   8.119   4.036
 6253W        W74471  38.709   6.241   9.904
 6254W        W74472  11.544  24.989  11.988
 6255W        W74473   5.981  44.931  12.113
 6256W        W74474  12.362  38.842  13.838
 6257W        W74475  15.653  35.985   1.521
 6258W        W74476  24.203  28.967  10.651
 6259W        W74477  32.184  36.777   1.009
 6260W        W74478  13.510  25.313   4.186
 6261W        W74479  36.274  16.668  11.247
 6262W        W74480  41.601  13.132   3.783
 6263W        W74481  31.089  13.173  13.574
 6264W        W74482  44.430  18.346  14.874
 6265W        W74483  33.451  14.785   1.815
 6266W        W74484  28.672   7.751  10.759
 6267W        W74485   4.289   0.007   3.190
 6268W        W74486  34.706   7.448   4.563
 6269W        W74487  20.421  31.251   4.454
 6270W        W74488  37.449  41.478  11.186
 6271W        W74489  19.100  27.201  11.695
 6272W        W74490  30.248  17.444  11.237
 6273W        W74491  19.736  12.026  12.137
 6274W        W74492  10.884  43.238  12.434
 6275W        W74493  29.936  36.951  10.866
 6276W        W74494  10.717  43.021  14.459
 6277W        W74495  42.815  21.519  10.872
 6278W        W74496  15.900   6.769   0.307
 6279W        W74497   0.950  12.174  10.734
 6280W        W74498  35.158   1.246  10.645
 6281W        W74499  15.860  22.127   2.414
 6282W        W74500  43.382  30.155   3.906
 6283W        W74501   8.136  10.256   1.430
 6284W        W74502   6.890  25.370   2.947
 6285W        W74503  22.425  19.043   2.795
 6286W        W74504   3.945   3.545   3.704
 6287W        W74505   3.960  41.034   0.429
 6288W        W74506  16.791  13.365  11.300
 6289W        W74507  39.405  27.417  13.865
 6290W        W74508  42.931  26.699  12.208
 6291W        W74509   3.692  42.413   0.444
 6292W        W74510  41.432   6.268   4.652
 6293W        W74511   5.754  40.409   5.004
 6294W        W74512   6.142  37.127   1.323
 6295W        W74513   4.721  44.076  14.451
 6296W        W74514  11.741  43.452   2.723
 6297W        W74515  39.592   5.840  12.935
 6298W        W74516  40.403  37.523   2.435
 6299W        W74517  35.522  25.935   0.792
 6300W        W74518  39.625  41.983  12.031
 6301W        W74519   7.426   0.153   0.987
 6302W        W74520  19.680  34.771   4.739
 6303W        W74521  42.329  15.566   2.086
 6304W        W74522  36.529   4.269   4.658
 6305W        W74523   1.132  32.231   2.360
 6306W        W74524  33.503  39.047   3.284
 6307W        W74525  33.904  13.894   3.644
 6308W        W74526  15.260  40.803  12.672
 6309W        W74527   4.354  36.958  10.633
 6310W        W74528  32.155   5.886   9.872
 6311W        W74529   5.640  43.580  12.880
 6312W        W74530   3.731  23.257  12.286
 6313W        W74531  39.814  39.842   0.579
 6314W        W74532  41.311  38.331  11.175
 6315W        W74533  19.653  39.797  13.574
 6316W        W74534  35.366  42.678   4.733
 6317W        W74535  28.980   2.315   0.943
 6318W        W74536  29.734  24.353  11.774
 6319W        W74537  42.002   0.690   4.454
 6320W        W74538  21.054  28.576   0.240
 6321W        W74539  38.300  15.546   2.851
 6322W        W74540  42.433  44.811   1.477
 6323W        W74541  36.391  29.045   3.273
 6324W        W74542  44.325  34.423   3.879
 6325W        W74543  17.894  31.663  12.935
 6326W        W74544  38.884  16.144  12.647
 6327W        W74545  29.660  38.996   2.408
 6328W        W74546  35.607   4.490   0.968
 6329W        W74547  37.935  29.040   2.376
 6330W        W74548   8.131   3.322   1.974
 6331W        W74549  28.810   7.356   2.217
 6332W        W74550  37.841  22.078  11.204
 6333W        W74551  21.577   5.365   1.122
 6334W        W74552  32.295  34.678   4.128
 6335W        W74553  37.637  30.832   4.577
 6336W        W74554   8.111  29.590  14.526
 6337W        W74555  15.893  12.981  11.547
 6338W        W74556   7.359  37.329   3.794
 6339W        W74557   4.796  36.931  11.986
 6340W        W74558  25.652   1.704   1.223
 6341W        W74559  43.414  20.133  10.400
 6342W        W74560  18.459   4.807  12.017
 6343W        W74561  13.912  13.217   0.036
 6344W        W74562   2.683   4.791  11.129
 6345W        W74563  19.942  12.280   1.785
 6346W        W74564  42.757  15.117   1.813
 6347W        W74565  41.011  11.320  12.993
 6348W        W74566  18.630  30.397  12.588
 6349W        W74567   5.252  42.468  14.767
 6350W        W74568  40.261  37.645  14.161
 6351W        W74569  14.317  20.205  14.465
 6352W        W74570  21.832  26.032   3.239
 6353W        W74571  26.934  29.969   2.797
 6354W        W74572  22.971  37.558  14.765
 6355W        W74573  41.764  12.289   3.686
 6356W        W74574  14.472  27.077  10.620
 6357W        W74575  40.583   5.446  12.111
 6358W        W74576   4.758  28.659   0.367
 6359W        W74577  36.141  17.084   3.189
 6360W        W74578  44.565  37.412   3.293
 6361W        W74579  30.919  37.322  11.233
 6362W        W74580  20.076  22.075   4.450
 6363W        W74581  30.143   3.093  10.400
 6364W        W74582  17.217   2.677   3.190
 6365W        W74583  41.946  33.442   0.946
 6366W        W74584  44.330  43.424  10.956
 6367W        W74585   6.638  19.941  12.901
 6368W        W74586  41.954  24.890   2.675
 6369W        W74587  31.417  33.955   2.310
 6370W        W74588  41.933  33.566  11.677
 6371W        W74589  34.968  16.708   2.366
 6372W        W74590   0.948  30.125  13.967
 6373W        W74591  21.757  16.616  10.450
 6374W        W74592  31.272  24.277   3.272
 6375W        W74593  35.371  22.520   4.756
 6376W        W74594  42.403   0.671  14.695
 6377W        W74595  29.215  32.451   3.199
 6378W        W74596  42.795  18.292  11.612
 6379W        W74597  37.999  35.089   3.360
 6380W        W74598  10.228  16.154   1.216
 6381W        W74599  14.142  40.231   3.738
 6382W        W74600  36.232   8.174   4.071
 6383W        W74601  27.119   1.447  13.894
 6384W        W74602  21.058  19.616   1.752
 6385W        W74603  24.551   6.720   2.444
 6386W        W74604   1.526  14.909  13.072
 6387W        W74605  30.591  16.756   3.660
 6388W        W74606   2.860  13.262  11.614
 6389W        W74607  21.550   2.572  12.441
 6390W        W74608  16.197  23.944  12.935
 6391W        W74609  20.048  20.806  12.996
 6392W        W74610  18.070  16.117  12.455
 6393W        W74611  41.888  33.148   4.647
 6394W        W74612  15.615  11.179  13.911
 6395W        W74613  41.920  39.926   0.313
 6396W        W74614   1.222  17.721  12.853
 6397W        W74615  26.491  25.431   2.763
 6398W        W74616   5.186   1.647   3.208
 6399W        W74617  29.734  40.760   2.738
 6400W        W74618  30.075  25.175  11.688
 6401W        W74619  20.568  11.702   1.736
 6402W        W74620  33.110  35.212  12.571
 6403W        W74621  29.930  14.668  11.564
 6404W        W74622  29.403   1.384  13.991
 6405W        W74623   9.022  21.157  11.384
 6406W        W74624  16.325   3.175   0.317
 6407W        W74625  43.424  21.762  14.805
 6408W        W74626   6.379  41.622  11.918
 6409W        W74627  11.932  22.452   1.431
 6410W        W74628  31.765  37.548   4.647
 6411W        W74629  10.277  31.412  11.191
 6412W        W74630  38.610  35.521  14.425
 6413W        W74631  13.565  25.275   3.336
 6414W        W74632  13.813  27.551   0.232
 6415W        W74633  43.269  44.091   1.798
 6416W        W74634   3.439  14.088  12.903
 6417W        W74635   9.119  17.979   1.727
 6418W        W74636  22.571  37.190   4.943
 6419W        W74637  34.069   0.235  11.606
 6420W        W74638  31.486  27.124  13.011
 6421W        W74639  29.927  39.246  12.310
 6422W        W74640   7.723  22.619   1.439
 6423W        W74641  24.843  24.492   2.909
 6424W        W74642  40.954  16.733   1.183
 6425W        W74643   5.801  14.325   1.942
 6426W        W74644  43.682  15.255  14.531
 6427W        W74645  17.689  19.051   3.639
 6428W        W74646  15.795  34.345  10.830
 6429W        W74647  37.034  17.217  11.560
 6430W        W74648  13.729  11.599  14.952
 6431W        W74649  29.077  27.617   2.462
 6432W        W74650   3.909   4.480  14.884
 6433W        W74651  42.125  33.606   4.581
 6434W        W74652  41.825  28.512   2.728
 6435W        W74653  29.038  35.286  11.623
 6436W        W74654  44.943  44.822   3.166
 6437W        W74655  21.730  43.227   4.591
 6438W        W74656  12.548   6.604  13.929
 6439W        W74657   5.153   0.782   3.250
 6440W        W74658  26.586  14.718   3.535
 6441W        W74659  28.963  21.162  13.844
 6442W        W74660  18.704  28.493   3.319
 6443W        W74661  15.106  16.807  14.275
 6444W        W74662  22.943  10.032   3.581
 6445W        W74663  30.426  43.056   1.374
 6446W        W74664  11.791  18.230   1.418
 6447W        W74665   5.043  25.127   0.085
 6448W        W74666  27.737  31.449  11.069
 6449W        W74667  23.027  22.048  13.952
 6450W        W74668  35.118  28.702   3.202
 6451W        W74669  44.424  13.041  13.548
 6452W        W74670  36.037  31.700  12.708
 6453W        W74671  37.375  24.771   3.691
 6454W        W74672  21.215   6.955  11.520
 6455W        W74673   1.257  14.354   2.350
 6456W        W74674  25.194  25.643   3.139
 6457W        W74675  16.148  42.462   5.516
 6458W        W74676  36.559   0.514   0.003
 6459W        W74677   2.200  36.120  12.999
 6460W        W74678  23.315  10.580  14.203
 6461W        W74679  39.904  13.807   4.817
 6462W        W74680  39.347  15.754   2.601
 6463W        W74681  20.603   9.443   1.324
 6464W        W74682  37.513  34.451   3.617
 6465W        W74683  33.115  41.748   2.713
 6466W        W74684   1.627  39.322  12.914
 6467W        W74685  13.262  28.627  11.553
 6468W        W74686  16.609   1.652   3.623
 6469W        W74687  40.565  37.625   4.586
 6470W        W74688  43.160  10.294  12.000
 6471W        W74689  22.814  38.831   4.060
 6472W        W74690  13.607  44.292  13.430
 6473W        W74691  44.518  13.540  13.114
 6474W        W74692  40.269  33.002  14.795
 6475W        W74693  37.143  14.664   1.437
 6476W        W74694  25.914   0.338   1.774
 6477W        W74695  22.615   5.556  13.941
 6478W        W74696  32.898  29.986   1.211
 6479W        W74697  23.514  29.508   3.721
 6480W        W74698  16.594  44.264  13.994
 6481W        W74699  28.440  30.471   4.099
 6482W        W74700  34.003  26.708   3.222
 6483W        W74701  29.567   4.335   2.223
 6484W        W74702  18.530  12.621  12.375
 6485W        W74703   0.190  19.373   5.194
 6486W        W74704  11.859   1.994  13.902
 6487W        W74705  29.664  29.852  10.678
 6488W        W74706  37.388  43.949  10.807
 6489W        W74707   8.444  13.417  10.694
 6490W        W74708  29.911   9.784  11.132
 6491W        W74709  30.955  20.760   4.229
 6492W        W74710  13.550  34.554  13.318
 6493W        W74711  15.630  41.814   0.909
 6494W        W74712  33.427  12.419   0.395
 6495W        W74713  29.202  33.574   1.700
 6496W        W74714  28.751   4.709   0.985
 6497W        W74715  22.942   0.833  10.252
 6498W        W74716  31.993  11.975  13.456
 6499W        W74717   9.000  42.094   5.021
 6500W        W74718  17.820  39.475  11.560
 6501W        W74719  26.426  26.147  12.937
 6502W        W74720   4.153  16.635  10.802
 6503W        W74721  31.951  30.040  12.438
 6504W        W74722  43.537  27.160   3.022
 6505W        W74723  27.508  35.402  14.919
 6506W        W74724  28.544  28.031   2.411
 6507W        W74725  22.577  24.192  11.982
 6508W        W74726  44.247  28.631   0.537
 6509W        W74727  27.700  42.803   2.437
 6510W        W74728  27.940  19.318  10.343
 6511W        W74729  44.277  10.661  13.966
 6512W        W74730  14.645   8.999   1.450
 6513W        W74731  44.557  24.458   1.006
 6514W        W74732  20.209   1.686  13.109
 6515W        W74733  26.754  18.604   4.209
 6516W        W74734  10.816  15.334   0.848
 6517W        W74735   0.779  16.407  12.613
 6518W        W74736  25.332  31.309   2.690
 6519W        W74737   5.704  36.679   0.283
 6520W        W74738  23.962   8.206   0.899
 6521W        W74739  21.504  11.414  11.140
 6522W        W74740  24.472   9.578  11.159
 6523W        W74741  10.678  39.785  11.236
 6524W        W74742  22.852  11.191   1.006
 6525W        W74743  18.293  34.676   4.629
 6526W        W74744  44.022  25.089  12.941
 6527W        W74745  23.910  20.237   4.949
 6528W        W74746  33.120  10.631  11.235
 6529W        W74747   0.638   2.507   2.328
 6530W        W74748  12.089  14.169  10.945
 6531W        W74749  26.995  12.475   0.233
 6532W        W74750  35.618  30.501  10.533
 6533W        W74751  33.178   7.158   4.536
 6534W        W74752  20.974  17.566   2.022
 6535W        W74753  42.499   6.899  11.131
 6536W        W74754   0.566  30.841   2.963
 6537W        W74755  36.832  27.279   1.278
 6538W        W74756  10.940  26.478   2.652
 6539W        W74757  41.142  20.609   2.723
 6540W        W74758  28.144  16.224   4.965
 6541W        W74759  39.835  30.857  10.661
 6542W        W74760  24.527  39.694   0.522
 6543W        W74761  36.329  33.338  12.356
 6544W        W74762  23.214  34.826   3.560
 6545W        W74763   3.528  39.511  13.960
 6546W        W74764  43.403  16.097   2.786
 6547W        W74765  21.199  39.492  11.977
 6548W        W74766  13.858  27.242   2.817
 6549W        W74767  44.379  28.091  10.742
 6550W        W74768  32.530   9.599  12.506
 6551W        W74769  37.961  35.346   2.384
 6552W        W74770   8.824  19.577  12.122
 6553W        W74771  26.086   6.746   1.696
 6554W        W74772   9.265   7.852   2.876
 6555W        W74773   1.505  24.004  11.184
 6556W        W74774  16.170  18.129   1.732
 6557W        W74775  22.151   4.323  14.197
 6558W        W74776   1.823   7.633   2.223
 6559W        W74777   3.776  22.508   3.920
 6560W        W74778  35.089  38.429  13.846
 6561W        W74779   5.712   9.207  12.423
 6562W        W74780  16.218   1.995   4.315
 6563W        W74781  18.586   3.395   5.102
 6564W        W74782  24.281  13.522  11.913
 6565W        W74783  41.756   5.349  13.998
 6566W        W74784  33.392  12.231   1.443
 6567W        W74785  29.588  12.817   3.228
 6568W        W74786  12.142   8.323   0.921
 6569W        W74787  44.011  21.148   1.709
 6570W        W74788  31.543  39.029  13.886
 6571W        W74789  38.805  36.852  13.528
 6572W        W74790  11.587   0.621  13.438
 6573W        W74791  29.079  15.186   2.838
 6574W        W74792  10.120  10.808  12.003
 6575W        W74793  42.850  31.752   0.454
 6576W        W74794   7.311  22.775  11.508
 6577W        W74795   6.114  24.131   2.679
 6578W        W74796  12.527  29.008   3.507
 6579W        W74797   5.106  19.744  11.145
 6580W        W74798  33.533  30.824  12.374
 6581W        W74799  11.418  36.138   3.765
 6582W        W74800   8.944  28.444   0.790
 6583W        W74801  30.432  33.129   0.280
 6584W        W74802   1.896  18.284  12.497
 6585W        W74803  13.358  29.185   5.000
 6586W        W74804  44.832  43.223   0.378
 6587W        W74805   2.878  23.609  10.692
 6588W        W74806  35.418  16.176  12.404
 6589W        W74807  17.452  33.131  13.982
 6590W        W74808  16.217  19.821  13.978
 6591W        W74809  10.240  25.577   3.660
 6592W        W74810  22.532   6.950   3.718
 6593W        W74811  26.389  40.726  11.085
 6594W        W74812   4.394  19.816  11.603
 6595W        W74813  34.037   1.012   0.984
 6596W        W74814  30.311  35.929  13.867
 6597W        W74815  13.133   5.424  12.835
 6598W        W74816  38.962  34.609   1.190
 6599W        W74817   8.996  33.374   0.400
 6600W        W74818  11.215  38.276  14.257
 6601W        W74819  21.005  40.724   2.777
 6602W        W74820  12.802  28.182  12.963
 6603W        W74821   6.834  39.855   0.169
 6604W        W74822  32.823  19.513  13.040
 6605W        W74823  43.507   1.473  10.735
 6606W        W74824   5.424  37.367   4.985
 6607W        W74825  19.270  33.236   4.087
 6608W        W74826  10.195  37.288  14.755
 6609W        W74827  40.344   6.427  12.055
 6610W        W74828   8.901  40.881  12.577
 6611W        W74829  26.172  17.772  11.384
 6612W        W74830  14.776  38.601   1.451
 6613W        W74831  30.122  39.941  13.010
 6614W        W74832  18.333  38.103   0.760
 6615W        W74833  10.175  36.947   0.167
 6616W        W74834  40.526  18.703  12.412
 6617W        W74835  44.997  38.113  11.217
 6618W        W74836  12.286   6.281   1.176
 6619W        W74837  40.682   6.478  10.698
 6620W        W74838  40.467   9.134  14.435
 6621W        W74839  21.012  42.968  14.459
 6622W        W74840  44.876  26.470  10.059
 6623W        W74841  18.099  23.364  14.479
 6624W        W74842  18.044  17.177   3.209
 6625W        W74843  19.172  25.173  14.799
 6626W        W74844  26.001  42.867   2.927
 6627W        W74845  44.949   9.627  14.462
 6628W        W74846  31.873  41.302  10.991
 6629W        W74847  35.158  14.207   2.885
 6630W        W74848  44.802   9.278  11.744
 6631W        W74849  16.028  27.774   0.043
 6632W        W74850  35.376   0.939  13.581
 6633W        W74851  40.944  15.876  14.255
 6634W        W74852  13.791  42.336   3.449
 6635W        W74853  30.036  16.892   0.177
 6636W        W74854   9.778  24.423   3.829
 6637W        W74855  12.213  29.756   0.159
 6638W        W74856  43.829   3.292  13.460
 6639W        W74857  43.805  36.704   2.616
 6640W        W74858   6.839  44.510  14.356
 6641W        W74859  21.260  15.679  12.492
 6642W        W74860   7.871  17.719  11.879
 6643W        W74861  39.367  16.707  12.824
 6644W        W74862  12.034  27.940   0.399
 6645W        W74863  27.686  24.179   2.348
 6646W        W74864  22.219   9.655   0.723
 6647W        W74865   6.408  25.594   2.225
 6648W        W74866  43.922  43.885   4.403
 6649W        W74867   8.818  23.635  12.487
 6650W        W74868  41.767  16.751   3.213
 6651W        W74869  19.248   5.901  12.888
 6652W        W74870  21.474  22.649  10.980
 6653W        W74871  44.316  12.159  13.532
 6654W        W74872  15.059  33.607  10.791
 6655W        W74873   7.719  43.736   0.732
 6656W        W74874   3.907  33.623   3.759
 6657W        W74875   4.279  36.159   2.755
 6658W        W74876  18.335   5.006  10.699
 6659W        W74877  13.669   0.474   3.957
 6660W        W74878  22.350  42.198   3.408
 6661W        W74879  33.079  40.506  13.568
 6662W        W74880  40.261   7.890   1.847
 6663W        W74881  31.483  35.461   3.378
 6664W        W74882  24.701  39.995   0.940
 6665W        W74883  36.514  37.087   2.147
 6666W        W74884  42.272  41.329   1.657
 6667W        W74885   1.404  43.910   3.572
 6668W        W74886  15.712  27.631   0.922
 6669W        W74887   0.306  30.174   3.072
 6670W        W74888  17.177  37.924   3.826
 6671W        W74889  36.880  25.625  13.197
 6672W        W74890  31.398  36.596   3.273
 6673W        W74891  19.463   8.254   3.061
 6674W        W74892  25.974  14.099   5.294
 6675W        W74893  43.468  27.355   0.206
 6676W        W74894   8.815  34.857   2.921
 6677W        W74895   5.730   7.007  13.495
 6678W        W74896  36.342   3.601  10.229
 6679W        W74897   1.816  21.553   1.383
 6680W        W74898  17.624  36.561  13.339
 6681W        W74899   5.308  44.724  13.292
 6682W        W74900  33.980  22.237  14.466
 6683W        W74901   2.029  35.151   2.285
 6684W        W74902  36.403  38.998  12.375
 6685W        W74903   1.292  13.862  12.856
 6686W        W74904   6.888  36.884  14.951
 6687W        W74905  19.115  19.030   4.988
 6688W        W74906  18.726  12.782  13.284
 6689W        W74907  14.850  33.014   1.731
 6690W        W74908  35.525  28.880   0.777
 6691W        W74909  33.506  43.425  13.593
 6692W        W74910  19.337  25.223  14.278
 6693W        W74911  11.204  11.065  12.830
 6694W        W74912  16.926  39.390   9.945
 6695W        W74913  17.519  13.138  10.614
 6696W        W74914  15.114  22.571   2.137
 6697W        W74915  18.596  35.635  14.377
 6698W        W74916  36.817   1.528   1.915
 6699W        W74917  29.333   4.133   3.199
 6700W        W74918  12.556  34.570  13.573
 6701W        W74919   6.452   6.246  11.255
 6702W        W74920  11.859  31.874  12.711
 6703W        W74921  29.819  19.165   3.405
 6704W        W74922  13.246  34.255   2.121
 6705W        W74923  13.766  25.250   0.748
 6706W        W74924   6.314  13.613  12.001
 6707W        W74925  37.911  28.547  14.771
 6708W        W74926   3.388   3.345  14.456
 6709W        W74927  43.336  40.838  14.473
 6710W        W74928  28.965  21.318  11.981
 6711W        W74929  21.234  13.547  14.449
 6712W        W74930   6.912  42.508   1.381
 6713W        W74931   7.146  37.879   4.570
 6714W        W74932  23.217   6.877   1.660
 6715W        W74933  40.549   0.938  13.182
 6716W        W74934   5.153  25.167  13.015
 6717W        W74935  25.386  18.168   0.858
 6718W        W74936   4.803  13.680   2.108
 6719W        W74937  16.785  13.438   0.509
 6720W        W74938  20.750  15.648  12.558
 6721W        W74939   4.238  28.939   2.397
 6722W        W74940  40.077  32.489   4.545
 6723W        W74941  25.718   0.418  12.136
 6724W        W74942  27.326  28.127   3.159
 6725W        W74943  33.566  42.734  12.970
 6726W        W74944  18.824  15.446   4.295
 6727W        W74945  42.985  26.114   0.485
 6728W        W74946  11.764  18.904  12.618
 6729W        W74947  15.187   5.879  13.999
 6730W        W74948  41.232  32.064  11.178
 6731W        W74949   7.368  32.965  12.065
 6732W        W74950  32.524   8.674   0.347
 6733W        W74951  14.613  10.221  11.523
 6734W        W74952  32.109  13.311   0.788
 6735W        W74953  44.240   6.128   4.513
 6736W        W74954   0.413  39.089   4.936
 6737W        W74955  41.589  39.956   4.302
 6738W        W74956   7.936  23.054   2.780
 6739W        W74957  16.268  34.899  13.860
 6740W        W74958   0.052  33.858  11.597
 6741W        W74959  11.407  30.532  12.779
 6742W        W74960   2.155  14.123   2.251
 6743W        W74961  44.712  36.868  11.669
 6744W        W74962  43.921  19.395  11.420
 6745W        W74963  17.964  22.222  12.158
 6746W        W74964  40.493  23.848   0.825
 6747W        W74965  10.469  26.556   1.271
 6748W        W74966  24.320  32.690  11.959
 6749W        W74967  44.699  44.494  14.845
 6750W        W74968  38.809  36.821  11.007
 6751W        W74969  30.148   0.839  14.942
 6752W        W74970  21.347  43.306   2.532
 6753W        W74971  26.394  30.923  13.427
 6754W        W74972  11.907  10.579   0.272
 6755W        W74973   8.727  31.769  14.324
 6756W        W74974  30.557  21.398   4.933
 6757W        W74975  38.325   7.184  14.229
 6758W        W74976  41.758   9.173  14.784
 6759W        W74977  41.504   5.472  10.671
 6760W        W74978  20.425  14.110   0.218
 6761W        W74979  32.697  29.129   1.812
 6762W        W74980  44.876  10.805  11.939
 6763W        W74981  33.344  32.732   4.215
 6764W        W74982  23.642  32.806   0.503
 6765W        W74983  23.652   1.273  11.503
 6766W        W74984  22.130  39.388  13.506
 6767W        W74985  23.028   0.056  13.493
 6768W        W74986   3.215  21.285   2.203
 6769W        W74987  17.882  18.431   4.924
 6770W        W74988  36.374  41.283   9.760
 6771W        W74989  18.524  24.622  12.120
 6772W        W74990  34.677  36.730  11.828
 6773W        W74991  17.571  25.455   3.355
 6774W        W74992  14.332  41.538   1.814
 6775W        W74993   9.486   3.222   4.159
 6776W        W74994  24.095  27.030  13.986
 6777W        W74995  41.645  24.502  10.979
 6778W        W74996  43.776  35.351  12.617
 6779W        W74997  36.907  25.578  13.699
 6780W        W74998  32.946  15.343  12.662
 6781W        W74999  32.873  29.063  11.180
 6782W        W75000  25.913  15.135   3.959
 6783W        W75001  12.141  22.311   2.724
 6784W        W75002   1.164   5.808  13.079
 6785W        W75003  37.955   4.938   1.437
 6786W        W75004  32.903   9.576   1.174
 6787W        W75005  43.936  37.185   4.453
 6788W        W75006   4.628  38.790  10.406
 6789W        W75007  23.347   0.349  13.134
 6790W        W75008  26.962   3.218  12.511
 6791W        W75009   5.040  30.498   1.108
 6792W        W75010   0.203   5.478  14.372
 6793W        W75011  30.733  23.024  12.203
 6794W        W75012  37.148  15.760  12.435
 6795W        W75013  35.550  40.730   0.804
 6796W        W75014  31.834  21.062   1.777
 6797W        W75015  26.897  27.159  13.551
 6798W        W75016   0.107  38.589   3.820
 6799W        W75017  23.641   7.283  11.897
 6800W        W75018   1.407  10.407  12.390
 6801W        W75019   4.101   6.566  13.501
 6802W        W75020   6.208  29.037  10.723
 6803W        W75021  19.845  20.286   4.473
 6804W        W75022   8.671   6.819  13.432
 6805W        W75023   0.034  26.845  11.626
 6806W        W75024  41.566  13.358   2.924
 6807W        W75025  37.472   0.657   0.866
 6808W        W75026  20.465  33.080  11.594
 6809W        W75027  17.043  31.103   3.646
 6810W        W75028  34.990  39.019  13.779
 6811W        W75029  31.677   0.924   0.380
 6812W        W75030   0.567  19.533   4.897
 6813W        W75031  10.424  14.847   1.887
 6814W        W75032  39.876  32.190  11.255
 6815W        W75033   0.862  27.189  14.347
 6816W        W75034   7.192  35.867   1.007
 6817W        W75035   1.766  17.470   1.451
 6818W        W75036  22.124  37.865  10.788
 6819W        W75037  17.202  25.935   2.849
 6820W        W75038  27.433  26.577   0.068
 6821W        W75039  25.529  30.247  14.004
 6822W        W75040  21.238  37.477   3.143
 6823W        W75041  15.239  27.436  10.379
 6824W        W75042  16.591  38.001  10.626
 6825W        W75043  16.200  35.475   2.924
 6826W        W75044  39.308  11.324  10.915
 6827W        W75045   9.806  18.287   0.431
 6828W        W75046   7.583  16.680  12.514
 6829W        W75047  13.682  41.053  13.968
 6830W        W75048  26.224  30.182   0.327
 6831W        W75049  34.908  26.408   1.174
 6832W        W75050  42.933  34.105  14.750
 6833W        W75051  44.467   0.922   3.212
 6834W        W75052  13.113  14.585  13.877
 6835W        W75053  39.849  29.957  14.518
 6836W        W75054  21.044  41.928   3.800
 6837W        W75055  19.198  10.326  14.841
 6838W        W75056  42.647  11.774  13.762
 6839W        W75057  16.134  33.368   0.830
 6840W        W75058  31.710  26.992  12.549
 6841W        W75059  44.995   0.277  12.651
 6842W        W75060  31.577   8.677   3.837
 6843W        W75061  37.451  17.817  13.043
 6844W        W75062   0.117  12.073   4.087
 6845W        W75063  32.950  38.503  14.208
 6846W        W75064  41.932   2.854   2.494
 6847W        W75065   9.347  44.003   0.208
 6848W        W75066  12.549   3.987   4.302
 6849W        W75067   4.209  28.054   3.340
 6850W        W75068  36.164  17.306  12.057
 6851W        W75069  37.719   9.546   1.792
 6852W        W75070  30.420  30.636  11.448
 6853W        W75071  36.254  15.652  12.581
 6854W        W75072  25.958  43.255   3.294
 6855W        W75073  12.851  34.930  13.840
 6856W        W75074  17.855  27.620  13.045
 6857W        W75075  23.183  18.965  11.298
 6858W        W75076   2.946   0.332  13.799
 6859W        W75077   3.667  26.484  12.836
 6860W        W75078   4.451  27.696   2.218
 6861W        W75079   2.055  44.993  14.965
 6862W        W75080  20.119  32.122   3.310
 6863W        W75081  20.243  33.108   3.308
 6864W        W75082  30.762  34.110   3.273
 6865W        W75083  36.985  36.028  12.181
 6866W        W75084  38.011   3.329   1.983
 6867W        W75085  35.053   5.231   3.217
 6868W        W75086  31.621  38.816  12.479
 6869W        W75087  27.526  18.364  11.668
 6870W        W75088   9.247   7.960   3.384
 6871W        W75089   7.635  26.443  10.671
 6872W        W75090  13.677  12.110  14.883
 6873W        W75091  10.558  19.000   2.816
 6874W        W75092  29.178  21.229   4.100
 6875W        W75093  32.042  41.773  10.665
 6876W        W75094  37.126   5.948  12.898
 6877W        W75095  39.439  41.330   4.156
 6878W        W75096  23.535   2.779   1.804
 6879W        W75097   5.878  26.666  11.623
 6880W        W75098  43.505   9.795   2.204
 6881W        W75099  35.850  22.766   3.578
 6882W        W75100  37.545   8.892  13.340
 6883W        W75101  35.916   6.786  12.609
 6884W        W75102   8.329  31.452   4.343
 6885W        W75103   0.134  39.848  13.330
 6886W        W75104   4.418   1.871  12.095
 6887W        W75105  38.049  14.686   3.433
 6888W        W75106  37.838  37.865   1.703
 6889W        W75107  23.414   7.392   2.449
 6890W        W75108  30.264   8.187  10.750
 6891W        W75109  33.045  14.722  11.965
 6892W        W75110  25.189  15.715   0.275
 6893W        W75111  28.486  16.004  13.471
 6894W        W75112  26.068  26.900  11.060
 6895W        W75113   2.256  36.607   0.285
 6896W        W75114  30.046  15.631  10.857
 6897W        W75115  28.350  29.071  14.255
 6898W        W75116  36.725   0.208   1.740
 6899W        W75117  25.368   4.908  11.451
 6900W        W75118  27.885  28.951   4.547
 6901W        W75119  26.475  21.288  13.042
 6902W        W75120  42.847  27.409  13.380
 6903W        W75121   5.755  19.610   4.354
 6904W        W75122  41.249  40.592   1.713
 6905W        W75123  42.801  13.416  13.785
 6906W        W75124  10.076  39.939   4.369
 6907W        W75125  22.773  40.264  11.911
 6908W        W75126  28.507   3.356  13.330
 6909W        W75127   1.185  27.056  11.226
 6910W        W75128  16.329  37.253   3.148
 6911W        W75129  28.765   9.254   0.636
 6912W        W75130  25.099   0.178   2.262
 6913W        W75131  36.877   1.478  14.850
 6914W        W75132   4.527  10.252  10.113
 6915W        W75133  24.675  35.616  14.903
 6916W        W75134   3.496  15.089  13.079
 6917W        W75135  24.748  12.908  11.082
 6918W        W75136   0.847   2.293  13.974
 6919W        W75137  12.103  35.021   2.014
 6920W        W75138  10.102  35.374   1.255
 6921W        W75139  27.039   7.210  10.748
 6922W        W75140  38.249  26.538   2.387
 6923W        W75141  38.590  29.254  13.554
 6924W        W75142  13.077  29.123  10.314
 6925W        W75143  20.703  28.106   4.393
 6926W        W75144  11.397  43.610  10.015
 6927W        W75145  43.446   7.341   1.707
 6928W        W75146  19.070  20.997  14.506
 6929W        W75147  31.028  17.489  14.448
 6930W        W75148  30.331  39.539  11.459
 6931W        W75149  31.086   9.855  14.502
 6932W        W75150  14.549  16.738  14.974
 6933W        W75151   4.039   8.847   2.022
 6934W        W75152  10.175  18.347  13.057
 6935W        W75153  34.314   0.463  10.925
 6936W        W75154  28.970   3.967   5.035
 6937W        W75155  32.897  18.419  12.983
 6938W        W75156  18.777  37.127   2.757
 6939W        W75157   4.544  18.792   3.813
 6940W        W75158  40.332  43.999  11.915
 6941W        W75159   0.398  29.617   0.545
 6942W        W75160  23.860  37.970   4.371
 6943W        W75161  37.762  16.354  12.136
 6944W        W75162  21.559  19.882   1.340
 6945W        W75163  34.597   5.428  11.431
 6946W        W75164  32.995  42.033   0.216
 6947W        W75165  11.809  33.150   2.284
 6948W        W75166  28.234  31.636  11.103
 6949W        W75167  15.324   5.942  13.139
 6950W        W75168  26.190  19.023  11.148
 6951W        W75169  24.167  11.295   0.619
 6952W        W75170   6.331   0.236   3.038
 6953W        W75171  32.983  40.347  12.622
 6954W        W75172  16.595   9.410  13.466
 6955W        W75173  35.112   9.258  12.465
 6956W        W75174  29.464  31.395   2.332
 6957W        W75175  34.539  20.440  13.713
 6958W        W75176  33.549  30.739  12.904
 6959W        W75177  13.400  43.313  14.782
 6960W        W75178  22.771  37.491   0.325
 6961W        W75179   7.259  22.148  14.904
 6962W        W75180  44.302   0.836   1.456
 6963W        W75181  34.393  41.229  12.686
 6964W        W75182   8.301  10.364  11.570
 6965W        W75183  26.495  39.018  14.849
 6966W        W75184  44.347  31.258   1.519
 6967W        W75185   3.923  19.611  11.546
 6968W        W75186  24.775  36.791   2.395
 6969W        W75187  26.612  39.788  14.404
 6970W        W75188  33.936  18.365  14.057
 6971W        W75189  42.576  34.502   0.429
 6972W        W75190  39.984  22.441  14.616
 6973W        W75191  32.145  13.704   2.223
 6974W        W75192  25.682  43.778   0.654
 6975W        W75193  14.216  42.864  12.869
 6976W        W75194  33.534  18.091   3.643
 6977W        W75195  23.462  21.670   2.771
 6978W        W75196   5.229  11.066   3.672
 6979W        W75197  10.073  22.028   4.691
 6980W        W75198  40.800  37.497  11.164
 6981W        W75199  38.112  28.558   2.205
 6982W        W75200   3.743  29.553  14.940
 6983W        W75201  26.975  36.509   2.432
 6984W        W75202  11.146  14.230   3.672
 6985W        W75203  34.553  31.338   2.853
 6986W        W75204  42.150  30.755  14.303
 6987W        W75205  30.459  28.118  10.227
 6988W        W75206  14.294  41.517  14.749
 6989W        W75207  14.241  31.370   3.653
 6990W        W75208  32.283  26.133  11.527
 6991W        W75209  40.986  15.398   4.502
 6992W        W75210  14.033  28.975   1.659
 6993W        W75211  26.535  40.170  12.487
 6994W        W75212   2.981  18.046   2.986
 6995W        W75213  30.139   7.136  12.934
 6996W        W75214   3.360  32.936  11.977
 6997W        W75215  26.929  26.760  13.887
 6998W        W75216  27.664  38.975  11.720
 6999W        W75217   8.869   8.686   4.530
 7000W        W75218  21.236   4.666  14.270
 7001W        W75219  44.897  29.075  14.661
 7002W        W75220  15.617  16.867   4.023
 7003W        W75221  22.675  10.302   1.915
 7004W        W75222  37.355   9.642   4.029
 7005W        W75223  15.242  29.716   4.620
 7006W        W75224  22.555  11.598   1.196
 7007W        W75225  34.271  27.179   3.277
 7008W        W75226  26.207  19.199   2.152
 7009W        W75227  22.169  44.826  10.475
 7010W        W75228   0.390  23.929  12.872
 7011W        W75229  32.154  41.748  13.753
 7012W        W75230  10.755   6.487  12.072
 7013W        W75231   8.313   0.096   3.503
 7014W        W75232  42.056  39.752   4.415
 7015W        W75233  29.258  34.137   3.288
 7016W        W75234  24.840  39.774  12.040
 7017W        W75235  26.619   6.103   0.067
 7018W        W75236  38.499   3.446   0.416
 7019W        W75237   1.797  11.272   4.620
 7020W        W75238  44.878   3.406  11.876
 7021W        W75239  21.565   9.959   4.467
 7022W        W75240  13.237   4.619   3.737
 7023W        W75241  28.405  16.645   2.434
 7024W        W75242  10.403  30.450   4.179
 7025W        W75243  15.579  41.008  11.378
 7026W        W75244  35.592   7.011  12.973
 7027W        W75245  37.198   2.823  12.965
 7028W        W75246  44.512  21.268   0.823
 7029W        W75247  24.059  36.191   4.564
 7030W        W75248  25.659  28.386  11.127
 7031W        W75249  40.518  14.998   2.402
 7032W        W75250  14.581  10.715  10.716
 7033W        W75251  26.588  17.362   1.407
 7034W        W75252  10.392  40.919   2.266
 7035W        W75253   5.818  24.574   3.109
 7036W        W75254  29.635  31.948  12.981
 7037W        W75255  17.295  31.026  14.347
 7038W        W75256   6.370  44.009  11.713
 7039W        W75257  10.230  29.593   1.273
 7040W        W75258  23.964  12.540   1.794
 7041W        W75259  31.952  37.698  11.736
 7042W        W75260  43.217   6.879   1.577
 7043W        W75261  40.879  38.139  14.350
 7044W        W75262   0.231  33.045   0.030
 7045W        W75263  23.137  22.643   2.170
 7046W        W75264  19.098   7.924  11.459
 7047W        W75265  25.899  17.146   4.163
 7048W        W75266   0.413  14.325   3.601
 7049W        W75267  17.243   2.375   2.765
 7050W        W75268  23.059  17.895  14.193
 7051W        W75269  17.340  21.077  12.778
 7052W        W75270  20.620  22.010  14.426
 7053W        W75271  39.485  40.861   1.882
 7054W        W75272  21.665   6.906  14.361
 7055W        W75273  31.402  29.064  14.152
 7056W        W75274   6.325  16.177  13.925
 7057W        W75275  18.242  32.313   3.303
 7058W        W75276   3.639  24.790  13.415
 7059W        W75277  44.443  31.980   0.768
 7060W        W75278  43.101  22.481   0.585
 7061W        W75279  28.140  19.472   3.650
 7062W        W75280   3.796  24.602  12.487
 7063W        W75281  32.106   9.913  12.472
 7064W        W75282  44.731  41.484  12.973
 7065W        W75283  10.581  23.697   2.258
 7066W        W75284   5.738  26.110  12.943
 7067W        W75285  33.923  40.796   2.697
 7068W        W75286   7.608  17.286   3.662
 7069W        W75287  35.845  22.953  13.352
 7070W        W75288  21.611  29.928  13.148
 7071W        W75289  37.953  10.468   0.986
 7072W        W75290  43.861  36.197   2.420
 7073W        W75291  28.018   1.073   0.014
 7074W        W75292   0.727  11.804   2.272
 7075W        W75293   9.117   5.411   4.161
 7076W        W75294  23.740  28.007   0.469
 7077W        W75295  34.353  21.661   2.764
 7078W        W75296   2.024  43.001  13.858
 7079W        W75297  34.650   0.523   3.672
 7080W        W75298  27.124  33.840  10.913
 7081W        W75299   0.678   3.734  10.993
 7082W        W75300  10.745   3.705  12.844
 7083W        W75301  44.008   2.508   2.849
 7084W        W75302   6.861  34.968  12.132
 7085W        W75303   8.784  41.191  14.925
 7086W        W75304  16.615  32.878   4.802
 7087W        W75305  16.749  31.461   2.266
 7088W        W75306  43.858  29.018   1.360
 7089W        W75307  28.273  41.416   0.308
 7090W        W75308  12.120  22.700  12.586
 7091W        W75309   0.726  44.769   0.402
 7092W        W75310  14.873  32.639   4.518
 7093W        W75311  16.552  37.791  11.961
 7094W        W75312  33.846  30.127  13.844
 7095W        W75313  13.240  14.585  11.638
 7096W        W75314  30.411  38.801   4.609
 7097W        W75315  40.527  28.562   0.794
 7098W        W75316  12.687   5.221  12.636
 7099W        W75317  42.658  18.574  14.123
 7100W        W75318  25.577   6.590   4.682
 7101W        W75319  19.926  33.459   1.298
 7102W        W75320  25.707   3.705  11.990
 7103W        W75321   5.003   0.822   0.319
 7104W        W75322  44.910   1.621  10.700
 7105W        W75323  14.640   2.027  13.930
 7106W        W75324  15.332  43.367   2.084
 7107W        W75325  37.621  40.816   4.276
 7108W        W75326   1.663   9.738   3.249
 7109W        W75327  16.257   0.079   4.167
 7110W        W75328  42.287   2.277  13.948
 7111W        W75329   1.716  39.637   4.383
 7112W        W75330  12.690   2.979   1.911
 7113W        W75331  37.127  32.333  14.920
 7114W        W75332  22.809   7.844   5.016
 7115W        W75333  33.626  10.681   0.823
 7116W        W75334  37.375  35.321  11.644
 7117W        W75335   5.373  16.042  11.861
 7118W        W75336  13.730  40.338  12.017
 7119W        W75337  10.137  20.977  13.216
 7120W        W75338   9.857  22.667   4.011
 7121W        W75339  17.088  27.933  12.798
 7122W        W75340   6.873  20.966  10.744
 7123W        W75341   0.839  10.832  12.847
 7124W        W75342  32.949  39.858   0.689
 7125W        W75343   4.508  25.235   0.071
 7126W        W75344  10.884  13.539  11.133
 7127W        W75345  16.568   2.164   3.594
 7128W        W75346   9.609  10.678  12.484
 7129W        W75347  19.251  29.901   2.673
 7130W        W75348  10.183  36.936  10.505
 7131W        W75349  17.825  22.845   1.851
 7132W        W75350  20.858  11.564   0.357
 7133W        W75351   4.308  27.846  14.537
 7134W        W75352   1.116  33.415  12.450
 7135W        W75353  17.409  30.467   0.825
 7136W        W75354  26.870   4.239   3.149
 7137W        W75355   3.998  19.634   3.687
 7138W        W75356  37.529  43.348  13.792
 7139W        W75357   1.552   1.222  14.405
 7140W        W75358  13.361  19.373  11.645
 7141W        W75359  41.773   6.289  14.501
 7142W        W75360  11.924  26.961  10.423
 7143W        W75361  20.535  14.940  11.644
 7144W        W75362   6.369   8.594  11.081
 7145W        W75363  27.386  23.552  13.579
 7146W        W75364  23.563  27.965   3.080
 7147W        W75365   3.053  35.079  14.748
 7148W        W75366   6.823  39.250   5.711
 7149W        W75367  29.465  38.953   1.939
 7150W        W75368   9.758   8.045  10.529
 7151W        W75369  10.714  43.321  13.833
 7152W        W75370  17.635  34.406  10.399
 7153W        W75371  17.902  41.710  14.022
 7154W        W75372  35.406   8.526  11.454
 7155W        W75373  10.330   0.121   0.755
 7156W        W75374  28.690  42.351   2.257
 7157W        W75375  22.919   1.799  11.016
 7158W        W75376  41.949   6.430   3.685
 7159W        W75377  17.598   1.906  13.970
 7160W        W75378   4.686  29.444  13.712
 7161W        W75379  18.226  37.161   3.241
 7162W        W75380   7.885  25.088   4.989
 7163W        W75381  37.117  14.370   2.690
 7164W        W75382   9.750  37.646   1.389
 7165W        W75383  43.006  22.904  14.089
 7166W        W75384  21.281   8.808  11.223
 7167W        W75385  43.393  38.490  14.877
 7168W        W75386  15.612  30.975   2.382
 7169W        W75387   3.817  33.912  11.804
 7170W        W75388  44.183  31.400   3.171
 7171W        W75389  26.453   4.512  11.436
 7172W        W75390   0.304  33.390   2.650
 7173W        W75391  20.001  13.090  10.994
 7174W        W75392   4.310   6.703   3.139
 7175W        W75393  18.816  27.000   0.857
 7176W        W75394  15.108   0.521   2.874
 7177W        W75395  29.974  27.673   2.461
 7178W        W75396  36.033  15.266   0.882
 7179W        W75397  19.192  36.100  12.929
 7180W        W75398  12.682  43.265   0.273
 7181W        W75399  17.239  27.335   1.131
 7182W        W75400   7.194  21.059   3.147
 7183W        W75401   1.963   6.118   2.386
 7184W        W75402  16.589  19.937  13.033
 7185W        W75403  10.397  26.086  13.054
 7186W        W75404  14.183  29.155  11.652
 7187W        W75405  24.712  11.313  12.963
 7188W        W75406  12.823  33.577   0.556
 7189W        W75407  32.098  25.639  11.593
 7190W        W75408  31.607  31.523   0.480
 7191W        W75409  26.773  32.193  12.053
 7192W        W75410   4.057  38.394  14.334
 7193W        W75411  22.311   9.251   1.030
 7194W        W75412  19.185  17.108  12.959
 7195W        W75413  20.283  35.500  12.524
 7196W        W75414  13.332  26.964  12.996
 7197W        W75415  11.157  11.695  11.061
 7198W        W75416   4.744  10.820  13.933
 7199W        W75417  16.299  17.149  14.326
 7200W        W75418   8.791  44.088   1.544
 7201W        W75419  23.799  30.179  11.728
 7202W        W75420  10.489  11.050   0.701
 7203W        W75421  11.466  41.477   4.094
 7204W        W75422  14.068  10.427  11.069
 7205W        W75423  42.453  41.034   0.365
 7206W        W75424  42.453  30.673   0.831
 7207W        W75425  37.538  19.671  14.574
 7208W        W75426  31.371  25.261  11.183
 7209W        W75427  30.835   5.587  13.145
 7210W        W75428  30.611  34.947  12.912
 7211W        W75429  17.045  32.668  10.980
 7212W        W75430   7.399   0.688   1.008
 7213W        W75431  25.214  26.099  10.294
 7214W        W75432  10.731   9.896   4.632
 7215W        W75433  30.123  19.052  12.517
 7216W        W75434  22.723  38.228  14.262
 7217W        W75435   9.698  38.974  13.579
 7218W        W75436   1.772  38.916   1.757
 7219W        W75437  33.168  28.001  12.602
 7220W        W75438  44.398   7.100   4.170
 7221W        W75439  14.201  30.859  11.931
 7222W        W75440  27.519  39.719  11.534
 7223W        W75441  29.473  38.231   0.359
 7224W        W75442  35.811   1.453   1.888
 7225W        W75443  30.942  22.254  12.087
 7226W        W75444   3.801  38.963   2.783
 7227W        W75445  11.370  17.208   2.305
 7228W        W75446  14.025  24.778   3.593
 7229W        W75447  29.746   3.138  10.702
 7230W        W75448  41.771  25.093  13.532
 7231W        W75449  13.390  30.733   3.695
 7232W        W75450  43.910  41.613  11.905
 7233W        W75451  13.947  30.649  13.073
 7234W        W75452  10.275   6.243   0.932
 7235W        W75453  14.932   8.373  11.871
 7236W        W75454  13.100  10.345  12.483
 7237W        W75455  32.313  23.971  11.580
 7238W        W75456   2.297  37.560  12.871
 7239W        W75457  34.439  21.181   2.370
 7240W        W75458  27.923  11.094   2.296
 7241W        W75459  31.328  39.223  12.380
 7242W        W75460  23.043  31.092   4.166
 7243W        W75461  37.612  27.657  11.980
 7244W        W75462  31.549  41.783  11.943
 7245W        W75463  39.950  13.333   1.898
 7246W        W75464  18.326  13.118  13.473
 7247W        W75465  44.908  16.357   4.340
 7248W        W75466  37.444  15.661   3.113
 7249W        W75467  30.103  18.599  14.300
 7250W        W75468  39.316  30.011   0.828
 7251W        W75469  14.967  29.111   2.345
 7252W        W75470  39.834  39.392   4.054
 7253W        W75471  23.338  28.470   2.367
 7254W        W75472  10.822  17.524  11.148
 7255W        W75473   3.015  25.954  11.167
 7256W        W75474  16.778   1.673   4.113
 7257W        W75475  39.537  10.709  10.376
 7258W        W75476  11.613  10.924  13.549
 7259W        W75477  18.946  25.454  14.017
 7260W        W75478  28.228  34.770   2.350
 7261W        W75479  32.537  29.629  13.949
 7262W        W75480   7.812   8.594   4.165
 7263W        W75481  43.443  32.226  12.938
 7264W        W75482  35.205  23.030   1.744
 7265W        W75483  23.548  38.451   1.255
 7266W        W75484  14.119  37.597   2.625
 7267W        W75485  24.348  27.523  11.573
 7268W        W75486  11.494  35.786   1.033
 7269W        W75487  44.038   1.457  11.821
 7270W        W75488   2.985   7.244  13.578
 7271W        W75489  29.686  29.202   1.354
 7272W        W75490   6.379   7.605  12.029
 7273W        W75491  36.880  33.477   3.898
 7274W        W75492   5.768   8.649  10.791
 7275W        W75493  43.684  11.852   3.141
 7276W        W75494  31.703  22.634  10.829
 7277W        W75495  12.163  15.421   0.908
 7278W        W75496   9.053  22.058  11.442
 7279W        W75497  43.828  20.267  12.127
 7280W        W75498   5.333  23.696   0.029
 7281W        W75499  20.468   3.728   3.786
 7282W        W75500  32.200  22.948  13.502
 7283W        W75501  16.861  43.894   4.044
 7284W        W75502  24.429  17.878   0.575
 7285W        W75503  22.256   4.193  11.283
 7286W        W75504  13.445  32.348  11.504
 7287W        W75505  13.746  14.124   4.339
 7288W        W75506  44.123   9.804  14.796
 7289W        W75507  25.197  20.772   2.638
 7290W        W75508   5.927  24.167  12.394
 7291W        W75509  23.106  16.700  10.565
 7292W        W75510   0.233   4.795  14.885
 7293W        W75511   9.480   0.823   4.751
 7294W        W75512  16.530   9.801   2.902
 7295W        W75513  23.129   1.002  12.619
 7296W        W75514   8.376  11.016   4.419
 7297W        W75515  30.025  25.233   4.904
 7298W        W75516  26.122  22.001   3.547
 7299W        W75517  23.479  28.746  11.396
 7300W        W75518   8.846   4.400   3.622
 7301W        W75519   3.362  40.236   4.117
 7302W        W75520  17.885   5.785   1.821
 7303W        W75521   3.566   3.399  13.427
 7304W        W75522  33.982  38.513  10.953
 7305W        W75523   3.078  18.632  11.956
 7306W        W75524  13.123  35.955  10.760
 7307W        W75525  43.414  12.104  11.689
 7308W        W75526  35.626  42.032   0.468
 7309W        W75527   6.276  36.962  12.112
 7310W        W75528   1.006  37.029  12.516
 7311W        W75529  38.251   2.349  12.041
 7312W        W75530  40.041  15.202  14.923
 7313W        W75531  35.416  19.981  11.709
 7314W        W75532  42.456  17.525   2.142
 7315W        W75533  12.523  24.527  11.515
 7316W        W75534   0.364  15.539   4.621
 7317W        W75535  30.529  43.346  14.428
 7318W        W75536  25.813   3.960  12.909
 7319W        W75537   9.190  43.542  12.911
 7320W        W75538  36.892  32.742  11.646
 7321W        W75539   9.366   4.899   1.713
 7322W        W75540  37.591   6.817  12.962
 7323W        W75541  20.767  33.803   2.536
 7324W        W75542  37.512  35.446   0.055
 7325W        W75543  13.370  20.739  14.060
 7326W        W75544  26.051  32.841   2.163
 7327W        W75545  16.176  43.533  10.727
 7328W        W75546  18.933  20.057   4.639
 7329W        W75547  32.644  31.429   1.053
 7330W        W75548   2.191  19.623  13.937
 7331W        W75549   0.597  16.801   1.187
 7332W        W75550  36.252  35.099   1.385
 7333W        W75551   3.192  31.616  14.488
 7334W        W75552  10.893  28.438  12.924
 7335W        W75553  35.559  40.564  11.580
 7336W        W75554  27.234   6.203  12.446
 7337W        W75555  24.078   0.817  14.232
 7338W        W75556  14.279  24.074   3.264
 7339W        W75557  29.091   6.292   1.293
 7340W        W75558  28.980   1.271   3.548
 7341W        W75559  24.027  26.126  11.388
 7342W        W75560  16.695  31.941  10.703
 7343W        W75561  22.629   2.778   1.513
 7344W        W75562   1.818  18.534  12.954
 7345W        W75563  11.539  28.491   1.677
 7346W        W75564  11.296   5.852   3.690
 7347W        W75565  29.609  38.567   0.737
 7348W        W75566  27.211  25.256  10.645
 7349W        W75567  18.964   0.042  12.118
 7350W        W75568  44.579  21.699   2.821
 7351W        W75569  26.683  35.941  10.328
 7352W        W75570  29.990   9.180   2.409
 7353W        W75571  26.535  14.057   0.418
 7354W        W75572  18.966   0.483  12.373
 7355W        W75573  39.663   2.491   4.050
 7356W        W75574  12.782  37.301   1.785
 7357W        W75575  33.818   0.897  12.310
 7358W        W75576  27.072  15.042   2.660
 7359W        W75577   3.289  43.296  11.133
 7360W        W75578   3.323  44.671  14.572
 7361W        W75579  35.796  37.473  12.916
 7362W        W75580  12.707   1.224   0.870
 7363W        W75581   4.277  33.522  13.002
 7364W        W75582   1.894  32.049  11.271
 7365W        W75583  11.714  44.880   3.405
 7366W        W75584   0.276  17.706  10.756
 7367W        W75585  28.142  35.862   1.455
 7368W        W75586  32.841  39.129  11.294
 7369W        W75587   0.954   4.672  10.283
 7370W        W75588   3.480  25.071  12.464
 7371W        W75589  27.059  39.243   1.915
 7372W        W75590  41.795  14.837  10.937
 7373W        W75591  31.634  26.493   0.397
 7374W        W75592  11.845  21.158   0.473
 7375W        W75593   8.289  40.860  13.334
 7376W        W75594  36.470   7.668   2.158
 7377W        W75595  38.867  16.693   4.829
 7378W        W75596  25.711  20.026  11.105
 7379W        W75597  41.020   3.653  10.205
 7380W        W75598  29.892  27.565  13.805
 7381W        W75599  38.504  20.574  13.057
 7382W        W75600   1.263   7.400  13.307
 7383W        W75601   3.289  31.757   1.294
 7384W        W75602  43.790  21.599  10.839
 7385W        W75603  40.814  31.860  12.434
 7386W        W75604  43.021  44.675   0.319
 7387W        W75605  30.503  35.795  12.404
 7388W        W75606  16.862  31.317   2.767
 7389W        W75607  28.986   2.947  11.551
 7390W        W75608  23.749  42.228  12.409
 7391W        W75609  33.298  44.514   2.221
 7392W        W75610   7.410  38.086  10.621
 7393W        W75611  14.224   0.247   3.286
 7394W        W75612  29.914  24.939   1.455
 7395W        W75613  20.916  44.425   0.880
 7396W        W75614  34.034  44.886   2.470
 7397W        W75615  32.508  22.155   3.528
 7398W        W75616   9.204  32.445   4.616
 7399W        W75617  41.077  33.300   1.462
 7400W        W75618  38.819   7.246  10.594
 7401W        W75619  11.271  16.678  11.631
 7402W        W75620  36.324  29.173  11.189
 7403W        W75621   2.823  13.112   2.828
 7404W        W75622  34.340   3.451  11.646
 7405W        W75623   6.051  39.860   4.981
 7406W        W75624  11.795  14.881   3.189
 7407W        W75625   1.501  25.684  11.620
 7408W        W75626   4.783  18.837  13.358
 7409W        W75627  38.838  15.651  10.014
 7410W        W75628   9.108  37.363   4.555
 7411W        W75629  36.630  22.617   1.760
 7412W        W75630  18.079   1.261   4.075
 7413W        W75631  13.886   1.378   3.785
 7414W        W75632  31.501  40.742  14.837
 7415W        W75633  34.358   6.697   4.564
 7416W        W75634  35.466  13.267   4.981
 7417W        W75635  10.141  37.053  11.908
 7418W        W75636   5.263  25.145  14.611
 7419W        W75637  41.757  42.290  13.018
 7420W        W75638  14.091  27.186   3.271
 7421W        W75639  35.397  25.272  14.347
 7422W        W75640  30.950  13.635  12.884
 7423W        W75641  43.280  27.970  13.988
 7424W        W75642  19.036   3.339   4.088
 7425W        W75643   5.193  18.261  11.206
 7426W        W75644   5.903  10.872  10.783
 7427W        W75645   7.090   1.498  11.302
 7428W        W75646   7.227   7.365  11.465
 7429W        W75647  37.319  28.930  10.748
 7430W        W75648  32.180  21.110   4.380
 7431W        W75649  16.660  29.911   1.042
 7432W        W75650  37.242  12.741  10.658
 7433W        W75651   6.976  36.729  13.087
 7434W        W75652   4.001  11.395   3.232
 7435W        W75653  15.122  28.155   0.321
 7436W        W75654  37.925  39.083   2.674
 7437W        W75655  26.509  33.281   0.917
 7438W        W75656  16.436  42.312  13.474
 7439W        W75657   4.679  18.387  14.892
 7440W        W75658  14.621   0.486   2.612
 7441W        W75659  39.282  28.954   1.994
 7442W        W75660  16.112  34.816  12.523
 7443W        W75661   9.385  20.834  11.218
 7444W        W75662   3.715  14.615  12.633
 7445W        W75663   3.176  36.797   3.202
 7446W        W75664  20.378  42.916   1.733
 7447W        W75665  25.529  20.154   0.099
 7448W        W75666  35.601  19.333  10.672
 7449W        W75667  42.891   2.812   0.517
 7450W        W75668  27.577  39.661  14.039
 7451W        W75669  44.810   4.056  12.886
 7452W        W75670   3.176  43.803  11.161
 7453W        W75671  27.517   8.744   1.219
 7454W        W75672  26.689  37.585   3.700
 7455W        W75673  42.294  32.891   3.558
 7456W        W75674  29.628  37.428   4.865
 7457W        W75675  37.057   1.255   0.339
 7458W        W75676   3.432  25.973  14.915
 7459W        W75677   0.969  10.330  11.103
 7460W        W75678  25.614  12.326  11.566
 7461W        W75679  40.433  38.023   2.297
 7462W        W75680  24.000  18.132  11.595
 7463W        W75681  13.095  37.347   4.881
 7464W        W75682  30.688  20.526  10.657
 7465W        W75683  15.179   4.661  14.913
 7466W        W75684  14.949  26.229   3.791
 7467W        W75685  17.527  32.978  12.125
 7468W        W75686  34.384   2.808  14.286
 7469W        W75687  34.245  15.642   1.163
 7470W        W75688  34.938   6.648   3.737
 7471W        W75689  22.385  12.782   3.373
 7472W        W75690  11.309  33.815   4.003
 7473W        W75691  26.397  42.821  13.300
 7474W        W75692  21.061  32.326  13.851
 7475W        W75693  43.776   1.335   2.714
 7476W        W75694  31.564  37.398   1.360
 7477W        W75695  33.884  42.936  14.467
 7478W        W75696  35.864   3.751   2.127
 7479W        W75697  38.120   1.904  12.966
 7480W        W75698  35.931   7.618  11.566
 7481W        W75699   6.828  25.822  11.364
 7482W        W75700  11.810  38.308  13.395
 7483W        W75701  16.461  26.861   3.844
 7484W        W75702  37.631  20.453  14.017
 7485W        W75703  19.142  22.057  13.313
 7486W        W75704  43.092  41.244  11.390
 7487W        W75705  20.670  34.000  13.775
 7488W        W75706  16.810   9.301   3.637
 7489W        W75707  19.651  27.844  12.524
 7490W        W75708  17.483  35.132   3.743
 7491W        W75709  29.549  37.792   3.873
 7492W        W75710  30.274  21.577  11.007
 7493W        W75711  42.333  34.862  12.085
 7494W        W75712  16.318  43.792  12.090
 7495W        W75713  20.257  30.949  14.944
 7496W        W75714  19.536  40.391   2.362
 7497W        W75715   5.758  31.993   1.143
 7498W        W75716  20.545  32.157   4.556
 7499W        W75717   9.729  15.691  10.696
 7500W        W75718  24.043  33.929   0.980
 7501W        W75719   8.201  11.163  12.902
 7502W        W75720  27.591   3.827  13.848
 7503W        W75721  18.891  27.486  14.082
 7504W        W75722   0.012  14.372   2.759
 7505W        W75723  43.465  38.886  14.250
 7506W        W75724  18.182   3.980  10.657
 7507W        W75725  24.502   4.458   4.629
 7508W        W75726  16.202  25.810  14.872
 7509W        W75727  31.584  27.654   0.353
 7510W        W75728  21.504   8.923   3.548
 7511W        W75729   1.415   8.449   4.199
 7512W        W75730  37.467  35.865  12.366
 7513W        W75731   9.082   0.979   3.829
 7514W        W75732  35.087   3.042  11.935
 7515W        W75733   6.912  21.732   0.892
 7516W        W75734  12.116   1.870   2.138
 7517W        W75735  28.645  32.855   0.411
 7518W        W75736  30.079   1.379  12.813
 7519W        W75737  43.540   3.707  11.347
 7520W        W75738   8.645  12.363   0.903
 7521W        W75739  18.745   9.842   2.613
 7522W        W75740   1.001  32.583   0.015
 7523W        W75741   7.357  25.542   1.789
 7524W        W75742   8.579   1.079   3.819
 7525W        W75743  21.532  25.396  13.498
 7526W        W75744  33.049  42.846   3.322
 7527W        W75745  30.977   1.721   0.368
 7528W        W75746  43.682  36.696  12.061
 7529W        W75747  41.262  12.214   4.583
 7530W        W75748  19.070  14.174  12.922
 7531W        W75749  27.406   9.079  10.574
 7532W        W75750   8.203  27.629   0.049
 7533W        W75751  21.298  23.206  13.810
 7534W        W75752  43.767  11.204  14.948
 7535W        W75753  38.403  11.711  12.073
 7536W        W75754   4.788  22.571  12.173
 7537W        W75755  22.967  34.377   0.905
 7538W        W75756  30.086  41.361   4.086
 7539W        W75757   4.478   4.524  12.438
 7540W        W75758  27.523  40.109   3.859
 7541W        W75759  30.992   7.603  12.975
 7542W        W75760  20.581  16.333   9.874
 7543W        W75761   7.284   5.896   1.969
 7544W        W75762  15.305  33.031   1.990
 7545W        W75763  34.911  28.164   1.796
 7546W        W75764  30.586  25.036  11.677
 7547W        W75765  20.368  32.524   4.198
 7548W        W75766  43.510   8.945  11.152
 7549W        W75767  28.035  30.122  12.502
 7550W        W75768  38.821  16.610   1.921
 7551W        W75769  38.373  22.758  11.349
 7552W        W75770   0.527  10.579  11.284
 7553W        W75771   7.775  38.503   3.782
 7554W        W75772  35.082  14.296  13.385
 7555W        W75773  35.171   7.193  11.573
 7556W        W75774  36.087  35.595  14.914
 7557W        W75775  33.594  16.492   1.202
 7558W        W75776  20.505  23.575   2.372
 7559W        W75777   0.870   0.583   0.057
 7560W        W75778   2.529  24.080  13.560
 7561W        W75779  19.725  28.007  10.593
 7562W        W75780   6.044  13.623   0.170
 7563W        W75781   5.250  35.606   2.780
 7564W        W75782  29.860  17.757  13.414
 7565W        W75783  22.640  36.626   1.288
 7566W        W75784   4.760  23.056  13.953
 7567W        W75785  42.872   2.142   0.048
 7568W        W75786   7.725  10.309  14.065
 7569W        W75787  44.742   3.148   2.397
 7570W        W75788   3.690  28.693   3.782
 7571W        W75789  40.466   9.143   2.867
 7572W        W75790  19.704  25.804  11.194
 7573W        W75791  18.523  30.948   0.295
 7574W        W75792  44.443  24.521  11.513
 7575W        W75793   4.484  31.498  13.069
 7576W        W75794  31.541   6.924  13.875
 7577W        W75795  18.264  11.707  14.256
 7578W        W75796  16.553  24.990  11.601
 7579W        W75797   8.766  20.616   4.676
 7580W        W75798  27.951  30.973   0.507
 7581W        W75799  38.382   5.276  13.821
 7582W        W75800  16.665   4.772  14.200
 7583W        W75801  20.209  24.807  13.085
 7584W        W75802  42.463   0.506  11.516
 7585W        W75803   7.282  44.589   2.760
 7586W        W75804  20.847   3.466   3.217
 7587W        W75805  18.079  19.608   2.935
 7588W        W75806  36.954  13.662  14.485
 7589W        W75807  24.506  13.296  13.643
 7590W        W75808  34.343   7.438  12.293
 7591W        W75809  11.104  37.847  14.866
 7592W        W75810  14.206  39.005  10.904
 7593W        W75811  10.446  11.585   0.912
 7594W        W75812   2.310  31.086  14.443
 7595W        W75813  37.801   9.623  12.325
 7596W        W75814  10.552  36.609  14.347
 7597W        W75815   2.835  30.375   0.882
 7598W        W75816  20.051  19.820   2.193
 7599W        W75817  21.646  26.495  13.773
 7600W        W75818  36.123  24.942  14.823
 7601W        W75819  11.684  13.128  11.015
 7602W        W75820  44.041  15.890   4.217
 7603W        W75821   9.071  20.152  11.083
 7604W        W75822  20.769  25.401  12.920
 7605W        W75823  18.061  15.823  10.181
 7606W        W75824   0.040  23.628  12.644
 7607W        W75825  43.039  21.014  13.871
 7608W        W75826   1.891  26.100  11.870
 7609W        W75827  22.604  20.623  10.629
 7610W        W75828  41.512   6.738  13.362
 7611W        W75829   9.650  42.902  13.601
 7612W        W75830  42.752   3.371  12.554
 7613W        W75831  34.063  43.297  11.257
 7614W        W75832  31.603  13.349  11.880
 7615W        W75833  40.017   8.024   0.248
 7616W        W75834  29.572  16.717   4.004
 7617W        W75835  17.247   1.247   0.352
 7618W        W75836  24.605   9.634   2.331
 7619W        W75837   3.562  31.684   3.173
 7620W        W75838  12.909  18.097  12.038
 7621W        W75839  30.892  17.256   4.325
 7622W        W75840   9.074  25.929  11.458
 7623W        W75841  35.862   5.526   2.912
 7624W        W75842  35.640  29.445   2.340
 7625W        W75843  26.132  22.062  10.714
 7626W        W75844   7.352  16.760   0.397
 7627W        W75845  26.902  40.893  11.188
 7628W        W75846  21.494  20.965  11.022
 7629W        W75847  11.874  10.391  11.876
 7630W        W75848   4.339   4.912   4.517
 7631W        W75849  10.656  12.136  12.901
 7632W        W75850  36.917   7.428   2.229
 7633W        W75851   1.727  26.023   3.259
 7634W        W75852  14.605  33.484   1.729
 7635W        W75853  17.132  29.043   3.711
 7636W        W75854  29.655   7.175   3.234
 7637W        W75855  21.252  20.154  13.839
 7638W        W75856  14.797  18.272   0.103
 7639W        W75857  40.006   0.365   4.983
 7640W        W75858   1.319  15.787  12.844
 7641W        W75859  21.338  31.110  13.481
 7642W        W75860  16.263  26.728  10.623
 7643W        W75861  44.551   9.353   4.598
 7644W        W75862  18.879  39.312  12.917
 7645W        W75863  20.302  13.350  10.089
 7646W        W75864   1.366  18.100   2.714
 7647W        W75865  18.278   0.003   3.874
 7648W        W75866  19.996  44.606   4.183
 7649W        W75867  38.400  24.071  11.859
 7650W        W75868  39.839   6.939   1.060
 7651W        W75869  36.268  35.502   4.655
 7652W        W75870  39.569  11.528  13.823
 7653W        W75871  17.773  35.805  12.027
 7654W        W75872  41.325  17.024  10.677
 7655W        W75873  32.562  40.462  13.509
 7656W        W75874  34.517  14.162  12.126
 7657W        W75875  38.481  35.512  12.989
 7658W        W75876  17.180  26.783   1.418
 7659W        W75877  20.907  25.456   4.098
 7660W        W75878  36.351   8.686  12.283
 7661W        W75879  15.329  20.057   1.388
 7662W        W75880   4.927  44.958   1.859
 7663W        W75881  36.920  17.689  12.411
 7664W        W75882  12.085  12.714   2.352
 7665W        W75883   3.379  13.367   4.871
 7666W        W75884   4.374  38.134  14.675
 7667W        W75885  14.886  42.353  11.731
 7668W        W75886   8.176  25.503  11.542
 7669W        W75887  28.457  31.862   2.727
 7670W        W75888  31.151  34.457   3.272
 7671W        W75889  11.770  26.442  12.846
 7672W        W75890  37.588  33.196   2.860
 7673W        W75891   1.206  19.090   1.662
 7674W        W75892  31.220  34.855   0.353
 7675W        W75893  29.160  38.514  11.975
 7676W        W75894   3.962  19.186  13.476
 7677W        W75895  38.931  28.895   0.472
 7678W        W75896   9.845  12.173  14.423
 7679W        W75897  23.623  41.725  14.446
 7680W        W75898  42.359   1.291  13.429
 7681W        W75899  23.104  33.164  14.735
 7682W        W75900  15.489  31.279  11.732
 7683W        W75901  32.115  25.407  14.383
 7684W        W75902  26.931   8.075   3.063
 7685W        W75903   8.465  21.501  13.409
 7686W        W75904  22.559  39.092  11.070
 7687W        W75905   0.271  18.879  13.434
 7688W        W75906  34.099  24.773   2.277
 7689W        W75907  12.642   2.894   1.406
 7690W        W75908  24.540  25.488  13.817
 7691W        W75909  21.240   1.401   4.297
 7692W        W75910   0.738   5.431   0.344
 7693W        W75911  31.481   8.866  11.039
 7694W        W75912  22.207  11.826   2.720
 7695W        W75913  21.034  38.508   5.069
 7696W        W75914  34.636  33.121   1.209
 7697W        W75915  37.908   3.637  11.684
 7698W        W75916   1.848  34.853   3.742
 7699W        W75917  32.941  23.885  10.861
 7700W        W75918   7.578   6.434   5.109
 7701W        W75919  29.673   6.885   2.796
 7702W        W75920  11.428   5.194   1.306
 7703W        W75921   1.406   8.248  10.969
 7704W        W75922   7.952  11.065   3.083
 7705W        W75923  32.679   0.667   0.097
 7706W        W75924  43.600  30.568   3.647
 7707W        W75925  23.678  33.417  11.570
 7708W        W75926   9.336   4.448  12.613
 7709W        W75927  19.959  33.028  11.661
 7710W        W75928  35.337  26.588   2.554
 7711W        W75929  37.535  44.071  12.034
 7712W        W75930  12.273   8.468  12.586
 7713W        W75931  11.936  33.973   4.441
 7714W        W75932  18.606  41.413  12.502
 7715W        W75933   3.213   8.824  13.810
 7716W        W75934  22.129   6.384  10.728
 7717W        W75935  42.923  44.204   2.163
 7718W        W75936  22.555   5.236   1.415
 7719W        W75937  20.391   8.718  10.941
 7720W        W75938  37.089  10.228  14.122
 7721W        W75939   7.030  36.918  14.442
 7722W        W75940   3.975   0.403   1.771
 7723W        W75941  21.620  20.099   3.259
 7724W        W75942  28.973  23.201  11.200
 7725W        W75943  13.164  29.202  12.596
 7726W        W75944  26.771  11.206  12.412
 7727W        W75945  16.919  41.740  13.894
 7728W        W75946  28.907   6.009  14.230
 7729W        W75947  18.308   0.667   2.791
 7730W        W75948  16.556   1.217  14.437
 7731W        W75949  24.036  29.851  14.293
 7732W        W75950  44.086  43.087  12.505
 7733W        W75951  38.712   4.473   0.192
 7734W        W75952  18.757   5.003  13.720
 7735W        W75953   5.852   7.693  11.462
 7736W        W75954  16.565   7.428   0.175
 7737W        W75955  10.464   8.791  12.140
 7738W        W75956  28.651  29.185   3.421
 7739W        W75957   8.403  43.774  12.098
 7740W        W75958  26.371  24.174  10.826
 7741W        W75959  34.174  25.740  13.455
 7742W        W75960  37.552  36.954   2.121
 7743W        W75961  18.567  21.649  10.640
 7744W        W75962  13.505  35.085  14.023
 7745W        W75963   6.446  40.041  10.801
 7746W        W75964  21.487  40.448   3.618
 7747W        W75965  35.989  38.283  12.603
 7748W        W75966  18.076   0.111   2.214
 7749W        W75967  18.095  41.697   1.631
 7750W        W75968  39.816   9.909   0.142
 7751W        W75969   6.258  42.884   2.682
 7752W        W75970  31.979  22.586  12.473
 7753W        W75971  23.150  35.158  14.813
 7754W        W75972   1.822  33.210  13.097
 7755W        W75973  15.313  27.170   4.131
 7756W        W75974  27.085  25.978   4.130
 7757W        W75975  23.659  21.222  13.394
 7758W        W75976  41.540  23.036  13.822
 7759W        W75977  30.190   1.207   4.697
 7760W        W75978   2.322  16.301   4.649
 7761W        W75979  38.803  38.496   2.683
 7762W        W75980  41.412  19.451  13.032
 7763W        W75981  37.288  36.330  13.870
 7764W        W75982  36.525  35.044   2.828
 7765W        W75983  31.972  39.024   3.644
 7766W        W75984  29.658  21.263  14.492
 7767W        W75985  12.787  34.051  12.326
 7768W        W75986   8.629  33.099   0.660
 7769W        W75987  21.876  12.304  14.404
 7770W        W75988  15.387  22.894  13.948
 7771W        W75989   4.555  30.439   0.991
 7772W        W75990   2.233   1.901   0.740
 7773W        W75991  25.090  26.602  13.756
 7774W        W75992   4.336  40.807  11.135
 7775W        W75993  24.272  38.078   0.677
 7776W        W75994  40.200  44.283   3.518
 7777W        W75995  41.856   4.404  14.234
 7778W        W75996  37.824  25.515   1.896
 7779W        W75997  12.210  44.057  13.447
 7780W        W75998  20.748   7.949   3.308
 7781W        W75999  16.283  26.862   3.369
 7782W        W76000  13.236  37.012   1.819
 7783W        W76001  19.969  18.266   2.579
 7784W        W76002  23.119   5.354   3.115
 7785W        W76003  25.632  21.694  11.943
 7786W        W76004  10.338   1.385   3.367
 7787W        W76005  44.751  17.856  10.711
 7788W        W76006  17.058   6.632  14.492
 7789W        W76007  28.815   2.287   2.592
 7790W        W76008   5.117  18.550  13.648
 7791W        W76009  42.071  19.615  11.549
 7792W        W76010  43.502  19.839  13.431
 7793W        W76011  29.669  39.687   0.591
 7794W        W76012  19.604  18.362  12.117
 7795W        W76013   4.090  32.301   3.800
 7796W        W76014  30.064  11.337  14.573
 7797W        W76015  42.086  11.051   0.706
 7798W        W76016  41.293  10.879   2.305
 7799W        W76017  30.702  43.023   2.841
 7800W        W76018   1.407   6.152   4.581
 7801W        W76019  33.744  11.082   1.853
 7802W        W76020  12.152  16.439   0.068
 7803W        W76021  22.936  38.610  13.992
 7804W        W76022   7.533  26.220  11.123
 7805W        W76023  39.536  30.143   3.207
 7806W        W76024  12.248   4.164  11.264
 7807W        W76025   7.708  36.102   3.094
 7808W        W76026  43.820  36.750  11.197
 7809W        W76027  41.984   8.651  13.018
 7810W        W76028   2.080  20.103   1.851
 7811W        W76029  11.798  44.369  14.668
 7812W        W76030  24.119  29.444  12.088
 7813W        W76031  27.898  20.184  12.912
 7814W        W76032   8.655  41.392   4.797
 7815W        W76033  20.613  20.996  10.038
 7816W        W76034  35.378  26.060   3.306
 7817W        W76035  13.049   8.737   3.133
 7818W        W76036  13.895  37.155   4.110
 7819W        W76037   8.302  32.394   4.739
 7820W        W76038  31.638  34.670  14.337
 7821W        W76039  23.577  42.891  13.964
 7822W        W76040   4.197  26.224  12.017
 7823W        W76041  28.676   6.471   2.184
 7824W        W76042  25.437   5.639   4.513
 7825W        W76043  14.508  37.522   2.279
 7826W        W76044  12.275   5.692   2.478
 7827W        W76045   3.293  35.483   3.425
 7828W        W76046   3.333  30.284  14.867
 7829W        W76047  31.668  23.472  13.780
 7830W        W76048  12.156  30.730  13.507
 7831W        W76049  33.675  18.725  14.359
 7832W        W76050  19.599  38.603  12.819
 7833W        W76051  13.315  31.406  14.458
 7834W        W76052  31.964  14.125   3.106
 7835W        W76053  24.724   6.219  11.927
 7836W        W76054  20.194   1.756   1.027
 7837W        W76055  31.463  15.271  12.045
 7838W        W76056  17.842  34.402   1.063
 7839W        W76057  14.597  26.498  12.888
 7840W        W76058  38.676  10.345   4.976
 7841W        W76059  14.637  16.124   1.736
 7842W        W76060   3.250  17.059   5.059
 7843W        W76061  41.377  25.743  14.421
 7844W        W76062  37.598  39.085   4.630
 7845W        W76063  16.618  43.761  13.920
 7846W        W76064  41.098   2.624   4.927
 7847W        W76065  18.890  35.196   5.130
 7848W        W76066  23.591  29.591   0.898
 7849W        W76067   7.368  41.055  14.716
 7850W        W76068  26.139  29.172  13.298
 7851W        W76069  24.648   9.226   1.982
 7852W        W76070  26.041  42.675   2.095
 7853W        W76071  40.646  30.609  14.445
 7854W        W76072   7.269  33.227  11.637
 7855W        W76073  36.876  35.373  11.466
 7856W        W76074  14.261  40.211  14.675
 7857W        W76075   5.805  42.769   1.535
 7858W        W76076  38.895  19.048   0.833
 7859W        W76077  36.073  12.207  12.480
 7860W        W76078  24.096  11.782  14.036
 7861W        W76079  38.005  31.918   1.286
 7862W        W76080   5.899  44.002   2.154
 7863W        W76081  33.199  33.840   1.001
 7864W        W76082  25.983  31.993  13.002
 7865W        W76083   1.787   2.623   0.794
 7866W        W76084   1.204  19.153  13.520
 7867W        W76085  32.884  41.515   3.850
 7868W        W76086  11.773  32.604   0.948
 7869W        W76087   0.037  31.898   3.722
 7870W        W76088  10.372  37.532  14.325
 7871W        W76089  38.113   5.848  14.124
 7872W        W76090  26.399  32.021  13.809
 7873W        W76091  40.370  20.280   1.581
 7874W        W76092  40.437  32.970  11.241
 7875W        W76093  35.417  15.091  11.630
 7876W        W76094  23.094  19.695  13.721
 7877W        W76095  25.616  29.824   3.115
 7878W        W76096   1.172  35.553  14.837
 7879W        W76097  21.496  20.268   4.026
 7880W        W76098  21.269   3.168   3.029
 7881W        W76099  14.761   1.837  12.222
 7882W        W76100  29.869  16.328   4.182
 7883W        W76101   9.809  16.149  14.920
 7884W        W76102  32.771  19.700   1.384
 7885W        W76103  40.912   4.214  13.833
 7886W        W76104  18.342  42.988   3.644
 7887W        W76105  41.132  36.438   2.166
 7888W        W76106  31.998  14.533   1.724
 7889W        W76107   9.891  11.689  13.647
 7890W        W76108  20.755  32.939  12.078
 7891W        W76109   6.194   7.191  14.924
 7892W        W76110   1.944   5.661  11.976
 7893W        W76111   1.867   2.920   1.252
 7894W        W76112  31.877  32.211  12.141
 7895W        W76113  12.363  35.975   3.176
 7896W        W76114  44.881  10.398  13.127
 7897W        W76115  13.310   8.502  13.776
 7898W        W76116  26.090   1.640   4.436
 7899W        W76117  18.058  31.538   0.242
 7900W        W76118  35.220  39.223   3.296
 7901W        W76119  19.107   2.432   1.293
 7902W        W76120  15.924  37.264  11.562
 7903W        W76121  31.669  26.611  10.676
 7904W        W76122   6.254  16.590  10.792
 7905W        W76123   5.685  28.040  12.577
 7906W        W76124  14.913  34.159  10.887
 7907W        W76125  29.892  17.834   4.510
 7908W        W76126   6.851  22.393  13.576
 7909W        W76127   5.739   9.910  14.481
 7910W        W76128  42.303  36.187  11.162
 7911W        W76129  40.550   5.827  12.879
 7912W        W76130  41.103  15.816   3.640
 7913W        W76131  11.819  16.773  12.958
 7914W        W76132  34.645  42.477   0.734
 7915W        W76133   4.717  22.093  11.355
 7916W        W76134   5.713  37.963  11.516
 7917W        W76135  19.599  22.568  10.986
 7918W        W76136  42.846  43.479  13.397
 7919W        W76137  12.428  42.820  11.036
 7920W        W76138  28.961   7.501   0.825
 7921W        W76139   5.826   7.813   4.871
 7922W        W76140  15.587  35.935   0.990
 7923W        W76141   7.275  34.562   2.410
 7924W        W76142  37.342  23.908   0.126
 7925W        W76143  29.666   3.517  11.939
 7926W        W76144  26.400   2.695  13.535
 7927W        W76145   3.905   2.306   4.158
 7928W        W76146  44.773  19.686  12.972
 7929W        W76147  33.216   4.647  13.509
 7930W        W76148  15.453  42.110  14.097
 7931W        W76149   3.749  27.980   3.688
 7932W        W76150  34.843   2.906  14.500
 7933W        W76151   9.457  23.720  11.993
 7934W        W76152  29.556  33.043  11.532
 7935W        W76153  25.014   4.211   1.806
 7936W        W76154   3.429  35.005   3.642
 7937W        W76155  15.531  42.758  12.443
 7938W        W76156  12.787  29.213  13.868
 7939W        W76157   5.730  14.037   2.367
 7940W        W76158   6.673  41.813  10.959
 7941W        W76159  21.532   9.619  12.004
 7942W        W76160  21.956  24.918   5.017
 7943W        W76161  38.002   9.361   0.071
 7944W        W76162  32.024  28.054  11.159
 7945W        W76163   9.520  37.164   2.646
 7946W        W76164  14.378  43.972   0.178
 7947W        W76165  28.292  44.006   2.434
 7948W        W76166  34.765   6.635  11.220
 7949W        W76167  27.949  21.754   0.297
 7950W        W76168  36.433  15.047  11.550
 7951W        W76169  15.343  40.920   4.808
 7952W        W76170   4.224  12.088   0.780
 7953W        W76171  42.066  35.955  13.272
 7954W        W76172  38.857  16.583   4.307
 7955W        W76173  30.706  21.178   4.088
 7956W        W76174  31.937   3.406  11.079
 7957W        W76175  23.982  26.066   2.752
 7958W        W76176  20.035  39.952  12.006
 7959W        W76177   0.144   7.132  11.759
 7960W        W76178  10.717   5.415  10.686
 7961W        W76179  23.014   7.848  12.936
 7962W        W76180  27.658  37.043   2.194
 7963W        W76181  38.352  37.203  14.678
 7964W        W76182  21.662   5.146  13.387
 7965W        W76183  30.928  24.726  13.195
 7966W        W76184  10.319   7.925   1.426
 7967W        W76185  32.459  38.482   3.210
 7968W        W76186  38.373   0.289   0.904
 7969W        W76187  37.439  17.833   2.731
 7970W        W76188  13.797   5.980  12.489
 7971W        W76189  33.534  10.487   3.735
 7972W        W76190   8.757  32.051  11.942
 7973W        W76191  36.017  26.024  14.474
 7974W        W76192  40.780  14.349   4.418
 7975W        W76193  13.274  14.529  12.505
 7976W        W76194  16.078  21.669  12.499
 7977W        W76195   1.644  37.540   2.955
 7978W        W76196   1.052   5.742   1.705
 7979W        W76197  22.209  10.408   4.033
 7980W        W76198  38.610   1.354   4.515
 7981W        W76199  34.931  28.391   3.562
 7982W        W76200  29.282  20.969  14.872
 7983W        W76201  30.198   5.990   0.944
 7984W        W76202  24.538   7.605  11.560
 7985W        W76203  22.015  35.815   0.795
 7986W        W76204   3.524  16.524   1.497
 7987W        W76205  21.996   1.009  11.096
 7988W        W76206  24.708  40.269  12.005
 7989W        W76207  13.108   8.831   2.622
 7990W        W76208  28.943  41.933  14.232
 7991W        W76209  37.113  21.659  10.944
 7992W        W76210  38.804  44.076   4.145
 7993W        W76211  17.105  22.420   4.973
 7994W        W76212  44.742  39.499   2.386
 7995W        W76213  38.869  18.026  11.446
 7996W        W76214  10.924   2.386  11.560
 7997W        W76215  18.137  17.600   2.928
 7998W        W76216  36.404   5.175  13.024
 7999W        W76217  30.681  29.302   4.694
 8000W        W76218  25.128  39.745   4.521
 8001W        W76219   8.797  12.847   0.742
 8002W        W76220  11.651  12.632  11.565
 8003W        W76221  31.706  19.204  12.303
 8004W        W76222  41.576  43.248   1.291
 8005W        W76223  25.604  36.563   0.779
 8006W        W76224   9.762  42.124  13.039
 8007W        W76225  29.636  39.984   3.148
 8008W        W76226  35.634  20.722  10.638
 8009W        W76227   8.494  16.141  13.977
 8010W        W76228  34.362  29.409   0.904
 8011W        W76229   0.181  17.599  13.100
 8012W        W76230  26.976  30.481   4.042
 8013W        W76231   6.227  21.813  13.009
 8014W        W76232  41.007  22.098   2.923
 8015W        W76233  16.226   9.325   2.791
 8016W        W76234  11.184  16.764   2.556
 8017W        W76235  37.464   0.806   5.064
 8018W        W76236  34.524  41.940  14.428
 8019W        W76237  27.595  26.181  12.389
 8020W        W76238   0.421   3.684   1.937
 8021W        W76239  19.205  23.707   0.183
 8022W        W76240   3.633  36.821   2.820
 8023W        W76241  26.779  10.255   2.751
 8024W        W76242  17.520   2.309  14.758
 8025W        W76243  22.148   5.745  13.901
 8026W        W76244  42.221  43.053  14.073
 8027W        W76245  27.669  30.087  10.669
 8028W        W76246  21.408  10.274   2.785
 8029W        W76247  26.572   1.574  12.598
 8030W        W76248  29.706  14.053   3.661
 8031W        W76249  29.169  30.980   2.152
 8032W        W76250   2.240  32.261  13.301
 8033W        W76251  41.353   1.737  11.114
 8034W        W76252   2.213   4.442  11.605
 8035W        W76253   1.717  14.322   3.193
 8036W        W76254  41.438  15.608   3.283
 8037W        W76255   0.817   6.821   3.845
 8038W        W76256  27.520  15.840   0.955
 8039W        W76257  12.687  11.366   2.784
 8040W        W76258  36.887  26.082   3.002
 8041W        W76259  15.637   2.088  10.861
 8042W        W76260  24.704  16.541   2.712
 8043W        W76261  10.727   8.939  11.658
 8044W        W76262   0.617  34.048  14.939
 8045W        W76263  31.403  28.950   0.829
 8046W        W76264  16.545  30.492  12.377
 8047W        W76265  18.890  11.377   3.574
 8048W        W76266  23.702  38.019  12.567
 8049W        W76267  31.389  44.882   4.642
 8050W        W76268  16.937  26.590   0.418
 8051W        W76269  13.868  36.373   0.595
 8052W        W76270  29.032  18.747   4.202
 8053W        W76271  30.618  27.951   4.564
 8054W        W76272  22.933   2.069  13.865
 8055W        W76273   6.326  25.527   0.456
 8056W        W76274  37.697  39.652  14.724
 8057W        W76275  23.797  36.852  14.032
 8058W        W76276  32.000   9.745   1.647
 8059W        W76277  34.534   5.309  10.016
 8060W        W76278  10.252  42.543   4.793
 8061W        W76279  23.085   1.350  10.793
 8062W        W76280   9.012  35.138   3.316
 8063W        W76281  44.342  39.958  10.683
 8064W        W76282   4.932  33.676  10.165
 8065W        W76283   9.958  32.567   1.731
 8066W        W76284  16.539  38.478   4.668
 8067W        W76285  39.757  26.272  14.895
 8068W        W76286  34.857  39.033  14.288
 8069W        W76287   2.368  17.544   4.118
 8070W        W76288  17.739  17.668  11.220
 8071W        W76289  19.846  15.695  10.762
 8072W        W76290   1.875  18.217  11.560
 8073W        W76291   1.877  42.985   4.183
 8074W        W76292  38.802  22.150   0.398
 8075W        W76293  17.977  43.928  14.821
 8076W        W76294  26.753  44.413  13.383
 8077W        W76295  44.945  31.033  13.417
 8078W        W76296  17.524   0.267   0.891
 8079W        W76297  28.773  24.153  10.287
 8080W        W76298   0.162   3.426   5.041
 8081W        W76299  42.752   0.890   2.193
 8082W        W76300   0.294  19.987  14.900
 8083W        W76301  21.759  12.238   3.055
 8084W        W76302   6.587   8.665   4.310
 8085W        W76303   4.357   7.327  10.688
 8086W        W76304  34.923  26.124  11.588
 8087W        W76305  12.647  21.022   5.045
 8088W        W76306  34.095  28.833   1.487
 8089W        W76307  27.172   6.317  13.868
 8090W        W76308  44.824   4.139  11.008
 8091W        W76309  41.756  22.982   1.226
 8092W        W76310   8.237  25.252  11.081
 8093W        W76311  17.000  26.918  10.346
 8094W        W76312  43.947  36.245  11.129
 8095W        W76313  28.724  28.926   1.235
 8096W        W76314  44.381  22.699   3.132
 8097W        W76315  22.557  18.496  13.825
 8098W        W76316  28.964  14.697   4.245
 8099W        W76317  10.722   2.735  11.901
 8100W        W76318  19.744  32.434  14.070
 8101W        W76319   8.886  18.713  12.854
 8102W        W76320  25.130  33.841   3.129
 8103W        W76321   5.221  39.850  11.582
 8104W        W76322  16.628  10.754   3.285
 8105W        W76323  40.494   8.756   0.270
 8106W        W76324   9.294   6.868   2.095
 8107W        W76325  10.607  12.499   1.801
 8108W        W76326  10.406  14.674  13.948
 8109W        W76327   2.915   5.884  12.198
 8110W        W76328  43.447  21.762  12.582
 8111W        W76329  37.435  25.804  13.450
 8112W        W76330  10.236   5.683   4.183
 8113W        W76331  30.938  24.520   2.651
 8114W        W76332  30.073   5.644   3.805
 8115W        W76333  35.462  21.165   1.918
 8116W        W76334  16.265   6.779  10.429
 8117W        W76335  44.808  18.773  12.076
 8118W        W76336  35.362  29.051  12.033
 8119W        W76337  36.015  31.608  10.785
 8120W        W76338  11.904  24.686  13.811
 8121W        W76339   1.041  11.159  14.086
 8122W        W76340  25.416  30.098   0.615
 8123W        W76341   9.666   2.737   3.048
 8124W        W76342  33.484   9.100   0.313
 8125W        W76343  12.099  18.681  11.816
 8126W        W76344  40.535  26.286  10.431
 8127W        W76345  30.025  28.559  14.247
 8128W        W76346  26.582   3.455   3.758
 8129W        W76347  32.671  19.624  11.617
 8130W        W76348  14.739  29.058  10.804
 8131W        W76349  28.928  28.457   0.369
 8132W        W76350  37.786   4.274   0.248
 8133W        W76351  40.370   2.458   1.333
 8134W        W76352  40.328  13.693  12.105
 8135W        W76353  10.826  26.339  14.274
 8136W        W76354  36.162  20.106   2.876
 8137W        W76355   0.679  16.343  10.677
 8138W        W76356  25.111  16.651   1.098
 8139W        W76357   1.802  32.944   0.445
 8140W        W76358  22.133   8.130   0.078
 8141W        W76359  17.246  30.767  11.412
 8142W        W76360  31.677  43.181  12.068
 8143W        W76361  43.679  20.690  11.855
 8144W        W76362  25.015   5.250   0.344
 8145W        W76363  26.988   1.768  10.957
 8146W        W76364  28.998  15.844  14.480
 8147W        W76365  16.314   9.212   3.643
 8148W        W76366   6.914   2.532   1.891
 8149W        W76367   2.229  32.616   4.104
 8150W        W76368  12.167  39.574   1.638
 8151W        W76369  42.811  28.626   2.758
 8152W        W76370  27.482  31.439   2.733
 8153W        W76371  36.262  36.451   2.677
 8154W        W76372  25.305  31.399  12.486
 8155W        W76373  10.493   2.206  14.048
 8156W        W76374  40.053  34.509  14.242
 8157W        W76375  40.922  16.408   4.695
 8158W        W76376  39.095  18.811  14.447
 8159W        W76377  34.534  33.507  11.940
 8160W        W76378  19.636   8.136   0.290
 8161W        W76379   3.188   0.791   2.716
 8162W        W76380  23.034   4.030   0.991
 8163W        W76381   5.966  18.470  11.113
 8164W        W76382   1.581  17.208  14.530
 8165W        W76383   4.761  33.524  14.170
 8166W        W76384   8.346  34.564  11.525
 8167W        W76385  34.039   0.308   4.093
 8168W        W76386  23.227  38.543  10.729
 8169W        W76387  32.956  24.229   0.782
 8170W        W76388  10.434   8.372  14.726
 8171W        W76389  33.590  39.761  13.603
 8172W        W76390  38.302  20.231  14.934
 8173W        W76391  17.229  34.914   1.461
 8174W        W76392  38.156  40.787  12.326
 8175W        W76393  37.348  39.915  14.997
 8176W        W76394   4.038  39.252  11.046
 8177W        W76395   4.252  19.083   2.381
 8178W        W76396  12.247  40.600  14.487
 8179W        W76397  35.034  13.560  10.812
 8180W        W76398  23.471  44.263  14.409
 8181W        W76399  26.434  35.107  13.581
 8182W        W76400   5.017  18.789   3.640
 8183W        W76401  11.985  41.960  12.010
 8184W        W76402  21.948  33.576   3.734
 8185W        W76403  19.742  23.845   4.917
 8186W        W76404   4.486  19.221  13.566
 8187W        W76405  29.293   5.796  11.464
 8188W        W76406  38.532  26.057   3.379
 8189W        W76407  29.552  31.403   4.531
 8190W        W76408  40.380  21.759  14.884
 8191W        W76409  30.883  14.565  13.049
 8192W        W76410  11.584  27.502   2.808
 8193W        W76411  20.510  26.074   2.270
 8194W        W76412  27.032  37.130  14.924
 8195W        W76413  42.864  23.545  13.914
 8196W        W76414  16.855  41.377  10.806
 8197W        W76415  43.418  30.623  12.116
 8198W        W76416   2.172   5.909   2.876
 8199W        W76417  10.207  41.389  12.857
 8200W        W76418  31.431  14.764   2.473
 8201W        W76419   1.887  12.204   2.540
 8202W        W76420  27.185  19.787   2.683
 8203W        W76421   0.435   5.425   1.217
 8204W        W76422  27.502   8.709   3.239
 8205W        W76423  24.527   0.034   0.724
 8206W        W76424   5.385   7.658   1.258
 8207W        W76425   2.213  32.099  11.662
 8208W        W76426  14.862  22.092   1.384
 8209W        W76427  30.197   1.395  13.330
 8210W        W76428  12.660  17.479   4.669
 8211W        W76429   2.199  11.684   3.217
 8212W        W76430   8.981   5.810  13.028
 8213W        W76431  30.603  15.027   0.537
 8214W        W76432  15.424  20.624   4.533
 8215W        W76433  25.708  17.529  11.186
 8216W        W76434  20.919  42.434   1.616
 8217W        W76435  39.898  24.470  14.525
 8218W        W76436  32.683  32.140  12.470
 8219W        W76437  17.668  36.566  11.609
 8220W        W76438  12.670   6.826   4.208
 8221W        W76439  10.210  27.017   1.731
 8222W        W76440  22.267  28.211  13.501
 8223W        W76441  37.364  42.011   4.297
 8224W        W76442  32.988  10.237   2.298
 8225W        W76443  26.509   9.256   3.700
 8226W        W76444  15.167  25.068  14.311
 8227W        W76445  22.791  29.276   2.019
 8228W        W76446   7.414  17.253   3.174
 8229W        W76447  31.395  10.001   4.665
 8230W        W76448   6.404  18.031   3.615
 8231W        W76449  40.061  18.224   0.260
 8232W        W76450  32.979   7.422  13.006
 8233W        W76451   9.598   9.967  14.484
 8234W        W76452  14.748  29.888  14.761
 8235W        W76453  32.597  31.354   3.240
 8236W        W76454  38.104  25.279   3.157
 8237W        W76455  23.798  24.605   3.766
 8238W        W76456  29.443  37.919   1.342
 8239W        W76457  37.506  29.668   1.372
 8240W        W76458  14.446   3.760   0.801
 8241W        W76459  24.072  36.338   3.260
 8242W        W76460   4.477  32.526  14.566
 8243W        W76461  23.309  10.672   0.371
 8244W        W76462  13.137  12.674  12.927
 8245W        W76463  32.493  23.441   1.467
 8246W        W76464   5.805  25.032   4.061
 8247W        W76465   6.479  19.469   2.796
 8248W        W76466  40.643  35.786   3.343
 8249W        W76467   4.655  13.042   1.463
 8250W        W76468  23.435  12.324   0.351
 8251W        W76469  30.657  32.018   0.914
 8252W        W76470  40.688  22.507   0.055
 8253W        W76471   6.354  30.888   1.330
 8254W        W76472   3.964  35.628   1.283
 8255W        W76473  19.135   1.822   1.647
 8256W        W76474  16.714   0.994   5.198
 8257W        W76475   1.745  24.467   3.066
 8258W        W76476  44.508  32.882   1.867
 8259W        W76477   9.201  34.639  12.010
 8260W        W76478  39.454  24.859   3.786
 8261W        W76479   3.968   2.865  11.152
 8262W        W76480  40.902  35.835   0.914
 8263W        W76481  22.700  13.754  13.843
 8264W        W76482  22.349  30.641   3.681
 8265W        W76483  19.266   0.891  12.505
 8266W        W76484  23.784  41.474   4.275
 8267W        W76485  13.035  36.343  12.090
 8268W        W76486  22.712   1.955   4.143
 8269W        W76487   2.368  26.539   3.730
 8270W        W76488  19.821  35.623  10.787
 8271W        W76489   9.163  40.029  13.920
 8272W        W76490  28.745  18.088  10.681
 8273W        W76491  23.551  43.652   0.333
 8274W        W76492  11.686   8.613   3.779
 8275W        W76493  44.370  25.674   1.353
 8276W        W76494  11.878   7.120   3.652
 8277W        W76495  32.288  18.423  11.263
 8278W        W76496  31.404   0.494   0.502
 8279W        W76497  32.823  24.736   1.945
 8280W        W76498  39.898  25.296  14.955
 8281W        W76499   7.173  11.103  13.113
 8282W        W76500  22.757  24.213  14.240
 8283W        W76501  39.558  25.710  14.885
 8284W        W76502  44.421  35.873   4.482
 8285W        W76503   0.047  34.877  12.428
 8286W        W76504  18.061  40.858   0.455
 8287W        W76505  33.253  17.575   0.835
 8288W        W76506  20.499   6.069  12.031
 8289W        W76507  36.551  13.301  14.717
 8290W        W76508  30.020  18.362   3.150
 8291W        W76509  24.160  43.260  13.009
 8292W        W76510  33.017  35.768  10.684
 8293W        W76511  39.461  23.879   3.185
 8294W        W76512   1.762  39.987  13.964
 8295W        W76513  31.111   7.376  11.619
 8296W        W76514  22.197  38.142  11.680
 8297W        W76515  38.351  18.646   2.833
 8298W        W76516  22.137   2.561  14.584
 8299W        W76517   7.803  27.926   2.660
 8300W        W76518   0.423   4.247   0.614
 8301W        W76519  14.268  27.953   2.389
 8302W        W76520  41.358  19.192  12.201
 8303W        W76521  43.724   9.261   4.213
 8304W        W76522   2.102  14.674  11.298
 8305W        W76523   3.907  39.541   2.993
 8306W        W76524  16.327  38.328  12.218
 8307W        W76525   8.194  36.938  12.912
 8308W        W76526  24.540  24.947  14.791
 8309W        W76527  10.730  26.473   0.806
 8310W        W76528  34.441   1.507  11.321
 8311W        W76529  16.096  35.333  11.648
 8312W        W76530  26.065  44.575  12.006
 8313W        W76531  37.524  42.061   3.101
 8314W        W76532  30.422  35.050  11.138
 8315W        W76533   9.426  28.035   3.023
 8316W        W76534  23.511  20.474  13.917
 8317W        W76535   2.473  28.589  11.171
 8318W        W76536  17.211  27.021  10.890
 8319W        W76537  27.206  26.648   4.593
 8320W        W76538  40.269  18.631   0.516
 8321W        W76539  40.408  31.079  14.301
 8322W        W76540  42.355  33.876  11.627
 8323W        W76541  24.065  20.495  11.478
 8324W        W76542  14.756  19.039  12.307
 8325W        W76543  32.912  12.775   4.081
 8326W        W76544  44.966  11.484   0.167
 8327W        W76545  18.522  20.356  10.886
 8328W        W76546  41.971  22.460   4.807
 8329W        W76547   4.518  39.385  11.157
 8330W        W76548  30.725  32.897   1.223
 8331W        W76549   8.522  27.485  13.896
 8332W        W76550  38.127  29.171  14.377
 8333W        W76551  29.081  35.818   4.615
 8334W        W76552  15.129  25.852  11.338
 8335W        W76553  31.452   6.356   2.797
 8336W        W76554  42.239  36.706   2.931
 8337W        W76555   6.123  25.066  10.755
 8338W        W76556  37.536  31.674  11.937
 8339W        W76557  27.953  23.591  11.414
 8340W        W76558  33.076  22.638   3.737
 8341W        W76559   1.633   2.576  14.241
 8342W        W76560  28.024   5.315  11.790
 8343W        W76561  38.788  24.623   1.862
 8344W        W76562  43.357  11.674  10.476
 8345W        W76563  36.648   8.827   3.398
 8346W        W76564  21.238  37.144  10.331
 8347W        W76565  43.885  19.060   1.325
 8348W        W76566  18.125  23.394   3.739
 8349W        W76567  10.717   6.324  14.355
 8350W        W76568  32.128  39.820   2.340
 8351W        W76569   1.952  36.573   4.654
 8352W        W76570  42.211  19.185  10.693
 8353W        W76571  34.652   2.312   2.391
 8354W        W76572  26.167  17.285  10.271
 8355W        W76573  11.457  34.060  13.797
 8356W        W76574  15.782   4.703  14.483
 8357W        W76575   6.642  42.346  12.570
 8358W        W76576  18.088  20.300  11.609
 8359W        W76577  35.647   1.191  10.498
 8360W        W76578  24.472  13.193  13.094
 8361W        W76579  27.556  22.961  11.533
 8362W        W76580  43.126   7.355  11.936
 8363W        W76581  23.615  26.198  13.042
 8364W        W76582   9.633  20.772  13.409
 8365W        W76583  39.029  18.868   1.324
 8366W        W76584  32.898  18.279  14.386
 8367W        W76585   4.889  10.135  14.618
 8368W        W76586  24.462  37.815   3.761
 8369W        W76587  44.958  28.673  12.037
 8370W        W76588  40.383  11.724   0.480
 8371W        W76589  35.045   3.798   0.820
 8372W        W76590  26.742  24.259   4.586
 8373W        W76591  19.966  16.305   5.145
 8374W        W76592   9.700   5.737   0.808
 8375W        W76593  38.421  15.361  12.125
 8376W        W76594  17.696  37.879  14.835
 8377W        W76595  43.304  33.358   3.677
 8378W        W76596   8.862  13.022  12.963
 8379W        W76597  25.100  19.869  13.574
 8380W        W76598  25.152  21.272  14.818
 8381W        W76599  39.921   2.752   1.359
 8382W        W76600  21.545  42.130  13.197
 8383W        W76601  26.439  28.586  10.689
 8384W        W76602  15.812  33.628   0.457
 8385W        W76603  20.606  44.459   1.320
 8386W        W76604  12.070  17.047   4.975
 8387W        W76605  21.769   8.548  12.011
 8388W        W76606  10.280  29.235  13.995
 8389W        W76607  30.568  29.769   4.547
 8390W        W76608   1.513   0.314  13.983
 8391W        W76609   1.989  41.367   2.561
 8392W        W76610  33.083  34.032  11.643
 8393W        W76611  34.031  13.824  10.631
 8394W        W76612  12.391  11.672   4.052
 8395W        W76613  34.639  17.810  14.515
 8396W        W76614  19.032  12.282   4.011
 8397W        W76615   5.525   4.810  12.357
 8398W        W76616  27.488  37.968   0.712
 8399W        W76617  33.851  44.478   1.392
 8400W        W76618  11.761  17.517   2.147
 8401W        W76619  19.699   5.390   2.350
 8402W        W76620  18.332  38.661  14.588
 8403W        W76621   3.257  41.277   4.126
 8404W        W76622   1.300  39.405   4.562
 8405W        W76623  43.160   9.546  12.487
 8406W        W76624  44.663   2.907  12.000
 8407W        W76625  24.517   5.641   2.868
 8408W        W76626  14.604  10.857   2.250
 8409W        W76627  34.060  26.181   2.328
 8410W        W76628  14.383  19.018  14.469
 8411W        W76629   6.829  10.286   0.967
 8412W        W76630  38.449  17.596  14.093
 8413W        W76631  24.620   5.129  10.470
 8414W        W76632  13.262  36.488   4.340
 8415W        W76633  29.033  37.316  13.861
 8416W        W76634   9.791  19.197  10.704
 8417W        W76635  18.057   4.271   3.751
 8418W        W76636  33.623  43.706   4.139
 8419W        W76637  42.354  40.934   4.735
 8420W        W76638  12.843  33.056   2.220
 8421W        W76639  15.211  41.751  11.666
 8422W        W76640   5.845  21.834   3.632
 8423W        W76641   7.409  40.892  12.383
 8424W        W76642  26.596  30.697  10.721
 8425W        W76643  42.042  39.068   0.856
 8426W        W76644  30.493   4.113   1.443
 8427W        W76645   5.899  20.544   1.822
 8428W        W76646  38.579  44.348  11.573
 8429W        W76647  21.785  17.702  14.887
 8430W        W76648  23.592  13.822   1.463
 8431W        W76649  36.471  23.450   2.867
 8432W        W76650   9.320  17.077   0.002
 8433W        W76651  32.013  25.892  13.467
 8434W        W76652  37.994  43.532  13.977
 8435W        W76653  34.458  36.066  13.400
 8436W        W76654  24.649  38.540  14.746
 8437W        W76655   9.583  17.455   2.865
 8438W        W76656  37.825   0.761   3.787
 8439W        W76657  11.234  26.854   0.274
 8440W        W76658   5.271   5.172  14.516
 8441W        W76659  30.085  11.177  11.246
 8442W        W76660  37.462  11.606  13.966
 8443W        W76661   6.226  36.978  12.634
 8444W        W76662   8.940  28.226  11.471
 8445W        W76663   1.825  13.358   0.825
 8446W        W76664  27.766  22.593  13.495
 8447W        W76665  11.240  30.092  13.387
 8448W        W76666  22.442  17.248   2.764
 8449W        W76667  18.200  14.425   2.198
 8450W        W76668  14.401  36.562   4.995
 8451W        W76669  40.359  20.034   4.094
 8452W        W76670  34.266  21.589   1.317
 8453W        W76671  32.729   5.944   0.322
 8454W        W76672  37.773  41.513   1.248
 8455W        W76673  15.116   1.180   2.173
 8456W        W76674  11.631   8.518  11.414
 8457W        W76675   6.245  17.536  11.967
 8458W        W76676  39.412  22.668  14.828
 8459W        W76677   0.287  40.800  11.648
 8460W        W76678  41.446  13.848   1.941
 8461W        W76679   6.248  10.889  12.715
 8462W        W76680   7.772   2.820  14.332
 8463W        W76681  41.366  44.069  13.382
 8464W        W76682   6.808  43.935  11.443
 8465W        W76683  21.615   2.748   0.752
 8466W        W76684  14.105  28.963   3.706
 8467W        W76685  24.229   6.960   0.236
 8468W        W76686  23.494  19.032   3.592
 8469W        W76687  27.089  28.858  10.646
 8470W        W76688  12.522  13.010   4.833
 8471W        W76689  13.391  20.749  10.608
 8472W        W76690  36.548  44.223  10.406
 8473W        W76691  41.872  17.211   2.839
 8474W        W76692  27.382   6.896  10.501
 8475W        W76693  28.905  44.383   1.803
 8476W        W76694  36.839  20.607   0.634
 8477W        W76695  20.570  29.159  11.541
 8478W        W76696  30.375  10.050   0.897
 8479W        W76697  32.551  22.544   3.885
 8480W        W76698   0.304  29.415   3.128
 8481W        W76699  40.169  17.135  12.381
 8482W        W76700   9.918  31.236   1.859
 8483W        W76701  23.291  42.889   5.038
 8484W        W76702  27.921  27.454   3.364
 8485W        W76703  15.230  17.685  13.958
 8486W        W76704  38.462  42.855  10.665
 8487W        W76705  15.520   2.774  11.635
 8488W        W76706  14.770  32.610  10.706
 8489W        W76707  29.796   6.885   0.179
 8490W        W76708  16.345  33.103   0.437
 8491W        W76709   1.943   6.952   3.617
 8492W        W76710  40.109  19.712  14.489
 8493W        W76711  28.924  34.253  14.284
 8494W        W76712   1.373  43.739  11.214
 8495W        W76713  36.228   8.192  12.359
 8496W        W76714  42.989   9.626   3.825
 8497W        W76715   2.852   9.135  10.759
 8498W        W76716  20.074   3.482  13.321
 8499W        W76717   8.781   7.202   1.280
 8500W        W76718  21.122  34.328  11.211
 8501W        W76719  32.706  21.857  14.046
 8502W        W76720   3.160  11.827  13.967
 8503W        W76721   8.907  23.116   0.389
 8504W        W76722  25.658   0.123   3.122
 8505W        W76723   6.625  25.598   0.899
 8506W        W76724   3.995  23.066   0.730
 8507W        W76725  12.900  27.255   4.258
 8508W        W76726  15.396  35.109  10.937
 8509W        W76727  17.944   8.209   0.942
 8510W        W76728  40.381  21.996   0.424
 8511W        W76729  11.150   6.278   0.434
 8512W        W76730  30.123  37.201   1.301
 8513W        W76731   0.302   3.901   4.285
 8514W        W76732   0.182  26.690   0.836
 8515W        W76733  13.540  41.362  13.535
 8516W        W76734  39.545   2.907  12.086
 8517W        W76735  23.966  32.069  13.816
 8518W        W76736  11.722  44.524  10.516
 8519W        W76737  27.995  18.061  13.529
 8520W        W76738  36.775  11.276   3.844
 8521W        W76739   5.170  43.569  13.850
 8522W        W76740  38.184  25.887   4.807
 8523W        W76741  25.149  20.255   0.843
 8524W        W76742  30.587  20.195  12.088
 8525W        W76743   5.668  17.758  10.601
 8526W        W76744  33.569  16.098   4.162
 8527W        W76745  23.465  34.986   9.722
 8528W        W76746  12.563   9.580  14.987
 8529W        W76747  24.220   7.752   0.793
 8530W        W76748  27.609  24.472  13.974
 8531W        W76749   0.255  30.234   4.102
 8532W        W76750  32.275  20.929  12.598
 8533W        W76751   6.339  36.442   3.483
 8534W        W76752  10.897  37.111   2.807
 8535W        W76753   0.044  31.711   1.321
 8536W        W76754   4.260  40.242  13.981
 8537W        W76755   3.974   1.287  11.581
 8538W        W76756  36.375  15.873   0.469
 8539W        W76757  37.646  24.134   2.454
 8540W        W76758  44.938  19.546  14.111
 8541W        W76759  11.588  11.180  14.517
 8542W        W76760  35.964   4.167   1.815
 8543W        W76761  19.945  28.584  13.841
 8544W        W76762  41.742  25.236  13.047
 8545W        W76763  23.656  39.490   3.649
 8546W        W76764   6.689  19.830  11.930
 8547W        W76765  20.568  43.572   2.362
 8548W        W76766  22.187  27.657   1.943
 8549W        W76767  13.848  36.029  14.412
 8550W        W76768  14.699  31.273  11.996
 8551W        W76769   7.864  22.741   4.132
 8552W        W76770  42.087   5.336   1.257
 8553W        W76771   4.717  28.199  11.771
 8554W        W76772  23.580  21.205  12.852
 8555W        W76773  43.786  10.641   2.161
 8556W        W76774  39.475   9.959   3.598
 8557W        W76775   3.768  42.742   1.835
 8558W        W76776  43.734  34.557   4.951
 8559W        W76777  23.530  42.314   2.281
 8560W        W76778  16.559  30.524  13.711
 8561W        W76779   7.790   6.216   1.317
 8562W        W76780   0.233  12.720   1.173
 8563W        W76781  34.006  14.039  14.306
 8564W        W76782  42.960  15.814  13.337
 8565W        W76783  42.947  27.643  12.927
 8566W        W76784  22.027   4.429   2.214
 8567W        W76785  31.013  23.982  14.833
 8568W        W76786  15.202  27.438   1.668
 8569W        W76787   5.137  43.420  11.560
 8570W        W76788  20.754  33.669   3.041
 8571W        W76789  37.969   4.729  14.340
 8572W        W76790  36.944  20.059  12.519
 8573W        W76791  16.184   0.010  10.818
 8574W        W76792  16.433  11.114  10.659
 8575W        W76793  37.900  22.542  11.984
 8576W        W76794  28.251  17.063  11.273
 8577W        W76795  12.124  30.408   3.338
 8578W        W76796   2.681  26.384   1.153
 8579W        W76797  37.701  37.629  13.762
 8580W        W76798  37.077   3.345   1.192
 8581W        W76799  37.965  43.601  11.572
 8582W        W76800  10.829  16.264  10.449
 8583W        W76801  32.385   2.766   2.641
 8584W        W76802   1.492  37.373  13.410
 8585W        W76803  34.238  13.690  11.102
 8586W        W76804  37.924  26.900  10.883
 8587W        W76805  25.037  19.598   3.199
 8588W        W76806  28.525  10.256  11.920
 8589W        W76807  22.686  43.823   0.195
 8590W        W76808  44.786   1.401   0.278
 8591W        W76809   4.909   3.291  10.267
 8592W        W76810  39.777  36.072   4.377
 8593W        W76811  37.591  28.629   4.293
 8594W        W76812  12.730  21.284  14.565
 8595W        W76813  31.904  16.334   1.846
 8596W        W76814  16.586   2.652  14.542
 8597W        W76815  11.241  23.022   0.973
 8598W        W76816  24.212   1.863  10.588
 8599W        W76817  34.810  13.280   1.754
 8600W        W76818  24.864  34.193  13.584
 8601W        W76819  33.622   2.879  13.181
 8602W        W76820   1.374  30.172   3.304
 8603W        W76821  30.645   3.110  11.077
 8604W        W76822  32.346  32.182   2.852
 8605W        W76823  40.991  12.603  10.796
 8606W        W76824  14.782  40.845  14.610
 8607W        W76825  21.777  37.859   5.552
 8608W        W76826  20.522   9.333   2.212
 8609W        W76827  18.077  38.255   2.321
 8610W        W76828  30.697  29.123   2.258
 8611W        W76829  43.315  25.041   2.218
 8612W        W76830  39.995  25.542  10.372
 8613W        W76831  36.796  22.675  14.856
 8614W        W76832  32.672  35.367  12.346
 8615W        W76833  15.218   5.974  11.052
 8616W        W76834  37.342  43.867   3.876
 8617W        W76835  13.418  16.696   3.082
 8618W        W76836   0.599   2.049   0.947
 8619W        W76837  35.885   0.838  10.218
 8620W        W76838  20.280  12.683   1.778
 8621W        W76839  40.445  39.033   2.265
 8622W        W76840  37.813  30.135  12.604
 8623W        W76841  28.045  42.889   4.606
 8624W        W76842  44.932  28.729  12.980
 8625W        W76843   9.568  26.279  12.157
 8626W        W76844  34.052  42.939   2.960
 8627W        W76845   2.203  22.586  13.487
 8628W        W76846  31.905  37.919  14.869
 8629W        W76847  43.109  17.573  14.453
 8630W        W76848  42.425  23.599   1.200
 8631W        W76849  20.017  16.957  11.381
 8632W        W76850  16.363  24.432   0.193
 8633W        W76851  24.913  24.331   3.648
 8634W        W76852  28.029   4.894  12.393
 8635W        W76853   7.080  39.074   3.392
 8636W        W76854  42.579  18.707  12.356
 8637W        W76855   3.307  12.100   0.741
 8638W        W76856  44.366  28.509   4.703
 8639W        W76857  12.862  11.545  14.714
 8640W        W76858  13.038  16.626  10.449
 8641W        W76859   4.127  18.618   0.955
 8642W        W76860  35.833  39.283  11.515
 8643W        W76861  11.777  15.334  13.208
 8644W        W76862  17.517   4.288  13.865
 8645W        W76863  18.305  21.919  14.504
 8646W        W76864  24.600  37.384   1.167
 8647W        W76865  24.097  12.135   3.845
 8648W        W76866   0.740   5.243   3.443
 8649W        W76867  39.430  42.488  11.434
 8650W        W76868  41.427  44.570  13.553
 8651W        W76869  24.712  25.000  12.451
 8652W        W76870  18.548  37.615  13.523
 8653W        W76871  34.690  15.372  10.988
 8654W        W76872  19.296   5.745   1.252
 8655W        W76873   7.151  13.389   2.694
 8656W        W76874  17.132  32.756   2.673
 8657W        W76875  10.848  28.604  11.579
 8658W        W76876  24.512  37.265  12.922
 8659W        W76877  10.796  35.450  10.517
 8660W        W76878  30.083  16.130  14.316
 8661W        W76879  35.365  23.094  14.613
 8662W        W76880  38.505   0.262   3.539
 8663W        W76881  19.124  30.268  12.011
 8664W        W76882   6.643  13.043   0.734
 8665W        W76883   2.922  41.562   2.736
 8666W        W76884   0.524  34.639  13.456
 8667W        W76885  17.603  32.941  14.976
 8668W        W76886   6.956  13.158  14.276
 8669W        W76887   4.406   9.830  11.236
 8670W        W76888  31.580  32.032   4.022
 8671W        W76889  33.206  36.162   1.408
 8672W        W76890  33.726  24.170  14.392
 8673W        W76891   2.982  17.424   3.119
 8674W        W76892  16.847  26.061  11.879
 8675W        W76893  13.174   6.377  14.388
 8676W        W76894  41.270  37.836  14.520
 8677W        W76895  14.269  25.063   0.046
 8678W        W76896  33.449  12.755  10.211
 8679W        W76897  16.356  10.610  10.434
 8680W        W76898  13.574  32.372   0.752
 8681W        W76899   6.734  20.533   1.173
 8682W        W76900  41.385   1.166   3.587
 8683W        W76901   4.767  31.146  14.444
 8684W        W76902  32.436  32.963  12.856
 8685W        W76903  18.609  44.119  12.394
 8686W        W76904   4.028   7.237   4.123
 8687W        W76905  21.528  28.725   0.838
 8688W        W76906  37.953  10.858   0.652
 8689W        W76907  20.971  25.887  11.033
 8690W        W76908  30.691  15.104  13.873
 8691W        W76909   2.206  11.283  11.117
 8692W        W76910  43.959  18.747  11.944
 8693W        W76911  21.774  16.005  13.441
 8694W        W76912  30.054  15.186   1.760
 8695W        W76913   9.845   2.447  13.562
 8696W        W76914  39.387   1.197  14.781
 8697W        W76915  44.418   3.270  12.604
 8698W        W76916  13.829  20.746   4.582
 8699W        W76917  36.421  17.752  10.736
 8700W        W76918  41.017  13.009  12.129
 8701W        W76919  27.075  20.614   0.245
 8702W        W76920  20.695  19.802  12.252
 8703W        W76921   5.805  42.326   0.348
 8704W        W76922  31.616  19.027   4.188
 8705W        W76923  43.178  29.625   1.773
 8706W        W76924   8.224  15.506   0.828
 8707W        W76925  38.361  18.117  12.162
 8708W        W76926   2.697  25.677   4.653
 8709W        W76927   4.716  19.570   4.164
 8710W        W76928  38.059  10.427   2.806
 8711W        W76929  40.774  22.561   2.709
 8712W        W76930  28.757  13.787   2.741
 8713W        W76931   2.701   7.992   1.772
 8714W        W76932   9.325  42.155   0.219
 8715W        W76933  13.771   7.169   4.748
 8716W        W76934   8.573  39.286   4.345
 8717W        W76935  20.566   8.606  12.955
 8718W        W76936  34.690   7.032  11.578
 8719W        W76937  32.127  23.647   3.336
 8720W        W76938  26.716   6.963   2.818
 8721W        W76939  38.987  12.729  13.032
 8722W        W76940  39.872  31.144  14.904
 8723W        W76941  33.537  23.677   1.284
 8724W        W76942   3.142  32.412   2.931
 8725W        W76943   7.337   0.364  13.454
 8726W        W76944  19.720  22.217   1.239
 8727W        W76945   6.145  16.093  13.456
 8728W        W76946  43.302  42.865  14.702
 8729W        W76947   5.235  16.263   1.177
 8730W        W76948  41.599  27.695   1.315
 8731W        W76949  37.392  17.817  13.980
 8732W        W76950  26.633  23.483   1.789
 8733W        W76951  23.563  30.072  11.263
 8734W        W76952  12.696  16.775  11.409
 8735W        W76953  29.576   0.642  12.487
 8736W        W76954   1.877  31.384  12.486
 8737W        W76955  30.827  25.578   1.912
 8738W        W76956  29.972   0.822  13.371
 8739W        W76957   7.357  27.473   1.840
 8740W        W76958  16.837  12.747   2.198
 8741W        W76959  25.590  18.023   3.926
 8742W        W76960  44.295  15.111   1.647
 8743W        W76961  44.459  15.375   0.859
 8744W        W76962  15.722  36.579  12.380
 8745W        W76963  31.055  42.119   1.751
 8746W        W76964  38.138  29.612  12.611
 8747W        W76965  28.262   1.422  13.403
 8748W        W76966   8.370  27.111   4.099
 8749W        W76967  42.089  31.486  11.185
 8750W        W76968   8.263  13.603   1.278
 8751W        W76969  40.422  17.553   4.782
 8752W        W76970  33.907  32.339   2.255
 8753W        W76971  40.725  44.104   2.114
 8754W        W76972   5.708  29.325   0.784
 8755W        W76973  14.913  23.018   2.403
 8756W        W76974  36.168  44.521   3.965
 8757W        W76975   3.376  32.148   2.225
 8758W        W76976  42.621  13.164  13.320
 8759W        W76977  39.116  11.392   3.312
 8760W        W76978  38.432  37.786   4.905
 8761W        W76979  16.544   4.642  13.093
 8762W        W76980  15.421  37.513   4.066
 8763W        W76981  12.781  24.714   1.510
 8764W        W76982  12.056   8.407   1.531
 8765W        W76983  36.285  17.458   2.869
 8766W        W76984  30.084   0.530  12.495
 8767W        W76985  17.219  43.345   4.585
 8768W        W76986  34.430  18.886   1.830
 8769W        W76987  43.944  16.862   2.912
 8770W        W76988  35.991  19.072  14.446
 8771W        W76989  24.233   2.740  13.989
 8772W        W76990  36.836  19.185  13.610
 8773W        W76991  36.083   7.081   4.896
 8774W        W76992  17.131  20.259   0.115
 8775W        W76993  37.327   7.783  11.612
 8776W        W76994  19.973  36.304  14.887
 8777W        W76995  32.814   9.926  13.816
 8778W        W76996  23.096   3.032   1.747
 8779W        W76997  39.843  23.608  10.501
 8780W        W76998  20.263  32.332   1.193
 8781W        W76999   3.970  15.050  12.888
 8782W        W77000  21.533  32.588  11.075
 8783W        W77001  43.011  40.733   1.995
 8784W        W77002  12.065   1.460  14.440
 8785W        W77003   1.203  28.711  11.540
 8786W        W77004  22.279   1.525   3.226
 8787W        W77005   6.693  36.620  13.520
 8788W        W77006   3.473   2.330  12.507
 8789W        W77007  42.561   3.870   4.055
 8790W        W77008  27.214   1.395  10.697
 8791W        W77009  20.013  34.339   1.065
 8792W        W77010   8.381   7.388   0.413
 8793W        W77011  38.311  17.748   4.725
 8794W        W77012  20.238   1.261  11.439
 8795W        W77013  42.509  15.859   3.740
 8796W        W77014  13.834  28.985   1.196
 8797W        W77015  17.598   8.913   2.703
 8798W        W77016  16.152  21.629  10.348
 8799W        W77017  23.242  34.711   4.050
 8800W        W77018  39.659  33.638   4.479
 8801W        W77019  15.270  31.225  14.027
 8802W        W77020  39.400   9.399  10.764
 8803W        W77021  44.539   0.131  11.474
 8804W        W77022  37.981   5.946   3.726
 8805W        W77023  40.935  17.468   4.581
 8806W        W77024  34.925  16.757  14.360
 8807W        W77025  31.415  35.543   2.330
 8808W        W77026  33.611  13.864   1.668
 8809W        W77027  15.174  23.460  11.962
 8810W        W77028  38.972   8.207  10.350
 8811W        W77029   5.464  34.242  13.562
 8812W        W77030  21.402  21.640   1.968
 8813W        W77031   8.773  35.318   3.830
 8814W        W77032  13.135   3.638  12.006
 8815W        W77033  11.085   0.508  13.468
 8816W        W77034  35.645  25.135  13.916
 8817W        W77035  42.915  21.481   4.995
 8818W        W77036   5.789  15.328  11.923
 8819W        W77037  44.867  36.710   4.577
 8820W        W77038  16.850  27.621  13.935
 8821W        W77039  43.418  11.833   1.200
 8822W        W77040  42.152  11.432   0.350
 8823W        W77041  22.405  44.350   0.864
 8824W        W77042  44.914   5.962  13.673
 8825W        W77043  14.637   8.354  13.384
 8826W        W77044  44.259   8.240   1.351
 8827W        W77045   2.257  32.699  12.728
 8828W        W77046   2.509  31.684  10.875
 8829W        W77047   6.340   5.945  14.461
 8830W        W77048  22.713  15.549   1.869
 8831W        W77049   5.511  34.913  13.674
 8832W        W77050  41.818  42.530  14.244
 8833W        W77051  17.027  19.591   4.411
 8834W        W77052  17.594  28.207   2.229
 8835W        W77053  23.984  15.637  13.717
 8836W        W77054  16.395  29.629  11.083
 8837W        W77055  17.448  28.974  12.854
 8838W        W77056  42.081  38.048   2.550
 8839W        W77057  14.858  43.973   3.085
 8840W        W77058  20.019   7.909   2.090
 8841W        W77059  30.934  44.562  14.916
 8842W        W77060  26.631   3.502   4.695
 8843W        W77061  37.014  28.155   1.583
 8844W        W77062  30.975  10.394  10.703
 8845W        W77063   7.884   6.929  13.028
 8846W        W77064  21.467  31.051   2.323
 8847W        W77065  13.887  21.755  14.964
 8848W        W77066  11.440  38.127  12.991
 8849W        W77067   6.492  31.048  14.370
 8850W        W77068  24.665  43.984  12.079
 8851W        W77069  22.118  20.743  14.718
 8852W        W77070  12.968  13.550  13.693
 8853W        W77071  42.018  39.609   1.823
 8854W        W77072  42.795   1.864   4.354
 8855W        W77073   1.429  25.523   3.323
 8856W        W77074  19.095  42.280   2.802
 8857W        W77075  13.272   4.297  14.277
 8858W        W77076  23.072  40.050   1.387
 8859W        W77077  35.494  31.990   4.581
 8860W        W77078  15.315  34.617  10.726
 8861W        W77079  29.595  27.399   1.272
 8862W        W77080  10.288   8.669  13.435
 8863W        W77081  21.847   0.512  11.069
 8864W        W77082  18.838  33.482   0.284
 8865W        W77083  23.776   7.898  11.960
 8866W        W77084  28.029  39.332  11.103
 8867W        W77085  13.525  23.858  11.727
 8868W        W77086  19.053  36.343  12.480
 8869W        W77087  38.898   0.287  11.251
 8870W        W77088  40.075   6.402   3.910
 8871W        W77089  11.445  40.260   3.588
 8872W        W77090  37.113  23.062  12.500
 8873W        W77091  13.531  32.484  14.841
 8874W        W77092  10.662  16.261  13.161
 8875W        W77093  12.095  10.804   1.921
 8876W        W77094  39.914  21.542   3.682
 8877W        W77095   9.710  39.496   3.615
 8878W        W77096  39.858  16.715  11.476
 8879W        W77097   2.904   1.951   2.128
 8880W        W77098   2.780  44.572   1.273
 8881W        W77099  39.703  13.851  13.372
 8882W        W77100  33.386  23.642  10.128
 8883W        W77101  21.973  34.826  12.085
 8884W        W77102  12.258   4.618  12.948
 8885W        W77103  24.642  25.397  13.332
 8886W        W77104   9.808  34.044   4.194
 8887W        W77105   4.383  14.306  12.508
 8888W        W77106  38.340  22.203  12.020
 8889W        W77107  37.724  10.198   2.462
 8890W        W77108  10.554  35.309   3.228
 8891W        W77109  28.661  16.780  12.112
 8892W        W77110  27.054  14.284   4.073
 8893W        W77111  27.505  30.966  12.624
 8894W        W77112  44.824  42.391  12.856
 8895W        W77113  43.755  31.245  12.866
 8896W        W77114  23.266   6.017  11.285
 8897W        W77115  10.346  41.684   5.104
 8898W        W77116  43.287   4.197  13.794
 8899W        W77117  37.345  41.793   5.249
 8900W        W77118  33.937  29.122  12.041
 8901W        W77119  20.477  38.284   2.077
 8902W        W77120  27.084   6.242   0.788
 8903W        W77121  28.846  16.159  12.651
 8904W        W77122  43.521  32.298   3.751
 8905W        W77123  43.961  43.365   4.356
 8906W        W77124   4.350  12.059   1.296
 8907W        W77125  13.093  29.583   4.530
 8908W        W77126  15.082  38.946  14.893
 8909W        W77127  43.577  41.979   2.630
 8910W        W77128  11.653  13.922  12.888
 8911W        W77129  11.954  35.627   2.249
 8912W        W77130  19.126  18.122  12.121
 8913W        W77131  19.064   6.748  14.661
 8914W        W77132  40.542   1.874  12.112
 8915W        W77133   8.508  43.901   4.563
 8916W        W77134  19.661   0.794  10.584
 8917W        W77135   6.503  12.745   2.261
 8918W        W77136  37.985  20.627   2.134
 8919W        W77137  27.435  19.739   3.156
 8920W        W77138  39.433  25.969  11.863
 8921W        W77139  28.667   6.684   0.798
 8922W        W77140  41.722   6.603   1.758
 8923W        W77141   8.786  24.220   2.362
 8924W        W77142  13.560   6.415  13.429
 8925W        W77143  33.841  27.076   1.410
 8926W        W77144  33.128  30.801  14.856
 8927W        W77145   1.057  15.815  13.359
 8928W        W77146   2.252  43.982  13.925
 8929W        W77147   1.376   8.660  14.861
 8930W        W77148   4.077  21.910   2.777
 8931W        W77149   7.833  37.064   3.342
 8932W        W77150   5.439  12.339   2.218
 8933W        W77151  19.890  43.003  12.908
 8934W        W77152  38.573  12.307   4.114
 8935W        W77153  30.946  15.154  12.964
 8936W        W77154  22.021  44.943   4.579
 8937W        W77155  30.726  42.965   3.764
 8938W        W77156   2.289  18.201   5.028
 8939W        W77157  33.139   7.107  11.518
 8940W        W77158  14.303  23.716  11.667
 8941W        W77159  14.112  12.342   3.978
 8942W        W77160  40.343  10.923   2.350
 8943W        W77161  29.820  19.045  12.984
 8944W        W77162  42.285  29.418   1.728
 8945W        W77163  21.498   1.851  13.978
 8946W        W77164  32.535  38.436   1.419
 8947W        W77165  40.353  37.875  13.103
 8948W        W77166  35.446  30.549   3.660
 8949W        W77167  10.769  17.229   1.344
 8950W        W77168  17.666  30.587   2.709
 8951W        W77169  27.306  44.841  12.691
 8952W        W77170  36.496  13.207  11.582
 8953W        W77171  41.883  29.386  12.091
 8954W        W77172  21.151   8.323   3.333
 8955W        W77173  43.570  22.175  12.964
 8956W        W77174  39.584  32.039  11.683
 8957W        W77175  10.161   9.133  12.429
 8958W        W77176   7.162  21.045  14.426
 8959W        W77177  33.570   0.713   2.718
 8960W        W77178  26.979  28.551  14.296
 8961W        W77179  42.065  41.727   3.353
 8962W        W77180  43.463  43.026  11.166
 8963W        W77181  35.041  29.233   4.716
 8964W        W77182   7.901  39.571  12.502
 8965W        W77183  32.550  15.209  13.930
 8966W        W77184   7.507   5.669  13.070
 8967W        W77185   0.029  14.709  12.923
 8968W        W77186   8.649  26.588   2.660
 8969W        W77187  37.174  17.063  11.084
 8970W        W77188  24.044  22.160  12.057
 8971W        W77189  18.856   6.477   2.713
 8972W        W77190  28.398  20.244  12.818
 8973W        W77191  21.929  10.293   2.740
 8974W        W77192  14.609  37.156   3.787
 8975W        W77193  31.534  42.339  12.588
 8976W        W77194   6.581  22.818  11.106
 8977W        W77195   2.655  26.863   2.087
 8978W        W77196  16.021  39.912  14.760
 8979W        W77197  28.710  29.008  14.649
 8980W        W77198  39.556   4.712   0.450
 8981W        W77199  41.322  34.447   0.944
 8982W        W77200  39.250  38.397  12.063
 8983W        W77201  34.314   9.358   3.712
 8984W        W77202  30.967  27.209   2.876
 8985W        W77203  41.991   5.644  11.642
 8986W        W77204  24.918   6.772  13.456
 8987W        W77205   6.449  11.867  11.680
 8988W        W77206  43.310  19.996   5.015
 8989W        W77207  29.365  21.764   0.208
 8990W        W77208  16.914  23.135   0.218
 8991W        W77209   0.503  18.288   4.628
 8992W        W77210  13.212  17.333   3.604
 8993W        W77211  14.863  13.913  14.361
 8994W        W77212   0.724  34.622  14.857
 8995W        W77213   2.163  12.078  13.976
 8996W        W77214  12.137  32.396  12.921
 8997W        W77215  39.511  35.652   4.532
 8998W        W77216  43.502  11.848  13.706
 8999W        W77217  21.183  35.123  13.449
 9000W        W77218   4.964  38.523  14.110
 9001W        W77219  13.266   3.183  11.262
 9002W        W77220  31.617   2.165   2.720
 9003W        W77221  38.212  25.176   2.639
 9004W        W77222  20.454  36.652   3.314
 9005W        W77223   8.834  32.632   2.289
 9006W        W77224  30.426  39.229   1.543
 9007W        W77225  13.022  42.651  11.907
 9008W        W77226  29.570  44.233  14.595
 9009W        W77227  41.487  28.061   3.544
 9010W        W77228  29.611   9.923   4.148
 9011W        W77229   9.658  34.615   2.346
 9012W        W77230   7.682  43.999  12.872
 9013W        W77231  30.161   3.261  10.997
 9014W        W77232  31.179  18.381   3.647
 9015W        W77233   4.826  31.518   3.158
 9016W        W77234  44.457  25.311  13.759
 9017W        W77235  17.655  26.983   3.249
 9018W        W77236  24.866  40.503  14.272
 9019W        W77237  14.261  14.852   4.071
 9020W        W77238  12.356  23.344   1.533
 9021W        W77239   8.301  42.284   3.819
 9022W        W77240  22.974  33.354  11.782
 9023W        W77241  29.639  32.205   3.388
 9024W        W77242   4.989  27.737  13.912
 9025W        W77243  41.869  34.013   1.822
 9026W        W77244   2.226  21.643  11.771
 9027W        W77245  29.386  38.838   2.815
 9028W        W77246  23.116  41.206  13.019
 9029W        W77247   1.317  11.816   4.129
 9030W        W77248  15.214   1.998  10.557
 9031W        W77249   7.588  22.195  14.091
 9032W        W77250  21.032  29.652  13.041
 9033W        W77251  35.940   2.015  13.774
 9034W        W77252  29.869   6.207  14.727
 9035W        W77253  39.917  11.845   0.672
 9036W        W77254  17.260  30.016  12.495
 9037W        W77255  27.002  36.483   4.220
 9038W        W77256  26.721  13.229   0.681
 9039W        W77257  22.738   9.383   3.205
 9040W        W77258  36.553  32.618  12.014
 9041W        W77259  21.514  30.884  12.098
 9042W        W77260   2.027   1.774  13.949
 9043W        W77261  33.067  14.850  11.455
 9044W        W77262   6.735  18.995  10.591
 9045W        W77263  34.520  23.947   3.135
 9046W        W77264  19.212   3.904   1.391
 9047W        W77265   2.796   3.955   2.985
 9048W        W77266  36.241  19.353  11.570
 9049W        W77267  26.718  37.060  12.030
 9050W        W77268  39.093  39.571   2.419
 9051W        W77269  42.857   2.811   2.400
 9052W        W77270  12.833   1.902  13.763
 9053W        W77271   8.298  16.346   4.098
 9054W        W77272  32.967  44.867   4.732
 9055W        W77273   5.280  14.839   4.032
 9056W        W77274  20.023  14.792   2.143
 9057W        W77275  35.101  30.517  10.650
 9058W        W77276  36.367  21.744   4.232
 9059W        W77277  30.127   5.950   2.728
 9060W        W77278  35.071  35.495  14.933
 9061W        W77279  23.897  38.408   3.600
 9062W        W77280  30.634   9.637  11.561
 9063W        W77281   5.390  33.524   1.254
 9064W        W77282  23.287   6.726  13.675
 9065W        W77283  20.699  23.102   1.203
 9066W        W77284  36.348   6.282  13.969
 9067W        W77285   0.776  42.001   0.970
 9068W        W77286  11.345   7.215  14.855
 9069W        W77287   2.771  35.977  11.689
 9070W        W77288   9.414  23.104   0.461
 9071W        W77289  13.916   2.260   3.684
 9072W        W77290  30.608  22.044  12.455
 9073W        W77291  33.874  43.489  14.007
 9074W        W77292  10.354   6.305  14.869
 9075W        W77293  44.261  44.000   2.178
 9076W        W77294  40.998   8.293   4.042
 9077W        W77295  29.322  15.299   1.156
 9078W        W77296  31.393  11.777   2.271
 9079W        W77297  19.362   4.421  13.905
 9080W        W77298  12.042  14.194   4.594
 9081W        W77299  28.247  33.132  11.078
 9082W        W77300  27.537  16.893  11.507
 9083W        W77301  21.222  36.501  10.966
 9084W        W77302  40.172  20.765   2.715
 9085W        W77303  21.478  31.514   1.618
 9086W        W77304  10.250   9.020  12.959
 9087W        W77305   9.626  40.928  11.958
 9088W        W77306   9.214  32.666  14.043
 9089W        W77307  36.462   1.291  12.625
 9090W        W77308  28.216   0.203   0.182
 9091W        W77309  30.469  21.026   4.531
 9092W        W77310   1.841  44.214   1.476
 9093W        W77311  32.806  43.928   2.257
 9094W        W77312  14.278  24.109   0.754
 9095W        W77313  16.639  35.315  11.050
 9096W        W77314  43.308   2.729  14.079
 9097W        W77315   4.745  38.150  11.645
 9098W        W77316   4.607   5.624   4.210
 9099W        W77317  34.938   2.749   2.241
 9100W        W77318   9.852   3.910   0.860
 9101W        W77319   3.350   7.430   2.849
 9102W        W77320  27.212  30.662   4.990
 9103W        W77321   9.880   6.015  10.758
 9104W        W77322  20.582  26.806  10.083
 9105W        W77323  34.610  42.759   1.223
 9106W        W77324  22.510  34.512   2.911
 9107W        W77325  29.841  28.419  13.779
 9108W        W77326  10.841   5.635   3.645
 9109W        W77327  12.945   0.738   4.968
 9110W        W77328  18.825  27.565   4.380
 9111W        W77329  33.173   8.118   3.182
 9112W        W77330  25.424  33.719  12.519
 9113W        W77331   8.192  41.913   0.997
 9114W        W77332  14.057   8.238   2.485
 9115W        W77333   1.833   7.589  14.142
 9116W        W77334  10.254  41.527   1.087
 9117W        W77335  25.581   2.364   4.631
 9118W        W77336  10.320  38.767  11.459
 9119W        W77337  24.423  20.167  11.624
 9120W        W77338   5.946  24.696  12.473
 9121W        W77339  20.248  29.024  12.505
 9122W        W77340  10.552  16.677  12.090
 9123W        W77341  43.465  42.697   1.838
 9124W        W77342  12.898   9.165   1.358
 9125W        W77343  19.628  36.085  10.659
 9126W        W77344  11.907  12.269  14.666
 9127W        W77345  39.072  22.505   1.197
 9128W        W77346   9.228  32.115   3.281
 9129W        W77347  38.108  39.246   3.163
 9130W        W77348  14.183   1.941   1.873
 9131W        W77349   0.763  25.271  14.563
 9132W        W77350  19.004  21.087  13.524
 9133W        W77351  25.965   6.185   3.545
 9134W        W77352   2.848  19.076  11.214
 9135W        W77353  23.250  17.187  12.041
 9136W        W77354  32.326   1.457   0.318
 9137W        W77355  17.338  39.796   0.360
 9138W        W77356  42.872  31.606  14.952
 9139W        W77357  36.468  24.752   2.333
 9140W        W77358  10.684  13.501  11.668
 9141W        W77359  26.338  40.347  10.717
 9142W        W77360   1.663  24.600  13.977
 9143W        W77361  29.415  12.868  13.277
 9144W        W77362   5.889  26.742   3.656
 9145W        W77363  44.958  34.025   2.307
 9146W        W77364  36.460   9.453  10.710
 9147W        W77365   3.198  29.739   0.492
 9148W        W77366  44.506  33.060   4.317
 9149W        W77367   6.628  35.604   2.859
 9150W        W77368  37.832  28.145   4.191
 9151W        W77369  42.057  42.840   3.295
 9152W        W77370   9.139  23.055   4.492
 9153W        W77371  32.623  41.423  12.647
 9154W        W77372  20.516  27.544  13.369
 9155W        W77373  38.387  40.896   2.815
 9156W        W77374  18.883   4.290  13.040
 9157W        W77375  33.191   1.927   5.103
 9158W        W77376  22.171   7.646  11.117
 9159W        W77377  18.016   0.243   2.710
 9160W        W77378  17.105  14.515   3.634
 9161W        W77379  10.816  23.014   0.271
 9162W        W77380  22.170   4.862  14.346
 9163W        W77381  25.676  15.539  14.335
 9164W        W77382   3.717   3.928  11.908
 9165W        W77383   9.747   2.702   0.331
 9166W        W77384  35.382   6.989   0.445
 9167W        W77385  14.516  25.420   0.366
 9168W        W77386  14.275  17.700   4.113
 9169W        W77387  30.868  30.151   1.341
 9170W        W77388  25.450   9.728   1.879
 9171W        W77389  25.614  12.299  14.817
 9172W        W77390  11.130  26.652   5.006
 9173W        W77391   0.068  36.117  12.054
 9174W        W77392  31.922  39.346   3.237
 9175W        W77393   8.770  40.973  10.239
 9176W        W77394  26.835   8.613   4.948
 9177W        W77395  20.692  39.972   2.403
 9178W        W77396  17.807  26.154  14.440
 9179W        W77397  25.261  23.116   0.808
 9180W        W77398  22.718  19.146  13.311
 9181W        W77399  38.037  24.776   3.251
 9182W        W77400   9.557   7.712  12.636
 9183W        W77401  37.932   2.721  13.386
 9184W        W77402  13.146  30.556  13.483
 9185W        W77403  12.164  32.839  11.531
 9186W        W77404  20.777   9.651  11.049
 9187W        W77405  32.547  30.654   2.584
 9188W        W77406  26.298  30.484  10.331
 9189W        W77407   3.947  27.672   4.161
 9190W        W77408  25.967  12.230   3.335
 9191W        W77409  16.457  36.542  12.981
 9192W        W77410   5.169   9.407   2.425
 9193W        W77411  21.589   3.489  12.981
 9194W        W77412   9.645  19.130  14.212
 9195W        W77413  33.963  43.195  11.766
 9196W        W77414  31.953  37.633   3.030
 9197W        W77415  42.358  14.554  13.528
 9198W        W77416  27.105  28.225  13.463
 9199W        W77417   1.825   3.617   1.920
 9200W        W77418  19.293  14.606  12.008
 9201W        W77419  26.945  15.020  13.015
 9202W        W77420  41.038  40.117   1.829
 9203W        W77421   3.708  39.953   5.008
 9204W        W77422  21.700  42.509   2.695
 9205W        W77423  26.148  25.434  12.387
 9206W        W77424   9.660  34.366  11.013
 9207W        W77425   5.903  21.100   0.510
 9208W        W77426   5.779  11.644  12.693
 9209W        W77427   5.019   3.519  13.017
 9210W        W77428  30.362  37.339   3.348
 9211W        W77429  16.145  37.961   1.487
 9212W        W77430  10.798  37.126   1.906
 9213W        W77431  27.065  16.287  12.302
 9214W        W77432  42.412  38.430   4.728
 9215W        W77433  14.159  37.083   2.717
 9216W        W77434  28.520  37.601   2.537
 9217W        W77435  17.012  21.940  14.764
 9218W        W77436   3.312  40.211  14.233
 9219W        W77437   2.770  43.153  10.604
 9220W        W77438  38.739  17.771   2.600
 9221W        W77439  34.178  33.995   1.310
 9222W        W77440  34.926  44.880   2.364
 9223W        W77441   6.411   8.925   0.238
 9224W        W77442  12.088  36.103  14.087
 9225W        W77443  24.611  10.649  12.101
 9226W        W77444  40.169  26.954   4.187
 9227W        W77445  22.725  31.001   1.651
 9228W        W77446  44.265  11.773  10.522
 9229W        W77447  40.536  36.090  12.086
 9230W        W77448   1.274  43.535  14.301
 9231W        W77449  14.776  33.261   2.163
 9232W        W77450   8.417  37.135  14.302
 9233W        W77451  31.021   6.349  14.323
 9234W        W77452  30.415  27.683   3.710
 9235W        W77453   5.175  14.173  11.267
 9236W        W77454  34.660   7.819   0.915
 9237W        W77455   1.004  42.884  11.777
 9238W        W77456   6.516  39.682   9.746
 9239W        W77457   2.321  39.552  13.036
 9240W        W77458  14.376  16.408  13.026
 9241W        W77459  18.146  17.843   0.248
 9242W        W77460  31.154  23.983   0.354
 9243W        W77461  15.031  41.408   3.246
 9244W        W77462  39.167  24.161   4.195
 9245W        W77463  33.394  35.602  12.860
 9246W        W77464   5.427  14.067   3.730
 9247W        W77465  18.144   6.653   2.739
 9248W        W77466  12.571   9.934   4.720
 9249W        W77467   2.355  16.597   1.964
 9250W        W77468   2.364  17.899   0.377
 9251W        W77469   5.249  26.549   4.269
 9252W        W77470  41.648   4.642   5.002
 9253W        W77471  15.176  18.067   2.739
 9254W        W77472  40.454  42.823   1.726
 9255W        W77473  34.839  23.463  13.546
 9256W        W77474  29.790  35.992   0.756
 9257W        W77475  23.318  40.023   0.936
 9258W        W77476   7.328  30.178   4.375
 9259W        W77477  16.990  22.198   4.283
 9260W        W77478  10.672  33.482  10.472
 9261W        W77479  30.105  34.168   1.824
 9262W        W77480   8.641  32.508   1.352
 9263W        W77481   2.907  10.548   2.493
 9264W        W77482   4.689   9.425   0.272
 9265W        W77483  42.201   9.182   2.305
 9266W        W77484  33.569  39.934  14.080
 9267W        W77485  42.979  25.495  12.400
 9268W        W77486  13.958   3.803   1.038
 9269W        W77487  11.313  37.580  11.963
 9270W        W77488  17.255  13.881  14.924
 9271W        W77489  28.319   0.276   1.518
 9272W        W77490  17.796  17.024   1.753
 9273W        W77491  13.623   5.469  14.317
 9274W        W77492  11.617   9.749  13.389
 9275W        W77493  24.429  35.393  12.127
 9276W        W77494  40.814   8.591   0.898
 9277W        W77495  32.388  28.637   3.046
 9278W        W77496  23.259   4.179  12.121
 9279W        W77497  30.218  16.894  12.064
 9280W        W77498   0.925  19.502   1.847
 9281W        W77499  18.456  18.683  13.785
 9282W        W77500  19.239  30.015   3.190
 9283W        W77501  26.442  11.866   1.820
 9284W        W77502   2.193  43.038   2.350
 9285W        W77503  29.050   8.818  11.076
 9286W        W77504  22.634   4.669  13.529
 9287W        W77505  23.250  29.459   3.274
 9288W        W77506  33.159  33.032   3.802
 9289W        W77507   5.017  18.745  11.131
 9290W        W77508  12.562  18.224  12.950
 9291W        W77509  18.203  15.833   2.152
 9292W        W77510  41.333  40.933  11.211
 9293W        W77511   7.769  37.058  12.602
 9294W        W77512  21.753  14.075  13.836
 9295W        W77513  29.798   9.201   1.441
 9296W        W77514  44.790   7.464   3.240
 9297W        W77515  32.579  18.564   4.625
 9298W        W77516  28.818  18.352   9.837
 9299W        W77517   0.982  40.329   1.283
 9300W        W77518  24.270  13.662  11.121
 9301W        W77519  14.374   3.331  13.049
 9302W        W77520  11.127   9.882  13.397
 9303W        W77521  33.981  12.310   4.471
 9304W        W77522  21.757   1.938  11.893
 9305W        W77523   0.534  15.849   2.275
 9306W        W77524  34.890  12.472  12.629
 9307W        W77525  24.536   3.811  13.579
 9308W        W77526  25.425  20.185   4.374
 9309W        W77527  27.493  17.608   1.270
 9310W        W77528   8.196  36.264  11.200
 9311W        W77529  32.600  28.699  13.957
 9312W        W77530  15.264  18.808  14.573
 9313W        W77531  25.015  40.467   5.204
 9314W        W77532  18.541  15.103  11.654
 9315W        W77533   5.210  42.206  14.317
 9316W        W77534  41.530  28.477  12.481
 9317W        W77535   0.436   3.872  13.496
 9318W        W77536   1.797  38.342   2.415
 9319W        W77537  35.844  31.602  14.811
 9320W        W77538   6.870  30.334  14.478
 9321W        W77539  41.324   3.404   4.065
 9322W        W77540   8.615  18.672  13.789
 9323W        W77541  20.564  12.563  13.441
 9324W        W77542  36.570  29.593  14.767
 9325W        W77543  23.291  33.160   1.773
 9326W        W77544  11.956  13.869  13.377
 9327W        W77545  32.811  44.405   2.030
 9328W        W77546  31.741  24.716   1.244
 9329W        W77547  43.051   1.055   4.387
 9330W        W77548   3.116  18.794  10.542
 9331W        W77549  14.748  23.800   1.753
 9332W        W77550  21.059  29.359   3.396
 9333W        W77551  17.160  15.827  10.925
 9334W        W77552  23.431   3.185  13.477
 9335W        W77553  20.373  23.007  14.971
 9336W        W77554  30.901  23.657  12.083
 9337W        W77555  26.321   1.120  12.024
 9338W        W77556   5.225  30.420   2.895
 9339W        W77557   8.616  11.984  11.177
 9340W        W77558  37.609  21.758  11.512
 9341W        W77559  20.286  43.492   4.224
 9342W        W77560  42.749  41.238  14.259
 9343W        W77561  28.031  20.280   4.573
 9344W        W77562  22.061  18.883  12.490
 9345W        W77563  37.002  40.311  14.430
 9346W        W77564  30.732  17.050  14.383
 9347W        W77565  35.300   3.426  12.857
 9348W        W77566  36.847  25.947   4.063
 9349W        W77567  33.565  13.392  14.556
 9350W        W77568  41.451  14.631   4.560
 9351W        W77569  13.634  15.787  14.999
 9352W        W77570   7.808  37.504   0.939
 9353W        W77571  42.971  13.858  12.524
 9354W        W77572  41.096   5.301   3.834
 9355W        W77573  40.007  29.926  13.024
 9356W        W77574  11.374  21.664   2.642
 9357W        W77575   1.218  36.470  14.497
 9358W        W77576  36.360  28.604   3.631
 9359W        W77577   8.243  21.342   1.473
 9360W        W77578  34.378   9.962  11.566
 9361W        W77579  27.885  25.510   1.340
 9362W        W77580  24.233  40.687   3.580
 9363W        W77581  17.715  42.744  13.975
 9364W        W77582  28.536  31.153  14.900
 9365W        W77583   7.761  26.475   9.937
 9366W        W77584  29.721  41.124   0.294
 9367W        W77585  15.744  16.083   4.578
 9368W        W77586  36.843  44.891   0.081
 9369W        W77587  33.814  38.055  10.779
 9370W        W77588  40.519  10.984  12.767
 9371W        W77589  19.449  26.874  12.490
 9372W        W77590  10.187  26.837   4.987
 9373W        W77591   8.839  10.775   4.466
 9374W        W77592  15.069  20.969   3.602
 9375W        W77593  15.906  16.710   3.014
 9376W        W77594  11.650  31.227   4.380
 9377W        W77595  24.555  13.484  12.356
 9378W        W77596   3.672   0.018   3.244
 9379W        W77597   4.835  30.825   4.652
 9380W        W77598  24.203  38.862   2.423
 9381W        W77599  34.781  33.882  14.287
 9382W        W77600  27.232   7.704   3.394
 9383W        W77601  18.395  40.977   2.621
 9384W        W77602  22.519   6.339   1.397
 9385W        W77603   1.092   6.162  11.857
 9386W        W77604  13.639  18.607   1.012
 9387W        W77605  40.123   1.693  10.308
 9388W        W77606  21.202  41.601   4.781
 9389W        W77607  19.060  26.996   4.242
 9390W        W77608   8.923  42.150  10.222
 9391W        W77609  37.370  17.939  11.035
 9392W        W77610  27.012   0.354  14.621
 9393W        W77611  43.395  39.264   2.883
 9394W        W77612  39.998  33.664   2.825
 9395W        W77613  24.012  29.070  10.073
 9396W        W77614  29.450  25.267  12.533
 9397W        W77615   6.327   9.032   1.662
 9398W        W77616  29.985  25.430  13.031
 9399W        W77617  10.630  10.662  14.382
 9400W        W77618  20.171  44.737  13.434
 9401W        W77619  25.746  36.380  12.984
 9402W        W77620  12.187  40.890   3.187
 9403W        W77621   3.934  21.047   3.691
 9404W        W77622  39.649  42.800   4.615
 9405W        W77623  28.125  26.036   0.548
 9406W        W77624  30.858  14.347  14.612
 9407W        W77625  23.035   4.334   4.547
 9408W        W77626  18.081  19.412  11.371
 9409W        W77627  28.923   0.851  10.858
 9410W        W77628  22.208  42.229   2.679
 9411W        W77629  38.183  21.658  13.376
 9412W        W77630   3.202  27.579   2.637
 9413W        W77631  15.548  19.478   0.295
 9414W        W77632  37.362  33.676  13.005
 9415W        W77633  15.118  25.337   2.726
 9416W        W77634  14.735  27.576  14.178
 9417W        W77635   8.757  33.681  14.308
 9418W        W77636  10.153  33.588  14.058
 9419W        W77637   8.687  38.535   0.361
 9420W        W77638  15.135   0.769   4.579
 9421W        W77639   4.936  36.932   2.868
 9422W        W77640  23.054  14.700   4.608
 9423W        W77641   7.146  15.227   2.817
 9424W        W77642  26.587  14.268  11.925
 9425W        W77643  14.963  33.492  12.491
 9426W        W77644  12.217  31.897  13.085
 9427W        W77645   5.460  27.188   1.701
 9428W        W77646  25.470  35.259  14.422
 9429W        W77647   9.597   0.851  14.623
 9430W        W77648  27.805  36.439  12.880
 9431W        W77649   2.924  11.306   2.266
 9432W        W77650  42.335  44.778   4.213
 9433W        W77651  41.388  27.405   1.712
 9434W        W77652  11.938   5.302   4.185
 9435W        W77653   4.181  23.913  10.634
 9436W        W77654   3.345  37.161  11.631
 9437W        W77655  28.048  26.938   4.873
 9438W        W77656  12.645  42.679  11.524
 9439W        W77657  17.856  25.634   2.888
 9440W        W77658  15.617   2.193   1.745
 9441W        W77659   1.270  19.479  13.941
 9442W        W77660  18.090  26.692   3.240
 9443W        W77661  36.858   3.799  14.781
 9444W        W77662  18.141  26.804   0.231
 9445W        W77663  43.321  32.382  10.649
 9446W        W77664  36.536  17.896   2.773
 9447W        W77665  13.160   7.107   1.678
 9448W        W77666  25.075  12.783   4.852
 9449W        W77667   2.271  25.908  13.321
 9450W        W77668  37.630   5.435  13.412
 9451W        W77669  43.396   5.458   2.388
 9452W        W77670  31.893   2.863   1.383
 9453W        W77671  17.074   1.230   4.171
 9454W        W77672   4.452   2.243   1.501
 9455W        W77673   2.375   9.677  14.810
 9456W        W77674   8.127  18.218  12.947
 9457W        W77675  10.610  15.334   3.462
 9458W        W77676  23.567  26.539   3.115
 9459W        W77677   1.750  10.186   2.407
 9460W        W77678  11.664  22.064   0.069
 9461W        W77679  12.232  42.068  12.827
 9462W        W77680  20.187  13.312   3.582
 9463W        W77681   2.841  15.377   3.372
 9464W        W77682  23.662  27.054   5.017
 9465W        W77683  25.118  40.203  13.932
 9466W        W77684  39.388  31.974   0.927
 9467W        W77685  22.954  28.841   2.333
 9468W        W77686  39.039   1.805   1.951
 9469W        W77687   1.889  21.328  11.542
 9470W        W77688  35.561   3.198   0.281
 9471W        W77689   4.384  23.469   4.840
 9472W        W77690  14.667  14.381   4.608
 9473W        W77691  14.258  20.065   2.817
 9474W        W77692  16.730  30.038  12.546
 9475W        W77693  18.886  29.109  10.817
 9476W        W77694  31.863   4.189   0.833
 9477W        W77695   2.741  22.994   4.533
 9478W        W77696  15.610  34.740  12.157
 9479W        W77697  16.112  17.720  11.078
 9480W        W77698  27.837  42.757  13.378
 9481W        W77699  42.382  29.496  10.733
 9482W        W77700  28.988   1.361  11.350
 9483W        W77701  40.483  26.649   1.353
 9484W        W77702   5.234   1.615   1.480
 9485W        W77703  15.947  44.075   4.157
 9486W        W77704  11.296   3.837  14.796
 9487W        W77705  27.614  41.582   1.051
 9488W        W77706   1.790  24.956   4.093
 9489W        W77707  38.381  27.664  11.471
 9490W        W77708  15.063  21.735  13.483
 9491W        W77709  17.783  44.400  12.067
 9492W        W77710   0.824  24.749  13.344
 9493W        W77711  25.402  30.680   3.290
 9494W        W77712  17.254  26.455   2.833
 9495W        W77713  29.533  24.426  13.802
 9496W        W77714  14.119  41.080   2.052
 9497W        W77715   6.277   1.479  13.478
 9498W        W77716  21.479  43.205  14.529
 9499W        W77717  30.697  38.792   5.304
 9500W        W77718  30.175  29.082  14.196
 9501W        W77719  29.496  15.307  13.388
 9502W        W77720  41.173   5.539   0.436
 9503W        W77721  44.804  16.825   0.817
 9504W        W77722   7.473  24.617   0.877
 9505W        W77723   5.737   0.069   0.336
 9506W        W77724  22.984  30.578   2.866
 9507W        W77725  37.362   3.723  12.497
 9508W        W77726   3.478  10.110  14.555
 9509W        W77727  37.856  11.187   1.651
 9510W        W77728   5.109  40.372   4.186
 9511W        W77729   3.847   6.947   3.210
 9512W        W77730  12.883  31.515  12.325
 9513W        W77731  26.237   8.710  13.053
 9514W        W77732   1.450  33.654   0.741
 9515W        W77733  35.159  26.513   4.704
 9516W        W77734  17.078  17.613   0.336
 9517W        W77735  26.182  18.156   3.109
 9518W        W77736  21.232  32.480   0.180
 9519W        W77737  16.098  36.881  12.549
 9520W        W77738  44.347   2.705  14.887
 9521W        W77739  11.350  35.042  13.219
 9522W        W77740  17.230  26.925  11.915
 9523W        W77741   0.114  18.151  10.509
 9524W        W77742  14.929   6.225   1.950
 9525W        W77743  22.802  25.598  12.911
 9526W        W77744  23.313  36.920   3.203
 9527W        W77745  11.865  39.467  13.950
 9528W        W77746  34.384  16.948   0.775
 9529W        W77747  18.091  33.298   1.647
 9530W        W77748  23.200  37.594   1.694
 9531W        W77749  38.202  40.497  11.681
 9532W        W77750  31.917  18.630  10.945
 9533W        W77751   0.276   8.686   2.908
 9534W        W77752   4.730  10.735  14.793
 9535W        W77753  37.763  24.011   0.439
 9536W        W77754  20.203   5.809   4.533
 9537W        W77755  40.280  20.428   3.224
 9538W        W77756  30.506  19.512  13.369
 9539W        W77757  23.078   5.460   0.576
 9540W        W77758  41.585  10.124  12.873
 9541W        W77759  12.780   2.390   3.361
 9542W        W77760  42.263   0.712   4.009
 9543W        W77761  31.050   8.966   4.667
 9544W        W77762  41.215  24.815   3.363
 9545W        W77763  41.470   1.495   1.719
 9546W        W77764  23.525  42.697   3.131
 9547W        W77765  41.367  40.578  14.269
 9548W        W77766  10.900   4.345  14.150
 9549W        W77767  16.990  11.252   1.613
 9550W        W77768  20.554  17.779   3.669
 9551W        W77769   3.400  15.600  10.267
 9552W        W77770   7.669   1.869  13.950
 9553W        W77771   3.473   4.783   3.513
 9554W        W77772  26.220  10.097  11.949
 9555W        W77773  33.911  42.650   1.720
 9556W        W77774   0.905  17.117   2.663
 9557W        W77775  24.642   6.709  13.885
 9558W        W77776  14.879  37.353  10.398
 9559W        W77777  40.420  20.088  14.696
 9560W        W77778  14.637   7.421  14.300
 9561W        W77779  15.717  17.841  10.573
 9562W        W77780  36.563   2.744  13.820
 9563W        W77781  25.154  28.660  12.081
 9564W        W77782   2.867  40.160  10.906
 9565W        W77783  18.250  40.105   4.181
 9566W        W77784  40.447  13.121  10.968
 9567W        W77785  37.894  11.106   3.526
 9568W        W77786  21.803  42.555   0.388
 9569W        W77787  20.015  32.632   3.333
 9570W        W77788  33.350  18.537  10.536
 9571W        W77789  28.401  10.639   0.431
 9572W        W77790  25.447  31.967   3.364
 9573W        W77791  27.180  36.842  12.132
 9574W        W77792   1.198   9.340  14.343
 9575W        W77793  11.055  27.342   1.223
 9576W        W77794  42.542  10.620   1.871
 9577W        W77795   0.373  10.569  13.029
 9578W        W77796  25.704  10.729  14.472
 9579W        W77797  16.840  26.288   1.261
 9580W        W77798   9.496  21.336  11.149
 9581W        W77799  34.493  18.101  11.684
 9582W        W77800  38.893  25.514  11.540
 9583W        W77801   4.214  44.421  10.730
 9584W        W77802  29.174   0.453  10.620
 9585W        W77803   1.767   0.504  13.241
 9586W        W77804   2.746  26.153  10.757
 9587W        W77805  38.291   6.185  12.933
 9588W        W77806  35.726   6.582   3.033
 9589W        W77807   9.106   7.722   3.824
 9590W        W77808  11.278  42.897   2.580
 9591W        W77809  41.631  20.267  12.638
 9592W        W77810  19.427  11.255   2.197
 9593W        W77811  42.849  17.062  12.070
 9594W        W77812   1.804   1.945  12.551
 9595W        W77813  27.989   3.265  13.310
 9596W        W77814  40.529   5.199  11.664
 9597W        W77815  34.949  40.899  13.317
 9598W        W77816   9.638  27.719  14.762
 9599W        W77817  22.736   7.783  12.514
 9600W        W77818   5.808  30.355  14.466
 9601W        W77819  33.035  36.154  13.553
 9602W        W77820  22.247  22.519   3.709
 9603W        W77821  30.060  42.856  10.629
 9604W        W77822  43.700   0.677   4.966
 9605W        W77823  43.976   4.448  11.864
 9606W        W77824  39.855  43.278   3.730
 9607W        W77825  19.756  41.857   1.449
 9608W        W77826   8.814  17.391   0.897
 9609W        W77827  29.999  13.778   2.183
 9610W        W77828   6.258  16.913  13.800
 9611W        W77829  32.055   4.264   3.211
 9612W        W77830  17.820  40.793  13.564
 9613W        W77831  25.390  12.318   2.165
 9614W        W77832  31.506  44.264   0.705
 9615W        W77833  24.331   0.844   9.850
 9616W        W77834  40.324  11.866  14.232
 9617W        W77835  14.756  23.710  14.095
 9618W        W77836  35.678  44.014   0.734
 9619W        W77837  24.672  42.037   3.136
 9620W        W77838   2.773  16.851   1.782
 9621W        W77839  31.607   1.514  10.403
 9622W        W77840  17.100  43.013  13.899
 9623W        W77841  13.628   2.187  13.010
 9624W        W77842   4.986  26.137   4.131
 9625W        W77843  24.758  41.558  13.035
 9626W        W77844   3.235  19.761   0.471
 9627W        W77845   5.190  38.538   4.815
 9628W        W77846  21.604  17.829  11.928
 9629W        W77847  42.291  16.728   3.307
 9630W        W77848  11.690  42.865   2.283
 9631W        W77849  38.278  37.954   0.872
 9632W        W77850  27.196  18.529  13.789
 9633W        W77851  26.208  43.854   4.119
 9634W        W77852  40.036  34.491   4.595
 9635W        W77853  21.702  13.772  14.733
 9636W        W77854  44.877  26.061  13.474
 9637W        W77855  33.451  28.269   1.801
 9638W        W77856  38.957  21.275   5.062
 9639W        W77857   1.398  17.614   1.822
 9640W        W77858  39.612  27.698  12.432
 9641W        W77859  24.720   3.259   0.263
 9642W        W77860  25.916  21.148   2.003
 9643W        W77861  15.059  20.335   1.859
 9644W        W77862   2.523  30.744  13.822
 9645W        W77863  43.584  33.602   1.907
 9646W        W77864   6.093   1.410  12.961
 9647W        W77865  20.828  41.461   2.682
 9648W        W77866  43.833  17.394  11.501
 9649W        W77867  15.547  24.021  14.969
 9650W        W77868  30.641  13.175  12.853
 9651W        W77869  26.102   6.659  11.918
 9652W        W77870   2.170   4.623  11.132
 9653W        W77871   6.086  15.197   3.740
 9654W        W77872  27.611   0.553  10.937
 9655W        W77873  40.763  33.411   0.486
 9656W        W77874   7.215   2.527  12.103
 9657W        W77875   9.254  19.960  10.014
 9658W        W77876  15.750   4.139  13.751
 9659W        W77877  10.308  29.440   2.793
 9660W        W77878  22.476  24.720  12.074
 9661W        W77879  18.772  37.913   3.214
 9662W        W77880  25.228  12.720  10.763
 9663W        W77881  10.666  14.986  14.904
 9664W        W77882  32.880  18.992   2.095
 9665W        W77883  24.412  38.109  13.838
 9666W        W77884  33.029  40.076   3.794
 9667W        W77885  41.961  21.019  14.131
 9668W        W77886  30.896  20.195   3.398
 9669W        W77887   4.824   3.198  12.651
 9670W        W77888  27.257  10.797  11.790
 9671W        W77889  23.430  17.670   0.848
 9672W        W77890   0.993   0.286  12.638
 9673W        W77891  14.326   8.435   0.372
 9674W        W77892  25.058  35.934  12.128
 9675W        W77893  38.922  19.509  11.366
 9676W        W77894  16.040   5.862   3.604
 9677W        W77895  11.779   1.802   1.627
 9678W        W77896  10.427   7.908  13.019
 9679W        W77897  28.139  27.661   2.381
 9680W        W77898  12.709  43.242   1.477
 9681W        W77899  11.406   2.366  13.629
 9682W        W77900  15.501  41.764   4.519
 9683W        W77901  35.481  15.868  13.417
 9684W        W77902  12.939  31.557   3.407
 9685W        W77903  19.512  15.785  11.133
 9686W        W77904  31.636  42.837   1.237
 9687W        W77905  20.554  43.898   4.045
 9688W        W77906   9.138  29.937   4.948
 9689W        W77907  35.950  37.054   3.347
 9690W        W77908  23.766  38.994  14.560
 9691W        W77909  31.203  20.040  11.634
 9692W        W77910  13.686  31.608  11.928
 9693W        W77911   3.861  28.850  12.867
 9694W        W77912  21.754   0.855   1.572
 9695W        W77913  16.074  15.561  13.018
 9696W        W77914  30.884   5.783   4.938
 9697W        W77915   5.770  44.656   5.361
 9698W        W77916  20.773  19.577  14.927
 9699W        W77917  34.527  26.681   3.192
 9700W        W77918  11.787  29.113   1.312
 9701W        W77919  41.504  30.187   3.759
 9702W        W77920  12.830   7.886   4.506
 9703W        W77921  37.230  39.661  13.237
 9704W        W77922  14.043  20.141   3.838
 9705W        W77923  34.112   9.900  10.738
 9706W        W77924  28.632  21.926  10.958
 9707W        W77925  43.754  23.499   1.756
 9708W        W77926  12.704   2.931   3.248
 9709W        W77927   8.957  43.347   0.363
 9710W        W77928   5.894  28.673   3.822
 9711W        W77929  15.838  15.876  14.978
 9712W        W77930   4.139  36.655   2.827
 9713W        W77931  27.983  22.279   0.379
 9714W        W77932  12.352  27.312  12.030
 9715W        W77933  13.653   2.391  10.883
 9716W        W77934  25.673  28.836   3.241
 9717W        W77935  21.588  26.935   2.752
 9718W        W77936  34.996  18.447   3.256
 9719W        W77937  35.643   6.368  14.484
 9720W        W77938  21.443   5.715  12.583
 9721W        W77939   1.710  42.822   4.660
 9722W        W77940  20.256  14.351   2.672
 9723W        W77941   9.296  17.756   0.322
 9724W        W77942  44.404  28.408   1.742
 9725W        W77943  11.296   0.228  13.870
 9726W        W77944   1.975  15.732   1.429
 9727W        W77945   6.265  11.692   0.915
 9728W        W77946   0.904  16.879   0.763
 9729W        W77947   2.518  29.545  11.654
 9730W        W77948   9.204  39.374   3.616
 9731W        W77949   5.197   6.466  13.002
 9732W        W77950   2.520   3.823  14.399
 9733W        W77951   5.599   8.104   1.423
 9734W        W77952  17.817  31.339  14.817
 9735W        W77953  13.901  36.006   3.226
 9736W        W77954   5.683  33.939   1.128
 9737W        W77955   2.450  35.708   4.477
 9738W        W77956   2.399   2.454  11.559
 9739W        W77957  37.342  42.811  14.033
 9740W        W77958   9.788  40.942   0.319
 9741W        W77959  32.308  10.349  13.560
 9742W        W77960  18.555  30.061  13.926
 9743W        W77961  12.410   5.600  10.745
 9744W        W77962  44.023  38.129  14.081
 9745W        W77963   8.595  10.804  13.127
 9746W        W77964  19.694  17.231   1.057
 9747W        W77965   6.685  35.400  12.973
 9748W        W77966  15.792  33.143   1.187
 9749W        W77967  36.976  34.946   4.121
 9750W        W77968  33.163  37.025   4.093
 9751W        W77969  42.322  28.521  11.682
 9752W        W77970   9.762   4.776   0.789
 9753W        W77971  43.475  39.277   0.824
 9754W        W77972   3.847  22.573  11.597
 9755W        W77973  26.446  17.258   2.674
 9756W        W77974  34.454  30.099  11.727
 9757W        W77975   7.479  32.484  13.891
 9758W        W77976  12.041  25.378   2.298
 9759W        W77977  44.038  41.809   2.786
 9760W        W77978  30.467  18.345  11.143
 9761W        W77979  38.011  33.533  14.933
 9762W        W77980  14.885  42.353  13.065
 9763W        W77981  39.841  19.130  11.451
 9764W        W77982  30.320  20.602  11.931
 9765W        W77983  32.419   8.464  10.788
 9766W        W77984  27.082  31.081   4.732
 9767W        W77985  30.568   7.290  14.091
 9768W        W77986  25.663  10.851   1.361
 9769W        W77987  40.030  13.153   0.478
 9770W        W77988  14.198  31.262  12.885
 9771W        W77989  28.141  37.115   0.513
 9772W        W77990  35.564  36.478   3.831
 9773W        W77991  13.713  40.841   4.748
 9774W        W77992  42.888   8.388  12.048
 9775W        W77993  12.602  38.384   1.410
 9776W        W77994  21.363  31.343   4.152
 9777W        W77995  30.726  17.710   4.112
 9778W        W77996  38.369  20.804  13.485
 9779W        W77997  19.206  21.257   4.093
 9780W        W77998  39.837  30.916   0.382
 9781W        W77999   8.169  25.962   1.291
 9782W        W78000   4.874  42.625  12.731
 9783W        W78001  28.605   4.410  10.954
 9784W        W78002  44.901  24.618   2.706
 9785W        W78003   1.007  24.152  13.478
 9786W        W78004   6.431  44.523  13.002
 9787W        W78005  16.597   1.342   2.946
 9788W        W78006  40.064  25.170   1.365
 9789W        W78007   1.501  14.188  11.105
 9790W        W78008  13.555  29.383   0.998
 9791W        W78009  37.120   6.782  14.322
 9792W        W78010  14.838  21.525  11.234
 9793W        W78011  13.374  30.326  14.947
 9794W        W78012  27.040  43.357  13.087
 9795W        W78013  25.915  19.618  13.901
 9796W        W78014  34.474  30.453  14.613
 9797W        W78015   6.952  23.732  14.868
 9798W        W78016  42.364  31.360  11.639
 9799W        W78017  20.196  33.093  14.070
 9800W        W78018  10.396  38.334  11.771
 9801W        W78019  31.544  40.595   4.655
 9802W        W78020   9.123   1.892   1.352
 9803W        W78021   7.597  20.296   5.081
 9804W        W78022   1.296  16.829  14.749
 9805W        W78023   1.714   7.811   3.227
 9806W        W78024  15.252  12.233   0.304
 9807W        W78025   3.064  44.849  11.071
 9808W        W78026  31.231   9.824   3.732
 9809W        W78027  26.478   3.751   2.373
 9810W        W78028   8.340  33.618  13.505
 9811W        W78029   8.154  17.559   1.762
 9812W        W78030   0.460   5.735  12.425
 9813W        W78031  10.096  36.564   2.141
 9814W        W78032  25.071  19.588  13.111
 9815W        W78033  18.231   6.683  14.059
 9816W        W78034  10.103  42.742   0.031
 9817W        W78035   9.587  13.841  13.824
 9818W        W78036  15.069  29.546   2.057
 9819W        W78037  44.259  17.167  13.052
 9820W        W78038  26.757  40.469  13.828
 9821W        W78039   4.498   1.435  10.693
 9822W        W78040  29.436  34.573   4.656
 9823W        W78041  14.702  19.049  13.845
 9824W        W78042  20.857  36.303   9.801
 9825W        W78043  42.022  30.367   2.819
 9826W        W78044  36.471  30.983  11.607
 9827W        W78045  20.730  43.539   4.485
 9828W        W78046   5.272  25.464  13.850
 9829W        W78047  29.320  36.901   2.846
 9830W        W78048  32.339   7.243   4.995
 9831W        W78049   1.928  38.165  13.976
 9832W        W78050   5.475  35.373   1.505
 9833W        W78051   9.689   3.825   2.464
 9834W        W78052  20.327  11.291   4.601
 9835W        W78053   2.598  11.887   9.875
 9836W        W78054  38.336  42.224   4.257
 9837W        W78055  10.103  20.557  12.493
 9838W        W78056   2.402  12.375  14.852
 9839W        W78057   7.811  36.023  10.362
 9840W        W78058  10.662  38.353   0.475
 9841W        W78059  15.372   0.322  11.470
 9842W        W78060  18.583  31.503   0.303
 9843W        W78061   5.455  44.732  11.038
 9844W        W78062  22.454  38.520  12.555
 9845W        W78063  14.891  42.036  14.791
 9846W        W78064  16.145  11.232   2.860
 9847W        W78065  22.566   4.551  10.953
 9848W        W78066   3.943  11.137  11.888
 9849W        W78067   2.879  41.481  12.415
 9850W        W78068  15.670  37.993   1.277
 9851W        W78069  40.895  34.572  12.567
 9852W        W78070  42.389  41.826   1.775
 9853W        W78071  40.835   2.034   2.629
 9854W        W78072   5.017   1.068   5.197
 9855W        W78073  27.131   2.716  11.610
 9856W        W78074  44.828  24.133   1.823
 9857W        W78075  38.629   2.279  11.660
 9858W        W78076  34.033   7.710  11.372
 9859W        W78077  33.382  16.246  10.627
 9860W        W78078  38.928   5.321  10.077
 9861W        W78079  29.953  24.100   2.810
 9862W        W78080  23.023  21.582   1.323
 9863W        W78081  13.150   8.212   3.101
 9864W        W78082  14.584   7.847  13.999
 9865W        W78083  13.139  14.880   4.125
 9866W        W78084  25.678  22.340  10.689
 9867W        W78085  13.733   0.782  14.492
 9868W        W78086  33.604  18.628  12.487
 9869W        W78087  40.127  23.708   2.211
 9870W        W78088  12.945  27.249   0.494
 9871W        W78089  44.872   1.292  12.018
 9872W        W78090  24.670   6.881   1.968
 9873W        W78091  28.938  14.797  13.205
 9874W        W78092  39.486  24.600  13.348
 9875W        W78093   8.668  40.800  11.642
 9876W        W78094  22.173  41.066   0.922
 9877W        W78095  19.702   9.109   1.654
 9878W        W78096  25.887   0.167   4.220
 9879W        W78097   9.814  29.448   1.786
 9880W        W78098  44.294  35.278   3.222
 9881W        W78099  29.230  11.641   2.682
 9882W        W78100   8.980   4.354  13.351
 9883W        W78101   9.238  22.109  14.027
 9884W        W78102  18.504  40.566  12.882
 9885W        W78103  33.501  22.338   3.622
 9886W        W78104   1.788  22.186  11.155
 9887W        W78105   5.340  44.084  10.311
 9888W        W78106  40.409   2.225  13.952
 9889W        W78107   3.374   5.112   4.773
 9890W        W78108  28.607  12.201  13.866
 9891W        W78109  18.838  28.692   3.776
 9892W        W78110  26.456  27.045  13.815
 9893W        W78111  13.264  26.429   1.741
 9894W        W78112  38.474  28.529   4.478
 9895W        W78113  21.823  36.905   3.165
 9896W        W78114  36.612  36.742  10.623
 9897W        W78115  26.845   6.329   3.710
 9898W        W78116   6.059   9.606  10.273
 9899W        W78117  42.650  12.690  13.523
 9900W        W78118  36.287  22.743   4.245
 9901W        W78119  21.733   3.890   1.930
 9902W        W78120  13.069  16.632  14.553
 9903W        W78121  18.761  27.484   2.301
 9904W        W78122  19.352  16.662  14.638
 9905W        W78123  28.910  10.428  12.574
 9906W        W78124  29.408  17.242  12.062
 9907W        W78125   8.291  20.627   2.742
 9908W        W78126  11.268  29.956   3.053
 9909W        W78127  42.512  44.707   2.858
 9910W        W78128  34.337  25.612  11.131
 9911W        W78129  26.200   1.576   2.806
 9912W        W78130  12.586   7.742   1.432
 9913W        W78131  43.781  14.640   0.464
 9914W        W78132   8.635  35.233  13.837
 9915W        W78133  43.859  19.786   4.340
 9916W        W78134  20.088  12.253  14.268
 9917W        W78135   7.257   5.703  14.781
 9918W        W78136  17.281  44.042   3.722
 9919W        W78137  13.114  36.001   1.680
 9920W        W78138  44.810  28.804   2.645
 9921W        W78139   2.448  31.259   4.051
 9922W        W78140  24.248  31.913   1.142
 9923W        W78141   6.645  19.262   1.889
 9924W        W78142   4.700   3.822  11.560
 9925W        W78143  15.305   2.350   4.580
 9926W        W78144  40.845  17.703   4.137
 9927W        W78145  20.723  21.239   1.689
 9928W        W78146  43.279   5.719   1.840
 9929W        W78147  43.031  29.604  14.464
 9930W        W78148   5.612  38.340  12.459
 9931W        W78149  38.829  17.303  14.345
 9932W        W78150  13.045  28.987   3.642
 9933W        W78151  17.655  25.865  12.744
 9934W        W78152  15.819  39.907   4.235
 9935W        W78153  33.867  15.355  12.488
 9936W        W78154  41.802  19.541  14.031
 9937W        W78155  17.198  17.243   3.730
 9938W        W78156  22.239   5.203  13.862
 9939W        W78157  40.025  35.999  11.971
 9940W        W78158  43.088  25.654  11.113
 9941W        W78159  21.297  42.414   5.056
 9942W        W78160   5.095  23.227   1.547
 9943W        W78161  10.155  22.785   0.940
 9944W        W78162  16.824  39.776   0.373
 9945W        W78163  35.076  30.404  14.043
 9946W        W78164   7.707  34.063  14.064
 9947W        W78165   2.420   7.748   1.389
 9948W        W78166  30.546  16.222   3.809
 9949W        W78167  27.113   7.243  14.317
 9950W        W78168  43.424  36.822   3.688
 9951W        W78169   7.144   7.305  13.853
 9952W        W78170  36.510   7.396  14.275
 9953W        W78171   5.111  11.605  13.308
 9954W        W78172  13.622  30.479   1.480
 9955W        W78173  25.578  12.640   4.971
 9956W        W78174  11.919  38.265   1.947
 9957W        W78175  41.729   6.429  13.019
 9958W        W78176  23.447  34.397   1.318
 9959W        W78177  39.349  42.474  14.305
 9960W        W78178  38.083  36.491   0.308
 9961W        W78179  26.111   3.560  13.996
 9962W        W78180   6.888  30.896  14.783
 9963W        W78181  38.510  44.060  13.248
 9964W        W78182  20.517  39.386   1.771
 9965W        W78183   5.918  43.088   0.057
 9966W        W78184  27.760  19.164  12.086
 9967W        W78185  10.316  17.507   4.630
 9968W        W78186  10.237   5.383   4.798
 9969W        W78187  35.068   6.878   2.275
 9970W        W78188  31.003  15.383   4.389
 9971W        W78189  23.529  25.193   4.723
 9972W        W78190   8.417  31.316  14.828
 9973W        W78191  42.294   2.205  10.729
 9974W        W78192  31.130   6.243   4.939
 9975W        W78193  29.002  43.727   3.203
 9976W        W78194  10.296   1.004  12.067
 9977W        W78195  21.220  44.599   4.246
 9978W        W78196  17.125  19.000  14.813
 9979W        W78197  22.247  27.657   1.447
 9980W        W78198   4.700  34.331   3.670
 9981W        W78199  38.981  35.930   2.601
 9982W        W78200  39.730  28.023   2.205
 9983W        W78201  30.180  13.870  14.818
 9984W        W78202  19.618  16.280  11.064
 9985W        W78203   5.694  35.402   2.945
 9986W        W78204   9.170   4.171   1.728
 9987W        W78205  23.676  29.600   1.973
 9988W        W78206   9.141  24.306   0.695
 9989W        W78207  39.179  11.555  10.418
 9990W        W78208  22.209  35.474   2.744
 9991W        W78209  14.685  11.179   1.396
 9992W        W78210  13.066   1.476   1.219
 9993W        W78211  17.560  30.767   4.528
 9994W        W78212  35.982   3.925   2.742
 9995W        W78213  44.048  27.895   4.161
 9996W        W78214  23.469  20.794  13.114
 9997W        W78215  21.999  18.253  10.819
 9998W        W78216  32.433   1.879   1.876
 9999W        W78217  30.186  20.459   0.320
10000W        W78218  42.557  23.394   0.347
10001W        W78219  36.265  35.011   4.957
10002W        W78220   7.823   8.324  12.619
10003W        W78221  18.748   3.124  14.288
10004W        W78222  28.085  23.220  11.755
10005W        W78223  17.118  42.614   4.075
10006W        W78224  24.034  39.823  10.899
10007W        W78225   8.786  11.698  11.573
10008W        W78226  35.065   0.373   0.222
10009W        W78227  13.784  15.804  12.370
10010W        W78228  24.312  40.245   2.200
10011W        W78229  30.021  42.580  11.065
10012W        W78230   1.353  39.605  10.655
10013W        W78231  11.148  40.256   0.745
10014W        W78232   7.199  13.034   4.113
10015W        W78233   3.929  22.094  14.514
10016W        W78234   7.273  30.004  10.824
10017W        W78235  20.277  18.714  11.121
10018W        W78236   8.368   8.769  11.467
10019W        W78237  10.191  15.741  14.883
10020W        W78238  18.356  15.715   4.032
10021W        W78239  13.417  30.519   9.691
10022W        W78240  29.070  32.116   4.518
10023W        W78241   6.384  36.496   2.970
10024W        W78242   1.035   3.852   0.733
10025W        W78243  19.284  24.784   4.129
10026W        W78244  21.091   3.712   4.458
10027W        W78245  20.854  34.869  10.366
10028W        W78246  38.871   3.954   0.965
10029W        W78247  11.652  33.700   0.010
10030W        W78248  36.477   5.257   4.110
10031W        W78249  36.613  13.342  14.206
10032W        W78250   7.802  34.572  14.802
10033W        W78251  17.093  13.271   1.244
10034W        W78252  34.844   5.220   0.526
10035W        W78253   8.291   4.109   1.384
10036W        W78254  34.892  24.205   1.329
10037W        W78255  25.775  39.438  13.040
10038W        W78256   9.914  19.836  14.414
10039W        W78257  41.823  24.255   0.931
10040W        W78258  12.581  25.405  12.603
10041W        W78259  36.832  11.423  12.409
10042W        W78260  32.592   8.586  12.523
10043W        W78261  20.972  29.047   4.240
10044W        W78262  38.545  14.241   0.224
10045W        W78263  10.574  41.740  12.529
10046W        W78264  30.822  36.978   0.002
10047W        W78265  21.578  25.949   3.709
10048W        W78266  36.145  15.260  12.936
10049W        W78267  42.957   8.927  10.684
10050W        W78268  25.994   8.606  14.915
10051W        W78269   7.852  31.881  10.777
10052W        W78270  40.947  34.927   1.505
10053W        W78271   7.254  44.167   3.123
10054W        W78272  21.988  36.247  13.022
10055W        W78273  28.274  23.939  14.282
10056W        W78274  25.380  43.495  14.024
10057W        W78275  18.934  29.649   0.206
10058W        W78276  31.545  14.173   1.348
10059W        W78277  32.838  18.602  14.851
10060W        W78278  30.513  17.649   2.859
10061W        W78279  17.293   1.840   2.405
10062W        W78280   1.387  20.281   2.170
10063W        W78281  40.985  10.778  12.624
10064W        W78282  39.203  35.090  12.148
10065W        W78283  43.113  42.455  11.184
10066W        W78284  17.243  30.375  12.913
10067W        W78285  14.139  32.829  11.573
10068W        W78286   3.293   2.970   3.357
10069W        W78287  36.505   8.903   4.131
10070W        W78288  37.314   8.885  11.971
10071W        W78289  37.494   9.333  11.305
10072W        W78290   7.225  29.066   1.470
10073W        W78291  21.062  25.688   1.433
10074W        W78292  44.690  16.284   1.536
10075W        W78293  41.942   4.451   1.524
10076W        W78294  35.757  35.488  11.301
10077W        W78295  42.777  42.726   2.398
10078W        W78296  20.505  11.366  12.980
10079W        W78297  42.288   2.492   4.119
10080W        W78298  33.395  30.859  10.106
10081W        W78299  43.185  31.899   3.750
10082W        W78300  28.040  19.149   4.032
10083W        W78301  22.496  20.321   2.215
10084W        W78302   8.891  30.142  12.154
10085W        W78303  32.978  22.105  14.408
10086W        W78304  29.119  29.390   0.390
10087W        W78305  25.522  40.812  10.975
10088W        W78306   2.471   2.930  14.042
10089W        W78307  27.459  31.694   0.902
10090W        W78308   8.616  29.910   3.266
10091W        W78309   4.300  34.631  11.323
10092W        W78310  42.360   6.468   3.351
10093W        W78311  17.013  20.279   2.175
10094W        W78312  11.739  32.142  13.825
10095W        W78313  26.887  44.237   0.827
10096W        W78314  35.368  17.003   2.777
10097W        W78315  12.339   6.818  14.349
10098W        W78316  25.986  31.205  11.869
10099W        W78317  26.422   7.256  13.076
10100W        W78318  20.751  23.540  12.181
10101W        W78319  25.130  36.458   0.949
10102W        W78320  34.384  31.478   3.757
10103W        W78321  23.460  17.627   4.092
10104W        W78322  35.806  20.838  12.294
10105W        W78323  13.160   1.970  12.918
10106W        W78324  20.495  32.362   3.735
10107W        W78325  44.924  36.489   3.975
10108W        W78326  37.337  21.761  13.018
10109W        W78327  23.030   4.909   1.359
10110W        W78328  29.928  41.911  14.441
10111W        W78329  41.011  32.071  13.763
10112W        W78330   6.334  21.331  12.153
10113W        W78331  15.563   2.422   0.681
10114W        W78332   2.825  38.595  14.488
10115W        W78333   9.950  43.346   2.338
10116W        W78334  42.277   8.110   0.733
10117W        W78335  29.701  36.013  13.023
10118W        W78336  35.181  32.283  14.031
10119W        W78337  25.804  27.010   2.755
10120W        W78338   7.343   9.103   4.735
10121W        W78339  11.610  23.792  12.631
10122W        W78340  33.582  40.171  14.543
10123W        W78341   4.812  12.854  10.739
10124W        W78342  34.472  15.080  13.533
10125W        W78343  21.514  24.723  12.002
10126W        W78344  35.386  28.708  14.125
10127W        W78345  43.959   0.838   1.859
10128W        W78346  22.446  43.381   0.294
10129W        W78347  38.639  36.819   4.740
10130W        W78348  42.404   8.319  13.971
10131W        W78349  30.975  39.976  13.066
10132W        W78350  40.584  13.130   4.858
10133W        W78351   5.302   7.300  13.421
10134W        W78352   6.513   9.844   4.602
10135W        W78353  30.055  14.812   5.757
10136W        W78354  29.635  29.589   2.174
10137W        W78355   6.067   0.506   0.246
10138W        W78356  35.883  43.921   2.833
10139W        W78357   9.730  37.032  13.957
10140W        W78358  28.980  23.098   3.965
10141W        W78359  32.113  24.604   3.941
10142W        W78360  38.039   7.792  13.592
10143W        W78361  44.368  29.405  11.743
10144W        W78362  27.466  12.411   3.750
10145W        W78363  16.063  15.075   2.233
10146W        W78364  10.449  41.347  10.693
10147W        W78365   7.835  25.537   0.416
10148W        W78366  41.550  31.348  11.154
10149W        W78367  14.545  25.000   3.291
10150W        W78368  44.050   3.907   1.137
10151W        W78369  44.122  14.254   0.416
10152W        W78370  35.733  15.347   3.714
10153W        W78371   8.117  26.448  14.522
10154W        W78372  41.068  15.136   1.433
10155W        W78373  25.135   7.956  14.464
10156W        W78374  21.596  10.049  10.190
10157W        W78375  14.330  20.716  10.881
10158W        W78376  44.430  32.389   1.693
10159W        W78377  34.889  23.843  11.207
10160W        W78378  18.090   1.795   0.453
10161W        W78379  25.081  18.505  10.675
10162W        W78380   2.286  15.623  11.862
10163W        W78381  24.435  41.164  11.655
10164W        W78382  43.978  28.323  12.866
10165W        W78383  24.216  24.617  14.300
10166W        W78384  30.486  34.451  12.107
10167W        W78385   4.352  39.991   2.214
10168W        W78386  44.310   7.687   0.351
10169W        W78387  14.582  18.775  10.822
10170W        W78388  17.833  39.956   0.837
10171W        W78389   3.824  22.849   2.352
10172W        W78390  32.593   3.919  13.555
10173W        W78391  17.674  35.122  14.552
10174W        W78392  27.679   7.811  13.287
10175W        W78393  33.443  29.863   2.895
10176W        W78394  21.012  43.910   3.792
10177W        W78395  17.624  29.164  11.996
10178W        W78396  24.529  44.870   3.295
10179W        W78397  13.766  34.604  14.090
10180W        W78398  14.761  38.512   2.785
10181W        W78399  31.230  21.473  10.802
10182W        W78400  23.439   5.284   4.093
10183W        W78401  20.652   7.030   4.064
10184W        W78402  30.962  12.366   2.218
10185W        W78403   2.934  15.655  11.609
10186W        W78404  32.886   8.168  10.855
10187W        W78405  15.338   8.812  12.487
10188W        W78406  22.626  27.388  14.648
10189W        W78407  27.267  20.650   4.117
10190W        W78408   1.237  33.898  12.934
10191W        W78409  26.706   5.469  13.029
10192W        W78410  34.378  21.955   0.957
10193W        W78411  26.665  29.393   4.960
10194W        W78412  15.167  43.196  13.010
10195W        W78413  31.479  24.782   1.996
10196W        W78414  21.032  25.647   0.216
10197W        W78415  34.671  39.484   3.920
10198W        W78416  31.210   9.267   1.705
10199W        W78417  44.436  29.065   5.126
10200W        W78418  16.545  32.379  10.965
10201W        W78419  11.333  21.140   2.810
10202W        W78420  41.235   3.977   3.162
10203W        W78421  14.157  42.477   4.740
10204W        W78422   1.909  10.832  13.767
10205W        W78423  36.495  41.855  11.656
10206W        W78424  23.838  33.715  13.412
10207W        W78425  22.826  22.519  10.743
10208W        W78426  37.603  32.973  14.603
10209W        W78427   2.522   5.355   0.814
10210W        W78428   2.013   6.005  11.159
10211W        W78429  38.819   9.942   3.201
10212W        W78430  28.751  19.969   4.090
10213W        W78431  26.177  26.019  10.968
10214W        W78432   5.619  28.970   1.851
10215W        W78433  21.780  11.387   3.308
10216W        W78434   8.023  14.857   4.980
10217W        W78435   7.218  21.406  11.096
10218W        W78436  34.939  23.668   2.882
10219W        W78437  44.568  42.488  13.310
10220W        W78438  33.360  41.103  10.991
10221W        W78439  21.145   3.360  10.481
10222W        W78440  11.086  34.286   4.108
10223W        W78441  25.033  31.113  14.936
10224W        W78442  44.489  18.053  11.096
10225W        W78443  19.242  14.083   3.258
10226W        W78444  33.831  13.188   3.229
10227W        W78445  36.964  28.294   1.076
10228W        W78446  36.491  22.081  13.012
10229W        W78447  21.072  15.110  11.126
10230W        W78448  25.661  24.384   1.393
10231W        W78449  29.702  24.641  14.984
10232W        W78450   8.739  16.064   0.218
10233W        W78451   5.780  31.135   0.853
10234W        W78452   1.279   6.855  13.372
10235W        W78453  43.744   4.939   3.286
10236W        W78454  19.621  41.491  12.325
10237W        W78455   6.778  23.537   0.420
10238W        W78456   2.204  26.884   2.743
10239W        W78457  44.565  25.529  10.225
10240W        W78458  25.682  41.905  12.673
10241W        W78459   9.935  12.168   2.201
10242W        W78460  36.978  20.063   4.492
10243W        W78461  23.009  21.099  11.097
10244W        W78462  31.130  29.989  11.491
10245W        W78463   0.293  25.067   4.580
10246W        W78464   2.903  22.247   1.148
10247W        W78465   0.485  44.048  11.145
10248W        W78466  37.179  19.674  12.289
10249W        W78467  11.096   6.777  14.718
10250W        W78468  13.267  39.230   1.364
10251W        W78469   9.144   9.321  13.833
10252W        W78470  29.095  17.668   0.928
10253W        W78471  42.317  39.040   4.868
10254W        W78472  42.909  12.602   4.850
10255W        W78473  35.967  24.396   0.458
10256W        W78474  24.654  14.210   1.888
10257W        W78475  22.507   4.179  12.213
10258W        W78476  38.917  38.879  14.450
10259W        W78477   6.096   4.376  13.474
10260W        W78478  24.464  13.736   2.749
10261W        W78479   8.294  20.124   5.079
10262W        W78480   2.192  35.333  11.242
10263W        W78481  39.076  40.967   4.109
10264W        W78482  40.374  20.576  10.790
10265W        W78483  37.176   3.891   3.272
10266W        W78484  15.736  35.315   4.457
10267W        W78485  10.235  24.030  13.498
10268W        W78486  30.184  21.189   4.089
10269W        W78487   1.247  34.420  12.335
10270W        W78488  34.198  22.148   2.804
10271W        W78489  23.670   9.167   0.051
10272W        W78490   4.758  34.907  13.870
10273W        W78491  22.625   5.957   4.090
10274W        W78492   4.075  43.146   5.002
10275W        W78493   8.683   6.242  10.466
10276W        W78494   6.327  44.585  14.446
10277W        W78495  31.022   4.693   1.408
10278W        W78496   0.297  34.062  13.514
10279W        W78497  21.299  21.747   2.921
10280W        W78498  44.448  12.650   1.679
10281W        W78499  28.877  13.273   2.132
10282W        W78500  21.768  18.110   1.170
10283W        W78501  14.122   5.730   3.632
10284W        W78502   5.158   4.797   1.165
10285W        W78503  38.822  14.639   0.452
10286W        W78504  20.865   8.244   2.907
10287W        W78505  15.495   8.137   1.329
10288W        W78506  19.209   7.478  11.242
10289W        W78507  28.036  10.762  14.332
10290W        W78508  27.700  43.043   1.478
10291W        W78509  33.916  32.320  11.217
10292W        W78510  38.805   7.869   2.288
10293W        W78511  17.850  35.038   0.584
10294W        W78512  35.972  36.621   0.665
10295W        W78513   4.657   6.636  13.497
10296W        W78514   7.931  28.365  13.031
10297W        W78515  21.313  43.064  11.315
10298W        W78516  37.947  19.673  10.536
10299W        W78517  29.218  16.590   0.367
10300W        W78518   8.294  22.481   4.313
10301W        W78519   1.776  20.110  12.446
10302W        W78520  39.040   4.842  12.905
10303W        W78521  34.109  27.933  13.030
10304W        W78522  37.895  28.088   0.879
10305W        W78523  24.543  29.535  14.944
10306W        W78524  33.715   6.307  14.006
10307W        W78525   8.134   5.729   0.035
10308W        W78526  30.453  42.268  13.055
10309W        W78527  37.826  24.436  12.432
10310W        W78528   4.190  29.442   3.844
10311W        W78529  36.317  41.985   4.486
10312W        W78530  39.635   6.274   3.656
10313W        W78531  14.087  32.373  12.032
10314W        W78532  18.713  29.382  11.873
10315W        W78533  23.627  22.630   2.862
10316W        W78534   7.340  31.594  13.066
10317W        W78535  26.722   7.436  14.614
10318W        W78536   3.473  26.974  11.568
10319W        W78537  21.545  19.317  13.469
10320W        W78538  27.994  17.264  10.295
10321W        W78539  28.342  34.844  12.051
10322W        W78540  43.466   8.077  10.626
10323W        W78541  28.062  32.306   1.851
10324W        W78542  12.802  17.565  14.465
10325W        W78543  18.313   2.677   3.508
10326W        W78544  20.181  38.831   1.204
10327W        W78545  42.438  27.767  13.028
10328W        W78546  39.562   9.300   1.338
10329W        W78547  38.041  12.572  12.864
10330W        W78548  28.412  28.682   1.575
10331W        W78549  43.504  13.090   0.351
10332W        W78550  38.533  20.923   4.832
10333W        W78551  29.586   6.986   4.196
10334W        W78552  29.615  24.860  11.644
10335W        W78553  37.858  39.115   4.099
10336W        W78554  33.248   8.772  13.081
10337W        W78555   9.726  37.806  10.815
10338W        W78556  40.820  27.574   0.858
10339W        W78557  38.961   0.989   1.434
10340W        W78558  37.797  44.011   4.064
10341W        W78559  26.660  17.629  14.582
10342W        W78560  19.280   5.974  14.411
10343W        W78561  37.900   2.237  14.797
10344W        W78562  31.349  22.586  11.206
10345W        W78563   4.262  17.280   1.482
10346W        W78564  31.066  35.867   1.003
10347W        W78565  13.977  11.582   0.894
10348W        W78566  41.258  33.581   3.560
10349W        W78567   1.200  36.884  12.984
10350W        W78568  34.488  22.595   3.517
10351W        W78569  24.327  38.561   0.837
10352W        W78570  12.246  39.354   4.614
10353W        W78571   2.460   5.432  11.580
10354W        W78572   1.506  37.452  14.360
10355W        W78573  44.034  26.452   4.605
10356W        W78574  15.039  21.263   2.624
10357W        W78575   3.799  40.849  11.803
10358W        W78576  19.720  27.938   1.855
10359W        W78577  38.930  16.293  14.369
10360W        W78578  22.276   1.663   4.160
10361W        W78579  32.551  41.506   0.480
10362W        W78580   2.114   4.140  12.879
10363W        W78581  36.418  19.785  10.794
10364W        W78582   2.301  44.364  10.536
10365W        W78583  39.961  30.971   2.237
10366W        W78584  23.135  21.770  14.384
10367W        W78585  16.091  19.059   2.653
10368W        W78586  33.539  22.243  12.374
10369W        W78587  27.382   8.133  12.951
10370W        W78588  42.750  34.457  12.134
10371W        W78589  28.183  30.972   3.337
10372W        W78590  30.533  23.338  14.563
10373W        W78591  33.696  25.102   2.214
10374W        W78592  19.653   8.691   0.298
10375W        W78593  28.457  18.832   1.289
10376W        W78594  27.508  12.823  14.540
10377W        W78595  23.163  21.711   4.413
10378W        W78596   4.226  36.481  10.883
10379W        W78597   0.336  39.247  14.949
10380W        W78598  27.168   0.863  11.617
10381W        W78599   0.046  14.821   1.275
10382W        W78600  32.794   8.113   4.214
10383W        W78601  44.100  43.239   3.734
10384W        W78602  25.906  19.171   2.561
10385W        W78603  32.371  16.241  10.620
10386W        W78604   6.001  11.128   3.323
10387W        W78605  40.360   0.243   3.303
10388W        W78606  10.701  27.969   0.491
10389W        W78607   0.002  38.353  10.757
10390W        W78608   6.515  33.158   1.996
10391W        W78609  38.896  43.355   4.576
10392W        W78610   8.909  27.259   4.143
10393W        W78611  41.356  33.998   3.223
10394W        W78612  12.856  24.923  11.390
10395W        W78613   3.952  13.824   2.547
10396W        W78614  33.442   8.378  11.645
10397W        W78615  38.353   2.190  13.948
10398W        W78616  16.137   1.766  10.794
10399W        W78617  36.491   5.012   2.671
10400W        W78618  27.530  12.951  10.970
10401W        W78619  35.041  23.266  11.866
10402W        W78620  36.736  28.890  14.851
10403W        W78621  19.718  21.105   2.966
10404W        W78622  12.526  42.000   4.568
10405W        W78623  39.495  14.323  13.303
10406W        W78624  14.650  37.955   4.765
10407W        W78625   7.072  24.197   4.161
10408W        W78626   3.817  22.712   4.926
10409W        W78627  20.729  13.237   0.249
10410W        W78628  31.159  17.793  11.875
10411W        W78629   2.923  15.287  12.018
10412W        W78630  20.989  13.221  11.668
10413W        W78631   8.194  19.916  12.698
10414W        W78632  43.042  36.041   4.703
10415W        W78633  19.578  27.023   4.850
10416W        W78634  44.818  42.196   0.280
10417W        W78635  21.902   8.127   2.818
10418W        W78636  35.863  39.621   1.176
10419W        W78637  21.704  37.833   3.047
10420W        W78638  17.974  32.152   2.804
10421W        W78639  36.230   9.511  11.603
10422W        W78640   2.674  20.164  13.409
10423W        W78641   4.001   8.625   4.390
10424W        W78642  30.939  34.391  12.607
10425W        W78643  12.308  33.896   1.178
10426W        W78644  20.755  38.310  14.310
10427W        W78645  37.460  35.573  12.932
10428W        W78646  20.042  17.928  10.620
10429W        W78647  39.985  12.522   4.152
10430W        W78648  20.964  10.258   0.293
10431W        W78649  31.383  23.079  13.051
10432W        W78650  32.971  17.562  10.659
10433W        W78651  12.603  36.095   4.543
10434W        W78652  26.109   9.208  10.626
10435W        W78653  19.229   2.896  14.494
10436W        W78654   0.764  29.616  13.148
10437W        W78655  29.469  13.605   2.250
10438W        W78656  24.001   5.699   2.781
10439W        W78657  28.516  40.988  14.368
10440W        W78658  35.702  27.454   4.403
10441W        W78659  20.009  11.770  10.384
10442W        W78660  18.759  22.669  12.652
10443W        W78661  13.165   1.466   3.242
10444W        W78662   9.401  38.430  13.032
10445W        W78663  44.512   4.775   3.695
10446W        W78664  43.224  24.422  11.062
10447W        W78665  43.877  28.011   0.615
10448W        W78666  33.836  35.808  12.660
10449W        W78667  35.555  38.309  14.769
10450W        W78668  15.860  32.394   3.202
10451W        W78669  26.016   6.367   2.197
10452W        W78670  26.478  13.788  10.639
10453W        W78671  35.009  31.870   2.228
10454W        W78672  30.498  21.046  13.078
10455W        W78673  42.839   4.710   0.322
10456W        W78674  21.119  44.492   1.389
10457W        W78675  11.037  14.350  11.570
10458W        W78676  11.050  40.599  14.729
10459W        W78677  18.291   1.301  13.152
10460W        W78678  29.460   8.002   4.227
10461W        W78679  18.422  41.208   3.636
10462W        W78680   4.884  26.367   4.607
10463W        W78681  15.608  24.255  11.273
10464W        W78682   0.010  21.044   1.712
10465W        W78683   5.357  10.364  10.606
10466W        W78684  28.897  24.428  14.395
10467W        W78685  33.138  15.748  11.912
10468W        W78686   8.387  39.438  12.703
10469W        W78687  41.595  26.687  13.451
10470W        W78688  30.855  12.803  13.303
10471W        W78689   0.502  17.190   0.811
10472W        W78690  36.525  26.183  13.759
10473W        W78691  17.131  25.017   2.233
10474W        W78692  11.032  15.792   1.838
10475W        W78693   5.368   7.478   4.103
10476W        W78694  18.850  19.610  12.371
10477W        W78695  13.098  10.407  11.120
10478W        W78696  35.280  12.291  14.213
10479W        W78697  27.205  23.097  11.900
10480W        W78698   1.333  35.539  12.077
10481W        W78699  44.003  21.220  10.556
10482W        W78700   5.684  36.558   2.745
10483W        W78701  19.066  34.041   0.022
10484W        W78702  20.753  20.382  13.475
10485W        W78703  40.094  12.295  12.630
10486W        W78704   0.818   6.640  10.006
10487W        W78705  33.731   8.368   4.260
10488W        W78706  35.554   5.716   1.884
10489W        W78707  31.394  27.047   2.600
10490W        W78708  16.849   6.661   0.446
10491W        W78709  19.605  28.160  13.950
10492W        W78710  22.378  20.858   1.445
10493W        W78711  18.656   1.419  13.518
10494W        W78712  30.477  31.297   2.631
10495W        W78713  34.366  34.406   3.277
10496W        W78714   3.458  44.752   2.862
10497W        W78715  26.404   0.518   1.735
10498W        W78716   4.962  44.313   4.643
10499W        W78717   6.328   2.667  10.643
10500W        W78718  10.072  25.253   4.910
10501W        W78719   4.620   9.109  14.305
10502W        W78720  13.370  33.729  13.435
10503W        W78721  39.749  18.768   3.780
10504W        W78722   2.056  16.341   3.650
10505W        W78723   0.394   7.199  10.284
10506W        W78724   8.921   0.389   0.818
10507W        W78725  24.997  22.066  13.003
10508W        W78726  42.474   5.447   3.389
10509W        W78727  10.844  34.048   2.355
10510W        W78728  37.901  29.443   1.681
10511W        W78729  19.180  10.109   2.305
10512W        W78730  24.679  21.523  14.826
10513W        W78731  24.114  26.601  11.628
10514W        W78732  14.061  26.276  12.987
10515W        W78733  44.453  24.124   0.015
10516W        W78734  41.425  41.578   3.695
10517W        W78735  43.753  29.653   2.691
10518W        W78736   5.941  25.175   1.562
10519W        W78737  33.113  44.475  12.958
10520W        W78738   0.388  19.820   1.710
10521W        W78739   5.740   2.633  14.511
10522W        W78740   2.632  11.792  13.923
10523W        W78741  38.997   6.754  13.763
10524W        W78742  44.909  14.270  10.680
10525W        W78743  38.778   8.829  11.964
10526W        W78744   4.418   7.279   3.777
10527W        W78745  30.712   9.190  13.412
10528W        W78746  37.596  16.103  14.790
10529W        W78747  23.862   2.790   1.401
10530W        W78748  38.805  20.976   2.691
10531W        W78749  15.902  11.705   0.478
10532W        W78750  40.526  38.642   0.976
10533W        W78751   9.180  22.808   2.828
10534W        W78752  15.196  28.210   1.227
10535W        W78753  39.376  38.073   4.601
10536W        W78754  33.826   1.852  14.527
10537W        W78755   5.147  22.323   3.736
10538W        W78756   4.227  18.514   1.811
10539W        W78757  37.298  20.067   2.299
10540W        W78758  27.440  15.556  14.220
10541W        W78759  23.239  28.113   3.753
10542W        W78760  21.320   8.874   1.807
10543W        W78761  40.929   0.968  12.847
10544W        W78762   0.472   2.033  11.086
10545W        W78763  14.776  38.762  12.672
10546W        W78764  16.269   6.387  13.302
10547W        W78765   2.033  22.358  11.578
10548W        W78766  31.019  29.197   5.070
10549W        W78767   8.390  26.526  12.395
10550W        W78768  20.469  26.365   3.123
10551W        W78769  11.729  41.849  10.641
10552W        W78770  43.297  28.551  13.167
10553W        W78771  37.587   9.779  11.039
10554W        W78772  25.382  38.815   1.250
10555W        W78773  19.174   3.259  12.523
10556W        W78774  44.532  39.318   1.228
10557W        W78775  23.593  19.576  13.505
10558W        W78776   0.891  32.108   4.126
10559W        W78777  10.400   0.071  11.116
10560W        W78778   1.759  37.675  12.167
10561W        W78779  39.226  12.098   4.566
10562W        W78780  34.486  34.186  12.587
10563W        W78781  32.996  26.182  14.614
10564W        W78782  34.886  25.214  14.387
10565W        W78783  41.357   7.911  12.506
10566W        W78784  32.194  36.017   2.242
10567W        W78785   1.370   8.840  12.153
10568W        W78786  26.093  23.557   1.797
10569W        W78787   6.641  44.974   2.240
10570W        W78788  32.414  33.482  14.480
10571W        W78789   3.637  37.998  13.458
10572W        W78790  13.934  23.687  14.707
10573W        W78791   4.653  38.443  12.525
10574W        W78792  21.423  35.496  13.063
10575W        W78793  26.944  43.816  13.527
10576W        W78794  30.597  19.595   0.710
10577W        W78795   9.861  44.558  12.980
10578W        W78796  35.815  11.104   3.676
10579W        W78797  32.996   1.387   0.416
10580W        W78798  14.318  32.995   1.434
10581W        W78799  40.287   1.607   1.710
10582W        W78800  38.058  26.465   3.793
10583W        W78801  39.265  38.328   1.950
10584W        W78802  19.583   2.014   2.990
10585W        W78803  17.293  44.953   4.506
10586W        W78804   5.765   4.833  13.650
10587W        W78805  34.444  43.484   0.828
10588W        W78806  44.467  15.264   4.904
10589W        W78807  15.534   9.430  13.408
10590W        W78808   3.001  36.396  13.914
10591W        W78809  34.822   7.195  13.275
10592W        W78810  17.647  28.536  11.073
10593W        W78811  20.102  25.151   1.137
10594W        W78812   0.768  11.351   1.021
10595W        W78813  13.233  39.518   3.714
10596W        W78814  25.626  34.045  11.711
10597W        W78815  37.452  32.711   2.751
10598W        W78816  13.600  19.476   2.746
10599W        W78817   8.988   8.261  10.817
10600W        W78818  11.615  19.090  13.974
10601W        W78819  43.039  35.878  10.207
10602W        W78820  33.040  31.076  13.610
10603W        W78821  33.609   4.611   4.270
10604W        W78822  17.195  15.535   1.465
10605W        W78823  22.957  16.480  12.799
10606W        W78824   2.808  29.470  14.758
10607W        W78825  39.508  36.497  12.321
10608W        W78826  31.549   4.495  14.304
10609W        W78827  11.795  34.569  10.358
10610W        W78828  32.427  12.209   1.923
10611W        W78829  33.598  34.058  11.696
10612W        W78830  34.684  42.522   2.132
10613W        W78831  41.472   7.622  13.435
10614W        W78832  12.263  11.102   2.927
10615W        W78833  11.855  11.569   1.772
10616W        W78834  16.283   1.208  13.107
10617W        W78835  44.410  18.593   1.978
10618W        W78836  16.805  37.444   3.353
10619W        W78837   3.733  18.246  13.809
10620W        W78838  37.835  37.464  10.153
10621W        W78839  12.309  36.911   0.870
10622W        W78840  42.487  38.805   0.228
10623W        W78841  31.167   6.775   1.610
10624W        W78842  34.525  33.549  11.426
10625W        W78843  10.017  13.811  11.023
10626W        W78844  13.367  38.408   3.128
10627W        W78845   5.818   2.920  10.680
10628W        W78846  34.839  39.249   2.973
10629W        W78847  13.919   5.711  12.902
10630W        W78848  24.589  21.296  14.353
10631W        W78849   2.334  20.839   2.219
10632W        W78850   9.759  14.708  14.831
10633W        W78851   4.328   2.996   2.328
10634W        W78852  23.242  43.862   2.627
10635W        W78853  13.126  26.221  13.515
10636W        W78854  20.539   4.795  14.297
10637W        W78855  27.273  32.035   4.801
10638W        W78856  15.263  21.690   4.660
10639W        W78857  15.653  10.299  14.925
10640W        W78858  17.813  25.664   3.827
10641W        W78859  28.364  33.785   0.511
10642W        W78860  28.664  37.274   1.361
10643W        W78861  37.553  29.425  11.751
10644W        W78862  11.782   8.315   2.742
10645W        W78863  44.030  19.543   0.506
10646W        W78864  44.985  23.908   3.129
10647W        W78865  15.486   6.694  14.367
10648W        W78866  37.565   1.180   0.827
10649W        W78867  44.105  25.314   3.897
10650W        W78868  19.187  17.407   2.279
10651W        W78869  30.040  39.036   1.160
10652W        W78870  23.239  33.138   0.620
10653W        W78871   9.624  38.073  12.266
10654W        W78872  14.115  13.776  14.603
10655W        W78873  31.102   2.429  12.813
10656W        W78874   3.993  17.657   0.588
10657W        W78875  31.041   0.394   3.532
10658W        W78876  33.899  17.661   2.783
10659W        W78877   6.678   3.168   3.720
10660W        W78878   4.150   2.209  13.113
10661W        W78879   3.668  44.418   9.791
10662W        W78880  41.177   7.948  14.371
10663W        W78881   4.233  24.404  10.737
10664W        W78882  31.528   2.640  13.823
10665W        W78883  38.842  32.867  13.278
10666W        W78884  24.199  20.960  14.376
10667W        W78885  40.088  28.562   3.440
10668W        W78886  43.928  35.088   4.219
10669W        W78887  19.363  15.869  13.334
10670W        W78888  23.699  15.749   1.473
10671W        W78889  15.178  32.960   0.946
10672W        W78890   9.634  15.287  13.919
10673W        W78891  36.947  37.079  14.408
10674W        W78892  16.418  30.661   3.180
10675W        W78893  20.647  33.431   4.034
10676W        W78894  27.486  29.929  13.927
10677W        W78895  29.425  17.543  11.538
10678W        W78896  36.075  22.179   1.396
10679W        W78897  19.035  11.879   0.959
10680W        W78898  43.209  43.423  13.885
10681W        W78899  17.762  36.844  11.198
10682W        W78900   1.409  41.400  12.318
10683W        W78901   9.302  12.623   4.548
10684W        W78902   9.766  38.089  14.937
10685W        W78903  30.537  32.186   1.772
10686W        W78904  35.425  10.161  11.175
10687W        W78905   6.806   5.607  11.199
10688W        W78906  26.078  42.014  13.432
10689W        W78907   8.915  17.695  12.519
10690W        W78908   3.224  24.850   1.181
10691W        W78909   0.908  24.463   2.335
10692W        W78910  15.248  26.582  10.565
10693W        W78911  20.871  37.308  11.105
10694W        W78912  41.650   5.826  11.251
10695W        W78913   8.332  11.420  11.587
10696W        W78914  23.229  11.321   4.242
10697W        W78915  33.435  17.058   2.738
10698W        W78916  36.788   1.955   3.167
10699W        W78917   8.717  30.185  14.389
10700W        W78918   3.926  26.919   2.052
10701W        W78919  14.597  15.088   0.501
10702W        W78920  38.307   7.936  12.008
10703W        W78921  33.439  35.313   3.757
10704W        W78922   3.703  43.041  13.871
10705W        W78923  38.398  33.634   4.216
10706W        W78924  38.213  21.692   4.643
10707W        W78925  29.995  37.493   1.708
10708W        W78926   9.794  11.386  11.514
10709W        W78927  31.083  39.314  11.940
10710W        W78928  13.264  31.818  12.131
10711W        W78929   2.731   5.244   0.349
10712W        W78930  28.468  27.743   4.643
10713W        W78931   0.388  12.584  10.632
10714W        W78932  10.693  38.798   0.939
10715W        W78933  39.529  27.006   1.799
10716W        W78934  11.678  29.497  12.163
10717W        W78935  23.675  40.932  10.620
10718W        W78936  13.547  16.087  10.902
10719W        W78937  14.022  12.117   4.437
10720W        W78938  25.051  25.164  14.496
10721W        W78939  44.376  27.091   2.319
10722W        W78940  12.854   4.649  14.428
10723W        W78941   0.316  16.077  13.502
10724W        W78942   0.011  39.010   2.472
10725W        W78943  42.541   4.982  12.753
10726W        W78944  26.470  39.017  13.023
10727W        W78945  31.114  20.220  12.107
10728W        W78946  34.434  21.338  13.926
10729W        W78947  32.133  21.159   3.629
10730W        W78948  34.571  14.527  14.797
10731W        W78949   9.349   6.286   0.000
10732W        W78950   8.859  38.609  12.076
10733W        W78951  39.069   3.795   0.500
10734W        W78952  15.471  42.423   5.119
10735W        W78953   2.282  25.209   2.411
10736W        W78954   2.767  24.955   2.571
10737W        W78955  18.025  14.039  11.618
10738W        W78956  28.322  20.470   0.024
10739W        W78957  15.185  34.938  11.900
10740W        W78958  16.574  14.865  10.190
10741W        W78959   0.368   1.228   4.668
10742W        W78960  37.147  12.256  12.977
10743W        W78961  34.151   1.404  13.999
10744W        W78962  44.100  21.092  12.493
10745W        W78963  37.986  38.438  12.757
10746W        W78964   6.905  11.699  10.767
10747W        W78965  40.117   1.554  13.894
10748W        W78966  12.705  19.323  12.927
10749W        W78967  16.475   7.573  11.553
10750W        W78968   7.898  14.077   3.574
10751W        W78969  28.395  39.900   0.934
10752W        W78970  44.818  35.475   1.233
10753W        W78971   4.279  39.914   3.082
10754W        W78972  29.696   0.370   4.316
10755W        W78973  11.322  14.138   1.286
10756W        W78974  16.010  44.052  13.062
10757W        W78975  12.848  34.130   3.710
10758W        W78976  12.211  20.070   1.666
10759W        W78977   7.225  11.162  11.150
10760W        W78978  36.504  44.316   2.807
10761W        W78979  38.056  37.885  14.027
10762W        W78980   4.951  38.431  12.110
10763W        W78981  16.591   4.773   3.628
10764W        W78982  14.984  30.532  13.104
10765W        W78983   6.254   1.708   4.076
10766W        W78984  16.311  25.673  10.770
10767W        W78985  41.739  35.153   1.165
10768W        W78986   4.747  24.529   2.768
10769W        W78987   5.333  16.845   5.532
10770W        W78988  16.920   0.675  10.385
10771W        W78989  24.096  19.566   3.248
10772W        W78990  23.577  33.207  13.521
10773W        W78991  28.489  24.767  11.129
10774W        W78992   0.165  30.226  13.030
10775W        W78993  17.966  18.544  13.679
10776W        W78994  42.135   4.217   1.940
10777W        W78995   8.461  20.012   3.483
10778W        W78996  34.350  22.058   0.442
10779W        W78997  35.983  32.119   4.388
10780W        W78998  15.322  15.789  14.898
10781W        W78999  39.865  18.097   2.899
10782W        W79000  23.029  34.471  13.812
10783W        W79001  38.454   5.181   3.129
10784W        W79002  40.286   9.416   3.770
10785W        W79003  32.934  12.794   0.911
10786W        W79004  27.576  24.710  13.014
10787W        W79005  36.561   8.063   1.804
10788W        W79006  43.540  25.505   4.837
10789W        W79007  35.126   3.900   1.690
10790W        W79008  19.298  24.971   0.510
10791W        W79009  22.906  38.150   4.220
10792W        W79010  33.138  18.130   1.324
10793W        W79011  28.191  33.179  14.504
10794W        W79012  23.675  27.613  10.853
10795W        W79013  30.576  24.479   0.521
10796W        W79014  14.809   1.253   3.657
10797W        W79015  35.459   6.426   4.599
10798W        W79016  24.704  19.158   1.828
10799W        W79017  25.661  39.035  10.670
10800W        W79018  44.411  26.249   4.298
10801W        W79019  42.963  38.877   4.219
10802W        W79020  14.242  12.723  12.090
10803W        W79021  27.647  36.455   2.842
10804W        W79022  34.368  17.578  12.421
10805W        W79023  28.169  31.368  13.968
10806W        W79024  42.034  15.284  11.077
10807W        W79025   3.712  17.049   3.716
10808W        W79026  32.954  37.634  13.966
10809W        W79027   0.776  25.517  11.655
10810W        W79028  28.843  37.037  14.859
10811W        W79029  27.571  33.535  14.037
10812W        W79030   2.021  31.549   4.043
10813W        W79031   3.877  12.628  10.757
10814W        W79032  38.295   8.857  12.186
10815W        W79033   8.672  28.597   2.833
10816W        W79034   5.960   3.234   2.378
10817W        W79035  19.997  27.083  12.821
10818W        W79036   9.700  24.692  14.501
10819W        W79037  41.963  30.182  13.679
10820W        W79038  35.169   1.518  12.947
10821W        W79039   5.812  13.307  11.501
10822W        W79040  36.645  44.052   1.242
10823W        W79041  41.628  36.261  12.898
10824W        W79042  12.002  26.519   5.127
10825W        W79043  22.011  14.820   4.647
10826W        W79044  23.758  44.033  13.058
10827W        W79045  34.445  25.075  10.960
10828W        W79046  41.849  34.380   2.791
10829W        W79047  21.776  35.026   1.071
10830W        W79048  14.786   4.680   3.823
10831W        W79049  29.460  20.499  14.827
10832W        W79050  22.959   2.971   3.161
10833W        W79051  44.382  18.196  12.530
10834W        W79052  20.265  15.658   2.713
10835W        W79053  16.207  27.121   4.765
10836W        W79054  28.561  28.488  10.937
10837W        W79055  22.549   9.510  12.136
10838W        W79056  15.834  29.719   3.145
10839W        W79057  34.465  23.578   1.954
10840W        W79058  26.850  43.892  14.977
10841W        W79059  38.544  10.666  12.504
10842W        W79060  38.749  33.901  11.626
10843W        W79061   3.106  40.961   3.750
10844W        W79062  17.546  26.125  10.681
10845W        W79063  39.965  15.764   0.718
10846W        W79064  43.436  28.125   2.412
10847W        W79065  17.672   2.411  12.983
10848W        W79066  43.384  16.637  14.310
10849W        W79067   5.761  10.362   2.824
10850W        W79068  32.435   0.233   3.676
10851W        W79069  32.062  18.125   1.628
10852W        W79070  31.195  36.090  13.902
10853W        W79071  17.283  16.583   3.020
10854W        W79072  19.166  37.484  14.324
10855W        W79073  27.216  35.414  14.477
10856W        W79074  23.102  26.019  12.991
10857W        W79075  40.346   7.263  14.208
10858W        W79076  29.784   1.521  13.629
10859W        W79077   6.226  13.145  12.902
10860W        W79078  29.387  22.400   1.238
10861W        W79079  29.353  36.142   4.330
10862W        W79080  17.136  25.044  10.800
10863W        W79081   9.239  29.262   3.437
10864W        W79082   9.734  37.832   2.732
10865W        W79083  41.390   3.202  14.710
10866W        W79084  36.095   1.176   4.945
10867W        W79085  24.222   7.444  11.128
10868W        W79086  42.429  21.693   3.630
10869W        W79087  43.651  39.392  14.372
10870W        W79088  40.653  14.626   1.871
10871W        W79089  16.224  16.807  13.525
10872W        W79090  30.496  25.274  13.828
10873W        W79091  35.033   2.715  12.345
10874W        W79092  33.700  39.305   4.247
10875W        W79093  39.775  37.513  14.397
10876W        W79094  28.809  37.022  11.453
10877W        W79095   1.450  31.039  13.421
10878W        W79096   8.255  32.832  14.891
10879W        W79097  20.683  14.193   4.973
10880W        W79098  38.091  31.909   1.825
10881W        W79099   0.968  39.518  13.941
10882W        W79100  21.099  18.173  13.013
10883W        W79101  24.206  20.990  11.506
10884W        W79102   0.858  19.631  13.696
10885W        W79103   7.735  42.324   1.794
10886W        W79104  37.892  37.154  13.462
10887W        W79105   9.831  27.652  12.459
10888W        W79106  32.039  22.731   1.212
10889W        W79107  31.314  28.141   1.303
10890W        W79108  39.056   5.136  14.863
10891W        W79109  32.528  38.119  12.162
10892W        W79110  14.128   7.258  11.605
10893W        W79111  41.832  37.578  14.830
10894W        W79112  31.532  11.855  12.906
10895W        W79113   4.326  20.636  12.703
10896W        W79114   0.333  15.746   3.598
10897W        W79115   0.698   2.964  12.086
10898W        W79116  32.897  24.734  14.693
10899W        W79117  20.514  21.200  13.463
10900W        W79118   7.326  16.160   2.419
10901W        W79119  26.005  13.487  12.139
10902W        W79120   9.020  15.629   0.361
10903W        W79121  26.435  32.906  11.461
10904W        W79122   2.285  23.548   0.324
10905W        W79123   9.732   4.561   4.579
10906W        W79124  44.158  32.547  14.057
10907W        W79125  15.729  27.093  13.369
10908W        W79126  16.238  29.356  12.290
10909W        W79127  11.144  15.331  13.788
10910W        W79128  16.918   1.962  10.172
10911W        W79129  12.981  36.170   0.748
10912W        W79130  15.724   1.496  13.893
10913W        W79131  21.983   8.852  10.627
10914W        W79132  26.601  26.590  12.161
10915W        W79133  38.286  41.828   0.802
10916W        W79134   9.411  18.098  11.432
10917W        W79135  43.470  43.965   4.159
10918W        W79136   4.330  15.875  13.000
10919W        W79137   1.254  10.624   2.850
10920W        W79138  18.946  10.229   1.845
10921W        W79139   9.699  28.349   3.614
10922W        W79140  31.257  43.212   1.245
10923W        W79141  38.417  23.101   2.760
10924W        W79142  14.597  32.437  14.917
10925W        W79143  18.543  43.019  10.199
10926W        W79144  13.769  14.060  12.044
10927W        W79145   7.964  44.731   3.343
10928W        W79146   4.843  25.325   1.034
10929W        W79147  21.786  32.020  12.115
10930W        W79148  16.674  19.222   4.635
10931W        W79149  37.216  16.340   2.656
10932W        W79150  28.661  31.654  14.978
10933W        W79151   0.175  14.545  13.441
10934W        W79152  38.963  35.670  12.999
10935W        W79153  15.696  23.729   1.750
10936W        W79154  39.600  31.376   0.271
10937W        W79155  28.126  18.542  10.295
10938W        W79156  14.653  31.178   3.909
10939W        W79157  19.410   1.961  14.362
10940W        W79158  12.849  16.077  10.402
10941W        W79159  13.075   0.129   2.318
10942W        W79160  25.736   8.265  13.794
10943W        W79161  13.292   5.185   1.183
10944W        W79162  37.937  38.057  11.618
10945W        W79163  29.284  38.015  11.988
10946W        W79164  30.416  31.041  13.425
10947W        W79165  26.136  32.103  11.521
10948W        W79166   4.966   3.442   0.724
10949W        W79167  26.015  18.741   3.765
10950W        W79168  44.822  20.590  11.451
10951W        W79169  10.197  37.583  13.469
10952W        W79170  27.012  10.395  11.110
10953W        W79171  35.142  20.415   4.435
10954W        W79172  15.270  34.663  13.914
10955W        W79173  25.736  41.804  14.464
10956W        W79174  28.372  17.408   4.131
10957W        W79175  29.541  27.955   2.137
10958W        W79176  12.138   3.259   3.160
10959W        W79177   7.966   8.289   0.969
10960W        W79178  24.211  43.824  11.938
10961W        W79179  38.439  24.534   4.599
10962W        W79180   8.257  18.734  11.469
10963W        W79181   5.724   4.707   9.713
10964W        W79182  41.908  13.553   3.767
10965W        W79183  31.564  13.932   0.718
10966W        W79184  14.061  23.618   3.382
10967W        W79185  25.661  31.997   1.780
10968W        W79186  17.581  43.824  13.945
10969W        W79187  42.781  20.164   3.334
10970W        W79188  17.685  18.671  11.989
10971W        W79189  34.955   3.448   4.654
10972W        W79190  40.468   1.068   2.636
10973W        W79191  33.142  40.826  11.350
10974W        W79192  16.776   8.257  13.998
10975W        W79193   9.155  43.369   0.840
10976W        W79194  41.669   7.468   0.747
10977W        W79195  22.770  22.707  11.570
10978W        W79196  42.776  20.605  10.371
10979W        W79197  37.058  13.135   3.635
10980W        W79198  38.883   8.639   1.826
10981W        W79199  30.552  37.328   3.850
10982W        W79200  41.283  36.966   4.151
10983W        W79201  25.673  34.900   0.246
10984W        W79202  37.452   1.361   5.060
10985W        W79203   3.270  43.910   2.314
10986W        W79204  19.127   4.893  11.386
10987W        W79205  15.706  42.452   0.351
10988W        W79206   2.726  44.855   4.936
10989W        W79207  18.477   2.719   2.135
10990W        W79208  37.427  20.309  10.660
10991W        W79209  22.645  37.882   2.624
10992W        W79210   1.684  37.068   3.210
10993W        W79211  19.158   5.971  14.955
10994W        W79212  35.269  28.811   4.972
10995W        W79213   0.918   3.264  10.874
10996W        W79214   1.707  13.731   4.288
10997W        W79215  23.890   6.825  10.653
10998W        W79216  24.422  15.247   0.462
10999W        W79217  31.531  36.825   0.422
11000W        W79218  40.183  24.022   4.205
11001W        W79219  37.270  44.406  11.073
11002W        W79220  21.473  21.701   1.480
11003W        W79221  38.859  43.607  11.917
11004W        W79222   3.048   6.669  12.736
11005W        W79223  26.518   0.403  11.392
11006W        W79224  37.057   0.561  13.951
11007W        W79225  19.010  13.800  11.617
11008W        W79226  16.291  44.411  12.686
11009W        W79227   4.660  44.811   1.423
11010W        W79228  33.837  29.593   0.879
11011W        W79229  28.503   5.231  11.553
11012W        W79230  25.973   4.417  11.632
11013W        W79231  21.655  13.861   3.717
11014W        W79232  30.356  36.491   3.236
11015W        W79233  44.761   9.129   2.441
11016W        W79234  33.054   2.840  11.441
11017W        W79235  28.398  38.913   4.613
11018W        W79236  22.769  17.758   1.466
11019W        W79237  43.617  28.414   0.816
11020W        W79238  34.615   1.945  12.123
11021W        W79239   7.802  44.502   3.778
11022W        W79240  20.077  23.754   3.728
11023W        W79241  40.987  41.729   0.279
11024W        W79242   2.299  35.577  14.708
11025W        W79243  22.464   4.725   2.214
11026W        W79244  44.782  38.009  12.060
11027W        W79245   7.572   1.047   3.703
11028W        W79246  21.962  29.339   2.238
11029W        W79247   7.560   9.171   1.848
11030W        W79248   3.830   3.780   4.598
11031W        W79249  22.933  29.891   1.536
11032W        W79250  27.849  10.355   5.161
11033W        W79251  17.658  22.251  13.032
11034W        W79252  40.971  36.454  13.876
11035W        W79253  23.238  36.875  12.904
11036W        W79254  22.353  34.968  13.032
11037W        W79255  39.593  16.094  14.016
11038W        W79256  39.384   0.707   1.240
11039W        W79257  26.306  11.229  11.185
11040W        W79258  30.448  43.068  12.412
11041W        W79259  22.795  38.938  11.972
11042W        W79260   1.426  14.372  12.957
11043W        W79261  17.384  44.424   4.606
11044W        W79262  10.532  19.318  13.861
11045W        W79263  12.711  26.448  13.300
11046W        W79264  28.323  42.738   2.772
11047W        W79265   8.302  18.498   2.760
11048W        W79266  19.173  11.678  13.155
11049W        W79267  22.973  37.823   3.819
11050W        W79268  27.871   4.217  14.057
11051W        W79269  38.138  41.985  14.047
11052W        W79270  16.120  24.521  14.029
11053W        W79271  33.661  27.211  12.810
11054W        W79272  18.696  36.595   3.587
11055W        W79273  32.359  20.510  12.338
11056W        W79274  15.909  23.654   3.171
11057W        W79275  25.184  17.644   1.267
11058W        W79276  32.922   2.326  11.501
11059W        W79277  36.866   4.905   0.893
11060W        W79278   3.040  33.978   4.176
11061W        W79279  28.006  23.973  10.747
11062W        W79280  29.723  36.528   1.948
11063W        W79281  29.004  33.539  11.095
11064W        W79282  14.154   4.848   3.175
11065W        W79283  44.879  33.534  10.639
11066W        W79284   4.868  14.197  13.546
11067W        W79285  21.648  19.382  12.081
11068W        W79286   5.783   7.583  10.466
11069W        W79287  28.948  27.116   0.861
11070W        W79288  30.834  12.271  12.921
11071W        W79289  44.111  28.472  11.637
11072W        W79290  29.612  36.207  14.259
11073W        W79291   1.419  11.800  12.470
11074W        W79292  20.230   5.992  12.959
11075W        W79293  27.526  17.664   2.207
11076W        W79294  22.442  25.443  12.558
11077W        W79295  43.634  37.170   4.864
11078W        W79296   3.928  29.164  13.284
11079W        W79297  15.154  16.605   3.949
11080W        W79298   9.886  17.222   4.365
11081W        W79299   3.552  14.626   4.545
11082W        W79300  27.939  27.151   0.758
11083W        W79301  29.648  39.735  12.978
11084W        W79302   4.214  26.680   4.136
11085W        W79303  30.783  36.376   1.960
11086W        W79304  40.876   3.903  12.420
11087W        W79305   1.868  33.495   2.457
11088W        W79306  24.614  20.502  14.777
11089W        W79307   7.982  44.366  11.688
11090W        W79308  31.662  30.573   2.639
11091W        W79309  18.945  31.009  10.614
11092W        W79310  13.086   6.719   2.131
11093W        W79311   0.870  27.075  14.847
11094W        W79312  41.758  23.527  13.900
11095W        W79313  44.011  11.686  14.938
11096W        W79314  43.876  32.424   3.345
11097W        W79315   3.426  44.335   4.400
11098W        W79316  14.597  37.033   4.677
11099W        W79317  20.744  14.124  12.470
11100W        W79318  32.856  22.672  11.478
11101W        W79319  30.436  33.972   0.841
11102W        W79320  20.706  28.060   1.675
11103W        W79321  43.772  22.029   1.688
11104W        W79322  35.106  14.246   4.691
11105W        W79323  27.180   1.381   1.044
11106W        W79324  27.180  38.661   0.023
11107W        W79325  36.304  41.529  12.011
11108W        W79326  14.766  22.419  11.527
11109W        W79327  20.546  39.062  12.459
11110W        W79328  27.171  27.102  11.593
11111W        W79329   5.700  40.549   0.240
11112W        W79330  38.694   7.313   4.573
11113W        W79331   9.388  26.762   0.267
11114W        W79332  19.004   6.638  12.400
11115W        W79333  31.073   6.632  13.872
11116W        W79334  19.560  30.597   1.245
11117W        W79335   3.888  41.302   0.894
11118W        W79336  22.338  26.017   3.132
11119W        W79337  31.377  19.713   1.195
11120W        W79338   6.311  32.738   1.773
11121W        W79339   9.681  10.300  14.863
11122W        W79340  26.403  20.115   3.264
11123W        W79341  13.739  44.429   2.424
11124W        W79342  16.885  13.248  11.780
11125W        W79343  43.869   5.238   2.478
11126W        W79344  17.732  10.470  11.133
11127W        W79345   1.391  20.978  10.895
11128W        W79346  17.240  24.538  13.517
11129W        W79347  17.314  38.915   0.453
11130W        W79348   1.905  13.105  10.687
11131W        W79349  14.575  36.294  11.913
11132W        W79350   5.415   3.424   0.043
11133W        W79351  30.450  10.673  13.388
11134W        W79352  33.803  34.008   0.934
11135W        W79353  39.548  10.496   1.933
11136W        W79354  32.021  12.564   0.314
11137W        W79355  31.569   5.651   5.473
11138W        W79356  17.873   8.799   2.232
11139W        W79357  26.860  28.781   3.774
11140W        W79358  37.399  18.093  14.466
11141W        W79359  44.519  36.133  11.174
11142W        W79360  13.468  40.418  12.455
11143W        W79361  43.216  25.982  10.705
11144W        W79362  39.972  24.479   4.447
11145W        W79363   9.072  44.240  10.720
11146W        W79364   7.933   4.629   2.218
11147W        W79365  26.458  36.605  14.501
11148W        W79366  19.084  40.120   0.307
11149W        W79367  34.879  20.578  12.443
11150W        W79368  26.244  24.176  13.865
11151W        W79369  42.903  33.049  14.708
11152W        W79370  16.814   0.756  13.697
11153W        W79371  31.956  34.711   2.128
11154W        W79372  26.253  20.009  12.127
11155W        W79373  40.608   0.842  13.681
11156W        W79374   7.881  42.332  10.280
11157W        W79375  30.053   9.444   4.680
11158W        W79376  12.714  43.810  13.458
11159W        W79377  37.819  11.370   0.374
11160W        W79378  26.153  32.396   3.867
11161W        W79379  39.019  27.668  10.283
11162W        W79380  16.289  39.206   3.249
11163W        W79381  36.030  12.759  12.066
11164W        W79382  41.264  30.068  11.044
11165W        W79383  44.843  13.022  11.228
11166W        W79384  29.396  25.968   0.891
11167W        W79385   2.409  32.421  14.893
11168W        W79386  39.790  23.962  14.537
11169W        W79387  13.158  17.627   0.584
11170W        W79388  44.352  18.578  11.178
11171W        W79389  14.583   4.664   4.862
11172W        W79390  42.400  24.598  11.476
11173W        W79391   8.887   1.865  14.573
11174W        W79392  35.918  40.483   2.630
11175W        W79393  11.016  10.828   0.793
11176W        W79394  17.061  26.454  10.096
11177W        W79395  40.761  12.647   2.846
11178W        W79396  11.105   3.687  12.445
11179W        W79397  35.612  11.298  10.935
11180W        W79398  33.531  10.316  12.027
11181W        W79399  42.086  16.379  13.109
11182W        W79400  11.674   7.727   1.465
11183W        W79401   6.760  22.999   1.366
11184W        W79402  19.098   5.465  14.869
11185W        W79403  27.081  33.092  12.897
11186W        W79404  17.955   8.362  12.195
11187W        W79405  15.019  15.601  11.768
11188W        W79406  30.188  12.699   2.637
11189W        W79407  24.741  12.584  11.520
11190W        W79408  43.969  30.624   2.680
11191W        W79409  36.367  18.735   2.256
11192W        W79410  13.051   7.415  11.748
11193W        W79411  28.695  35.668   0.821
11194W        W79412  37.478  10.958   2.739
11195W        W79413  29.881  42.927   0.228
11196W        W79414   1.725  20.125  14.771
11197W        W79415  28.017  35.514   4.865
11198W        W79416  13.246   2.621   3.912
11199W        W79417  35.393  17.341  15.000
11200W        W79418  16.070  44.057  14.090
11201W        W79419  13.777  27.923  13.498
11202W        W79420  21.661  15.093   4.324
11203W        W79421  41.095  13.800  11.664
11204W        W79422   4.363  14.109   2.803
11205W        W79423  42.850  15.135   0.182
11206W        W79424  22.000  29.396  10.731
11207W        W79425   4.001  36.589  13.854
11208W        W79426  41.470  42.240  14.881
11209W        W79427  20.505  35.425  14.379
11210W        W79428  43.250  20.660  11.144
11211W        W79429  41.031   2.908   4.499
11212W        W79430  33.364  17.211   1.774
11213W        W79431  14.651  29.218  13.382
11214W        W79432  23.252  11.242  14.783
11215W        W79433  42.039   1.634  14.348
11216W        W79434   8.463  12.679  11.197
11217W        W79435   3.794  34.554  14.118
11218W        W79436  44.820  26.377   3.534
11219W        W79437  16.704  15.675  10.582
11220W        W79438   5.916  23.758   1.801
11221W        W79439  36.613  37.900   4.443
11222W        W79440  19.439  42.269  12.042
11223W        W79441  28.668   1.423   4.638
11224W        W79442   4.748   1.566   0.792
11225W        W79443  11.244  39.928  13.625
11226W        W79444  20.644  36.137  10.710
11227W        W79445  17.200  18.521  12.068
11228W        W79446  12.236  29.704  14.419
11229W        W79447  15.414  23.521  14.904
11230W        W79448  11.306  17.620  11.299
11231W        W79449  38.265  29.194  11.730
11232W        W79450   1.012  23.970   2.121
11233W        W79451  16.824  44.798   3.405
11234W        W79452   1.494  34.849  12.629
11235W        W79453  10.161  44.785  14.482
11236W        W79454  33.545  36.889  11.537
11237W        W79455  31.449  20.155   0.868
11238W        W79456   8.357   6.348  12.114
11239W        W79457  32.616   2.725  13.347
11240W        W79458  26.314  44.414   4.790
11241W        W79459  32.529  16.730  10.516
11242W        W79460   4.108   5.868   1.049
11243W        W79461  29.050  35.597  12.022
11244W        W79462  24.546   3.919   4.492
11245W        W79463  29.583   2.838   0.639
11246W        W79464  36.779  35.956   4.235
11247W        W79465  44.048  19.981   0.239
11248W        W79466   4.828  39.824  12.943
11249W        W79467  41.060  44.971  13.587
11250W        W79468  21.649  19.146   2.406
11251W        W79469  31.740  29.520  13.381
11252W        W79470  38.739   2.205  12.162
11253W        W79471   7.632  21.720  13.864
11254W        W79472  44.113   0.269  13.022
11255W        W79473  19.978   9.170   0.328
11256W        W79474  43.352   4.266  14.710
11257W        W79475  13.491  14.667   0.814
11258W        W79476  27.975  17.095  14.569
11259W        W79477  39.189   4.425  10.287
11260W        W79478  25.726  21.700  13.241
11261W        W79479  10.199  32.694  10.609
11262W        W79480  35.927   3.908  10.069
11263W        W79481  36.567  18.399  14.303
11264W        W79482  41.495  28.388  14.950
11265W        W79483   1.868  36.651  11.228
11266W        W79484  17.648  16.584   1.303
11267W        W79485  25.213  36.448  12.117
11268W        W79486  37.621  28.156   3.409
11269W        W79487  42.446   7.667   0.946
11270W        W79488  35.716   2.446  10.636
11271W        W79489   0.814   6.400   2.016
11272W        W79490  15.043  15.650  11.243
11273W        W79491  22.318   9.718  14.220
11274W        W79492  36.797  31.626   0.540
11275W        W79493  39.313   7.166   2.739
11276W        W79494  27.019  17.809  13.282
11277W        W79495  37.356  12.779  14.422
11278W        W79496  31.855  22.824   0.333
11279W        W79497   4.690  28.520   3.106
11280W        W79498  20.118  34.509  13.328
11281W        W79499   2.813   2.486  14.871
11282W        W79500   9.123  16.631   3.953
11283W        W79501  39.854  30.973  12.493
11284W        W79502  36.389  32.362   4.725
11285W        W79503  11.149  43.488   1.824
11286W        W79504  26.561  42.385   3.390
11287W        W79505  17.986  36.397  14.845
11288W        W79506  30.659   8.611  11.600
11289W        W79507  10.152   3.799   0.026
11290W        W79508  38.455  37.345  11.417
11291W        W79509  28.958   7.297   4.986
11292W        W79510  18.984  27.049  10.786
11293W        W79511  37.323   1.063  12.786
11294W        W79512  37.628  17.121   3.720
11295W        W79513  11.736  13.196  13.138
11296W        W79514  16.510   5.431   3.535
11297W        W79515   2.876  37.379   1.833
11298W        W79516  29.014  34.934   1.945
11299W        W79517  34.055  44.724   2.954
11300W        W79518  42.936  44.963   2.681
11301W        W79519  21.709  28.835   2.687
11302W        W79520  30.879  18.592   4.008
11303W        W79521   7.436  38.636  11.481
11304W        W79522   6.206  27.213  11.071
11305W        W79523  43.490  12.717  13.399
11306W        W79524   6.207  35.095  14.877
11307W        W79525  13.448  43.375  10.187
11308W        W79526  11.722  19.029  11.712
11309W        W79527  20.026  14.201   3.616
11310W        W79528  23.180  41.268  10.684
11311W        W79529   1.432  27.941  11.048
11312W        W79530  15.852  33.463   4.385
11313W        W79531  25.759  17.642   4.208
11314W        W79532  35.516  43.966   3.647
11315W        W79533   7.409  12.061   4.091
11316W        W79534   3.496  21.772  13.387
11317W        W79535  36.153  10.339  12.151
11318W        W79536  15.674  18.007   1.899
11319W        W79537  39.842   9.971  12.588
11320W        W79538   8.710  37.899   1.952
11321W        W79539  12.789  25.888   4.165
11322W        W79540  26.713  30.333   0.425
11323W        W79541   8.889  31.435  13.925
11324W        W79542  44.151  10.830  12.514
11325W        W79543  21.234  14.202  11.620
11326W        W79544  16.046  34.951   4.674
11327W        W79545  17.845   5.355   4.560
11328W        W79546  27.954   4.562   3.222
11329W        W79547  40.810  14.053  14.323
11330W        W79548  14.540  33.184   0.324
11331W        W79549  24.524   1.567   2.671
11332W        W79550   2.434  40.562   2.908
11333W        W79551  28.690  10.957   0.814
11334W        W79552  38.613   3.818   4.901
11335W        W79553  33.439  30.175  10.695
11336W        W79554   9.175  34.583   1.468
11337W        W79555  30.812  15.729  10.218
11338W        W79556  25.100  14.621   4.331
11339W        W79557  26.005   0.497  11.417
11340W        W79558  32.975  27.645   3.260
11341W        W79559  12.609   4.154   0.777
11342W        W79560  12.866  37.914  14.610
11343W        W79561  18.264  37.048  14.849
11344W        W79562  30.889   3.253  14.350
11345W        W79563  42.304  10.774  12.909
11346W        W79564  28.041  11.387   1.411
11347W        W79565   8.482   6.139  14.569
11348W        W79566  19.992  23.447  14.803
11349W        W79567   2.991   4.715  11.529
11350W        W79568  35.782  28.172   3.128
11351W        W79569  13.829  24.891  11.624
11352W        W79570   0.822  20.795  11.602
11353W        W79571  30.522  20.769   1.609
11354W        W79572  44.700  23.229  12.525
11355W        W79573   3.248  43.290  11.640
11356W        W79574  25.572  42.810  13.416
11357W        W79575   3.206  20.698  12.904
11358W        W79576  42.559  22.184  10.692
11359W        W79577  15.082  32.812  11.063
11360W        W79578  30.102  42.061  11.943
11361W        W79579  28.885  28.440   1.353
11362W        W79580  41.068  28.114   4.156
11363W        W79581  14.349  41.449   0.827
11364W        W79582  24.948  44.767  13.389
11365W        W79583  37.892  12.813  14.097
11366W        W79584  22.567  17.115   0.202
11367W        W79585  16.491  15.384  10.159
11368W        W79586  23.726  39.026  11.848
11369W        W79587  16.170  32.452  14.713
11370W        W79588  20.766   6.794   2.808
11371W        W79589  20.725  42.583   4.270
11372W        W79590   3.134  12.359  14.047
11373W        W79591  21.276  16.521   0.399
11374W        W79592  44.308   7.485   2.726
11375W        W79593  43.004  35.184   0.758
11376W        W79594   8.311  38.107   1.281
11377W        W79595  20.877  20.982   5.006
11378W        W79596  31.902  29.305   1.615
11379W        W79597  30.664  33.507   2.022
11380W        W79598  16.306   8.893  13.398
11381W        W79599  24.817  34.404   3.289
11382W        W79600  10.748  35.388  12.001
11383W        W79601  24.723  30.666  12.313
11384W        W79602  37.363   1.258   4.202
11385W        W79603  41.329  18.817  13.843
11386W        W79604  29.042  30.899  11.903
11387W        W79605  16.237  12.089  11.543
11388W        W79606   0.287   5.245   4.684
11389W        W79607  40.683  38.398   4.158
11390W        W79608  19.229  10.558   1.262
11391W        W79609  40.340  35.798   2.917
11392W        W79610  32.325  30.902   2.177
11393W        W79611   8.260   4.363  11.276
11394W        W79612   1.656  24.524  11.120
11395W        W79613   6.278   2.977  11.919
11396W        W79614  24.549  10.795   3.181
11397W        W79615   5.140  14.235  10.742
11398W        W79616  38.912   2.231   0.102
11399W        W79617   7.443  36.076   0.084
11400W        W79618  11.239   3.284  13.576
11401W        W79619  33.042  21.105   4.610
11402W        W79620  34.649  36.751  14.590
11403W        W79621  41.876   0.264   3.584
11404W        W79622  38.008  18.029   2.118
11405W        W79623  42.775  26.454   2.283
11406W        W79624  34.334   5.256  13.855
11407W        W79625  40.819   1.097  11.518
11408W        W79626  28.121  17.018   4.759
11409W        W79627   4.205  37.374  11.964
11410W        W79628  15.380  22.368  13.950
11411W        W79629  36.419  20.175   4.936
11412W        W79630  42.308  18.076  13.653
11413W        W79631  18.585  37.943   4.118
11414W        W79632  11.644  18.608  10.490
11415W        W79633  10.825  28.457  13.717
11416W        W79634  19.015   8.181   3.424
11417W        W79635  25.111  22.550   3.987
11418W        W79636   0.335  44.536   3.778
11419W        W79637  33.388  42.510   0.862
11420W        W79638  33.031  23.274  13.259
11421W        W79639  21.217  44.189  14.717
11422W        W79640  23.824  41.335  13.512
11423W        W79641  37.345  12.711   3.500
11424W        W79642  21.117  29.984  14.808
11425W        W79643  43.263  42.869   2.280
11426W        W79644   8.221  40.347  12.382
11427W        W79645  34.886   7.943  13.833
11428W        W79646   2.990  35.175  14.233
11429W        W79647  35.515  20.498  13.859
11430W        W79648  38.663  13.027   4.568
11431W        W79649  11.731  15.260   1.211
11432W        W79650  20.337  13.466  11.102
11433W        W79651   0.474  38.945   0.434
11434W        W79652  41.025  30.464  12.651
11435W        W79653   2.288  41.998  13.344
11436W        W79654  43.928  25.442  10.780
11437W        W79655  35.872   3.262  11.261
11438W        W79656  15.087  41.522  12.127
11439W        W79657  41.465   8.235  10.698
11440W        W79658   9.286  27.128   1.447
11441W        W79659   0.334  24.489  14.567
11442W        W79660  20.760  31.975   5.014
11443W        W79661  33.173  21.687   0.221
11444W        W79662  38.113  16.120  13.822
11445W        W79663   3.275  24.591  12.486
11446W        W79664  10.184  31.041   2.247
11447W        W79665  37.843  38.911   0.825
11448W        W79666  37.041  39.498   1.212
11449W        W79667   2.013  10.375  13.976
11450W        W79668   2.951  38.136   4.746
11451W        W79669   1.257  12.635  14.715
11452W        W79670  39.905   0.309  13.995
11453W        W79671  24.473  18.875  12.002
11454W        W79672  38.903  31.568  10.363
11455W        W79673  17.896  26.256   4.548
11456W        W79674  18.214  28.658  10.653
11457W        W79675  29.660  43.467   1.752
11458W        W79676  37.951   2.478  13.826
11459W        W79677  19.952  31.080  14.425
11460W        W79678  22.756  35.727  14.816
11461W        W79679  28.477   2.881   1.379
11462W        W79680  41.426   9.467   1.934
11463W        W79681  32.821  21.327   1.911
11464W        W79682  42.802  24.497  14.785
11465W        W79683   6.839  22.303   3.797
11466W        W79684   7.273  43.851   2.190
11467W        W79685  44.308   0.168  10.676
11468W        W79686  31.199   1.353  10.686
11469W        W79687  33.275   3.963  14.781
11470W        W79688  22.591   3.927   0.782
11471W        W79689  13.225   1.738   1.717
11472W        W79690  22.474  10.535   4.895
11473W        W79691   9.715  17.664  13.551
11474W        W79692   4.697   8.341   3.285
11475W        W79693   2.735  31.603  12.230
11476W        W79694  35.519  11.320  10.433
11477W        W79695  40.489   2.397   4.384
11478W        W79696  42.979  11.176   2.172
11479W        W79697  32.641  43.077  12.920
11480W        W79698  35.388  33.677  11.361
11481W        W79699  27.328  31.157   3.332
11482W        W79700  30.043  39.009  10.459
11483W        W79701  25.040  23.050  11.123
11484W        W79702  18.316  29.934  12.945
11485W        W79703  38.784  25.518   1.678
11486W        W79704  44.455   2.221   4.153
11487W        W79705   5.135  21.225   3.217
11488W        W79706  32.816   5.470  13.933
11489W        W79707  42.485  28.065  12.051
11490W        W79708  11.749  42.711  12.385
11491W        W79709  25.908  40.297  13.440
11492W        W79710  19.736  18.285  12.636
11493W        W79711  32.525   2.254   1.343
11494W        W79712  41.960  23.236  12.506
11495W        W79713  40.770  38.888  14.366
11496W        W79714  43.495  39.339   1.940
11497W        W79715   1.872   7.200   3.149
11498W        W79716  33.099  43.576   4.072
11499W        W79717  42.906   7.212  11.071
11500W        W79718  27.990  24.418  12.930
11501W        W79719  20.965  40.548  12.039
11502W        W79720  32.475  43.239  11.092
11503W        W79721  31.022  22.382   5.124
11504W        W79722  35.481   1.603   3.221
11505W        W79723   8.733  35.584   3.356
11506W        W79724  25.279   0.724  12.959
11507W        W79725  12.647   9.693  11.075
11508W        W79726  18.957  41.445   4.031
11509W        W79727  34.616  27.078  14.000
11510W        W79728   4.842  10.175  10.583
11511W        W79729   9.252  11.581  13.659
11512W        W79730  21.463   8.409  13.045
11513W        W79731  43.042   9.311   0.505
11514W        W79732  38.009  25.225   4.165
11515W        W79733   9.685  18.826   2.313
11516W        W79734  21.423  29.559   3.087
11517W        W79735  22.693  41.369  11.880
11518W        W79736  14.790  29.216   1.531
11519W        W79737   6.355  10.046   4.114
11520W        W79738  40.247  23.023  14.074
11521W        W79739  10.416  16.588   1.421
11522W        W79740   5.587  43.186  13.229
11523W        W79741  22.645  41.093   4.322
11524W        W79742  40.609  32.041   3.125
11525W        W79743  35.349  10.659  12.030
11526W        W79744  29.671  23.082  14.767
11527W        W79745  19.023   8.627  13.997
11528W        W79746   0.373  18.242   1.459
11529W        W79747   6.403  25.529  10.753
11530W        W79748  31.417  26.699   4.090
11531W        W79749  28.666   8.238   3.620
11532W        W79750  33.770  11.882  13.508
11533W        W79751  33.116  22.555   0.501
11534W        W79752  22.671  16.086  12.549
11535W        W79753   0.799  35.069  13.379
11536W        W79754  24.564  11.132  11.068
11537W        W79755  40.543  32.987   0.255
11538W        W79756  30.613  29.222   1.330
11539W        W79757  19.751  40.334   2.879
11540W        W79758  36.732   8.744  12.996
11541W        W79759   6.153  35.901   0.911
11542W        W79760  43.566   0.411  12.069
11543W        W79761  34.883  14.313   4.189
11544W        W79762  34.609  35.740  12.452
11545W        W79763  11.638  27.934  12.442
11546W        W79764  10.183  32.340   2.682
11547W        W79765  12.366  18.135   2.738
11548W        W79766  31.947  36.532   0.021
11549W        W79767  30.662  23.977   0.526
11550W        W79768   1.192  28.013  14.986
11551W        W79769  43.463   1.404  14.048
11552W        W79770  13.310   4.380  12.343
11553W        W79771   9.733  14.303   1.658
11554W        W79772   5.730  28.405  11.234
11555W        W79773   5.985   4.853   4.885
11556W        W79774  16.826  24.486   0.489
11557W        W79775  30.003   6.391  14.267
11558W        W79776   5.374  36.379   1.328
11559W        W79777  15.260   9.850   3.017
11560W        W79778  33.387   2.156   0.882
11561W        W79779   0.377  36.873   2.322
11562W        W79780  13.121   8.075  13.990
11563W        W79781  36.623  19.177   1.391
11564W        W79782  10.805  36.055   0.516
11565W        W79783  40.208  10.425   2.287
11566W        W79784  24.254  42.820   3.839
11567W        W79785  36.310  17.256  14.746
11568W        W79786  34.530  32.106   1.461
11569W        W79787  10.809  11.261   1.120
11570W        W79788  28.521  36.740  13.657
11571W        W79789  39.003  25.009   2.098
11572W        W79790  14.099  29.595   2.296
11573W        W79791  37.155  11.371   2.841
11574W        W79792   2.228  37.603  11.086
11575W        W79793  12.863  38.651   3.749
11576W        W79794  26.965  19.063   2.768
11577W        W79795  35.187   4.513   0.222
11578W        W79796  38.246  26.102   2.909
11579W        W79797  20.881  39.526  11.560
11580W        W79798  29.876  18.826   2.632
11581W        W79799   0.912  36.857  13.415
11582W        W79800  28.965  26.314  14.072
11583W        W79801  10.894  18.600  14.484
11584W        W79802  19.300   4.230   4.677
11585W        W79803  27.440  16.323  13.036
11586W        W79804  41.254   8.670   2.710
11587W        W79805  27.159  42.642   3.437
11588W        W79806  32.784  18.050   1.697
11589W        W79807  29.541   4.834   4.541
11590W        W79808  25.192   5.469   3.810
11591W        W79809  33.621  32.671   4.644
11592W        W79810  33.993  23.553   3.198
11593W        W79811   8.920  18.556  12.005
11594W        W79812  14.576  44.492  14.970
11595W        W79813  10.306  32.021  11.637
11596W        W79814  26.681  42.958   2.133
11597W        W79815   5.815   7.941  13.900
11598W        W79816  33.208  33.058  10.705
11599W        W79817  11.653   4.837   0.361
11600W        W79818  34.161  35.808   4.755
11601W        W79819  24.256  17.322   1.935
11602W        W79820  41.333  27.991  14.241
11603W        W79821   4.199  43.274   2.422
11604W        W79822  18.468  18.001  13.051
11605W        W79823  35.332  23.782   4.288
11606W        W79824   8.171  23.884  12.459
11607W        W79825   2.438  20.581   0.045
11608W        W79826  18.082  23.190  10.648
11609W        W79827  19.620  36.364   3.755
11610W        W79828  41.404  31.455   0.898
11611W        W79829  11.241  24.060  13.824
11612W        W79830  38.483  43.986   0.377
11613W        W79831  36.337  30.531  13.758
11614W        W79832  36.003  27.626  10.489
11615W        W79833   2.484  14.271   2.797
11616W        W79834  24.260  38.802   3.671
11617W        W79835  32.273  12.014  10.948
11618W        W79836  19.211  22.472   4.812
11619W        W79837  37.233  21.208   1.189
11620W        W79838  21.620  15.528   4.044
11621W        W79839   7.703   1.727  10.663
11622W        W79840  20.535  11.081   2.834
11623W        W79841   1.031   7.475  12.530
11624W        W79842  10.719  31.005  14.980
11625W        W79843  10.636  25.926  11.591
11626W        W79844   3.710   8.738  11.993
11627W        W79845  11.685  44.499   2.271
11628W        W79846  15.748  10.904   1.781
11629W        W79847  25.481   3.504   3.777
11630W        W79848  16.831   3.169  13.007
11631W        W79849   1.739  38.309   4.322
11632W        W79850  10.346  21.259   1.792
11633W        W79851  35.495  39.760  12.931
11634W        W79852   9.242   8.958   0.835
11635W        W79853  38.196  42.888  14.933
11636W        W79854  30.661  43.685  10.707
11637W        W79855   2.524   1.412   2.798
11638W        W79856  19.100  23.247  11.480
11639W        W79857   0.500  25.135  11.030
11640W        W79858   7.435  14.794   2.676
11641W        W79859  16.801  26.702  13.889
11642W        W79860  20.630   2.998   4.140
11643W        W79861  28.553  23.007   4.233
11644W        W79862  40.542   4.905   2.875
11645W        W79863  16.634  18.097  14.961
11646W        W79864  36.069  39.137  13.622
11647W        W79865  37.624  37.312  12.475
11648W        W79866  31.577  35.709   0.825
11649W        W79867  41.645  38.508  10.768
11650W        W79868  22.516  10.215  11.585
11651W        W79869   2.699  21.459  14.929
11652W        W79870  25.631  20.635   2.922
11653W        W79871   0.596  30.447  12.861
11654W        W79872  18.900  19.178   2.822
11655W        W79873  16.148  23.639  11.023
11656W        W79874  40.060  29.922  11.539
11657W        W79875  34.867  25.075   5.127
11658W        W79876  10.372  13.759   3.322
11659W        W79877  27.644   5.873   2.817
11660W        W79878   6.886  28.552   0.211
11661W        W79879  13.055  28.554   2.239
11662W        W79880  19.469  34.570   4.273
11663W        W79881  19.367  30.372   3.975
11664W        W79882   2.726   5.362   3.699
11665W        W79883  29.517  26.732  12.302
11666W        W79884  17.114  23.433  10.671
11667W        W79885  29.433   0.108  14.306
11668W        W79886  22.247  28.633   2.579
11669W        W79887  36.696  25.919   1.788
11670W        W79888   7.136  33.583   4.602
11671W        W79889  19.085  20.098  10.707
11672W        W79890   6.238  34.495   4.334
11673W        W79891  34.456  11.081   0.537
11674W        W79892  29.482  13.422   0.437
11675W        W79893  14.880  11.782   0.833
11676W        W79894   6.755  32.889   0.677
11677W        W79895  19.206  38.488  11.563
11678W        W79896  30.863  23.976  12.963
11679W        W79897   4.931  17.259  14.789
11680W        W79898   4.672  42.407   3.141
11681W        W79899   6.460   7.121  11.191
11682W        W79900  19.120   3.783   3.383
11683W        W79901   4.954   0.805  10.743
11684W        W79902   5.395   3.857  13.757
11685W        W79903  42.344  32.524   0.295
11686W        W79904  31.375  27.982   2.141
11687W        W79905  29.365   7.902   2.722
11688W        W79906  29.100  18.566   3.211
11689W        W79907  36.376   8.144   0.547
11690W        W79908   6.281  16.669   3.613
11691W        W79909  23.462   1.439  14.404
11692W        W79910  16.049  12.994  12.834
11693W        W79911   4.154  25.758   4.323
11694W        W79912  25.686  10.150  12.977
11695W        W79913  20.118  11.694   0.910
11696W        W79914  13.320  39.778   0.304
11697W        W79915  23.540  17.106  14.476
11698W        W79916  10.867  10.739  13.074
11699W        W79917   8.794  23.063   2.546
11700W        W79918  20.835   2.747  11.185
11701W        W79919  16.136  33.960  12.458
11702W        W79920  35.450  30.447   4.226
11703W        W79921   9.136  28.830   2.656
11704W        W79922   3.446  14.844   0.851
11705W        W79923  10.451  23.925   0.141
11706W        W79924   8.605  30.150  12.588
11707W        W79925   6.211   2.250   2.707
11708W        W79926  33.981  21.480   2.388
11709W        W79927  44.733  17.213  13.848
11710W        W79928  15.464  21.835  14.456
11711W        W79929  27.057  44.490   1.456
11712W        W79930   3.733  37.517   1.260
11713W        W79931  26.214  30.128  12.340
11714W        W79932   0.894  43.026   4.191
11715W        W79933   8.171  33.103   3.697
11716W        W79934  11.250  36.605   3.893
11717W        W79935  39.777  22.278  10.432
11718W        W79936  19.801  39.969   2.498
11719W        W79937  10.619   9.517   1.382
11720W        W79938  16.017  27.615  11.911
11721W        W79939  38.961  27.715   3.720
11722W        W79940  24.501  25.955   0.190
11723W        W79941  23.072  35.351   2.217
11724W        W79942  34.044  22.966   0.684
11725W        W79943  22.359  42.037  11.285
11726W        W79944  26.454   9.241  13.448
11727W        W79945  44.497  17.527  14.504
11728W        W79946  13.116  42.143   2.134
11729W        W79947  10.884  15.676  10.231
11730W        W79948  44.839  22.071   1.396
11731W        W79949  13.829  43.078  12.022
11732W        W79950  27.642  32.519   2.834
11733W        W79951  31.863  44.415   3.193
11734W        W79952  44.355  42.739   0.951
11735W        W79953  35.665  40.288   0.536
11736W        W79954  43.296  33.688   3.304
11737W        W79955   8.198  36.433  13.043
11738W        W79956  41.833  41.900   4.269
11739W        W79957   5.775  18.740  10.723
11740W        W79958  35.966  21.001  13.300
11741W        W79959  40.577  16.698   0.818
11742W        W79960   1.813  41.732  13.410
11743W        W79961  10.822  16.303   1.766
11744W        W79962   3.548  43.208   4.957
11745W        W79963  43.543   3.283  14.931
11746W        W79964  29.721  40.488   3.183
11747W        W79965  42.846   6.516   0.801
11748W        W79966  20.641  30.081   4.461
11749W        W79967  13.198  16.094  13.258
11750W        W79968  10.380  36.991   2.164
11751W        W79969  39.901  21.237   0.300
11752W        W79970  42.947  25.700   4.719
11753W        W79971  18.731   2.003  13.546
11754W        W79972   4.463   9.730   2.538
11755W        W79973   8.816   4.379   1.349
11756W        W79974   7.227  15.228   1.979
11757W        W79975  15.740  37.250  14.632
11758W        W79976  18.079  32.006  10.212
11759W        W79977   9.624   0.811   2.016
11760W        W79978  16.217  26.074  13.494
11761W        W79979   3.750  30.174   3.635
11762W        W79980   1.932  13.823  12.288
11763W        W79981   2.581  36.400  14.911
11764W        W79982  35.600  25.429   5.052
11765W        W79983  34.505   4.692   2.186
11766W        W79984  31.446  30.574  14.681
11767W        W79985  43.914  31.173   1.896
11768W        W79986  39.111  35.512   2.291
11769W        W79987   1.223  14.226   4.997
11770W        W79988   8.238  26.008  11.524
11771W        W79989  19.869  20.192  11.188
11772W        W79990   3.327   5.908  13.950
11773W        W79991   6.424  15.771   2.572
11774W        W79992  26.093   9.513  11.471
11775W        W79993  16.410   0.803  12.772
11776W        W79994   9.656  29.939   0.841
11777W        W79995  10.362  21.507  14.463
11778W        W79996   2.516  27.548   2.246
11779W        W79997  26.633  29.600  14.828
11780W        W79998   3.729  35.498  11.028
11781W        W79999   8.105  22.952  14.968
11782W        W80000  34.811  25.412  11.098
11783W        W80001   9.835  25.750   1.235
11784W        W80002   3.923   4.697  13.145
11785W        W80003  38.190  10.265   4.015
11786W        W80004  16.646   1.758   2.652
11787W        W80005  38.815   1.176  13.495
11788W        W80006  23.788  20.062   1.097
11789W        W80007  11.836   0.927   2.292
11790W        W80008  13.668  39.501   3.349
11791W        W80009  29.044  19.225   1.270
11792W        W80010  40.973  30.477  11.121
11793W        W80011  14.502  10.142  11.015
11794W        W80012  23.556  23.194  12.740
11795W        W80013  24.580   8.459  13.343
11796W        W80014  29.065  28.942   0.038
11797W        W80015  12.274  44.444   0.860
11798W        W80016  34.919  16.591   4.203
11799W        W80017  38.987  11.695  11.304
11800W        W80018   0.784  30.662  10.325
11801W        W80019  28.213   6.118  11.444
11802W        W80020   7.789  22.718  12.409
11803W        W80021  20.687  19.847   4.277
11804W        W80022  39.484  13.723  14.078
11805W        W80023  25.001  21.086   3.352
11806W        W80024   8.843  37.674  12.116
11807W        W80025  15.860  28.409   3.295
11808W        W80026   8.104  26.454   0.429
11809W        W80027  26.016  31.453   0.682
11810W        W80028  19.054  31.651  14.352
11811W        W80029  21.577  26.159  14.146
11812W        W80030  12.697   5.602  12.311
11813W        W80031  39.111  22.338  12.441
11814W        W80032   8.815   8.169   4.447
11815W        W80033  24.966  13.118  12.844
11816W        W80034   5.340  43.852   0.588
11817W        W80035  40.971  25.757   4.365
11818W        W80036  22.364  29.984   1.252
11819W        W80037  35.962   9.392  10.716
11820W        W80038  20.275  39.873   2.682
11821W        W80039  31.349  23.138   1.875
11822W        W80040  22.242  42.977  12.995
11823W        W80041  44.617  44.133   1.800
11824W        W80042   5.827  33.469  12.986
11825W        W80043  44.257  30.770   1.850
11826W        W80044   9.497  40.459  11.605
11827W        W80045  24.134  36.980   3.561
11828W        W80046  19.462  15.142   5.039
11829W        W80047   6.551  12.111   0.888
11830W        W80048  33.281   0.942   0.632
11831W        W80049  16.253  25.272  14.776
11832W        W80050   3.947  17.155   3.241
11833W        W80051  13.957  41.969  11.616
11834W        W80052  17.633  27.312  12.616
11835W        W80053  16.100  33.906   2.261
11836W        W80054  32.092  16.338  12.687
11837W        W80055   3.464  19.707  13.341
11838W        W80056   3.781  36.583   0.975
11839W        W80057  19.001  28.980   3.378
11840W        W80058  16.003  10.071  14.521
11841W        W80059  23.694  30.196  14.026
11842W        W80060  17.366  23.504  10.216
11843W        W80061  27.594   8.847  13.418
11844W        W80062  17.510  28.683  12.439
11845W        W80063   2.882  40.047  14.568
11846W        W80064  17.543   3.237  13.373
11847W        W80065  18.710  16.867   2.721
11848W        W80066  36.169   3.532   1.708
11849W        W80067  18.880  25.011   0.190
11850W        W80068  10.402  40.114   3.722
11851W        W80069  27.157  41.792  12.936
11852W        W80070   7.426  26.539  12.412
11853W        W80071  37.624  36.066   4.492
11854W        W80072  35.632  38.373  13.915
11855W        W80073  35.543  37.918   2.612
11856W        W80074   0.162  39.031  12.015
11857W        W80075  21.728  40.404   3.151
11858W        W80076  28.233   8.018  12.015
11859W        W80077  35.021   6.393  12.848
11860W        W80078  18.979  30.500  14.845
11861W        W80079  17.667  17.196   3.547
11862W        W80080  15.746  34.831   4.256
11863W        W80081  33.994  25.994   1.273
11864W        W80082  20.733  13.572   2.722
11865W        W80083   0.045  33.630   1.697
11866W        W80084  19.597  25.485  12.476
11867W        W80085   7.908  11.696  12.063
11868W        W80086  25.585  43.587  10.656
11869W        W80087  23.635  32.226   2.327
11870W        W80088   6.778  36.321   3.245
11871W        W80089  21.645  31.185  11.679
11872W        W80090   5.022  41.257   1.337
11873W        W80091  26.532   8.423   3.028
11874W        W80092   0.997   0.667   1.463
11875W        W80093  21.982  31.175   2.443
11876W        W80094   9.633  33.107   0.884
11877W        W80095  26.228  41.806  14.984
11878W        W80096  35.324  18.127  13.883
11879W        W80097  36.930  13.735  13.313
11880W        W80098   1.720  27.610  10.774
11881W        W80099  42.486  36.868   1.371
11882W        W80100  22.704  15.117  13.881
11883W        W80101  27.207  24.534  12.681
11884W        W80102  32.420  30.012   4.416
11885W        W80103   7.393   0.019   4.589
11886W        W80104  14.849  33.358   2.659
11887W        W80105  15.571   3.876   3.009
11888W        W80106  37.953  22.659   0.450
11889W        W80107   2.734  14.208   1.441
11890W        W80108  28.501  26.925   2.703
11891W        W80109  33.222  37.377  13.598
11892W        W80110  11.351  19.894   0.760
11893W        W80111  23.261  14.333   3.709
11894W        W80112  29.069  38.364  13.821
11895W        W80113   8.653   3.958  14.863
11896W        W80114   2.403  22.164   4.347
11897W        W80115   0.852  23.539   1.776
11898W        W80116  34.438   6.373   2.678
11899W        W80117  24.233  30.634  13.907
11900W        W80118   1.311  11.237   1.061
11901W        W80119  43.915  24.863  12.402
11902W        W80120  38.601  13.767   3.171
11903W        W80121   7.988  23.233  13.482
11904W        W80122  35.127  40.423  13.524
11905W        W80123   3.931  10.123   0.817
11906W        W80124  32.575   1.517  11.895
11907W        W80125  34.793  42.358  13.835
11908W        W80126  42.306   3.785  12.040
11909W        W80127  31.171   0.404   4.486
11910W        W80128  14.557  42.915   0.767
11911W        W80129  42.448  18.761   2.204
11912W        W80130  41.545  26.673   0.486
11913W        W80131   4.735  19.161   2.220
11914W        W80132  44.614  16.148  14.453
11915W        W80133   2.467  30.691   1.756
11916W        W80134   2.743  42.018   4.266
11917W        W80135  40.925  40.240   2.359
11918W        W80136  34.783   7.521  12.868
11919W        W80137   3.314  34.499  10.500
11920W        W80138  16.789   9.194  13.937
11921W        W80139   6.838  13.839   4.190
11922W        W80140  15.969  14.496  13.056
11923W        W80141  36.952   1.252  12.415
11924W        W80142   0.412   0.397  12.393
11925W        W80143  20.750   1.507   3.342
11926W        W80144   8.661  36.776   3.612
11927W        W80145  31.926  22.219  12.847
11928W        W80146  13.054   2.349  13.969
11929W        W80147  30.874  44.294  14.463
11930W        W80148  19.119  43.704   4.581
11931W        W80149   9.322   2.397   3.270
11932W        W80150   3.682  25.897  14.449
11933W        W80151  15.566  20.747  12.616
11934W        W80152   1.226   8.291   1.190
11935W        W80153  42.336  37.586   2.575
11936W        W80154   3.432  42.904   0.248
11937W        W80155  30.633  30.518  12.456
11938W        W80156  15.352  37.158  10.260
11939W        W80157  17.663  33.293   1.306
11940W        W80158  40.578  37.500  10.707
11941W        W80159  37.912   5.797   2.176
11942W        W80160  19.941  13.192   0.726
11943W        W80161  16.570  13.437  12.142
11944W        W80162  15.401   2.963  12.107
11945W        W80163  36.120   7.224   1.949
11946W        W80164  30.492  17.292   1.006
11947W        W80165  12.646   4.240   1.697
11948W        W80166  42.379  40.588  12.845
11949W        W80167  13.874  12.277   2.641
11950W        W80168  32.179   9.644   3.249
11951W        W80169  21.245   9.837   2.564
11952W        W80170  13.764   1.149   4.521
11953W        W80171  31.182  22.615   1.758
11954W        W80172  16.127  33.814  13.445
11955W        W80173  22.094  21.314   2.853
11956W        W80174  37.536  25.752   3.670
11957W        W80175   2.809  29.672   4.670
11958W        W80176  21.343  32.675   1.833
11959W        W80177   9.164  33.438  14.531
11960W        W80178  22.571  22.291  13.900
11961W        W80179  20.492   0.407   3.917
11962W        W80180  21.339  14.112   0.838
11963W        W80181  26.793  11.606  11.910
11964W        W80182   9.802  14.217   4.573
11965W        W80183  15.351  25.212   1.254
11966W        W80184  14.303   6.918  11.208
11967W        W80185  41.008  18.047  12.084
11968W        W80186  22.613   4.320   3.177
11969W        W80187  43.589  18.423   3.684
11970W        W80188  23.668  33.320   0.359
11971W        W80189  24.164  34.460  10.185
11972W        W80190  44.711  39.606  13.155
11973W        W80191  41.054  32.439   2.234
11974W        W80192   6.346  15.292  14.549
11975W        W80193  18.133  10.966  12.083
11976W        W80194  35.888  14.889  13.975
11977W        W80195   4.347  27.083  14.038
11978W        W80196  27.743  11.099   0.784
11979W        W80197  35.800  37.473   2.653
11980W        W80198   1.908   1.014   1.786
11981W        W80199  34.699  26.911  11.060
11982W        W80200  18.780  39.659   2.195
11983W        W80201   2.156  18.170  14.102
11984W        W80202  34.231   4.940   3.557
11985W        W80203  37.506  37.041   9.652
11986W        W80204  32.980  43.841  11.212
11987W        W80205  28.553  32.081   5.178
11988W        W80206  24.206  29.011  13.027
11989W        W80207   4.315  28.102   4.273
11990W        W80208  12.630   5.900   4.129
11991W        W80209  30.158  11.672  13.374
11992W        W80210  17.480  11.414   4.115
11993W        W80211  36.372  15.752  14.975
11994W        W80212  32.070   3.947  13.971
11995W        W80213  40.474   8.778  11.291
11996W        W80214   1.394  12.930  10.657
11997W        W80215  16.282  27.265   3.058
11998W        W80216  11.248  31.471   3.795
11999W        W80217  12.394  43.570   4.689
12000W        W80218   0.404  29.773  12.340
12001W        W80219   3.024  25.610  11.652
12002W        W80220   8.327   5.961  12.446
12003W        W80221  37.957  11.133  14.301
12004W        W80222  38.397  16.303  12.598
12005W        W80223   2.337  14.557  13.877
12006W        W80224   7.364  15.328  13.892
12007W        W80225  11.277  11.755   4.689
12008W        W80226   6.347  10.745   2.424
12009W        W80227   9.139  23.311  14.926
12010W        W80228  38.998  40.233   1.098
12011W        W80229  14.462  13.936   2.077
12012W        W80230  39.455  18.484  12.015
12013W        W80231  25.173  14.816   1.027
12014W        W80232  13.248  12.168  12.948
12015W        W80233  38.737  33.431  13.894
12016W        W80234   3.850   8.663  10.736
12017W        W80235   6.853  38.335   3.146
12018W        W80236  33.538  17.378  12.172
12019W        W80237  27.901  41.909   2.292
12020W        W80238  39.134  31.332   2.754
12021W        W80239  34.697  33.986   2.291
12022W        W80240  14.562  33.013  12.640
12023W        W80241  12.653  10.365  12.967
12024W        W80242  34.704   2.226  13.597
12025W        W80243  33.461  33.167   4.446
12026W        W80244  14.538   0.563  14.091
12027W        W80245  31.460  12.282  10.447
12028W        W80246  16.279  14.126  14.431
12029W        W80247  15.252  25.739  13.030
12030W        W80248   3.120  11.021   1.755
12031W        W80249  42.024  40.202   4.652
12032W        W80250  18.598  33.934   0.239
12033W        W80251  18.143   1.305   2.227
12034W        W80252  35.116   4.823  10.641
12035W        W80253  22.123  10.329   4.531
12036W        W80254  13.768   0.421   3.454
12037W        W80255  23.802  36.890   1.249
12038W        W80256   9.889  25.305   0.313
12039W        W80257  36.824  30.998  13.337
12040W        W80258  43.501  29.053  10.432
12041W        W80259  16.078  23.338  11.432
12042W        W80260  19.320  12.721   2.230
12043W        W80261   8.732  26.550  12.021
12044W        W80262  40.567  21.118   4.205
12045W        W80263  13.124   1.416  12.866
12046W        W80264  33.128  25.513   1.382
12047W        W80265   7.386   6.715  12.926
12048W        W80266  26.118  14.515  11.068
12049W        W80267   1.097  27.700  12.418
12050W        W80268  29.627  39.573  14.316
12051W        W80269  26.328  42.866   3.349
12052W        W80270   8.731  25.529   3.567
12053W        W80271  34.827  31.427  14.938
12054W        W80272  21.732  41.527  13.906
12055W        W80273  44.894   8.977  10.785
12056W        W80274  44.835  43.490   0.857
12057W        W80275   8.796  14.084   3.604
12058W        W80276  39.362  36.073   2.273
12059W        W80277  11.725  32.954  12.999
12060W        W80278   6.665  27.000   1.357
12061W        W80279   5.776  11.362  13.772
12062W        W80280  43.896   2.721   3.311
12063W        W80281  15.342  36.972   4.119
12064W        W80282  12.488  37.503   4.201
12065W        W80283   7.272  20.610   2.855
12066W        W80284   1.526  11.451   1.518
12067W        W80285  25.208   6.835  12.979
12068W        W80286  26.974  29.577   1.006
12069W        W80287  26.108  38.966  12.234
12070W        W80288   9.423  35.068   2.214
12071W        W80289   0.324   3.454   4.550
12072W        W80290  26.795  38.992  11.163
12073W        W80291  29.909  17.965   2.335
12074W        W80292  41.778  38.496  14.915
12075W        W80293  32.100  40.902  10.676
12076W        W80294  24.580  39.186   2.294
12077W        W80295  16.148  15.867  12.589
12078W        W80296  44.826  16.662   2.833
12079W        W80297  24.506  31.081  13.870
12080W        W80298  35.824  28.888   4.974
12081W        W80299  33.742  14.524  14.249
12082W        W80300  23.119  36.726   3.667
12083W        W80301  29.020  19.580   3.875
12084W        W80302  35.446   8.329  10.932
12085W        W80303  23.795  20.603  14.464
12086W        W80304  30.591  19.096  10.706
12087W        W80305   3.637  12.094  11.599
12088W        W80306  43.935  27.480   2.988
12089W        W80307  36.796  12.287  12.120
12090W        W80308  35.947  19.526   1.090
12091W        W80309  14.652  42.712  10.955
12092W        W80310  23.005  24.195   2.684
12093W        W80311  29.321  41.875  13.815
12094W        W80312  24.630  29.886   2.451
12095W        W80313  35.163  42.029   4.982
12096W        W80314  30.590  37.543   0.879
12097W        W80315  17.706  19.307   2.703
12098W        W80316  21.668  12.558   2.637
12099W        W80317  41.776   7.315   3.522
12100W        W80318  41.453  33.623  13.345
12101W        W80319  42.254  34.038  13.469
12102W        W80320  34.119  29.826   1.257
12103W        W80321   1.428   7.917   2.395
12104W        W80322  13.598  35.582  12.751
12105W        W80323  21.350   1.927   3.128
12106W        W80324  33.856  33.953  12.120
12107W        W80325  12.251   0.734   3.161
12108W        W80326  30.614   8.610   0.744
12109W        W80327  43.252  21.161   3.012
12110W        W80328  27.133  24.232  13.835
12111W        W80329   8.728  12.134  10.502
12112W        W80330   3.266  26.123  10.748
12113W        W80331  38.824  20.102  11.985
12114W        W80332  10.824   2.399   2.335
12115W        W80333  29.120   6.270   0.291
12116W        W80334  40.951  40.690   0.189
12117W        W80335   0.167  39.925  13.841
12118W        W80336  34.094  30.237   3.996
12119W        W80337  18.740  43.494  14.499
12120W        W80338  32.016   4.506   3.840
12121W        W80339  29.116  33.845   2.858
12122W        W80340  35.005  36.813  12.681
12123W        W80341  29.708   0.706   3.185
12124W        W80342  17.354   0.304  13.441
12125W        W80343  30.813  41.757  12.407
12126W        W80344  38.686  24.523   5.051
12127W        W80345  10.622   1.283   2.814
12128W        W80346  28.180  24.957  10.170
12129W        W80347   2.327  32.694  14.469
12130W        W80348  18.685  20.970  11.669
12131W        W80349  17.708   1.055  13.342
12132W        W80350   4.310  23.141  11.109
12133W        W80351  18.143  41.190  12.440
12134W        W80352  41.465  18.647   1.640
12135W        W80353   9.772   1.361  11.195
12136W        W80354  25.939  42.373   4.726
12137W        W80355  20.404  31.703   9.755
12138W        W80356  12.207  39.917  13.286
12139W        W80357   7.653  24.162  11.578
12140W        W80358  42.016  26.547   0.713
12141W        W80359  24.956  14.390  11.655
12142W        W80360   6.692  30.080   2.274
12143W        W80361  13.395  40.227  11.617
12144W        W80362   4.476  36.471  14.939
12145W        W80363  28.006  12.798   0.467
12146W        W80364  31.011   3.151  12.083
12147W        W80365  44.365   2.855   2.196
12148W        W80366  26.992   5.379   3.875
12149W        W80367  39.331   2.442   3.204
12150W        W80368   9.713  28.435   4.920
12151W        W80369  20.722  13.103  10.226
12152W        W80370  30.558  31.415  12.490
12153W        W80371  10.598  27.523   2.724
12154W        W80372  15.432  13.651   3.647
12155W        W80373  29.701  25.275  10.815
12156W        W80374  12.472  41.828  11.889
12157W        W80375  15.821  22.725  13.088
12158W        W80376  23.021  26.045   1.852
12159W        W80377  10.475  33.390  14.905
12160W        W80378  31.433  39.450  10.651
12161W        W80379  23.062  28.386  10.637
12162W        W80380  23.194  23.740   2.854
12163W        W80381  37.581   7.432  11.901
12164W        W80382  23.981  25.930   3.695
12165W        W80383  35.447  41.791  14.081
12166W        W80384  43.239  16.626   3.559
12167W        W80385   4.067  11.936   3.169
12168W        W80386  43.016   0.993   0.138
12169W        W80387   9.443  29.083  14.510
12170W        W80388  26.980  32.680  14.687
12171W        W80389  43.344  28.577   2.781
12172W        W80390  32.088  30.959  10.936
12173W        W80391  21.226  43.378   4.631
12174W        W80392  36.745  41.867  14.895
12175W        W80393  29.731  18.574  11.689
12176W        W80394  41.726   9.080   0.956
12177W        W80395   8.815  12.385  11.478
12178W        W80396  40.145  33.416   1.449
12179W        W80397  15.196   1.799   5.435
12180W        W80398  26.376   8.189  13.012
12181W        W80399  27.235  14.575  11.880
12182W        W80400   5.831   9.798  11.131
12183W        W80401  29.470  14.101   1.552
12184W        W80402  10.246  18.176   3.885
12185W        W80403   0.456  26.659   4.625
12186W        W80404  44.412   2.477  10.725
12187W        W80405  25.880   5.926  10.441
12188W        W80406  43.421  12.666  12.875
12189W        W80407  41.902   0.973   2.714
12190W        W80408  31.906  21.659  14.397
12191W        W80409  28.194   4.355   2.354
12192W        W80410  30.099  29.893  13.860
12193W        W80411  21.031   9.247  11.278
12194W        W80412   0.836  10.783   3.292
12195W        W80413  10.201  42.404  12.418
12196W        W80414  30.532  44.053   1.307
12197W        W80415  31.998  15.694   2.123
12198W        W80416  41.299  27.914  11.629
12199W        W80417  15.295  44.953   1.183
12200W        W80418  38.386  30.853   0.436
12201W        W80419  25.733   2.181  13.790
12202W        W80420  23.278  21.169  12.436
12203W        W80421  41.998  40.136   0.807
12204W        W80422  10.422  23.587   3.966
12205W        W80423  24.932  20.972  11.990
12206W        W80424  22.265  36.612   1.987
12207W        W80425   4.503  19.797  12.397
12208W        W80426  38.043  27.412   3.727
12209W        W80427  24.045  18.797  10.789
12210W        W80428  35.999   0.397   3.639
12211W        W80429  24.564  25.634   1.542
12212W        W80430  26.465  44.863  14.340
12213W        W80431  24.457   9.239   3.775
12214W        W80432  22.223  29.700   4.009
12215W        W80433  28.243  17.709  10.198
12216W        W80434  41.813  12.172  14.879
12217W        W80435   6.401  26.827   2.559
12218W        W80436  37.505   9.817  11.940
12219W        W80437  37.972  21.122   1.889
12220W        W80438  41.917  43.380   0.362
12221W        W80439  25.635  29.947  13.051
12222W        W80440  40.957   3.713   1.214
12223W        W80441  30.786   6.814  14.299
12224W        W80442  35.888  12.721  14.438
12225W        W80443   0.503   0.000   0.854
12226W        W80444  42.034   0.481   2.711
12227W        W80445  22.425  16.125   0.051
12228W        W80446  10.442  30.999   0.999
12229W        W80447  11.309  22.574   4.234
12230W        W80448  38.524  18.515   4.251
12231W        W80449  37.070  10.869   0.636
12232W        W80450  24.269   8.874  12.984
12233W        W80451   2.182  10.222   0.346
12234W        W80452  42.042  41.818  12.055
12235W        W80453  28.514  23.433   0.584
12236W        W80454   9.934  44.705  13.811
12237W        W80455  10.697   0.588   2.205
12238W        W80456   6.406  33.999  11.990
12239W        W80457  16.272  30.087  13.796
12240W        W80458  11.748   2.882  10.921
12241W        W80459  26.054  23.496  12.620
12242W        W80460  35.904  38.643   0.065
12243W        W80461  39.104  24.793  11.659
12244W        W80462   6.976  24.718   0.859
12245W        W80463  42.052  33.573   3.070
12246W        W80464  10.675  15.327   2.015
12247W        W80465  18.366  44.354   2.757
12248W        W80466  44.880  22.636  13.606
12249W        W80467  34.946  41.705  13.278
12250W        W80468  12.218  32.397  11.948
12251W        W80469  31.199  34.465  14.541
12252W        W80470  35.555   0.014  10.709
12253W        W80471  32.073  16.147  13.175
12254W        W80472  18.510   1.703   3.631
12255W        W80473  39.944  14.650  11.587
12256W        W80474  25.208   6.228   1.622
12257W        W80475  29.473  13.303  10.560
12258W        W80476   6.851  39.235   1.318
12259W        W80477  15.511   9.847   3.891
12260W        W80478  44.968   8.941   1.996
12261W        W80479  39.734  35.889  10.538
12262W        W80480   6.981  10.223  12.611
12263W        W80481  18.336  22.486  13.445
12264W        W80482  12.826  19.980  12.031
12265W        W80483  22.151   7.005  13.388
12266W        W80484  29.656   2.747  11.582
12267W        W80485   7.807  13.267   3.385
12268W        W80486   4.743  29.923  13.876
12269W        W80487  32.232   8.218  11.197
12270W        W80488  19.779   2.912   2.268
12271W        W80489  18.044  10.704  13.414
12272W        W80490  44.643   9.805  14.870
12273W        W80491  16.627   9.333  11.193
12274W        W80492   5.253  36.583  13.534
12275W        W80493  44.597   0.373   4.575
12276W        W80494  26.725  27.470   1.960
12277W        W80495  34.914   7.843   4.120
12278W        W80496  32.996  31.163  14.107
12279W        W80497  14.802   7.429  11.560
12280W        W80498   2.573  42.427   1.366
12281W        W80499   7.465  32.100  11.094
12282W        W80500  22.328  12.397  13.475
12283W        W80501  41.573  33.573   4.494
12284W        W80502   8.299  21.506  14.486
12285W        W80503  33.412  10.436  12.573
12286W        W80504  23.422  21.631  12.604
12287W        W80505   9.858  16.068  12.534
12288W        W80506  36.092  18.133  14.264
12289W        W80507   1.842  39.353  10.928
12290W        W80508  40.329  44.743  12.925
12291W        W80509  19.062  44.071  12.054
12292W        W80510   1.259  25.408  12.873
12293W        W80511  32.663  19.659   2.279
12294W        W80512   4.851  14.125  10.097
12295W        W80513   8.662  22.628  12.607
12296W        W80514   2.409  26.828   0.009
12297W        W80515   9.138   6.336   3.293
12298W        W80516  27.055   4.761  12.544
12299W        W80517  30.287  36.592  11.058
12300W        W80518   2.475   0.809  14.881
12301W        W80519  37.661  39.838   1.827
12302W        W80520  14.976  35.822   0.339
12303W        W80521  10.278  32.210  13.771
12304W        W80522  22.224  19.704   3.715
12305W        W80523  15.337   4.427  13.950
12306W        W80524   2.837  44.792  13.038
12307W        W80525  44.287  34.947   9.984
12308W        W80526  44.003  26.178  12.081
12309W        W80527   0.844  38.148  12.026
12310W        W80528  39.464   0.687  14.662
12311W        W80529  19.048  32.554   4.736
12312W        W80530  21.602   4.745   4.705
12313W        W80531  15.359   4.267   4.292
12314W        W80532  24.793  38.086  12.069
12315W        W80533  31.379  24.691   2.938
12316W        W80534  27.741   2.850  13.144
12317W        W80535  17.038  13.830  12.951
12318W        W80536  14.668  10.099  13.831
12319W        W80537  39.323  41.907  13.403
12320W        W80538  32.628  37.276   0.054
12321W        W80539  36.676  24.995  11.819
12322W        W80540  43.970  41.325  10.444
12323W        W80541  24.978  40.894   2.813
12324W        W80542  25.101  12.223  11.464
12325W        W80543  40.794   1.903   9.986
12326W        W80544  35.011   4.339  11.037
12327W        W80545  31.433   9.180   0.465
12328W        W80546  11.377  14.336  14.762
12329W        W80547  30.694  44.361  12.203
12330W        W80548  35.503   5.207   1.930
12331W        W80549  33.187  15.170   4.622
12332W        W80550  17.922  15.677  13.233
12333W        W80551  41.358  15.629  11.623
12334W        W80552  26.014  34.386  12.315
12335W        W80553  19.812  28.044   5.059
12336W        W80554  31.319  41.814  11.100
12337W        W80555  16.309  10.166  14.103
12338W        W80556  11.127  24.555   2.439
12339W        W80557   4.307  39.626   1.217
12340W        W80558  29.692  28.160   2.570
12341W        W80559  29.667  34.461  13.105
12342W        W80560  24.523  41.561  13.921
12343W        W80561  23.771  16.824  12.373
12344W        W80562   8.729  28.238   2.216
12345W        W80563  17.571   6.871  10.609
12346W        W80564  39.961  23.169  14.963
12347W        W80565   4.843   8.364  14.740
12348W        W80566   3.160  14.927  12.370
12349W        W80567  38.037  22.931   4.402
12350W        W80568  26.447  21.246  13.584
12351W        W80569  43.503   3.835  12.951
12352W        W80570  38.351  36.397  13.515
12353W        W80571  31.889  19.428  13.571
12354W        W80572   2.552  35.132  14.906
12355W        W80573   9.731  36.120  10.639
12356W        W80574   0.887  27.930   2.175
12357W        W80575  29.515  34.025  11.562
12358W        W80576   9.311  20.771   0.940
12359W        W80577  22.623  33.135   2.157
12360W        W80578  42.783  38.451   3.964
12361W        W80579   6.151  22.686  13.095
12362W        W80580   3.823   3.258  12.442
12363W        W80581   3.169  19.227   1.660
12364W        W80582  17.264   6.417  11.985
12365W        W80583  17.881  15.993   2.516
12366W        W80584   6.405   1.687   0.901
12367W        W80585  31.002  11.303   4.140
12368W        W80586  30.164  27.678  11.129
12369W        W80587  34.539  27.472  14.757
12370W        W80588   2.546  26.882  12.423
12371W        W80589  36.348  44.501   1.301
12372W        W80590  37.248  34.912   4.556
12373W        W80591   1.303  35.667   1.893
12374W        W80592  41.547  41.794  13.940
12375W        W80593   3.232  40.575   1.787
12376W        W80594  22.205  37.622   2.576
12377W        W80595  37.363  30.422   4.767
12378W        W80596   4.995  28.140   2.819
12379W        W80597  18.343   3.201  13.956
12380W        W80598  35.309  20.038   0.227
12381W        W80599  15.853  33.885   1.801
12382W        W80600  34.396  11.727  13.866
12383W        W80601   9.202  33.957   3.645
12384W        W80602   1.032  41.342   2.198
12385W        W80603   4.295  33.811   0.480
12386W        W80604  42.988  15.671  14.278
12387W        W80605  36.557   4.254  10.696
12388W        W80606  37.274  40.473  14.002
12389W        W80607  16.502  11.300   3.249
12390W        W80608  25.763   7.276   4.106
12391W        W80609  37.076  25.117   1.637
12392W        W80610  24.049  44.975  11.497
12393W        W80611  18.216  12.195  11.627
12394W        W80612  15.784  34.293  12.010
12395W        W80613  24.203   6.803  12.934
12396W        W80614   0.031  16.004   2.321
12397W        W80615  15.656  19.607   1.916
12398W        W80616  41.338  40.046   3.825
12399W        W80617  18.497  23.755  11.029
12400W        W80618  14.299  14.692   0.067
12401W        W80619   3.832  24.777  11.985
12402W        W80620  29.302  42.287  14.111
12403W        W80621  28.726   5.119  13.808
12404W        W80622  34.022  13.868  13.430
12405W        W80623  22.043  28.044   1.164
12406W        W80624  36.131  32.383  10.651
12407W        W80625  22.517   2.541  11.579
12408W        W80626  35.461   9.195   4.205
12409W        W80627  16.053  39.988  11.143
12410W        W80628   8.174  31.511  10.991
12411W        W80629  18.727  35.424   0.411
12412W        W80630   4.449  34.320   4.199
12413W        W80631  40.005  15.463   4.814
12414W        W80632  34.916  27.120  14.419
12415W        W80633  10.219  43.143  14.698
12416W        W80634  22.333  40.840  12.430
12417W        W80635  33.319   5.424  13.895
12418W        W80636  32.148   3.446   3.552
12419W        W80637  41.115   1.959   0.854
12420W        W80638  18.777   5.723  11.524
12421W        W80639  31.672  41.768  14.003
12422W        W80640   8.866  14.163   2.162
12423W        W80641  32.996  18.503   1.859
12424W        W80642   3.495  35.130  12.410
12425W        W80643  17.783  16.534  14.584
12426W        W80644  30.068  15.142   0.358
12427W        W80645  23.421  19.707   0.940
12428W        W80646  18.675  11.185  11.588
12429W        W80647  11.298  43.397   3.380
12430W        W80648  25.174  44.124   1.660
12431W        W80649  12.452  31.432   0.777
12432W        W80650  19.708  15.769   1.385
12433W        W80651  16.696  28.411   4.429
12434W        W80652  20.049   0.118   4.156
12435W        W80653   3.382   1.301  12.897
12436W        W80654  21.102  34.040   4.520
12437W        W80655  38.556  23.300   2.298
12438W        W80656  34.008  11.711   3.761
12439W        W80657  13.072   0.456  10.742
12440W        W80658  35.482  32.457   4.820
12441W        W80659  25.725  25.641  11.966
12442W        W80660  29.513  26.262  11.041
12443W        W80661  34.715  40.088  11.733
12444W        W80662  28.680  22.942   5.107
12445W        W80663  34.787  21.277   4.960
12446W        W80664  15.230  44.324  12.809
12447W        W80665   1.362  13.678  13.722
12448W        W80666  10.471  13.036  12.920
12449W        W80667   4.622  30.079  12.974
12450W        W80668  24.861  41.473  11.678
12451W        W80669  24.970  10.172   3.594
12452W        W80670   9.368  42.318   9.459
12453W        W80671   8.346  20.243  12.319
12454W        W80672   9.390   4.523  13.116
12455W        W80673   5.404  10.995  13.822
12456W        W80674  37.896   1.062   3.358
12457W        W80675  40.721  22.540   1.808
12458W        W80676  19.702  31.397   1.692
12459W        W80677  10.766  40.778  14.312
12460W        W80678  15.311  43.927  10.951
12461W        W80679  35.163  42.682   2.092
12462W        W80680  12.179  36.492   3.437
12463W        W80681  43.962  20.653   0.790
12464W        W80682  15.165   4.757   1.350
12465W        W80683  24.148  22.492   2.809
12466W        W80684  15.610  18.306   1.206
12467W        W80685  38.307  27.958  13.841
12468W        W80686   0.785  16.625  13.895
12469W        W80687  22.151  10.570  11.451
12470W        W80688  24.595  20.654  11.601
12471W        W80689  21.487  37.330   1.334
12472W        W80690  22.149  29.161  12.551
12473W        W80691  43.102  19.584   2.319
12474W        W80692  17.807   5.691   4.144
12475W        W80693  27.401   9.316  13.499
12476W        W80694  29.489  43.076  10.882
12477W        W80695  30.633   3.713   0.231
12478W        W80696   2.552  13.101  13.939
12479W        W80697  24.280  21.820  11.244
12480W        W80698  28.550   8.601  12.574
12481W        W80699  21.091  15.669  12.999
12482W        W80700  26.127  34.018  14.096
12483W        W80701  10.662  21.158   3.533
12484W        W80702  28.224  41.288  11.170
12485W        W80703  14.033  35.238   3.132
12486W        W80704   9.147   9.740   2.126
12487W        W80705  35.912  36.893  14.541
12488W        W80706  39.042  28.234   3.761
12489W        W80707  20.531  43.445   3.068
12490W        W80708   7.910  32.156   3.737
12491W        W80709  20.872  23.055  12.089
12492W        W80710  42.525   3.257   1.822
12493W        W80711  28.077  27.427   0.341
12494W        W80712  16.033  41.793   4.633
12495W        W80713  36.950  27.700   2.940
12496W        W80714  43.360  29.216  13.414
12497W        W80715   6.520   2.179   0.966
12498W        W80716  13.497  30.685   4.966
12499W        W80717   8.716  24.725   2.287
12500W        W80718  34.434  15.356  11.411
12501W        W80719  13.219  24.783  11.043
12502W        W80720   1.339  22.040   4.962
12503W        W80721   2.852  39.439   2.610
12504W        W80722  38.107   8.301   0.751
12505W        W80723   1.916  30.161   4.541
12506W        W80724  31.587  37.901   0.325
12507W        W80725  44.507  15.782  13.567
12508W        W80726  38.031   4.877  12.899
12509W        W80727  24.271  41.737   1.698
12510W        W80728  30.305  26.654   4.099
12511W        W80729  32.446  36.588  10.507
12512W        W80730  29.516  38.884  12.008
12513W        W80731   7.597  28.330  14.502
12514W        W80732  15.375  32.024  13.879
12515W        W80733  12.050  16.633   3.569
12516W        W80734  33.568  29.730  14.011
12517W        W80735   2.866  16.663  10.725
12518W        W80736  36.865  41.992   4.473
12519W        W80737  37.427  10.397  10.730
12520W        W80738  25.189  44.365   0.313
12521W        W80739  16.324  13.006   3.173
12522W        W80740  31.087  35.906   4.129
12523W        W80741  26.920  24.116   2.732
12524W        W80742   2.522  18.625   0.435
12525W        W80743   3.315   1.528  14.277
12526W        W80744  13.401  11.378  10.995
12527W        W80745  16.886  39.941  10.734
12528W        W80746  41.640   8.703   4.210
12529W        W80747  13.917  18.463  13.080
12530W        W80748   3.231  24.990   3.319
12531W        W80749  17.617  34.684  13.974
12532W        W80750  19.727   6.385  10.484
12533W        W80751  19.827  41.950  12.117
12534W        W80752  35.623  42.244   4.848
12535W        W80753  30.045  31.562   2.720
12536W        W80754  28.536  41.537   0.936
12537W        W80755  23.325   6.693   1.206
12538W        W80756   0.018  17.297   0.783
12539W        W80757  28.683  41.304   1.381
12540W        W80758  35.878  12.803   2.470
12541W        W80759   3.905  25.730  14.899
12542W        W80760   2.696   4.139  13.937
12543W        W80761   2.439  21.657   3.442
12544W        W80762   7.728   1.974   1.898
12545W        W80763  13.379  44.601   3.655
12546W        W80764   4.664  13.736  13.361
12547W        W80765  18.736  17.493  14.544
12548W        W80766  34.597  19.314  10.567
12549W        W80767  42.960   5.745   3.166
12550W        W80768  39.408  35.822   4.059
12551W        W80769  27.584  36.072  10.599
12552W        W80770   9.021   8.361  14.773
12553W        W80771  30.617  23.069   0.563
12554W        W80772   0.645  17.849   1.244
12555W        W80773  42.752  36.665  14.968
12556W        W80774  16.580  31.480   1.776
12557W        W80775  37.977  33.574  12.210
12558W        W80776  32.514  43.418   1.915
12559W        W80777  17.848  17.539   1.637
12560W        W80778  12.343  35.528   0.837
12561W        W80779   2.836  10.621   3.628
12562W        W80780  27.022  40.337  12.350
12563W        W80781  43.839  37.139   1.951
12564W        W80782   8.695   3.358  13.377
12565W        W80783   9.863  42.566   3.869
12566W        W80784  24.530  29.569  11.530
12567W        W80785  36.027  22.476   0.623
12568W        W80786  14.144  32.407   9.936
12569W        W80787  23.079  23.289  14.412
12570W        W80788   3.816  23.865   1.004
12571W        W80789   6.860   3.509  12.896
12572W        W80790  42.332   7.791  14.076
12573W        W80791  29.162  20.542  14.034
12574W        W80792  28.370   4.970   2.686
12575W        W80793   7.971   5.848  13.994
12576W        W80794   6.419  13.517  13.653
12577W        W80795   2.183  23.974   4.631
12578W        W80796   9.008  20.225   2.139
12579W        W80797   7.118  10.730   0.022
12580W        W80798  32.029  12.785   0.790
12581W        W80799   2.383  31.617  11.865
12582W        W80800   7.818  14.754  14.185
12583W        W80801   0.585  38.070   0.415
12584W        W80802  13.042  31.000  13.018
12585W        W80803  39.106  32.366   2.264
12586W        W80804  35.971  36.014  13.956
12587W        W80805  43.677  33.654  12.685
12588W        W80806  40.849   9.450  10.734
12589W        W80807   9.285  11.541  14.551
12590W        W80808  37.978  35.706  14.898
12591W        W80809  35.530  11.280   2.104
12592W        W80810   2.300  42.069   0.458
12593W        W80811  24.947   5.469  11.278
12594W        W80812   0.018  13.645   1.415
12595W        W80813  13.331  18.207   2.365
12596W        W80814  17.336  14.089   0.718
12597W        W80815  14.535  28.675   3.632
12598W        W80816   0.334  13.024  13.332
12599W        W80817  31.924  37.253   3.976
12600W        W80818  31.681  20.946   2.284
12601W        W80819  30.880  39.004  14.597
12602W        W80820  12.249  13.295  12.119
12603W        W80821   2.228  11.878  13.128
12604W        W80822  24.100   2.965  10.650
12605W        W80823  18.710  14.143   1.282
12606W        W80824  18.582   4.931  10.241
12607W        W80825  24.506  34.133  12.711
12608W        W80826  14.627  42.525  14.006
12609W        W80827  24.202  17.606  14.919
12610W        W80828  40.199  15.588  11.023
12611W        W80829   6.680   8.013  12.805
12612W        W80830   5.378  44.973  10.602
12613W        W80831  19.196  33.789  13.133
12614W        W80832  14.141   5.585  10.705
12615W        W80833  25.509  22.043   3.185
12616W        W80834  35.121  12.898   3.506
12617W        W80835  43.107  11.204  13.075
12618W        W80836  27.344  27.013  14.039
12619W        W80837  11.708  40.657  10.206
12620W        W80838  25.997  14.108  11.480
12621W        W80839  43.904   1.376  10.420
12622W        W80840  27.981  42.257  13.282
12623W        W80841  13.665  27.741   4.644
12624W        W80842   8.203   8.857   0.538
12625W        W80843  35.094  23.094  13.845
12626W        W80844  14.064  32.516   2.667
12627W        W80845  27.075  41.564   3.322
12628W        W80846  33.942  43.386   0.726
12629W        W80847   3.205  25.028   3.842
12630W        W80848   5.938  42.870  11.001
12631W        W80849  33.362  43.254  10.889
12632W        W80850   8.821  32.065  14.996
12633W        W80851  31.691  20.824  13.074
12634W        W80852  15.814  40.617  14.349
12635W        W80853  12.106  28.246  13.455
12636W        W80854  17.528  13.722   1.880
12637W        W80855  15.137  24.705  14.871
12638W        W80856  34.344  22.756  11.526
12639W        W80857  43.513  37.981  14.866
12640W        W80858   2.159  20.969  12.545
12641W        W80859  13.912  23.436  14.071
12642W        W80860  37.174  40.362  10.494
12643W        W80861  33.899  12.747  12.406
12644W        W80862  34.446  33.808  10.808
12645W        W80863  34.850  30.976  12.825
12646W        W80864  38.756  13.623  12.905
12647W        W80865  18.670  12.774  13.797
12648W        W80866  25.555  23.723   0.508
12649W        W80867  10.499  23.500   1.455
12650W        W80868  37.511  33.340  14.961
12651W        W80869  27.988  28.021  10.120
12652W        W80870  28.333  18.009  12.692
12653W        W80871  13.619   1.528  10.613
12654W        W80872   7.876   9.108  14.400
12655W        W80873  12.647  23.714   1.752
12656W        W80874   6.379  16.300  10.278
12657W        W80875  13.039  40.906  12.943
12658W        W80876  31.886  15.094   4.161
12659W        W80877   2.068  23.361  10.731
12660W        W80878  23.518  10.846  12.181
12661W        W80879  41.027  27.217  14.419
12662W        W80880  21.223   3.280   9.932
12663W        W80881   4.231  11.298  13.657
12664W        W80882  15.780   0.532   5.612
12665W        W80883  16.111  10.278  13.633
12666W        W80884  29.260  21.747  11.024
12667W        W80885  25.586   4.022  11.603
12668W        W80886  15.194  24.194   3.288
12669W        W80887  22.238   4.781   0.890
12670W        W80888  14.768   3.242   0.035
12671W        W80889  18.882  17.823  13.572
12672W        W80890   2.466  11.048   3.861
12673W        W80891  42.545  44.003  14.326
12674W        W80892  31.032  36.399  12.619
12675W        W80893  14.113   4.854  10.817
12676W        W80894  31.659  27.898   3.116
12677W        W80895  42.499  28.535  11.181
12678W        W80896  37.310  17.205   1.214
12679W        W80897   2.580  13.033  14.609
12680W        W80898  21.142  33.105   5.560
12681W        W80899  15.946  13.756   1.775
12682W        W80900  40.952   5.469   3.385
12683W        W80901  38.941  28.550   4.716
12684W        W80902   6.424  38.798  12.737
12685W        W80903  35.571  29.362   0.561
12686W        W80904  23.599   0.716   0.462
12687W        W80905  25.569  41.044  10.515
12688W        W80906  28.424  33.911   1.323
12689W        W80907  11.896  41.951  14.056
12690W        W80908  12.587  16.161   4.622
12691W        W80909  17.223  18.264  13.300
12692W        W80910  35.483  18.842   0.840
12693W        W80911  40.707  26.986  13.418
12694W        W80912  39.060  12.747  11.971
12695W        W80913  12.193  23.104   4.275
12696W        W80914  18.082  26.078   1.846
12697W        W80915  27.643  32.167   3.859
12698W        W80916   6.185  12.270   1.765
12699W        W80917   3.762  16.698   3.105
12700W        W80918  16.562  18.581  13.395
12701W        W80919  40.854  35.028  11.178
12702W        W80920  14.153  32.059   2.881
12703W        W80921  38.447  35.887   0.122
12704W        W80922  42.329  32.359  13.875
12705W        W80923  13.451   7.627  14.679
12706W        W80924  32.034   4.720  14.446
12707W        W80925   3.301  31.882   4.064
12708W        W80926   1.028  23.088  10.725
12709W        W80927  27.143  36.000   1.784
12710W        W80928  14.365  18.782   4.569
12711W        W80929  22.633   6.615   5.202
12712W        W80930  24.395  20.658  12.979
12713W        W80931  24.795  21.182  10.761
12714W        W80932  25.478  39.781  14.407
12715W        W80933  44.890  38.694   2.096
12716W        W80934  31.737   7.895   0.996
12717W        W80935  29.901  14.641   3.820
12718W        W80936  42.980  19.047  14.523
12719W        W80937  21.104  10.763   4.637
12720W        W80938  40.367  21.760   2.579
12721W        W80939  16.733  42.124   3.851
12722W        W80940  19.333  12.280  10.361
12723W        W80941  21.106  39.413  10.615
12724W        W80942  42.425  41.060  10.426
12725W        W80943  35.134  29.662   3.131
12726W        W80944  19.009  23.778   0.921
12727W        W80945   3.290  30.961  13.135
12728W        W80946  10.069  35.663   3.684
12729W        W80947  19.637  33.547   0.875
12730W        W80948  12.084  36.041  14.976
12731W        W80949  22.539  42.341   0.918
12732W        W80950  37.613  31.031  13.844
12733W        W80951   3.652  23.205   2.741
12734W        W80952  12.409   2.397   1.452
12735W        W80953  20.191  20.053  11.612
12736W        W80954   5.447  12.228  13.340
12737W        W80955  19.868  10.900  13.881
12738W        W80956  23.484  35.819   2.194
12739W        W80957  42.529  42.347   1.727
12740W        W80958  12.677  16.015   1.332
12741W        W80959  24.937  20.323  13.828
12742W        W80960   7.751  18.301  13.775
12743W        W80961   8.422  27.178  14.914
12744W        W80962  20.115   4.697  12.975
12745W        W80963  25.727  26.555  14.876
12746W        W80964  19.876  33.613   0.440
12747W        W80965  43.023   0.923   1.747
12748W        W80966   8.969   9.326   1.834
12749W        W80967  21.010  42.334   2.096
12750W        W80968  11.913  10.295  14.606
12751W        W80969  34.647  18.994  12.476
12752W        W80970  32.090  30.184   3.167
12753W        W80971  41.868  15.273   4.532
12754W        W80972  30.140   0.478   4.073
12755W        W80973  27.251  37.882   4.855
12756W        W80974  29.745  28.692   1.457
12757W        W80975  11.065  36.400  12.510
12758W        W80976  13.939  14.835   0.973
12759W        W80977   9.938  10.766  12.866
12760W        W80978   4.543  27.569  14.139
12761W        W80979  12.063  19.687  11.883
12762W        W80980  39.532  12.812  13.001
12763W        W80981  40.350  13.111  14.781
12764W        W80982  40.103   7.246   1.413
12765W        W80983   3.995  37.807  12.576
12766W        W80984   5.716  41.390   4.224
12767W        W80985  18.568   2.781   2.646
12768W        W80986  15.366   3.818   1.040
12769W        W80987  26.830   0.198  10.514
12770W        W80988  39.875  40.563   1.745
12771W        W80989  16.584  42.592  11.195
12772W        W80990  31.924  11.059   3.231
12773W        W80991  35.094  16.965  12.030
12774W        W80992  22.998  25.478   2.614
12775W        W80993   4.628  19.012  11.323
12776W        W80994  14.566  32.902  11.131
12777W        W80995  15.855  21.002  13.370
12778W        W80996  32.204  21.246  11.588
12779W        W80997  16.737   0.337  14.911
12780W        W80998   6.283  32.208   1.841
12781W        W80999  28.064  14.026   4.038
12782W        W81000   4.098   9.116   4.239
12783W        W81001   0.881  42.792   1.472
12784W        W81002  23.131  15.884  14.292
12785W        W81003  28.921  20.604   2.695
12786W        W81004  44.219  39.732  13.401
12787W        W81005  16.752  15.990   2.781
12788W        W81006  31.530  41.863   4.122
12789W        W81007  32.850  40.364   2.239
12790W        W81008  40.349  31.647  13.520
12791W        W81009  16.520  27.603  11.743
12792W        W81010  22.592   2.385  14.389
12793W        W81011  34.906  42.564   3.854
12794W        W81012  39.649  30.907   1.581
12795W        W81013  22.161   7.398   3.232
12796W        W81014  40.214   6.172  11.609
12797W        W81015  18.631  18.232   4.475
12798W        W81016  10.724  22.233   4.688
12799W        W81017  17.218  38.477  13.535
12800W        W81018  43.519  39.773   0.954
12801W        W81019  22.000  39.874  14.885
12802W        W81020  37.333  14.851  12.364
12803W        W81021  24.377  40.539   1.768
12804W        W81022  10.041  16.272   0.745
12805W        W81023   2.814   4.852   2.373
12806W        W81024  33.972  36.644  10.776
12807W        W81025  27.541  15.674  14.704
12808W        W81026  20.159  11.761  12.873
12809W        W81027  37.793  41.949  14.895
12810W        W81028   7.929  21.910   3.781
12811W        W81029  10.365   5.904  12.826
12812W        W81030  22.975  18.207  14.600
12813W        W81031  20.740   1.322   4.252
12814W        W81032  34.533   5.488  13.408
12815W        W81033  40.092  19.621   0.023
12816W        W81034   6.204  20.575  12.345
12817W        W81035  27.328   0.954   3.303
12818W        W81036   9.608  18.319   2.259
12819W        W81037  36.244  38.443   1.696
12820W        W81038   0.470  42.370  12.398
12821W        W81039  44.654  31.916  12.504
12822W        W81040  36.501  15.844  10.307
12823W        W81041  41.428  21.688  14.384
12824W        W81042  16.083  16.143   4.977
12825W        W81043  35.929  27.608  12.361
12826W        W81044   0.525  43.759   2.696
12827W        W81045  35.359   1.217   0.037
12828W        W81046  18.190   2.307   4.161
12829W        W81047  27.693  10.978  13.970
12830W        W81048  24.610  12.669   2.815
12831W        W81049  44.730  21.838  11.171
12832W        W81050  15.425  16.294  14.903
12833W        W81051  14.933  21.042  13.048
12834W        W81052  37.143  37.089  12.013
12835W        W81053   1.113   9.403   0.254
12836W        W81054   9.240  26.124   3.840
12837W        W81055   2.184  32.157   0.282
12838W        W81056  35.017  38.395   2.180
12839W        W81057  19.283  41.778   0.577
12840W        W81058  23.920  34.604   1.423
12841W        W81059  20.569   3.997   1.399
12842W        W81060   2.018  10.648   3.298
12843W        W81061  37.934   8.200  11.102
12844W        W81062  24.558   9.686  13.331
12845W        W81063  30.675  35.875   1.375
12846W        W81064  32.372  15.742   2.845
12847W        W81065   6.839   5.186  11.532
12848W        W81066  11.092  23.736   3.196
12849W        W81067  22.859   9.185   3.685
12850W        W81068  29.549  36.136   5.104
12851W        W81069  18.983  20.265   1.237
12852W        W81070  21.510  26.951  12.621
12853W        W81071  18.845  25.058   5.078
12854W        W81072  13.168  17.222  14.714
12855W        W81073  14.279  30.697   0.089
12856W        W81074  34.023   5.994   4.118
12857W        W81075  28.674  37.380   4.694
12858W        W81076  28.445  32.514  13.844
12859W        W81077   0.047   5.783  12.132
12860W        W81078   0.955  26.461   1.451
12861W        W81079  18.692  14.509   0.356
12862W        W81080  41.171  13.716   3.075
12863W        W81081   9.580  39.036   1.083
12864W        W81082  43.783   6.718  14.349
12865W        W81083  33.433   8.390   2.788
12866W        W81084  11.370  27.446  13.919
12867W        W81085  30.947  21.050  11.213
12868W        W81086  25.226   6.819  11.559
12869W        W81087   1.383  20.750   2.397
12870W        W81088  36.621  39.514   2.354
12871W        W81089  31.201  31.269  11.099
12872W        W81090  15.696  33.615   0.980
12873W        W81091   7.397  23.031  12.823
12874W        W81092  17.296  15.662   3.354
12875W        W81093  17.755  29.440  11.463
12876W        W81094  25.098  18.025   3.806
12877W        W81095   0.838   9.885   0.405
12878W        W81096  26.660  10.894   3.335
12879W        W81097  25.769  24.118  11.514
12880W        W81098  25.627  25.784   2.243
12881W        W81099  33.515  18.810   4.195
12882W        W81100  28.672  22.397  13.285
12883W        W81101  11.409   4.807  11.453
12884W        W81102   1.465  41.561  13.814
12885W        W81103  15.898  43.644  11.738
12886W        W81104  13.052  30.032   0.252
12887W        W81105  44.861  16.851  10.676
12888W        W81106   0.042  18.823  12.527
12889W        W81107  23.664   1.049   0.062
12890W        W81108  44.605  43.296  13.294
12891W        W81109  24.047  30.578   1.911
12892W        W81110   8.656  32.651   0.407
12893W        W81111   9.134  40.068   4.152
12894W        W81112  10.103  24.274   0.448
12895W        W81113  23.669  19.595   5.002
12896W        W81114  16.195   7.250  11.221
12897W        W81115  26.056  14.852   2.818
12898W        W81116   2.351  11.073   1.227
12899W        W81117  11.675  22.735   3.296
12900W        W81118  44.455  34.457  14.280
12901W        W81119   2.213   2.921   0.875
12902W        W81120   3.886  16.342   1.819
12903W        W81121  42.982  24.818   3.731
12904W        W81122   9.430  42.838   1.339
12905W        W81123  13.094  29.424   1.874
12906W        W81124  37.976  11.752  11.749
12907W        W81125  20.188  13.570  14.423
12908W        W81126  10.297  25.997   2.733
12909W        W81127   5.904  38.598   2.782
12910W        W81128  30.918  11.564   2.287
12911W        W81129  12.169  16.367  11.828
12912W        W81130   9.487  15.653   2.775
12913W        W81131  24.803   5.796  14.398
12914W        W81132  24.998  36.572   3.751
12915W        W81133  16.141  24.039   3.436
12916W        W81134  41.538  28.461   0.840
12917W        W81135  21.035  31.038  13.026
12918W        W81136  26.518  29.532  13.313
12919W        W81137  22.761  21.126  10.635
12920W        W81138  44.459  23.760   2.363
12921W        W81139   1.770  13.802   1.452
12922W        W81140   1.458   6.658   4.378
12923W        W81141  37.065  27.387  11.092
12924W        W81142   4.723  29.050   1.496
12925W        W81143  35.532  27.022   3.798
12926W        W81144  11.260  13.263   0.251
12927W        W81145  25.310   4.870   4.562
12928W        W81146  18.650  16.822  14.110
12929W        W81147   9.758  44.733   1.918
12930W        W81148   7.825  28.215  10.206
12931W        W81149  42.852  25.606  10.659
12932W        W81150  24.178  24.724  13.495
12933W        W81151  44.514  17.282   0.842
12934W        W81152  28.039  40.368  14.448
12935W        W81153   0.797  35.857   3.666
12936W        W81154  25.215  10.182   1.766
12937W        W81155   4.655  17.552   4.897
12938W        W81156  15.630   7.951   2.290
12939W        W81157  24.767   0.828  12.038
12940W        W81158   6.433  24.083  14.278
12941W        W81159   8.898  37.408  14.273
12942W        W81160  11.141  29.766  11.600
12943W        W81161   0.840  28.615   4.094
12944W        W81162  20.444  36.063  12.020
12945W        W81163  42.078  41.405   2.732
12946W        W81164   5.952  12.352  13.345
12947W        W81165  28.198   2.358  10.274
12948W        W81166  40.921  12.038   4.210
12949W        W81167  17.702  26.870   2.221
12950W        W81168  31.159  36.542   1.627
12951W        W81169   6.632   7.304   0.226
12952W        W81170  43.745  43.373  13.983
12953W        W81171  13.079  36.105   5.221
12954W        W81172  30.511  12.418  13.381
12955W        W81173  44.832  24.575  14.549
12956W        W81174  34.401   1.935   0.945
12957W        W81175  12.258   1.598  13.080
12958W        W81176  19.531  26.209  10.959
12959W        W81177   7.158  29.894  11.304
12960W        W81178  20.946  14.603   5.133
12961W        W81179   3.765  36.969  14.947
12962W        W81180  26.649  33.064   0.466
12963W        W81181  23.912   3.634  11.676
12964W        W81182   9.452  24.667   1.742
12965W        W81183  22.048   3.223   3.786
12966W        W81184  17.817  27.573   4.228
12967W        W81185  17.546  12.282  13.016
12968W        W81186  19.213  32.853  13.718
12969W        W81187  28.634  17.617  12.837
12970W        W81188  30.087   9.394  10.831
12971W        W81189   7.061  30.618   0.779
12972W        W81190  11.861   3.762  14.455
12973W        W81191  27.616  33.115  12.881
12974W        W81192  18.224   0.427   4.168
12975W        W81193  44.329  28.030  11.586
12976W        W81194  40.320  37.669  12.053
12977W        W81195  41.897  28.113  10.498
12978W        W81196  19.421  18.829   1.250
12979W        W81197  39.044   0.958  12.613
12980W        W81198   5.475  24.447  12.451
12981W        W81199  43.988  18.180  11.114
12982W        W81200  30.256  22.206   2.211
12983W        W81201  22.759  14.073  12.416
12984W        W81202  28.545  41.377   4.507
12985W        W81203  26.457  15.776  12.757
12986W        W81204  12.382  35.060  13.606
12987W        W81205  15.623  37.119  12.448
12988W        W81206  28.932  30.177  12.531
12989W        W81207   4.716  11.955  11.108
12990W        W81208   3.766  17.717   2.047
12991W        W81209  36.960  44.231  14.346
12992W        W81210  12.117  11.727   1.313
12993W        W81211  21.765  14.356   3.730
12994W        W81212   2.186  40.478   1.204
12995W        W81213  28.223   8.385   1.355
12996W        W81214   8.501  24.037  14.194
12997W        W81215  21.715  30.435   2.839
12998W        W81216   2.680  41.294  11.120
12999W        W81217   7.801  20.839   0.670
13000W        W81218  26.667  43.904  14.007
13001W        W81219   8.262  43.335  11.871
13002W        W81220  28.218   3.347   1.284
13003W        W81221  14.737   2.061  10.334
13004W        W81222  29.112  30.629  11.488
13005W        W81223   3.480  23.556   1.899
13006W        W81224  31.590  23.034   1.417
13007W        W81225  29.192  24.006   3.299
13008W        W81226  35.482  40.416  12.066
13009W        W81227  23.531  21.885   1.399
13010W        W81228  32.870  29.588   3.830
13011W        W81229   4.748  11.313   3.688
13012W        W81230   3.285  32.170  12.493
13013W        W81231  19.510  39.375   0.665
13014W        W81232  14.706  26.513  13.932
13015W        W81233   0.356  35.578   3.686
13016W        W81234   1.453   9.323  10.740
13017W        W81235  36.891  11.705  13.121
13018W        W81236   6.349   1.746   2.688
13019W        W81237  28.185  44.549  13.384
13020W        W81238  41.317   1.025  12.485
13021W        W81239  40.327  17.599   4.270
13022W        W81240  14.612   9.557   1.997
13023W        W81241  42.076   2.917   3.506
13024W        W81242  42.816  16.721   3.267
13025W        W81243  31.404  44.430   4.106
13026W        W81244  10.047  39.239  11.496
13027W        W81245  40.480  28.239  13.270
13028W        W81246  42.875  11.663  12.966
13029W        W81247  13.074   4.004  11.581
13030W        W81248   6.253   8.320   3.138
13031W        W81249  17.344  12.686  14.558
13032W        W81250  30.229  38.577  11.517
13033W        W81251   1.662  41.920  12.101
13034W        W81252  18.676  35.557   3.839
13035W        W81253  41.398   7.990   1.911
13036W        W81254   3.233   5.489  12.136
13037W        W81255  27.620  17.838  14.957
13038W        W81256  10.013  30.458  10.404
13039W        W81257   8.740  15.640  14.884
13040W        W81258  37.450  42.154   4.865
13041W        W81259   6.573  18.721  13.993
13042W        W81260   4.811  32.137   2.340
13043W        W81261   5.440  24.667  13.733
13044W        W81262  16.848  39.445  10.581
13045W        W81263  37.622  12.145   4.126
13046W        W81264  25.068  13.322  11.462
13047W        W81265   3.517  33.920   3.972
13048W        W81266  36.868  29.900  11.172
13049W        W81267  30.861  11.973   0.803
13050W        W81268  15.753  24.051   2.703
13051W        W81269  37.813  40.519  12.006
13052W        W81270  22.859  23.827   1.717
13053W        W81271  31.402  38.463   2.310
13054W        W81272   7.643  10.690  12.754
13055W        W81273  31.395  29.609   2.830
13056W        W81274  10.337  29.494   3.740
13057W        W81275   2.195  44.879  13.927
13058W        W81276  12.098  40.781   4.164
13059W        W81277   3.479  33.374   0.730
13060W        W81278  11.157  22.584   2.641
13061W        W81279   7.408  44.946  14.335
13062W        W81280  10.925  11.535   3.279
13063W        W81281  26.515  32.841  14.983
13064W        W81282  32.532  17.607   4.969
13065W        W81283  21.547  33.383   2.163
13066W        W81284  11.197   4.109  12.779
13067W        W81285  35.358  14.655   2.714
13068W        W81286  21.239  25.261  14.299
13069W        W81287  19.606  33.576  13.406
13070W        W81288  38.577  37.559  12.495
13071W        W81289   8.375  28.479  12.496
13072W        W81290  23.258  15.066   0.896
13073W        W81291  27.902  22.124   1.185
13074W        W81292   6.384  19.787   4.159
13075W        W81293  25.479  28.244   2.422
13076W        W81294  43.892  42.523  11.792
13077W        W81295   2.993   1.350  10.675
13078W        W81296  39.142  20.426   1.868
13079W        W81297  11.226  32.649  12.790
13080W        W81298   6.103  15.729  14.789
13081W        W81299  30.646  33.929  12.509
13082W        W81300  41.775  27.579   4.168
13083W        W81301   3.886  26.460   1.300
13084W        W81302  36.454  31.640  11.085
13085W        W81303  28.772   5.787  10.244
13086W        W81304  29.851  22.056   3.986
13087W        W81305  30.592  37.429   2.880
13088W        W81306  20.234  25.136   2.869
13089W        W81307  35.534  25.490  13.097
13090W        W81308  12.579  16.597  14.356
13091W        W81309  11.197   7.553  12.455
13092W        W81310   2.259   0.179   3.392
13093W        W81311  28.100  29.959   0.391
13094W        W81312  12.599  18.840  12.973
13095W        W81313  42.887  42.884   4.699
13096W        W81314  40.064  18.576  12.650
13097W        W81315  16.238  18.152  12.016
13098W        W81316  14.518  43.129  10.259
13099W        W81317  16.119  28.023  14.032
13100W        W81318   0.208  40.147  11.174
13101W        W81319  37.239   0.254  12.528
13102W        W81320  39.991   2.201   0.254
13103W        W81321  17.120   1.241  12.033
13104W        W81322   7.733  26.752   0.243
13105W        W81323  41.553  33.409   1.717
13106W        W81324   6.065  41.102   4.486
13107W        W81325  20.129  31.954   1.515
13108W        W81326   0.373  43.441  13.961
13109W        W81327  14.472  34.470   4.236
13110W        W81328  29.046  37.666   2.548
13111W        W81329  18.094  22.198  11.582
13112W        W81330  11.249  16.458   1.272
13113W        W81331  35.329  35.307   4.209
13114W        W81332   0.400  11.620  11.171
13115W        W81333   4.331  24.264   1.673
13116W        W81334  37.298  12.815  11.543
13117W        W81335   7.716  26.258   1.297
13118W        W81336  20.908   8.290  13.873
13119W        W81337  19.516  30.548  11.808
13120W        W81338   7.919  11.856   0.775
13121W        W81339  19.302  19.235   2.138
13122W        W81340  13.921  20.790   2.186
13123W        W81341  32.514  16.536  12.928
13124W        W81342  25.666  27.433  13.925
13125W        W81343  39.342  20.065  14.677
13126W        W81344  32.556  27.288   2.242
13127W        W81345   3.661   8.314  12.415
13128W        W81346   3.005  35.088  13.706
13129W        W81347  23.630  39.805  12.350
13130W        W81348  10.108  20.145  12.832
13131W        W81349  37.191  22.174   2.137
13132W        W81350  24.182   3.277   0.231
13133W        W81351  22.937   0.961   1.953
13134W        W81352   3.717   5.063   0.476
13135W        W81353  20.776   6.584  14.575
13136W        W81354  20.708  24.084  10.694
13137W        W81355  29.230  21.148  13.389
13138W        W81356  34.840   4.776   4.793
13139W        W81357  29.403  29.025  11.213
13140W        W81358   6.400  29.471   3.606
13141W        W81359  27.493  16.355   1.865
13142W        W81360   8.180  27.913  11.078
13143W        W81361   7.912  13.234   2.298
13144W        W81362  42.071   7.432  13.694
13145W        W81363  13.360  26.235   0.281
13146W        W81364  21.043   1.728   0.458
13147W        W81365  10.617   8.384  11.849
13148W        W81366   3.339  27.232   3.674
13149W        W81367  25.934  33.416  14.788
13150W        W81368  17.722  18.208  14.893
13151W        W81369  20.654  38.303   4.800
13152W        W81370  14.730  25.696   2.685
13153W        W81371  34.374  22.747  14.882
13154W        W81372   0.767  26.508   9.781
13155W        W81373   7.393  33.908   2.788
13156W        W81374   3.954   8.531   2.438
13157W        W81375  18.530  13.256  10.826
13158W        W81376   1.300  32.671  13.446
13159W        W81377  22.686   3.472  14.806
13160W        W81378  39.669   9.636  12.936
13161W        W81379  10.545  39.179   0.062
13162W        W81380  35.016  33.986  14.772
13163W        W81381   7.142  17.219  12.903
13164W        W81382  14.621  26.629  13.402
13165W        W81383  34.507  44.356   2.778
13166W        W81384  26.718  38.868   1.262
13167W        W81385   1.062  35.414   3.684
13168W        W81386  41.031  14.061  11.211
13169W        W81387   3.975  21.738   4.111
13170W        W81388  12.402   5.847   2.971
13171W        W81389  39.457  32.820  11.130
13172W        W81390  37.378  41.496  13.682
13173W        W81391  30.606  26.396   3.720
13174W        W81392  39.507  36.650   3.096
13175W        W81393  34.703  15.421   5.026
13176W        W81394  29.947  14.220  14.528
13177W        W81395  15.249   9.833  12.096
13178W        W81396  44.312  22.563   4.520
13179W        W81397  36.257  27.793  11.907
13180W        W81398  10.284  13.793  14.487
13181W        W81399   5.237  44.318   4.122
13182W        W81400  34.364  25.184  14.448
13183W        W81401  40.934  17.048  11.982
13184W        W81402  32.940  17.848  11.120
13185W        W81403   3.007   2.935   2.490
13186W        W81404  41.260  21.904  12.435
13187W        W81405  20.641  42.194  14.053
13188W        W81406  10.724   8.508  10.394
13189W        W81407  11.693  27.398  11.695
13190W        W81408  26.439  37.278   3.372
13191W        W81409  18.255   4.038   4.183
13192W        W81410   3.846  43.669  14.789
13193W        W81411  21.499   5.431   1.659
13194W        W81412  36.427  26.229   4.142
13195W        W81413  34.829   1.606   3.720
13196W        W81414  44.661  13.309   1.214
13197W        W81415   6.312  42.977   0.428
13198W        W81416  40.809  21.285  12.278
13199W        W81417   0.530  13.393   2.219
13200W        W81418   1.480   9.069   0.816
13201W        W81419   7.770  44.833   0.770
13202W        W81420  39.435  31.102   4.122
13203W        W81421  24.191  21.715  13.042
13204W        W81422   3.858  40.642   4.054
13205W        W81423   9.322   1.584  11.030
13206W        W81424  43.900   5.698  14.646
13207W        W81425   8.385   8.893   4.604
13208W        W81426  10.247   0.970  13.908
13209W        W81427  40.946  30.615   1.684
13210W        W81428  30.693  17.634  13.073
13211W        W81429  25.513  26.615  12.840
13212W        W81430  23.206  38.824   3.029
13213W        W81431   2.570   5.669   1.491
13214W        W81432  11.663  44.397   4.222
13215W        W81433  10.666   4.446  10.422
13216W        W81434  12.711   2.467   1.873
13217W        W81435  15.280  21.655  10.946
13218W        W81436   3.274  34.914   1.238
13219W        W81437  31.654   2.336  12.042
13220W        W81438  32.383   3.286  11.909
13221W        W81439   8.225  17.066   1.814
13222W        W81440  14.886  38.670   3.703
13223W        W81441  10.226  27.791   2.151
13224W        W81442   4.797  33.882   2.863
13225W        W81443  15.100  27.335  14.542
13226W        W81444  14.200   4.125   2.876
13227W        W81445   4.712  40.293  12.679
13228W        W81446  14.254   6.060   0.930
13229W        W81447  18.231  11.518  10.359
13230W        W81448  26.628  38.592   0.829
13231W        W81449  40.102  10.157  10.778
13232W        W81450  11.810  41.716   0.890
13233W        W81451   6.765  14.289   4.753
13234W        W81452  27.567  16.628   0.436
13235W        W81453   9.108  38.449   2.212
13236W        W81454  28.558  32.631  11.107
13237W        W81455  38.804  15.782  13.052
13238W        W81456  13.832  19.674  13.763
13239W        W81457  35.622  23.750   0.436
13240W        W81458  42.090  39.512   4.928
13241W        W81459  20.113   1.717  11.196
13242W        W81460  15.804   0.019   1.298
13243W        W81461   8.455   2.676   4.819
13244W        W81462  17.296  37.449   3.572
13245W        W81463   5.491  21.047   3.531
13246W        W81464  27.157  32.345   3.965
13247W        W81465  36.196  20.754   2.402
13248W        W81466  21.504  44.533   2.856
13249W        W81467  32.982  14.654   3.223
13250W        W81468   9.752  29.904   3.895
13251W        W81469   3.435  43.176   1.145
13252W        W81470   6.898  24.005   3.710
13253W        W81471   5.013  14.689   2.313
13254W        W81472  43.508  35.341  10.809
13255W        W81473  25.383  40.562  14.200
13256W        W81474   5.088  34.434   1.247
13257W        W81475  18.347   0.491  14.424
13258W        W81476   1.593   1.693  13.010
13259W        W81477  30.735  12.563  10.848
13260W        W81478  26.407  44.416   0.745
13261W        W81479   8.458  20.570  11.948
13262W        W81480  10.392   4.270   3.854
13263W        W81481  18.634  28.411   2.371
13264W        W81482  22.556   9.707   2.324
13265W        W81483   7.289  25.911   4.209
13266W        W81484  37.981   1.709  11.697
13267W        W81485  26.495  27.529   3.390
13268W        W81486   2.049  18.720  13.437
13269W        W81487  23.131  32.029   3.067
13270W        W81488  27.978  39.917   4.073
13271W        W81489  35.807  22.855   2.262
13272W        W81490   2.021  20.994   4.064
13273W        W81491  25.419  38.579  12.719
13274W        W81492  10.604  28.511  12.036
13275W        W81493  25.468  12.249   3.192
13276W        W81494  28.008  35.617   2.577
13277W        W81495  18.285  39.208  13.802
13278W        W81496  27.573  44.340  12.615
13279W        W81497  32.354  34.346   2.143
13280W        W81498  38.129  25.951  10.517
13281W        W81499  22.494  33.391  12.094
13282W        W81500   7.883   4.477   0.058
13283W        W81501  40.342  16.630  13.085
13284W        W81502  11.695   7.195  10.813
13285W        W81503  33.435  28.688   0.261
13286W        W81504  10.236  19.480  11.635
13287W        W81505  32.528  17.158   2.283
13288W        W81506  25.008  24.799   1.739
13289W        W81507  30.614  39.378  11.047
13290W        W81508  33.072  39.014  14.115
13291W        W81509  42.503  11.793   0.157
13292W        W81510   6.836  18.334   1.814
13293W        W81511  40.518   4.998   4.807
13294W        W81512   7.793  18.468  12.347
13295W        W81513  36.466   8.849  13.908
13296W        W81514  25.025  33.384  12.429
13297W        W81515  36.479  41.208   0.957
13298W        W81516  34.856  17.051  11.561
13299W        W81517   8.737   1.705  11.925
13300W        W81518  22.217  29.427   1.346
13301W        W81519  34.648  13.354  12.376
13302W        W81520   7.251  27.208  13.041
13303W        W81521  42.268  30.364   1.450
13304W        W81522   0.312  28.603   2.785
13305W        W81523  42.166  35.668  11.065
13306W        W81524  19.159  18.113  14.392
13307W        W81525  21.116   7.257   2.349
13308W        W81526   9.979  11.832   4.569
13309W        W81527  27.741  14.227  14.027
13310W        W81528  14.426  38.628   1.805
13311W        W81529   6.706  14.775  12.513
13312W        W81530   6.378  42.417   4.485
13313W        W81531  41.675  19.318  14.757
13314W        W81532   1.335  36.888  12.044
13315W        W81533  40.381  30.633  13.992
13316W        W81534   5.838  42.813  12.325
13317W        W81535   1.608  39.142   4.175
13318W        W81536  29.564  44.261   0.472
13319W        W81537   1.744  29.459  13.339
13320W        W81538  22.846  29.056  13.938
13321W        W81539  42.363  31.580   2.093
13322W        W81540  28.380  20.038   3.220
13323W        W81541   0.311  15.114  11.757
13324W        W81542  17.747  22.637  14.264
13325W        W81543   8.633  13.380   1.817
13326W        W81544  12.764  13.354   2.394
13327W        W81545  13.322  39.118   4.792
13328W        W81546  17.715  37.385   4.915
13329W        W81547  17.343  14.829   2.298
13330W        W81548  11.657  43.977   2.232
13331W        W81549   0.775  33.960  13.325
13332W        W81550  20.037   6.471  13.994
13333W        W81551  35.872  17.507  12.450
13334W        W81552  34.541   9.652  10.555
13335W        W81553  25.092  17.106   1.300
13336W        W81554  32.960   2.267   3.297
13337W        W81555  32.116  10.594   3.218
13338W        W81556  14.810   7.300   2.333
13339W        W81557  41.894  44.336   3.099
13340W        W81558  25.084  24.260  10.263
13341W        W81559  14.520  39.113   1.563
13342W        W81560  35.836  21.702  11.574
13343W        W81561  35.972  22.469   2.560
13344W        W81562  31.137  10.570  12.452
13345W        W81563   6.762  42.058  12.982
13346W        W81564  32.107  15.966   1.550
13347W        W81565  41.279  40.805  14.748
13348W        W81566  36.044   0.203  12.110
13349W        W81567   4.313  10.396  10.564
13350W        W81568   6.735   3.396  13.909
13351W        W81569  37.429   6.888   2.397
13352W        W81570  35.572  43.966   4.179
13353W        W81571  24.258  42.823   0.551
13354W        W81572  13.827  38.633   2.456
13355W        W81573   1.559  16.770   0.234
13356W        W81574  24.536  27.022  13.683
13357W        W81575  44.217  44.455   1.688
13358W        W81576  42.542  28.113   1.161
13359W        W81577  24.575  34.469   4.898
13360W        W81578   4.139  27.116   0.783
13361W        W81579   6.295  34.941   1.834
13362W        W81580  22.903  23.038  10.201
13363W        W81581  39.840  43.343   3.221
13364W        W81582  33.352  27.984   2.349
13365W        W81583   7.447  29.543   1.368
13366W        W81584   4.963  36.780   3.839
13367W        W81585  29.611  25.116  10.314
13368W        W81586  23.502  44.691   4.579
13369W        W81587  23.100  27.257   0.398
13370W        W81588  27.439  37.003   0.847
13371W        W81589  29.675  25.635   2.637
13372W        W81590  31.880  17.199   1.696
13373W        W81591   9.523  13.966  11.037
13374W        W81592  28.291  18.457   9.804
13375W        W81593  40.865  11.305   2.948
13376W        W81594  28.369   0.650  14.860
13377W        W81595  10.169  11.485   0.189
13378W        W81596  26.747   3.064  11.607
13379W        W81597  22.329  16.301  14.281
13380W        W81598  31.194  16.315  12.241
13381W        W81599  41.546  38.448   4.747
13382W        W81600  36.828  41.960  12.482
13383W        W81601   0.802  40.150   0.843
13384W        W81602  38.682  31.892   4.417
13385W        W81603  19.586  30.974   0.879
13386W        W81604  36.155  28.393  10.081
13387W        W81605  42.275   5.151   4.774
13388W        W81606  29.972  27.905   2.911
13389W        W81607  41.384  10.821  13.910
13390W        W81608  36.344  42.541   1.445
13391W        W81609  40.981  34.404   1.318
13392W        W81610  39.873  26.001  12.155
13393W        W81611   9.910  22.224   0.418
13394W        W81612  40.275  16.539   1.213
13395W        W81613   2.332  34.443   1.642
13396W        W81614  10.090  43.221  11.054
13397W        W81615  21.526   5.948  14.384
13398W        W81616  40.570  10.673   1.384
13399W        W81617  23.479   4.052   2.381
13400W        W81618  20.220  18.566   1.834
13401W        W81619  27.197  44.433  12.282
13402W        W81620  33.115  16.977  14.389
13403W        W81621  34.237   2.304  14.235
13404W        W81622   6.221  26.439  12.163
13405W        W81623  30.974   2.478   5.013
13406W        W81624  35.228  44.498   0.379
13407W        W81625  43.884  35.052   2.805
13408W        W81626  44.695   5.426  12.379
13409W        W81627  28.458   3.712  10.709
13410W        W81628  20.557   7.486   4.310
13411W        W81629  11.599  40.878  11.109
13412W        W81630  42.280  30.246   2.367
13413W        W81631  32.559  22.577  13.447
13414W        W81632  20.873   8.481   3.781
13415W        W81633  37.426  31.026  10.712
13416W        W81634  23.202  32.491   0.441
13417W        W81635  15.465  23.720  12.310
13418W        W81636  15.076  12.635  14.404
13419W        W81637  40.447  30.496   1.935
13420W        W81638  44.650  34.381   0.905
13421W        W81639  39.918  39.196   2.375
13422W        W81640  44.933   2.926   4.652
13423W        W81641  44.911   4.489  13.922
13424W        W81642  21.831   7.252   0.684
13425W        W81643  36.926  44.439  12.086
13426W        W81644  12.442  31.697   3.612
13427W        W81645  12.725  10.112   2.157
13428W        W81646  28.472  31.501  11.554
13429W        W81647   2.847  35.614   1.483
13430W        W81648  30.969   0.956   1.793
13431W        W81649  18.575   1.294   0.757
13432W        W81650  18.216  43.559  10.333
13433W        W81651   1.526  26.989   3.450
13434W        W81652   9.711  16.660   0.772
13435W        W81653   5.508  26.086   4.116
13436W        W81654  37.590  14.251  11.168
13437W        W81655  20.254  13.378   2.657
13438W        W81656  41.831  30.006   0.662
13439W        W81657  37.289  10.838  12.952
13440W        W81658  18.804  25.727   3.558
13441W        W81659   4.977  15.144  12.118
13442W        W81660   3.145  34.638   2.441
13443W        W81661   4.905  30.541  12.877
13444W        W81662  19.854  26.574  10.251
13445W        W81663   9.180  30.988  14.402
13446W        W81664   2.265  32.932  14.957
13447W        W81665  10.144   8.711   4.040
13448W        W81666  37.124  29.257  11.401
13449W        W81667  27.295  17.191  11.141
13450W        W81668  22.488  29.982   3.323
13451W        W81669  19.652  22.647   5.076
13452W        W81670  25.558   8.381   1.827
13453W        W81671  26.424  19.020  13.407
13454W        W81672  23.586  34.770  14.960
13455W        W81673  27.421  22.585   2.269
13456W        W81674  19.623  35.556   4.161
13457W        W81675   7.730  33.450   1.035
13458W        W81676  12.089  27.576   0.051
13459W        W81677   5.288  21.236   1.194
13460W        W81678  16.969  35.030   5.105
13461W        W81679  39.445  33.162  12.773
13462W        W81680  33.452   8.975   1.705
13463W        W81681  33.054   4.392   1.351
13464W        W81682   6.396  14.099   2.112
13465W        W81683  36.955   3.797   0.894
13466W        W81684  30.485  20.835  14.041
13467W        W81685  33.986  25.435  11.472
13468W        W81686  18.463  43.995  14.936
13469W        W81687  17.208  10.078  11.025
13470W        W81688  32.986  31.993  11.045
13471W        W81689  25.393   8.356  12.851
13472W        W81690   7.773  14.094   1.369
13473W        W81691  11.319  16.218  14.922
13474W        W81692  36.887  40.558   0.723
13475W        W81693  43.113  40.063  12.417
13476W        W81694  38.943  16.804   2.834
13477W        W81695  24.824  29.985  14.934
13478W        W81696  31.612  17.041   3.192
13479W        W81697   9.380  33.939   4.513
13480W        W81698  24.248  25.358   1.238
13481W        W81699  28.592   0.675  12.945
13482W        W81700   0.016   1.247   4.287
13483W        W81701   8.782  10.418   3.611
13484W        W81702  44.726  17.157   0.377
13485W        W81703  26.389  22.644   2.231
13486W        W81704  11.690  34.064  10.694
13487W        W81705   8.685  18.294  11.596
13488W        W81706  42.837  41.684  14.522
13489W        W81707  41.648   0.946  13.999
13490W        W81708   6.125   5.945  11.569
13491W        W81709   5.500   6.212  11.528
13492W        W81710  27.626   9.773  12.184
13493W        W81711  38.256  22.460  12.561
13494W        W81712  30.200   7.977  12.383
13495W        W81713  34.615  18.861   4.813
13496W        W81714  24.796  35.667  13.561
13497W        W81715  15.176   3.169  14.675
13498W        W81716   0.942  25.302   2.668
13499W        W81717  11.461   6.670   0.613
13500W        W81718  28.173   3.203  11.131
13501W        W81719  37.766  41.575   0.723
13502W        W81720  43.148  44.833   3.825
13503W        W81721   9.382   9.116  14.254
13504W        W81722   8.738  14.406   4.022
13505W        W81723  42.048  33.159   0.002
13506W        W81724   7.624   9.287   0.947
13507W        W81725  30.049  40.055   3.905
13508W        W81726  36.120  18.729  11.891
13509W        W81727  30.445  24.240  14.018
13510W        W81728  15.937  37.573   3.967
13511W        W81729  26.922   9.401   2.196
13512W        W81730   1.365   2.018   0.593
13513W        W81731  33.530  39.377  10.653
13514W        W81732  41.409  43.483  12.184
13515W        W81733  24.508  34.992   4.234
13516W        W81734  32.702  43.226  14.750
13517W        W81735  28.900  31.907  13.493
13518W        W81736  28.121   2.188   5.077
13519W        W81737   0.743  15.250   3.412
13520W        W81738  22.628  38.905   5.045
13521W        W81739   6.749  24.280   1.885
13522W        W81740  37.460  31.746   0.886
13523W        W81741  26.788   9.848   4.599
13524W        W81742   4.462   8.164   3.736
13525W        W81743   0.584  15.463  14.810
13526W        W81744  17.173  38.345  14.474
13527W        W81745  42.067   6.238  13.417
13528W        W81746  44.591  27.137  11.635
13529W        W81747  11.213  33.896   0.703
13530W        W81748  11.471  32.992   0.254
13531W        W81749  14.352  41.331  12.844
13532W        W81750  32.153  20.340   2.848
13533W        W81751   8.907  10.042   3.279
13534W        W81752   5.036  42.923   5.092
13535W        W81753  34.405  34.613  14.347
13536W        W81754  44.471  40.990  12.963
13537W        W81755  26.550  17.558   0.923
13538W        W81756  20.213   3.281   4.081
13539W        W81757  18.858   3.441   4.566
13540W        W81758  44.395  40.002   4.524
13541W        W81759   2.265  36.889   2.676
13542W        W81760   8.152  11.211  12.009
13543W        W81761  13.258  10.366  11.975
13544W        W81762  19.809  37.107   0.846
13545W        W81763  19.103  36.664  11.162
13546W        W81764  37.825  34.341   4.028
13547W        W81765  11.048  17.230  12.937
13548W        W81766  10.427  42.374  12.906
13549W        W81767  42.260  33.339  13.960
13550W        W81768  34.016  34.614   3.709
13551W        W81769   0.561  10.795  13.497
13552W        W81770  33.945   7.172  14.315
13553W        W81771  15.341  19.741  13.825
13554W        W81772  33.368  29.922   0.946
13555W        W81773  40.372   0.257  10.297
13556W        W81774  11.930  15.743   0.511
13557W        W81775  17.382  19.599  12.057
13558W        W81776   3.945  28.056  12.562
13559W        W81777  39.215  11.764   2.013
13560W        W81778   4.814   6.159   2.510
13561W        W81779   0.834  24.547   3.265
13562W        W81780  22.459  26.597  14.354
13563W        W81781  30.886  24.609   3.160
13564W        W81782  21.815  11.233  10.766
13565W        W81783  35.446  30.481  11.031
13566W        W81784  39.288  19.707   2.840
13567W        W81785   6.190   0.728  11.550
13568W        W81786   1.556  13.124   2.784
13569W        W81787  28.215   8.763   0.199
13570W        W81788  12.304  37.301   2.784
13571W        W81789  12.028  22.987  14.348
13572W        W81790  19.763  30.122   1.229
13573W        W81791  11.799   1.443  11.885
13574W        W81792  35.828   4.968  13.844
13575W        W81793  35.477  31.914  12.646
13576W        W81794  13.982  33.565  14.065
13577W        W81795  16.310   6.592  11.427
13578W        W81796  22.634   3.152   0.245
13579W        W81797   6.175  41.436   2.206
13580W        W81798  15.138  44.293   4.145
13581W        W81799  10.262   8.714   1.767
13582W        W81800  29.433  25.910   2.182
13583W        W81801   3.127  25.576  12.525
13584W        W81802  10.899  35.691  12.414
13585W        W81803  17.273  34.592  11.620
13586W        W81804  11.482  29.133  12.780
13587W        W81805  15.781  26.963  12.501
13588W        W81806   0.334  25.974  11.079
13589W        W81807  21.103   8.699   4.241
13590W        W81808  20.606  39.054   3.289
13591W        W81809  16.837   1.752  13.260
13592W        W81810   1.489  37.536   3.444
13593W        W81811  25.317  14.593  14.420
13594W        W81812  26.283  15.360   2.783
13595W        W81813   8.331  11.333  13.869
13596W        W81814  44.165  13.335   2.001
13597W        W81815  39.528   0.440   1.869
13598W        W81816  20.291   9.098  13.478
13599W        W81817  31.462  15.263   3.128
13600W        W81818   0.381  28.425  12.854
13601W        W81819   2.010  30.459  14.676
13602W        W81820  18.868   1.384   3.469
13603W        W81821   0.951  22.697   0.333
13604W        W81822  20.130   2.204   1.323
13605W        W81823  19.058  40.467  10.707
13606W        W81824  36.610  22.993  12.526
13607W        W81825  32.570  27.187   1.743
13608W        W81826  26.129  19.848   4.899
13609W        W81827  17.590   6.666   4.620
13610W        W81828   4.953  21.850   3.735
13611W        W81829  26.099  19.973  10.769
13612W        W81830  32.398   8.359   0.749
13613W        W81831  31.068  11.112   0.644
13614W        W81832  44.029   9.158   1.431
13615W        W81833  31.206   5.000   1.804
13616W        W81834  12.159  19.147   2.616
13617W        W81835  18.873  44.221   2.758
13618W        W81836  12.700   6.423   0.891
13619W        W81837  29.465   0.266   2.418
13620W        W81838  36.465  32.249   2.849
13621W        W81839   9.956   2.140   1.183
13622W        W81840  31.027  40.195  12.031
13623W        W81841   9.120  22.954   2.151
13624W        W81842   2.755  32.559   4.281
13625W        W81843  40.517  37.886   4.120
13626W        W81844   3.246  33.317   4.037
13627W        W81845  34.894  33.589   3.750
13628W        W81846  39.522  26.425   4.563
13629W        W81847  25.039  21.672   4.511
13630W        W81848  24.964  33.380  14.531
13631W        W81849   4.455  35.573   1.902
13632W        W81850  20.945   4.504  11.364
13633W        W81851  27.448  23.453  11.341
13634W        W81852   2.208  25.490  14.505
13635W        W81853  27.500  41.812  11.106
13636W        W81854  18.695  27.493  11.452
13637W        W81855  35.982   0.305   1.256
13638W        W81856  20.166  10.197  14.564
13639W        W81857  29.694   6.186   3.152
13640W        W81858  44.816  16.615   3.355
13641W        W81859   0.103  39.032  11.234
13642W        W81860  25.975  41.020  11.112
13643W        W81861  10.131  18.098  12.027
13644W        W81862   7.059  44.528  14.891
13645W        W81863   0.027  15.295   2.658
13646W        W81864   5.707  24.136  14.927
13647W        W81865  36.834  36.092  12.678
13648W        W81866  36.034  44.817   3.210
13649W        W81867  16.565  41.327  11.673
13650W        W81868  17.811  33.388  12.326
13651W        W81869  34.962   8.743  11.677
13652W        W81870  37.968  10.142   1.429
13653W        W81871  16.748  28.452   3.468
13654W        W81872  35.802  34.930  14.321
13655W        W81873   9.711  31.704  11.968
13656W        W81874   3.482   1.233   3.603
13657W        W81875  11.221  41.998   2.236
13658W        W81876  31.178  21.128  10.368
13659W        W81877  21.587  32.950  14.584
13660W        W81878  11.978  16.843   4.050
13661W        W81879  41.833   3.667  10.512
13662W        W81880  41.195  24.755  11.004
13663W        W81881   6.832   7.460  11.102
13664W        W81882  41.821   9.061  10.714
13665W        W81883  43.117  12.164  12.089
13666W        W81884   7.936  18.115   0.502
13667W        W81885   1.769  25.367  13.007
13668W        W81886   7.320  26.916  10.535
13669W        W81887  29.276  11.222  14.893
13670W        W81888  22.264  18.995  11.265
13671W        W81889   9.309  27.337   3.302
13672W        W81890  44.271  16.521   2.711
13673W        W81891  30.194   9.172  11.699
13674W        W81892  16.365  11.668   2.524
13675W        W81893  12.327   6.367  11.987
13676W        W81894  12.651  41.435  10.591
13677W        W81895  25.890  43.491   1.443
13678W        W81896  39.439  12.272  10.909
13679W        W81897  30.014  33.978   0.494
13680W        W81898  12.921  20.010  13.420
13681W        W81899  41.050  26.527   0.472
13682W        W81900  23.569  10.835   3.172
13683W        W81901   9.336  34.158  13.937
13684W        W81902  38.366   6.766   2.893
13685W        W81903  11.957   9.830   4.085
13686W        W81904  36.904  35.940  13.939
13687W        W81905  42.054  21.615  13.438
13688W        W81906  11.783   3.261  11.270
13689W        W81907  21.973  15.789   4.318
13690W        W81908   6.606  12.254  12.024
13691W        W81909   4.306  19.341  12.512
13692W        W81910  43.343  43.328   0.506
13693W        W81911  27.766  12.178  13.797
13694W        W81912  14.836   6.625   2.297
13695W        W81913  20.523  21.379   2.707
13696W        W81914  32.120  21.162  14.491
13697W        W81915  16.075  42.233   2.412
13698W        W81916  23.079  39.421   2.179
13699W        W81917  25.739   6.371  11.640
13700W        W81918  24.186  20.092   3.398
13701W        W81919  25.961  32.903  11.132
13702W        W81920  15.288  39.958   4.273
13703W        W81921  44.519  25.726   2.229
13704W        W81922  13.447  39.486   2.851
13705W        W81923  31.206  36.068   1.444
13706W        W81924  19.284  24.758  11.660
13707W        W81925  16.579  12.861   2.668
13708W        W81926  36.621  33.951  10.784
13709W        W81927  36.935  26.024  14.023
13710W        W81928  24.693  44.503  12.981
13711W        W81929  43.271   6.174  11.207
13712W        W81930  43.389   6.878  13.091
13713W        W81931   0.216  29.101   2.666
13714W        W81932  20.123  16.182   2.741
13715W        W81933  40.460  28.525  11.008
13716W        W81934  33.111  33.958  12.585
13717W        W81935  28.770   9.686   3.892
13718W        W81936  33.510  33.044   0.550
13719W        W81937  11.672   2.749  10.417
13720W        W81938  22.956  17.569  11.482
13721W        W81939   5.388   5.627   4.563
13722W        W81940   8.886   6.720  13.925
13723W        W81941  21.315  36.974   3.108
13724W        W81942  17.650  37.843   4.070
13725W        W81943  33.893  19.997  12.985
13726W        W81944  32.925   2.365  10.989
13727W        W81945   8.703   3.439   3.750
13728W        W81946  18.377  27.534  13.958
13729W        W81947  16.296   5.366  10.673
13730W        W81948  32.481   3.068  13.956
13731W        W81949  38.061   6.805  12.704
13732W        W81950  35.953  33.811   1.897
13733W        W81951  10.153  41.886   0.697
13734W        W81952  34.849  15.594   9.950
13735W        W81953  41.830  17.866  13.466
13736W        W81954   4.787   2.397   3.373
13737W        W81955   9.905  37.804  14.307
13738W        W81956  37.555   7.609   3.386
13739W        W81957   8.812   9.799  13.529
13740W        W81958  13.470  14.688   4.629
13741W        W81959  13.780  44.266  14.337
13742W        W81960  28.079  22.556  13.912
13743W        W81961  14.730   8.875   4.865
13744W        W81962  41.358  18.351   4.537
13745W        W81963  16.558  24.771  14.069
13746W        W81964   8.237  33.656   2.906
13747W        W81965  12.711  17.849   1.813
13748W        W81966   2.834  35.626   3.689
13749W        W81967   0.280  13.299  11.210
13750W        W81968  43.024  27.403   1.350
13751W        W81969  42.073  17.584  14.407
13752W        W81970  10.216  12.555   2.544
13753W        W81971  19.342  41.759  11.982
13754W        W81972  27.934   2.195   3.120
13755W        W81973  40.516  18.728  12.932
13756W        W81974  33.413  26.077  11.653
13757W        W81975   3.901  37.100   0.458
13758W        W81976  12.383  36.013   4.067
13759W        W81977   7.326  12.356   0.481
13760W        W81978  32.433  23.947   2.691
13761W        W81979  25.947  15.142  12.184
13762W        W81980  33.024  28.402   0.360
13763W        W81981  23.095  21.535  11.378
13764W        W81982  42.925  27.338  11.000
13765W        W81983  16.589  42.933   2.614
13766W        W81984   9.636  41.269  11.151
13767W        W81985   8.685  16.727   2.316
13768W        W81986   1.269  27.990  14.481
13769W        W81987  38.552  39.213  11.449
13770W        W81988  12.163  43.298  11.032
13771W        W81989  10.762  30.981  13.474
13772W        W81990  30.072  38.226   4.123
13773W        W81991   3.718   8.204   0.921
13774W        W81992  24.058   0.360  13.958
13775W        W81993  26.291  11.226  14.801
13776W        W81994   2.336  16.707  12.310
13777W        W81995  30.592  26.590  10.095
13778W        W81996  21.964  42.898  11.445
13779W        W81997  25.287  14.068  12.613
13780W        W81998  44.944   8.936   1.317
13781W        W81999  12.140  32.597   1.359
13782W        W82000  20.134  31.985  10.101
13783W        W82001  14.335  21.616   5.110
13784W        W82002   7.931  29.091   0.802
13785W        W82003  29.019  21.985  10.589
13786W        W82004   3.133  22.163   0.697
13787W        W82005  34.092  31.366   0.397
13788W        W82006  44.591  37.443  14.309
13789W        W82007  29.089   8.823   0.206
13790W        W82008  25.064  12.758   0.442
13791W        W82009  29.249  32.896  14.504
13792W        W82010  38.781  27.927  11.656
13793W        W82011  23.538   4.909  13.504
13794W        W82012  30.469   7.983   1.873
13795W        W82013   8.945  34.110  10.362
13796W        W82014  21.205  11.925   3.706
13797W        W82015  19.052  36.551   3.185
13798W        W82016   4.391  30.161  14.909
13799W        W82017  17.719  33.046   1.923
13800W        W82018  14.253  19.587  10.750
13801W        W82019  30.634  15.069   3.665
13802W        W82020   5.587   6.296   0.335
13803W        W82021  26.452  36.437   1.636
13804W        W82022  31.117   0.303   2.609
13805W        W82023  23.936  26.196  13.429
13806W        W82024   2.258  43.559   2.403
13807W        W82025  32.159  21.255   3.114
13808W        W82026  22.403  29.566   2.194
13809W        W82027  41.942   7.799   0.440
13810W        W82028  14.601  18.881   2.333
13811W        W82029  19.592  11.876  12.605
13812W        W82030  15.203  29.933  13.526
13813W        W82031   6.732  15.036   2.187
13814W        W82032  21.143  28.154   4.142
13815W        W82033  25.954  11.869  14.089
13816W        W82034  40.405  16.159   0.886
13817W        W82035  18.122  42.290   3.147
13818W        W82036  34.144  32.268  10.737
13819W        W82037  28.478  43.885  12.389
13820W        W82038  36.111  13.259  14.439
13821W        W82039  19.179  12.604  13.080
13822W        W82040  24.931  13.295  13.327
13823W        W82041  43.483  18.040   3.376
13824W        W82042  38.601  44.849  13.708
13825W        W82043  31.325   8.770   2.429
13826W        W82044  17.108  23.671   0.418
13827W        W82045  18.925  43.293   4.333
13828W        W82046   4.863  40.228  14.842
13829W        W82047  11.138  35.819   2.830
13830W        W82048  17.164  41.820  12.077
13831W        W82049  25.593  41.528  10.702
13832W        W82050   2.454  11.750  11.643
13833W        W82051  33.077  33.824  11.162
13834W        W82052  42.093  44.270  14.275
13835W        W82053  20.100   5.028   0.029
13836W        W82054   1.037   5.701   2.347
13837W        W82055  33.098  35.509   4.559
13838W        W82056  25.490  19.491   1.238
13839W        W82057  30.806  21.181  10.728
13840W        W82058  12.111  22.129  13.757
13841W        W82059  39.338  11.783  11.686
13842W        W82060   4.385   8.672   1.034
13843W        W82061  31.032  19.450  14.861
13844W        W82062  28.423  43.548  10.936
13845W        W82063  20.736  14.087   2.852
13846W        W82064  12.812   5.159   3.298
13847W        W82065  12.499  35.229  14.117
13848W        W82066  30.808  31.981  12.328
13849W        W82067  37.110  10.942   0.121
13850W        W82068   1.850  32.437   3.342
13851W        W82069  43.721   6.875   1.363
13852W        W82070  33.871  18.585  14.841
13853W        W82071  30.400  10.088  14.359
13854W        W82072  36.800  18.727   0.305
13855W        W82073  44.227  14.970  13.227
13856W        W82074   5.779  20.239   3.579
13857W        W82075  38.843  29.469  11.132
13858W        W82076  24.330   5.955  12.650
13859W        W82077  11.589  12.691  13.947
13860W        W82078   5.302  42.960   0.649
13861W        W82079  13.174   3.368   5.093
13862W        W82080  38.068  29.548   0.723
13863W        W82081   4.882  31.887   2.788
13864W        W82082   1.919  18.257  10.604
13865W        W82083  31.224   5.456   4.717
13866W        W82084  23.642  22.381   1.445
13867W        W82085  38.159  17.195   3.676
13868W        W82086  16.905   7.689   0.512
13869W        W82087  12.637  18.619  14.800
13870W        W82088  41.494   7.282  12.691
13871W        W82089  33.083  20.437  14.774
13872W        W82090   8.956   6.693   1.155
13873W        W82091  26.028  20.268   0.256
13874W        W82092   8.307  31.407   1.937
13875W        W82093   6.404   3.389   0.429
13876W        W82094  25.099  28.501   1.295
13877W        W82095  42.814   1.107  12.617
13878W        W82096  39.080   1.765   3.743
13879W        W82097   9.869  19.997   1.025
13880W        W82098  39.847  15.081  14.034
13881W        W82099  18.357   2.507   1.657
13882W        W82100  44.841   2.050   3.819
13883W        W82101  16.468  27.651  14.806
13884W        W82102   3.478   1.850  13.093
13885W        W82103   0.299  34.042  12.563
13886W        W82104  12.151  42.803  11.514
13887W        W82105  24.159  23.613  11.139
13888W        W82106  23.823   1.358   3.605
13889W        W82107  31.689   0.209  14.854
13890W        W82108  36.214  44.812   2.246
13891W        W82109  32.938  25.249  13.489
13892W        W82110  31.249  20.646   2.383
13893W        W82111  15.766  28.637   0.751
13894W        W82112  14.345   2.299  11.662
13895W        W82113  10.221  27.424  12.685
13896W        W82114  34.179  39.523  14.907
13897W        W82115   6.871  43.711  10.552
13898W        W82116  16.546  31.450   3.197
13899W        W82117   0.495   4.567  14.208
13900W        W82118  40.367  33.106  12.866
13901W        W82119  40.851   8.930   4.531
13902W        W82120  23.199  28.143   2.747
13903W        W82121  15.280  11.429   3.347
13904W        W82122   6.309  38.519  13.880
13905W        W82123   8.629  44.635  12.845
13906W        W82124   4.312   1.229   0.538
13907W        W82125  42.277   7.264   3.618
13908W        W82126  34.056   5.638  13.577
13909W        W82127  21.931  37.763  11.272
13910W        W82128   1.324  27.956  13.208
13911W        W82129  36.569  21.071   0.731
13912W        W82130  30.843  41.920  14.231
13913W        W82131  37.132  33.831  14.304
13914W        W82132  21.113   6.260  12.181
13915W        W82133  21.073  32.108   4.611
13916W        W82134  21.272  14.168   2.715
13917W        W82135  35.492   9.833   3.444
13918W        W82136  30.445   9.914   0.031
13919W        W82137   8.247  15.033  10.103
13920W        W82138   4.270   4.832   3.401
13921W        W82139  34.610  35.509   3.717
13922W        W82140   9.972  13.079  13.129
13923W        W82141  29.090  42.371  13.212
13924W        W82142  43.631  36.656   3.117
13925W        W82143  34.911   0.249   0.703
13926W        W82144  33.090  13.624   4.078
13927W        W82145  44.219   7.948  14.931
13928W        W82146   2.154   2.798  11.093
13929W        W82147   4.766  15.309  10.297
13930W        W82148  19.910   1.680  10.714
13931W        W82149  34.988  37.585  14.825
13932W        W82150  34.195  42.788   3.952
13933W        W82151  27.679   7.792   4.425
13934W        W82152   2.426  25.735  14.927
13935W        W82153  37.806  42.323   2.301
13936W        W82154  42.329  20.785  13.803
13937W        W82155  18.600  39.734   3.973
13938W        W82156  30.650  29.315  12.499
13939W        W82157  18.058  21.479  13.717
13940W        W82158  44.262  38.531   0.042
13941W        W82159  30.902  38.010  10.733
13942W        W82160  36.882   2.806   2.874
13943W        W82161   5.180  27.197   1.214
13944W        W82162  19.147  27.452   4.776
13945W        W82163  18.917  12.852   1.283
13946W        W82164  33.022  34.651  10.736
13947W        W82165  20.552  18.895   3.208
13948W        W82166   7.383  26.648   3.932
13949W        W82167  36.179  43.586  14.050
13950W        W82168   6.809  12.899   1.869
13951W        W82169   9.232  33.134   1.788
13952W        W82170  32.530   1.318  13.492
13953W        W82171   9.868  23.464   3.645
13954W        W82172  23.195  20.746   0.902
13955W        W82173  17.231   5.616  12.376
13956W        W82174   2.388  12.223  10.462
13957W        W82175  12.829  32.310  11.224
13958W        W82176  13.320   6.629  11.982
13959W        W82177  26.180  39.438   0.004
13960W        W82178  28.868   4.314  11.638
13961W        W82179   9.652  38.302   0.498
13962W        W82180   7.148  13.105  12.228
13963W        W82181  28.076  11.718  10.786
13964W        W82182  16.652  23.430   0.545
13965W        W82183  43.917  19.871   3.407
13966W        W82184  33.102  33.362   0.688
13967W        W82185  40.657  30.475  11.932
13968W        W82186  12.918  42.090  12.241
13969W        W82187  29.461  18.043   1.843
13970W        W82188  36.590  27.053  14.960
13971W        W82189   1.901  22.826  14.369
13972W        W82190   5.001  31.950   1.861
13973W        W82191   5.825   1.428  14.751
13974W        W82192   4.817  26.517   0.162
13975W        W82193  29.984  31.020   3.817
13976W        W82194   6.258  37.277   3.636
13977W        W82195  38.530  29.408  14.046
13978W        W82196  41.095  19.474  14.778
13979W        W82197  24.525  19.495  14.905
13980W        W82198   5.706   6.590   1.442
13981W        W82199  37.374  20.160   4.111
13982W        W82200  12.922   7.360   1.236
13983W        W82201  13.330  18.965   1.709
13984W        W82202  31.614  24.004  13.481
13985W        W82203  17.772  11.042   0.434
13986W        W82204  43.190  16.418   1.380
13987W        W82205  41.323  14.845   2.813
13988W        W82206   6.197   9.899  12.926
13989W        W82207  28.465  37.633   1.003
13990W        W82208   9.461  21.711  14.327
13991W        W82209  25.567   6.892  14.911
13992W        W82210  16.863   2.513   5.122
13993W        W82211   6.680   1.322   2.627
13994W        W82212  15.794  10.383  11.044
13995W        W82213  22.274  22.686   1.225
13996W        W82214  18.580  18.037  10.709
13997W        W82215  32.147  42.313  11.263
13998W        W82216  10.857   2.335  13.503
13999W        W82217   8.086  14.368   4.904
14000W        W82218  16.059  33.576   2.721
14001W        W82219  12.098   2.957  13.357
14002W        W82220  40.421  38.127   0.902
14003W        W82221  35.926  23.733  12.939
14004W        W82222  16.257  41.811  13.536
14005W        W82223  10.223  21.436  13.962
14006W        W82224  31.011  15.234  14.279
14007W        W82225  36.923   1.548  13.957
14008W        W82226   8.993  15.640  13.548
14009W        W82227  33.462  43.841  14.876
14010W        W82228  13.620  33.589   3.671
14011W        W82229  19.886  29.647  12.014
14012W        W82230   6.600  15.856   3.053
14013W        W82231   6.208   0.375  11.973
14014W        W82232  35.061  35.876  12.165
14015W        W82233  41.788  24.746  12.201
14016W        W82234  12.111  12.537   3.335
14017W        W82235  41.660  25.021  10.990
14018W        W82236  26.186  10.085  12.795
14019W        W82237  23.294   0.589   3.260
14020W        W82238  24.644  43.931   3.294
14021W        W82239   7.377  43.419   2.951
14022W        W82240  23.832  24.606   2.821
14023W        W82241   9.889   8.586  10.644
14024W        W82242  35.079  19.334  14.931
14025W        W82243  31.542  44.942   1.999
14026W        W82244  23.984  32.812  10.734
14027W        W82245   6.165  24.144   0.257
14028W        W82246  26.992  43.075   2.644
14029W        W82247   0.192  25.231   0.946
14030W        W82248  15.667  21.508  10.563
14031W        W82249  15.449  44.998   2.223
14032W        W82250  35.060  16.962   0.326
14033W        W82251  22.213  13.000  10.748
14034W        W82252   4.679  40.843  13.917
14035W        W82253  40.877   9.958   3.374
14036W        W82254  24.741  15.803  10.573
14037W        W82255   2.909  11.964   0.434
14038W        W82256  10.761   6.279   3.223
14039W        W82257  11.869   2.302   1.423
14040W        W82258  20.161  41.005   0.293
14041W        W82259   2.209  18.189  11.180
14042W        W82260   0.398  29.447  11.127
14043W        W82261   8.463   6.050   4.154
14044W        W82262  31.070  42.010  11.967
14045W        W82263  22.731  39.516   1.816
14046W        W82264  11.352  19.322  14.369
14047W        W82265  36.832  40.375   3.814
14048W        W82266  20.222  17.655  11.945
14049W        W82267  14.651   1.446   2.744
14050W        W82268  36.139  39.511  13.255
14051W        W82269  19.532  11.923   3.189
14052W        W82270  42.486  39.576  12.998
14053W        W82271  36.081  11.292  14.157
14054W        W82272  17.536  23.595  13.167
14055W        W82273  25.903  25.660  10.713
14056W        W82274  21.812  22.941  11.918
14057W        W82275  12.252  29.608   1.229
14058W        W82276  38.704  27.622  14.489
14059W        W82277  21.305  12.136   2.787
14060W        W82278  31.040  12.884  11.150
14061W        W82279   6.929  24.670  12.563
14062W        W82280  21.466   1.916   1.354
14063W        W82281   7.154  28.950   0.408
14064W        W82282  41.568   5.827   1.312
14065W        W82283  16.280  33.870  14.829
14066W        W82284  26.553  26.503   3.204
14067W        W82285  27.874  19.660   4.098
14068W        W82286  21.870  29.901  11.988
14069W        W82287  35.404  38.303   3.967
14070W        W82288  29.069  10.583   4.188
14071W        W82289  22.714  39.939   4.907
14072W        W82290  37.392  38.597   2.182
14073W        W82291  39.597  27.691  11.506
14074W        W82292  10.927  43.672   4.146
14075W        W82293   0.367   8.210   3.676
14076W        W82294  23.290  36.300   2.326
14077W        W82295  30.278   6.944  13.401
14078W        W82296   4.141  28.064  10.653
14079W        W82297  28.950   8.094   4.361
14080W        W82298  41.553  34.051  12.410
14081W        W82299  29.019   2.998  14.285
14082W        W82300  26.736   8.217   2.166
14083W        W82301  12.156  21.025   2.414
14084W        W82302  16.693  42.489   0.151
14085W        W82303  16.290  22.160   2.144
14086W        W82304   4.162  18.995  11.119
14087W        W82305  40.486  17.157   3.667
14088W        W82306  23.760  43.474   4.161
14089W        W82307   5.827  30.953   2.220
14090W        W82308  18.639  12.696  14.721
14091W        W82309  43.552  44.015  11.002
14092W        W82310  41.796   5.753   3.317
14093W        W82311  33.573  44.842  12.105
14094W        W82312  21.296   1.994  10.027
14095W        W82313  24.741  30.307  13.933
14096W        W82314   5.443  16.598   3.133
14097W        W82315  15.021  40.845   2.284
14098W        W82316  28.746  42.173  10.861
14099W        W82317  26.489   2.384   2.426
14100W        W82318  24.046  36.495  12.415
14101W        W82319  21.181   5.182  14.343
14102W        W82320   6.548   6.350   3.230
14103W        W82321  41.355  31.198   0.394
14104W        W82322  10.469  31.197   1.823
14105W        W82323   2.201  10.607   1.494
14106W        W82324   0.220  15.293  11.213
14107W        W82325  20.185  31.684   2.610
14108W        W82326   6.402  12.407   1.296
14109W        W82327  38.023  38.164   1.297
14110W        W82328  24.584  38.191  11.592
14111W        W82329  12.025  31.427  11.743
14112W        W82330   1.216  36.823  11.076
14113W        W82331  19.725  21.026   3.473
14114W        W82332   8.827  43.978  10.111
14115W        W82333  34.247  19.998   3.071
14116W        W82334  42.565  40.146   2.511
14117W        W82335  18.281  10.715   4.257
14118W        W82336  33.910  40.987   0.505
14119W        W82337  16.097  29.286   3.261
14120W        W82338  34.044  19.694   3.560
14121W        W82339  28.483  18.092  11.528
14122W        W82340   7.155   5.505   3.115
14123W        W82341  44.374  43.613   4.558
14124W        W82342  30.909  13.883  11.098
14125W        W82343  23.655  36.730  13.177
14126W        W82344  15.802  24.605   2.899
14127W        W82345  44.439  39.617   0.012
14128W        W82346  20.260   5.571  14.248
14129W        W82347  12.232  27.641  10.610
14130W        W82348  32.003  22.075  14.752
14131W        W82349  41.721  23.798   1.799
14132W        W82350  19.057  18.816  11.972
14133W        W82351  11.721  42.408  11.960
14134W        W82352  36.976  27.791   1.205
14135W        W82353   0.353  32.862   2.691
14136W        W82354   0.311   7.286   3.155
14137W        W82355  22.288  43.442  13.836
14138W        W82356   4.744  23.655  11.636
14139W        W82357   1.521  19.479  11.599
14140W        W82358   9.846   5.458   4.456
14141W        W82359   0.366  35.122   2.753
14142W        W82360  43.738   6.654  13.471
14143W        W82361  32.166  14.595   1.221
14144W        W82362   2.779  41.239  13.497
14145W        W82363  34.349  14.193  13.109
14146W        W82364  11.096  19.087  10.992
14147W        W82365  26.493  27.188  10.929
14148W        W82366  17.605  24.667  11.158
14149W        W82367  13.445  43.312  11.463
14150W        W82368  28.942  40.537  12.091
14151W        W82369  27.467  33.844  14.494
14152W        W82370  27.109   0.355  12.999
14153W        W82371  44.991  28.972   3.109
14154W        W82372  13.318  26.754   3.149
14155W        W82373  41.250   6.826  13.809
14156W        W82374   0.976  43.396  13.882
14157W        W82375  12.282  30.214  12.364
14158W        W82376  18.196  17.731   2.380
14159W        W82377  14.973  42.957   3.751
14160W        W82378  37.150   8.443   1.038
14161W        W82379  28.394  15.397   2.831
14162W        W82380  38.202  30.705  11.694
14163W        W82381  22.984  32.407   4.508
14164W        W82382  18.704  41.370  10.745
14165W        W82383  21.640  41.205   3.720
14166W        W82384  12.129  42.519  10.668
14167W        W82385  26.029  13.974   3.311
14168W        W82386  10.330  37.103   2.670
14169W        W82387  37.817  43.713  13.350
14170W        W82388   5.797  14.175   3.370
14171W        W82389  18.816   6.972   2.892
14172W        W82390  27.042   0.692  13.415
14173W        W82391  24.213  33.168   1.479
14174W        W82392  31.062  39.962   4.549
14175W        W82393   8.058  13.574   3.754
14176W        W82394   8.683   6.296   4.577
14177W        W82395  26.484   7.315   4.654
14178W        W82396  28.773  15.783   3.562
14179W        W82397  14.708  16.191  11.527
14180W        W82398  39.508   5.503   1.436
14181W        W82399   3.280  41.239   2.567
14182W        W82400  10.324  18.187  14.060
14183W        W82401   0.382  24.467  13.390
14184W        W82402  38.816  29.490   4.202
14185W        W82403  13.579  38.857   1.204
14186W        W82404  25.227  35.147   0.519
14187W        W82405  28.878   1.032  10.366
14188W        W82406   4.447  32.575   3.570
14189W        W82407  24.556  33.131  12.404
14190W        W82408  42.473  28.739  13.142
14191W        W82409  22.137   4.293  10.798
14192W        W82410  40.383  30.932   2.584
14193W        W82411  11.068  15.032   2.682
14194W        W82412  22.726  42.742   1.738
14195W        W82413   8.453  34.967   0.687
14196W        W82414  28.954  39.077   4.089
14197W        W82415  28.936  23.544   3.137
14198W        W82416   4.455   0.717   1.258
14199W        W82417  35.896  17.268   1.565
14200W        W82418  38.248   6.463   2.455
14201W        W82419  13.294   0.452  14.266
14202W        W82420   3.926  32.859   1.732
14203W        W82421  16.797  15.336  11.990
14204W        W82422  36.806  25.432   4.126
14205W        W82423  26.527  40.936  12.004
14206W        W82424  23.859  14.553  13.677
14207W        W82425  24.233  37.847  13.441
14208W        W82426  29.266  23.035   2.271
14209W        W82427  33.020  41.507   0.205
14210W        W82428  12.708  39.836  11.436
14211W        W82429  38.585  21.388  12.616
14212W        W82430  21.619   9.689   3.424
14213W        W82431  18.996  33.371  11.031
14214W        W82432   9.212   9.215   2.903
14215W        W82433  41.441  33.903  14.860
14216W        W82434   6.628  35.102  11.672
14217W        W82435   7.730   6.946   5.067
14218W        W82436  14.273  41.118   3.596
14219W        W82437   7.765  39.242  13.947
14220W        W82438  36.141  31.171   3.717
14221W        W82439  16.712  28.416   4.941
14222W        W82440  26.292  10.809   3.804
14223W        W82441  36.855   0.969  11.986
14224W        W82442  16.317  43.212   0.296
14225W        W82443   7.743  44.038  10.341
14226W        W82444  29.257  32.280  13.458
14227W        W82445  44.987  10.735  10.469
14228W        W82446   1.288  34.105  11.160
14229W        W82447  40.145  14.724   3.301
14230W        W82448  41.068  14.370  12.480
14231W        W82449  27.258  18.236  12.140
14232W        W82450   8.715  11.283  12.876
14233W        W82451  24.639   7.655  12.983
14234W        W82452  38.508  17.482  10.713
14235W        W82453  44.966  33.511   2.216
14236W        W82454   1.577  44.203   3.185
14237W        W82455  15.631  13.780  10.883
14238W        W82456  15.139  29.660  12.030
14239W        W82457  10.836  34.419  11.987
14240W        W82458  28.376  37.462  12.577
14241W        W82459  37.967   8.342  11.958
14242W        W82460  17.254  43.984  10.262
14243W        W82461  16.039  16.142   2.179
14244W        W82462  14.402  20.945  11.684
14245W        W82463  12.131  34.368   1.383
14246W        W82464  44.879  28.470   3.048
14247W        W82465  44.223   8.351  13.484
14248W        W82466   4.014  18.747   3.638
14249W        W82467   0.789  23.233   2.195
14250W        W82468  36.898  43.375   4.363
14251W        W82469  43.417  11.774   2.152
14252W        W82470  42.359  32.112   2.209
14253W        W82471   7.353  29.633  14.067
14254W        W82472   5.235  10.600  11.946
14255W        W82473  12.656  31.555   0.030
14256W        W82474  28.801  17.217  13.128
14257W        W82475  35.180   9.650  13.409
14258W        W82476  33.276  34.224   3.365
14259W        W82477  20.196   2.375  13.832
14260W        W82478   4.672   9.619   0.770
14261W        W82479   1.834  35.975   0.926
14262W        W82480  17.248  20.559   3.743
14263W        W82481  31.911  42.558   3.845
14264W        W82482  44.314  37.329  11.648
14265W        W82483  15.741   3.697  11.648
14266W        W82484  40.317  25.266   4.634
14267W        W82485  34.521  19.826   2.387
14268W        W82486  22.800  35.949   3.230
14269W        W82487  41.806   1.222  11.626
14270W        W82488  35.908  23.201  12.831
14271W        W82489  34.742  24.772  11.530
14272W        W82490  32.634  33.375  11.611
14273W        W82491  22.303   0.238  12.205
14274W        W82492  19.073   1.337  11.852
14275W        W82493  34.045  16.637  11.680
14276W        W82494  30.087  41.828   1.561
14277W        W82495  43.435   4.793   3.669
14278W        W82496   8.428  20.570  11.121
14279W        W82497   1.726  38.033  14.501
14280W        W82498   7.845  20.505  13.898
14281W        W82499  39.975   1.499  11.134
14282W        W82500  30.573  34.558  11.092
14283W        W82501  31.101  13.700   0.692
14284W        W82502  19.042   6.871   3.702
14285W        W82503  18.155  30.111   0.750
14286W        W82504   3.196  38.065  13.774
14287W        W82505  28.242   7.316   3.381
14288W        W82506  21.086   3.567  12.985
14289W        W82507   3.842  44.454   1.808
14290W        W82508  23.954  21.123   1.398
14291W        W82509  25.705   1.504  10.811
14292W        W82510  11.394   9.710  12.192
14293W        W82511  12.644   9.086  10.390
14294W        W82512  10.338  37.978   3.707
14295W        W82513  42.099  27.058  12.094
14296W        W82514  12.353  11.112  11.424
14297W        W82515  15.933   4.747  12.556
14298W        W82516  34.126  13.307  12.362
14299W        W82517   5.225  29.679   2.395
14300W        W82518  19.996   0.004  12.047
14301W        W82519   6.749   7.820   1.736
14302W        W82520   6.458   9.440  13.021
14303W        W82521   9.761  25.719   2.680
14304W        W82522  40.525  19.475   1.417
14305W        W82523  18.224  13.553  14.749
14306W        W82524   2.650  24.626  13.626
14307W        W82525   4.756  20.365  10.364
14308W        W82526  23.651  31.874  14.946
14309W        W82527  32.606  27.818   1.402
14310W        W82528  38.385  11.052   0.453
14311W        W82529  44.310  20.127  12.957
14312W        W82530  15.122  41.274   1.365
14313W        W82531   4.911   4.218  12.503
14314W        W82532   5.128  29.689   0.009
14315W        W82533  21.400   0.973   1.203
14316W        W82534   1.300  11.183   4.385
14317W        W82535  29.543   9.694   4.640
14318W        W82536  18.251  16.655  10.765
14319W        W82537  38.874  14.275   5.319
14320W        W82538  28.993   1.701  13.857
14321W        W82539  18.370  16.405   5.067
14322W        W82540   2.285  19.777  12.062
14323W        W82541   0.696   5.254  12.378
14324W        W82542   2.444  32.411  14.056
14325W        W82543  20.730  36.820  14.969
14326W        W82544   5.253   0.155  12.382
14327W        W82545  34.351   2.395   3.855
14328W        W82546  30.495  40.095   4.160
14329W        W82547  35.463  19.846   3.212
14330W        W82548  20.716  35.368   3.692
14331W        W82549   7.678  22.991   3.703
14332W        W82550  44.966   0.930  12.960
14333W        W82551  28.108  16.959   4.254
14334W        W82552  12.220  18.195  12.527
14335W        W82553  42.691  24.638   4.779
14336W        W82554  32.410  10.856   2.272
14337W        W82555  33.664   0.545  11.626
14338W        W82556  25.437   0.820   0.184
14339W        W82557  26.434   0.678  14.047
14340W        W82558  34.231  36.987  11.713
14341W        W82559  34.026  42.419   4.278
14342W        W82560  34.623  25.705  13.130
14343W        W82561   7.300  23.233   2.175
14344W        W82562   4.508  34.009  14.746
14345W        W82563  41.101   6.342   3.325
14346W        W82564   6.734  41.764  13.428
14347W        W82565  16.762  29.662  13.092
14348W        W82566  43.014   8.303  14.549
14349W        W82567  41.914   4.219   2.800
14350W        W82568  21.026  41.977   5.053
14351W        W82569  18.787  10.713   4.316
14352W        W82570  37.119  26.269  12.012
14353W        W82571   4.418  36.350   3.211
14354W        W82572  14.303  26.454   4.548
14355W        W82573  23.282  31.086   1.670
14356W        W82574  31.140  30.674   2.738
14357W        W82575  36.848  13.357   4.046
14358W        W82576  10.364  10.352  11.886
14359W        W82577  15.748  18.249   4.430
14360W        W82578  21.044  37.013   1.352
14361W        W82579  19.083  41.897  14.759
14362W        W82580   7.837  27.573  11.152
14363W        W82581  36.479  34.318   0.316
14364W        W82582   4.458  36.478   1.496
14365W        W82583  44.102  35.696   4.082
14366W        W82584  36.469   8.333  13.135
14367W        W82585   0.500  21.218   4.466
14368W        W82586  13.863  30.622   1.922
14369W        W82587  34.072   1.330  11.677
14370W        W82588  34.478  23.525  14.402
14371W        W82589   0.783  14.180  14.336
14372W        W82590  21.583  16.814  13.890
14373W        W82591  29.520  39.095   0.639
14374W        W82592   0.677  38.389  13.361
14375W        W82593  32.633  14.270   3.799
14376W        W82594  24.174  24.207  12.010
14377W        W82595  20.931  40.253   4.522
14378W        W82596   2.423   5.169   2.442
14379W        W82597   4.309   4.378   3.627
14380W        W82598   0.450  40.604  11.092
14381W        W82599  36.111  30.184   1.808
14382W        W82600  16.324  41.447   1.815
14383W        W82601  13.213  36.540   3.833
14384W        W82602   1.915  37.295   4.260
14385W        W82603  20.524  40.803   4.162
14386W        W82604  14.435  13.726   2.843
14387W        W82605   6.379  22.690  11.549
14388W        W82606  40.048  19.760  10.758
14389W        W82607  38.819  35.864  12.559
14390W        W82608  24.552  37.008  10.584
14391W        W82609   6.589  23.917  10.529
14392W        W82610  26.247  20.745  12.454
14393W        W82611  30.054  20.540  11.059
14394W        W82612  25.994  23.710  14.084
14395W        W82613  26.734   0.137   3.835
14396W        W82614  27.670   1.216   2.583
14397W        W82615  10.340  26.767   3.221
14398W        W82616  11.659  30.999  13.356
14399W        W82617  17.263  20.926   4.591
14400W        W82618   6.098  40.284  13.799
14401W        W82619  28.523  35.437  11.545
14402W        W82620  39.906  43.469   4.611
14403W        W82621  28.956  37.515   0.805
14404W        W82622  31.194  15.616  14.964
14405W        W82623   8.940   5.340  14.817
14406W        W82624  22.754   8.511  12.059
14407W        W82625  42.380  34.703  10.643
14408W        W82626  21.218  34.460  12.170
14409W        W82627  28.519  22.584   3.298
14410W        W82628  24.196  16.838   3.597
14411W        W82629  24.109  37.000   1.669
14412W        W82630  35.981  22.279  13.957
14413W        W82631  30.033   9.167  14.365
14414W        W82632  38.273  21.086  10.671
14415W        W82633   9.873  44.285   2.148
14416W        W82634   8.288  11.267   2.313
14417W        W82635  23.746  13.622   4.006
14418W        W82636   4.557  20.179   3.064
14419W        W82637  10.059  27.554  14.405
14420W        W82638  30.446  34.399  13.597
14421W        W82639  18.618  25.845  12.389
14422W        W82640  35.001   2.606   3.826
14423W        W82641   8.349   4.801   0.337
14424W        W82642   5.816  25.056   2.206
14425W        W82643   7.608  39.392   0.352
14426W        W82644   1.638   4.756   4.115
14427W        W82645  11.641  41.484  13.915
14428W        W82646  22.320  20.040  12.030
14429W        W82647  18.536  12.121  10.680
14430W        W82648  27.132  39.800  13.767
14431W        W82649  19.510  39.023  14.890
14432W        W82650   1.317  28.150  12.370
14433W        W82651  43.088  10.329  12.836
14434W        W82652  27.474  11.687  12.936
14435W        W82653  31.381  10.281  14.415
14436W        W82654  28.165   8.604   4.169
14437W        W82655  29.551  30.130   4.884
14438W        W82656  16.156   3.952  10.863
14439W        W82657  20.915   8.842  10.818
14440W        W82658  28.077  28.120   2.729
14441W        W82659  11.363  34.529  13.068
14442W        W82660  23.152  19.898  14.563
14443W        W82661   3.615  15.275   3.740
14444W        W82662  31.057  43.751   3.524
14445W        W82663  42.528  14.654  14.478
14446W        W82664  20.746   0.559   2.942
14447W        W82665  14.399  33.559   4.192
14448W        W82666  31.953  19.602   1.936
14449W        W82667  25.129   8.431  10.995
14450W        W82668  28.130   3.933   1.318
14451W        W82669  37.464   4.997  13.082
14452W        W82670  43.818  33.488  10.642
14453W        W82671   3.756  41.990   3.285
14454W        W82672  11.911  34.580   1.818
14455W        W82673  35.463   1.039   4.112
14456W        W82674  21.264   4.306   4.402
14457W        W82675  15.568  27.198   3.664
14458W        W82676  39.353   3.002  13.552
14459W        W82677  15.175   4.636  13.509
14460W        W82678  42.397  12.741   0.521
14461W        W82679  42.861  18.596   3.359
14462W        W82680  43.809  43.415  11.713
14463W        W82681  23.123  43.718  14.843
14464W        W82682   6.783  39.152  11.974
14465W        W82683  44.514   4.020  14.526
14466W        W82684  34.094  32.441   3.227
14467W        W82685  25.518  21.540   0.069
14468W        W82686  41.765  15.058   3.681
14469W        W82687  21.796  30.660   2.342
14470W        W82688  30.009  31.425   0.022
14471W        W82689   9.878   6.077   2.750
14472W        W82690  21.570   6.167  13.417
14473W        W82691  24.278  25.063  14.020
14474W        W82692   1.588  16.815   4.649
14475W        W82693   2.348  18.182   1.378
14476W        W82694  43.273  16.331  11.949
14477W        W82695  15.900  20.539   4.831
14478W        W82696  26.719  12.827  13.535
14479W        W82697  38.489  40.353  12.116
14480W        W82698  13.073   3.504  13.814
14481W        W82699  38.774  38.607  14.033
14482W        W82700  27.115  25.499   2.332
14483W        W82701  31.345  12.859   0.509
14484W        W82702  33.024  12.411  12.037
14485W        W82703  41.498  12.894  11.942
14486W        W82704   4.500  14.157   0.922
14487W        W82705  25.237  38.926  11.978
14488W        W82706  14.089  37.825   2.146
14489W        W82707   7.697  42.261  13.412
14490W        W82708  39.897  25.877  11.627
14491W        W82709   0.674  19.547   4.265
14492W        W82710   5.193   6.905   2.287
14493W        W82711  21.913   2.464  12.044
14494W        W82712  43.424  27.488   3.702
14495W        W82713  20.915   5.821   2.796
14496W        W82714  22.994  32.641  10.661
14497W        W82715  28.278   1.941   1.961
14498W        W82716  24.431  30.563   3.039
14499W        W82717   5.448  10.664   4.678
14500W        W82718  43.244  13.514  11.616
14501W        W82719  19.077   0.420   2.274
14502W        W82720  27.051  41.015   3.665
14503W        W82721   3.967   0.460   2.644
14504W        W82722  41.518  15.115   4.194
14505W        W82723  38.358  25.232  14.374
14506W        W82724  25.122   7.483  12.907
14507W        W82725  13.655  18.312  13.521
14508W        W82726   0.875   5.771  12.141
14509W        W82727  11.401  42.362  12.626
14510W        W82728   5.730  24.754   1.789
14511W        W82729  39.073  28.029  14.342
14512W        W82730   0.379  14.065  10.556
14513W        W82731   6.170  32.111   4.058
14514W        W82732  33.639  34.545   2.625
14515W        W82733  11.682  30.400   1.329
14516W        W82734  31.054  32.411   0.361
14517W        W82735  16.718  41.968  12.315
14518W        W82736  44.516   0.310   0.818
14519W        W82737   7.939   3.415   2.444
14520W        W82738  41.526  29.031  11.311
14521W        W82739  12.597   8.942  12.916
14522W        W82740   6.339  31.122  13.432
14523W        W82741  30.730  41.098   0.529
14524W        W82742  17.766   0.711   1.012
14525W        W82743  35.923  39.757  11.342
14526W        W82744  19.059  22.698  10.679
14527W        W82745  12.117  41.808  11.503
14528W        W82746  31.762  12.937  11.606
14529W        W82747  38.085  30.125   0.192
14530W        W82748  40.480  40.630  14.601
14531W        W82749   3.101  32.234   1.274
14532W        W82750  24.146   6.426   0.260
14533W        W82751   7.347  29.193  13.141
14534W        W82752  19.875   9.407   0.778
14535W        W82753  44.112  42.292   0.836
14536W        W82754  18.034  38.065  11.849
14537W        W82755  14.239  24.581   3.174
14538W        W82756  12.873  42.006   3.761
14539W        W82757  44.364  12.803  14.026
14540W        W82758  40.284  17.128   5.391
14541W        W82759   7.122  35.771  14.815
14542W        W82760  44.027   3.124   4.968
14543W        W82761  31.514  39.965  10.610
14544W        W82762   9.317  17.968  14.857
14545W        W82763  11.109  36.929   0.035
14546W        W82764  42.254  30.664   3.189
14547W        W82765  32.668   5.051   3.263
14548W        W82766  19.163  44.516   1.359
14549W        W82767  28.539  34.843  14.569
14550W        W82768   3.754  27.646   0.384
14551W        W82769  32.953  13.286   0.749
14552W        W82770  43.953  28.153  14.632
14553W        W82771  14.719   9.215   0.514
14554W        W82772  42.245   9.791  14.496
14555W        W82773  33.870  32.522   3.713
14556W        W82774  30.017  18.693   3.584
14557W        W82775  19.204  28.180  11.480
14558W        W82776  21.153  24.151  13.113
14559W        W82777  18.167  27.509  11.647
14560W        W82778  38.768  19.643   4.667
14561W        W82779   7.264   7.930   1.720
14562W        W82780  40.988  18.489  12.968
14563W        W82781  25.930  38.861   2.622
14564W        W82782  22.670  40.966  12.834
14565W        W82783  23.618  42.543   1.820
14566W        W82784   0.964  22.137  13.422
14567W        W82785   3.195   4.268   2.694
14568W        W82786  28.366  31.467  12.852
14569W        W82787   0.804  15.330  12.120
14570W        W82788  30.404  44.386  14.910
14571W        W82789  32.878  35.435   0.928
14572W        W82790  24.679  25.605   9.689
14573W        W82791   0.313  21.170   3.807
14574W        W82792  43.339  14.108  14.405
14575W        W82793  37.152   1.168   1.694
14576W        W82794   5.087  16.560   4.141
14577W        W82795  33.935  30.603   9.596
14578W        W82796  12.197   1.446   4.584
14579W        W82797  12.349  34.287   3.613
14580W        W82798  16.967   5.717  14.390
14581W        W82799  31.423  26.278  10.973
14582W        W82800  28.447  12.063  11.574
14583W        W82801   7.506  10.531   1.755
14584W        W82802  26.960  19.702  10.616
14585W        W82803   5.473  11.227   2.341
14586W        W82804   1.512  36.378   0.948
14587W        W82805  23.817  29.632  11.159
14588W        W82806  10.660  36.699  14.885
14589W        W82807  12.797  13.766   0.429
14590W        W82808  44.747  24.073  11.544
14591W        W82809  32.402  20.138  13.316
14592W        W82810  29.527  18.840   3.682
14593W        W82811  20.808  42.751   1.236
14594W        W82812  31.184   1.035   2.266
14595W        W82813  29.709  14.765  11.089
14596W        W82814   7.956   2.287   2.833
14597W        W82815  15.088  12.872   0.741
14598W        W82816  13.917  43.313   5.230
14599W        W82817   8.342   1.106  13.812
14600W        W82818   7.260   8.957   3.142
14601W        W82819   8.250  34.005   0.374
14602W        W82820   6.372   4.911  14.398
14603W        W82821  37.009  30.697   0.153
14604W        W82822   1.550  30.789  13.899
14605W        W82823  26.909  27.378  10.668
14606W        W82824  31.833  34.539  12.441
14607W        W82825  29.009  44.008   4.591
14608W        W82826   4.205   1.796  13.948
14609W        W82827  36.485  40.303   4.756
14610W        W82828  35.794  24.662  10.765
14611W        W82829  26.453   0.220  12.428
14612W        W82830   7.873  17.751   0.901
14613W        W82831  31.953  40.149  10.392
14614W        W82832  25.202  26.590  14.766
14615W        W82833   5.817  38.114   2.978
14616W        W82834  25.663  31.272   1.028
14617W        W82835  33.374  18.984   0.926
14618W        W82836   6.640   3.002  11.542
14619W        W82837   2.969  31.967  10.318
14620W        W82838  36.292  24.705  11.546
14621W        W82839  35.245  29.618  11.965
14622W        W82840  43.833  11.387  10.683
14623W        W82841   1.007  21.135   0.348
14624W        W82842  10.381  17.556   1.390
14625W        W82843   1.034  16.601  14.353
14626W        W82844   2.951  36.974   1.471
14627W        W82845  27.149  29.090   0.491
14628W        W82846  40.017  17.513   0.815
14629W        W82847  21.136   6.087  14.083
14630W        W82848  33.406  30.163   2.468
14631W        W82849  10.648  17.090   0.854
14632W        W82850   0.386  40.269  14.978
14633W        W82851  11.330  41.077  10.714
14634W        W82852  34.526  44.303   0.357
14635W        W82853   1.364   7.392   2.383
14636W        W82854   2.962  29.139  11.081
14637W        W82855  27.096  23.574  11.694
14638W        W82856  14.020  30.213   1.259
14639W        W82857   2.235  37.993  14.686
14640W        W82858  20.333  20.067   0.877
14641W        W82859  26.777  10.635  12.621
14642W        W82860  39.511  41.521   0.083
14643W        W82861   0.832  21.568   2.259
14644W        W82862   0.006   3.703  10.777
14645W        W82863  41.497   9.843   0.988
14646W        W82864  23.215   3.768   2.754
14647W        W82865  12.324  40.401   3.615
14648W        W82866  27.533  23.753   0.781
14649W        W82867  35.820  41.820   1.248
14650W        W82868  43.390   1.454   1.368
14651W        W82869  30.420  12.248   2.212
14652W        W82870   8.991  31.058   3.879
14653W        W82871  12.075  21.606   3.031
14654W        W82872  35.314  24.203   2.478
14655W        W82873  28.061  28.860  13.860
14656W        W82874  37.702  22.615  13.344
14657W        W82875  40.899  15.545   1.741
14658W        W82876  33.730   4.437   9.820
14659W        W82877  41.430  28.986  13.746
14660W        W82878   4.148  20.782  11.851
14661W        W82879  24.442  10.923  12.506
14662W        W82880   1.281  18.632  10.362
14663W        W82881  27.704  24.612   3.622
14664W        W82882   6.137  28.408  14.330
14665W        W82883  31.932  26.113  10.242
14666W        W82884   5.540  11.734   1.924
14667W        W82885  17.823   0.899  12.485
14668W        W82886  33.939   7.303  12.016
14669W        W82887   8.199  37.850  10.217
14670W        W82888   5.698  11.218   4.563
14671W        W82889  20.683  42.319   3.811
14672W        W82890  32.994   1.735   4.179
14673W        W82891  30.844  16.611   2.474
14674W        W82892  16.605   8.722  13.846
14675W        W82893   6.328  41.761  14.159
14676W        W82894   2.379  25.936   0.422
14677W        W82895  23.087  10.683  13.277
14678W        W82896  18.975  36.540  12.017
14679W        W82897  32.109  44.675   2.566
14680W        W82898  35.347  35.031  13.497
14681W        W82899  22.459   4.226  13.774
14682W        W82900   3.220  24.107   3.035
14683W        W82901  27.665  17.765   2.755
14684W        W82902  20.141  11.729  14.439
14685W        W82903  15.179  35.391  12.532
14686W        W82904   8.587   8.219  13.855
14687W        W82905   8.252  18.073   3.629
14688W        W82906  42.041   4.859   3.784
14689W        W82907  39.792  18.962  13.516
14690W        W82908  44.354  21.455  11.122
14691W        W82909  34.777  42.856   1.716
14692W        W82910  43.807   5.766   1.778
14693W        W82911  34.314   9.979  12.476
14694W        W82912  28.754  30.097   3.121
14695W        W82913  22.208  10.140  10.894
14696W        W82914  39.295  28.897   2.506
14697W        W82915  35.574  29.365  10.731
14698W        W82916  18.196  21.579  10.993
14699W        W82917  25.073  34.177   0.448
14700W        W82918  34.579   7.592  14.935
14701W        W82919  34.739   6.177  10.950
14702W        W82920  31.548   1.444  14.509
14703W        W82921  14.773  28.419  11.577
14704W        W82922  30.646   9.702  12.455
14705W        W82923  28.692  20.653  13.100
14706W        W82924   0.664  15.770  11.920
14707W        W82925  35.948  13.215   5.164
14708W        W82926  20.103  10.408  11.168
14709W        W82927   0.273  29.003   4.823
14710W        W82928  37.208  27.288   2.774
14711W        W82929  32.974  38.990   4.575
14712W        W82930  29.092  38.932   3.231
14713W        W82931  32.037  12.158  11.714
14714W        W82932   8.566  43.106  10.123
14715W        W82933  29.229  14.527   1.375
14716W        W82934   4.231   6.089  10.936
14717W        W82935   0.734  40.205  11.224
14718W        W82936  31.241  19.652   5.107
14719W        W82937   6.455   7.856   3.081
14720W        W82938  34.422  40.438  12.088
14721W        W82939  43.912  27.587   0.328
14722W        W82940  32.374  44.539  14.445
14723W        W82941  36.471  12.629   4.573
14724W        W82942  23.284  39.539  10.631
14725W        W82943  39.604  38.349   2.918
14726W        W82944  13.146  13.092   3.634
14727W        W82945  24.798  18.766   2.860
14728W        W82946  20.540  30.726  10.713
14729W        W82947  26.456  38.333   2.471
14730W        W82948  24.037  24.714  11.946
14731W        W82949   8.782   6.694   2.057
14732W        W82950  19.671  13.426  14.440
14733W        W82951  11.532  27.863   0.339
14734W        W82952  28.132  18.246   4.583
14735W        W82953  13.807  42.455   4.358
14736W        W82954  39.897  41.575  12.154
14737W        W82955  19.568  27.043  11.972
14738W        W82956   6.142   5.103   2.715
14739W        W82957   2.896   2.720  14.283
14740W        W82958   6.153  43.807   1.710
14741W        W82959   1.235  40.479   4.364
14742W        W82960   6.395  22.487   1.661
14743W        W82961   5.021  40.738   0.032
14744W        W82962  12.938  16.487   4.796
14745W        W82963   9.893  24.583  10.641
14746W        W82964  11.084  43.908   9.750
14747W        W82965  39.087  31.947  11.613
14748W        W82966  12.920   7.759   0.425
14749W        W82967   4.799  15.043   3.285
14750W        W82968  42.305  11.602   1.754
14751W        W82969  11.287  33.935   1.208
14752W        W82970   8.208  16.074  11.214
14753W        W82971  36.216  31.597   1.198
14754W        W82972  42.261   5.925   4.251
14755W        W82973  33.070   9.130  14.983
14756W        W82974  42.030   3.445  11.752
14757W        W82975  40.579   8.346  13.963
14758W        W82976   4.826  10.199  13.607
14759W        W82977  22.741  25.970   0.470
14760W        W82978  41.180  16.346  13.313
14761W        W82979  18.038  24.044   2.357
14762W        W82980  13.253  37.555   3.575
14763W        W82981  28.929  41.472   0.082
14764W        W82982  32.966  16.472  13.501
14765W        W82983  22.583  34.060   1.394
14766W        W82984  13.210  40.085  12.076
14767W        W82985  35.548   4.224   4.758
14768W        W82986   5.786  16.732   1.845
14769W        W82987   2.781  14.768  13.084
14770W        W82988  41.512   0.310  12.884
14771W        W82989  31.924  16.577  14.381
14772W        W82990  30.392  15.751   1.475
14773W        W82991  16.537   2.634   1.910
14774W        W82992  20.987   4.173   3.918
14775W        W82993  16.441  31.120  11.039
14776W        W82994  44.833  44.229   3.411
14777W        W82995  38.941  11.372  11.708
14778W        W82996  28.800  14.044  10.344
14779W        W82997  18.217  11.154   1.222
14780W        W82998   8.826   3.438   9.691
14781W        W82999  29.992  20.257   4.350
14782W        W83000  40.563   1.749   2.129
14783W        W83001  17.728  41.349  14.367
14784W        W83002   6.451  17.583   0.728
14785W        W83003   6.388  24.078  13.758
14786W        W83004  20.985  13.416  14.023
14787W        W83005  32.655  30.535   0.302
14788W        W83006  13.050   0.953  11.641
14789W        W83007  11.049   3.030   0.345
14790W        W83008  42.621  17.289  14.066
14791W        W83009   6.885   6.925  12.924
14792W        W83010  39.479   8.208   3.101
14793W        W83011  24.790  39.922  13.627
14794W        W83012  23.659  15.580  12.349
14795W        W83013  21.037  42.298  14.989
14796W        W83014  42.807  32.888   4.390
14797W        W83015  10.372  17.135   2.269
14798W        W83016  22.166  12.746   4.329
14799W        W83017  12.192  44.347  12.303
14800W        W83018  43.161  30.199   4.370
14801W        W83019   8.439  14.662   0.534
14802W        W83020  29.084  13.315  14.539
14803W        W83021  20.469  36.966  12.521
14804W        W83022   6.179   1.530  12.095
14805W        W83023   7.086   3.280  11.585
14806W        W83024  36.699  28.944  12.581
14807W        W83025   9.802   8.332  14.398
14808W        W83026  10.280  11.180   1.165
14809W        W83027  32.070  28.312   4.154
14810W        W83028  11.105  13.879   2.184
14811W        W83029  42.233  14.714  11.209
14812W        W83030  15.706   6.675  12.175
14813W        W83031   2.434   5.907   1.946
14814W        W83032  17.872  13.252  12.530
14815W        W83033   2.514  36.175   0.392
14816W        W83034  40.756  12.175   3.678
14817W        W83035  44.469  11.923  10.047
14818W        W83036  11.353  22.140   2.964
14819W        W83037  43.533   7.663   1.290
14820W        W83038   2.352  31.884  14.881
14821W        W83039   4.710   9.436  11.042
14822W        W83040  31.045  19.653   2.644
14823W        W83041   6.940  13.105   3.167
14824W        W83042  33.406  29.471  14.864
14825W        W83043  29.398  33.981  12.977
14826W        W83044  14.593   5.782   4.540
14827W        W83045  17.070  43.468  14.878
14828W        W83046  41.438  44.719  11.762
14829W        W83047  31.699  21.178   4.530
14830W        W83048  39.970   2.777  14.321
14831W        W83049  31.392  18.637  10.889
14832W        W83050  32.861  11.910   4.075
14833W        W83051   3.431   1.949  14.577
14834W        W83052  17.206  16.233   2.634
14835W        W83053  22.478  16.070  12.062
14836W        W83054  41.494  26.221  10.568
14837W        W83055  21.750  42.858  13.169
14838W        W83056   3.941  38.789  11.215
14839W        W83057  17.180  39.373  12.984
14840W        W83058  34.869   5.860  13.534
14841W        W83059  40.867  13.084  13.559
14842W        W83060  42.448  37.558   4.070
14843W        W83061  19.736  20.140  12.482
14844W        W83062   0.305  22.719  11.357
14845W        W83063   7.895  14.593   3.431
14846W        W83064  27.986  21.600  10.270
14847W        W83065   9.684  26.676   2.729
14848W        W83066  19.234  19.523  14.384
14849W        W83067  33.248  44.077   4.043
14850W        W83068  10.035  34.412  10.203
14851W        W83069  16.392  41.444   0.822
14852W        W83070  10.689  11.714  12.604
14853W        W83071   9.248  15.365   2.409
14854W        W83072  29.097   3.810  12.381
14855W        W83073  40.418  30.257   4.624
14856W        W83074  32.497  32.112  11.160
14857W        W83075  31.999  16.526  12.172
14858W        W83076  16.185  31.510  12.996
14859W        W83077  40.374  41.949  10.981
14860W        W83078   0.052   5.695   1.529
14861W        W83079   6.070   8.866  12.282
14862W        W83080  24.463   3.906   3.337
14863W        W83081  43.976   3.501  13.901
14864W        W83082  35.787  27.016   5.519
14865W        W83083  21.660   2.553  14.267
14866W        W83084  39.828  20.507  13.478
14867W        W83085   9.543  42.185   4.071
14868W        W83086   1.693   2.497  11.947
14869W        W83087  26.698  32.606  12.464
14870W        W83088  24.517  14.107  11.582
14871W        W83089  18.401  24.934   3.658
14872W        W83090   2.036  13.629  13.238
14873W        W83091   0.335  15.636  10.753
14874W        W83092  24.535  24.862  11.983
14875W        W83093  42.916   0.845  11.602
14876W        W83094  34.518  36.510  13.598
14877W        W83095  30.559  37.091   2.228
14878W        W83096  37.971  39.307  10.658
14879W        W83097  35.393   6.902   3.730
14880W        W83098   7.187  13.200   1.686
14881W        W83099  39.154  20.014  12.371
14882W        W83100  29.501  34.773  11.108
14883W        W83101  29.148  16.797   1.303
14884W        W83102  40.324  40.325  13.614
14885W        W83103  30.206  36.046   1.181
14886W        W83104   6.948  31.582  13.924
14887W        W83105  18.819  18.740  13.436
14888W        W83106  18.803   4.955  12.362
14889W        W83107  10.222  26.995   1.182
14890W        W83108  34.679  19.143   0.373
14891W        W83109  17.636  14.258  14.892
14892W        W83110  34.643   7.876   1.842
14893W        W83111   1.913  17.252   4.558
14894W        W83112  44.999  36.675   1.713
14895W        W83113   0.418  28.914  11.147
14896W        W83114  39.336  19.756   0.535
14897W        W83115  43.397  34.795  10.678
14898W        W83116  32.045  22.573  11.800
14899W        W83117  15.267  22.543   4.315
14900W        W83118  34.895  41.939   1.406
14901W        W83119  36.553   4.311   3.769
14902W        W83120  30.973  13.656  10.640
14903W        W83121  25.523  11.642   1.026
14904W        W83122   0.289  33.155  11.035
14905W        W83123  33.388  15.576  12.863
14906W        W83124  30.706  30.851   2.494
14907W        W83125   5.329   1.955   3.713
14908W        W83126  32.296   5.846   1.835
14909W        W83127  31.186  22.000  12.504
14910W        W83128  10.905  13.737   0.844
14911W        W83129  27.698  18.357   3.357
14912W        W83130  32.945  23.019   0.310
14913W        W83131  22.707   5.748   1.427
14914W        W83132  29.914  14.042   4.540
14915W        W83133  31.793  17.056   1.066
14916W        W83134  40.127  32.888   3.233
14917W        W83135  25.909  40.446   3.529
14918W        W83136  33.158  31.602  10.741
14919W        W83137   9.203  24.878   2.405
14920W        W83138  20.780  37.898  13.028
14921W        W83139  24.062  27.103  11.857
14922W        W83140  13.000  41.881  11.233
14923W        W83141   5.766  40.031   5.372
14924W        W83142  34.823  42.004  11.179
14925W        W83143  26.448  29.958   0.802
14926W        W83144  21.563  13.120   0.887
14927W        W83145  40.630  12.629  12.084
14928W        W83146   1.768   8.628  14.019
14929W        W83147  39.270  25.639  13.523
14930W        W83148  33.332  22.592   2.758
14931W        W83149   2.511  25.684  11.610
14932W        W83150  30.239  22.128   3.155
14933W        W83151  32.382  33.208  13.613
14934W        W83152  41.835  22.082   0.170
14935W        W83153  22.563  13.191   1.779
14936W        W83154  38.272  33.470   3.745
14937W        W83155  19.100  15.065   4.585
14938W        W83156  35.605  13.247  14.351
14939W        W83157  39.776  38.829   0.006
14940W        W83158  25.607   3.035   4.570
14941W        W83159  16.622  21.446  13.968
14942W        W83160  15.181  41.922  13.472
14943W        W83161  11.186  24.894  13.577
14944W        W83162  20.711   5.534   1.259
14945W        W83163  19.667  29.036   3.859
14946W        W83164   9.747  21.200  10.712
14947W        W83165  19.171  38.982   2.675
14948W        W83166  34.577  35.245  11.514
14949W        W83167  31.420  43.509  11.185
14950W        W83168  41.964  37.979  13.825
14951W        W83169  14.889  11.214  10.573
14952W        W83170  23.266  36.882   0.310
14953W        W83171   7.902  17.450  14.989
14954W        W83172  36.146  41.752   3.218
14955W        W83173   4.624  42.396   4.109
14956W        W83174  35.503  12.614  11.226
14957W        W83175   4.709  25.438  12.964
14958W        W83176  26.575  42.233   2.189
14959W        W83177  15.852  37.757  13.944
14960W        W83178  27.921   8.147   4.110
14961W        W83179   8.621   9.176  12.389
14962W        W83180   3.381  43.112   1.669
14963W        W83181   8.215  17.980   2.715
14964W        W83182  42.331   0.036  14.020
14965W        W83183   1.398  27.145  14.855
14966W        W83184  41.701  29.203  12.786
14967W        W83185   3.779  41.298   4.683
14968W        W83186  11.308  42.777  12.924
14969W        W83187  44.726  38.621  11.141
14970W        W83188  39.590   1.184   4.504
14971W        W83189  41.104  23.604  11.711
14972W        W83190  15.741  34.325   4.130
14973W        W83191  10.267  28.559  13.360
14974W        W83192  11.117   5.217   3.857
14975W        W83193  23.855  14.312   2.323
14976W        W83194  28.323   6.788   0.421
14977W        W83195  30.612  30.938   2.991
14978W        W83196   4.827   5.748  11.172
14979W        W83197   3.203   4.339  13.559
14980W        W83198  12.215  24.763  14.462
14981W        W83199  22.163  44.930  14.871
14982W        W83200  43.309  29.694  12.159
14983W        W83201  23.021  27.292  11.896
14984W        W83202  36.410  24.260   4.314
14985W        W83203  38.700   7.182  10.076
14986W        W83204   6.291   6.235  10.760
14987W        W83205  18.250  38.933   1.425
14988W        W83206  33.440  22.224   1.284
14989W        W83207  41.321  35.061  11.396
14990W        W83208  27.551   3.667  12.393
14991W        W83209  27.231   0.891  12.973
14992W        W83210  23.220   7.662  11.116
14993W        W83211   1.267  32.002   2.827
14994W        W83212  27.497  37.846  13.466
14995W        W83213  27.865   7.669  14.159
14996W        W83214  32.942  24.991   5.161
14997W        W83215   8.751  42.345   9.765
14998W        W83216  42.242  37.085  12.086
14999W        W83217   3.437  10.503  14.885
15000W        W83218  40.961   5.958  14.798
15001W        W83219  33.775  37.984  12.230
15002W        W83220  10.306  29.256   1.760
15003W        W83221  17.145  26.041  11.005
15004W        W83222  20.185  41.383   4.596
15005W        W83223   5.796   7.236  12.603
15006W        W83224  42.356   5.886   0.094
15007W        W83225  44.618  13.110   1.911
15008W        W83226  22.066  20.139   1.408
15009W        W83227  12.364  31.877  11.290
15010W        W83228   6.727  42.008  13.892
15011W        W83229  23.104  27.530  14.894
15012W        W83230   7.344  38.355   0.438
15013W        W83231  34.015  10.111  12.892
15014W        W83232   7.617  18.153  12.001
15015W        W83233   3.257  29.961   4.678
15016W        W83234  36.460  25.737  13.503
15017W        W83235  13.723  22.730   3.098
15018W        W83236  35.785  24.549   4.772
15019W        W83237  26.483  18.770   3.444
15020W        W83238  27.479   9.588  10.688
15021W        W83239   8.831  38.383   2.874
15022W        W83240   9.212  13.090   4.745
15023W        W83241  41.549  20.002  13.420
15024W        W83242  32.157  31.428  11.154
15025W        W83243   7.799  31.560   1.957
15026W        W83244  26.015  31.027  13.952
15027W        W83245  30.114  40.411   1.948
15028W        W83246  23.718  31.060  10.708
15029W        W83247  24.016  20.219  13.922
15030W        W83248  10.873   7.868  11.984
15031W        W83249  16.519   9.676   3.819
15032W        W83250   1.412  21.593  11.615
15033W        W83251  22.919   6.399  11.179
15034W        W83252   0.451  30.193  11.518
15035W        W83253  14.191  40.275  11.179
15036W        W83254  44.251  33.045   3.832
15037W        W83255  26.985  29.101   2.713
15038W        W83256  44.939  16.546   2.341
15039W        W83257  14.305  16.813   4.469
15040W        W83258  29.120  21.406  11.512
15041W        W83259   8.443  43.400  14.474
15042W        W83260   0.445  26.919  10.705
15043W        W83261  19.066  41.368  14.687
15044W        W83262  38.891  34.482  13.690
15045W        W83263  11.188   6.813   3.602
15046W        W83264  39.423  24.942   5.105
15047W        W83265  13.650  21.220   2.314
15048W        W83266  20.613  35.989  14.355
15049W        W83267  21.825  22.433   4.027
15050W        W83268  10.840  44.884   3.378
15051W        W83269  24.449  21.582  12.592
15052W        W83270   6.182  30.045  14.287
15053W        W83271  31.646  20.466   3.770
15054W        W83272  27.622   4.688  14.921
15055W        W83273   8.608  33.010   2.877
15056W        W83274  11.100  38.742  10.762
15057W        W83275  22.555  34.127   2.311
15058W        W83276  24.531  30.624   1.712
15059W        W83277  38.939  33.202   1.021
15060W        W83278  44.688  30.279  12.863
15061W        W83279  10.622   4.672  12.800
15062W        W83280  26.503  31.395   1.257
15063W        W83281  21.518  35.063   0.631
15064W        W83282  20.424  44.599  13.985
15065W        W83283   0.518  36.461  11.555
15066W        W83284  39.930  22.938   2.393
15067W        W83285  26.701   3.447  12.896
15068W        W83286  27.971  37.994   3.229
15069W        W83287  20.017   5.178  12.850
15070W        W83288  31.976  31.943   2.603
15071W        W83289   3.747  24.671   1.454
15072W        W83290  19.178   3.803   4.384
15073W        W83291  17.661  34.660  14.896
15074W        W83292  18.616   0.017   3.241
15075W        W83293  27.148  30.603  12.540
15076W        W83294  18.761  10.594  14.717
15077W        W83295   4.225  24.971   3.179
15078W        W83296  27.681  33.135  14.408
15079W        W83297  13.238  12.916  12.450
15080W        W83298  11.437  25.690   0.844
15081W        W83299  16.876  41.506  13.087
15082W        W83300   5.396  44.673  12.353
15083W        W83301  28.695  43.508   3.828
15084W        W83302  41.394  13.986  12.575
15085W        W83303  10.428  43.413  14.262
15086W        W83304  27.213   4.849  10.039
15087W        W83305  31.612   1.718  11.577
15088W        W83306  39.411  26.664  11.239
15089W        W83307  35.964  13.738   2.968
15090W        W83308  35.291  14.612   4.143
15091W        W83309  42.268   6.300  14.774
15092W        W83310  12.777   0.665  10.329
15093W        W83311  36.366  39.489   3.617
15094W        W83312  19.612  21.161  12.908
15095W        W83313  34.948  24.702   4.278
15096W        W83314   3.192   2.014   3.423
15097W        W83315  17.738  44.979   3.799
15098W        W83316  26.532   7.261  10.649
15099W        W83317   8.310  32.643   0.851
15100W        W83318   3.811  36.786  13.037
15101W        W83319  18.207  44.750   0.446
15102W        W83320  20.726  20.348   4.276
15103W        W83321  35.558   3.247  11.883
15104W        W83322  19.497  40.840   4.518
15105W        W83323   2.494  23.352  14.040
15106W        W83324   9.454  18.530   4.184
15107W        W83325   8.763  33.566   2.136
15108W        W83326   3.588  34.847   0.845
15109W        W83327   9.427  38.871   4.488
15110W        W83328  15.675  43.300   4.706
15111W        W83329   1.838  40.649   4.554
15112W        W83330  10.394   0.745   1.415
15113W        W83331  17.703  16.378   2.806
15114W        W83332  24.883  26.645   5.028
15115W        W83333  42.928   4.965   3.645
15116W        W83334  22.069   6.197  12.041
15117W        W83335   9.108  37.785  13.951
15118W        W83336   4.787   1.299   4.479
15119W        W83337  33.928  44.363  10.482
15120W        W83338  31.021  10.681  11.132
15121W        W83339  27.982  33.823  11.774
15122W        W83340   6.720   5.347  12.026
15123W        W83341  11.139   3.753   4.597
15124W        W83342  18.198  11.575   2.141
15125W        W83343  18.964  21.972  11.976
15126W        W83344  15.164  32.115   2.759
15127W        W83345  20.328  29.578  11.089
15128W        W83346  16.713   0.284   4.620
15129W        W83347  16.760  23.185  14.720
15130W        W83348  11.151  34.135   3.627
15131W        W83349  43.939  26.724  12.091
15132W        W83350  38.520  14.296  14.703
15133W        W83351  35.751  31.618  13.994
15134W        W83352  19.049  34.615  12.849
15135W        W83353  35.954  22.857   0.252
15136W        W83354  37.072   0.765  11.574
15137W        W83355  27.035  26.319   4.967
15138W        W83356  13.580  33.242  13.833
15139W        W83357  13.636  11.549   2.224
15140W        W83358  36.596  30.186   2.773
15141W        W83359  26.230  41.496  11.509
15142W        W83360  16.981  21.462   1.837
15143W        W83361  26.603  20.547   0.003
15144W        W83362  32.481   5.584   3.171
15145W        W83363  13.359   9.370   3.826
15146W        W83364  12.274  35.303  10.520
15147W        W83365   4.714   3.697   2.486
15148W        W83366  42.884  15.403  13.022
15149W        W83367  36.607  26.409  12.234
15150W        W83368  31.115  12.037   0.244
15151W        W83369  28.028  26.335   4.095
15152W        W83370  14.791   8.852  13.197
15153W        W83371  43.371  13.214  14.870
15154W        W83372  25.471  24.314   3.643
15155W        W83373  15.804  40.029   2.878
15156W        W83374  22.636  21.444  11.992
15157W        W83375  27.691  39.136  10.779
15158W        W83376   2.876  12.048  10.503
15159W        W83377  27.531   4.336   2.714
15160W        W83378  26.321  14.275   3.588
15161W        W83379   1.313   3.052   3.808
15162W        W83380  23.603  44.741  10.722
15163W        W83381  20.962   4.737  12.418
15164W        W83382  32.303  36.908  14.879
15165W        W83383  12.961  40.052  14.381
15166W        W83384  40.232  36.434  13.516
15167W        W83385  19.680  13.168   5.299
15168W        W83386  26.640  23.779  11.548
15169W        W83387  15.168  33.477   0.884
15170W        W83388   3.168  27.472  13.628
15171W        W83389   8.589  17.241   9.766
15172W        W83390  32.862  25.822   4.466
15173W        W83391  40.922   9.401  14.430
15174W        W83392  27.382  26.551  12.669
15175W        W83393  20.547   9.231  14.429
15176W        W83394  22.170   4.467  13.350
15177W        W83395  23.717  35.968   4.862
15178W        W83396  35.934   5.291   3.383
15179W        W83397  12.911   6.120  12.373
15180W        W83398  23.476  25.664   4.917
15181W        W83399  12.140  26.068   3.091
15182W        W83400  25.744   9.394  11.892
15183W        W83401   8.786   7.957  13.461
15184W        W83402  32.095  30.492   2.360
15185W        W83403   1.294  42.249  11.874
15186W        W83404  30.686  13.202   1.008
15187W        W83405  40.970  13.345   4.570
15188W        W83406  13.162  29.935   1.704
15189W        W83407   4.191  43.266  13.107
15190W        W83408  30.610  24.411  12.473
15191W        W83409  19.834   9.222  13.150
15192W        W83410  35.646  31.124  14.897
15193W        W83411   0.419  11.073  13.094
15194W        W83412  41.752  14.318   0.351
15195W        W83413  28.549  22.745  12.479
15196W        W83414   5.955   9.846   2.078
15197W        W83415  21.544  36.852  12.510
15198W        W83416  17.653   8.223   0.033
15199W        W83417  14.482  12.057  10.978
15200W        W83418  14.102  10.084  14.394
15201W        W83419  14.199  33.350  11.859
15202W        W83420  25.501  34.008   1.477
15203W        W83421  16.520  27.043   2.641
15204W        W83422   2.224  27.673  10.726
15205W        W83423  18.322  33.314  14.750
15206W        W83424  32.722   4.163   3.993
15207W        W83425  37.818  43.921  12.526
15208W        W83426  43.427  30.253   1.574
15209W        W83427  14.590  15.101  12.799
15210W        W83428  17.817   3.479   3.082
15211W        W83429  20.980  30.479  14.713
15212W        W83430  38.590   4.915   4.672
15213W        W83431   0.942  18.809  14.413
15214W        W83432  40.749  32.672   1.864
15215W        W83433  15.362  13.779  12.547
15216W        W83434  17.466   1.931  13.065
15217W        W83435  22.242  27.513   2.437
15218W        W83436  15.950  31.171  12.630
15219W        W83437  24.592  26.523  11.850
15220W        W83438   6.919  25.853  11.864
15221W        W83439   4.253   2.920  12.369
15222W        W83440  41.813  35.252   1.985
15223W        W83441  38.785  16.087   4.182
15224W        W83442  24.204  37.402  10.506
15225W        W83443  11.206  31.946   4.028
15226W        W83444   7.682  15.250   2.879
15227W        W83445  17.239  13.091   4.119
15228W        W83446  41.539  38.020  14.962
15229W        W83447  28.889  25.318   2.822
15230W        W83448  35.115   0.306   2.602
15231W        W83449  29.529  22.673  13.335
15232W        W83450   8.600  25.132   3.208
15233W        W83451   8.908   8.831  12.115
15234W        W83452  38.345  38.780   3.409
15235W        W83453  38.126   1.461  12.119
15236W        W83454   1.677   5.520  12.389
15237W        W83455   9.878   0.260   3.803
15238W        W83456  29.386  36.210   1.034
15239W        W83457   1.566   9.039   5.007
15240W        W83458   2.015   7.782   4.009
15241W        W83459  11.109   4.589  14.575
15242W        W83460  26.729  29.370   3.124
15243W        W83461   6.913   2.270   3.608
15244W        W83462  14.343  20.198   0.358
15245W        W83463  40.786   0.811   4.118
15246W        W83464  43.511  35.891   1.630
15247W        W83465  13.198   0.777  11.160
15248W        W83466  19.206  37.312   3.700
15249W        W83467  14.742   4.381  13.366
15250W        W83468  17.051  22.658  13.055
15251W        W83469  32.077  20.362   0.555
15252W        W83470  28.141  26.072  12.554
15253W        W83471  14.273  33.367   4.652
15254W        W83472  42.991  20.792   1.257
15255W        W83473   2.894  28.902  13.993
15256W        W83474  43.039  15.771  11.534
15257W        W83475  22.290   0.887   1.448
15258W        W83476   3.115   5.987   2.754
15259W        W83477   8.237  38.002  11.810
15260W        W83478   0.393   6.217  13.840
15261W        W83479  28.126   5.682  13.573
15262W        W83480  12.655  28.105   0.982
15263W        W83481  22.040  39.362  14.832
15264W        W83482   7.590   1.561  11.145
15265W        W83483  21.671  28.223   0.814
15266W        W83484  39.296  38.385   2.519
15267W        W83485  12.931  22.566   0.248
15268W        W83486  37.018  23.655  12.102
15269W        W83487   5.975  35.824   2.452
15270W        W83488   8.457  43.254   1.233
15271W        W83489  33.473  10.645  14.882
15272W        W83490  16.285  17.699   4.267
15273W        W83491  20.651  32.042  13.721
15274W        W83492  16.746  33.761   1.447
15275W        W83493  25.158  21.435  12.131
15276W        W83494  39.519   7.910   0.289
15277W        W83495   6.776  20.712   0.699
15278W        W83496   9.967  19.180   4.617
15279W        W83497  42.977  15.030  13.412
15280W        W83498  23.509  22.174   0.970
15281W        W83499  41.727  30.061   1.207
15282W        W83500  26.303  33.652  14.455
15283W        W83501  17.659  29.168  13.291
15284W        W83502   1.556  35.416   2.295
15285W        W83503  11.387  42.317  13.155
15286W        W83504  40.986  28.390  11.002
15287W        W83505   5.717  12.818  13.466
15288W        W83506  20.567  17.857   0.810
15289W        W83507  18.816  32.382   2.108
15290W        W83508  38.898  23.591   2.797
15291W        W83509  33.858  13.711   4.658
15292W        W83510   6.901   2.888  14.870
15293W        W83511  37.341  38.802   0.948
15294W        W83512  36.033  15.887  14.171
15295W        W83513  30.650   9.602   0.942
15296W        W83514  27.540   0.366   0.788
15297W        W83515   9.997  15.138   4.233
15298W        W83516  17.887  14.611   0.827
15299W        W83517  36.111  22.366   0.126
15300W        W83518  17.279  28.220  12.416
15301W        W83519  32.050   1.462  13.586
15302W        W83520  28.633   2.335   1.719
15303W        W83521   0.452  37.101  13.400
15304W        W83522   8.936  30.039  11.285
15305W        W83523   6.138  39.661   0.365
15306W        W83524  44.880  42.605  12.330
15307W        W83525  10.386  42.317   3.312
15308W        W83526  42.560  28.706   3.194
15309W        W83527  31.853  42.793  11.162
15310W        W83528  16.551  44.920  13.186
15311W        W83529  18.705  42.581  13.289
15312W        W83530   1.852  18.265   1.539
15313W        W83531  40.810  40.302  11.413
15314W        W83532  20.197   0.780   0.753
15315W        W83533  25.952  20.030   2.474
15316W        W83534  21.551  31.152   0.269
15317W        W83535   9.728  19.627   1.905
15318W        W83536  43.324  23.962   1.879
15319W        W83537  33.454  39.420  14.000
15320W        W83538   7.874  25.524  13.852
15321W        W83539  37.462  43.902  14.297
15322W        W83540  40.321   0.213   0.882
15323W        W83541   5.796  41.770   2.340
15324W        W83542  11.879  40.895  11.561
15325W        W83543   3.197   9.772  12.862
15326W        W83544  35.303  29.556  11.149
15327W        W83545  19.479  28.657  14.050
15328W        W83546  10.993   2.720   0.750
15329W        W83547  25.231  32.097   1.483
15330W        W83548  39.005  10.183   2.770
15331W        W83549  35.880  35.161   4.665
15332W        W83550   5.782  34.982   1.871
15333W        W83551  40.740  23.080   0.502
15334W        W83552  34.960   2.431   4.318
15335W        W83553   0.068  38.873   4.239
15336W        W83554  41.408   2.977  14.236
15337W        W83555  40.706  26.725   2.384
15338W        W83556  36.633  19.776   2.759
15339W        W83557  37.969  12.298  14.032
15340W        W83558  37.988   6.335  12.410
15341W        W83559  14.077  21.998   1.772
15342W        W83560  16.595   7.277   1.169
15343W        W83561   2.790  31.293  11.408
15344W        W83562  39.980  28.269   2.585
15345W        W83563  18.349  22.740  12.978
15346W        W83564  43.250  34.178  11.532
15347W        W83565   8.248  32.976  12.565
15348W        W83566   8.700  23.252   4.293
15349W        W83567  20.537  23.131   2.686
15350W        W83568  17.637   7.276   1.882
15351W        W83569  43.453  32.357   2.170
15352W        W83570   8.474  16.200  14.793
15353W        W83571  12.138  42.589   2.337
15354W        W83572  44.258  18.258  11.575
15355W        W83573  30.035  16.609  13.465
15356W        W83574  26.652  12.285  12.580
15357W        W83575  10.740  37.430   1.482
15358W        W83576   9.257  33.166   3.135
15359W        W83577   1.464   0.503   3.775
15360W        W83578  22.203   2.407   3.557
15361W        W83579   4.657   5.519   1.881
15362W        W83580   7.469  41.204  13.827
15363W        W83581  37.443  42.277   0.091
15364W        W83582  32.436   6.775   0.564
15365W        W83583  39.939  19.061  11.960
15366W        W83584  21.596  44.225  14.348
15367W        W83585  19.780   7.892   3.252
15368W        W83586  41.422  18.510  14.995
15369W        W83587  37.611  13.712   1.915
15370W        W83588   8.454   3.610   5.003
15371W        W83589   3.675  40.943  13.887
15372W        W83590  18.757  13.142   3.228
15373W        W83591   4.820  34.501   4.568
15374W        W83592   7.341  24.153  11.136
15375W        W83593  35.373  13.540  11.553
15376W        W83594  30.192   0.865  12.046
15377W        W83595  35.232  18.222  11.050
15378W        W83596  29.741   8.722   3.012
15379W        W83597  43.779   6.787  10.749
15380W        W83598  41.487   2.422   1.702
15381W        W83599   1.382  26.611  11.440
15382W        W83600  25.255  26.795  12.403
15383W        W83601  24.701  10.766  12.972
15384W        W83602  39.382  24.710   2.677
15385W        W83603   2.683  18.156  13.874
15386W        W83604  24.457   7.406   3.276
15387W        W83605  19.172  39.495   3.941
15388W        W83606  31.073  38.611  13.573
15389W        W83607  19.032  22.124  14.297
15390W        W83608  31.915  44.295   4.158
15391W        W83609  40.071   0.239   0.409
15392W        W83610  12.831   4.936   4.281
15393W        W83611  31.715   0.933   2.256
15394W        W83612  10.142  31.733  14.483
15395W        W83613  24.029  30.024   0.155
15396W        W83614  21.318  41.526  12.075
15397W        W83615  43.700  44.314   0.805
15398W        W83616  17.623  33.535  10.336
15399W        W83617   0.231  10.412  13.530
15400W        W83618  41.785   4.362   2.314
15401W        W83619  14.692  13.362  13.095
15402W        W83620  16.567   4.862   4.613
15403W        W83621   6.493  15.637  11.060
15404W        W83622   2.709  38.738   1.800
15405W        W83623  12.620  39.007   3.170
15406W        W83624  13.243   9.145  11.780
15407W        W83625  38.892  15.162   3.320
15408W        W83626  19.112  36.624  13.877
15409W        W83627  29.126  29.547  10.880
15410W        W83628  13.861  17.758   1.139
15411W        W83629  17.195   4.721   0.287
15412W        W83630  13.684  25.221  12.056
15413W        W83631  36.099  32.085  14.931
15414W        W83632  29.731   9.713  12.559
15415W        W83633  39.783  15.894   3.925
15416W        W83634  34.894  36.966   1.902
15417W        W83635   7.432  25.672   3.673
15418W        W83636  20.518  16.280  10.740
15419W        W83637  40.283  34.363  14.661
15420W        W83638  31.718   8.118  12.580
15421W        W83639  41.433  22.638  14.428
15422W        W83640   3.961  13.048   4.209
15423W        W83641   9.686   1.701  10.680
15424W        W83642  43.927  24.213   1.479
15425W        W83643  27.971  14.796   3.601
15426W        W83644  19.939   8.609  10.717
15427W        W83645  35.719  30.881  12.722
15428W        W83646  27.436  34.953  12.306
15429W        W83647  18.202  41.108  14.490
15430W        W83648  38.359   1.907  13.487
15431W        W83649  16.558  42.426   2.383
15432W        W83650  40.295   0.844   2.186
15433W        W83651  10.238   3.223   1.860
15434W        W83652  26.538   0.389   9.814
15435W        W83653  44.897  25.322   3.512
15436W        W83654   2.483   0.549  12.947
15437W        W83655  18.809  21.206  14.021
15438W        W83656   6.806   5.167  14.469
15439W        W83657  15.078   9.063  14.886
15440W        W83658  42.253  14.276   2.107
15441W        W83659   0.397  27.903  11.976
15442W        W83660  39.828   6.336   4.660
15443W        W83661  23.109  29.964  14.224
15444W        W83662  24.686   5.447   0.716
15445W        W83663   3.911  27.187  10.642
15446W        W83664   9.130  44.168  14.755
15447W        W83665   8.279  16.636   0.830
15448W        W83666  20.895  44.004   1.189
15449W        W83667   9.408  26.612   4.578
15450W        W83668  14.932  11.791   0.310
15451W        W83669  34.370  19.594  12.382
15452W        W83670  30.101   8.852  11.280
15453W        W83671  26.931   3.555   2.455
15454W        W83672  20.382  15.359  12.345
15455W        W83673  31.129  32.491   1.325
15456W        W83674  36.276  22.586   2.154
15457W        W83675  44.058   3.335  10.742
15458W        W83676  30.628  25.576  11.614
15459W        W83677  26.544  12.054   1.008
15460W        W83678  34.292  28.179   2.304
15461W        W83679  12.718  21.138   1.011
15462W        W83680   2.884  30.571   3.080
15463W        W83681  13.495  26.736  14.415
15464W        W83682  14.309  42.956   4.872
15465W        W83683  29.550  43.948   0.053
15466W        W83684  41.471   3.337  13.844
15467W        W83685  44.609   0.143  12.954
15468W        W83686  43.466   3.154  11.532
15469W        W83687   7.279  23.959   4.578
15470W        W83688  43.397  29.288   1.365
15471W        W83689  35.585  25.844   4.698
15472W        W83690  28.618   3.321  14.821
15473W        W83691  16.840   8.288   3.651
15474W        W83692  22.587   1.830   0.027
15475W        W83693  12.712  27.869   2.738
15476W        W83694   7.723  30.400  12.514
15477W        W83695  35.037  33.456  13.095
15478W        W83696  17.982  11.325  10.758
15479W        W83697  14.732  29.903  12.580
15480W        W83698  20.842   7.269   0.900
15481W        W83699  30.994  43.319  11.442
15482W        W83700  23.696  42.413  11.489
15483W        W83701   2.006  41.047  12.089
15484W        W83702  33.551  19.005   2.894
15485W        W83703  14.992   2.824   1.699
15486W        W83704  12.386   4.457  14.246
15487W        W83705  41.517  44.463  13.057
15488W        W83706  10.053   6.682  13.336
15489W        W83707  18.683  28.232   1.873
15490W        W83708  24.312  34.677   2.418
15491W        W83709   2.937  33.105   1.730
15492W        W83710  19.623  25.295  13.867
15493W        W83711   4.372   0.501   3.416
15494W        W83712  11.816  38.785   1.952
15495W        W83713  23.006  43.477  14.375
15496W        W83714  25.967  32.929  13.329
15497W        W83715  43.004  10.196   0.269
15498W        W83716   9.738  11.729   4.096
15499W        W83717  21.794  15.072  12.377
15500W        W83718  24.746   2.458  13.969
15501W        W83719  13.694  21.556  14.501
15502W        W83720  17.287  13.456  11.453
15503W        W83721  35.567   9.215   5.146
15504W        W83722  17.895  20.256  14.037
15505W        W83723  30.002  41.275   1.729
15506W        W83724  31.956  25.418   3.361
15507W        W83725  20.830  14.085   0.997
15508W        W83726   0.062  22.524   1.204
15509W        W83727  23.199  10.953  12.829
15510W        W83728  26.646  14.812   4.499
15511W        W83729   3.999  27.444  11.069
15512W        W83730   2.236  41.200  12.945
15513W        W83731   7.609  26.547  11.939
15514W        W83732  40.042  33.887  14.091
15515W        W83733  43.325  39.358  11.867
15516W        W83734   5.301  31.517   5.168
15517W        W83735  27.035  17.872   2.155
15518W        W83736   8.156  18.364   4.917
15519W        W83737  25.380   2.232  11.281
15520W        W83738  26.290   5.684  13.279
15521W        W83739   9.147   3.315  13.703
15522W        W83740  43.269  19.199   4.984
15523W        W83741  28.595  23.470  14.107
15524W        W83742   4.635  37.426  14.789
15525W        W83743  41.464  36.430   3.228
15526W        W83744  20.083  37.480   2.818
15527W        W83745   0.483  36.499   3.192
15528W        W83746  36.352  25.917  12.441
15529W        W83747  13.657  13.765   3.741
15530W        W83748  26.697   7.458  11.097
15531W        W83749   1.669  20.278   2.770
15532W        W83750  19.604   8.963   0.734
15533W        W83751  18.103   6.543  11.639
15534W        W83752  43.872  35.571   1.822
15535W        W83753  29.951   2.872  13.907
15536W        W83754  34.174  35.119   2.887
15537W        W83755  33.085  41.272  12.893
15538W        W83756  21.067   4.210  11.817
15539W        W83757  25.990   9.766  10.625
15540W        W83758  33.392  40.049   4.888
15541W        W83759  29.402  20.812   0.944
15542W        W83760  34.906  10.937   1.363
15543W        W83761  39.459  23.506   3.571
15544W        W83762  23.596  43.789  11.234
15545W        W83763  44.953  13.834   4.693
15546W        W83764   1.675   2.326  11.194
15547W        W83765   2.807  24.489  10.457
15548W        W83766  37.883  39.879   0.424
15549W        W83767  15.222  23.498  11.050
15550W        W83768  12.068  19.651   2.792
15551W        W83769   7.423  29.874   1.762
15552W        W83770  44.749  16.702  13.707
15553W        W83771  16.071  43.880   1.772
15554W        W83772  15.961  20.688  13.794
15555W        W83773   9.500  11.310  13.321
15556W        W83774   4.421  31.857   0.873
15557W        W83775  27.471  21.603   2.877
15558W        W83776  16.071  38.949  12.726
15559W        W83777   1.891  26.555   0.997
15560W        W83778   7.307  41.443   3.160
15561W        W83779  39.936  42.358   3.615
15562W        W83780   8.218   8.810  10.600
15563W        W83781   8.793  14.677  10.973
15564W        W83782  21.145  19.846   0.290
15565W        W83783  37.138  34.578  11.865
15566W        W83784   2.683   7.867   3.191
15567W        W83785  31.714  28.040  11.566
15568W        W83786  43.881  43.503  12.218
15569W        W83787  13.123  26.212   3.285
15570W        W83788   2.768  25.126   1.206
15571W        W83789   3.245  33.769  11.030
15572W        W83790   2.334  27.805   0.421
15573W        W83791  15.319  28.681  13.838
15574W        W83792  19.568  42.499  11.597
15575W        W83793  37.085  41.211  10.925
15576W        W83794  14.741  26.999   2.251
15577W        W83795  21.747  16.000   2.309
15578W        W83796  44.106  26.708   9.951
15579W        W83797  37.904  34.532   0.293
15580W        W83798  22.220   8.878   0.719
15581W        W83799  40.293  11.765   0.996
15582W        W83800  23.008  41.404   0.738
15583W        W83801  19.441  12.817   1.342
15584W        W83802  10.248  37.028   1.676
15585W        W83803  19.264  21.004   5.068
15586W        W83804  35.876   5.178  13.053
15587W        W83805  10.402  11.994  10.732
15588W        W83806  20.504  10.279   3.215
15589W        W83807  32.857  28.693   0.748
15590W        W83808  29.259   9.795   3.767
15591W        W83809  18.161  16.976  13.940
15592W        W83810  44.515  41.969  13.009
15593W        W83811   6.152  19.075   1.864
15594W        W83812   0.701  15.238  14.357
15595W        W83813  25.637  40.931   3.615
15596W        W83814  13.632  39.839  11.878
15597W        W83815   1.367   9.304   3.217
15598W        W83816   3.680  34.630   1.345
15599W        W83817  24.325  30.926  12.058
15600W        W83818  34.347   7.915   2.697
15601W        W83819  28.464  38.307   0.059
15602W        W83820  27.686  18.877  12.525
15603W        W83821  18.186  26.022   2.780
15604W        W83822  24.963  21.999   0.354
15605W        W83823  25.193  36.996   0.755
15606W        W83824  25.548  14.784   3.581
15607W        W83825  20.207  36.106   0.317
15608W        W83826  35.382  27.966  11.890
15609W        W83827  34.504  41.823  14.940
15610W        W83828   6.401  13.166  10.590
15611W        W83829  11.127  33.477  11.165
15612W        W83830   0.982  42.880  11.253
15613W        W83831  24.255  13.084   0.306
15614W        W83832  24.636  37.895  14.250
15615W        W83833   0.559  40.014   3.750
15616W        W83834  19.567  14.826   4.628
15617W        W83835  23.584  33.655   4.202
15618W        W83836  19.747  25.631   2.210
15619W        W83837   5.728  40.494   0.769
15620W        W83838  35.271  27.513  12.066
15621W        W83839   2.318   4.929   1.714
15622W        W83840  16.140  27.680  10.973
15623W        W83841  35.395  16.031  10.715
15624W        W83842  26.000  33.569   3.313
15625W        W83843  39.570  21.136  14.515
15626W        W83844  42.529  24.918   1.221
15627W        W83845  25.396  26.062  11.976
15628W        W83846   1.303   1.148   2.162
15629W        W83847  27.664  29.870  13.153
15630W        W83848  10.601  11.074   3.298
15631W        W83849   6.802  38.455  13.735
15632W        W83850  11.780  14.315  13.224
15633W        W83851   7.397  14.125   2.275
15634W        W83852   3.866  34.445  11.123
15635W        W83853   4.236  25.138  11.910
15636W        W83854   9.344  14.067  13.416
15637W        W83855  12.622  33.034  10.654
15638W        W83856   7.646  34.370  11.324
15639W        W83857  26.757  12.726   3.241
15640W        W83858  12.852  11.721  12.381
15641W        W83859   4.575   5.012  12.210
15642W        W83860  12.343  44.393  14.445
15643W        W83861  13.101   5.448  14.362
15644W        W83862  39.870  38.774   0.516
15645W        W83863  12.570   3.898   3.399
15646W        W83864   7.301  25.496  10.702
15647W        W83865  42.896  14.263  11.336
15648W        W83866  41.570  33.985   3.695
15649W        W83867  18.984  18.149   4.845
15650W        W83868  20.634   7.939  10.865
15651W        W83869  33.084  44.857   3.105
15652W        W83870  37.898  25.163  11.042
15653W        W83871  21.928  27.693  14.254
15654W        W83872  36.683  43.063  13.362
15655W        W83873  24.504  23.748   2.070
15656W        W83874  35.250  39.535   3.708
15657W        W83875  10.795   1.744   4.545
15658W        W83876   7.773   3.515   0.807
15659W        W83877  36.020  31.813   2.404
15660W        W83878  26.528  43.936  10.043
15661W        W83879   5.539   1.681   2.352
15662W        W83880   3.177  18.270   2.124
15663W        W83881  44.615  44.918  14.518
15664W        W83882  10.211  34.611  12.992
15665W        W83883  30.397  10.804  12.899
15666W        W83884   8.868  44.987   2.109
15667W        W83885  29.025   0.994   1.941
15668W        W83886   9.752   6.313  12.633
15669W        W83887  41.610   0.505   4.153
15670W        W83888  30.174  34.349  11.352
15671W        W83889  11.216  16.100   3.177
15672W        W83890  23.261   2.402   0.365
15673W        W83891  19.614  27.716  13.433
15674W        W83892  35.905  33.576   3.118
15675W        W83893   8.853   8.639   1.901
15676W        W83894  35.436  28.706   1.254
15677W        W83895  37.353  17.539  13.518
15678W        W83896  36.558  41.949   4.027
15679W        W83897  44.215   0.559   4.930
15680W        W83898  41.828  22.620   3.872
15681W        W83899  43.670   1.733   0.097
15682W        W83900  27.769  13.639  11.875
15683W        W83901  17.541  25.726   4.684
15684W        W83902  14.644  12.492  11.196
15685W        W83903   3.156  17.075  14.810
15686W        W83904  35.959  36.285   0.268
15687W        W83905  30.501  42.575  10.707
15688W        W83906   4.652  16.326  14.384
15689W        W83907  27.667   9.644   4.585
15690W        W83908  15.073   5.919  10.548
15691W        W83909  38.322  40.106   0.286
15692W        W83910  10.422  39.845  14.995
15693W        W83911   6.143  31.508  11.656
15694W        W83912  23.427   2.699   0.759
15695W        W83913   4.200  44.306   9.875
15696W        W83914  16.106  38.522   4.262
15697W        W83915  17.243  26.804   2.461
15698W        W83916  15.977  44.822   1.765
15699W        W83917  16.148  33.210   3.118
15700W        W83918  38.600   3.672   3.183
15701W        W83919  11.151  22.579   3.182
15702W        W83920  12.221  36.411  14.554
15703W        W83921  18.218   2.844  12.063
15704W        W83922  32.103  31.235   0.781
15705W        W83923  31.956  13.076   0.363
15706W        W83924  27.923   2.794  10.651
15707W        W83925  12.704  21.925  13.177
15708W        W83926  33.129  10.185   1.807
15709W        W83927  27.044  14.144  12.119
15710W        W83928  22.014  24.123   1.766
15711W        W83929  26.358  14.120   4.925
15712W        W83930   6.221   1.902  13.066
15713W        W83931  25.287   8.921  11.170
15714W        W83932  33.462   7.664   1.351
15715W        W83933  42.863  15.513  11.960
15716W        W83934  39.006  35.872  13.461
15717W        W83935  19.042  40.865  11.986
15718W        W83936   0.916   8.446  14.874
15719W        W83937   2.382  15.840  10.623
15720W        W83938  22.261  21.935   1.761
15721W        W83939  37.377   5.388  11.085
15722W        W83940  43.281  43.847   2.284
15723W        W83941  37.647  37.556  14.788
15724W        W83942  22.443  16.843   1.100
15725W        W83943  39.544   0.305   0.008
15726W        W83944  22.303  10.524   0.430
15727W        W83945  42.388  38.940   2.093
15728W        W83946   1.493  12.995   0.631
15729W        W83947  33.871  40.159  13.405
15730W        W83948   0.833  28.444   2.806
15731W        W83949   1.191  39.463   0.366
15732W        W83950   5.347  22.282   4.223
15733W        W83951   1.688  21.560  12.932
15734W        W83952  13.654  18.200   1.870
15735W        W83953  13.783  30.152   2.876
15736W        W83954  20.856  28.174   2.671
15737W        W83955  32.473  29.921   0.873
15738W        W83956  13.623   1.330  12.592
15739W        W83957  41.195  28.040   1.264
15740W        W83958  31.452  17.771  10.523
15741W        W83959  24.517   7.320  12.407
15742W        W83960   8.267  34.430   0.050
15743W        W83961  23.214  16.662  11.944
15744W        W83962  35.220  40.174  11.673
15745W        W83963  31.856   1.820   2.293
15746W        W83964  26.077   1.651  10.465
15747W        W83965  14.699   5.131   4.614
15748W        W83966  41.823   4.160   0.771
15749W        W83967  19.567  36.414  11.149
15750W        W83968  25.036   0.107  14.737
15751W        W83969  26.557  31.112  13.885
15752W        W83970   1.229   4.643   5.032
15753W        W83971  43.804  33.240  12.393
15754W        W83972  25.943  19.585   3.279
15755W        W83973  14.187  11.687  13.422
15756W        W83974  44.950   9.657  11.419
15757W        W83975   6.386  35.160  14.358
15758W        W83976  13.545  35.882  11.049
15759W        W83977   4.343  20.789  10.866
15760W        W83978  11.726  16.731   1.187
15761W        W83979   5.815  13.065   2.430
15762W        W83980  19.098  16.052   3.583
15763W        W83981  22.237  44.242   2.297
15764W        W83982  21.290   3.218  10.982
15765W        W83983  14.766  36.012  13.023
15766W        W83984   4.019  40.918   9.563
15767W        W83985  33.412  40.818   1.835
15768W        W83986  31.588  13.299   0.083
15769W        W83987  23.518  28.514  13.154
15770W        W83988  30.362  32.850   4.491
15771W        W83989  27.317  39.838   2.660
15772W        W83990  42.538  37.611  13.025
15773W        W83991  27.887  40.294   2.770
15774W        W83992  34.390  36.375  10.889
15775W        W83993   7.346  20.106   0.705
15776W        W83994   8.421  21.270  12.937
15777W        W83995  17.756  31.991  11.333
15778W        W83996  37.814  15.793  14.081
15779W        W83997   5.447  16.496  14.937
15780W        W83998  28.146  28.624   2.886
15781W        W83999  33.399  11.191  10.486
15782W        W84000   8.247  33.222   1.832
15783W        W84001   4.883  32.338  11.486
15784W        W84002   9.836   5.742   0.299
15785W        W84003  20.138  35.148   3.384
15786W        W84004  40.115  17.805  10.780
15787W        W84005   0.800  22.628  10.692
15788W        W84006   0.820  13.125   0.382
15789W        W84007  18.749  28.768   1.936
15790W        W84008   7.758  39.422  10.499
15791W        W84009   2.444   6.276   2.303
15792W        W84010  28.462   9.423  12.202
15793W        W84011  22.494  40.558  11.590
15794W        W84012  16.257   0.266   1.797
15795W        W84013  44.608   8.852  13.940
15796W        W84014  40.265  38.644   3.604
15797W        W84015   0.276  34.116  14.041
15798W        W84016  26.078  29.366  11.642
15799W        W84017  34.170  28.089  12.543
15800W        W84018  35.092  40.531   3.657
15801W        W84019   3.998  32.532   2.177
15802W        W84020   9.580  23.301  12.932
15803W        W84021   3.730  30.705   3.644
15804W        W84022  41.946  38.545  12.168
15805W        W84023  44.907  27.971   0.524
15806W        W84024  44.272  15.811  12.015
15807W        W84025  31.636  31.966  13.592
15808W        W84026  31.896   1.719  14.888
15809W        W84027   2.722   2.996  14.953
15810W        W84028   8.190   6.425   0.957
15811W        W84029  27.099   0.562   0.578
15812W        W84030  41.983  28.036  14.711
15813W        W84031  35.272  31.009  12.521
15814W        W84032  27.300  17.134   0.631
15815W        W84033  44.364  44.685  11.650
15816W        W84034  18.839  44.551  11.463
15817W        W84035  16.258   2.276  10.864
15818W        W84036  17.375   9.986  10.357
15819W        W84037  39.228   3.147   0.839
15820W        W84038  32.375   4.287  12.022
15821W        W84039  26.616  13.903  12.312
15822W        W84040  44.301  12.557  10.091
15823W        W84041  13.456   6.436   1.162
15824W        W84042   6.684  10.644  12.504
15825W        W84043  44.253  15.749   0.566
15826W        W84044  33.505  41.385   2.735
15827W        W84045  24.588  10.572   2.190
15828W        W84046   6.269  29.289  13.039
15829W        W84047  30.425   5.827  12.973
15830W        W84048  38.789   1.354   1.809
15831W        W84049  41.038  16.644  13.696
15832W        W84050  16.718   7.901   0.033
15833W        W84051   2.529  13.684   3.442
15834W        W84052  25.074  18.054   4.733
15835W        W84053  42.445   6.802   2.370
15836W        W84054  18.811  10.642  11.585
15837W        W84055  10.402  32.985  13.788
15838W        W84056   6.984  27.724   2.165
15839W        W84057   6.329   7.370   3.226
15840W        W84058   6.906  43.600   3.778
15841W        W84059  23.773  21.067  10.756
15842W        W84060  42.362   1.296  11.002
15843W        W84061  37.491  15.909  12.083
15844W        W84062  25.931   3.458   4.621
15845W        W84063   6.717  25.052   4.572
15846W        W84064  10.435  33.770  11.260
15847W        W84065  43.415   6.672   3.462
15848W        W84066  36.942  31.572  11.219
15849W        W84067  40.569  12.890   0.680
15850W        W84068   2.335  29.550   4.950
15851W        W84069  10.904  44.342   0.122
15852W        W84070  34.371  11.329  12.573
15853W        W84071   3.644  25.584  12.485
15854W        W84072  43.253  37.366   2.814
15855W        W84073  22.152  31.114  13.830
15856W        W84074  38.712  35.635   4.058
15857W        W84075  20.949  13.551   3.213
15858W        W84076  27.379  21.001  13.001
15859W        W84077  43.840   0.989  13.525
15860W        W84078  31.951  16.104  11.884
15861W        W84079  11.222   7.897  13.640
15862W        W84080   5.742  12.708   0.911
15863W        W84081  34.566  43.482  11.232
15864W        W84082   2.115  42.536   3.489
15865W        W84083   2.021  40.288  13.609
15866W        W84084  43.636   9.668  12.565
15867W        W84085   9.734  36.823  13.434
15868W        W84086   6.154  27.292   2.741
15869W        W84087  36.099   7.184  13.048
15870W        W84088  20.772  44.060   4.516
15871W        W84089  21.562  27.418   2.639
15872W        W84090  27.610  39.013   0.749
15873W        W84091  12.908  18.524  13.199
15874W        W84092  30.624  20.030   4.726
15875W        W84093  27.028  24.903  14.880
15876W        W84094  44.400  41.967  13.908
15877W        W84095  35.128  43.361  11.325
15878W        W84096  16.534   0.779  11.451
15879W        W84097  14.665  17.620  13.915
15880W        W84098  33.168   2.532   2.872
15881W        W84099  32.930   5.299  12.946
15882W        W84100  40.512  16.373   0.426
15883W        W84101  12.059  26.377  12.058
15884W        W84102   6.413  39.945   2.275
15885W        W84103  15.391   4.444   0.375
15886W        W84104  38.141  38.928  11.104
15887W        W84105   4.854  30.015   0.359
15888W        W84106  39.310  28.731  12.764
15889W        W84107   4.279  44.813   0.539
15890W        W84108  15.520  30.115   0.312
15891W        W84109  15.768   1.862  12.601
15892W        W84110  42.545  38.903   3.847
15893W        W84111  29.405  36.733   0.943
15894W        W84112  14.848  12.271  13.263
15895W        W84113  44.184  36.808  12.487
15896W        W84114  11.009  16.906   2.073
15897W        W84115  12.718  23.289   4.562
15898W        W84116   5.026  33.507   2.181
15899W        W84117  21.749  21.519  13.339
15900W        W84118  32.241   2.959   3.123
15901W        W84119   8.790  41.356  12.503
15902W        W84120  43.938  31.687   2.815
15903W        W84121  30.388  15.839  11.176
15904W        W84122   7.340   3.161   0.018
15905W        W84123  38.565   3.978  13.284
15906W        W84124  13.328  27.022   4.431
15907W        W84125  28.364  37.289  13.062
15908W        W84126   8.744  38.504  11.213
15909W        W84127  12.972  39.398  10.796
15910W        W84128  38.562  38.515  13.403
15911W        W84129  13.368  21.281   2.758
15912W        W84130  24.195  33.971  13.113
15913W        W84131  44.225  25.722  14.557
15914W        W84132   1.146   3.856  12.970
15915W        W84133  43.064   3.903   4.600
15916W        W84134  44.430  16.612   2.199
15917W        W84135  23.132  25.711  14.310
15918W        W84136  19.756   1.014  14.987
15919W        W84137   2.220  39.586   1.799
15920W        W84138  21.158  42.299  11.620
15921W        W84139  33.000  17.365  14.012
15922W        W84140  20.136  21.670   0.056
15923W        W84141  34.975  39.086  14.833
15924W        W84142   3.886   1.916  13.427
15925W        W84143  27.474   1.171  12.599
15926W        W84144  18.028  12.540  10.299
15927W        W84145  32.706  15.117   3.680
15928W        W84146  27.465  21.079   4.586
15929W        W84147   1.218  42.650   2.411
15930W        W84148  16.113  24.607   2.155
15931W        W84149  30.063  25.111  13.553
15932W        W84150  35.864  42.487   2.758
15933W        W84151  35.484   9.880   3.960
15934W        W84152   6.932  43.768   5.583
15935W        W84153  32.601  21.060   3.358
15936W        W84154  33.589  14.114   1.227
15937W        W84155  36.059  33.873  11.683
15938W        W84156  35.459  13.690   2.835
15939W        W84157  27.705  18.308  14.766
15940W        W84158  25.256  26.560  11.043
15941W        W84159  18.199   4.960   4.479
15942W        W84160  36.846   0.413   4.143
15943W        W84161  32.879   1.936  11.970
15944W        W84162  38.707   7.054   1.855
15945W        W84163  17.596  41.466   3.306
15946W        W84164  27.049   2.692   4.883
15947W        W84165  29.101  18.892   0.274
15948W        W84166   6.239  12.062  11.249
15949W        W84167  27.696  24.106   1.407
15950W        W84168  29.107   6.721   4.239
15951W        W84169  34.599  44.949  14.977
15952W        W84170   2.977   2.202  12.485
15953W        W84171  41.109  33.921   4.590
15954W        W84172  26.437  15.706  11.153
15955W        W84173  26.519   3.340   2.703
15956W        W84174  37.105  31.454  14.534
15957W        W84175  20.184  14.341  10.272
15958W        W84176  34.844   6.690  14.437
15959W        W84177  29.596   2.964  10.255
15960W        W84178  15.077  27.204  14.010
15961W        W84179  15.185   1.494   2.781
15962W        W84180  31.863  28.837  12.531
15963W        W84181  27.470  20.195  14.023
15964W        W84182  44.750  27.500  10.817
15965W        W84183  32.466  25.972   2.756
15966W        W84184   8.152  14.314   1.799
15967W        W84185  19.689  27.984  11.518
15968W        W84186  13.604  24.468   3.659
15969W        W84187   3.893   7.025  13.704
15970W        W84188  36.310  42.294  13.989
15971W        W84189  16.770  36.972   3.117
15972W        W84190  43.399  18.037   2.856
15973W        W84191  13.105  13.682  10.791
15974W        W84192   4.497  30.003   4.101
15975W        W84193  27.839  31.926  12.323
15976W        W84194  30.457  44.302   3.180
15977W        W84195  43.563  29.726   2.201
15978W        W84196   8.912  31.743  10.902
15979W        W84197  24.081  11.868   3.191
15980W        W84198   4.579  32.105   0.409
15981W        W84199  43.552   8.730   2.005
15982W        W84200  30.700   3.203   2.728
15983W        W84201  13.522  10.816  11.974
15984W        W84202  37.170  21.752   1.838
15985W        W84203  39.939  23.232  13.484
15986W        W84204  41.463  22.239   3.195
15987W        W84205  23.600  13.127  14.740
15988W        W84206  23.682  18.561  14.472
15989W        W84207  15.781   4.983  11.057
15990W        W84208   0.819  24.973   4.628
15991W        W84209  27.047  31.764  14.278
15992W        W84210  14.777  13.115   4.131
15993W        W84211   0.298  43.449   0.374
15994W        W84212  30.563   0.511   3.777
15995W        W84213  28.183   6.482   2.844
15996W        W84214  17.302  26.626  13.067
15997W        W84215  38.365  44.090   2.374
15998W        W84216  30.217  44.980  11.536
15999W        W84217  27.586  13.708  13.062
16000W        W84218  19.718  10.563   4.168
16001W        W84219  37.301  13.108   4.118
16002W        W84220  17.881  13.214  12.015
16003W        W84221  19.713  23.386   1.856
16004W        W84222  28.340  19.499  10.612
16005W        W84223  42.535   8.070  11.797
16006W        W84224  13.427   8.801  11.434
16007W        W84225   8.672  12.936  10.816
16008W        W84226  25.542  43.317   0.482
16009W        W84227  35.441  44.587   1.355
16010W        W84228  40.743   4.185  10.893
16011W        W84229  38.991   8.840  11.474
16012W        W84230  22.093   5.229   2.853
16013W        W84231  11.774  28.450  10.641
16014W        W84232  29.974  29.077  13.422
16015W        W84233  14.607  12.277  12.827
16016W        W84234  37.898  28.171   1.403
16017W        W84235  27.510  11.183  11.591
16018W        W84236  42.896  34.618   1.449
16019W        W84237  17.637   7.322  12.955
16020W        W84238  21.130  22.770  10.611
16021W        W84239  32.058  15.182  11.188
16022W        W84240  11.649   6.145  13.767
16023W        W84241  18.313  15.191  11.157
16024W        W84242  36.068  41.500  11.532
16025W        W84243  15.322   0.014  11.921
16026W        W84244  33.137  30.660  10.564
16027W        W84245  19.745  38.926  10.717
16028W        W84246   2.965  10.320  14.865
16029W        W84247  44.653  14.170  12.115
16030W        W84248  30.548   7.261  12.631
16031W        W84249   9.504  11.402   0.827
16032W        W84250  21.553  43.298  10.928
16033W        W84251  30.419  35.470  11.988
16034W        W84252  20.571  19.197   1.778
16035W        W84253  27.479   7.805   3.946
16036W        W84254   0.413   2.464  14.780
16037W        W84255  33.925   7.979  12.899
16038W        W84256   3.406   1.377   0.290
16039W        W84257   3.796   8.440  12.905
16040W        W84258   5.233  35.639  11.560
16041W        W84259  39.590  39.089   3.728
16042W        W84260  29.621  12.689  14.871
16043W        W84261  29.744  40.972  13.375
16044W        W84262  14.347  40.563   1.722
16045W        W84263  35.838   8.543  11.161
16046W        W84264  38.490  30.077   3.597
16047W        W84265  35.991  44.942  11.657
16048W        W84266  25.452  39.500   3.196
16049W        W84267  11.648   6.321  10.655
16050W        W84268   9.473  44.126  11.090
16051W        W84269  23.443  37.118  12.446
16052W        W84270  39.553   3.923  12.090
16053W        W84271  33.803  42.988   1.311
16054W        W84272   3.446  27.016  12.886
16055W        W84273  17.499  19.523  11.444
16056W        W84274   3.459   0.293   1.794
16057W        W84275  31.116  31.734   0.869
16058W        W84276   0.473   9.273  13.775
16059W        W84277  12.713  18.623  13.658
16060W        W84278  35.530  36.922  11.851
16061W        W84279  20.817  29.438   0.209
16062W        W84280  35.554   4.956   2.381
16063W        W84281   1.649  40.946   2.647
16064W        W84282   6.487  19.237   0.048
16065W        W84283  44.335  25.041   9.989
16066W        W84284  11.850  18.674  10.941
16067W        W84285  33.623  20.568   3.670
16068W        W84286  28.469   6.450   1.219
16069W        W84287  32.226   4.095   4.096
16070W        W84288  24.430  23.577  14.926
16071W        W84289  42.300  35.843  11.539
16072W        W84290  40.370  24.080   2.976
16073W        W84291  10.116  43.932  11.598
16074W        W84292  28.475  39.494  13.409
16075W        W84293  31.400  35.855  11.228
16076W        W84294  20.016  28.571  12.593
16077W        W84295  24.950  36.966   4.146
16078W        W84296  17.295  38.999  13.389
16079W        W84297   6.326  19.754   3.276
16080W        W84298   2.384   1.179   3.234
16081W        W84299  15.200  30.467   3.975
16082W        W84300  11.685  40.736   1.845
16083W        W84301   0.813   7.429   5.018
16084W        W84302   6.293  17.809  11.084
16085W        W84303  41.386  22.477  11.174
16086W        W84304  21.553  25.596   1.605
16087W        W84305   1.211  39.987  13.960
16088W        W84306   0.963  22.479   3.806
16089W        W84307   4.701  35.075  14.354
16090W        W84308   8.411  15.816  11.631
16091W        W84309  24.453  22.224   1.929
16092W        W84310  11.075  33.599   1.545
16093W        W84311  37.540   8.900   3.622
16094W        W84312  10.315  15.198   0.738
16095W        W84313  10.887  16.571  11.244
16096W        W84314   6.311  29.074  12.559
16097W        W84315  26.460  18.930   3.939
16098W        W84316  15.256  25.691   2.370
16099W        W84317  25.713  18.871  12.405
16100W        W84318  10.221  22.953  14.258
16101W        W84319  39.491  11.108  12.478
16102W        W84320   4.224  17.685   1.816
16103W        W84321  34.162  36.062   1.969
16104W        W84322   5.384  13.424   4.124
16105W        W84323   4.650  42.556   0.947
16106W        W84324   9.956  27.494   4.624
16107W        W84325  33.585  10.723   4.202
16108W        W84326   5.393  32.593   1.237
16109W        W84327  35.373  44.824  14.560
16110W        W84328   7.247  11.610   3.180
16111W        W84329  38.517  11.657  11.572
16112W        W84330  25.869  12.772  14.283
16113W        W84331  37.350   6.844   2.899
16114W        W84332  20.987  15.932   4.615
16115W        W84333  19.101  41.541  12.392
16116W        W84334   1.553  35.415  12.541
16117W        W84335   2.001  32.382  12.053
16118W        W84336  42.354   4.039   2.387
16119W        W84337  37.948  11.010   1.151
16120W        W84338  30.091  44.902   2.846
16121W        W84339  11.132  24.958  14.081
16122W        W84340  18.615  30.907  11.640
16123W        W84341  33.448  37.572  14.119
16124W        W84342  16.618  29.931   4.710
16125W        W84343   2.713  39.793   1.779
16126W        W84344  37.888  17.712   3.956
16127W        W84345  33.086  39.877   3.292
16128W        W84346  34.116   7.805   3.144
16129W        W84347  30.136  39.491  10.974
16130W        W84348  27.816  42.617   2.888
16131W        W84349  19.968  35.662   0.064
16132W        W84350  37.974  30.569   2.734
16133W        W84351  10.591  24.050   2.676
16134W        W84352  33.497  39.573   3.228
16135W        W84353  43.488  38.824   4.227
16136W        W84354  32.826   5.354  12.075
16137W        W84355   1.231  31.953  12.452
16138W        W84356  17.764  24.243  14.246
16139W        W84357  43.662  30.517   0.106
16140W        W84358  20.313  11.204   2.398
16141W        W84359  41.515  42.261   2.853
16142W        W84360   7.822  41.835   2.898
16143W        W84361  32.594  44.506   4.807
16144W        W84362  25.731  30.601   4.669
16145W        W84363  10.158  35.784   0.093
16146W        W84364   7.775   4.663  13.641
16147W        W84365  38.819  14.754   4.132
16148W        W84366  26.954  30.544   0.008
16149W        W84367  19.423  43.544  12.931
16150W        W84368  20.290  42.819   3.160
16151W        W84369  25.975  17.019   3.668
16152W        W84370  22.791  19.575  14.695
16153W        W84371   0.879   1.798   4.665
16154W        W84372  44.902  33.384  13.882
16155W        W84373  12.636  37.588  13.683
16156W        W84374   9.575  24.038  10.704
16157W        W84375  29.948   2.655  10.596
16158W        W84376  14.383  17.672  11.547
16159W        W84377  33.443  24.106   2.657
16160W        W84378  23.417  39.488  13.874
16161W        W84379  17.054  31.973  12.914
16162W        W84380  30.670   9.112  11.562
16163W        W84381   9.300   4.380  11.120
16164W        W84382  18.282  19.508   4.145
16165W        W84383  20.778  39.727  12.976
16166W        W84384  27.329  21.533   4.795
16167W        W84385  24.657   8.247  13.826
16168W        W84386  10.224  22.255   2.478
16169W        W84387  31.698  20.012  12.583
16170W        W84388  29.209  35.925   0.017
16171W        W84389   5.757  15.319   4.644
16172W        W84390  43.413  25.870   4.517
16173W        W84391  25.417   8.806   0.280
16174W        W84392  19.194  29.425   1.182
16175W        W84393  20.382  21.130  12.505
16176W        W84394   6.978  35.006  13.074
16177W        W84395  35.327  18.064   2.413
16178W        W84396  10.327   0.711  12.499
16179W        W84397   4.300  14.703  11.581
16180W        W84398   8.411   0.859  10.969
16181W        W84399  37.588   9.157   3.186
16182W        W84400   4.728  25.952   3.732
16183W        W84401   9.357  30.209  11.025
16184W        W84402  29.203  36.785  12.975
16185W        W84403   0.704  27.239  11.188
16186W        W84404  35.944  19.078   0.822
16187W        W84405   6.811   8.467  12.575
16188W        W84406  34.879  27.691   0.508
16189W        W84407   7.662  44.007  12.376
16190W        W84408  38.293  39.431  14.599
16191W        W84409  27.463   6.137   1.249
16192W        W84410  43.101  25.431  13.262
16193W        W84411   5.912  22.257   1.823
16194W        W84412  39.499  20.533  10.970
16195W        W84413   3.297  27.725   1.261
16196W        W84414  44.765  15.608  12.060
16197W        W84415   6.805  44.372  11.779
16198W        W84416  10.421  26.596  12.471
16199W        W84417  39.796  28.003  10.647
16200W        W84418  20.121  33.623  14.414
16201W        W84419  18.797  28.599  12.960
16202W        W84420  20.279   2.035   2.304
16203W        W84421   2.909  10.090   1.617
16204W        W84422  40.509  20.296  11.945
16205W        W84423   9.491  17.818   1.378
16206W        W84424   8.107  13.384   1.783
16207W        W84425  22.923  24.266   0.723
16208W        W84426  32.932  30.536  10.081
16209W        W84427  14.829   5.455   1.151
16210W        W84428  40.377  22.144   1.855
16211W        W84429  22.732   1.289   3.666
16212W        W84430   4.249  32.973   1.282
16213W        W84431  31.873   4.165   2.366
16214W        W84432  44.181  44.468   4.190
16215W        W84433  28.892  21.316   2.302
16216W        W84434   1.046  22.427  14.893
16217W        W84435  19.245  26.136   4.101
16218W        W84436  17.558  28.234   1.322
16219W        W84437  22.536   1.206   4.128
16220W        W84438  14.589   4.746  12.165
16221W        W84439  40.178  27.020   1.189
16222W        W84440  35.140  22.936   2.926
16223W        W84441  31.045  32.629  10.407
16224W        W84442  32.034  30.031   2.155
16225W        W84443  24.971  43.178   4.114
16226W        W84444  43.998   5.865   3.157
16227W        W84445   9.841  13.728   4.412
16228W        W84446  28.767  22.207   3.064
16229W        W84447  33.595  16.808   2.185
16230W        W84448  13.357   0.950  12.891
16231W        W84449  33.326  29.135   3.239
16232W        W84450  14.427  23.280  12.878
16233W        W84451   6.369  11.700  10.851
16234W        W84452  10.925  31.643  14.035
16235W        W84453  16.518  15.355   2.345
16236W        W84454  21.141  22.457   5.077
16237W        W84455  20.926  26.954  11.060
16238W        W84456  39.993  19.163   2.223
16239W        W84457   1.556  17.842  11.300
16240W        W84458  34.497  44.106   1.854
16241W        W84459  27.711  33.685   1.733
16242W        W84460  33.179  29.624  14.349
16243W        W84461  34.063   0.442  13.154
16244W        W84462  16.326  41.506  13.066
16245W        W84463  28.672  40.388   0.973
16246W        W84464  43.847  37.601  11.619
16247W        W84465  30.069  36.385  13.103
16248W        W84466  18.659  34.004   9.383
16249W        W84467  38.524   5.350   1.168
16250W        W84468   9.726  21.517   0.810
16251W        W84469  16.375  32.230   3.242
16252W        W84470  29.558  20.055   4.144
16253W        W84471   2.291  12.564  14.382
16254W        W84472  20.794  21.788   2.589
16255W        W84473  10.607  39.413   4.870
16256W        W84474  40.085   4.644   0.661
16257W        W84475  12.140  39.413  13.431
16258W        W84476   2.217  25.753   1.713
16259W        W84477   3.497  40.976   0.840
16260W        W84478  16.720   6.792  10.715
16261W        W84479  40.511  15.520   2.361
16262W        W84480  44.086   0.717  11.089
16263W        W84481  30.926  24.091   1.676
16264W        W84482  33.523  20.717  11.234
16265W        W84483   9.584  15.558   4.146
16266W        W84484  31.810  35.870   4.086
16267W        W84485  18.191  35.460   0.252
16268W        W84486  24.873  40.346   1.783
16269W        W84487   6.983  44.987   3.430
16270W        W84488  12.200   6.417   2.177
16271W        W84489  34.012   7.718  14.387
16272W        W84490  13.374   0.550  11.606
16273W        W84491  41.515   0.627   2.742
16274W        W84492   3.567   7.875  14.071
16275W        W84493  18.150  40.929   3.973
16276W        W84494  31.764  13.705   1.446
16277W        W84495  31.704  16.570  11.126
16278W        W84496  39.328   1.795  12.628
16279W        W84497  21.053  23.643   2.400
16280W        W84498  20.080   4.478  11.523
16281W        W84499   9.326   2.937   3.381
16282W        W84500  18.148  37.300   1.994
16283W        W84501  40.592  15.826  12.463
16284W        W84502  15.330  40.367  14.543
16285W        W84503  11.867  33.010   1.252
16286W        W84504  15.405  13.305   5.243
16287W        W84505  40.688  42.698   3.147
16288W        W84506   3.386  33.626  11.704
16289W        W84507  13.788   3.020  12.007
16290W        W84508   2.958  13.176   4.195
16291W        W84509   5.674  43.997   3.979
16292W        W84510  21.602   4.233   3.161
16293W        W84511  39.059  39.798  12.483
16294W        W84512  19.559  14.471  11.552
16295W        W84513   8.609   3.368  12.347
16296W        W84514  20.764  36.646  10.749
16297W        W84515  15.278   3.748   4.927
16298W        W84516   4.668  23.128   4.535
16299W        W84517  12.678   2.181   0.962
16300W        W84518  28.496  41.726   4.908
16301W        W84519  14.905  35.307  12.124
16302W        W84520   2.305  28.911   3.877
16303W        W84521  31.407  28.931   3.256
16304W        W84522  27.503  16.096   1.422
16305W        W84523  44.118  39.130  11.167
16306W        W84524   8.832  11.302  13.743
16307W        W84525   0.267   1.786  11.977
16308W        W84526   9.804  42.390  11.114
16309W        W84527   4.014   3.508   5.030
16310W        W84528  43.262  25.501  11.943
16311W        W84529  40.953  32.470   4.980
16312W        W84530  38.478  33.220  13.394
16313W        W84531  40.089   0.126  10.769
16314W        W84532  28.159  30.902  11.883
16315W        W84533  18.733  26.759   3.639
16316W        W84534   7.678  18.303   0.929
16317W        W84535  27.627  17.128   1.454
16318W        W84536  14.655  22.479  14.513
16319W        W84537   0.586  29.430   2.634
16320W        W84538  16.239   6.206   2.408
16321W        W84539  42.255  26.027  12.561
16322W        W84540  31.939  24.778  11.042
16323W        W84541  42.694  30.445  12.953
16324W        W84542  38.613  41.044  12.413
16325W        W84543  35.600  37.882  11.195
16326W        W84544  15.312  43.278   4.072
16327W        W84545  36.587  18.384  12.843
16328W        W84546   5.755  43.691  12.002
16329W        W84547  32.017  33.898  11.518
16330W        W84548   1.890  43.032   1.903
16331W        W84549   6.795  22.845  12.131
16332W        W84550  40.304  13.259  12.414
16333W        W84551  43.900  28.658  14.731
16334W        W84552   8.307  11.723   4.690
16335W        W84553  24.670  18.257  10.945
16336W        W84554  28.817  41.923  13.293
16337W        W84555   1.302  18.098   0.333
16338W        W84556  26.062  35.597   0.041
16339W        W84557  36.496   5.934  12.331
16340W        W84558  18.167  13.494   3.646
16341W        W84559  34.141   3.233   3.246
16342W        W84560  18.947  15.155   1.358
16343W        W84561  22.619  20.451  11.101
16344W        W84562   4.864  18.372  12.114
16345W        W84563   9.984   1.668  11.580
16346W        W84564  30.710  29.455  12.001
16347W        W84565  17.831   2.038  14.419
16348W        W84566  28.193  26.573  11.966
16349W        W84567  23.721   0.010   2.077
16350W        W84568  18.658  23.004  14.514
16351W        W84569  31.074  36.597  13.904
16352W        W84570  27.275  14.121  13.119
16353W        W84571  28.668  10.174  14.523
16354W        W84572  44.597  31.999   1.372
16355W        W84573  40.094   4.430  14.745
16356W        W84574  10.735  21.193  11.025
16357W        W84575   3.801  28.397   4.651
16358W        W84576   3.832   2.937  12.036
16359W        W84577  36.468   4.031  11.512
16360W        W84578  36.906  37.056  13.887
16361W        W84579  22.927  39.558  13.977
16362W        W84580  16.768  39.278  11.986
16363W        W84581  34.295  19.263   4.601
16364W        W84582  44.198  35.456   2.702
16365W        W84583  30.045  27.997  13.534
16366W        W84584  16.866  28.139  14.664
16367W        W84585   1.865  27.108  13.504
16368W        W84586  39.334  44.353   1.002
16369W        W84587   9.205  12.722  10.767
16370W        W84588  24.629  24.623   4.731
16371W        W84589  43.066  27.147  12.980
16372W        W84590  15.574  29.030  11.555
16373W        W84591   8.795  25.381   1.871
16374W        W84592   6.815  23.023   2.280
16375W        W84593  28.556   9.221  14.485
16376W        W84594  40.063  18.536  12.097
16377W        W84595  36.543  18.789  14.718
16378W        W84596  40.631   7.143  13.383
16379W        W84597   4.647  25.149  10.995
16380W        W84598   2.132  34.925   1.801
16381W        W84599   3.619  29.836  14.420
16382W        W84600  29.987   0.792   4.457
16383W        W84601  35.076   9.668  14.807
16384W        W84602  43.337  30.796  13.496
16385W        W84603  21.619  10.838   0.641
16386W        W84604  11.673  39.810  14.481
16387W        W84605  34.548  19.523  11.099
16388W        W84606  21.556  25.084   2.951
16389W        W84607  22.347   6.294  14.426
16390W        W84608  37.358  36.097  12.816
16391W        W84609   9.563  33.931   0.787
16392W        W84610   4.766  10.674  13.388
16393W        W84611  36.639  32.343  10.790
16394W        W84612  25.455  21.134   4.207
16395W        W84613  12.866   8.901  12.040
16396W        W84614  11.959   8.660  11.911
16397W        W84615  28.957   2.147   4.063
16398W        W84616  16.700  26.472   2.855
16399W        W84617  25.476  36.500  13.441
16400W        W84618  13.581  16.589  14.527
16401W        W84619   4.718  38.236   4.765
16402W        W84620  30.599   2.528  12.905
16403W        W84621  37.958  20.524   2.641
16404W        W84622  32.423   4.741  14.060
16405W        W84623  29.493  27.141   2.638
16406W        W84624  37.327  18.335  13.987
16407W        W84625  39.977   9.309  14.467
16408W        W84626  24.170   6.877  12.405
16409W        W84627  15.043  35.424   2.872
16410W        W84628  27.753  10.274   4.113
16411W        W84629  17.274  39.023   9.866
16412W        W84630  20.840  29.493   4.569
16413W        W84631  35.877  26.509  10.303
16414W        W84632  18.732   8.932   0.052
16415W        W84633  18.327  10.791  11.651
16416W        W84634  21.095  15.218  10.627
16417W        W84635  27.638  14.637   1.984
16418W        W84636  30.549   4.949  12.382
16419W        W84637  16.821   1.191  10.523
16420W        W84638  20.064  34.930   2.427
16421W        W84639  12.126   3.252  14.878
16422W        W84640  29.954   2.021   3.798
16423W        W84641  38.963  39.622  12.959
16424W        W84642  34.943   6.112   0.906
16425W        W84643  22.393  10.731   1.719
16426W        W84644  19.662  42.438  12.467
16427W        W84645   9.946  14.236   5.065
16428W        W84646   3.850   3.832  10.976
16429W        W84647  15.224  43.598  12.165
16430W        W84648   3.682   3.001   2.674
16431W        W84649   5.621  13.533   2.342
16432W        W84650  41.073  21.511   2.883
16433W        W84651  14.075  15.089   2.301
16434W        W84652  10.091  34.402   3.957
16435W        W84653  43.499   0.363   0.750
16436W        W84654   4.798  27.914  14.752
16437W        W84655  41.143  30.557  12.115
16438W        W84656  20.123  25.218   4.809
16439W        W84657  31.017  27.721   4.234
16440W        W84658  38.465  26.204  12.591
16441W        W84659  11.819   8.860  14.847
16442W        W84660  35.456  35.084  11.676
16443W        W84661   1.218  31.498   3.729
16444W        W84662   8.718  37.925  11.658
16445W        W84663   9.185  35.552   3.577
16446W        W84664   4.153   6.243   4.761
16447W        W84665  14.854  27.686   0.495
16448W        W84666  10.882  12.765  14.685
16449W        W84667  25.925  42.972  12.114
16450W        W84668  34.720  32.061   0.223
16451W        W84669  42.705  16.080  14.485
16452W        W84670  38.405   9.168  14.772
16453W        W84671  22.747  10.394  12.008
16454W        W84672  26.257  43.203   3.780
16455W        W84673   0.390  10.897  12.620
16456W        W84674  14.188  24.414  11.150
16457W        W84675   1.813  19.026   2.261
16458W        W84676  41.459  40.554  12.017
16459W        W84677  25.422  19.027   2.433
16460W        W84678  23.812   2.833   4.055
16461W        W84679  44.870  14.840   0.467
16462W        W84680   5.542  22.047  11.256
16463W        W84681  17.501   9.178   0.216
16464W        W84682  22.538  37.502  13.904
16465W        W84683  39.919  33.593   0.153
16466W        W84684   5.782   3.839  12.951
16467W        W84685  16.344  20.924   0.925
16468W        W84686  21.190  16.343  14.219
16469W        W84687  17.057   2.580  14.838
16470W        W84688  27.290  20.794  12.324
16471W        W84689  38.479   3.488  14.342
16472W        W84690   5.782  17.853   9.791
16473W        W84691   6.879  40.175   2.260
16474W        W84692  24.181  20.577  12.432
16475W        W84693  41.708  11.356   3.596
16476W        W84694  30.570   6.723   2.288
16477W        W84695  23.111  18.035  11.503
16478W        W84696  18.605  40.560   3.287
16479W        W84697  29.048   4.458  13.438
16480W        W84698  19.829  23.962  13.526
16481W        W84699  23.307   3.313  11.167
16482W        W84700  41.808  31.605   1.360
16483W        W84701  28.656   6.703  10.391
16484W        W84702  26.467   4.010  11.549
16485W        W84703  20.111  38.944   0.210
16486W        W84704   1.696  37.114   2.147
16487W        W84705  30.615  17.042   4.711
16488W        W84706  37.112  40.285   0.325
16489W        W84707  23.066  30.187   0.227
16490W        W84708  25.402  28.560  11.612
16491W        W84709  24.657  31.223  12.328
16492W        W84710  16.245  29.327  14.343
16493W        W84711  40.489  42.366  11.948
16494W        W84712  21.225  20.755   0.106
16495W        W84713  17.810  37.450   1.631
16496W        W84714  13.211  22.831  13.978
16497W        W84715  20.451  34.461   1.888
16498W        W84716  10.746  13.257   4.084
16499W        W84717  41.392  19.290   4.552
16500W        W84718  38.786  17.248  13.594
16501W        W84719  31.849  14.853  14.806
16502W        W84720  35.028  40.580  14.926
16503W        W84721  15.825  30.246   4.691
16504W        W84722  26.973  35.586   4.588
16505W        W84723  18.305  31.848   3.070
16506W        W84724  34.104   3.908   2.779
16507W        W84725   3.993  25.217   3.576
16508W        W84726  31.499  42.975   4.828
16509W        W84727  27.496  10.857  14.444
16510W        W84728  19.653   6.369   3.199
16511W        W84729  35.848  26.043  12.461
16512W        W84730  41.398  10.404   3.196
16513W        W84731  13.576  20.735   4.126
16514W        W84732   0.964  28.436  14.438
16515W        W84733  30.215  25.636  12.541
16516W        W84734  38.466  34.069  12.847
16517W        W84735   0.403   1.670   2.207
16518W        W84736  25.244  32.580   0.735
16519W        W84737  42.861  41.111   3.216
16520W        W84738  19.678  26.504   4.110
16521W        W84739  30.881  14.563   0.619
16522W        W84740  16.320  17.247   4.506
16523W        W84741  13.276  15.416   0.332
16524W        W84742  39.115   4.097   4.268
16525W        W84743  12.619   5.797  10.316
16526W        W84744  41.891  43.194   0.857
16527W        W84745  14.286  15.842   1.996
16528W        W84746  17.354  42.214  13.556
16529W        W84747  21.289  39.287   0.388
16530W        W84748  34.572  28.617   1.102
16531W        W84749  10.652  40.296  12.561
16532W        W84750   0.154  15.848  11.192
16533W        W84751   1.418  25.610  13.324
16534W        W84752  13.289  21.633   0.480
16535W        W84753   4.206  41.432  11.935
16536W        W84754  36.857  22.392  11.580
16537W        W84755   1.581  23.611   1.014
16538W        W84756   2.258   4.972  12.535
16539W        W84757  41.083  27.533  13.068
16540W        W84758  11.461  43.508  14.236
16541W        W84759  16.015  38.841   1.706
16542W        W84760  17.528  17.929   1.470
16543W        W84761  17.011  39.774   1.243
16544W        W84762   2.849  42.992  11.122
16545W        W84763  22.203   2.811  13.801
16546W        W84764  32.039  33.845  14.355
16547W        W84765   8.104  10.700   2.659
16548W        W84766  35.999   5.784  14.334
16549W        W84767   1.700  29.364  11.816
16550W        W84768  40.173  17.306  13.372
16551W        W84769  38.480   9.067  13.383
16552W        W84770  41.939   5.727  10.791
16553W        W84771   8.976  15.713  12.298
16554W        W84772  22.603  34.445  14.738
16555W        W84773  24.309  39.343  12.961
16556W        W84774  29.414  14.639  11.511
16557W        W84775   1.274   1.498  12.638
16558W        W84776   5.134  12.762  12.621
16559W        W84777  43.983  35.906   1.423
16560W        W84778  12.315  21.630  11.889
16561W        W84779  19.420  33.544   3.701
16562W        W84780  34.878  11.733  14.960
16563W        W84781  20.490  14.635  12.620
16564W        W84782  22.226  44.829  10.981
16565W        W84783  40.776  33.482   2.291
16566W        W84784   1.492  22.363   1.374
16567W        W84785   7.399  29.380  13.617
16568W        W84786  34.285   3.739   5.352
16569W        W84787   2.676   4.558   4.099
16570W        W84788  42.504  27.270   0.718
16571W        W84789   7.805  12.660  10.522
16572W        W84790  44.247  40.891  10.510
16573W        W84791   7.496   4.483   1.028
16574W        W84792  34.903  30.560   0.992
16575W        W84793  24.562   4.205  13.256
16576W        W84794  24.046  32.589   2.435
16577W        W84795  31.024  23.284   0.833
16578W        W84796  38.251   0.047  11.329
16579W        W84797   1.567   6.195  11.137
16580W        W84798   8.163  15.275  10.557
16581W        W84799  22.730  41.838  14.289
16582W        W84800   0.845  40.855   3.090
16583W        W84801   0.438  14.831   3.459
16584W        W84802  39.569  22.907   1.155
16585W        W84803  12.876  39.564  13.953
16586W        W84804   8.103  16.277   1.244
16587W        W84805  22.145  12.657  10.339
16588W        W84806   8.695   8.691  10.731
16589W        W84807  28.649   9.116  13.993
16590W        W84808  42.427  12.842   4.726
16591W        W84809  43.388  25.872  13.393
16592W        W84810  36.830   4.262   2.023
16593W        W84811  34.513   3.645  13.904
16594W        W84812  15.230   1.819   1.376
16595W        W84813  31.076  37.057   0.453
16596W        W84814  37.873  40.998  14.820
16597W        W84815  33.801  10.969  11.113
16598W        W84816  12.822  35.113  12.441
16599W        W84817   9.171  18.678  12.434
16600W        W84818   3.669  38.417   1.618
16601W        W84819  18.143   4.079   1.130
16602W        W84820  24.472   5.401  14.312
16603W        W84821  40.980  13.840   0.853
16604W        W84822  44.262  26.135  10.778
16605W        W84823  32.307  21.739  11.897
16606W        W84824   4.489  15.255  11.171
16607W        W84825  26.925  39.123   2.506
16608W        W84826  39.621  41.741   0.545
16609W        W84827   1.011   8.125   4.268
16610W        W84828  14.516  36.642  11.061
16611W        W84829  43.328  23.458  10.728
16612W        W84830  36.399  14.810  12.819
16613W        W84831   7.125  27.085  11.255
16614W        W84832  18.241  41.950   2.708
16615W        W84833  37.911  31.406   1.885
16616W        W84834   9.897  10.280  12.655
16617W        W84835  34.568   9.263  13.908
16618W        W84836  10.164   9.336   1.196
16619W        W84837  40.045  20.028  12.389
16620W        W84838  38.932   4.456   0.829
16621W        W84839  44.977  23.078   0.517
16622W        W84840  30.109  36.382  12.187
16623W        W84841  18.866   7.745  14.456
16624W        W84842  33.681  31.660  13.125
16625W        W84843  37.487  18.962   0.974
16626W        W84844  23.063   1.135  13.489
16627W        W84845  16.381  13.783   0.399
16628W        W84846  34.123  25.575   0.976
16629W        W84847  21.680   3.285   3.330
16630W        W84848  37.448  26.705   0.535
16631W        W84849   4.984  24.962   3.657
16632W        W84850  31.506  21.675   2.714
16633W        W84851  17.844  24.418  11.553
16634W        W84852  39.251   5.318  12.405
16635W        W84853  42.524  44.032   3.391
16636W        W84854  36.755   1.772   5.516
16637W        W84855   6.518  27.313  11.878
16638W        W84856  18.439   7.981  13.349
16639W        W84857  33.237   0.313   4.758
16640W        W84858  22.009   9.052  12.890
16641W        W84859  33.771   3.906   5.213
16642W        W84860   3.749  43.484   2.938
16643W        W84861   5.159  31.748   2.367
16644W        W84862  14.324   6.239  14.508
16645W        W84863  40.302  29.039  12.605
16646W        W84864  32.405  17.187  14.881
16647W        W84865  37.379   9.754   2.387
16648W        W84866  18.240  26.954   3.804
16649W        W84867  25.332  42.005  14.733
16650W        W84868  24.631  40.406  13.814
16651W        W84869  44.792  26.542   4.057
16652W        W84870  10.938  42.415  13.483
16653W        W84871  25.210   7.886   1.039
16654W        W84872  28.973  17.900  14.487
16655W        W84873  29.344  23.936  12.973
16656W        W84874  13.340  34.396  11.963
16657W        W84875   2.519  29.904   2.854
16658W        W84876  42.858  19.737   4.741
16659W        W84877  28.466  42.313   1.361
16660W        W84878   9.826  25.720   0.038
16661W        W84879  21.113  41.521   3.113
16662W        W84880   1.422  29.139   3.877
16663W        W84881  34.145  27.128  12.586
16664W        W84882  34.490  29.530  14.570
16665W        W84883  22.788  24.677   2.768
16666W        W84884  41.042  37.195  12.919
16667W        W84885  30.659  13.338  13.321
16668W        W84886   7.310   8.625  10.448
16669W        W84887  23.107  39.087  11.584
16670W        W84888   5.657   1.947  11.647
16671W        W84889  26.842  20.189   3.517
16672W        W84890  19.743  34.780  12.015
16673W        W84891  23.948   7.320   4.692
16674W        W84892  43.653   7.308  11.885
16675W        W84893   1.024  21.280   4.419
16676W        W84894  33.505  26.223   4.963
16677W        W84895  34.367  23.825  12.464
16678W        W84896  28.613  43.581   0.287
16679W        W84897   6.952  29.014  11.277
16680W        W84898  11.127  35.306   1.798
16681W        W84899  13.582  32.470   1.701
16682W        W84900  11.921  22.618  13.930
16683W        W84901  24.798  17.603   3.653
16684W        W84902   9.545  25.980  11.735
16685W        W84903  28.990  15.276  12.555
16686W        W84904   5.476  23.027  14.376
16687W        W84905  39.337  10.864  14.411
16688W        W84906  44.930   8.308   2.806
16689W        W84907  24.381  32.418   1.184
16690W        W84908  21.498   4.492  12.010
16691W        W84909  40.126  42.036  12.035
16692W        W84910   3.819   2.237  14.412
16693W        W84911  15.525  21.314   1.798
16694W        W84912  26.523  10.265  11.153
16695W        W84913  14.097  14.094   3.667
16696W        W84914  25.235  38.032  14.818
16697W        W84915  23.100  20.240   2.660
16698W        W84916   9.460  14.308   4.952
16699W        W84917  40.486   6.961  12.926
16700W        W84918  20.486  11.719   4.315
16701W        W84919   9.141  24.069  12.504
16702W        W84920  22.941   1.375  14.416
16703W        W84921  16.301   3.566  11.177
16704W        W84922  15.659  36.723   4.468
16705W        W84923  32.118   3.809   1.274
16706W        W84924  12.704   5.077  12.105
16707W        W84925   7.899  26.138   2.587
16708W        W84926  40.662   0.959   3.625
16709W        W84927   1.255  25.800   4.707
16710W        W84928  16.820  12.110  12.433
16711W        W84929  27.096  19.981   0.990
16712W        W84930  34.104   7.594  10.873
16713W        W84931   5.239   1.569  11.156
16714W        W84932  29.896  11.102   1.362
16715W        W84933  10.388  11.294   2.573
16716W        W84934  22.540  34.728   1.709
16717W        W84935  30.333  44.720  12.388
16718W        W84936  19.498  32.073   2.595
16719W        W84937  33.151  38.489   3.641
16720W        W84938  28.255  20.337  10.978
16721W        W84939  37.993  25.383   1.286
16722W        W84940  23.124  33.883   3.361
16723W        W84941  21.809  32.317   4.999
16724W        W84942  36.393   5.474   1.707
16725W        W84943  11.130  24.064   0.872
16726W        W84944  16.558  37.660   1.297
16727W        W84945  38.879  15.712  11.363
16728W        W84946  42.199   5.403   0.319
16729W        W84947  26.607  26.647   1.777
16730W        W84948  36.996  31.419   1.731
16731W        W84949  40.287  39.067  10.180
16732W        W84950  24.096   4.989  11.337
16733W        W84951   5.208  15.077  14.026
16734W        W84952  33.479  39.118  14.444
16735W        W84953  36.323  40.362  13.804
16736W        W84954  35.503  38.265   2.250
16737W        W84955  27.556  15.610   3.422
16738W        W84956  42.444  29.989  14.801
16739W        W84957  23.857  41.334   2.900
16740W        W84958  37.692   3.308   3.945
16741W        W84959  36.098   8.339  11.545
16742W        W84960  39.139  14.735   3.184
16743W        W84961  33.627  23.420   4.515
16744W        W84962  29.035  38.862  14.017
16745W        W84963  17.624  38.056  11.545
16746W        W84964  11.139  43.526   0.648
16747W        W84965  17.721   6.204  14.356
16748W        W84966   1.794  38.064   3.823
16749W        W84967  38.214  44.278   4.616
16750W        W84968   5.164  37.628  11.140
16751W        W84969  17.621  33.439   3.045
16752W        W84970  41.575   6.698   0.228
16753W        W84971  16.040  36.829   1.768
16754W        W84972  17.066   9.648  13.994
16755W        W84973  23.622  28.053  14.376
16756W        W84974  12.193  22.126  11.784
16757W        W84975  35.620   1.676  12.023
16758W        W84976  44.358  39.056  14.253
16759W        W84977  36.123  24.081   1.817
16760W        W84978  18.525  40.367  13.437
16761W        W84979  19.366  29.488  14.922
16762W        W84980  41.487  15.758  13.015
16763W        W84981   0.419  27.916  13.763
16764W        W84982  40.324  24.663  11.033
16765W        W84983  40.329  21.278   2.801
16766W        W84984  35.768  44.535  12.953
16767W        W84985  36.559   8.775   0.966
16768W        W84986  15.274   7.732  10.681
16769W        W84987   4.378  18.719  13.678
16770W        W84988   5.205   2.202   4.194
16771W        W84989  34.383  11.575   0.679
16772W        W84990  42.326  13.214  13.782
16773W        W84991   6.244  30.237  13.273
16774W        W84992  36.130  38.359   3.118
16775W        W84993  42.309  20.681   4.516
16776W        W84994  26.404  40.489   3.731
16777W        W84995  22.692  44.739   2.334
16778W        W84996  39.401   1.678   0.027
16779W        W84997  37.139  21.576  13.466
16780W        W84998   7.259  26.773   0.054
16781W        W84999  44.557  31.600  11.999
16782W        W85000  22.669  22.958   3.270
16783W        W85001  20.643  43.206  10.535
16784W        W85002  40.408  19.801   1.818
16785W        W85003  16.024  16.256  11.240
16786W        W85004  18.503   8.603   3.582
16787W        W85005  35.024   4.175   1.222
16788W        W85006  33.713   3.511   9.979
16789W        W85007  20.545   1.262  12.429
16790W        W85008   9.578  43.342  11.079
16791W        W85009  17.377  25.455   2.885
16792W        W85010  43.401  34.054  12.992
16793W        W85011   6.433  22.573   4.161
16794W        W85012  14.669  22.756   1.711
16795W        W85013  10.127  25.270   3.256
16796W        W85014   0.830  18.884  10.465
16797W        W85015   2.766  27.854  14.085
16798W        W85016  35.040   4.521  12.039
16799W        W85017   8.855  10.301   4.155
16800W        W85018   3.385  17.966  11.601
16801W        W85019  36.978  38.141  11.038
16802W        W85020  40.429   4.422  11.200
16803W        W85021   8.658   7.418  11.998
16804W        W85022   1.525  21.696  13.964
16805W        W85023  31.340  28.573   4.577
16806W        W85024   7.659  30.087   2.549
16807W        W85025   5.589   6.980   3.181
16808W        W85026  16.388  34.396  12.392
16809W        W85027  11.607  28.571  11.909
16810W        W85028   6.938  21.606   4.114
16811W        W85029   3.601  20.959  13.946
16812W        W85030   3.268  38.778  14.249
16813W        W85031  30.195  11.641   2.832
16814W        W85032  36.843  12.222  14.782
16815W        W85033  15.112  18.699  11.630
16816W        W85034  33.693  36.595  13.946
16817W        W85035   1.174  10.356   4.376
16818W        W85036  15.313  14.162   3.736
16819W        W85037   7.974  15.636  13.365
16820W        W85038  21.385   1.337  10.886
16821W        W85039  27.759  43.039   1.993
16822W        W85040  32.706   6.145   1.077
16823W        W85041  11.329   8.574   2.761
16824W        W85042  37.169  21.534   2.787
16825W        W85043   6.957   1.671  11.848
16826W        W85044  42.719  17.669  14.978
16827W        W85045  26.546  30.589  12.010
16828W        W85046  32.045  21.005  13.470
16829W        W85047   2.645   3.819   3.802
16830W        W85048   1.731  10.622  10.711
16831W        W85049  25.430  15.510  11.890
16832W        W85050  13.836  18.686   4.566
16833W        W85051  34.466  38.785  13.438
16834W        W85052   1.820  22.254  12.395
16835W        W85053  33.136   4.977   5.129
16836W        W85054  36.558  29.170   0.745
16837W        W85055  10.859  16.795   1.588
16838W        W85056  13.026   2.332   5.210
16839W        W85057  29.766  28.121   0.384
16840W        W85058   7.643   6.925  11.656
16841W        W85059   2.931   5.412  13.086
16842W        W85060   2.364  38.354   1.260
16843W        W85061  32.680  12.755  11.630
16844W        W85062  27.630  20.150  11.125
16845W        W85063  36.976   7.270  14.526
16846W        W85064  22.634  34.978   2.161
16847W        W85065  14.156   2.229  10.290
16848W        W85066  30.050   1.214   3.381
16849W        W85067  28.979  19.476   3.376
16850W        W85068  14.343  43.479   4.137
16851W        W85069  17.790  12.396   2.284
16852W        W85070   2.190  44.763  11.149
16853W        W85071  32.478  35.779   3.609
16854W        W85072   5.189  31.434  14.936
16855W        W85073   2.749  40.627   9.935
16856W        W85074   0.436  44.843   3.344
16857W        W85075   3.482  28.677   4.283
16858W        W85076  44.679  39.836  13.623
16859W        W85077  23.958  32.971   0.067
16860W        W85078  10.559  23.142   2.611
16861W        W85079  26.177  25.220   4.628
16862W        W85080  15.073  40.038   1.727
16863W        W85081  35.009  11.246  10.331
16864W        W85082  15.151  14.911   2.597
16865W        W85083  30.900  43.597   1.236
16866W        W85084  13.263  24.453  12.018
16867W        W85085  43.589  34.302  14.324
16868W        W85086   7.641  13.645  11.922
16869W        W85087   8.131  29.441   0.016
16870W        W85088  31.715  34.105  10.627
16871W        W85089   8.617   9.035  11.102
16872W        W85090  18.193  30.118  14.344
16873W        W85091   9.623   2.763  10.679
16874W        W85092  18.175  16.300   9.950
16875W        W85093  34.056  31.895  13.430
16876W        W85094  25.635  32.199  10.747
16877W        W85095  43.394  27.219  10.754
16878W        W85096  22.468  30.166   4.255
16879W        W85097  35.599  30.220  11.585
16880W        W85098  14.628  35.650   4.608
16881W        W85099  22.803  40.920  10.743
16882W        W85100  38.834   2.334   2.226
16883W        W85101   3.772   5.886   3.992
16884W        W85102  16.633  24.198  12.789
16885W        W85103  32.401   9.380  11.024
16886W        W85104  21.754  35.911   1.665
16887W        W85105   0.594   0.805  11.118
16888W        W85106  21.589  20.794  13.980
16889W        W85107  44.175  11.888   0.400
16890W        W85108  32.926   9.688   2.776
16891W        W85109  11.382   3.412   3.680
16892W        W85110  16.879  33.996  10.095
16893W        W85111  22.969   9.747  14.308
16894W        W85112  25.451  28.188  11.999
16895W        W85113  35.253  10.908  11.602
16896W        W85114  37.333   2.501  11.585
16897W        W85115  43.278  31.253  13.777
16898W        W85116  11.109  41.478  13.981
16899W        W85117   6.858  35.548  11.544
16900W        W85118   1.303  17.810   2.289
16901W        W85119  37.254   7.111  12.167
16902W        W85120  20.761   8.916  13.343
16903W        W85121  38.818   0.941   3.844
16904W        W85122  33.811   4.296  14.898
16905W        W85123  37.366  17.321   4.150
16906W        W85124  13.876  27.793  11.488
16907W        W85125  32.433  37.770   3.744
16908W        W85126  13.295  18.817   0.520
16909W        W85127  23.693  30.619   3.547
16910W        W85128   7.241   3.698  12.609
16911W        W85129   0.077  32.114   4.692
16912W        W85130  23.511  44.371   3.734
16913W        W85131  27.419  13.651   4.240
16914W        W85132  39.526   4.972   3.221
16915W        W85133  30.700  36.257  13.986
16916W        W85134  27.989  22.796   0.240
16917W        W85135  26.027  36.466   3.841
16918W        W85136  18.098  14.786  14.306
16919W        W85137  17.978  40.927  14.932
16920W        W85138  28.082  39.900  14.815
16921W        W85139  33.419  29.185   0.290
16922W        W85140   8.323  25.625   1.763
16923W        W85141  44.712  21.170   2.586
16924W        W85142  27.008  32.633   3.557
16925W        W85143  32.955  38.326  14.692
16926W        W85144  18.709  17.722   4.778
16927W        W85145  27.141  29.675  12.185
16928W        W85146  23.082  42.025   4.249
16929W        W85147  20.777  13.794  12.021
16930W        W85148  43.565  18.565  12.211
16931W        W85149   5.370  28.457  14.792
16932W        W85150  13.128  17.169  11.720
16933W        W85151  42.747   6.890  13.782
16934W        W85152  36.141   1.046   1.894
16935W        W85153  36.899  21.559   1.421
16936W        W85154   5.856   7.329   1.833
16937W        W85155  15.727   8.452  12.480
16938W        W85156  37.755   5.387   2.698
16939W        W85157  16.188  37.472   0.741
16940W        W85158  11.573  17.208  13.373
16941W        W85159  15.809   6.348   2.715
16942W        W85160   6.754  25.924  10.813
16943W        W85161   0.262  15.089   4.311
16944W        W85162  15.128  16.284   2.993
16945W        W85163  10.770  14.530   0.087
16946W        W85164  13.876  11.938   1.961
16947W        W85165  41.804   7.117  11.557
16948W        W85166   3.510  26.475  11.636
16949W        W85167  16.215  44.059   2.812
16950W        W85168  26.074  44.423   3.792
16951W        W85169  44.166  16.099  12.892
16952W        W85170  38.567  31.963  10.613
16953W        W85171  20.640  32.344  14.454
16954W        W85172  10.530  42.353  14.827
16955W        W85173  31.975   0.009  13.386
16956W        W85174  25.439  35.522  12.131
16957W        W85175   9.146  38.371   1.355
16958W        W85176  41.132  29.282  14.513
16959W        W85177  29.179  12.791  10.432
16960W        W85178  31.233  43.008  11.784
16961W        W85179   5.447   1.518   0.131
16962W        W85180  30.906  40.072   1.861
16963W        W85181  27.582  35.571   0.450
16964W        W85182  28.262  29.912  14.400
16965W        W85183  22.504  24.235   2.689
16966W        W85184  10.302   7.670  11.633
16967W        W85185  38.027  14.434  14.813
16968W        W85186  30.897   1.616  11.880
16969W        W85187  19.990  43.361  10.723
16970W        W85188  10.944  12.616  11.090
16971W        W85189  17.470  28.092  10.857
16972W        W85190   4.655  21.190  10.730
16973W        W85191  20.993  38.954  10.367
16974W        W85192  32.387  13.217   1.885
16975W        W85193   3.175  17.201  13.097
16976W        W85194  41.513  29.681   3.832
16977W        W85195  11.221  11.573  12.889
16978W        W85196  11.294  28.627   3.187
16979W        W85197  11.279   4.861  11.951
16980W        W85198  11.301   3.243   4.628
16981W        W85199   4.239   5.146   1.204
16982W        W85200  44.561  15.329  14.855
16983W        W85201  20.966  13.850   0.516
16984W        W85202   4.728  43.089  11.576
16985W        W85203   7.502  23.481   3.818
16986W        W85204  13.280  31.706  12.633
16987W        W85205   5.918   9.782   0.389
16988W        W85206   2.226  24.963  13.464
16989W        W85207  17.114  33.324   0.906
16990W        W85208   2.865  14.642  10.838
16991W        W85209  13.601   5.653   1.352
16992W        W85210  16.833  20.540  14.779
16993W        W85211  11.684  15.707  14.465
16994W        W85212   5.941  37.799   4.459
16995W        W85213  18.736  36.432  11.550
16996W        W85214  29.000  10.309  11.657
16997W        W85215   3.323  40.057   0.945
16998W        W85216  30.899   6.967   3.636
16999W        W85217  23.221   7.797   3.176
17000W        W85218  30.971  38.874  11.697
17001W        W85219  22.201   1.412   3.710
17002W        W85220  29.143  35.010  10.720
17003W        W85221  28.184  11.988   3.595
17004W        W85222   1.447  44.643  11.864
17005W        W85223  43.102  42.321  12.510
17006W        W85224   6.646   1.792  12.241
17007W        W85225  14.297  13.137  13.352
17008W        W85226  14.258   3.335  12.559
17009W        W85227  13.078  31.599   4.043
17010W        W85228  40.444  31.103  12.806
17011W        W85229  25.124  22.838  13.845
17012W        W85230  13.579  14.187  11.576
17013W        W85231  10.189   7.214   4.003
17014W        W85232  44.327  41.830  10.733
17015W        W85233  37.855  17.713  13.385
17016W        W85234  10.227  23.540  11.584
17017W        W85235  44.662  38.987   1.644
17018W        W85236  31.514  14.567   3.004
17019W        W85237   6.130  10.937   1.227
17020W        W85238  17.784   8.295  11.179
17021W        W85239  30.206   8.478  12.463
17022W        W85240  34.348   5.296  10.996
17023W        W85241   0.421   9.287  12.500
17024W        W85242   1.493  21.416  10.646
17025W        W85243  24.977  33.402  10.708
17026W        W85244  39.612  29.484  10.758
17027W        W85245  32.603  32.463  12.889
17028W        W85246   5.737  14.287   2.854
17029W        W85247   6.284  43.091   9.663
17030W        W85248  28.590  15.499  13.548
17031W        W85249   8.342  21.133   3.734
17032W        W85250  37.454   3.649   0.853
17033W        W85251  35.867  25.059  14.381
17034W        W85252  38.963  24.132  11.988
17035W        W85253  27.153   9.882  12.785
17036W        W85254  36.928  43.868   4.232
17037W        W85255  43.600   4.792  12.069
17038W        W85256  18.296  18.768   4.876
17039W        W85257  41.804  28.229  14.269
17040W        W85258  11.759   8.749   2.445
17041W        W85259  26.331  16.187  10.340
17042W        W85260  16.223  36.013  10.411
17043W        W85261   3.460  12.806   0.482
17044W        W85262  43.386  27.612   2.217
17045W        W85263  44.382  44.249   3.701
17046W        W85264   4.479  33.790   4.257
17047W        W85265   4.676  11.304   1.909
17048W        W85266  34.909   0.967  10.976
17049W        W85267  34.580  22.433   1.159
17050W        W85268  23.076  42.509  13.456
17051W        W85269  12.869  34.956   1.479
17052W        W85270   6.309   0.191   1.742
17053W        W85271  20.988  24.971   4.304
17054W        W85272  33.746  37.798  14.502
17055W        W85273  18.109  44.389   0.004
17056W        W85274  30.945  18.677  10.593
17057W        W85275  42.236   9.556   2.652
17058W        W85276   1.334  29.680  12.389
17059W        W85277  41.385  10.085   2.779
17060W        W85278  32.103  28.823   9.771
17061W        W85279  34.566  43.327   1.832
17062W        W85280  40.402  37.153  12.097
17063W        W85281  35.105  29.576   0.389
17064W        W85282  39.065   9.140  12.254
17065W        W85283  33.978  37.958  14.942
17066W        W85284  14.701  13.250  12.017
17067W        W85285   7.617   7.082  13.541
17068W        W85286  15.957  40.249   1.851
17069W        W85287  26.812  24.766   5.314
17070W        W85288   1.481  23.505   3.396
17071W        W85289  43.597  12.043  13.026
17072W        W85290   7.697  17.117   0.308
17073W        W85291  40.320   4.806   3.851
17074W        W85292  16.671  14.234   2.814
17075W        W85293  41.776  39.952  11.268
17076W        W85294   2.258  34.374  11.588
17077W        W85295   9.933  10.269   1.188
17078W        W85296  42.498  17.295   4.855
17079W        W85297  28.055   3.999   4.104
17080W        W85298  15.520  16.090   9.745
17081W        W85299  12.186  40.885  12.765
17082W        W85300  30.638  29.977  10.796
17083W        W85301  21.164  31.575  13.602
17084W        W85302  16.742  17.060  12.504
17085W        W85303  22.315  11.602   1.670
17086W        W85304  11.697  25.935   3.808
17087W        W85305  23.266  30.869  12.222
17088W        W85306  29.845   0.922   4.973
17089W        W85307  33.061  44.483   2.690
17090W        W85308   5.676  30.054  13.082
17091W        W85309  27.175  16.655   0.774
17092W        W85310  37.249  25.888   2.677
17093W        W85311  40.068   2.272  14.378
17094W        W85312  38.969  27.274   0.735
17095W        W85313  43.465  17.673   2.165
17096W        W85314   4.904  16.569  11.489
17097W        W85315  37.111  30.933  13.785
17098W        W85316  32.457  12.607   1.005
17099W        W85317  44.017  43.703  14.423
17100W        W85318  42.818  41.684   2.303
17101W        W85319  22.778   2.212   0.370
17102W        W85320  42.808   2.064  11.981
17103W        W85321  12.263  29.924   4.283
17104W        W85322  14.346  34.713   3.063
17105W        W85323  35.015   6.789  10.780
17106W        W85324  36.339  35.356   1.844
17107W        W85325  23.256  21.352   4.002
17108W        W85326  43.478   9.018  10.637
17109W        W85327  26.561  25.048   3.104
17110W        W85328   2.423  11.782  11.128
17111W        W85329  14.944  30.303  10.157
17112W        W85330  44.213  33.488  14.454
17113W        W85331  44.290  29.439  12.996
17114W        W85332  16.238  21.060   3.548
17115W        W85333  43.730   4.920   4.106
17116W        W85334  29.168  24.181   1.453
17117W        W85335  41.570  28.045   4.079
17118W        W85336  29.205   2.479   2.320
17119W        W85337  12.661  38.158   4.789
17120W        W85338  32.686   2.413  11.946
17121W        W85339  24.648  39.451  11.599
17122W        W85340  39.999   9.807  14.660
17123W        W85341  41.929  41.925  14.967
17124W        W85342   1.867   1.227   3.427
17125W        W85343  16.746  32.952   3.691
17126W        W85344  12.073  34.620   0.915
17127W        W85345  42.818   8.284  13.554
17128W        W85346  35.701  22.085  14.969
17129W        W85347  34.093   0.451   1.652
17130W        W85348  44.612  14.401   0.448
17131W        W85349  40.320  34.275   0.149
17132W        W85350  21.869  37.363   2.847
17133W        W85351   3.967  22.207  12.511
17134W        W85352   2.013   2.398   3.450
17135W        W85353  10.135  21.433  12.980
17136W        W85354   9.836  44.965   0.486
17137W        W85355  11.670   4.408   1.737
17138W        W85356   0.290  15.868  14.913
17139W        W85357  12.129   8.134   0.434
17140W        W85358   6.682  34.965  13.942
17141W        W85359   7.693   9.227  12.408
17142W        W85360  29.029  21.935  14.857
17143W        W85361  24.440  27.507  13.502
17144W        W85362  35.750  25.312  14.939
17145W        W85363  14.755  23.643   4.443
17146W        W85364   5.623  44.979  11.725
17147W        W85365   8.820  11.156  10.765
17148W        W85366  35.404   0.423  11.128
17149W        W85367  21.738  39.218   2.389
17150W        W85368  19.679  10.452  13.217
17151W        W85369  36.450  32.023  14.448
17152W        W85370  19.229  15.146  11.995
17153W        W85371  14.108  31.866  12.045
17154W        W85372  44.648  30.504   0.951
17155W        W85373   7.108  23.780  10.578
17156W        W85374   0.167   8.890  11.722
17157W        W85375  17.500  17.734  14.743
17158W        W85376  36.087  39.444  12.388
17159W        W85377   9.258  21.586  11.535
17160W        W85378  20.225  20.783  12.142
17161W        W85379  11.354  38.898  12.589
17162W        W85380  29.071  15.768  12.398
17163W        W85381  14.089  27.922  12.045
17164W        W85382  26.467  40.421   2.662
17165W        W85383  28.910  34.519   4.567
17166W        W85384  16.276   6.154   0.847
17167W        W85385  18.370  15.408   5.053
17168W        W85386   2.852   6.783   4.082
17169W        W85387  38.368   4.192   5.422
17170W        W85388  34.548  20.574   3.192
17171W        W85389  30.933  28.614  12.964
17172W        W85390  35.973   4.461   0.059
17173W        W85391  27.147  43.578   2.628
17174W        W85392  25.674  25.595  13.866
17175W        W85393  24.283  33.501  13.334
17176W        W85394  30.217  11.042   3.706
17177W        W85395  20.194  21.005   2.772
17178W        W85396  14.193  33.743   3.343
17179W        W85397  21.928  20.135   3.678
17180W        W85398   4.557   2.849  14.027
17181W        W85399  35.121  29.214   0.803
17182W        W85400  17.793  21.760  13.357
17183W        W85401  33.114  36.504   3.368
17184W        W85402   6.045   9.896   2.593
17185W        W85403  19.983   7.401   5.026
17186W        W85404  11.787  26.732  14.817
17187W        W85405  28.033  23.094   1.368
17188W        W85406   5.862  35.308  13.623
17189W        W85407  34.068  33.548   2.815
17190W        W85408  31.347  20.837   4.653
17191W        W85409  43.264  12.866  12.421
17192W        W85410   0.301  36.422  10.693
17193W        W85411  39.979  38.705  13.438
17194W        W85412   7.255  24.896  12.957
17195W        W85413  30.569  16.619   5.013
17196W        W85414  11.332  28.006  14.797
17197W        W85415  27.963  44.325   1.781
17198W        W85416  28.807  40.839  13.400
17199W        W85417  14.100  17.295  11.770
17200W        W85418  17.910  14.848  10.997
17201W        W85419  43.396  25.192   1.216
17202W        W85420   5.404   6.150  14.851
17203W        W85421  38.306  28.942  14.835
17204W        W85422  31.413  23.703   0.020
17205W        W85423   0.955  38.452  11.126
17206W        W85424  22.039  37.844  10.268
17207W        W85425  32.524  25.172  12.390
17208W        W85426  34.635  37.085  11.412
17209W        W85427  27.676   1.479  10.435
17210W        W85428  44.095  43.108   4.771
17211W        W85429  44.260  10.945   0.557
17212W        W85430   4.246  13.611   3.750
17213W        W85431  16.824  22.259  14.356
17214W        W85432  34.654  14.616   2.348
17215W        W85433   7.778  35.463  12.928
17216W        W85434  43.324  19.569  13.015
17217W        W85435  13.711   4.935   3.542
17218W        W85436   0.585  37.479   3.339
17219W        W85437  43.811  12.206   1.269
17220W        W85438  34.961  37.239  13.029
17221W        W85439  15.184  19.304   1.887
17222W        W85440  29.379   5.018  14.972
17223W        W85441  18.125  42.599  10.592
17224W        W85442  42.221  13.552   0.072
17225W        W85443   5.886  39.503   3.502
17226W        W85444  43.540  14.494  11.610
17227W        W85445  29.134  42.877   1.762
17228W        W85446  42.752   4.280   4.805
17229W        W85447  32.471  42.262   4.272
17230W        W85448  23.617  40.570  12.962
17231W        W85449  29.081   9.831   1.794
17232W        W85450  22.582  40.258   1.276
17233W        W85451   6.178  37.491   1.834
17234W        W85452  12.097  44.813   2.229
17235W        W85453   4.096  18.481  12.962
17236W        W85454  39.310   2.062   2.295
17237W        W85455  36.743   7.996  14.961
17238W        W85456  43.294   2.613   4.181
17239W        W85457   7.692  21.772   3.351
17240W        W85458  12.207  20.799   3.681
17241W        W85459  13.610  35.550  14.301
17242W        W85460  32.367  14.203  11.043
17243W        W85461   7.289  27.790   0.878
17244W        W85462  43.253  18.791   4.558
17245W        W85463  31.718   3.412   3.852
17246W        W85464  37.573  21.246   2.647
17247W        W85465  21.689  14.908  14.304
17248W        W85466  16.621  26.652   0.013
17249W        W85467   3.161   1.542  12.020
17250W        W85468  14.730  38.583   0.134
17251W        W85469  43.507   7.912  11.472
17252W        W85470  26.910  34.061   3.394
17253W        W85471  20.270   0.465  12.030
17254W        W85472  12.667  30.519  12.547
17255W        W85473  42.767   2.504   0.971
17256W        W85474  28.234  11.871   2.715
17257W        W85475  13.241   2.544  10.629
17258W        W85476  13.737  16.262   3.148
17259W        W85477   3.910  18.134  10.688
17260W        W85478  16.504  17.339  10.966
17261W        W85479  26.089  30.161   4.289
17262W        W85480  22.571  18.030  14.270
17263W        W85481  26.540   8.300  13.515
17264W        W85482  27.225  43.240   4.052
17265W        W85483  41.274  10.530  12.997
17266W        W85484  18.733   1.796   9.941
17267W        W85485  27.597  12.748   4.561
17268W        W85486   1.553  25.738  14.997
17269W        W85487   9.720  32.907  13.306
17270W        W85488  23.440  44.678   3.269
17271W        W85489  25.209   1.895  14.414
17272W        W85490  39.498  27.583   0.352
17273W        W85491   9.662   4.732  11.166
17274W        W85492   7.562  16.119   1.113
17275W        W85493  14.254  22.396   4.128
17276W        W85494  42.822  33.753  14.392
17277W        W85495  18.220   6.333  14.480
17278W        W85496   2.813  19.528  12.094
17279W        W85497   1.680  33.015   3.618
17280W        W85498  40.322   3.454   2.702
17281W        W85499  24.244   5.970  13.494
17282W        W85500  25.246   7.814   2.927
17283W        W85501  38.914  33.646  14.986
17284W        W85502   2.470  12.581  11.082
17285W        W85503  31.142  30.142   3.691
17286W        W85504  31.513   7.232  10.687
17287W        W85505   6.295  40.581   2.604
17288W        W85506  22.620   0.972  11.562
17289W        W85507  33.563   2.944  11.953
17290W        W85508  27.341   5.256   0.820
17291W        W85509  26.024  39.026  13.270
17292W        W85510  16.868  38.484   0.845
17293W        W85511  14.813  27.551   3.195
17294W        W85512   1.615  21.164   3.733
17295W        W85513  15.935  10.331  10.553
17296W        W85514  35.696  10.385   2.255
17297W        W85515   4.530   5.808  10.612
17298W        W85516  37.366  14.930   2.115
17299W        W85517   9.200  23.825  14.806
17300W        W85518   9.137  29.009  13.869
17301W        W85519  32.447  21.163   0.360
17302W        W85520  14.902  43.448   1.767
17303W        W85521   2.931  25.954   4.191
17304W        W85522   7.925  16.619   1.817
17305W        W85523  13.089  41.125  13.413
17306W        W85524  18.552  34.926  12.600
17307W        W85525  43.304  23.943   0.341
17308W        W85526  15.189   8.317   3.172
17309W        W85527  28.621   2.625  10.126
17310W        W85528  15.562  20.979  14.340
17311W        W85529  24.141  30.262   0.582
17312W        W85530  15.530  36.447  11.925
17313W        W85531  40.547  20.676   1.889
17314W        W85532  43.917  16.843  10.676
17315W        W85533  40.297  28.637   2.862
17316W        W85534   7.867   1.353  11.878
17317W        W85535  41.455  16.146  10.859
17318W        W85536  30.170  19.809   2.739
17319W        W85537  25.165  11.913   0.485
17320W        W85538   9.989  17.492   2.227
17321W        W85539   1.665  41.871  11.611
17322W        W85540   6.862   7.424  12.028
17323W        W85541  32.513  40.809  13.895
17324W        W85542  20.710  29.409  11.968
17325W        W85543  30.541  44.053  13.445
17326W        W85544  37.009   0.357   0.231
17327W        W85545   5.365  11.860   4.087
17328W        W85546  17.028  17.191  10.092
17329W        W85547  32.121  30.621   2.876
17330W        W85548  14.424  26.420   1.385
17331W        W85549  43.697  15.217  12.633
17332W        W85550  16.786   1.430   0.441
17333W        W85551  35.140  19.848  14.764
17334W        W85552   0.272  43.920  12.665
17335W        W85553  18.681   5.293  11.971
17336W        W85554  41.460  34.187  11.452
17337W        W85555  39.225  24.237  13.027
17338W        W85556  21.594  43.746   4.595
17339W        W85557  19.552  42.904  13.956
17340W        W85558   9.184  21.589  13.884
17341W        W85559  44.797  35.819  14.551
17342W        W85560  17.601  40.556  13.070
17343W        W85561  12.823   4.316  14.003
17344W        W85562  28.145  32.438   4.395
17345W        W85563  36.866  29.010   2.219
17346W        W85564  42.054  13.703   2.682
17347W        W85565   8.737  34.327   1.285
17348W        W85566  30.634   2.217   1.806
17349W        W85567   2.839  17.526  14.763
17350W        W85568   6.824  30.604   3.279
17351W        W85569  26.263  32.828   1.683
17352W        W85570  31.930  24.229   4.465
17353W        W85571   1.385  23.973  11.944
17354W        W85572  12.541   0.335   2.972
17355W        W85573  13.568   6.828   1.984
17356W        W85574  13.894   4.321   1.264
17357W        W85575  44.470   7.466   4.549
17358W        W85576   6.148  17.300  12.406
17359W        W85577  23.983  35.625   0.297
17360W        W85578  42.984  22.239   3.629
17361W        W85579  14.323  12.242  13.325
17362W        W85580  28.908  40.983   4.380
17363W        W85581  43.990   0.325  13.916
17364W        W85582  18.803  38.355   0.767
17365W        W85583  38.334  42.743   4.245
17366W        W85584   5.718  23.970   4.192
17367W        W85585  29.314  41.729  10.443
17368W        W85586  35.870  41.964  12.821
17369W        W85587  28.248   9.255   0.873
17370W        W85588  19.088  16.326   0.398
17371W        W85589  38.804   8.835  13.993
17372W        W85590  37.030  16.907  12.002
17373W        W85591  30.105  26.878   2.945
17374W        W85592  39.787   1.737   9.891
17375W        W85593  36.128  24.890  11.099
17376W        W85594  11.709  13.149   4.946
17377W        W85595  32.352  43.315   4.153
17378W        W85596  19.852  40.332  14.329
17379W        W85597  10.821   4.309   2.419
17380W        W85598   8.245  28.229   2.038
17381W        W85599  19.942  13.088   4.296
17382W        W85600  39.465  21.959   0.410
17383W        W85601   6.053  40.273  12.711
17384W        W85602   2.626  31.970   0.708
17385W        W85603  37.957  20.211   4.761
17386W        W85604  29.255  22.263  13.105
17387W        W85605  11.847  36.565   1.358
17388W        W85606  11.910  36.296   0.455
17389W        W85607  18.743   0.892  12.566
17390W        W85608  18.605  42.268   1.405
17391W        W85609  35.406  29.037  12.889
17392W        W85610  13.872  29.942  11.258
17393W        W85611  14.781  14.604  13.601
17394W        W85612  37.900  23.280  10.620
17395W        W85613  40.753  33.618  14.465
17396W        W85614  26.921  15.540  12.932
17397W        W85615  11.171  34.167  11.647
17398W        W85616  20.649  15.555   0.902
17399W        W85617   1.311   0.535   4.663
17400W        W85618  39.087  36.656   2.342
17401W        W85619  44.340  19.124   1.983
17402W        W85620  34.358  12.349   1.819
17403W        W85621  25.208   3.107   0.002
17404W        W85622   3.185  41.955   1.038
17405W        W85623  10.378  30.695   0.226
17406W        W85624  20.269   6.486  14.451
17407W        W85625  37.112  28.670  12.440
17408W        W85626  38.922  37.634  12.109
17409W        W85627   7.170  15.217   0.932
17410W        W85628   9.385  30.678   1.173
17411W        W85629  27.759   3.265  11.461
17412W        W85630  24.754   7.429   4.190
17413W        W85631  39.105  37.503  12.567
17414W        W85632  10.412  44.262   0.330
17415W        W85633  24.728  38.617   3.225
17416W        W85634  33.798  14.076   3.074
17417W        W85635  33.037  22.762  11.940
17418W        W85636  33.614  36.475  14.899
17419W        W85637  31.449  27.470   2.890
17420W        W85638   2.007  32.081   4.574
17421W        W85639  10.175  16.093   9.841
17422W        W85640  19.656  30.556   3.137
17423W        W85641  43.597  25.413  13.466
17424W        W85642   9.964  32.414  11.554
17425W        W85643  35.989  34.479  12.564
17426W        W85644   7.783  35.464   3.773
17427W        W85645   9.807  15.214   2.248
17428W        W85646  15.268   7.233  11.597
17429W        W85647  41.040  38.329   3.289
17430W        W85648  33.643  21.959   1.810
17431W        W85649  28.966  33.595   2.414
17432W        W85650  29.505  17.151   4.329
17433W        W85651  31.641  33.646   0.932
17434W        W85652  24.794  35.795  11.376
17435W        W85653  42.450   9.663  12.052
17436W        W85654  17.373   5.905   1.917
17437W        W85655   7.437  11.141  14.997
17438W        W85656   9.323   7.289  10.436
17439W        W85657   7.846   0.970  14.871
17440W        W85658  16.720  34.334  10.979
17441W        W85659  32.350  32.039   5.122
17442W        W85660  39.990  30.392   2.866
17443W        W85661   3.704  30.667  11.005
17444W        W85662  27.093  37.684  11.461
17445W        W85663  32.098   9.243   1.746
17446W        W85664  14.701  29.055   0.522
17447W        W85665  13.652  32.041   4.609
17448W        W85666   3.948  29.742  11.844
17449W        W85667  20.242  40.543   0.055
17450W        W85668  38.103  38.938   1.734
17451W        W85669  34.332  35.752  11.546
17452W        W85670  44.772   3.690  12.503
17453W        W85671  39.544  26.120   1.237
17454W        W85672  37.179  20.700  12.048
17455W        W85673   7.163   4.699  10.922
17456W        W85674  36.420  31.372   0.277
17457W        W85675  11.554  35.387   3.276
17458W        W85676  12.393   5.666  13.718
17459W        W85677   6.832  35.410  10.701
17460W        W85678   1.324  33.969   1.236
17461W        W85679  23.699  12.699  13.437
17462W        W85680   6.822   6.181  11.611
17463W        W85681  10.224  13.052  10.691
17464W        W85682  27.609  29.438   2.671
17465W        W85683  12.238  36.869  13.321
17466W        W85684  31.557  17.339   0.389
17467W        W85685  42.043  24.763   1.879
17468W        W85686  17.991  43.757   5.604
17469W        W85687   6.730   4.704   5.025
17470W        W85688   2.392  10.687  14.200
17471W        W85689   3.953  32.460   0.007
17472W        W85690  29.069  36.015  10.726
17473W        W85691   9.246  21.564   4.793
17474W        W85692  35.617  21.496   0.404
17475W        W85693  30.407   4.935   2.606
17476W        W85694  39.123  14.024   0.031
17477W        W85695  18.505   4.951  14.951
17478W        W85696  12.507  44.019  10.357
17479W        W85697  27.877  29.076  10.929
17480W        W85698  15.054   7.691  12.917
17481W        W85699   5.905  32.307  14.298
17482W        W85700   4.976   2.446  12.959
17483W        W85701  22.679  15.138   1.549
17484W        W85702  40.557  33.969  10.396
17485W        W85703  18.049  23.571  13.088
17486W        W85704  12.221   4.698   0.070
17487W        W85705  32.584  12.138   2.799
17488W        W85706  21.781  12.629   0.920
17489W        W85707  18.852  19.830  14.915
17490W        W85708   3.508  42.558   3.871
17491W        W85709  36.367  33.195   5.218
17492W        W85710   0.227  24.204   2.723
17493W        W85711  26.264  40.391  11.468
17494W        W85712  27.715   6.628   3.655
17495W        W85713  37.640   5.830  13.037
17496W        W85714  10.640  32.023   2.779
17497W        W85715  23.907  29.699  12.520
17498W        W85716  35.122  44.765   1.765
17499W        W85717  32.037   9.343  13.790
17500W        W85718   1.011  16.191  13.005
17501W        W85719  24.522  21.181   3.572
17502W        W85720  35.833  18.164  13.818
17503W        W85721   7.923  37.089   0.024
17504W        W85722   8.084   6.796   0.103
17505W        W85723  10.931  14.926   1.787
17506W        W85724  12.040  43.953   0.839
17507W        W85725  13.356  13.938  11.170
17508W        W85726  31.649  17.263  12.481
17509W        W85727  40.780  30.613  13.654
17510W        W85728  24.169  24.411   4.576
17511W        W85729  13.326  17.831   1.413
17512W        W85730  26.657  20.783   0.486
17513W        W85731  15.040   5.491  10.856
17514W        W85732   1.342   8.051   0.702
17515W        W85733  34.914  31.993   0.721
17516W        W85734  19.343  12.282  10.872
17517W        W85735  33.249  10.176  11.018
17518W        W85736  31.151  13.301   3.935
17519W        W85737  15.561  16.287   1.690
17520W        W85738  23.505   7.444   3.826
17521W        W85739  25.143  32.497   3.913
17522W        W85740  13.852   9.531   3.813
17523W        W85741  31.085   4.937   0.834
17524W        W85742  25.763  30.462  12.379
17525W        W85743  36.812  34.516   2.226
17526W        W85744   1.808  34.351   3.591
17527W        W85745  35.131  40.863  13.870
17528W        W85746  29.974   8.926  12.114
17529W        W85747  19.318  14.799   1.403
17530W        W85748  30.952  38.624   4.513
17531W        W85749  42.733  17.210   1.319
17532W        W85750  20.293   8.746   9.929
17533W        W85751  13.228   2.581  10.085
17534W        W85752  41.372   9.806  12.487
17535W        W85753  27.042  17.087  11.583
17536W        W85754   5.146  40.561  13.960
17537W        W85755   7.638  28.017  12.742
17538W        W85756  14.190  33.038   4.224
17539W        W85757  44.584   4.953   2.164
17540W        W85758   6.909   4.762   4.534
17541W        W85759  23.791  11.671  11.497
17542W        W85760  26.262  17.030   4.831
17543W        W85761  22.542  36.491  12.183
17544W        W85762  27.708  10.960  12.019
17545W        W85763  27.230   0.299   3.720
17546W        W85764  34.361  33.986  12.138
17547W        W85765  15.771  25.239   9.788
17548W        W85766   3.743   3.460  10.180
17549W        W85767  10.307  25.707  13.804
17550W        W85768  15.698   7.738   3.787
17551W        W85769  44.643  21.238   5.008
17552W        W85770  26.532  44.785  12.000
17553W        W85771   8.707  44.011   3.350
17554W        W85772   5.134   4.993  12.075
17555W        W85773  31.260  29.646  10.267
17556W        W85774  21.683  17.468   2.366
17557W        W85775  24.257  15.204  13.136
17558W        W85776  18.280  16.308  11.398
17559W        W85777  28.667   4.326   1.944
17560W        W85778  25.222  40.872  13.381
17561W        W85779  28.225  13.285   2.962
17562W        W85780  22.230   2.561   3.071
17563W        W85781  23.675  14.577  10.943
17564W        W85782  20.179  30.068  11.883
17565W        W85783   8.715   3.555  13.866
17566W        W85784  34.110  29.556   4.568
17567W        W85785  24.093  28.895  11.146
17568W        W85786  17.653  16.691  11.513
17569W        W85787  15.733  26.631  14.008
17570W        W85788  38.541   7.891  10.721
17571W        W85789  33.006   6.790  11.112
17572W        W85790  33.528  25.013   4.581
17573W        W85791  10.167  35.333   0.379
17574W        W85792  11.165  10.267   3.569
17575W        W85793  24.743   1.228   1.379
17576W        W85794  27.255  22.251  10.532
17577W        W85795  15.761   7.158   4.612
17578W        W85796  25.608  17.264   1.273
17579W        W85797  44.022  30.605  14.472
17580W        W85798  12.092   9.108  13.621
17581W        W85799  32.680  32.879  13.308
17582W        W85800  23.588  33.682  12.465
17583W        W85801  17.573  15.240   4.590
17584W        W85802  12.189  20.258  11.153
17585W        W85803  18.234  43.201  12.350
17586W        W85804  36.448  31.439   2.295
17587W        W85805   7.181  20.517   0.428
17588W        W85806  26.421  19.719   1.463
17589W        W85807  16.308   2.997  11.890
17590W        W85808  19.224  18.485   4.465
17591W        W85809   7.001   1.237  10.851
17592W        W85810   2.373  23.186  12.102
17593W        W85811   4.390  12.763  13.457
17594W        W85812  10.295  19.325   1.624
17595W        W85813   7.873  32.314   2.767
17596W        W85814  14.940  31.944   2.311
17597W        W85815  23.752  34.346   2.125
17598W        W85816  32.515  26.673  11.181
17599W        W85817   7.022  41.320   2.746
17600W        W85818  14.514  25.175  13.656
17601W        W85819   6.284  23.738  10.907
17602W        W85820  24.535   6.343   0.833
17603W        W85821   6.964  20.095   1.043
17604W        W85822   2.888   3.537  13.120
17605W        W85823   0.534  31.325   0.727
17606W        W85824   7.259  20.456   1.446
17607W        W85825  31.778  11.633   0.014
17608W        W85826  24.626   6.873  12.616
17609W        W85827  40.435   8.095  13.497
17610W        W85828   2.268   0.684   3.271
17611W        W85829  19.944  26.522   0.466
17612W        W85830  41.069  11.583   1.580
17613W        W85831  22.214  14.560  14.442
17614W        W85832  34.574   0.764  12.121
17615W        W85833  24.004  13.281  13.903
17616W        W85834  42.453  12.236   0.431
17617W        W85835  28.070  14.588   0.791
17618W        W85836   7.751  13.769   3.161
17619W        W85837  39.862  16.249  11.221
17620W        W85838  41.495  44.822  10.783
17621W        W85839  37.068  21.847  14.390
17622W        W85840   6.822  12.146  13.560
17623W        W85841  35.478   8.745   1.873
17624W        W85842  42.330  28.594  12.184
17625W        W85843  33.983  28.082  10.251
17626W        W85844  34.287  15.312  14.531
17627W        W85845  12.238  18.674   4.066
17628W        W85846  44.863  24.043  13.780
17629W        W85847  18.289  26.874  14.715
17630W        W85848   4.327  29.521   4.327
17631W        W85849  12.163  25.940   0.430
17632W        W85850  12.277  44.321  12.903
17633W        W85851  22.685  36.660  10.851
17634W        W85852   7.805  32.213   5.083
17635W        W85853  26.029   4.419  11.118
17636W        W85854  25.968   5.892  12.935
17637W        W85855  38.548   8.229   1.148
17638W        W85856  21.797  26.392  14.872
17639W        W85857  19.596  20.805   1.264
17640W        W85858  32.912  41.267  14.257
17641W        W85859  34.142  40.072   0.299
17642W        W85860  15.629  27.965   0.361
17643W        W85861  10.191   3.538   3.126
17644W        W85862   3.299  10.412   3.683
17645W        W85863  12.858  43.697   4.086
17646W        W85864  14.110  16.700   1.787
17647W        W85865  43.984  13.867  13.249
17648W        W85866  16.575  30.353  10.699
17649W        W85867  14.709  35.407  14.340
17650W        W85868   1.509  23.228  13.978
17651W        W85869  22.714   3.815  13.533
17652W        W85870  32.560  37.421  11.615
17653W        W85871  44.239  21.579  13.181
17654W        W85872   1.736  22.987  12.796
17655W        W85873  44.815  25.357   1.323
17656W        W85874  37.417  20.161  12.296
17657W        W85875  13.138  44.320   4.042
17658W        W85876  19.660  35.082  13.371
17659W        W85877  43.868  43.280   0.698
17660W        W85878  17.631   8.740  10.893
17661W        W85879  39.320  16.080   4.142
17662W        W85880  37.104  12.374  11.698
17663W        W85881   3.571   4.896  10.152
17664W        W85882  31.857  36.375  12.127
17665W        W85883  35.396  16.326  13.212
17666W        W85884  31.602   8.625  12.498
17667W        W85885   4.700  15.763  13.602
17668W        W85886  33.066  21.713  10.721
17669W        W85887  17.137  23.589   4.033
17670W        W85888  44.923  33.044   0.894
17671W        W85889  35.757  27.171   5.012
17672W        W85890  21.879  30.479  12.532
17673W        W85891   7.186  44.116   2.619
17674W        W85892  30.634  14.753   1.556
17675W        W85893  17.115  28.544  13.636
17676W        W85894  29.129  39.937   2.357
17677W        W85895  30.376   6.267  14.901
17678W        W85896  37.558  17.196  11.578
17679W        W85897  33.705  41.573   3.164
17680W        W85898  17.959  10.252  11.599
17681W        W85899  29.399  29.004  12.014
17682W        W85900   2.436  35.502  11.669
17683W        W85901  20.069  18.150   0.837
17684W        W85902  26.739  10.777   0.563
17685W        W85903   0.953  10.145  12.456
17686W        W85904  26.259  23.320   4.251
17687W        W85905  37.440  35.626  10.595
17688W        W85906   6.154  11.254   0.155
17689W        W85907  32.962  40.830   3.105
17690W        W85908  34.423  43.074  11.555
17691W        W85909  22.580  12.312   1.932
17692W        W85910   3.193  34.385   0.943
17693W        W85911  43.362  14.372  13.958
17694W        W85912  29.390  28.342   1.248
17695W        W85913   5.275  29.936  13.889
17696W        W85914  17.676  36.050   0.085
17697W        W85915  19.367  12.693   3.720
17698W        W85916  25.449  23.943   1.605
17699W        W85917  43.307  13.105  13.094
17700W        W85918  22.669  12.171   2.903
17701W        W85919  31.373  12.010   0.917
17702W        W85920   3.978  42.867  11.899
17703W        W85921  44.817   1.366  14.766
17704W        W85922  32.674  15.703  13.889
17705W        W85923   7.450  29.068   0.015
17706W        W85924  23.263  19.244   1.758
17707W        W85925  25.246   0.936   2.595
17708W        W85926  43.527  20.204  11.713
17709W        W85927  23.223  14.421  11.143
17710W        W85928  18.655   2.685   1.265
17711W        W85929  39.599  21.271   3.370
17712W        W85930  23.533  40.330   1.333
17713W        W85931  17.150  41.888  14.722
17714W        W85932   6.136   7.367   4.620
17715W        W85933   8.198   8.533  11.042
17716W        W85934  42.405  10.004  12.457
17717W        W85935   7.665  23.521  11.692
17718W        W85936  36.068  14.110  14.724
17719W        W85937  27.690  30.993  11.716
17720W        W85938   1.867  15.979  14.436
17721W        W85939   8.759   2.799  14.294
17722W        W85940  34.153   3.509  14.502
17723W        W85941  41.948  38.041  13.027
17724W        W85942  23.287  14.557  14.555
17725W        W85943  44.175   7.421  10.019
17726W        W85944  11.585  38.036   1.316
17727W        W85945  16.658  10.285  12.509
17728W        W85946  13.849  40.555  14.834
17729W        W85947  37.866  22.622  10.074
17730W        W85948  21.839  21.094   4.050
17731W        W85949  36.965  23.380   0.996
17732W        W85950  14.656   4.695   4.324
17733W        W85951   3.465  20.208   0.419
17734W        W85952  29.863   0.969  10.671
17735W        W85953  33.188   3.139   4.533
17736W        W85954  36.526  43.221   4.708
17737W        W85955  11.060  35.384   1.283
17738W        W85956  11.525  10.590   3.768
17739W        W85957  19.240  10.798  12.012
17740W        W85958  26.146  16.777  10.636
17741W        W85959  36.895   0.112  13.354
17742W        W85960  29.565  43.458   2.573
17743W        W85961  18.182   3.700  13.949
17744W        W85962  40.561   7.399   3.711
17745W        W85963  25.516  21.012  11.301
17746W        W85964  20.073  42.010   2.763
17747W        W85965   1.041  16.208   2.608
17748W        W85966  11.578  28.378   0.177
17749W        W85967  18.073  42.812   3.237
17750W        W85968   4.673  22.970   1.415
17751W        W85969  10.358  40.059  13.471
17752W        W85970   3.028  25.069  11.134
17753W        W85971   8.136   9.372   4.131
17754W        W85972  24.400  15.862   4.390
17755W        W85973  44.950   3.275   0.033
17756W        W85974   7.444  29.165   1.022
17757W        W85975  10.280   9.928  13.966
17758W        W85976  28.411   0.868  12.179
17759W        W85977  41.356  42.863   1.663
17760W        W85978  16.778  40.955  10.472
17761W        W85979   2.390  20.438   0.899
17762W        W85980   6.451  16.040  12.057
17763W        W85981   1.792   3.603   2.722
17764W        W85982  31.226  37.518  10.678
17765W        W85983  12.148   2.859   3.763
17766W        W85984  37.439  21.649   1.398
17767W        W85985  24.227   4.731   2.833
17768W        W85986  18.305  37.103  12.037
17769W        W85987  42.915  31.023   3.668
17770W        W85988  29.061   3.458   4.816
17771W        W85989  33.646  29.601   3.332
17772W        W85990   3.832  42.705  14.944
17773W        W85991  29.669   6.901  13.608
17774W        W85992  34.611  42.707  10.665
17775W        W85993  31.176  33.396   4.251
17776W        W85994   4.984  26.259  11.637
17777W        W85995   7.645  14.876   3.778
17778W        W85996  20.389  18.026   2.752
17779W        W85997  29.180  40.384  12.932
17780W        W85998   1.224  10.273  14.334
17781W        W85999  14.015  40.735   3.837
17782W        W86000  33.430  12.712  12.166
17783W        W86001   5.725  36.762   1.251
17784W        W86002  29.961   4.143   3.181
17785W        W86003  37.383  14.655  12.826
17786W        W86004  19.364  21.579  13.381
17787W        W86005  23.452  37.610  11.268
17788W        W86006   1.940  38.457  14.745
17789W        W86007   2.495  28.587   1.341
17790W        W86008   6.807  12.826   4.846
17791W        W86009  40.591  38.694   5.028
17792W        W86010  20.446  29.120   3.056
17793W        W86011  14.341  23.466  10.974
17794W        W86012  28.560   4.240  13.519
17795W        W86013  32.044   0.408  11.246
17796W        W86014  22.699  37.471   3.371
17797W        W86015  18.572  36.609  13.343
17798W        W86016  13.146  27.789  10.865
17799W        W86017  40.094   9.219  13.967
17800W        W86018   6.444  15.188  12.664
17801W        W86019  14.297  38.450   3.625
17802W        W86020  24.954  35.504   0.923
17803W        W86021  44.313  33.450   3.530
17804W        W86022  40.610  41.376   0.456
17805W        W86023  31.272   3.035  11.636
17806W        W86024   2.957  40.375   1.085
17807W        W86025  19.659   1.939   4.874
17808W        W86026  34.041  25.568   4.138
17809W        W86027   4.392  11.606   4.861
17810W        W86028  13.467  43.286  12.368
17811W        W86029  18.141  42.070   4.655
17812W        W86030  34.047  40.812   3.620
17813W        W86031   0.418  12.364  14.270
17814W        W86032  42.049   6.896   2.820
17815W        W86033   3.238  27.918  13.357
17816W        W86034  20.999   4.666   1.167
17817W        W86035  39.907   6.736  13.523
17818W        W86036  29.848   9.310  11.296
17819W        W86037   6.427   2.872  13.297
17820W        W86038   8.312  36.099   0.220
17821W        W86039  31.931  15.126   3.269
17822W        W86040  44.745   9.308   4.126
17823W        W86041   8.141  24.132   1.181
17824W        W86042   2.407  11.730  10.617
17825W        W86043   6.558  25.001   2.863
17826W        W86044   0.281  44.117   0.934
17827W        W86045  32.530  25.758  11.282
17828W        W86046  32.296  16.231   4.637
17829W        W86047  15.786  43.941  13.638
17830W        W86048  41.434  12.368  13.988
17831W        W86049  35.671  16.828   3.726
17832W        W86050  39.852  10.482  12.514
17833W        W86051   6.141  43.087  11.531
17834W        W86052  38.535   6.683  14.005
17835W        W86053  27.911  17.836  12.428
17836W        W86054  32.962   3.574   3.631
17837W        W86055  10.252  11.801   3.269
17838W        W86056  11.707  41.902   3.177
17839W        W86057  40.358  34.228  11.956
17840W        W86058  27.155  31.975   2.248
17841W        W86059   9.964  23.661   1.401
17842W        W86060  36.793   9.121  13.630
17843W        W86061   5.152   1.875  11.563
17844W        W86062  31.400  10.604  13.172
17845W        W86063   8.217  16.172   1.767
17846W        W86064  13.165  36.554  11.628
17847W        W86065  42.822  32.461  14.033
17848W        W86066  34.316  28.455   2.847
17849W        W86067   0.531  22.056  13.161
17850W        W86068  35.471  22.123  10.926
17851W        W86069  40.328  11.316  14.282
17852W        W86070   3.756  43.986   4.836
17853W        W86071  42.739  24.638   3.292
17854W        W86072  29.082  17.313  13.597
17855W        W86073  13.586  26.102   1.498
17856W        W86074  11.213  29.495   1.215
17857W        W86075  37.758  31.610   0.440
17858W        W86076  11.522  20.640   4.515
17859W        W86077  30.945  25.290   0.458
17860W        W86078  40.851  21.985   0.043
17861W        W86079  20.967  43.659  13.910
17862W        W86080  23.799  32.861   9.752
17863W        W86081  24.459   5.159   2.631
17864W        W86082  43.713   2.478   1.293
17865W        W86083   3.527  39.504   3.401
17866W        W86084  33.052  40.421  11.679
17867W        W86085  28.890   4.832  11.045
17868W        W86086  40.990  31.314  11.187
17869W        W86087   1.725  19.031  12.851
17870W        W86088  41.888  39.293  14.017
17871W        W86089  23.271  21.070  11.527
17872W        W86090  34.543   3.150   4.510
17873W        W86091  34.433   5.836   4.695
17874W        W86092  23.261  21.423   3.205
17875W        W86093   1.747   9.248  11.149
17876W        W86094  11.355  40.025  10.706
17877W        W86095  43.299   9.130  14.541
17878W        W86096  16.762  35.030   2.339
17879W        W86097  17.585  40.747   2.736
17880W        W86098   0.781  15.133  11.150
17881W        W86099  15.267  39.832  13.313
17882W        W86100  12.257  42.254   2.721
17883W        W86101  32.895  15.799   2.905
17884W        W86102  22.300  35.996  13.874
17885W        W86103  40.526  41.401   0.976
17886W        W86104  20.687  24.895   2.664
17887W        W86105  24.521  29.198   1.752
17888W        W86106  20.597  14.826  11.153
17889W        W86107  19.981  43.487   0.746
17890W        W86108  11.840  30.881   1.242
17891W        W86109   4.285   4.672   1.481
17892W        W86110  44.933  38.134   1.220
17893W        W86111  27.208   7.068   2.893
17894W        W86112  37.931  44.502   3.220
17895W        W86113  15.656  22.566   2.187
17896W        W86114  33.011   2.535   3.759
17897W        W86115  44.996  10.585  12.627
17898W        W86116  34.778  28.587   0.491
17899W        W86117  16.267  33.516  14.363
17900W        W86118  30.117  39.369  14.202
17901W        W86119   6.515  29.962   3.765
17902W        W86120   0.447  25.964  12.064
17903W        W86121  39.751  24.755   1.429
17904W        W86122  44.708  42.641   4.517
17905W        W86123  24.916  23.487   2.220
17906W        W86124  28.151  20.669  12.619
17907W        W86125  18.733  22.480  14.571
17908W        W86126  20.561   8.347   0.538
17909W        W86127  30.491  21.765  11.471
17910W        W86128   9.826   8.396   1.309
17911W        W86129  25.802  13.906  14.762
17912W        W86130   8.487  24.520  13.672
17913W        W86131  17.750  39.553   1.544
17914W        W86132  25.260  30.586  12.369
17915W        W86133  31.689  27.112  10.719
17916W        W86134  19.178  13.187  14.495
17917W        W86135   7.822   4.726   4.599
17918W        W86136  41.868   7.307   0.272
17919W        W86137  25.145  14.236  11.196
17920W        W86138  10.863  12.288   4.292
17921W        W86139  42.910  18.724  11.377
17922W        W86140  40.847   4.961  13.490
17923W        W86141   1.001  38.671  12.005
17924W        W86142  42.792  28.080   0.272
17925W        W86143  41.086  35.993   1.900
17926W        W86144  28.400  40.950   2.289
17927W        W86145  12.241  32.545  12.437
17928W        W86146  36.106  12.191  11.588
17929W        W86147   6.503  41.588  12.987
17930W        W86148  40.015  11.113   2.897
17931W        W86149   5.308   5.203  12.597
17932W        W86150  27.522   9.153  11.557
17933W        W86151   7.304  33.170  10.748
17934W        W86152   6.917  26.441   0.209
17935W        W86153  20.640  31.953  12.871
17936W        W86154  11.190   7.281  10.615
17937W        W86155  15.702  37.510  10.059
17938W        W86156  36.780   3.185  11.197
17939W        W86157  44.897   1.960   2.925
17940W        W86158  35.875  13.541   4.764
17941W        W86159  39.782   2.931   2.755
17942W        W86160  16.216   3.242  13.309
17943W        W86161  19.100  22.271   0.466
17944W        W86162  20.134  10.776   1.652
17945W        W86163  44.564   4.723   4.525
17946W        W86164  17.210  38.874   3.551
17947W        W86165   5.124   9.151  11.002
17948W        W86166  33.143  14.008  10.572
17949W        W86167  11.907   8.304  14.247
17950W        W86168  30.170  22.522   1.556
17951W        W86169  24.600  21.476   4.284
17952W        W86170  21.213  34.410  14.825
17953W        W86171  30.098   0.978   3.929
17954W        W86172  35.158  30.172   3.869
17955W        W86173  34.070   5.385  11.438
17956W        W86174   9.312  36.793  13.757
17957W        W86175  18.235  29.220  13.902
17958W        W86176  38.013  37.054   1.809
17959W        W86177   9.479   1.916   4.133
17960W        W86178   1.487  24.214  10.694
17961W        W86179  22.785   4.237  11.286
17962W        W86180  35.125  34.877  13.066
17963W        W86181  11.522  16.727   4.291
17964W        W86182  19.114  12.617  14.028
17965W        W86183   9.419  20.088   4.366
17966W        W86184  44.835  34.808  11.132
17967W        W86185  15.667  10.905  11.195
17968W        W86186  27.671   6.210   2.251
17969W        W86187  15.807  22.018   1.233
17970W        W86188  35.564   5.218  14.875
17971W        W86189  10.196   3.321  11.202
17972W        W86190  35.614  12.149  11.457
17973W        W86191  41.300  30.148   4.723
17974W        W86192   7.882  11.356  12.452
17975W        W86193  35.961  15.780  13.609
17976W        W86194   1.933  23.930   2.188
17977W        W86195  40.804  24.402  13.547
17978W        W86196   5.334  15.638   2.337
17979W        W86197  17.313   9.626  10.721
17980W        W86198  18.582  34.721  14.829
17981W        W86199  44.290  21.085   2.132
17982W        W86200  28.433   8.657   4.640
17983W        W86201  29.097  22.215  11.998
17984W        W86202   4.394   1.743   3.743
17985W        W86203  20.383  24.086   2.804
17986W        W86204   1.342  38.460   2.195
17987W        W86205  20.499  33.590  11.457
17988W        W86206  12.383  42.298   1.379
17989W        W86207  10.277  19.094  10.498
17990W        W86208  43.506  25.879  11.587
17991W        W86209  12.060  24.598   1.284
17992W        W86210  23.754   3.536  12.574
17993W        W86211  34.010  39.489   4.631
17994W        W86212   4.555  21.544  14.766
17995W        W86213  10.531  18.841  13.643
17996W        W86214  18.331   7.253  14.410
17997W        W86215   6.453  13.837  14.895
17998W        W86216  25.426   1.361   4.540
17999W        W86217  44.818  13.400   4.948
18000W        W86218  36.157  12.280  13.029
18001W        W86219  43.558   4.330  12.376
18002W        W86220  41.905  18.062  14.781
18003W        W86221   6.937   3.974   1.808
18004W        W86222  26.269   7.646  11.272
18005W        W86223  17.711  17.228  13.877
18006W        W86224  41.420   1.842  11.978
18007W        W86225  14.770  36.523   2.305
18008W        W86226   4.329  34.846   0.456
18009W        W86227   5.426  18.721  10.337
18010W        W86228  20.273  37.094  12.052
18011W        W86229  29.157  22.983  14.387
18012W        W86230  14.232   0.545   0.907
18013W        W86231   9.463  23.716   1.255
18014W        W86232  41.032  12.359  13.015
18015W        W86233  42.111  27.454   4.546
18016W        W86234  26.140  27.185   3.108
18017W        W86235   3.862  44.951   1.046
18018W        W86236  28.510  29.735   0.093
18019W        W86237   3.648  41.401   2.239
18020W        W86238  27.040  38.309   0.963
18021W        W86239  25.938   5.823   4.513
18022W        W86240  18.862   6.752  11.925
18023W        W86241  28.590   9.558   4.808
18024W        W86242  38.054  41.822   0.328
18025W        W86243  19.534  32.437   3.250
18026W        W86244  17.751  44.512   0.344
18027W        W86245  18.660  12.142   0.414
18028W        W86246   0.883  29.934   3.381
18029W        W86247   8.998  11.114  13.267
18030W        W86248   2.711  17.669   4.494
18031W        W86249  23.092  36.982  10.769
18032W        W86250  39.278  22.762  11.233
18033W        W86251   7.420  14.071  12.468
18034W        W86252   9.937  29.526  14.937
18035W        W86253  23.529  24.488   4.196
18036W        W86254  11.754   0.547  14.817
18037W        W86255   4.080  36.139   4.914
18038W        W86256   0.048  22.833  12.452
18039W        W86257  19.845  40.641   3.679
18040W        W86258  17.227  33.957   3.376
18041W        W86259   6.311  42.001  13.262
18042W        W86260   2.241   5.723   1.100
18043W        W86261   0.746  36.845  11.298
18044W        W86262  15.454  31.997  13.037
18045W        W86263  35.855   4.380  14.034
18046W        W86264   7.512  41.419   1.311
18047W        W86265  27.688  21.574   3.871
18048W        W86266  33.442  37.582   4.652
18049W        W86267  25.992  19.632  11.899
18050W        W86268  39.573  22.307   0.844
18051W        W86269  12.795  40.202   2.351
18052W        W86270  36.498  28.495  11.770
18053W        W86271  28.431  42.545   3.726
18054W        W86272  14.163  23.171   3.130
18055W        W86273  16.091   0.496   3.879
18056W        W86274  28.109   3.740  14.015
18057W        W86275  29.377   3.526   9.854
18058W        W86276  22.629  31.495  13.509
18059W        W86277  27.461   5.121   4.571
18060W        W86278  30.529  18.150  13.760
18061W        W86279   7.148  35.285  13.921
18062W        W86280   6.736  16.757  14.480
18063W        W86281  22.784  15.551  13.353
18064W        W86282  28.757  21.034  14.752
18065W        W86283  39.153   7.130   4.759
18066W        W86284   5.922  26.643   2.635
18067W        W86285  13.687  20.218  13.647
18068W        W86286  25.703  33.974   4.804
18069W        W86287  26.078  39.436   4.868
18070W        W86288  10.105  24.626   1.301
18071W        W86289   5.304  14.334  12.835
18072W        W86290   5.948  25.973   4.362
18073W        W86291  17.656   2.541  12.037
18074W        W86292  42.547  18.902  11.035
18075W        W86293  18.052   8.868  10.628
18076W        W86294  29.671  29.082   2.275
18077W        W86295   3.321  28.575  10.793
18078W        W86296  40.465   6.735  14.221
18079W        W86297  37.357  24.534   4.139
18080W        W86298   9.001  23.985  12.992
18081W        W86299  13.894   1.087  10.734
18082W        W86300  11.112  15.737   5.164
18083W        W86301  39.847  16.836   3.309
18084W        W86302  18.018  40.325  13.440
18085W        W86303  22.223  38.611  11.476
18086W        W86304   8.846  15.203   1.152
18087W        W86305   0.344  14.710   3.958
18088W        W86306  13.774   8.866   0.925
18089W        W86307   9.721  25.170  14.322
18090W        W86308  19.625  15.152   2.189
18091W        W86309   1.735  13.516   3.819
18092W        W86310  37.059  42.516  11.549
18093W        W86311  37.767  40.086   2.479
18094W        W86312  23.903  43.099  12.593
18095W        W86313  25.400  10.675   3.675
18096W        W86314   6.386  34.924  13.477
18097W        W86315  29.856   4.827  14.842
18098W        W86316  37.344  31.058  13.333
18099W        W86317   8.060  44.024  14.973
18100W        W86318  26.921   9.266   0.401
18101W        W86319   3.294  22.091   1.471
18102W        W86320  22.534   7.371  13.556
18103W        W86321  12.078  17.199  12.901
18104W        W86322  27.645   1.899  11.239
18105W        W86323  33.443  40.893   2.846
18106W        W86324   1.349  19.551   0.850
18107W        W86325  44.682  20.720  10.583
18108W        W86326   3.797  26.460   3.905
18109W        W86327  37.459  37.278   5.054
18110W        W86328  43.057  19.613  10.455
18111W        W86329  16.740  32.110  14.357
18112W        W86330  35.310  22.750  14.990
18113W        W86331  31.351  24.815  12.904
18114W        W86332  27.649  21.869   2.036
18115W        W86333  18.382  30.697   3.777
18116W        W86334  31.814  26.190  11.304
18117W        W86335  19.176  17.594  14.940
18118W        W86336  32.630  18.215  12.219
18119W        W86337  10.389  11.634  14.453
18120W        W86338  16.806  23.495   4.447
18121W        W86339  22.815  35.064   0.331
18122W        W86340  40.997  10.884  11.175
18123W        W86341  36.807  22.909   1.168
18124W        W86342  35.672   9.808  13.340
18125W        W86343  13.279  10.180  10.683
18126W        W86344   3.968  29.586   1.787
18127W        W86345  36.404   0.334   0.903
18128W        W86346  34.451  34.049  11.254
18129W        W86347  11.370   4.213   1.342
18130W        W86348   9.955  21.810  14.351
18131W        W86349   6.318   4.671  14.861
18132W        W86350  10.319  38.917   4.686
18133W        W86351  36.010  34.272   3.769
18134W        W86352  41.387  36.156   3.675
18135W        W86353   3.376  36.318   3.464
18136W        W86354  14.334  23.232  11.550
18137W        W86355  10.438  14.528   2.342
18138W        W86356  35.655  40.815  13.935
18139W        W86357  33.434   4.908   0.234
18140W        W86358  25.620  32.194  12.441
18141W        W86359  26.558  41.443   0.821
18142W        W86360  28.457  27.493   0.707
18143W        W86361  21.052  31.694  10.179
18144W        W86362  41.369  10.825   0.815
18145W        W86363  36.460   6.877  11.622
18146W        W86364  38.382  32.309  14.532
18147W        W86365  13.054  26.208  10.860
18148W        W86366  11.327  15.066  14.232
18149W        W86367  27.891  23.263   2.886
18150W        W86368  17.324  31.936  14.715
18151W        W86369   9.461  28.592   4.013
18152W        W86370  15.399  11.258  10.646
18153W        W86371   4.765  26.954   2.277
18154W        W86372  35.575  31.409  12.631
18155W        W86373  41.557  18.393  11.094
18156W        W86374  40.063  42.602  12.049
18157W        W86375  15.725  13.294   0.829
18158W        W86376   2.137  12.205  10.912
18159W        W86377   9.763   5.029  13.854
18160W        W86378  34.587  24.093  11.536
18161W        W86379   6.327  19.153  13.887
18162W        W86380   9.193  15.208   1.922
18163W        W86381   0.437  23.668   4.804
18164W        W86382   9.345  24.189   3.616
18165W        W86383  12.437   7.543  13.890
18166W        W86384  27.954  12.159   0.972
18167W        W86385  24.949  31.653   1.751
18168W        W86386   9.411  26.070  13.977
18169W        W86387   5.389  13.066   0.417
18170W        W86388  19.037  40.409   3.487
18171W        W86389  22.531  19.318   3.633
18172W        W86390  40.392  34.388   1.962
18173W        W86391  15.222  22.723  11.629
18174W        W86392   9.982  27.820  11.993
18175W        W86393  36.383  22.074  10.948
18176W        W86394  31.993  35.996   3.623
18177W        W86395   3.038   2.039   4.078
18178W        W86396  39.615  23.086   2.797
18179W        W86397   9.439  28.579  13.937
18180W        W86398  11.305  30.452   3.231
18181W        W86399  31.488  28.029  11.097
18182W        W86400  13.112  16.625   0.966
18183W        W86401  27.437   1.726   4.549
18184W        W86402  42.522  10.792   3.996
18185W        W86403  22.711   7.468  12.088
18186W        W86404  15.188  35.469   1.820
18187W        W86405  43.820   2.217   0.256
18188W        W86406  29.419  31.503  12.864
18189W        W86407  30.755  19.293  12.006
18190W        W86408  37.441  42.481   4.462
18191W        W86409  22.981  42.734  14.927
18192W        W86410  18.945  17.337  12.573
18193W        W86411   7.235  41.497   0.867
18194W        W86412   1.822  16.663  11.565
18195W        W86413  44.851  24.623   4.158
18196W        W86414  10.609  20.587  12.596
18197W        W86415  42.263  34.681  14.494
18198W        W86416  44.258  34.980  13.442
18199W        W86417  21.520  42.311   0.848
18200W        W86418  39.353  29.936   3.653
18201W        W86419  13.773   5.795  13.907
18202W        W86420   3.964  36.961   4.379
18203W        W86421   9.868  29.091   4.644
18204W        W86422  12.557  41.805  10.958
18205W        W86423  38.945  44.089   0.794
18206W        W86424  30.944   9.367   0.213
18207W        W86425  34.888  42.072   3.633
18208W        W86426  24.064  42.268  12.812
18209W        W86427  24.577  15.118  14.446
18210W        W86428  22.123  40.908   1.824
18211W        W86429  43.369  26.948   3.674
18212W        W86430  44.685  28.636   2.177
18213W        W86431  17.749  24.774  10.687
18214W        W86432  29.375   8.740   3.841
18215W        W86433   8.627  42.228  13.969
18216W        W86434  25.675  29.099   2.341
18217W        W86435   6.450   9.832   2.209
18218W        W86436  44.733  27.989   1.673
18219W        W86437  11.729  32.596  12.624
18220W        W86438   3.707   5.661  12.022
18221W        W86439  16.675  34.839   1.649
18222W        W86440  10.967   3.887  13.291
18223W        W86441   6.735  24.966  12.997
18224W        W86442  22.027  32.104  13.959
18225W        W86443   3.089   0.826  10.561
18226W        W86444  28.258  31.944  12.645
18227W        W86445  42.880  37.836   1.981
18228W        W86446  19.961  39.473  11.833
18229W        W86447  31.662   3.017  11.262
18230W        W86448  15.689   9.643   2.735
18231W        W86449  29.795  13.501  13.413
18232W        W86450   1.110  21.774  10.740
18233W        W86451   9.874  31.706  11.097
18234W        W86452  37.867   5.364  13.911
18235W        W86453  11.664  27.200   3.327
18236W        W86454  14.819  44.183  11.062
18237W        W86455  36.553  43.374  10.568
18238W        W86456  30.657  36.021   4.406
18239W        W86457  13.024  42.682   2.289
18240W        W86458  12.327  42.724   5.049
18241W        W86459  41.033  12.248  12.505
18242W        W86460  31.289  39.737  12.142
18243W        W86461  36.579  37.491   1.832
18244W        W86462  40.506  26.513  11.541
18245W        W86463   0.902   9.536  10.458
18246W        W86464  27.142  33.806  11.435
18247W        W86465   8.659  41.626  11.103
18248W        W86466  21.170  41.373   0.769
18249W        W86467   5.356  37.658  12.914
18250W        W86468  28.974  20.698  13.577
18251W        W86469  26.174   6.222   2.688
18252W        W86470  38.124   3.537   3.262
18253W        W86471  19.501  21.072  13.408
18254W        W86472  28.297  41.760  14.047
18255W        W86473  19.736  15.825   4.730
18256W        W86474  24.180  13.896   2.291
18257W        W86475  25.114  10.216   2.651
18258W        W86476  23.912  20.768  12.842
18259W        W86477   7.177  22.101   1.247
18260W        W86478  13.175  20.757  13.016
18261W        W86479   1.696  44.297  13.523
18262W        W86480  16.967  28.757  13.194
18263W        W86481  37.159   1.520   0.786
18264W        W86482  31.387  19.761  11.219
18265W        W86483   8.515  44.276  11.857
18266W        W86484  43.533  17.279  14.457
18267W        W86485   0.772  11.716   3.329
18268W        W86486  21.437  18.466  13.271
18269W        W86487  15.578   8.058  14.010
18270W        W86488  24.419  10.751   2.657
18271W        W86489  25.558  30.640   3.784
18272W        W86490  22.749  16.129  14.595
18273W        W86491  12.644   9.122   4.146
18274W        W86492   8.085  42.021   3.361
18275W        W86493  14.887  41.490   1.791
18276W        W86494   9.820  27.881   0.218
18277W        W86495  37.766   7.711  13.158
18278W        W86496  10.158   7.455   2.706
18279W        W86497  21.075  41.607  14.377
18280W        W86498  18.157  12.326   0.487
18281W        W86499  44.030   4.462  11.360
18282W        W86500  35.935  22.159  10.674
18283W        W86501  27.502  34.580   0.376
18284W        W86502  16.767  40.472  10.760
18285W        W86503  21.598  31.495   2.122
18286W        W86504  18.609   7.179  12.041
18287W        W86505   5.896  34.007  11.957
18288W        W86506  13.905  37.056   3.275
18289W        W86507  41.798  34.578   0.289
18290W        W86508  17.378  31.311   0.915
18291W        W86509  42.107   9.370  12.501
18292W        W86510   2.784   1.875   2.647
18293W        W86511   5.366  39.319  14.316
18294W        W86512  15.703  13.219   1.372
18295W        W86513  34.612  25.072  11.976
18296W        W86514   5.196   9.274   0.089
18297W        W86515  41.724   4.843   4.173
18298W        W86516  21.098  30.867  13.900
18299W        W86517   7.331  14.567   4.086
18300W        W86518  26.974  33.311  11.515
18301W        W86519  33.042  40.843  14.001
18302W        W86520  29.687  20.157   2.876
18303W        W86521  32.422  30.851  12.554
18304W        W86522  15.268  30.640  14.945
18305W        W86523  35.091   3.472   0.422
18306W        W86524   7.214  19.056   1.277
18307W        W86525  36.444  36.928  13.727
18308W        W86526  34.162  35.884   3.341
18309W        W86527   7.884  36.387   3.851
18310W        W86528   4.402  36.060  11.164
18311W        W86529  39.325  33.622   4.075
18312W        W86530  42.798  39.745   2.247
18313W        W86531  43.702  32.973   2.210
18314W        W86532  10.064  25.227  12.047
18315W        W86533   4.283  20.645  13.436
18316W        W86534  39.916  39.567  13.809
18317W        W86535  19.324   3.282   0.811
18318W        W86536  24.586  34.824  14.440
18319W        W86537  40.345  44.760  14.919
18320W        W86538   5.672   1.927  14.903
18321W        W86539  38.351   8.931   2.729
18322W        W86540  17.062   3.739   1.859
18323W        W86541  43.546   3.847   4.855
18324W        W86542  26.982  19.452  14.162
18325W        W86543  27.575   8.656  10.840
18326W        W86544  12.262   1.831  10.785
18327W        W86545  14.143  10.528  13.482
18328W        W86546   0.694   2.542   0.974
18329W        W86547  15.607  42.763   1.930
18330W        W86548  23.955   9.203   3.769
18331W        W86549   7.254  12.028  14.714
18332W        W86550  42.014  27.852  12.715
18333W        W86551   1.932  31.852   2.083
18334W        W86552  25.876  37.897   2.841
18335W        W86553  43.963  22.051  12.065
18336W        W86554  19.145  16.419  10.777
18337W        W86555  20.668   2.863  14.324
18338W        W86556  39.785   6.335  14.949
18339W        W86557  18.505  12.590   0.204
18340W        W86558  39.835   8.769  13.809
18341W        W86559  31.925   4.743   3.326
18342W        W86560   6.834  10.230   4.221
18343W        W86561  34.041  25.612  12.490
18344W        W86562  38.262  14.130  12.991
18345W        W86563   2.800   8.251  12.894
18346W        W86564  15.178   8.968   4.092
18347W        W86565  32.126  15.233   3.721
18348W        W86566  40.062  18.483   0.985
18349W        W86567  23.837  11.729  14.473
18350W        W86568  37.393  21.307  10.720
18351W        W86569  31.269   8.994   0.009
18352W        W86570  14.526  29.574  10.807
18353W        W86571   8.923   0.769  13.603
18354W        W86572   5.939  25.671   0.126
18355W        W86573  27.034  22.708   0.984
18356W        W86574  21.519  20.621   3.240
18357W        W86575  14.399  37.407  13.146
18358W        W86576   7.638  11.051   1.816
18359W        W86577  32.503   4.477   0.319
18360W        W86578   7.652  16.585   2.421
18361W        W86579   3.014  21.762   1.825
18362W        W86580   3.970   1.452   3.624
18363W        W86581  41.364  11.246  11.155
18364W        W86582  22.896   3.507   0.817
18365W        W86583  12.192  17.846  11.148
18366W        W86584  34.949   2.777  11.446
18367W        W86585  42.163   2.552   5.084
18368W        W86586  13.118  11.922   3.902
18369W        W86587   0.375   8.414  11.168
18370W        W86588  27.491   0.221  12.368
18371W        W86589  40.025  38.325   2.624
18372W        W86590   4.428  17.232   1.974
18373W        W86591  26.651   6.865  13.699
18374W        W86592  41.427   7.378   2.317
18375W        W86593  30.699  17.444  11.470
18376W        W86594  18.318  28.815  12.013
18377W        W86595  11.021  19.205  14.005
18378W        W86596  14.387  24.576   4.554
18379W        W86597  11.656  12.391  12.023
18380W        W86598   4.249  15.946   1.830
18381W        W86599  11.763   0.449  13.896
18382W        W86600  38.669   4.444  10.269
18383W        W86601  15.013  18.557   2.344
18384W        W86602  25.407  19.721   4.163
18385W        W86603   2.726  39.895   2.321
18386W        W86604  10.083  30.815   0.622
18387W        W86605  21.313  32.520   4.054
18388W        W86606  44.532  19.009   4.924
18389W        W86607  32.546  30.970   0.823
18390W        W86608  25.652  25.187  10.670
18391W        W86609  23.148  36.541  12.326
18392W        W86610  44.787  25.673   1.780
18393W        W86611  44.443  36.034   4.984
18394W        W86612  15.734  14.069  10.479
18395W        W86613  43.751  10.670  14.864
18396W        W86614  44.185   4.656   0.448
18397W        W86615  12.492  20.456   1.454
18398W        W86616  12.403  42.067  12.339
18399W        W86617   1.938   6.771   4.185
18400W        W86618  26.540  36.492   0.805
18401W        W86619   5.492  30.708   0.881
18402W        W86620   9.973  11.098  12.428
18403W        W86621  18.097  29.468  13.103
18404W        W86622  35.850   2.963   3.727
18405W        W86623  34.936  19.766  12.894
18406W        W86624  42.263  35.859   1.426
18407W        W86625  40.391  34.502  10.289
18408W        W86626  10.267  28.747  13.839
18409W        W86627  25.159  43.147   0.811
18410W        W86628  42.398   9.863   3.048
18411W        W86629  37.813   5.353  12.934
18412W        W86630  31.467   9.241   4.129
18413W        W86631  19.634  27.229  13.164
18414W        W86632  16.558  33.397   3.945
18415W        W86633   9.126  32.124   1.742
18416W        W86634  23.680  42.007   0.916
18417W        W86635  25.690   6.211  14.517
18418W        W86636   8.271  23.089   3.294
18419W        W86637  15.631  27.927  14.075
18420W        W86638  30.065   5.232   4.094
18421W        W86639  15.200  22.234  12.557
18422W        W86640  10.366  37.610   4.121
18423W        W86641  34.888  44.273  10.654
18424W        W86642   4.433   3.476   3.529
18425W        W86643   0.495  43.789  10.681
18426W        W86644   9.474  13.621   4.038
18427W        W86645  39.088  40.541   3.797
18428W        W86646  44.467  21.736  14.071
18429W        W86647  17.310  39.352   1.290
18430W        W86648  42.217  44.247   4.298
18431W        W86649  32.589   9.065   1.771
18432W        W86650  11.798   1.344  11.374
18433W        W86651  20.906   0.745  13.696
18434W        W86652   4.598  16.113   0.379
18435W        W86653   5.214  22.909  11.418
18436W        W86654  12.184  31.716  14.883
18437W        W86655  23.285  27.099   4.645
18438W        W86656  42.390   8.300   1.669
18439W        W86657  27.850  11.869   5.084
18440W        W86658  24.447   1.433  13.084
18441W        W86659  17.140   0.249   4.967
18442W        W86660  23.219  12.622   2.812
18443W        W86661  38.129  31.489  14.415
18444W        W86662  25.572   0.771   1.210
18445W        W86663   4.234  36.046  14.752
18446W        W86664  12.117  20.204  13.166
18447W        W86665  19.679  35.112  14.299
18448W        W86666  31.819  28.303   1.291
18449W        W86667   0.205  38.793   0.870
18450W        W86668   1.431   9.901   1.289
18451W        W86669  39.804  40.336   3.160
18452W        W86670   6.483  37.176   9.962
18453W        W86671  35.903  44.432   0.950
18454W        W86672  19.599  27.264  13.723
18455W        W86673  17.125  29.944   3.870
18456W        W86674  28.506   0.399  13.358
18457W        W86675  37.742  12.794  10.712
18458W        W86676  13.700  40.495   0.884
18459W        W86677  18.991  29.006  13.216
18460W        W86678  33.080  11.892  12.957
18461W        W86679   0.806  12.158  11.622
18462W        W86680   5.781  36.392   1.686
18463W        W86681  24.069  31.968  11.027
18464W        W86682  20.021   0.824  13.111
18465W        W86683  20.983  39.057   1.845
18466W        W86684  13.390  25.775   3.303
18467W        W86685   3.362  10.347   2.328
18468W        W86686   7.971  12.081  12.994
18469W        W86687  30.431  36.118   2.849
18470W        W86688  36.584   7.118   4.725
18471W        W86689  13.563  12.224   1.326
18472W        W86690  30.608  29.976  12.140
18473W        W86691  24.430  25.714   3.591
18474W        W86692  26.844  21.366   4.696
18475W        W86693  14.551  23.150  12.006
18476W        W86694   5.633  10.857   4.176
18477W        W86695  41.251  25.133  13.276
18478W        W86696  27.690   4.491  13.180
18479W        W86697   1.473  24.593   3.896
18480W        W86698  39.017   0.462  10.284
18481W        W86699  23.582  44.303  13.500
18482W        W86700   0.663  39.066  12.009
18483W        W86701  17.835   0.759   4.055
18484W        W86702   5.962  23.185  12.100
18485W        W86703  24.496   5.450  12.550
18486W        W86704   7.275  13.756   4.547
18487W        W86705   2.409  27.280   0.268
18488W        W86706  11.617  39.413  11.536
18489W        W86707  39.794  11.361  11.141
18490W        W86708   9.877  22.175   4.220
18491W        W86709   9.850  32.668   3.585
18492W        W86710  14.738  42.832  11.920
18493W        W86711  35.038   2.310  14.802
18494W        W86712  28.178   5.831  12.115
18495W        W86713  37.118  35.011   1.567
18496W        W86714  42.299  38.525   2.634
18497W        W86715   0.406  20.132  12.008
18498W        W86716  15.797  32.829  12.074
18499W        W86717  10.761  18.183   1.710
18500W        W86718  13.666  20.075   3.453
18501W        W86719  39.021  19.655  14.849
18502W        W86720   8.357  12.239   1.359
18503W        W86721  37.365  39.262  12.915
18504W        W86722  34.257  39.561   0.928
18505W        W86723  30.946  38.529  10.720
18506W        W86724  26.214  38.547  14.884
18507W        W86725  38.071  25.460   3.663
18508W        W86726  22.525  31.143   2.381
18509W        W86727   5.837   0.309  10.561
18510W        W86728  39.986  24.725  12.979
18511W        W86729  17.126   3.715   4.132
18512W        W86730  23.505   2.766   3.630
18513W        W86731   9.888  14.830  13.916
18514W        W86732  21.108  37.817   0.700
18515W        W86733  41.796  44.379   4.569
18516W        W86734  24.813  32.556  12.004
18517W        W86735   8.122  10.904  12.416
18518W        W86736  13.317  41.445   1.663
18519W        W86737  14.144   4.357   3.324
18520W        W86738  18.604  17.090   1.312
18521W        W86739  40.398   0.810   0.040
18522W        W86740  20.645  20.140  12.624
18523W        W86741  21.452  40.453   1.840
18524W        W86742  12.216  29.946   2.078
18525W        W86743  36.190  31.717  13.195
18526W        W86744  11.847  34.442   3.649
18527W        W86745  15.786  41.454  12.861
18528W        W86746  24.946   3.534  14.852
18529W        W86747  40.413  40.445  14.133
18530W        W86748  16.383  16.300  13.926
18531W        W86749  21.472  17.512  12.338
18532W        W86750   7.097  44.398  10.753
18533W        W86751   0.726  31.359   3.799
18534W        W86752  11.286   4.904  14.950
18535W        W86753  44.353   3.261   0.755
18536W        W86754   9.368   2.588  13.460
18537W        W86755  28.623  27.326   1.712
18538W        W86756  16.626  28.912   3.676
18539W        W86757  44.873  37.376  12.477
18540W        W86758  17.804  37.190  12.066
18541W        W86759  34.806  24.099   2.618
18542W        W86760  44.347  12.272   2.449
18543W        W86761  24.027   4.005  10.907
18544W        W86762   4.426  31.080  14.810
18545W        W86763  41.907  41.908   0.512
18546W        W86764  25.661  18.145   2.953
18547W        W86765  35.802   7.784   2.739
18548W        W86766  23.663  22.662   3.835
18549W        W86767  37.018   0.468  12.008
18550W        W86768   4.767  18.565  11.582
18551W        W86769  11.065  27.527  14.819
18552W        W86770  14.284   8.630   2.199
18553W        W86771  31.453   7.300   2.936
18554W        W86772   8.824   9.078  11.594
18555W        W86773  17.589  25.615   2.439
18556W        W86774  40.463   4.935  12.090
18557W        W86775  12.848  24.969  13.240
18558W        W86776   6.896  44.120   4.301
18559W        W86777  41.774  20.005   1.046
18560W        W86778  43.272  38.762   2.775
18561W        W86779  22.163  38.757  12.896
18562W        W86780  22.457  29.529  13.491
18563W        W86781   4.421  33.189   4.505
18564W        W86782  17.232  11.279  10.278
18565W        W86783   1.502  35.157  14.821
18566W        W86784  43.330  16.085  13.035
18567W        W86785   7.992  14.454  13.780
18568W        W86786  39.389  22.706  12.639
18569W        W86787  28.188  12.881   3.727
18570W        W86788  32.311  39.761  12.464
18571W        W86789  44.481  38.602  12.021
18572W        W86790  20.612  27.831   3.023
18573W        W86791  22.647  32.640   1.271
18574W        W86792  14.078  30.737   1.453
18575W        W86793  39.948   7.885  11.159
18576W        W86794   1.423  34.164  11.926
18577W        W86795  41.119  26.990  11.057
18578W        W86796  44.416  34.398   1.891
18579W        W86797  42.382   3.787   1.737
18580W        W86798  25.923  42.999   0.250
18581W        W86799   6.123  13.349  12.390
18582W        W86800   8.112  40.290   2.023
18583W        W86801  41.937   9.786   2.160
18584W        W86802  42.997  42.823  12.534
18585W        W86803  28.906  20.241  12.892
18586W        W86804  28.722  15.934   2.191
18587W        W86805  17.791  31.009  12.543
18588W        W86806  19.418  35.928   1.439
18589W        W86807   7.932  43.268  14.494
18590W        W86808   0.123  11.220   2.791
18591W        W86809  43.696  22.455   3.187
18592W        W86810  41.382  12.616  12.387
18593W        W86811  12.308  42.955  12.964
18594W        W86812  22.651   3.395   3.128
18595W        W86813   3.767  42.532   3.236
18596W        W86814   4.710  38.980  11.715
18597W        W86815  38.872  39.988  12.027
18598W        W86816  17.317  11.931   1.866
18599W        W86817  30.618  35.314  14.651
18600W        W86818  33.015  21.271  10.961
18601W        W86819  18.559  10.647  12.483
18602W        W86820  28.549   9.922  12.300
18603W        W86821   1.480  40.267  13.625
18604W        W86822   4.813  41.906   3.305
18605W        W86823  36.859   3.876   4.515
18606W        W86824  35.638  40.666  10.711
18607W        W86825  23.601   2.359   3.936
18608W        W86826   4.193  10.419   2.147
18609W        W86827  21.409  32.517  10.284
18610W        W86828  11.779   2.739   1.939
18611W        W86829  15.652  24.729  14.027
18612W        W86830  44.378  18.526   4.501
18613W        W86831  35.117  33.301   4.612
18614W        W86832  24.478  14.619  12.901
18615W        W86833  17.338   3.248   1.908
18616W        W86834  24.856  14.157  13.531
18617W        W86835  39.849   8.605   4.526
18618W        W86836  32.948  34.894  12.189
18619W        W86837  10.275   2.809  12.922
18620W        W86838  43.509   1.003  11.585
18621W        W86839  36.046   8.634   4.165
18622W        W86840   4.514  34.873   2.336
18623W        W86841  11.379  36.900   3.072
18624W        W86842   7.593  12.265   0.035
18625W        W86843   6.305  44.719  12.494
18626W        W86844   9.684  29.565  11.611
18627W        W86845  34.466  20.734   4.768
18628W        W86846  36.917   2.258  11.382
18629W        W86847  17.338  21.527  12.468
18630W        W86848   4.925  34.044   4.358
18631W        W86849  28.204   3.564   0.535
18632W        W86850  20.615  41.315  11.551
18633W        W86851  20.111  25.147  13.865
18634W        W86852  35.535  32.927   0.904
18635W        W86853   0.848  23.639   2.507
18636W        W86854  19.348  33.408   4.556
18637W        W86855  38.919  26.666  14.023
18638W        W86856  10.292  41.560   2.373
18639W        W86857  43.903  36.438  11.617
18640W        W86858  18.623  17.618   0.444
18641W        W86859   1.099   5.952   5.197
18642W        W86860  16.733  29.481  14.436
18643W        W86861  44.263  36.944   3.972
18644W        W86862  33.921   8.765   1.845
18645W        W86863  21.611  15.194  10.646
18646W        W86864   3.737  26.845   4.285
18647W        W86865  20.918  18.130   2.678
18648W        W86866  40.354  32.121   4.277
18649W        W86867   7.452  25.023   1.732
18650W        W86868  35.510  29.154   3.648
18651W        W86869  40.273  40.591  13.155
18652W        W86870  29.975   0.370  12.004
18653W        W86871  19.275  29.030  12.323
18654W        W86872  17.103  25.177   4.142
18655W        W86873  23.912   8.647  10.783
18656W        W86874  32.605  23.137  14.442
18657W        W86875  26.073   1.841   1.478
18658W        W86876  39.836  15.256  10.868
18659W        W86877  39.755  11.931  12.543
18660W        W86878  22.720  39.500   0.448
18661W        W86879  25.690  28.907   4.097
18662W        W86880  28.356  22.492   2.297
18663W        W86881  22.269  38.942   2.678
18664W        W86882  17.366  36.489   1.807
18665W        W86883  25.970   6.314  11.189
18666W        W86884  12.125  22.431  11.078
18667W        W86885  39.632  12.719  11.094
18668W        W86886  35.973  40.095  12.130
18669W        W86887   5.426  43.251   2.992
18670W        W86888   2.267  21.103  13.575
18671W        W86889   7.846  42.984   3.600
18672W        W86890  10.378  32.998   4.124
18673W        W86891  39.386   5.438  11.234
18674W        W86892  20.982  32.461   3.626
18675W        W86893  15.916  35.608   1.207
18676W        W86894   7.217  22.799   4.600
18677W        W86895   8.261  20.590   4.849
18678W        W86896   9.749  27.961  10.046
18679W        W86897  14.183  44.725  12.996
18680W        W86898  35.524  42.049   2.761
18681W        W86899  10.537   7.726   2.911
18682W        W86900  41.881  44.772   0.876
18683W        W86901  31.010  14.098  13.636
18684W        W86902  29.614   2.224   1.970
18685W        W86903  18.194  22.339   2.854
18686W        W86904   2.704   4.816   3.271
18687W        W86905  28.674  22.066  14.471
18688W        W86906  39.352  40.075   2.353
18689W        W86907  14.553  16.694   2.846
18690W        W86908  27.945  28.973   1.659
18691W        W86909   8.437  29.592   3.671
18692W        W86910  35.092   8.773  14.983
18693W        W86911   6.815  26.945  11.669
18694W        W86912   4.924  32.707  14.854
18695W        W86913  14.854   5.994  11.600
18696W        W86914   6.290  26.324   2.402
18697W        W86915  25.491  14.272   0.344
18698W        W86916  32.981  27.197   3.531
18699W        W86917  29.576  15.409  11.087
18700W        W86918   9.673  32.201  11.103
18701W        W86919  40.944  22.440   2.250
18702W        W86920  32.903  15.942  13.498
18703W        W86921  40.510  18.994   1.221
18704W        W86922   4.211  14.275  11.162
18705W        W86923  23.262  22.296   3.728
18706W        W86924   0.903  26.720  13.033
18707W        W86925   0.442  26.376   1.754
18708W        W86926   2.480   6.794   2.353
18709W        W86927  15.246  28.240   2.130
18710W        W86928   0.076  38.781   3.344
18711W        W86929  23.122  24.072  11.103
18712W        W86930  15.154  11.727  10.550
18713W        W86931   5.141  24.695  12.756
18714W        W86932   3.070  40.601  10.720
18715W        W86933   5.707  40.792   3.581
18716W        W86934   3.788  40.171  12.478
18717W        W86935  12.709   5.899   1.251
18718W        W86936  32.621  38.689  12.538
18719W        W86937  13.373  27.015   0.692
18720W        W86938  36.016  17.811  12.847
18721W        W86939  26.404  27.630  12.992
18722W        W86940  42.874  26.385  11.337
18723W        W86941   7.218  41.452   1.752
18724W        W86942  30.425   3.188   3.163
18725W        W86943  30.341  15.978  14.757
18726W        W86944  30.488  39.258   1.037
18727W        W86945   2.848  37.349  13.564
18728W        W86946   4.172   4.726  12.072
18729W        W86947  20.443  13.440   3.151
18730W        W86948   7.166  13.258   3.639
18731W        W86949  41.645   8.321   2.229
18732W        W86950  43.547  20.985  13.421
18733W        W86951  33.875  36.078   2.834
18734W        W86952  41.384  20.228  11.623
18735W        W86953  40.088  33.029  12.406
18736W        W86954  34.661  31.540   4.255
18737W        W86955  16.552  19.930   0.296
18738W        W86956  29.107  28.289   4.062
18739W        W86957   9.822  11.668  14.498
18740W        W86958  26.092  23.718   0.889
18741W        W86959  34.855  14.346  13.847
18742W        W86960  32.199   6.259  12.166
18743W        W86961  29.049   5.974  13.373
18744W        W86962  12.190  42.579   0.967
18745W        W86963  30.179  28.183  10.686
18746W        W86964  40.230  22.287   3.354
18747W        W86965  23.045   7.353   2.996
18748W        W86966  13.761  40.003  13.783
18749W        W86967  41.874  12.955  11.131
18750W        W86968  28.958  33.548  13.891
18751W        W86969  29.051  10.703  13.905
18752W        W86970  36.809   5.220   1.898
18753W        W86971  13.679  37.310   2.849
18754W        W86972  10.784  24.660   3.389
18755W        W86973  41.653  31.702  13.269
18756W        W86974  39.317  34.856   1.892
18757W        W86975   0.137   6.939   2.765
18758W        W86976  30.419   8.934   2.244
18759W        W86977  41.406  36.797  12.060
18760W        W86978  27.838  30.559  14.728
18761W        W86979  39.902  39.709   0.074
18762W        W86980   2.194  13.733   3.835
18763W        W86981  30.145   7.905   1.207
18764W        W86982  12.634  15.872  10.875
18765W        W86983  20.516  25.699   0.206
18766W        W86984  11.008  19.174   4.478
18767W        W86985   9.136   3.353  11.414
18768W        W86986  44.757   0.287   3.206
18769W        W86987  22.949  31.551  11.552
18770W        W86988  39.384  16.795   3.110
18771W        W86989  27.429  24.727   0.151
18772W        W86990  40.884   0.841   0.219
18773W        W86991  31.919  33.764   3.645
18774W        W86992  20.034  12.439  12.077
18775W        W86993   6.223  31.084  10.698
18776W        W86994  19.631  35.350   3.654
18777W        W86995   9.868  44.712   4.226
18778W        W86996  10.232  30.662  12.465
18779W        W86997  11.847  24.295   4.408
18780W        W86998  34.424  14.604   1.871
18781W        W86999  40.262   5.171  12.484
18782W        W87000  21.634  30.129   4.750
18783W        W87001   6.252  11.550  11.323
18784W        W87002   8.309  36.621   0.259
18785W        W87003   3.200  28.933  13.355
18786W        W87004  21.849  42.988   5.057
18787W        W87005  43.515  37.785   2.665
18788W        W87006   6.439  15.037   4.128
18789W        W87007  36.941   5.728  14.352
18790W        W87008  23.485  10.873   2.641
18791W        W87009   7.100  36.877   0.421
18792W        W87010  41.670  28.165   2.056
18793W        W87011   7.280   5.467  11.399
18794W        W87012  10.790  32.836   1.700
18795W        W87013  25.790  12.340   1.222
18796W        W87014  40.271  41.088  14.751
18797W        W87015   1.080  10.205   1.886
18798W        W87016  40.084  30.377  11.257
18799W        W87017   4.678  17.476   1.261
18800W        W87018  26.175  26.711   5.089
18801W        W87019  38.411  10.324   1.198
18802W        W87020   5.870  40.994  11.517
18803W        W87021  20.572   5.282  13.497
18804W        W87022  37.708  37.796  10.606
18805W        W87023   7.228  14.868   0.293
18806W        W87024  18.387   9.402  12.951
18807W        W87025  37.196  28.746   3.966
18808W        W87026  36.993  20.285   2.630
18809W        W87027  44.499  42.875  11.019
18810W        W87028  37.373  32.750  12.876
18811W        W87029  19.522  36.773   3.212
18812W        W87030   5.276  16.204  13.846
18813W        W87031  31.608  43.171  10.852
18814W        W87032   9.274  22.438   3.357
18815W        W87033  13.376  10.153  13.088
18816W        W87034  32.530  31.856   1.320
18817W        W87035  23.025  40.570   1.366
18818W        W87036  38.582  15.610   5.450
18819W        W87037  11.928   0.394   5.567
18820W        W87038   7.840  19.919  10.619
18821W        W87039   4.303  31.435  11.099
18822W        W87040  14.881  40.988  11.965
18823W        W87041  26.294  39.008  11.277
18824W        W87042  30.540  27.075   4.272
18825W        W87043  10.571  23.125   4.154
18826W        W87044  34.918  37.065  14.906
18827W        W87045  33.567  13.495   3.660
18828W        W87046   2.347  13.721  12.604
18829W        W87047   7.246  27.530   4.123
18830W        W87048  39.312  38.539   4.383
18831W        W87049  27.095  16.618  11.441
18832W        W87050  29.367   6.451  13.361
18833W        W87051  33.399  18.590   1.274
18834W        W87052  41.411  32.392  12.068
18835W        W87053  44.201  16.873  11.114
18836W        W87054   1.814   8.325  14.994
18837W        W87055  42.717  28.122  13.860
18838W        W87056  23.570  11.208  11.466
18839W        W87057  34.989   0.798   4.197
18840W        W87058  41.198  37.756  13.668
18841W        W87059   5.459   0.115   4.506
18842W        W87060   5.193  19.058  12.512
18843W        W87061  12.920  12.302   2.497
18844W        W87062  11.868  17.323  14.337
18845W        W87063  44.891  44.943   0.752
18846W        W87064  15.106  12.956   4.525
18847W        W87065   8.181  20.635   3.798
18848W        W87066  22.245  12.668   0.730
18849W        W87067  33.877  41.054   3.149
18850W        W87068  33.160  24.045  11.273
18851W        W87069  15.110   2.178  13.720
18852W        W87070  32.876  22.195  10.784
18853W        W87071  27.447  37.538   4.159
18854W        W87072  28.974   0.834   4.367
18855W        W87073   0.208  36.417   1.315
18856W        W87074  42.847  19.342  13.035
18857W        W87075  19.099  39.829  14.840
18858W        W87076   1.680  12.820  12.658
18859W        W87077  17.971  15.542   2.732
18860W        W87078   0.059  18.054  11.069
18861W        W87079  43.208  22.131   1.596
18862W        W87080  15.827  13.700   2.677
18863W        W87081   7.086   4.553   2.047
18864W        W87082  40.885  28.161   1.673
18865W        W87083  13.718  26.452  11.653
18866W        W87084   8.983  20.080   4.644
18867W        W87085  17.215   4.088  14.268
18868W        W87086  44.561  22.514   1.270
18869W        W87087  19.470  10.338  11.936
18870W        W87088  13.105  33.478   4.511
18871W        W87089   1.861   2.171   0.516
18872W        W87090  39.830   8.660   1.425
18873W        W87091  17.093  20.678  12.513
18874W        W87092   3.967  21.688  12.507
18875W        W87093  25.145  28.173  13.536
18876W        W87094  40.131  20.797  14.004
18877W        W87095  13.194  13.192  14.378
18878W        W87096  34.300  43.316   0.349
18879W        W87097  31.990   5.994   0.806
18880W        W87098  33.283  37.233  12.405
18881W        W87099  29.733  34.253  11.138
18882W        W87100   9.891   3.384  13.168
18883W        W87101  11.825  41.287   2.247
18884W        W87102  28.821  36.713  11.854
18885W        W87103   7.760  33.882  12.965
18886W        W87104  28.533  13.865   9.914
18887W        W87105  16.667  14.199  12.637
18888W        W87106  14.216  44.896  12.525
18889W        W87107  32.280   0.323  12.564
18890W        W87108  36.831  36.812   1.827
18891W        W87109  38.158  19.215   2.250
18892W        W87110  31.899  20.468  13.413
18893W        W87111   3.453   5.474  13.063
18894W        W87112  35.438  34.697  14.594
18895W        W87113  34.550  39.658  13.640
18896W        W87114  40.286  10.397  11.965
18897W        W87115  38.591  15.152  14.731
18898W        W87116   4.699  15.322   4.675
18899W        W87117  16.451  12.935   5.076
18900W        W87118  41.991  30.174  11.424
18901W        W87119  31.594  17.591   1.866
18902W        W87120  28.322  30.667  11.134
18903W        W87121  23.818   9.547   1.415
18904W        W87122  41.303  30.318   3.296
18905W        W87123  44.243  17.131   2.179
18906W        W87124  28.841  39.767   1.906
18907W        W87125   5.343  35.481  12.914
18908W        W87126   9.111  43.843   2.365
18909W        W87127   6.044  15.346   4.225
18910W        W87128  33.000  25.232  14.008
18911W        W87129   4.319  14.616   2.830
18912W        W87130   6.669  34.996  12.637
18913W        W87131   1.148  30.463  11.618
18914W        W87132  23.783  42.856  11.255
18915W        W87133  30.704  25.657   2.726
18916W        W87134   1.112  25.749  12.468
18917W        W87135  35.997  29.884   3.568
18918W        W87136  25.574  28.404  13.818
18919W        W87137   5.753  26.770   0.403
18920W        W87138  32.118   8.557  13.954
18921W        W87139  27.251   1.312   1.780
18922W        W87140  20.418  38.276  13.903
18923W        W87141   3.367   3.242   0.392
18924W        W87142  33.848  40.886   4.518
18925W        W87143  42.422   3.268  12.145
18926W        W87144  35.371  12.986  11.607
18927W        W87145  26.095  12.160   2.839
18928W        W87146  13.075  33.293  11.675
18929W        W87147  21.828  38.300   5.292
18930W        W87148  25.415  12.732  14.525
18931W        W87149  43.373  35.793  10.598
18932W        W87150  29.383  30.119  13.458
18933W        W87151   0.668   8.929  11.574
18934W        W87152  23.178   2.887  13.806
18935W        W87153  20.603  31.947   1.250
18936W        W87154  18.131  12.538   1.802
18937W        W87155   2.367   7.601   4.437
18938W        W87156   9.208  35.565  11.973
18939W        W87157   8.740  22.056   0.456
18940W        W87158   3.336  44.246   0.491
18941W        W87159  22.881  35.588   5.080
18942W        W87160  37.950  43.005  12.619
18943W        W87161   8.836  33.117  10.924
18944W        W87162  39.805  44.234   3.179
18945W        W87163  40.927  21.930   2.438
18946W        W87164  23.055  44.427  11.752
18947W        W87165   2.271  16.777  12.813
18948W        W87166   7.169  18.160  13.039
18949W        W87167  20.969  19.205   2.095
18950W        W87168  18.547  39.094   0.990
18951W        W87169   7.415  43.456  13.261
18952W        W87170  28.418  26.569  14.748
18953W        W87171  29.911  29.065  12.061
18954W        W87172  36.000   0.561   1.712
18955W        W87173  22.599  41.025   1.736
18956W        W87174  36.080  43.773   0.541
18957W        W87175   5.784  17.043  10.104
18958W        W87176  44.985  19.266   0.876
18959W        W87177  27.517  39.425  11.929
18960W        W87178  35.021  36.165   4.396
18961W        W87179   6.392  34.044   4.596
18962W        W87180  14.482  26.983   1.395
18963W        W87181  18.030  43.895  10.679
18964W        W87182  42.061  13.234  12.440
18965W        W87183  23.575  22.605  11.959
18966W        W87184  15.267  13.542  11.144
18967W        W87185  44.293  33.692   5.037
18968W        W87186  28.928   5.196  12.056
18969W        W87187   0.801  32.858   3.702
18970W        W87188  43.618  31.000   2.332
18971W        W87189  27.408  42.870   0.882
18972W        W87190  19.457  36.231   3.251
18973W        W87191  31.418  21.551   0.257
18974W        W87192  16.762   6.424   3.625
18975W        W87193  40.900  40.902  11.627
18976W        W87194   9.136  20.195  14.321
18977W        W87195  19.325  44.920   2.160
18978W        W87196  21.621  30.131  13.605
18979W        W87197  15.400   2.308   1.222
18980W        W87198  43.849  37.557   3.641
18981W        W87199   7.738  37.945   3.910
18982W        W87200   9.319  38.311   0.072
18983W        W87201  30.656  11.436   2.856
18984W        W87202   8.928  22.671   1.313
18985W        W87203  35.968  40.467  14.408
18986W        W87204  31.940  14.002  11.806
18987W        W87205  29.079  13.692   4.840
18988W        W87206  38.007  11.148   2.187
18989W        W87207  24.745  20.191  10.776
18990W        W87208  35.050  20.140  10.959
18991W        W87209  42.363  17.323  10.917
18992W        W87210  14.320  14.049  12.021
18993W        W87211  36.557  23.002  13.888
18994W        W87212  26.551  16.144  10.814
18995W        W87213  11.582  37.428  11.549
18996W        W87214  24.818   4.655   1.986
18997W        W87215  14.543  19.213   2.778
18998W        W87216  39.557   3.647  12.542
18999W        W87217  15.208  30.944  13.369
19000W        W87218  32.866  44.462  10.494
19001W        W87219  11.096   5.220  14.500
19002W        W87220  42.820  27.599  14.985
19003W        W87221   1.382  27.345  14.365
19004W        W87222  18.634   8.827  13.108
19005W        W87223  38.583  38.303  11.389
19006W        W87224   7.165  12.429   2.828
19007W        W87225  28.054  16.871  12.181
19008W        W87226  38.876  34.399  12.808
19009W        W87227  27.631   3.433   0.346
19010W        W87228  35.672   3.728  12.020
19011W        W87229  39.479  35.138   2.354
19012W        W87230  34.650  33.255  13.417
19013W        W87231  19.762  36.303   2.343
19014W        W87232   1.320   2.035  12.729
19015W        W87233   0.706   3.858  11.487
19016W        W87234  41.258  12.727   2.887
19017W        W87235   6.359   8.944  13.782
19018W        W87236  14.010  23.080  13.481
19019W        W87237  21.040  29.178   1.410
19020W        W87238  42.978  21.719   3.731
19021W        W87239  15.801   2.943  13.909
19022W        W87240  12.768  31.136  11.865
19023W        W87241  10.615  38.972  14.491
19024W        W87242  37.986   7.611   1.708
19025W        W87243   1.277  41.299   1.315
19026W        W87244   3.791  19.011  10.759
19027W        W87245  15.167   7.242   0.924
19028W        W87246  14.649  35.835  14.020
19029W        W87247  35.896  12.196   0.334
19030W        W87248  25.673  36.085  13.935
19031W        W87249  21.006  22.408  10.247
19032W        W87250  40.452  34.625   2.433
19033W        W87251   9.687  11.257  13.825
19034W        W87252  23.611  41.820   2.265
19035W        W87253  43.104  42.491  14.381
19036W        W87254  25.172  39.559  13.624
19037W        W87255  14.100   0.216  14.907
19038W        W87256  37.478  35.933  13.293
19039W        W87257  29.327  31.027  12.641
19040W        W87258  43.749  25.977  14.901
19041W        W87259  36.849  13.665   2.404
19042W        W87260  34.306   8.283   1.763
19043W        W87261   3.666  33.546   4.280
19044W        W87262   9.397   6.918   3.593
19045W        W87263  15.072   6.401  11.295
19046W        W87264  21.201  17.987   3.329
19047W        W87265  41.867  20.430  13.525
19048W        W87266  20.227   0.277  13.394
19049W        W87267  24.688  14.196  10.336
19050W        W87268  36.945   5.885   0.750
19051W        W87269   7.956  37.997  13.322
19052W        W87270   3.249  26.527   4.805
19053W        W87271  35.889  12.516   3.773
19054W        W87272  21.630  42.284  10.545
19055W        W87273  14.664  25.452   4.586
19056W        W87274  36.027  30.467  12.816
19057W        W87275   5.758  11.345  11.431
19058W        W87276   2.213  31.148   4.507
19059W        W87277  41.379   0.142   2.748
19060W        W87278  23.984  36.006  11.181
19061W        W87279  33.039  14.466  12.879
19062W        W87280   0.480  34.464  14.408
19063W        W87281   6.762  44.307  12.351
19064W        W87282   4.896   5.430   4.586
19065W        W87283  22.139  21.397   1.046
19066W        W87284   6.912  12.103  14.078
19067W        W87285  14.189  16.603  13.452
19068W        W87286  35.262  43.836  12.505
19069W        W87287  42.677  22.588   5.019
19070W        W87288   2.961  41.923  12.921
19071W        W87289  28.514  43.234  12.378
19072W        W87290   7.963  15.552   9.962
19073W        W87291   1.796  43.491   0.081
19074W        W87292  43.113  43.517  12.925
19075W        W87293  43.275  23.155   1.324
19076W        W87294  11.598  38.430   2.355
19077W        W87295  25.735  16.637   3.961
19078W        W87296  23.748  14.510  14.300
19079W        W87297  11.853  25.625   3.187
19080W        W87298  11.193  17.785   9.578
19081W        W87299   6.353   7.617  13.484
19082W        W87300  40.003  17.725   3.226
19083W        W87301   7.413  25.829   1.326
19084W        W87302  17.855   4.058  12.138
19085W        W87303  28.627  22.250  14.945
19086W        W87304  27.487  24.187  12.988
19087W        W87305  33.444  30.342  12.594
19088W        W87306  37.593   8.925  14.889
19089W        W87307  22.715  28.217  10.284
19090W        W87308  30.707  30.127   2.390
19091W        W87309  43.375  23.041   3.760
19092W        W87310  23.100  13.139  14.491
19093W        W87311   9.158   7.317   2.885
19094W        W87312  31.306  44.477   4.996
19095W        W87313  19.089  41.563  13.229
19096W        W87314  35.194  43.446  14.551
19097W        W87315  21.086  11.260  14.938
19098W        W87316  25.034   7.352  10.686
19099W        W87317  35.073  14.387   1.373
19100W        W87318  44.965  31.967   0.869
19101W        W87319  36.446  41.492   2.420
19102W        W87320  43.913  19.688  10.997
19103W        W87321   2.252   5.335  10.712
19104W        W87322   5.153  36.345   4.064
19105W        W87323  44.185  39.425   2.359
19106W        W87324  38.509  13.594  13.907
19107W        W87325  17.623   3.378   2.612
19108W        W87326  41.937  27.985  12.157
19109W        W87327  22.977  40.133   2.685
19110W        W87328   9.202  20.808   2.817
19111W        W87329  30.880  19.151   1.835
19112W        W87330   8.085  33.464  12.676
19113W        W87331  24.197  21.550   4.621
19114W        W87332  10.768  17.251   3.231
19115W        W87333  42.267  31.721  14.288
19116W        W87334  13.221   6.415   0.279
19117W        W87335   9.428  22.941   3.251
19118W        W87336  41.274   5.010  10.802
19119W        W87337  18.715   9.121  12.600
19120W        W87338  36.667  40.825   4.679
19121W        W87339  20.612   8.862   3.474
19122W        W87340   2.745  30.248   4.946
19123W        W87341  28.134  11.239   4.885
19124W        W87342  23.373   4.512  11.727
19125W        W87343  36.535  26.116   0.920
19126W        W87344  36.800  39.494  11.233
19127W        W87345  39.348  16.994  11.637
19128W        W87346  37.201  42.386  12.822
19129W        W87347  28.856  39.016  12.817
19130W        W87348  21.713   5.098   0.244
19131W        W87349  21.606  16.506   2.046
19132W        W87350  39.089  22.109   0.814
19133W        W87351  22.653   5.315  12.430
19134W        W87352  42.270   4.265   4.561
19135W        W87353  43.822   3.465   4.054
19136W        W87354  42.600  39.079  13.141
19137W        W87355  13.741  26.580   1.647
19138W        W87356  28.618  30.102  14.723
19139W        W87357  20.057  29.214  11.495
19140W        W87358  30.528  15.436   5.034
19141W        W87359   4.218  43.346   1.459
19142W        W87360  38.201  11.840   1.396
19143W        W87361   7.821  42.039   1.347
19144W        W87362  23.109  30.347   1.422
19145W        W87363   1.898  13.852  14.893
19146W        W87364   6.918  19.315   3.736
19147W        W87365  37.484  24.725   4.603
19148W        W87366  15.487  27.700  11.974
19149W        W87367   4.326  17.122   4.227
19150W        W87368  24.716  24.780   3.808
19151W        W87369  19.338  28.868  14.860
19152W        W87370  34.208   5.201  14.376
19153W        W87371  23.647  29.174   1.236
19154W        W87372  29.898  38.255   0.030
19155W        W87373  13.019  34.010   0.347
19156W        W87374  15.106  28.468   4.503
19157W        W87375   8.253  22.326  11.734
19158W        W87376  26.122   0.330   4.659
19159W        W87377  40.097   2.761   0.855
19160W        W87378  36.381  11.852  11.335
19161W        W87379  44.987  18.193   2.734
19162W        W87380  23.730  10.363  12.125
19163W        W87381  13.649   4.861  11.774
19164W        W87382  14.655  24.229  14.963
19165W        W87383  22.589  23.703  13.796
19166W        W87384  31.946   3.926  14.866
19167W        W87385  40.466  15.382  12.209
19168W        W87386  32.530  25.179   2.059
19169W        W87387  40.348  21.513   3.949
19170W        W87388  34.619  15.212   4.404
19171W        W87389  19.253  22.962  11.086
19172W        W87390   3.830  18.640  14.978
19173W        W87391  17.515   2.226  12.477
19174W        W87392   7.361  43.427  11.448
19175W        W87393  42.049   0.842  13.596
19176W        W87394  21.599  30.160   2.396
19177W        W87395   7.929  44.448   5.037
19178W        W87396  33.389  13.828  14.809
19179W        W87397  39.567  40.989  13.315
19180W        W87398  32.519  37.228  12.305
19181W        W87399  19.211   4.297  11.195
19182W        W87400  23.058   9.762   0.332
19183W        W87401  22.236  24.558   0.947
19184W        W87402  25.590  34.339   1.878
19185W        W87403   5.662  34.984  11.276
19186W        W87404  14.243   1.375  12.932
19187W        W87405  10.134  23.818  11.163
19188W        W87406  28.394   9.572  13.974
19189W        W87407  40.542  22.656   3.166
19190W        W87408  14.340  18.180   0.465
19191W        W87409  26.529   7.717  12.840
19192W        W87410  10.008  22.601   0.058
19193W        W87411   0.815  19.004   3.355
19194W        W87412  32.163  38.039   3.338
19195W        W87413  25.041   4.047  14.954
19196W        W87414  10.110  18.969  11.512
19197W        W87415  12.353  36.662   1.355
19198W        W87416  16.043  28.871  11.578
19199W        W87417  37.092  39.518   0.693
19200W        W87418  28.048  29.609   2.913
19201W        W87419   4.573  30.242  13.466
19202W        W87420  22.303  35.085  13.980
19203W        W87421   6.623  43.296  12.629
19204W        W87422  20.524  44.891   2.677
19205W        W87423  14.272  27.090  12.639
19206W        W87424  22.364  27.185   1.841
19207W        W87425  16.096   4.847   4.921
19208W        W87426  34.489  43.374  14.039
19209W        W87427  11.694   8.896   2.922
19210W        W87428  27.598  35.724   1.772
19211W        W87429  40.037  28.678   0.995
19212W        W87430  41.834  37.334   1.728
19213W        W87431  35.451  36.836  13.237
19214W        W87432   1.149  13.673  10.446
19215W        W87433  39.062  15.866  10.858
19216W        W87434   8.083   4.241  14.594
19217W        W87435   7.604  19.228  11.893
19218W        W87436   1.427   9.220   4.553
19219W        W87437  11.618  22.053   1.366
19220W        W87438   7.924  21.045   1.150
19221W        W87439  16.362  31.965  12.160
19222W        W87440  41.472  24.470  13.973
19223W        W87441  13.661  44.447   1.457
19224W        W87442   6.937  21.291   3.564
19225W        W87443   8.763  23.039   3.055
19226W        W87444  18.619  18.286   2.965
19227W        W87445  30.565  41.778   0.921
19228W        W87446  11.806  35.442   1.763
19229W        W87447  26.116   2.084  13.459
19230W        W87448  18.227  25.775  13.575
19231W        W87449  42.542   6.946   3.292
19232W        W87450  21.749  44.676   4.111
19233W        W87451   1.931  40.339  14.937
19234W        W87452   8.842  26.527  13.959
19235W        W87453  32.576  14.135  12.946
19236W        W87454   3.290   5.751   4.103
19237W        W87455  11.819  20.977  11.698
19238W        W87456   5.177  20.576  11.709
19239W        W87457   3.819  38.235  12.848
19240W        W87458  40.422  25.582   1.284
19241W        W87459  19.502  10.155   0.275
19242W        W87460   7.713  31.375  10.741
19243W        W87461   3.175  18.530   0.575
19244W        W87462  35.832  15.937  11.627
19245W        W87463  35.564  31.517   4.358
19246W        W87464  19.039  10.835   3.007
19247W        W87465  20.418   0.829  11.686
19248W        W87466  25.166   9.204   1.813
19249W        W87467  19.733  26.987   1.788
19250W        W87468  25.752  11.833   3.031
19251W        W87469  34.989  22.924   4.098
19252W        W87470  23.190  36.370  10.436
19253W        W87471   3.925  14.607  14.020
19254W        W87472  26.654  16.564  14.387
19255W        W87473  29.344  23.155   3.609
19256W        W87474   5.111  39.249   0.958
19257W        W87475  35.591  28.075  12.354
19258W        W87476  36.097  31.045   1.459
19259W        W87477  40.483  14.235   0.620
19260W        W87478  34.170  43.420   2.820
19261W        W87479   0.706  26.038  14.864
19262W        W87480  19.062  42.911   2.255
19263W        W87481  19.798   1.243  14.538
19264W        W87482  24.573  35.446   4.973
19265W        W87483  21.110  17.143   3.524
19266W        W87484  22.316  15.800  13.393
19267W        W87485  28.548  35.407   1.655
19268W        W87486  30.960   2.983   1.828
19269W        W87487  26.831  21.426   4.119
19270W        W87488  23.210  13.869  12.578
19271W        W87489  26.654  41.266   3.380
19272W        W87490   0.379  38.923  14.540
19273W        W87491  22.253  37.443   3.638
19274W        W87492  36.897   9.722   4.258
19275W        W87493  17.272   4.448   0.713
19276W        W87494  13.854   8.206   0.358
19277W        W87495  13.518  35.531   1.193
19278W        W87496  27.078  36.495  10.489
19279W        W87497  37.706  12.221   1.836
19280W        W87498  41.517   0.952   4.501
19281W        W87499  38.077   6.295   1.392
19282W        W87500  21.192  31.585   0.219
19283W        W87501  39.606  14.568   0.395
19284W        W87502  22.504  44.464  10.348
19285W        W87503  25.721  26.485   2.771
19286W        W87504   8.451  36.541  11.606
19287W        W87505  41.400  28.941  14.251
19288W        W87506  28.616  11.789  13.533
19289W        W87507  39.422   8.199  13.035
19290W        W87508   6.180  32.223  11.114
19291W        W87509  20.435  11.788   3.193
19292W        W87510  43.228  44.503  13.859
19293W        W87511   8.951  15.302  13.099
19294W        W87512  31.568  14.839   5.070
19295W        W87513  26.041   3.758   0.066
19296W        W87514  35.909  19.998   1.352
19297W        W87515  19.146  42.768  11.638
19298W        W87516  24.574  26.458  13.835
19299W        W87517  30.171  12.896  13.960
19300W        W87518  10.761  22.172   1.644
19301W        W87519  15.175  19.285   0.998
19302W        W87520   2.424   8.704  14.611
19303W        W87521   3.347   5.932   1.760
19304W        W87522  14.960   9.239   4.503
19305W        W87523  19.884  15.229  12.405
19306W        W87524  25.215   0.854   0.669
19307W        W87525  32.953  31.057   1.306
19308W        W87526  16.189  22.630   2.305
19309W        W87527  25.011  37.922  11.097
19310W        W87528  17.830  15.690   0.665
19311W        W87529   1.731   9.797  13.102
19312W        W87530   4.714  38.101  14.295
19313W        W87531  15.261  17.657   4.123
19314W        W87532  23.633  13.828  13.518
19315W        W87533  35.573  34.992  10.623
19316W        W87534  26.653  27.243   1.075
19317W        W87535  23.072   5.958   0.216
19318W        W87536  31.635  29.639  12.506
19319W        W87537  32.612   6.899  12.839
19320W        W87538  22.062  21.734  12.542
19321W        W87539  27.058  17.318   4.160
19322W        W87540   5.190  40.039  13.287
19323W        W87541  41.206   1.670  10.311
19324W        W87542  11.483  22.267   3.454
19325W        W87543  42.483  19.524  14.350
19326W        W87544  15.298  34.144   4.312
19327W        W87545  41.766  26.475   2.438
19328W        W87546  23.568  27.561   1.172
19329W        W87547  33.127  38.660   0.739
19330W        W87548  30.042  12.539  13.113
19331W        W87549  16.846  33.830   3.829
19332W        W87550  41.126  10.670   3.565
19333W        W87551  17.994   3.912  14.399
19334W        W87552  30.425   5.281   0.519
19335W        W87553   3.603   9.436   4.163
19336W        W87554  10.140  43.736  12.579
19337W        W87555  35.701  42.414  11.471
19338W        W87556   6.684  27.362   4.767
19339W        W87557  26.179  32.636  12.621
19340W        W87558  29.814  23.463   4.212
19341W        W87559  13.486  26.277  11.190
19342W        W87560  23.618  42.844  11.753
19343W        W87561   2.493  10.173   4.660
19344W        W87562  17.634  35.575  13.360
19345W        W87563  37.980  33.354   1.336
19346W        W87564  33.361   4.319   0.937
19347W        W87565  29.505   7.384   2.766
19348W        W87566  16.835  42.930  12.132
19349W        W87567   4.018   4.244   3.129
19350W        W87568  12.629  42.346   2.372
19351W        W87569   0.478  29.596   1.811
19352W        W87570  29.194  42.031  11.946
19353W        W87571   1.991  43.274   4.608
19354W        W87572   6.875  30.971  11.139
19355W        W87573  28.346  30.418  13.035
19356W        W87574   5.382  40.830  11.534
19357W        W87575  40.344  23.636  11.238
19358W        W87576  25.472  22.476  14.429
19359W        W87577  41.754   0.269   3.088
19360W        W87578  41.050  13.868   3.597
19361W        W87579  17.599  33.092   0.831
19362W        W87580  33.401   3.290   4.966
19363W        W87581  26.836  43.425  13.875
19364W        W87582  11.690   9.352   2.672
19365W        W87583   9.590  32.693   4.030
19366W        W87584  42.531   8.940   1.154
19367W        W87585  42.974  35.602   3.393
19368W        W87586   1.741  21.249  12.430
19369W        W87587  27.474  14.822  13.025
19370W        W87588  17.831  34.503  13.486
19371W        W87589   4.462  39.474  11.766
19372W        W87590   4.112  44.827  13.968
19373W        W87591  26.017  25.530  14.826
19374W        W87592  16.673  34.292   2.994
19375W        W87593  24.418  19.670  13.824
19376W        W87594  26.703   7.347   0.177
19377W        W87595  11.666  31.753  10.984
19378W        W87596  31.657  30.167  11.575
19379W        W87597  29.912  29.405  13.868
19380W        W87598  23.014  29.461  11.528
19381W        W87599  44.982   8.326   0.481
19382W        W87600  22.194   1.345   2.379
19383W        W87601  39.774  14.741  13.480
19384W        W87602  44.323  44.826  13.690
19385W        W87603   1.860   0.887   3.036
19386W        W87604  18.136   6.675   0.034
19387W        W87605   6.741  40.439  10.719
19388W        W87606  32.399  38.283   2.356
19389W        W87607   2.955  13.853   3.215
19390W        W87608  15.154  29.044   1.870
19391W        W87609  34.776  43.540   3.709
19392W        W87610  26.558   1.955  14.237
19393W        W87611   6.498  43.564  14.547
19394W        W87612  41.804  39.026   4.938
19395W        W87613   3.866  28.291  11.622
19396W        W87614  25.730   0.854   0.624
19397W        W87615  20.683  23.617   1.304
19398W        W87616  35.450  41.295  13.864
19399W        W87617   2.862  23.027   2.349
19400W        W87618  25.527  21.540  14.550
19401W        W87619  15.393  31.937  10.759
19402W        W87620  38.919   0.007  10.503
19403W        W87621   6.894  40.446   3.304
19404W        W87622  14.279  30.576  12.411
19405W        W87623   7.481  12.312   4.537
19406W        W87624  10.212  23.522   1.885
19407W        W87625  34.678   5.826  12.413
19408W        W87626  14.752   9.701  10.902
19409W        W87627   2.161   1.335   2.428
19410W        W87628   6.375  24.434  11.517
19411W        W87629  41.716  41.339   3.269
19412W        W87630  11.122  37.412   0.232
19413W        W87631   7.625  40.612  14.835
19414W        W87632  12.186  15.284   1.460
19415W        W87633   9.503  27.091  13.150
19416W        W87634  39.133   5.547  10.505
19417W        W87635   1.886   8.291   0.530
19418W        W87636  27.637  25.258  14.373
19419W        W87637  22.786  15.230   3.439
19420W        W87638   6.019  40.915   0.046
19421W        W87639  21.516  10.725  14.811
19422W        W87640  31.911  11.720  10.733
19423W        W87641  37.942   1.716  14.811
19424W        W87642  42.803  10.669  11.141
19425W        W87643   3.967  34.940  12.330
19426W        W87644  17.285  44.751   0.386
19427W        W87645  29.364  36.985  14.916
19428W        W87646  10.884  24.518   0.830
19429W        W87647   4.881  44.426  12.064
19430W        W87648   5.022  12.689   0.414
19431W        W87649   2.330  14.162   3.612
19432W        W87650  39.574   7.776  10.797
19433W        W87651  14.860  36.510  12.922
19434W        W87652  33.983  20.546   2.502
19435W        W87653  41.401  31.011  14.309
19436W        W87654  37.107  23.731  13.946
19437W        W87655  36.594  43.885   0.722
19438W        W87656   2.510  20.860  12.118
19439W        W87657   0.080  20.092   0.350
19440W        W87658   9.956   3.196  11.678
19441W        W87659   4.146  24.136   3.422
19442W        W87660  20.145  33.100   1.590
19443W        W87661  30.846  11.897  12.546
19444W        W87662  18.297  16.565   0.858
19445W        W87663  22.256   7.696  11.942
19446W        W87664  19.515  40.469   0.237
19447W        W87665  42.819   9.448  10.795
19448W        W87666  13.009  30.093   2.621
19449W        W87667  20.628  27.720   3.556
19450W        W87668  32.709  10.943   1.728
19451W        W87669  36.569  10.584  11.482
19452W        W87670  11.697  25.703  12.618
19453W        W87671  33.105  21.136   1.187
19454W        W87672   9.426  20.116   0.258
19455W        W87673   1.040  25.029   1.820
19456W        W87674  13.908  22.592   2.621
19457W        W87675  15.169  44.260   0.269
19458W        W87676  15.238  38.818  12.429
19459W        W87677  40.621  20.740  14.767
19460W        W87678  22.580  24.977  11.266
19461W        W87679  28.729  35.896   3.079
19462W        W87680  40.491   9.252   0.454
19463W        W87681  17.204  23.713  11.970
19464W        W87682  11.257  30.986  14.788
19465W        W87683  33.112  26.285   3.736
19466W        W87684  25.400  37.531   3.636
19467W        W87685   6.380  25.145   5.362
19468W        W87686  32.242  27.980   0.428
19469W        W87687  22.984  42.945  14.399
19470W        W87688  12.160  29.200   0.931
19471W        W87689   4.325  38.065  12.878
19472W        W87690   9.414  43.822   4.549
19473W        W87691  30.177  12.297   1.743
19474W        W87692  12.767   8.425   2.765
19475W        W87693  23.961  42.417  13.311
19476W        W87694   7.761  13.581   1.396
19477W        W87695   7.712  43.223  10.721
19478W        W87696  18.794  25.452  12.117
19479W        W87697  29.473  40.987   0.861
19480W        W87698   9.902  17.619  12.093
19481W        W87699  13.886   5.256   0.302
19482W        W87700  14.559  17.607  12.521
19483W        W87701  37.854  15.829   4.138
19484W        W87702  19.136   1.890  11.350
19485W        W87703   6.130  43.292   1.801
19486W        W87704  43.819   4.348   2.678
19487W        W87705  33.955  34.057   4.122
19488W        W87706   6.678   3.531   1.726
19489W        W87707  23.779  44.270   4.486
19490W        W87708  35.014   9.944  13.814
19491W        W87709  23.191   2.203   3.629
19492W        W87710  42.628  29.614   2.484
19493W        W87711  26.873  18.250  10.373
19494W        W87712  22.364  43.571   1.674
19495W        W87713  22.188  23.240   1.895
19496W        W87714   1.987  41.680   0.206
19497W        W87715  36.298  14.788  12.288
19498W        W87716  18.727   4.315   3.287
19499W        W87717  36.473  29.592  13.838
19500W        W87718  41.814  35.558  13.533
19501W        W87719  12.029   3.913   2.648
19502W        W87720  22.584  39.383   0.939
19503W        W87721  37.779  24.432   1.432
19504W        W87722  36.533  28.690  13.597
19505W        W87723   7.426  16.724   1.670
19506W        W87724  20.958  32.535  11.171
19507W        W87725   5.992   7.862  14.474
19508W        W87726  27.969   0.949  10.838
19509W        W87727  41.553  18.274   2.861
19510W        W87728   0.046  44.716  10.940
19511W        W87729  22.960   3.757   2.313
19512W        W87730  28.664  44.368  13.261
19513W        W87731  34.186  37.803  11.994
19514W        W87732  41.024  29.002  13.416
19515W        W87733  10.196  37.023  14.226
19516W        W87734  17.557  37.956   1.228
19517W        W87735  41.714  16.829   0.490
19518W        W87736  26.141   2.826  12.552
19519W        W87737  41.089  10.377   4.147
19520W        W87738  23.964  40.561   0.767
19521W        W87739  14.020  41.380  11.963
19522W        W87740  29.186   3.873  10.199
19523W        W87741  11.086  32.440   1.519
19524W        W87742  14.990  11.930  12.794
19525W        W87743  28.094  22.652   4.489
19526W        W87744   1.900  26.256   3.768
19527W        W87745  13.297   6.625  11.132
19528W        W87746  12.111  42.057  14.535
19529W        W87747  41.895  18.510  11.538
19530W        W87748  23.218   0.385   0.344
19531W        W87749   1.320  17.262   2.289
19532W        W87750  42.091  21.939  13.005
19533W        W87751  13.923  18.248   3.274
19534W        W87752  20.809  33.516   4.696
19535W        W87753   9.098  10.047  10.347
19536W        W87754  29.523  11.700   4.558
19537W        W87755   9.635  41.912  11.014
19538W        W87756  16.330  13.189   4.076
19539W        W87757  16.252  18.297  11.135
19540W        W87758   2.007  39.532  13.877
19541W        W87759   7.508  12.658   2.417
19542W        W87760  10.278   9.659  11.692
19543W        W87761  20.177  25.440   4.337
19544W        W87762  27.049   4.826   0.736
19545W        W87763  11.694  42.998   4.604
19546W        W87764  31.454  16.819  11.532
19547W        W87765  33.187  41.005  13.520
19548W        W87766  35.269  23.615  13.794
19549W        W87767  38.755  29.859   0.385
19550W        W87768  14.044  21.976  11.403
19551W        W87769  15.974  26.111  11.629
19552W        W87770  10.599  27.116  12.528
19553W        W87771  42.844   8.270   4.489
19554W        W87772  36.767  17.622   1.780
19555W        W87773  12.064  29.914  12.956
19556W        W87774  43.894  28.600   4.485
19557W        W87775  39.542  25.652  13.083
19558W        W87776  18.768  40.882  12.501
19559W        W87777   8.487  14.862   4.115
19560W        W87778  44.456  41.997   0.583
19561W        W87779  28.881  20.953   1.235
19562W        W87780   9.874  36.291   0.828
19563W        W87781  22.963  40.428  10.750
19564W        W87782  10.849  23.603   2.690
19565W        W87783  11.144   3.909   0.305
19566W        W87784   4.716  32.188  10.036
19567W        W87785  21.563  19.616  12.572
19568W        W87786  29.387  22.663  11.844
19569W        W87787  17.449   0.302  14.397
19570W        W87788  44.601  38.924   9.908
19571W        W87789  42.935  16.775   1.117
19572W        W87790  41.031   9.149  13.964
19573W        W87791  21.812  30.528   1.836
19574W        W87792   0.577  37.929  11.630
19575W        W87793  40.697   2.953   9.987
19576W        W87794  39.211  11.217   9.995
19577W        W87795  31.826  13.889   4.955
19578W        W87796  19.228  38.710  12.036
19579W        W87797  31.083   1.463   1.877
19580W        W87798  22.490  40.144  13.892
19581W        W87799  26.560   5.443   0.813
19582W        W87800  41.101  32.335  12.859
19583W        W87801  23.079  38.853  11.134
19584W        W87802  11.794  24.147   4.896
19585W        W87803  15.659  27.722   5.076
19586W        W87804  15.790  15.241  11.660
19587W        W87805   4.361  24.540   0.810
19588W        W87806  27.494   7.552  14.536
19589W        W87807  28.657  20.746   3.618
19590W        W87808  12.791  40.842  12.120
19591W        W87809  40.873   9.089   0.765
19592W        W87810  42.819  21.307  14.279
19593W        W87811  27.003   1.176   2.425
19594W        W87812  31.888  16.277  13.961
19595W        W87813  30.018  44.436  12.698
19596W        W87814  13.902  34.020   3.711
19597W        W87815  32.384  18.116  12.674
19598W        W87816  33.659  33.474  14.806
19599W        W87817  16.181  44.298  13.653
19600W        W87818  30.677   1.277   0.382
19601W        W87819  16.010  16.504   3.732
19602W        W87820  22.288   7.042   4.145
19603W        W87821  22.177  11.648  13.851
19604W        W87822  21.149  11.408  12.005
19605W        W87823   4.388  43.914   4.065
19606W        W87824  39.252  22.633   4.207
19607W        W87825   9.871   6.921  13.764
19608W        W87826  31.218  16.761   5.056
19609W        W87827  44.061  24.062  13.293
19610W        W87828  11.329  37.459   0.713
19611W        W87829  13.000  44.066   1.497
19612W        W87830  34.903  17.640   2.844
19613W        W87831  38.818  19.188   1.693
19614W        W87832   2.904  11.727  11.882
19615W        W87833  32.908  42.826  14.504
19616W        W87834  44.386   0.666   3.639
19617W        W87835  31.906  37.165   0.777
19618W        W87836  37.098  15.539  11.931
19619W        W87837  43.360  36.443  12.418
19620W        W87838  17.232  27.897  12.014
19621W        W87839   5.190  38.839   2.640
19622W        W87840   8.632  40.496  14.389
19623W        W87841   3.324  26.068  12.493
19624W        W87842  13.084  27.045  10.555
19625W        W87843  28.553  12.996  11.477
19626W        W87844   0.780   8.725  11.109
19627W        W87845  43.980  22.643  13.923
19628W        W87846   2.454  39.768   2.739
19629W        W87847   4.701   3.766   4.685
19630W        W87848  18.669  22.833   4.023
19631W        W87849   0.418  40.284  13.537
19632W        W87850  29.133  12.119   0.371
19633W        W87851  35.439  32.365  12.287
19634W        W87852  43.749  17.321   0.455
19635W        W87853   7.656   2.750   4.412
19636W        W87854  31.196   1.433   2.688
19637W        W87855  11.653  35.692  11.081
19638W        W87856  41.109  16.114   4.311
19639W        W87857  19.291  22.529   1.352
19640W        W87858  14.147  36.433  14.650
19641W        W87859  20.179   2.972  12.443
19642W        W87860  37.812  30.007   0.608
19643W        W87861  21.547  17.227   1.232
19644W        W87862  21.417  30.539   0.857
19645W        W87863  21.486  12.791  11.098
19646W        W87864  15.256  16.303  12.809
19647W        W87865  32.972  27.520  13.472
19648W        W87866  26.680  17.730   2.718
19649W        W87867  22.717  11.839   0.766
19650W        W87868   8.816   7.600   1.635
19651W        W87869   0.562  11.024  13.968
19652W        W87870   8.579  18.680   3.254
19653W        W87871   3.147  26.613   0.302
19654W        W87872  27.328  39.399   2.341
19655W        W87873  22.763  39.342   4.809
19656W        W87874   9.009  22.100   2.330
19657W        W87875  27.090  11.212   3.233
19658W        W87876  10.731  42.806   4.393
19659W        W87877  33.930   1.389   3.730
19660W        W87878  43.749  13.572  14.910
19661W        W87879   3.319  34.684  12.593
19662W        W87880   1.445  35.141  11.753
19663W        W87881  35.902  29.744  13.954
19664W        W87882  14.123  29.909   3.692
19665W        W87883  23.546  27.420   0.680
19666W        W87884  41.594  13.867   2.827
19667W        W87885  42.450  33.063   0.340
19668W        W87886  16.653   3.220   3.664
19669W        W87887  12.792  11.146  13.792
19670W        W87888  35.331  28.881  14.639
19671W        W87889  20.099   6.470  13.095
19672W        W87890   2.039  11.173   0.807
19673W        W87891  28.990  28.085   2.690
19674W        W87892  26.003  17.841   4.806
19675W        W87893  33.685  33.276  13.310
19676W        W87894  24.624  43.760  10.763
19677W        W87895   8.442  39.989   2.314
19678W        W87896  40.630  33.882  12.270
19679W        W87897   1.195   1.171   1.324
19680W        W87898   5.026  36.464  14.013
19681W        W87899  27.167  40.471   3.311
19682W        W87900  14.344  22.645   4.561
19683W        W87901  15.779  11.325   4.646
19684W        W87902   3.335  44.623  12.001
19685W        W87903   9.410   0.784  13.437
19686W        W87904  20.627  36.462  12.564
19687W        W87905  14.272  25.466   0.865
19688W        W87906  34.733  27.125   4.138
19689W        W87907  35.207  21.051  11.621
19690W        W87908  42.961   9.810   2.189
19691W        W87909   5.706   4.365  12.151
19692W        W87910  20.997  28.022   1.241
19693W        W87911  21.410  15.631   3.203
19694W        W87912  34.039   5.370   1.561
19695W        W87913  32.555  36.092  10.693
19696W        W87914  31.752  12.765  10.724
19697W        W87915  40.783  12.548  13.543
19698W        W87916  10.456  29.557  10.453
19699W        W87917  17.594  29.909  11.059
19700W        W87918  20.722  37.859   4.553
19701W        W87919  25.664  10.823   2.298
19702W        W87920   1.228  19.768  14.366
19703W        W87921  29.955   7.052  12.426
19704W        W87922  13.684  26.207   4.164
19705W        W87923  43.731  40.075   1.327
19706W        W87924  34.597  16.689   0.276
19707W        W87925  19.286  12.244   3.498
19708W        W87926  25.392  41.911   3.701
19709W        W87927  38.490  16.531   2.781
19710W        W87928   2.624  16.940   0.462
19711W        W87929   7.601  13.368  13.053
19712W        W87930  13.640   3.845   0.298
19713W        W87931   3.206   4.185  14.501
19714W        W87932  24.895  29.100  11.953
19715W        W87933  30.599  24.436   1.914
19716W        W87934  16.297  42.063   4.211
19717W        W87935  43.850  33.402  14.061
19718W        W87936  41.846  14.208  13.916
19719W        W87937  30.000  43.760   3.625
19720W        W87938  25.802  44.348   4.648
19721W        W87939  28.383   7.723  14.129
19722W        W87940  18.643   7.142  12.980
19723W        W87941  33.208  16.074  14.476
19724W        W87942  20.753  33.141   3.155
19725W        W87943   5.853  40.538  14.731
19726W        W87944  26.625  22.483  11.576
19727W        W87945  42.740  21.233   1.203
19728W        W87946  26.677   5.078  14.987
19729W        W87947   6.918  33.160  12.136
19730W        W87948  24.611   7.141  14.680
19731W        W87949  23.614   0.014  14.928
19732W        W87950  12.249  17.099   3.643
19733W        W87951  38.433  19.292   0.750
19734W        W87952  16.910  21.322   4.152
19735W        W87953   6.784  38.418  14.727
19736W        W87954  24.968  11.429   2.467
19737W        W87955  35.744   9.861  11.483
19738W        W87956  29.669  11.274  12.933
19739W        W87957  29.237  16.243   0.835
19740W        W87958   1.892  40.455   4.086
19741W        W87959   3.767  22.745   3.007
19742W        W87960  23.259  26.616   0.798
19743W        W87961  43.339  31.444  11.667
19744W        W87962  29.065   9.333   3.602
19745W        W87963  23.903  34.057  10.973
19746W        W87964  31.884  29.190   5.182
19747W        W87965  19.678  14.335   1.658
19748W        W87966   7.709  20.819   3.043
19749W        W87967  40.602  38.247   1.808
19750W        W87968  23.684  36.842  14.861
19751W        W87969  41.370  28.470  14.458
19752W        W87970  42.904  39.254   4.603
19753W        W87971  12.011  36.799   0.322
19754W        W87972  12.167  16.350   4.921
19755W        W87973  22.613   1.550  10.689
19756W        W87974  34.101  37.407  13.313
19757W        W87975  27.146   8.349  12.060
19758W        W87976  35.178  42.942  12.001
19759W        W87977   3.363   5.328  14.068
19760W        W87978  40.776  11.797  12.468
19761W        W87979  38.996  18.537   0.931
19762W        W87980  42.992   6.937   2.710
19763W        W87981  44.916  28.559   4.031
19764W        W87982  24.080  23.409   5.016
19765W        W87983  20.703  33.035  13.990
19766W        W87984  11.061  42.044  14.431
19767W        W87985  38.781  44.594  10.213
19768W        W87986  37.014  29.517   2.080
19769W        W87987  25.557  15.208   5.005
19770W        W87988  39.485  34.080   4.282
19771W        W87989  44.068  13.522  12.855
19772W        W87990  40.279  17.448  14.629
19773W        W87991  27.953  29.953   1.966
19774W        W87992  43.117   1.297  11.383
19775W        W87993  25.127  33.793   2.317
19776W        W87994  26.607  24.799  12.877
19777W        W87995   7.251  41.542  11.790
19778W        W87996   1.953  18.271   4.585
19779W        W87997  17.189   4.191   3.898
19780W        W87998  39.183  26.973  13.354
19781W        W87999   4.259  34.621  10.294
19782W        W88000  16.831  44.329   4.596
19783W        W88001  19.555  11.383   0.359
19784W        W88002  30.059  19.067   1.104
19785W        W88003  31.956   2.141   0.946
19786W        W88004  30.000  44.991   1.335
19787W        W88005  29.648  33.073   2.781
19788W        W88006  19.465   0.270  12.430
19789W        W88007  42.997   5.742  14.443
19790W        W88008  23.497  15.973  11.188
19791W        W88009  19.580   3.281  14.542
19792W        W88010  19.076  30.765  12.082
19793W        W88011   4.951  23.053  12.273
19794W        W88012  26.819  14.832   2.257
19795W        W88013  43.222  17.540   2.607
19796W        W88014  40.391  25.597  13.449
19797W        W88015  23.476  19.156   4.561
19798W        W88016  41.092  33.292   2.636
19799W        W88017  32.963  38.682   1.233
19800W        W88018  44.107  34.263   2.898
19801W        W88019   4.339  12.900   2.410
19802W        W88020  30.592  15.090   2.733
19803W        W88021   9.045  34.016   0.611
19804W        W88022   8.782   1.484   1.288
19805W        W88023  14.980  36.385  11.040
19806W        W88024  14.592  34.640   0.908
19807W        W88025  11.367  44.240   4.615
19808W        W88026   3.333   6.480   0.740
19809W        W88027   3.892  40.324  13.073
19810W        W88028   3.341  29.174   3.084
19811W        W88029   5.062  19.894   2.820
19812W        W88030   2.425  16.121   0.760
19813W        W88031  35.542  24.241  12.451
19814W        W88032  33.621  14.608   1.358
19815W        W88033   0.434  11.368   2.396
19816W        W88034  13.199  40.831   3.550
19817W        W88035  29.841   0.470   2.720
19818W        W88036  26.915   3.473  11.336
19819W        W88037  11.795  33.400  13.556
19820W        W88038  21.643  41.257   0.975
19821W        W88039  18.431  40.882  13.683
19822W        W88040   6.885  38.544  10.386
19823W        W88041  19.280  15.617   2.967
19824W        W88042  31.673  10.231  12.947
19825W        W88043  15.277  40.983   3.932
19826W        W88044  19.761   0.220   0.465
19827W        W88045  37.801  24.661   1.910
19828W        W88046  32.691   0.307  14.736
19829W        W88047  43.893  33.574   4.728
19830W        W88048  15.283  33.761  11.214
19831W        W88049  10.475  11.777  12.117
19832W        W88050   1.968  43.083  12.970
19833W        W88051   8.667   7.140   1.820
19834W        W88052   0.509  22.078  12.639
19835W        W88053   0.007   3.238   0.538
19836W        W88054  25.540  19.288   0.450
19837W        W88055  37.408  14.897   0.219
19838W        W88056  10.625  37.930   1.719
19839W        W88057  29.917  44.278  13.572
19840W        W88058  29.066  14.222   4.612
19841W        W88059   0.032  41.483   0.950
19842W        W88060   5.312  19.517  10.734
19843W        W88061  25.531  17.787  14.007
19844W        W88062  36.798   1.789   4.537
19845W        W88063  14.133  39.114  13.362
19846W        W88064  10.112  19.258   2.876
19847W        W88065  37.851  44.620  13.285
19848W        W88066  13.703  42.666  12.970
19849W        W88067  33.421  37.916   3.900
19850W        W88068  34.083  44.161   9.954
19851W        W88069   1.959  23.758   5.042
19852W        W88070  25.155  44.046   1.160
19853W        W88071  44.781   1.946   1.981
19854W        W88072  14.382  44.899   0.235
19855W        W88073  26.769  27.618  13.355
19856W        W88074   4.354  14.163   4.650
19857W        W88075   0.441   4.486  12.098
19858W        W88076  31.440  36.218   0.970
19859W        W88077   5.427  31.065  14.673
19860W        W88078  41.523  35.509   4.459
19861W        W88079  23.128  10.302   3.200
19862W        W88080  40.293  14.169  13.881
19863W        W88081  31.522  34.876  13.127
19864W        W88082   9.736   2.128   2.193
19865W        W88083  43.521   3.665   2.771
19866W        W88084   7.718  14.342   2.666
19867W        W88085  20.537  40.458  12.385
19868W        W88086   9.130  10.609  13.328
19869W        W88087   1.525   6.486   2.207
19870W        W88088  40.961  38.519  13.428
19871W        W88089  33.737  15.313  10.729
19872W        W88090   5.962  44.016   1.271
19873W        W88091  40.486  44.256  14.917
19874W        W88092  21.393  43.761  10.746
19875W        W88093  20.784  43.149  12.857
19876W        W88094  27.536   4.728   0.913
19877W        W88095   3.295  25.174   4.320
19878W        W88096   1.030  17.225  14.948
19879W        W88097  12.618  40.786   4.023
19880W        W88098  15.088  24.633   0.410
19881W        W88099  10.475  11.158   5.037
19882W        W88100  39.450  34.105  13.474
19883W        W88101  30.834  13.414  12.411
19884W        W88102  28.188  11.855  13.832
19885W        W88103  22.668  31.940  12.860
19886W        W88104  38.354  22.157  13.410
19887W        W88105  29.082  38.559   4.174
19888W        W88106  44.393  33.562   4.540
19889W        W88107  20.736  10.631  12.310
19890W        W88108  43.032  20.641   0.464
19891W        W88109  24.646   1.947  11.621
19892W        W88110  17.250  23.192  11.988
19893W        W88111   5.790   6.333   2.074
19894W        W88112  36.127  39.261   3.212
19895W        W88113  40.854  22.302  11.171
19896W        W88114  10.845   5.191   1.354
19897W        W88115  20.218  23.915   4.197
19898W        W88116  22.154  18.096  13.951
19899W        W88117  32.082   8.781   0.032
19900W        W88118  43.807  31.027  11.990
19901W        W88119  22.483  37.596   1.577
19902W        W88120   7.416   9.263   3.584
19903W        W88121   7.767   2.989   2.152
19904W        W88122  10.250   8.846   0.943
19905W        W88123  24.615  21.551   0.748
19906W        W88124  16.988  26.569  11.018
19907W        W88125   9.884  39.861  12.333
19908W        W88126  12.122  31.018   4.181
19909W        W88127   4.154  40.527   0.302
19910W        W88128  19.522  34.019  12.469
19911W        W88129  33.090  19.225  13.998
19912W        W88130  40.837   6.222  11.930
19913W        W88131   0.345  26.149   3.493
19914W        W88132  38.335  33.110   4.142
19915W        W88133  16.608  30.889   0.839
19916W        W88134  20.800   1.544  15.000
19917W        W88135   6.888  19.982  13.768
19918W        W88136   3.835  16.181   4.255
19919W        W88137   2.822   1.728  12.404
19920W        W88138  13.715  34.210   4.519
19921W        W88139  32.730   8.087  12.484
19922W        W88140   4.785  31.531   1.634
19923W        W88141  32.512  32.986   4.561
19924W        W88142  31.111  27.020  14.014
19925W        W88143  19.367   9.959  11.593
19926W        W88144  33.908  25.440  13.078
19927W        W88145  28.019  23.063  11.267
19928W        W88146  28.783  29.805  14.331
19929W        W88147  21.253  16.742  10.577
19930W        W88148   9.743  32.072  13.684
19931W        W88149  20.455  24.333   1.867
19932W        W88150  35.607   8.725  14.856
19933W        W88151   7.429  23.590   0.922
19934W        W88152  18.075   6.821  14.537
19935W        W88153  31.182   5.861  13.402
19936W        W88154   9.136  13.662   3.630
19937W        W88155  19.101  28.446   2.134
19938W        W88156  35.103  18.100  14.550
19939W        W88157  12.160  15.142  12.616
19940W        W88158  44.397  33.039   0.960
19941W        W88159   8.104  24.614   3.326
19942W        W88160  26.641  11.765   2.333
19943W        W88161  19.296   0.150  14.620
19944W        W88162  24.665   8.569   2.592
19945W        W88163  26.078   6.447   0.352
19946W        W88164  30.983  12.887   1.792
19947W        W88165  27.910   1.875   4.718
19948W        W88166  41.646  13.895   4.714
19949W        W88167  39.499  24.761  14.271
19950W        W88168   4.448  43.289   1.965
19951W        W88169  28.111  40.977   0.581
19952W        W88170  14.314  14.343   5.011
19953W        W88171   2.800   5.099   2.831
19954W        W88172   2.440  25.188  14.848
19955W        W88173  28.698  19.760  12.670
19956W        W88174  13.513  34.104   0.265
19957W        W88175  32.775  12.220  11.020
19958W        W88176  27.678   7.251   0.312
19959W        W88177  28.399  33.614   3.185
19960W        W88178  15.769   0.991   4.728
19961W        W88179   2.985  36.070  11.106
19962W        W88180  18.762   3.255   2.786
19963W        W88181   0.747  14.696  14.377
19964W        W88182  13.911  20.689  10.598
19965W        W88183  11.642   1.927   4.910
19966W        W88184   6.906  36.495  14.165
19967W        W88185   8.409  38.887  11.385
19968W        W88186   9.723   8.691   0.894
19969W        W88187   4.827   8.637  11.523
19970W        W88188  24.748  29.585   4.049
19971W        W88189  20.572  37.336   2.734
19972W        W88190  21.439  37.558  12.247
19973W        W88191  22.236  24.240  13.146
19974W        W88192  27.245  21.717   1.587
19975W        W88193  39.913   3.462   3.750
19976W        W88194  21.113   3.936   1.024
19977W        W88195  15.084  34.561  14.369
19978W        W88196  14.261  30.918   0.557
19979W        W88197  44.933  42.470   2.754
19980W        W88198   8.775  32.004   2.779
19981W        W88199  42.492  16.287  14.924
19982W        W88200  18.787  34.418   3.857
19983W        W88201  38.894  14.286   3.328
19984W        W88202  28.676  40.986  12.050
19985W        W88203  31.930  44.921   3.010
19986W        W88204  11.995  43.886   2.629
19987W        W88205  17.601   7.373  10.723
19988W        W88206  40.741  16.299   1.308
19989W        W88207  44.375  29.037   2.438
19990W        W88208  25.080  28.646   4.691
19991W        W88209   3.476  19.603   3.660
19992W        W88210   1.354  38.986   3.712
19993W        W88211   7.481  41.544  11.324
19994W        W88212  27.070  25.463   4.137
19995W        W88213   0.556   5.811   2.193
19996W        W88214  34.606  24.303  13.368
19997W        W88215  33.737  31.073  11.327
19998W        W88216  17.814  11.367  11.227
19999W        W88217  10.741  33.013  14.672
20000W        W88218  41.244   6.304  14.512
20001W        W88219  11.295  12.773   3.477
20002W        W88220  32.021   5.937   4.253
20003W        W88221   2.325  15.053  13.849
20004W        W88222  19.863  30.375   4.143
20005W        W88223  42.594   9.807  11.162
20006W        W88224   4.725  18.463  13.994
20007W        W88225  29.003   8.624  12.017
20008W        W88226   4.401   4.201  11.029
20009W        W88227  11.488  36.651   0.283
20010W        W88228  31.970  32.338  11.163
20011W        W88229   1.250  34.527   0.637
20012W        W88230  16.306  32.554   4.141
20013W        W88231   9.620  27.113  12.500
20014W        W88232  37.617   4.864  11.081
20015W        W88233  21.577  31.504  11.254
20016W        W88234   8.488  11.347  13.349
20017W        W88235  39.097  32.954  11.471
20018W        W88236  20.821  12.611   2.302
20019W        W88237  19.843  14.212  11.208
20020W        W88238  30.571  18.380  14.260
20021W        W88239  36.376  12.379   0.514
20022W        W88240  13.039  24.211  12.616
20023W        W88241  31.932  44.635  12.366
20024W        W88242  21.004  19.573  14.460
20025W        W88243  20.107  13.079  12.919
20026W        W88244  28.016  13.168   4.598
20027W        W88245   2.310  27.433   4.796
20028W        W88246   4.148  21.196  10.606
20029W        W88247  18.349  24.763   2.565
20030W        W88248  11.794   0.335   3.675
20031W        W88249   1.939  33.092  12.596
20032W        W88250  17.678  41.817  11.929
20033W        W88251  44.197  26.452   0.958
20034W        W88252   8.601   7.408   4.082
20035W        W88253   2.283  26.244  10.568
20036W        W88254  28.159  23.482  10.937
20037W        W88255  14.357  21.521  14.928
20038W        W88256  21.965  34.888   3.838
20039W        W88257  14.426  40.612   2.792
20040W        W88258   5.702  22.469  12.627
20041W        W88259   5.940  34.388   0.947
20042W        W88260  24.041  33.483   0.003
20043W        W88261  31.411  19.121   1.880
20044W        W88262  19.299  15.596   0.815
20045W        W88263   4.195  22.993  10.629
20046W        W88264  10.286  25.927  14.943
20047W        W88265  24.072   0.634  14.836
20048W        W88266   6.155  16.198   4.466
20049W        W88267  12.612  36.544  14.224
20050W        W88268  19.050  20.385   0.454
20051W        W88269  28.179  40.028   1.426
20052W        W88270  21.417  41.492   4.079
20053W        W88271   9.299  24.706   3.659
20054W        W88272  19.330  38.601  10.746
20055W        W88273  21.759  39.970  12.473
20056W        W88274  17.126  27.810   4.999
20057W        W88275  40.333  16.929  10.225
20058W        W88276  36.828   0.610  10.584
20059W        W88277  21.231   2.406   0.670
20060W        W88278   3.769  32.596   4.611
20061W        W88279   8.255  21.796  13.020
20062W        W88280  38.479   6.522  13.417
20063W        W88281  40.823  12.132  12.049
20064W        W88282  26.617  19.980   1.907
20065W        W88283  28.986   3.452  13.548
20066W        W88284  19.026  15.823  12.520
20067W        W88285  24.729  20.098   1.107
20068W        W88286  29.994  14.382  14.032
20069W        W88287  41.931   1.744   4.674
20070W        W88288  20.881  20.054  11.079
20071W        W88289   2.739  16.450   0.503
20072W        W88290  34.838   5.301  12.396
20073W        W88291  32.362  13.058  14.008
20074W        W88292   1.302  35.348  14.377
20075W        W88293  10.970   9.148   1.376
20076W        W88294  27.210  19.566   0.704
20077W        W88295   4.003  17.257  10.727
20078W        W88296  18.700   2.175   1.450
20079W        W88297  41.978   0.363  13.776
20080W        W88298  22.574  35.963   2.208
20081W        W88299  14.293  13.471   1.915
20082W        W88300   5.609   0.320   3.781
20083W        W88301  40.932  37.778   2.261
20084W        W88302  24.518   5.381   0.224
20085W        W88303  42.878  18.659  13.647
20086W        W88304  12.574  33.584   2.444
20087W        W88305  28.913  30.557  14.843
20088W        W88306  27.262   0.486   0.066
20089W        W88307  15.997  40.367  13.276
20090W        W88308   8.241  40.481  14.745
20091W        W88309  32.536  42.504   2.386
20092W        W88310  35.900   6.806  10.991
20093W        W88311  28.931  17.660   3.296
20094W        W88312   1.979  17.653  13.851
20095W        W88313  38.533   6.108   2.193
20096W        W88314   5.175  44.168  14.687
20097W        W88315  36.894  29.672   0.191
20098W        W88316  16.674  19.027  14.091
20099W        W88317   5.945  14.481  14.490
20100W        W88318  14.735  42.201   0.297
20101W        W88319  11.724  27.766   4.715
20102W        W88320   2.251  11.310   4.297
20103W        W88321  26.163  24.245   3.260
20104W        W88322  44.863  37.916   3.380
20105W        W88323  28.702  27.089  12.466
20106W        W88324  43.853  36.057  10.572
20107W        W88325  14.777  30.917   0.478
20108W        W88326  12.210  12.009  11.773
20109W        W88327  24.888  28.558  14.423
20110W        W88328   0.620  26.054   2.263
20111W        W88329  14.240   7.005  14.930
20112W        W88330  36.928   6.408   0.840
20113W        W88331  38.704  33.533  10.042
20114W        W88332   8.307  11.933  11.594
20115W        W88333  26.556  17.611  13.166
20116W        W88334  30.756  43.024  11.981
20117W        W88335  39.963   4.722   0.152
20118W        W88336  37.039   7.651   2.666
20119W        W88337  12.054   1.913   0.319
20120W        W88338  29.578  27.995  13.841
20121W        W88339   6.709   0.691  13.701
20122W        W88340  17.260  37.538  10.967
20123W        W88341  43.472  23.620   2.205
20124W        W88342  29.122  38.383   2.726
20125W        W88343  14.134  12.026   1.180
20126W        W88344   8.058  25.125   3.147
20127W        W88345   4.572  41.527  11.594
20128W        W88346  13.709   5.333   4.171
20129W        W88347  11.375  34.056   3.179
20130W        W88348  26.919  15.832  11.026
20131W        W88349  27.940  14.226   1.853
20132W        W88350  39.325  24.492   1.178
20133W        W88351  32.170  32.189   4.637
20134W        W88352  10.355   4.263   1.350
20135W        W88353  25.731   7.907   4.857
20136W        W88354   0.266   1.193  14.925
20137W        W88355  37.244   0.833   2.119
20138W        W88356  23.602  37.164  11.927
20139W        W88357  25.436  42.612   1.508
20140W        W88358  17.180   8.716  10.645
20141W        W88359   8.850   9.249  14.279
20142W        W88360  21.541  21.065  13.536
20143W        W88361  42.271  40.999   2.410
20144W        W88362  26.642   1.256   1.044
20145W        W88363  16.743  33.926   4.639
20146W        W88364  42.932  36.015   1.401
20147W        W88365  44.857   4.010  11.520
20148W        W88366  11.549  21.546   2.187
20149W        W88367   7.915   1.015   1.588
20150W        W88368  33.377  22.968  14.001
20151W        W88369   3.833   2.214  11.491
20152W        W88370   8.579   2.510  11.430
20153W        W88371  29.935  30.082   2.866
20154W        W88372  43.706  32.786  11.464
20155W        W88373  13.077  10.668   4.919
20156W        W88374  10.638  24.555   2.584
20157W        W88375  18.145  34.418  14.889
20158W        W88376  25.750  25.073  11.521
20159W        W88377   8.302  22.495   3.310
20160W        W88378  10.466  35.396  12.459
20161W        W88379   7.574   5.468   2.402
20162W        W88380   7.886   3.107  11.236
20163W        W88381  38.644  36.541  13.950
20164W        W88382  16.409   2.439   1.430
20165W        W88383  18.056  27.072  10.883
20166W        W88384  10.595  23.190   2.114
20167W        W88385  24.007  23.694  11.996
20168W        W88386  26.305  24.533   2.499
20169W        W88387  12.818  10.152  11.686
20170W        W88388  41.407  36.357  10.821
20171W        W88389  39.049  19.224  12.939
20172W        W88390  43.797  25.568   0.684
20173W        W88391  32.131  32.831  11.583
20174W        W88392  36.374  20.490   1.989
20175W        W88393  35.045  32.220   1.426
20176W        W88394  36.029  14.603  13.571
20177W        W88395  38.639  22.156  12.435
20178W        W88396  42.434   3.783   0.366
20179W        W88397  22.164   4.284   0.162
20180W        W88398  25.685   1.660  13.714
20181W        W88399  28.529  18.470  12.646
20182W        W88400  23.209   3.802  13.824
20183W        W88401  33.119  28.222  13.869
20184W        W88402  18.689  10.497   3.867
20185W        W88403  37.339  30.417  12.559
20186W        W88404  14.782  19.015  11.392
20187W        W88405  13.689   6.462  14.364
20188W        W88406  10.259   0.757  13.429
20189W        W88407   4.628  29.648  11.061
20190W        W88408  34.817  12.508   3.302
20191W        W88409  43.333  26.993   1.450
20192W        W88410  21.855  35.046   0.219
20193W        W88411   3.415  21.042   3.660
20194W        W88412  20.141  36.939   2.650
20195W        W88413  12.074  42.360  14.955
20196W        W88414  29.536  38.906   1.132
20197W        W88415  28.947   2.748  10.761
20198W        W88416  38.015  36.644   2.110
20199W        W88417  28.267  13.490  14.785
20200W        W88418  38.118   3.415   1.500
20201W        W88419  11.841  30.550  11.559
20202W        W88420  43.505  16.742   3.143
20203W        W88421  35.059  26.470  13.706
20204W        W88422  16.835  10.907   1.252
20205W        W88423  20.491  32.831   0.425
20206W        W88424   3.841  16.409  10.411
20207W        W88425  30.271  35.495   0.055
20208W        W88426  20.569  30.517  13.266
20209W        W88427  19.801  10.997   2.438
20210W        W88428  20.441   3.976  11.059
20211W        W88429  15.106  26.680   2.624
20212W        W88430  24.155  11.482  13.621
20213W        W88431  44.980   4.484  11.350
20214W        W88432  17.180  12.504   1.333
20215W        W88433  42.987   5.759   2.280
20216W        W88434  23.368  41.918  12.684
20217W        W88435  26.082  41.317   2.120
20218W        W88436  40.748  40.568   1.941
20219W        W88437  34.629  12.743  12.226
20220W        W88438  38.021  26.825  12.889
20221W        W88439  29.065  27.757   3.973
20222W        W88440  12.235  31.095  12.102
20223W        W88441  26.831  31.596   0.157
20224W        W88442  38.406  31.872   4.870
20225W        W88443   2.214  39.368  14.362
20226W        W88444  39.222  10.778   2.254
20227W        W88445  39.104  33.492  11.598
20228W        W88446  26.613  22.733   1.397
20229W        W88447  43.471  44.373   3.734
20230W        W88448  20.581  26.121  10.741
20231W        W88449  23.047   3.780  11.123
20232W        W88450  22.830  25.309   4.171
20233W        W88451   8.714   4.792   1.019
20234W        W88452  22.013  28.240   0.281
20235W        W88453  42.558  22.107   3.887
20236W        W88454  32.566  26.982  12.883
20237W        W88455  19.448  14.107  11.991
20238W        W88456  20.661   6.144  14.347
20239W        W88457   1.867  43.542  10.710
20240W        W88458   6.938  32.492  13.890
20241W        W88459  20.045  20.582   4.005
20242W        W88460  37.593  37.840   4.397
20243W        W88461  37.053  38.773   2.550
20244W        W88462  26.004  15.830  13.013
20245W        W88463  13.215  15.176  13.095
20246W        W88464  38.861   6.705   4.729
20247W        W88465  42.147   4.941  13.092
20248W        W88466  44.865  13.612   2.443
20249W        W88467  16.313  12.865   1.312
20250W        W88468  15.889  34.518  11.553
20251W        W88469  35.806  12.404   2.788
20252W        W88470   3.900  18.299   3.871
20253W        W88471   1.235  11.219   1.910
20254W        W88472  38.651  39.203   3.205
20255W        W88473  27.674  10.910   3.448
20256W        W88474  26.409  35.378   1.489
20257W        W88475  16.165  10.288  14.971
20258W        W88476   6.444  23.655   0.861
20259W        W88477   9.123  41.879  11.030
20260W        W88478   6.670  32.410  11.572
20261W        W88479   2.366  36.047   0.884
20262W        W88480  21.189  44.355   4.707
20263W        W88481  34.693  31.560   1.347
20264W        W88482  22.060  42.493   2.271
20265W        W88483  15.738  42.536   1.488
20266W        W88484  12.059  31.489  11.194
20267W        W88485  35.581  42.956  13.589
20268W        W88486  35.351  32.415  14.516
20269W        W88487  17.804  17.547  11.743
20270W        W88488  38.862  33.831   4.314
20271W        W88489  11.669  33.563   4.278
20272W        W88490  24.988   1.392   3.095
20273W        W88491   2.913  10.399  13.025
20274W        W88492   1.706  30.017  14.481
20275W        W88493  40.732  32.019   2.189
20276W        W88494  16.609  44.963  11.657
20277W        W88495  26.484  28.017  12.583
20278W        W88496  43.457   9.416   2.869
20279W        W88497  40.360  21.482   0.329
20280W        W88498  10.799  38.142   4.635
20281W        W88499   8.196  43.678   3.853
20282W        W88500   1.353  13.571  14.647
20283W        W88501  15.316  24.568  14.384
20284W        W88502   9.026   0.220  12.609
20285W        W88503  16.095  43.202  10.323
20286W        W88504   2.737  16.200   2.963
20287W        W88505  38.405  27.578   2.436
20288W        W88506  40.312  33.523  12.519
20289W        W88507   1.328  33.394  14.281
20290W        W88508  34.285   4.395   2.683
20291W        W88509  18.842  27.966   4.963
20292W        W88510  36.360  10.741  11.924
20293W        W88511  33.549   8.855  11.433
20294W        W88512   7.131   7.262  14.997
20295W        W88513  42.979  38.986   3.120
20296W        W88514   7.580   6.967  14.993
20297W        W88515  11.846  39.460  11.983
20298W        W88516  17.148  16.727  12.365
20299W        W88517  32.036  27.838   1.256
20300W        W88518  15.764  38.387  13.080
20301W        W88519  14.712   3.182   1.425
20302W        W88520  32.931   4.707  11.638
20303W        W88521  23.536  19.693  11.617
20304W        W88522   6.377  24.144  13.233
20305W        W88523  37.328  24.769  12.903
20306W        W88524  38.816   7.434  12.444
20307W        W88525  28.225   5.168  13.735
20308W        W88526  35.449  11.760  11.172
20309W        W88527  37.293   4.527   1.951
20310W        W88528  37.647  14.257   5.175
20311W        W88529  32.049  30.694  12.212
20312W        W88530  41.607  35.940   3.158
20313W        W88531  33.469  19.613  13.855
20314W        W88532  17.141  40.589  14.318
20315W        W88533  38.495  15.981   0.526
20316W        W88534  16.238  37.529   1.757
20317W        W88535  19.516  42.119  10.713
20318W        W88536   8.041  41.450   1.243
20319W        W88537   9.843  12.913   3.784
20320W        W88538  22.539  15.315   4.829
20321W        W88539  44.864  16.494  12.455
20322W        W88540  16.219  36.192   5.001
20323W        W88541  40.485  12.264   3.199
20324W        W88542  34.001  13.015  14.495
20325W        W88543   4.940   7.726   4.340
20326W        W88544  20.761   6.150  13.312
20327W        W88545  36.565  25.763   2.282
20328W        W88546  38.872  37.033   4.303
20329W        W88547  10.761   5.341   0.438
20330W        W88548  15.904  41.451  13.877
20331W        W88549  32.670  10.482  11.456
20332W        W88550  26.874   8.681   1.731
20333W        W88551  30.711   2.006  12.982
20334W        W88552  20.116  12.125  12.485
20335W        W88553  31.113  10.259   1.306
20336W        W88554  36.387   4.110  10.231
20337W        W88555   1.656  25.619  12.554
20338W        W88556  27.560  23.066   2.049
20339W        W88557  33.079  28.724  12.093
20340W        W88558   8.713  30.890  14.001
20341W        W88559  17.277  43.641  12.150
20342W        W88560  38.304  12.167   2.737
20343W        W88561  22.579  34.395  12.123
20344W        W88562   5.369  36.486   2.296
20345W        W88563  20.616  37.577   0.808
20346W        W88564  24.065  35.062  12.675
20347W        W88565   1.496  39.006   0.401
20348W        W88566  23.651   0.166   4.754
20349W        W88567  36.862  18.339  13.787
20350W        W88568  41.933   9.184  12.971
20351W        W88569  24.362  27.903   1.166
20352W        W88570   8.958  29.184  13.404
20353W        W88571  42.973  17.805  11.926
20354W        W88572  30.390  23.024  13.128
20355W        W88573  40.367  11.808   2.935
20356W        W88574   4.699   2.251   0.309
20357W        W88575  35.361   5.141  12.957
20358W        W88576   4.863  37.156   1.927
20359W        W88577  16.130  43.948  12.550
20360W        W88578  10.749  25.196  14.334
20361W        W88579   6.938  44.988  14.530
20362W        W88580  15.885   9.625   1.287
20363W        W88581  32.163  26.467   1.331
20364W        W88582  30.825   2.828   2.368
20365W        W88583   7.198  28.038  11.002
20366W        W88584  39.385  19.264  11.276
20367W        W88585  44.476  44.745   1.332
20368W        W88586  17.147  40.977   9.998
20369W        W88587  36.056  44.999   0.336
20370W        W88588   9.120  21.814  11.966
20371W        W88589  11.181  39.471  10.624
20372W        W88590  25.569  41.806  13.607
20373W        W88591   1.782   7.260  11.545
20374W        W88592  22.489  40.507   1.754
20375W        W88593  13.798  26.458  10.778
20376W        W88594  30.064  25.370   3.209
20377W        W88595  28.381  16.181   4.424
20378W        W88596   0.826  18.881   0.799
20379W        W88597   4.843  22.164   4.200
20380W        W88598  24.624  27.237   3.951
20381W        W88599  26.067  38.382   2.800
20382W        W88600  29.966  19.031  14.028
20383W        W88601  20.076   9.380   1.929
20384W        W88602   8.609  14.772   1.370
20385W        W88603   7.939  41.158  13.607
20386W        W88604  13.815   2.009  13.479
20387W        W88605  41.406  10.367   1.080
20388W        W88606  27.740  31.015  14.485
20389W        W88607  24.527  28.142  12.454
20390W        W88608  31.504   5.767  10.791
20391W        W88609   0.807  33.841  12.010
20392W        W88610   0.437  14.531   1.437
20393W        W88611  26.253   7.179   2.804
20394W        W88612  44.875  23.585   4.273
20395W        W88613  35.963  18.028  14.749
20396W        W88614  30.174  13.721  13.895
20397W        W88615  21.060  34.974  12.530
20398W        W88616  34.093  21.209   2.799
20399W        W88617  37.362  43.657   0.257
20400W        W88618  13.101  19.551  13.241
20401W        W88619  28.906  41.237   2.762
20402W        W88620   9.164  38.855   3.576
20403W        W88621  23.180  41.477  11.573
20404W        W88622  18.137  20.812  11.663
20405W        W88623  21.151   2.296  10.611
20406W        W88624  32.004  27.362   4.291
20407W        W88625   0.772  43.235   0.284
20408W        W88626  34.788  15.290   0.347
20409W        W88627  26.925  11.271   0.821
20410W        W88628  37.713  12.826   1.136
20411W        W88629  15.705  27.989   2.272
20412W        W88630  18.586  19.199   2.447
20413W        W88631   2.216  23.507   1.971
20414W        W88632   2.877  28.011   2.677
20415W        W88633  19.456  30.515   0.039
20416W        W88634  33.132  16.528   1.908
20417W        W88635   1.512  21.665   0.008
20418W        W88636  19.524  34.577  11.600
20419W        W88637  33.013  11.170  12.745
20420W        W88638  22.513  17.287  11.645
20421W        W88639   1.389   2.433  13.781
20422W        W88640  15.308  15.223  11.544
20423W        W88641  42.221   3.657  13.941
20424W        W88642  43.002  36.492  11.544
20425W        W88643  33.036  25.802  11.420
20426W        W88644  16.247  31.615   4.604
20427W        W88645  21.385  11.474   4.963
20428W        W88646   4.738  15.324   2.442
20429W        W88647  35.884  30.661   3.900
20430W        W88648   5.716  28.954  13.279
20431W        W88649  21.675   1.545  12.241
20432W        W88650  18.248   8.781  12.164
20433W        W88651  42.403  41.975   0.331
20434W        W88652  13.306  34.102  11.081
20435W        W88653  21.120  38.030   4.272
20436W        W88654  37.060  39.060   4.545
20437W        W88655  44.829  11.535   0.984
20438W        W88656  19.459  16.842  13.341
20439W        W88657  14.022  39.062   3.226
20440W        W88658  36.031   9.700   0.844
20441W        W88659  36.363  26.928  11.684
20442W        W88660   6.866  27.733  12.010
20443W        W88661   8.694  14.308   1.685
20444W        W88662  39.496  34.614   2.384
20445W        W88663  25.670   9.713  13.283
20446W        W88664  26.705  41.054   1.424
20447W        W88665  10.271  18.767   4.584
20448W        W88666  40.563  38.083  11.830
20449W        W88667  38.149   4.453  10.234
20450W        W88668  29.604  39.814  14.836
20451W        W88669  42.800  30.557   1.364
20452W        W88670  37.964  42.424  14.991
20453W        W88671  19.216   0.029  10.783
20454W        W88672  38.925   4.236   2.086
20455W        W88673  13.323  10.574  14.154
20456W        W88674   8.931  36.044  11.991
20457W        W88675   8.942  20.057   4.132
20458W        W88676   0.242   3.888  11.220
20459W        W88677  32.762  44.872  10.796
20460W        W88678   6.190  32.091   3.192
20461W        W88679  37.357   1.421  13.553
20462W        W88680  24.085  22.812  14.770
20463W        W88681  20.718  26.667   0.853
20464W        W88682  39.066  40.616  10.537
20465W        W88683  22.766  22.221   2.896
20466W        W88684  24.116  16.352  13.315
20467W        W88685   3.450   5.945  12.437
20468W        W88686  20.152  12.657  12.562
20469W        W88687   6.738  15.654   4.767
20470W        W88688   2.165   5.402   2.808
20471W        W88689   6.702  17.323  14.539
20472W        W88690   6.017  30.604  10.778
20473W        W88691  18.750   1.254  14.896
20474W        W88692   1.939   3.912  13.416
20475W        W88693  42.823  37.458   0.730
20476W        W88694   3.806  28.576  13.985
20477W        W88695  32.412  38.291   4.618
20478W        W88696   6.914  22.916  13.575
20479W        W88697   3.962  37.986   1.365
20480W        W88698   3.779  40.449  14.083
20481W        W88699  28.737  13.225  11.063
20482W        W88700  36.917  11.796  12.055
20483W        W88701  43.880  11.607   2.542
20484W        W88702  26.010  15.993   5.130
20485W        W88703  19.727  11.394  14.505
20486W        W88704  36.770  28.287   3.525
20487W        W88705  42.305   2.423  14.861
20488W        W88706   3.504  27.838  12.487
20489W        W88707  15.161  37.079  14.373
20490W        W88708  42.746   3.823   0.784
20491W        W88709  34.404  42.894  14.477
20492W        W88710  11.866  39.554  14.906
20493W        W88711  14.358   0.433  12.026
20494W        W88712  16.183  24.837  11.300
20495W        W88713   1.843   7.584   4.953
20496W        W88714  19.511  19.096   0.809
20497W        W88715  18.694  19.185  12.085
20498W        W88716  16.083   0.749   1.886
20499W        W88717  41.421   1.309  12.034
20500W        W88718  40.996  29.099   4.012
20501W        W88719  41.833  18.648   4.011
20502W        W88720   9.372  37.647  12.069
20503W        W88721  39.826  44.140  11.743
20504W        W88722  25.261   2.124   1.386
20505W        W88723  11.629  37.055   1.330
20506W        W88724  37.797  27.665   4.676
20507W        W88725  19.170  32.074   0.548
20508W        W88726  14.558  18.657  14.835
20509W        W88727  17.077  38.440  12.098
20510W        W88728  16.153  41.286  14.922
20511W        W88729   1.522  10.648  13.369
20512W        W88730  41.758   3.363  10.920
20513W        W88731  19.643   6.915   2.323
20514W        W88732   2.873  16.818  12.213
20515W        W88733  15.432  24.645   3.276
20516W        W88734  16.173  12.144   4.173
20517W        W88735  23.459   5.338   1.388
20518W        W88736  34.643  21.030  12.410
20519W        W88737  29.991  18.703   4.186
20520W        W88738   8.606  13.573   3.681
20521W        W88739  22.724   4.707  10.045
20522W        W88740  38.620  13.806   4.143
20523W        W88741  27.357  27.371  12.676
20524W        W88742   6.694  32.830   2.896
20525W        W88743   2.658  42.230  12.102
20526W        W88744  29.415  35.544  12.815
20527W        W88745   7.376  17.714  14.360
20528W        W88746  40.984   8.143  13.007
20529W        W88747  31.839  38.925  11.534
20530W        W88748  34.061  19.548   4.084
20531W        W88749  29.089  44.580   2.800
20532W        W88750  40.791  21.746  12.540
20533W        W88751  30.648  33.055  14.436
20534W        W88752  31.842  36.618   4.963
20535W        W88753   2.215  29.549   3.189
20536W        W88754  11.105  41.625   2.763
20537W        W88755   1.127  31.117   4.839
20538W        W88756  26.888  16.063  14.940
20539W        W88757  23.524  14.580  10.453
20540W        W88758  24.596  21.655   3.796
20541W        W88759  41.605  16.662   0.020
20542W        W88760  25.598  13.729  12.333
20543W        W88761  42.676  32.023   3.710
20544W        W88762   5.386  33.059   3.704
20545W        W88763  27.348  35.225   4.449
20546W        W88764   9.456  38.529  11.425
20547W        W88765   0.558   6.404  10.880
20548W        W88766  36.572   1.531  14.406
20549W        W88767  43.925  14.379   0.891
20550W        W88768  14.238  40.472   4.221
20551W        W88769   6.126   6.169   2.925
20552W        W88770   3.433  33.570   3.601
20553W        W88771  41.292  13.339  13.753
20554W        W88772   6.942  21.825   3.652
20555W        W88773  20.817  27.530  12.483
20556W        W88774  23.425  29.670   4.626
20557W        W88775  40.966   9.945  11.287
20558W        W88776  40.802  13.831   4.497
20559W        W88777  32.467  20.233  11.555
20560W        W88778  40.345   8.751  12.315
20561W        W88779   0.893  15.744  12.396
20562W        W88780  19.678   3.938   2.210
20563W        W88781  42.332  33.597  14.485
20564W        W88782  13.053  39.852   2.772
20565W        W88783  31.958  20.853   0.484
20566W        W88784  19.696  27.455   3.708
20567W        W88785  31.024   8.857   1.465
20568W        W88786  13.220  23.953   4.064
20569W        W88787  34.210  30.957  11.163
20570W        W88788  24.040  33.052  12.503
20571W        W88789  22.472   7.980   2.836
20572W        W88790  44.075   1.422   2.271
20573W        W88791  29.440  37.367   3.531
20574W        W88792  29.705   8.860   0.874
20575W        W88793   2.912  43.838   4.802
20576W        W88794  38.379   3.299   2.860
20577W        W88795  43.727  42.209   4.588
20578W        W88796   1.139  13.297   4.609
20579W        W88797  16.235  42.330  14.894
20580W        W88798   7.906   6.181   2.815
20581W        W88799   0.761   2.913  14.543
20582W        W88800  39.145   8.776   3.224
20583W        W88801  32.638   4.879  11.199
20584W        W88802   4.946   7.373  13.015
20585W        W88803   0.962  14.658  12.997
20586W        W88804  31.336  14.812  12.880
20587W        W88805   7.005  39.527  12.259
20588W        W88806   2.888  22.679  14.361
20589W        W88807   3.534   1.727   3.698
20590W        W88808  23.061  27.981   1.231
20591W        W88809   0.763  11.211   0.048
20592W        W88810  15.719   3.296  10.379
20593W        W88811  20.519   6.986   3.205
20594W        W88812  28.406   0.841   2.742
20595W        W88813  41.490  17.840  13.881
20596W        W88814  38.771  38.819   1.134
20597W        W88815   7.244  25.800   2.275
20598W        W88816  41.778  31.643   3.735
20599W        W88817  19.301   7.772   3.374
20600W        W88818  26.299   3.950   3.816
20601W        W88819  29.565  18.974  14.924
20602W        W88820  29.915  33.944  14.030
20603W        W88821  33.963  22.440  13.528
20604W        W88822  35.971  13.228   2.200
20605W        W88823  36.536  41.898   0.428
20606W        W88824  38.348  17.882  13.588
20607W        W88825  28.185  25.227   2.205
20608W        W88826  33.186   8.501  11.190
20609W        W88827  43.356  40.908   0.003
20610W        W88828  25.834  44.636  12.599
20611W        W88829  22.012  25.148   2.678
20612W        W88830   0.247  26.214  13.856
20613W        W88831  18.474  34.182   4.953
20614W        W88832  28.076  33.481   3.551
20615W        W88833   1.203  44.352   2.857
20616W        W88834  29.011   0.851  11.361
20617W        W88835  41.492  11.688  10.893
20618W        W88836   4.651  24.997   1.383
20619W        W88837  28.625   1.825   2.363
20620W        W88838  19.689  44.717   0.491
20621W        W88839  32.543  39.358  10.434
20622W        W88840  16.235  26.112  11.175
20623W        W88841   9.862   9.702   0.909
20624W        W88842  32.520  13.919  13.431
20625W        W88843  11.208  33.381  12.054
20626W        W88844  44.046   7.540  14.598
20627W        W88845  35.930  18.168   0.743
20628W        W88846  12.253  37.898  13.423
20629W        W88847   8.689  12.115   4.669
20630W        W88848  30.442   5.486   4.947
20631W        W88849  12.932   0.683  13.003
20632W        W88850  20.559  31.449   3.782
20633W        W88851  17.163  12.064  12.051
20634W        W88852  44.934   2.392  14.185
20635W        W88853  18.679   7.051   0.396
20636W        W88854  13.769  13.210   1.749
20637W        W88855  15.300  10.458  11.098
20638W        W88856  18.645  23.022   4.533
20639W        W88857  37.683  34.287  13.840
20640W        W88858  18.781  37.380  12.855
20641W        W88859   6.262   7.700  14.935
20642W        W88860  24.127  13.858  12.494
20643W        W88861  33.375  31.026   2.311
20644W        W88862  24.272  19.698   2.255
20645W        W88863  17.008  21.258  14.330
20646W        W88864  31.508  23.077  11.075
20647W        W88865  19.621  14.356   2.172
20648W        W88866  39.430   7.045  11.207
20649W        W88867  34.139  21.467   0.663
20650W        W88868  44.770  14.141  14.376
20651W        W88869   7.911  28.093  14.877
20652W        W88870  13.590  21.437   1.237
20653W        W88871   1.781   1.872   4.682
20654W        W88872  32.448  37.626   3.177
20655W        W88873  29.594  27.132   3.353
20656W        W88874  24.330  24.643   0.153
20657W        W88875   6.877  30.255  10.577
20658W        W88876  22.324  37.377  14.397
20659W        W88877  23.224  11.626  11.482
20660W        W88878  32.004  25.021   3.673
20661W        W88879  36.074  37.625   0.219
20662W        W88880  39.817  29.111   0.697
20663W        W88881  37.517  18.715   4.183
20664W        W88882  30.395  41.061   1.442
20665W        W88883   0.840  27.221  12.915
20666W        W88884  42.975  19.555   4.079
20667W        W88885   9.945   0.917   1.013
20668W        W88886  19.217   0.472  12.839
20669W        W88887  44.995  13.541   0.882
20670W        W88888   2.535  42.205   2.191
20671W        W88889  25.199  31.041   1.763
20672W        W88890  44.260  20.591   1.943
20673W        W88891  33.512  25.542  11.688
20674W        W88892  34.054  34.918  12.390
20675W        W88893  37.309  11.615   4.379
20676W        W88894   1.009  29.974   4.344
20677W        W88895  26.775  42.603   2.514
20678W        W88896  12.175  43.018  10.619
20679W        W88897   3.930  43.501  13.775
20680W        W88898  25.646  12.294  14.262
20681W        W88899  34.444   4.142  10.364
20682W        W88900  10.421  17.638   2.472
20683W        W88901  38.189  35.025   4.081
20684W        W88902  28.673  30.347  10.839
20685W        W88903  34.502  14.774  13.076
20686W        W88904  29.237  18.391   5.449
20687W        W88905   2.811  15.221  14.987
20688W        W88906  22.010  28.575   4.018
20689W        W88907  18.760  19.441   0.422
20690W        W88908  29.561  20.102   1.141
20691W        W88909  13.079  41.351  10.303
20692W        W88910  33.056  31.248   0.779
20693W        W88911  17.787  27.189   1.335
20694W        W88912  42.486   3.755  13.512
20695W        W88913  36.542  43.584  11.957
20696W        W88914   4.649  28.659   2.199
20697W        W88915  44.803  10.439   3.821
20698W        W88916   2.821  35.114   2.782
20699W        W88917   2.405  43.262   2.817
20700W        W88918  31.093  13.271  11.976
20701W        W88919   6.470  22.720   2.683
20702W        W88920   3.761  29.418   2.239
20703W        W88921   5.014  42.954  11.991
20704W        W88922   6.102  42.880  13.106
20705W        W88923   1.507  43.455  13.825
20706W        W88924  44.832  11.839  13.888
20707W        W88925  23.027  44.003  14.363
20708W        W88926  22.143  31.029   3.996
20709W        W88927  28.851   7.302   1.318
20710W        W88928   9.199   5.795   0.899
20711W        W88929   6.497  19.256   4.036
20712W        W88930  44.475   7.599  12.907
20713W        W88931  34.039  27.858  11.649
20714W        W88932  41.039   4.829   2.692
20715W        W88933  31.045   7.202   4.091
20716W        W88934  14.383   2.331  10.737
20717W        W88935   6.559  22.610   5.019
20718W        W88936  35.765  15.549   1.244
20719W        W88937  44.006  12.591  14.795
20720W        W88938  17.114   6.921  11.949
20721W        W88939  33.938   4.997  11.080
20722W        W88940  31.026   2.941   5.230
20723W        W88941  42.093  26.484  13.374
20724W        W88942  12.986  20.676  12.063
20725W        W88943  25.706  35.797   2.658
20726W        W88944  18.357  10.377   1.698
20727W        W88945  31.580  11.734   4.500
20728W        W88946  26.497   6.851   1.976
20729W        W88947   3.131  37.212   0.977
20730W        W88948  40.823   6.926   1.400
20731W        W88949   0.912  40.501  10.797
20732W        W88950   2.767  11.450   0.441
20733W        W88951   1.402  41.357  13.343
20734W        W88952  16.193  29.686   2.749
20735W        W88953  43.863  22.574  10.535
20736W        W88954   0.997   3.182   0.510
20737W        W88955   3.449   4.713   0.755
20738W        W88956   2.273  40.297  12.332
20739W        W88957  18.126  37.550  14.784
20740W        W88958  14.215  15.321   4.277
20741W        W88959  42.655  41.558   4.185
20742W        W88960  25.515   7.773  13.877
20743W        W88961  28.166   7.618  14.886
20744W        W88962  40.465  26.138  14.724
20745W        W88963   0.392  31.263   4.201
20746W        W88964  28.248  27.023   1.395
20747W        W88965  37.973  15.804  14.570
20748W        W88966  18.529  39.325  13.325
20749W        W88967   2.844   9.832   0.031
20750W        W88968  41.876   5.133  11.621
20751W        W88969  32.332  28.723   3.984
20752W        W88970   7.327  27.516  13.937
20753W        W88971   7.301  38.288  13.862
20754W        W88972  29.807  43.506   4.628
20755W        W88973  43.859  18.326   4.103
20756W        W88974   3.925  10.296  13.105
20757W        W88975  33.337  21.197   1.656
20758W        W88976  42.384  42.859  13.055
20759W        W88977  32.159  25.354  12.066
20760W        W88978   5.641  27.984   2.133
20761W        W88979   6.714  44.223  10.457
20762W        W88980  32.464  12.833   0.499
20763W        W88981  22.366  35.381  11.031
20764W        W88982   6.846  40.768  13.442
20765W        W88983  10.582  15.710   3.821
20766W        W88984  38.288  25.502   1.712
20767W        W88985  11.885  21.435  13.365
20768W        W88986  25.756  23.150   1.674
20769W        W88987  38.922  16.013  14.828
20770W        W88988  20.997  27.581  14.708
20771W        W88989  42.043  44.870  13.585
20772W        W88990  24.945  41.930   0.093
20773W        W88991  29.586  18.789  10.823
20774W        W88992   9.439  17.883   3.686
20775W        W88993  37.275  32.842  14.985
20776W        W88994  13.307  39.576  12.169
20777W        W88995  41.541  24.124   0.043
20778W        W88996   3.544  37.220   3.164
20779W        W88997  41.952  13.605   1.205
20780W        W88998  12.606  41.797   1.277
20781W        W88999  41.450   7.825  13.903
20782W        W89000   1.110  28.971   1.346
20783W        W89001  24.172   8.870   1.735
20784W        W89002   1.341  39.682   1.684
20785W        W89003  37.340  43.375   0.771
20786W        W89004   5.149  33.510   0.195
20787W        W89005   3.062   3.752  10.708
20788W        W89006  19.065  39.061   4.173
20789W        W89007  23.017   1.347   2.761
20790W        W89008  35.250  31.486  14.023
20791W        W89009  27.988   9.260  11.402
20792W        W89010  17.740  24.469  13.367
20793W        W89011  11.317  19.080   3.262
20794W        W89012  15.234  20.707  10.630
20795W        W89013  12.893   3.488  10.685
20796W        W89014  41.372  44.227  14.924
20797W        W89015  14.780  31.141   4.979
20798W        W89016  40.217  22.627   1.823
20799W        W89017  37.451  39.763  11.640
20800W        W89018   4.825  17.131   1.652
20801W        W89019   3.522  20.374  10.470
20802W        W89020   3.459  16.346   0.842
20803W        W89021  24.625  30.699  14.242
20804W        W89022   7.436   3.536  13.086
20805W        W89023  27.546  17.093  14.298
20806W        W89024  44.664  17.748  14.964
20807W        W89025  32.455  38.061  13.472
20808W        W89026  25.630  35.883  12.818
20809W        W89027  37.057  17.559  11.153
20810W        W89028  14.804  17.284  10.044
20811W        W89029   1.773  15.825  11.929
20812W        W89030  29.726  13.318   3.217
20813W        W89031  38.784   3.830  11.449
20814W        W89032  13.430  18.858  11.714
20815W        W89033  44.523  34.960   0.056
20816W        W89034  43.457  36.287  11.347
20817W        W89035   9.888  10.785  14.824
20818W        W89036   1.196  14.046  13.356
20819W        W89037  22.986  20.028   1.429
20820W        W89038   4.710   3.901   0.865
20821W        W89039  36.651  20.699  12.029
20822W        W89040  16.114   6.482  13.824
20823W        W89041  44.045  16.573   3.367
20824W        W89042   1.375   9.979   4.064
20825W        W89043   1.376  23.817  14.831
20826W        W89044  37.176  29.197  12.550
20827W        W89045  18.391  12.189   3.145
20828W        W89046   6.827  15.020   3.164
20829W        W89047  31.881  15.649  13.306
20830W        W89048  29.975  38.304   1.964
20831W        W89049  26.905  36.993   1.729
20832W        W89050  12.576   1.742   1.214
20833W        W89051  35.518  10.868  12.472
20834W        W89052  35.021  40.309   1.918
20835W        W89053  40.841  16.819   2.321
20836W        W89054   4.235  37.607  14.513
20837W        W89055  11.392  19.211  13.532
20838W        W89056  18.662  11.282  13.743
20839W        W89057  41.712  19.944   3.457
20840W        W89058  27.012  25.233  13.493
20841W        W89059  16.345  12.691  10.689
20842W        W89060  27.501  38.155   3.456
20843W        W89061  24.474  16.981  14.428
20844W        W89062  10.552  14.721   1.403
20845W        W89063  11.612   6.923  14.517
20846W        W89064  43.974  13.783  11.901
20847W        W89065  30.253  30.349   2.562
20848W        W89066  22.092   2.266  10.684
20849W        W89067   0.232   3.400  13.421
20850W        W89068  16.712  33.912   3.329
20851W        W89069  42.151  43.475   4.000
20852W        W89070  25.143  41.263   4.115
20853W        W89071  27.102   0.969   0.215
20854W        W89072  39.282  41.058   0.950
20855W        W89073  25.993  23.408   0.482
20856W        W89074   4.994   3.598   5.094
20857W        W89075  29.010   4.437  10.634
20858W        W89076  31.999  42.576   4.381
20859W        W89077   5.442  27.924   2.726
20860W        W89078  10.399   7.468   3.588
20861W        W89079  27.813  35.995   3.389
20862W        W89080  41.475  24.599   3.786
20863W        W89081   8.332   7.003  12.103
20864W        W89082  32.334  19.507  11.247
20865W        W89083   9.430   7.124   0.331
20866W        W89084  12.259  13.712   1.289
20867W        W89085   5.491   2.997  13.449
20868W        W89086  25.000  28.893   3.664
20869W        W89087   7.874  41.022  13.074
20870W        W89088  13.780  37.919   1.069
20871W        W89089  16.100  36.306   1.828
20872W        W89090  32.025  38.120   1.479
20873W        W89091  29.130  19.012   4.663
20874W        W89092  41.079  44.855   3.714
20875W        W89093  36.591  13.375  12.455
20876W        W89094  34.839  22.016   0.236
20877W        W89095  18.657  26.391   1.511
20878W        W89096  40.522  44.923  10.943
20879W        W89097  22.713  10.129  10.196
20880W        W89098  25.640   1.839   4.650
20881W        W89099  24.168  21.779   4.157
20882W        W89100  22.958  36.640  14.906
20883W        W89101  44.851  17.885  14.488
20884W        W89102  40.801  39.863   4.717
20885W        W89103  16.195  18.055  10.673
20886W        W89104  24.575  24.178   1.174
20887W        W89105  39.055  17.020   0.697
20888W        W89106   6.236   4.369  12.969
20889W        W89107  18.184  17.126   4.633
20890W        W89108  13.270   9.125   1.727
20891W        W89109  39.768  34.137  11.448
20892W        W89110  33.513   6.947  14.512
20893W        W89111  36.438  13.430   2.185
20894W        W89112  25.070  29.957   3.670
20895W        W89113  20.995  17.180   3.008
20896W        W89114  32.562  40.040  11.001
20897W        W89115  38.416  19.987  10.634
20898W        W89116  15.380  11.784  11.000
20899W        W89117   8.388  40.614  10.130
20900W        W89118  18.259  16.894   5.086
20901W        W89119  29.095  38.634  10.709
20902W        W89120  34.645  15.693  12.108
20903W        W89121  23.919  44.096   2.449
20904W        W89122  28.327   3.940  11.162
20905W        W89123  27.660   1.418  11.460
20906W        W89124  31.955  24.107  14.988
20907W        W89125   0.046  21.611   1.213
20908W        W89126  44.771  27.965   2.952
20909W        W89127   8.481  36.418  12.604
20910W        W89128  30.035  42.184  14.871
20911W        W89129  36.513   4.536   2.877
20912W        W89130  29.090  18.722   0.935
20913W        W89131  25.330  12.064   1.295
20914W        W89132   0.865  35.713   4.965
20915W        W89133  29.544  42.504   1.044
20916W        W89134   3.646  32.467   2.800
20917W        W89135   2.814  37.438   3.720
20918W        W89136  15.633  15.696  14.493
20919W        W89137  31.366   3.752   1.508
20920W        W89138  31.545  42.264   1.935
20921W        W89139  30.479  28.256  13.299
20922W        W89140  44.307  39.895   2.171
20923W        W89141   0.772  25.017   2.273
20924W        W89142  41.139   3.861   4.631
20925W        W89143  18.852   8.945   3.780
20926W        W89144  21.124   6.468  10.671
20927W        W89145   2.007  28.719   1.340
20928W        W89146  10.471   6.938  13.838
20929W        W89147  43.795  42.493   3.366
20930W        W89148   4.042   6.624  14.837
20931W        W89149   8.831   1.468  11.474
20932W        W89150  21.753  42.714  12.682
20933W        W89151  17.744  27.642   0.295
20934W        W89152  16.106  14.630  11.614
20935W        W89153   0.294  41.150   1.803
20936W        W89154  33.600  20.436  14.834
20937W        W89155  35.266  20.445  11.593
20938W        W89156  36.485  20.243   2.499
20939W        W89157  37.392  22.271  12.092
20940W        W89158  34.293  40.715   1.471
20941W        W89159  37.607  20.094   3.286
20942W        W89160  14.682  16.212   2.729
20943W        W89161  25.997   2.898   0.597
20944W        W89162  41.282  16.136   2.737
20945W        W89163  19.931   5.988  13.401
20946W        W89164   7.700  32.953   2.755
20947W        W89165  44.050  14.570  12.707
20948W        W89166  13.723  11.027   2.169
20949W        W89167   5.937  38.427   3.690
20950W        W89168  13.500  13.372   0.341
20951W        W89169  10.624  32.130  14.901
20952W        W89170   3.763  13.692  14.802
20953W        W89171   4.229  44.750  12.062
20954W        W89172  19.018  24.020  13.101
20955W        W89173  19.268  40.584  13.446
20956W        W89174   2.883  35.615  10.845
20957W        W89175  18.236   9.503  12.144
20958W        W89176  23.706  21.715   4.514
20959W        W89177  35.136  15.815   4.677
20960W        W89178  25.131  42.625   0.886
20961W        W89179  40.316  28.939   0.050
20962W        W89180  19.619  22.675   4.578
20963W        W89181  25.574   1.734   3.680
20964W        W89182   0.739  43.265  11.514
20965W        W89183  30.235  16.569  11.227
20966W        W89184   0.815   7.227   2.419
20967W        W89185   5.984  25.878  13.413
20968W        W89186  37.980  39.996  13.003
20969W        W89187   9.300  19.224  13.858
20970W        W89188  21.715  36.117  11.582
20971W        W89189  22.290  30.628   1.665
20972W        W89190   7.480   4.890  12.830
20973W        W89191   1.572  23.232  11.574
20974W        W89192  44.867  10.552   2.077
20975W        W89193  13.899  33.608  12.179
20976W        W89194  23.629   0.671  10.566
20977W        W89195  11.057   2.799  14.883
20978W        W89196  42.693  25.689   3.779
20979W        W89197  37.331   4.234   1.172
20980W        W89198  20.016  39.185  14.084
20981W        W89199  11.544  44.553   1.408
20982W        W89200  14.579   1.062   3.235
20983W        W89201  29.921   6.553  13.297
20984W        W89202  42.541  18.082   4.456
20985W        W89203  41.815  11.145  13.836
20986W        W89204  42.991   3.274   5.411
20987W        W89205   3.314   1.224  13.868
20988W        W89206  17.518  27.605  11.707
20989W        W89207  35.432  26.969   3.285
20990W        W89208  31.487  42.940   0.229
20991W        W89209  24.560  38.550   2.203
20992W        W89210   7.510   2.826   3.721
20993W        W89211  17.074  21.644   3.186
20994W        W89212  35.960  26.103   4.966
20995W        W89213   3.231  28.108  10.597
20996W        W89214  24.111   1.252  11.725
20997W        W89215  20.399  43.183   4.789
20998W        W89216  27.864  29.615   0.748
20999W        W89217   1.450  16.030   3.421
21000W        W89218  29.442  41.489   3.614
21001W        W89219  41.536  20.383   3.650
21002W        W89220   4.649   1.179   0.160
21003W        W89221  12.313  42.553  12.624
21004W        W89222  33.544  44.295   1.792
21005W        W89223   0.362  39.764  14.295
21006W        W89224  23.500  27.027   1.026
21007W        W89225   6.327   4.179  10.554
21008W        W89226   9.361  38.977  13.042
21009W        W89227  12.298   6.655  12.918
21010W        W89228  24.991  27.101   1.366
21011W        W89229  31.449  25.282  14.806
21012W        W89230   8.910   2.508   2.538
21013W        W89231   7.793  26.743  14.193
21014W        W89232   2.206  36.386  14.318
21015W        W89233  11.643  15.881   2.990
21016W        W89234  30.883  36.269  13.504
21017W        W89235  19.444   4.346   0.477
21018W        W89236  23.212  21.999  14.855
21019W        W89237  25.943  39.483   0.988
21020W        W89238  29.135  34.328  11.764
21021W        W89239  27.407  28.325  12.404
21022W        W89240   2.160  12.125  11.413
21023W        W89241  17.973  28.607  13.326
21024W        W89242  24.281  10.298   0.482
21025W        W89243   7.856   0.014   3.761
21026W        W89244  35.979  22.972   0.758
21027W        W89245  21.632   9.391  13.053
21028W        W89246  15.309   1.468  11.520
21029W        W89247  33.066  13.011  10.445
21030W        W89248  20.759  26.169  14.505
21031W        W89249  16.300   6.042  12.450
21032W        W89250   8.265  33.488  11.158
21033W        W89251  37.735  22.407   5.114
21034W        W89252  25.383   7.828   5.269
21035W        W89253  36.079  26.575  14.316
21036W        W89254   0.724  37.918  13.547
21037W        W89255  33.524   7.870  12.562
21038W        W89256  31.534  11.347   4.124
21039W        W89257  35.722   8.881   3.844
21040W        W89258  23.491  34.928  12.085
21041W        W89259  18.795   8.191   2.261
21042W        W89260  20.692   5.405   3.185
21043W        W89261   2.711  10.165   0.399
21044W        W89262   4.729  17.985   1.285
21045W        W89263   9.563  18.123  10.414
21046W        W89264  30.834  36.897   1.814
21047W        W89265   1.388   4.297   0.755
21048W        W89266  24.263   6.303  12.181
21049W        W89267   5.470  40.727  14.419
21050W        W89268  43.567   4.362  11.549
21051W        W89269  12.439  19.132  14.389
21052W        W89270  19.997  42.002  14.892
21053W        W89271   5.624  10.350   0.360
21054W        W89272  11.217  17.269  12.453
21055W        W89273   7.736   4.450  12.692
21056W        W89274   5.568   7.725  13.325
21057W        W89275  23.501  17.264  12.481
21058W        W89276  16.202  15.559  10.558
21059W        W89277  28.724  32.941  14.559
21060W        W89278   4.336  12.090   4.568
21061W        W89279  35.386  29.410  12.418
21062W        W89280  22.261  21.003  10.618
21063W        W89281  26.889  27.890   3.283
21064W        W89282  34.921  43.836  14.331
21065W        W89283  42.472  29.127   4.535
21066W        W89284  42.260  11.787   1.212
21067W        W89285  42.286  42.561  11.578
21068W        W89286   3.423  35.339  14.467
21069W        W89287  11.898  23.541  12.283
21070W        W89288  30.585  23.386   3.831
21071W        W89289  42.021  43.898   3.344
21072W        W89290  41.402   0.515  10.593
21073W        W89291  29.757  32.182  13.412
21074W        W89292   2.699  16.530  12.647
21075W        W89293   0.337   5.665  11.494
21076W        W89294  42.455  25.630  13.103
21077W        W89295  44.617  20.067   3.687
21078W        W89296  40.897   1.481  11.186
21079W        W89297  30.621  20.289   3.820
21080W        W89298  32.020  44.860  14.667
21081W        W89299  44.548  21.625   1.333
21082W        W89300  44.140  16.140  14.256
21083W        W89301   5.923  25.131   0.255
21084W        W89302   6.746  42.617   3.397
21085W        W89303  22.642   7.168   3.278
21086W        W89304  15.538  37.909  13.043
21087W        W89305   9.226  25.712   2.720
21088W        W89306   0.030  22.307  11.065
21089W        W89307  29.213  14.340  13.361
21090W        W89308  16.239  21.867  11.768
21091W        W89309   2.475   6.048   0.123
21092W        W89310  38.967   2.668   3.933
21093W        W89311  30.261  17.336  11.747
21094W        W89312   9.293   5.360   3.043
21095W        W89313  23.569  31.652  14.384
21096W        W89314  15.152  24.031   4.602
21097W        W89315  23.645  22.380  11.517
21098W        W89316  40.308  35.447   3.757
21099W        W89317  11.333  12.192   2.230
21100W        W89318  42.355  33.372  11.910
21101W        W89319  37.458  11.103  12.513
21102W        W89320  34.082  40.294   2.721
21103W        W89321  31.743  17.585   3.194
21104W        W89322  14.745  28.980  12.898
21105W        W89323  35.598   1.829  12.973
21106W        W89324   0.994  21.234   1.884
21107W        W89325  25.804  22.078  11.114
21108W        W89326  13.284  38.067   0.883
21109W        W89327  35.471   1.968  13.511
21110W        W89328  23.126  35.298   1.269
21111W        W89329   4.105   9.632   4.267
21112W        W89330  17.235  36.595   3.604
21113W        W89331  27.043  26.351   3.161
21114W        W89332  29.077   7.448  10.711
21115W        W89333  14.911   6.817   0.521
21116W        W89334  31.897  10.257  10.781
21117W        W89335  43.869   9.571  13.007
21118W        W89336   6.886  29.895   1.781
21119W        W89337  17.815  36.079  10.716
21120W        W89338  44.183  33.639   2.658
21121W        W89339  13.913  41.922   3.737
21122W        W89340  38.650  20.243  11.170
21123W        W89341  20.999  26.130   0.005
21124W        W89342  17.526  42.885  10.381
21125W        W89343  27.873  43.168  12.853
21126W        W89344  20.657  18.282  11.143
21127W        W89345  13.586  11.838  13.899
21128W        W89346  24.949  41.821   2.729
21129W        W89347   1.278  22.236   4.343
21130W        W89348  42.283  12.301  13.334
21131W        W89349  10.638   5.016  14.290
21132W        W89350   9.372  44.310   2.308
21133W        W89351  38.984   8.902   2.265
21134W        W89352   5.425   0.101   1.801
21135W        W89353  21.756  44.986   1.335
21136W        W89354  24.110  24.144  14.432
21137W        W89355  31.430  17.257   1.463
21138W        W89356  30.998  34.954   3.253
21139W        W89357  25.891   0.672  10.571
21140W        W89358  16.933  41.518   2.600
21141W        W89359   8.376  40.852  12.419
21142W        W89360   0.500   7.155  13.772
21143W        W89361  21.505  10.410   1.917
21144W        W89362   6.776  28.551   4.915
21145W        W89363  39.807   7.756   2.081
21146W        W89364  32.981  12.659  14.503
21147W        W89365  37.663  41.573  12.996
21148W        W89366   0.198  13.776  11.458
21149W        W89367  12.715  33.569   1.941
21150W        W89368  19.159  13.186  10.390
21151W        W89369   0.107  15.126  13.517
21152W        W89370  15.047  36.066   4.629
21153W        W89371  19.248  38.377   1.483
21154W        W89372  22.300  34.179   0.264
21155W        W89373  28.522  26.384   2.675
21156W        W89374  24.187   7.457   2.810
21157W        W89375  23.877  34.557  11.110
21158W        W89376  40.733  39.943  14.963
21159W        W89377  19.680  20.152  14.489
21160W        W89378  23.989   4.323   1.754
21161W        W89379  33.362  22.449  13.881
21162W        W89380  33.193   4.994   3.325
21163W        W89381  15.090  26.991  13.500
21164W        W89382  30.391  40.863   1.958
21165W        W89383   5.342  39.137   0.402
21166W        W89384  34.908   1.498   1.927
21167W        W89385  16.032   7.820  13.873
21168W        W89386  39.870   9.167  12.884
21169W        W89387  36.838   1.803   0.491
21170W        W89388  38.489  13.111  11.644
21171W        W89389  12.719  20.949   2.319
21172W        W89390  35.965   1.516  13.901
21173W        W89391  20.217  35.882  11.593
21174W        W89392  41.675  17.104   4.158
21175W        W89393  15.274   7.359   4.655
21176W        W89394  19.384  44.096   2.677
21177W        W89395  42.268  34.942  14.050
21178W        W89396  23.527   8.168  11.416
21179W        W89397  24.945  17.640  12.443
21180W        W89398  42.829  23.859  12.572
21181W        W89399  26.512  34.626   1.232
21182W        W89400  22.024  29.816   3.537
21183W        W89401  18.099  44.402   0.875
21184W        W89402   4.216  28.610   3.304
21185W        W89403   0.452  39.546   3.545
21186W        W89404  23.581  22.227   4.599
21187W        W89405  31.792  16.290   4.578
21188W        W89406  26.125  37.094  14.688
21189W        W89407  39.568  44.876   0.320
21190W        W89408   1.908   9.461   2.649
21191W        W89409  39.347  38.884   0.305
21192W        W89410  43.991  40.963  10.061
21193W        W89411  22.158   5.400  14.334
21194W        W89412  25.551   0.402   0.842
21195W        W89413  11.873   0.938  10.498
21196W        W89414   2.080   4.457   1.770
21197W        W89415   2.137   0.849   2.231
21198W        W89416  42.875  38.568  14.927
21199W        W89417   0.408  16.164   4.260
21200W        W89418   7.172  23.532  12.963
21201W        W89419   6.396  22.345   1.153
21202W        W89420  40.137  18.768   1.857
21203W        W89421  20.469  28.585  13.827
21204W        W89422  22.560   1.777   3.665
21205W        W89423  34.586   3.948  11.627
21206W        W89424  11.627  37.126  12.082
21207W        W89425  29.028  22.972   4.456
21208W        W89426  18.789  24.537  10.837
21209W        W89427  23.692   9.230   0.921
21210W        W89428   6.716  24.659   0.405
21211W        W89429  38.449   4.798  12.001
21212W        W89430   1.837  10.369  11.475
21213W        W89431  21.661  40.306   4.090
21214W        W89432  14.305  35.454  14.006
21215W        W89433  14.264  38.380   2.625
21216W        W89434   0.469  30.590   3.388
21217W        W89435  19.867  31.931  10.540
21218W        W89436  31.166  24.149  14.312
21219W        W89437  30.916  23.033   2.685
21220W        W89438   5.878  15.375  10.463
21221W        W89439  14.507  24.049   1.308
21222W        W89440  13.001  18.857   3.723
21223W        W89441  11.172  18.852   2.328
21224W        W89442  13.646  36.756   3.668
21225W        W89443  11.698  42.359  10.933
21226W        W89444  44.560  37.865   0.239
21227W        W89445  11.313  40.165  14.607
21228W        W89446  15.695  24.148   3.188
21229W        W89447  19.127  18.586  13.040
21230W        W89448  30.266  21.083  12.611
21231W        W89449  31.267  10.111   3.300
21232W        W89450  44.924  29.423  14.274
21233W        W89451  25.816  30.112  12.008
21234W        W89452  36.655  28.496  12.260
21235W        W89453   2.408  24.253   3.313
21236W        W89454   2.116  11.735   2.309
21237W        W89455   3.983  33.946   4.239
21238W        W89456  38.589  18.574   1.263
21239W        W89457  23.488  38.069   3.162
21240W        W89458  13.790  11.305  11.318
21241W        W89459  24.988  11.139  11.347
21242W        W89460  26.415  26.126  12.078
21243W        W89461  38.145  25.932   1.952
21244W        W89462  36.821  44.742   1.414
21245W        W89463  30.292  14.715   3.533
21246W        W89464  41.212  14.219   1.216
21247W        W89465  34.101  40.264   1.712
21248W        W89466   3.709  30.542   0.796
21249W        W89467  15.315  39.792  12.810
21250W        W89468  10.297   2.521   1.051
21251W        W89469  20.763   9.687  14.307
21252W        W89470  20.072  32.199   1.971
21253W        W89471  44.493  36.954   0.255
21254W        W89472  29.480  29.405  10.525
21255W        W89473  26.385  19.394   4.953
21256W        W89474  13.252  42.326   3.545
21257W        W89475   3.654   0.764   3.418
21258W        W89476  28.176   3.021  14.685
21259W        W89477  10.709  39.708  12.203
21260W        W89478  25.266   9.257  11.591
21261W        W89479   0.788   0.098   2.684
21262W        W89480   1.760   3.285  14.091
21263W        W89481   7.873  21.269  14.350
21264W        W89482  32.701  22.358   1.764
21265W        W89483   5.245  20.837   0.860
21266W        W89484  20.727  14.423   3.245
21267W        W89485  16.408   8.924   4.515
21268W        W89486  11.421  20.100  13.282
21269W        W89487   9.781  39.910   0.738
21270W        W89488   1.627   6.092  12.088
21271W        W89489  40.094  29.130   4.149
21272W        W89490  38.032   5.939  11.703
21273W        W89491  43.789  42.999  12.977
21274W        W89492   6.950   3.754   1.332
21275W        W89493  12.323  25.591  10.815
21276W        W89494  15.621  39.446  12.061
21277W        W89495   1.724  31.994  11.747
21278W        W89496  40.254  15.320   0.600
21279W        W89497  30.089  37.590  11.661
21280W        W89498  10.801  34.644   0.352
21281W        W89499   0.001  28.050  10.910
21282W        W89500  12.761  10.627  11.529
21283W        W89501   0.379  20.773   4.707
21284W        W89502   0.944  43.875  10.932
21285W        W89503   3.211  35.471  13.438
21286W        W89504  10.464  44.623   0.696
21287W        W89505  34.421  13.113   4.945
21288W        W89506   8.278  19.633   5.214
21289W        W89507  33.585  29.575   4.583
21290W        W89508  18.787   6.299  13.391
21291W        W89509   7.182  36.953  11.953
21292W        W89510  24.009   8.155  11.582
21293W        W89511  43.187   7.834   0.907
21294W        W89512  36.185  20.745  10.645
21295W        W89513  22.619  26.977   0.313
21296W        W89514   7.857  19.537  12.829
21297W        W89515   3.891  29.118   4.232
21298W        W89516  31.625  16.100  14.375
21299W        W89517   9.905   7.883   0.429
21300W        W89518  31.890   6.376  14.831
21301W        W89519  14.616  24.402   0.467
21302W        W89520  15.708  43.587   0.039
21303W        W89521  37.974  19.771   0.028
21304W        W89522   4.230  38.057   4.729
21305W        W89523   0.923  44.336  14.043
21306W        W89524   6.651  25.044  10.820
21307W        W89525  34.972  13.123   0.811
21308W        W89526  39.040  11.986   4.109
21309W        W89527  37.548  19.484  10.231
21310W        W89528  16.835   5.917  11.176
21311W        W89529   9.427  14.276  14.815
21312W        W89530  36.423   5.852   0.898
21313W        W89531  38.278   3.264  11.606
21314W        W89532  18.113   2.347  14.134
21315W        W89533   7.709  24.277   3.170
21316W        W89534  18.205  27.194   4.864
21317W        W89535  41.321  18.640  13.343
21318W        W89536  42.064  25.920   1.325
21319W        W89537  13.358  16.198  10.420
21320W        W89538   5.139  35.047   3.264
21321W        W89539  23.052  43.877   2.131
21322W        W89540  42.369   7.229   0.184
21323W        W89541   9.247  20.869  12.063
21324W        W89542  25.621  22.552   3.179
21325W        W89543   1.794  36.837   0.404
21326W        W89544  20.513  34.636  10.701
21327W        W89545  30.185  16.776   1.336
21328W        W89546  27.219  14.241   1.273
21329W        W89547   5.725  42.617  14.926
21330W        W89548   1.386  33.899   3.242
21331W        W89549  31.161   2.958   2.748
21332W        W89550  23.018  34.930   1.702
21333W        W89551   1.882  26.050   1.199
21334W        W89552  16.075  24.439  13.055
21335W        W89553  43.026  20.026   1.618
21336W        W89554  37.943  26.098  11.555
21337W        W89555  25.218  11.120   2.813
21338W        W89556  11.543  36.541   2.205
21339W        W89557  16.064  17.051   1.650
21340W        W89558  31.746  27.612  12.035
21341W        W89559  20.210   7.727   4.019
21342W        W89560   1.249  18.197   3.438
21343W        W89561  43.667  31.507   3.213
21344W        W89562  33.660   1.485  13.830
21345W        W89563  17.967   4.618   3.231
21346W        W89564  25.394  22.699   0.508
21347W        W89565  28.406  28.706   0.433
21348W        W89566  17.864   6.730  12.114
21349W        W89567  29.447  42.884  13.486
21350W        W89568  32.127  22.633  10.492
21351W        W89569  36.610  38.514   2.679
21352W        W89570  38.544  34.055   1.172
21353W        W89571  40.390  27.027  12.334
21354W        W89572  42.667  38.011   4.928
21355W        W89573   6.449  40.388  11.886
21356W        W89574  37.388  40.666  13.058
21357W        W89575  32.416  36.063  11.205
21358W        W89576  36.571  14.325  14.900
21359W        W89577  41.427  17.609   1.109
21360W        W89578  18.981  37.088  14.040
21361W        W89579  26.558  32.060   0.399
21362W        W89580  40.012  30.370  14.231
21363W        W89581  25.616  14.743  10.253
21364W        W89582  30.164  13.303  13.077
21365W        W89583  29.217  44.566   1.409
21366W        W89584  40.882   9.696  14.882
21367W        W89585  42.571  30.747  12.475
21368W        W89586  31.406  43.734   1.246
21369W        W89587  35.885  20.490   3.735
21370W        W89588   1.884  17.184   1.027
21371W        W89589  34.041  30.377  11.531
21372W        W89590  37.405  10.527   2.173
21373W        W89591   2.388  19.713   5.115
21374W        W89592  29.616  32.479  13.812
21375W        W89593  36.923  24.210  14.863
21376W        W89594  15.866  35.421  12.876
21377W        W89595  29.369  25.203   2.632
21378W        W89596  11.719   3.448  13.048
21379W        W89597  43.284  22.823   0.927
21380W        W89598  12.126  43.442  12.861
21381W        W89599  44.655  22.130   3.163
21382W        W89600  37.074  16.657   2.248
21383W        W89601  21.809  40.835  12.435
21384W        W89602  15.658   7.189  14.283
21385W        W89603   3.937  10.296  14.421
21386W        W89604  32.370  38.100  14.058
21387W        W89605  37.487   9.438  14.970
21388W        W89606   2.378  15.868  14.359
21389W        W89607  12.888   0.970  13.453
21390W        W89608   2.238  28.327  14.546
21391W        W89609  37.402  29.385   1.784
21392W        W89610  29.440  30.052   4.385
21393W        W89611   7.019   1.035   3.732
21394W        W89612  31.743  42.083   3.701
21395W        W89613  12.688  43.950   1.899
21396W        W89614  44.482   2.320   1.454
21397W        W89615  22.816  20.036   4.849
21398W        W89616  27.401  14.649   0.201
21399W        W89617   0.876  29.099   0.015
21400W        W89618  40.367  34.630  13.839
21401W        W89619  36.979  12.414   4.565
21402W        W89620  17.563   6.396   2.200
21403W        W89621  39.848  32.827   2.801
21404W        W89622   8.142  12.161  12.052
21405W        W89623   1.336  30.645  12.093
21406W        W89624  30.343  17.148   2.944
21407W        W89625  38.358   4.923  12.481
21408W        W89626  37.083   7.210  10.842
21409W        W89627  25.477  30.406  12.831
21410W        W89628  15.630  11.606   1.339
21411W        W89629  37.088   0.988  10.801
21412W        W89630  13.707   2.744  14.311
21413W        W89631   9.194  44.753  11.631
21414W        W89632   9.445  28.054  10.590
21415W        W89633  31.928   7.284  11.002
21416W        W89634  16.695  35.124  14.583
21417W        W89635  35.183  44.378   3.609
21418W        W89636   7.822  10.704  13.739
21419W        W89637   9.602  38.525  13.884
21420W        W89638  31.854  40.400   3.678
21421W        W89639  42.556  28.541   4.518
21422W        W89640  15.684   8.095   3.204
21423W        W89641  34.038  12.726   3.374
21424W        W89642  10.191  42.989   3.730
21425W        W89643  44.848   4.657   4.099
21426W        W89644  33.092  44.632   0.960
21427W        W89645  26.086  34.070   2.782
21428W        W89646  36.718  43.831   1.743
21429W        W89647   4.236  13.096   3.740
21430W        W89648   2.816   4.218  10.731
21431W        W89649  40.609  33.618   3.384
21432W        W89650  36.624  27.645  11.027
21433W        W89651   3.273  40.011   3.199
21434W        W89652  17.278  41.008   4.379
21435W        W89653  16.442   9.882  11.591
21436W        W89654  33.450  11.776   1.221
21437W        W89655  36.789  12.103   0.290
21438W        W89656  23.963  24.116   3.649
21439W        W89657  28.898  33.675  10.610
21440W        W89658  21.089  23.765  14.365
21441W        W89659  29.591  44.587  10.753
21442W        W89660   5.881   9.867   4.049
21443W        W89661  16.746  25.451  11.516
21444W        W89662  16.190  12.419  10.289
21445W        W89663   7.312   8.286  11.253
21446W        W89664  22.614  32.928   1.693
21447W        W89665  32.541  12.304  11.866
21448W        W89666   0.804  41.941   4.961
21449W        W89667  21.477   2.176   2.236
21450W        W89668  24.740  41.345   2.675
21451W        W89669  44.078  10.295  12.483
21452W        W89670   9.418  31.434   4.703
21453W        W89671  41.297   4.053   0.905
21454W        W89672  14.326  17.176   4.056
21455W        W89673  40.469  30.749   4.542
21456W        W89674  27.540   9.768   1.019
21457W        W89675  32.556  38.988   0.495
21458W        W89676  41.923  17.278  12.950
21459W        W89677  19.543  36.134  14.226
21460W        W89678  39.933  37.386   2.203
21461W        W89679   2.742  15.750   0.934
21462W        W89680  27.015   2.361   1.278
21463W        W89681  12.154  16.721  12.205
21464W        W89682  43.469  11.357   4.655
21465W        W89683  26.500  34.573   4.511
21466W        W89684   3.416   8.917  12.380
21467W        W89685   3.632  24.639   2.800
21468W        W89686  27.522  16.063  14.351
21469W        W89687  41.325  10.512  10.006
21470W        W89688  17.963  37.186  14.431
21471W        W89689  26.541   5.257   4.132
21472W        W89690  44.729  10.387  14.019
21473W        W89691  27.511  20.438   0.461
21474W        W89692  21.794  18.780  14.783
21475W        W89693  40.717  30.333   3.299
21476W        W89694  40.955  13.044   1.938
21477W        W89695  34.504  25.945   2.412
21478W        W89696  25.602  31.558  13.393
21479W        W89697  17.299  26.065  14.403
21480W        W89698  23.557  40.335  12.011
21481W        W89699  18.793  23.864   4.100
21482W        W89700  40.259  10.702   3.182
21483W        W89701  37.716  15.389   4.352
21484W        W89702  41.821  22.465  10.309
21485W        W89703  35.496  42.926   2.807
21486W        W89704   9.262  33.820  13.528
21487W        W89705  10.208  14.500   2.826
21488W        W89706  31.516  14.611   3.998
21489W        W89707  44.920  16.996  12.455
21490W        W89708  37.998   1.977   3.137
21491W        W89709  10.402   3.218  13.204
21492W        W89710  29.497  27.398   4.104
21493W        W89711  21.768  29.407   4.051
21494W        W89712  26.920   7.845  12.007
21495W        W89713  24.366   7.869   1.736
21496W        W89714  25.680  37.452  10.757
21497W        W89715  32.396  19.829  12.888
21498W        W89716   4.412  26.089   1.724
21499W        W89717   7.179  16.632   2.598
21500W        W89718  18.240  35.143   4.887
21501W        W89719   3.423   8.347  10.650
21502W        W89720  18.193  39.850  11.912
21503W        W89721  31.065  42.299  12.384
21504W        W89722  12.361  10.208   1.289
21505W        W89723  44.998  40.422   3.278
21506W        W89724   9.171  42.745  13.548
21507W        W89725  10.168  14.093  12.989
21508W        W89726  35.165   6.277  14.354
21509W        W89727  27.124   3.237  13.157
21510W        W89728  31.112  32.432   2.342
21511W        W89729   8.177   2.624  12.110
21512W        W89730   2.634   4.408   3.608
21513W        W89731  23.754  17.299  14.029
21514W        W89732   7.891   3.113   3.311
21515W        W89733  31.942  23.063  14.831
21516W        W89734  14.831  17.579  12.090
21517W        W89735  31.012  36.568   0.273
21518W        W89736  44.982   6.477  13.998
21519W        W89737  10.433  26.515   2.741
21520W        W89738  42.255  10.383   1.475
21521W        W89739  21.358  44.008  12.105
21522W        W89740  26.924  24.709   1.808
21523W        W89741  35.643   2.205   1.864
21524W        W89742  20.657   6.434  12.363
21525W        W89743  43.490  21.125   4.424
21526W        W89744  18.718  39.334  12.405
21527W        W89745   2.833  38.749  14.982
21528W        W89746  28.645  31.450  13.269
21529W        W89747  28.915  43.499   1.182
21530W        W89748  33.434   8.258  12.912
21531W        W89749   6.687  31.055   2.192
21532W        W89750  32.584  28.867  12.183
21533W        W89751   6.253  39.254  12.499
21534W        W89752  20.157   2.154  12.856
21535W        W89753  26.878  10.439   0.927
21536W        W89754  39.334   9.711  13.863
21537W        W89755  27.813  13.578  10.417
21538W        W89756   6.362   5.684  14.903
21539W        W89757  35.828  41.922   4.517
21540W        W89758  40.085  16.539  14.846
21541W        W89759  37.031   7.335   4.554
21542W        W89760  26.736  38.420   3.960
21543W        W89761  41.329  44.407   4.371
21544W        W89762  39.416  33.366  11.986
21545W        W89763  20.294  19.193   1.345
21546W        W89764   4.148  20.986   2.274
21547W        W89765  19.133   5.356  11.143
21548W        W89766  22.215  41.991   0.695
21549W        W89767  38.070  13.120  10.947
21550W        W89768  33.803  26.639   0.760
21551W        W89769  34.113   4.234   5.446
21552W        W89770   5.505  27.406   4.129
21553W        W89771   9.956  18.048   1.337
21554W        W89772   5.463  30.698  14.332
21555W        W89773  10.310  40.135  11.161
21556W        W89774  27.111   6.077   0.264
21557W        W89775  20.590  36.323   4.540
21558W        W89776  19.789  20.480   3.557
21559W        W89777  12.090   9.651   2.846
21560W        W89778  36.957  37.051   2.898
21561W        W89779  38.465   8.374   4.586
21562W        W89780  11.090   0.275   2.036
21563W        W89781  41.465  13.395   1.282
21564W        W89782  16.633  18.949   0.615
21565W        W89783  42.264   3.437   4.534
21566W        W89784  32.310   8.412  13.487
21567W        W89785  25.237  39.545   2.728
21568W        W89786   3.002  30.410   0.398
21569W        W89787   6.726   1.511   1.775
21570W        W89788  41.853  28.123   0.497
21571W        W89789  41.862  35.038  14.360
21572W        W89790  44.906  15.434   4.133
21573W        W89791  35.398  36.331  13.102
21574W        W89792   8.387  13.588   2.675
21575W        W89793  13.774  37.227   1.086
21576W        W89794  41.366  18.595   3.785
21577W        W89795  33.980  10.527  11.902
21578W        W89796  18.522  27.677   1.275
21579W        W89797  44.876  22.071  12.005
21580W        W89798  16.296  12.672  14.479
21581W        W89799  35.899  26.164   3.370
21582W        W89800  30.101   2.233  10.356
21583W        W89801   2.208   2.334  12.826
21584W        W89802  44.765  10.072   0.381
21585W        W89803  26.549  43.382  14.421
21586W        W89804  28.959  11.871  10.723
21587W        W89805  14.362  37.998  12.517
21588W        W89806  43.413  31.515   4.066
21589W        W89807  38.979  30.875   2.977
21590W        W89808  17.193  31.886  13.418
21591W        W89809  25.242  21.405   2.439
21592W        W89810  31.613  10.655   2.976
21593W        W89811  16.264  27.324   0.173
21594W        W89812  36.383  17.109  11.597
21595W        W89813   1.838   8.651   2.252
21596W        W89814  27.056  25.766   5.037
21597W        W89815  20.578  43.930  11.149
21598W        W89816   7.457  18.553  14.375
21599W        W89817  17.191  31.163  10.607
21600W        W89818   2.275  13.883  10.806
21601W        W89819  31.124   8.923   3.887
21602W        W89820  11.573  34.635  10.836
21603W        W89821  33.382  41.289   3.944
21604W        W89822   1.552  10.809  11.542
21605W        W89823  41.496  41.020   1.896
21606W        W89824   1.202  40.612   0.760
21607W        W89825  38.443  16.287   3.822
21608W        W89826  17.212  44.282  13.312
21609W        W89827  32.323  33.985  13.045
21610W        W89828  39.382   5.507   1.952
21611W        W89829  28.084  18.609   4.966
21612W        W89830  15.299  23.001   4.545
21613W        W89831  43.761  31.009   0.829
21614W        W89832  27.157  26.492   4.097
21615W        W89833  11.364  37.932   2.334
21616W        W89834  41.073  23.998   3.670
21617W        W89835   5.904  33.671  11.579
21618W        W89836  22.773  14.265  13.951
21619W        W89837  25.044  43.385   2.815
21620W        W89838  11.427  40.495  12.841
21621W        W89839  16.068   9.428  12.637
21622W        W89840  11.336   0.049   0.174
21623W        W89841  23.381  14.317  13.591
21624W        W89842  14.298   5.244  12.877
21625W        W89843  26.189  39.091   3.546
21626W        W89844   0.732  44.767  10.477
21627W        W89845   7.942  22.760   0.416
21628W        W89846  38.592  26.733  12.503
21629W        W89847   6.912  37.346  11.729
21630W        W89848  38.424  23.722  13.527
21631W        W89849  36.335  23.582   1.833
21632W        W89850  14.361  13.796  14.158
21633W        W89851  33.896  39.881   4.946
21634W        W89852  44.405  16.698   4.360
21635W        W89853   2.782   2.921   3.492
21636W        W89854  32.770   3.157   9.962
21637W        W89855  30.585  13.364   4.973
21638W        W89856   9.235  31.982  11.252
21639W        W89857  40.380  24.316  10.166
21640W        W89858  43.866  29.677  14.821
21641W        W89859  32.179  10.473  11.630
21642W        W89860   0.799  32.851  13.757
21643W        W89861  29.710  23.198  13.386
21644W        W89862  32.483   5.725   4.148
21645W        W89863  29.634  40.101  14.344
21646W        W89864  14.723  28.558  14.833
21647W        W89865  33.583  18.382   3.221
21648W        W89866   8.810  29.717   4.614
21649W        W89867  26.704   5.677   1.288
21650W        W89868  11.352  14.267   0.269
21651W        W89869  19.333  37.697   0.098
21652W        W89870  15.864   9.217  11.708
21653W        W89871  39.178  37.895   0.356
21654W        W89872  32.572  10.141  12.425
21655W        W89873  28.022   3.844   2.475
21656W        W89874  11.153  37.441   2.341
21657W        W89875   6.623  34.147   1.338
21658W        W89876  32.434  21.082   1.361
21659W        W89877  23.463  43.180  14.403
21660W        W89878  38.013   9.874  12.773
21661W        W89879  36.106  20.470  12.904
21662W        W89880  30.115  39.959  11.142
21663W        W89881  29.535   6.666   3.285
21664W        W89882   9.325  22.967  14.595
21665W        W89883  16.141   4.684   1.239
21666W        W89884  33.580   8.849  12.561
21667W        W89885  27.521  14.005  13.570
21668W        W89886  17.489  35.990   1.325
21669W        W89887  31.115  32.483  14.010
21670W        W89888  11.821  26.735   2.424
21671W        W89889  18.326  40.209  12.532
21672W        W89890  41.128  20.366  12.550
21673W        W89891  44.792   3.977   2.771
21674W        W89892  14.128  43.808  14.743
21675W        W89893   2.121  23.143   2.877
21676W        W89894  19.156  39.054   3.656
21677W        W89895  40.643  42.199   3.209
21678W        W89896   9.396  39.098   0.216
21679W        W89897  22.586  32.058  10.961
21680W        W89898  44.720  33.346  13.061
21681W        W89899   4.618  15.908   3.108
21682W        W89900  21.056  44.409  11.630
21683W        W89901  19.223  13.191   3.416
21684W        W89902  41.886  33.108   3.229
21685W        W89903  25.230  37.565  13.424
21686W        W89904  15.194  26.953   2.002
21687W        W89905   0.777   9.330  12.858
21688W        W89906   1.366  21.074  13.230
21689W        W89907  16.707   8.207   0.474
21690W        W89908   0.544  17.102   4.373
21691W        W89909   6.157  41.953  11.450
21692W        W89910  32.849   0.578  11.958
21693W        W89911   6.847  43.892   3.342
21694W        W89912   4.656  13.289  10.960
21695W        W89913   2.394  25.704   2.415
21696W        W89914   4.782   6.561   2.176
21697W        W89915  22.722  17.192  11.174
21698W        W89916  22.162  24.723  11.488
21699W        W89917  41.101   0.441   1.921
21700W        W89918  37.798  44.934  11.122
21701W        W89919  29.290  27.527   3.573
21702W        W89920  39.050   7.732  10.726
21703W        W89921  38.596  19.525  14.504
21704W        W89922   7.895  20.986   3.524
21705W        W89923  24.868  31.465   2.769
21706W        W89924  17.079  31.482  14.557
21707W        W89925   5.203  41.517  13.476
21708W        W89926   0.810   2.171   1.419
21709W        W89927   1.318  13.100  14.921
21710W        W89928  11.020  32.391   0.263
21711W        W89929  15.052  39.039   0.856
21712W        W89930  33.881  35.810  11.212
21713W        W89931   2.033  41.293  10.354
21714W        W89932   2.917  23.238  11.102
21715W        W89933  34.020  31.968   1.203
21716W        W89934  22.233  24.616   4.692
21717W        W89935  30.513  36.005  11.938
21718W        W89936  23.331  34.993  10.226
21719W        W89937  38.117  21.814  11.630
21720W        W89938  42.045   7.870  14.518
21721W        W89939   4.401  42.140  14.194
21722W        W89940  42.166  32.320   4.723
21723W        W89941   3.830  33.800   2.688
21724W        W89942  12.157  11.848  10.757
21725W        W89943  41.295  29.353   4.373
21726W        W89944  43.829  41.766  10.659
21727W        W89945  31.525  40.015   1.427
21728W        W89946  40.966  17.428   3.716
21729W        W89947  30.499  17.493  14.520
21730W        W89948  10.756  17.821   2.129
21731W        W89949   1.737  18.421  12.009
21732W        W89950  34.319  36.916  13.368
21733W        W89951  18.669   7.427   1.281
21734W        W89952  23.574  22.181   1.909
21735W        W89953  24.259   3.657  11.225
21736W        W89954  10.596  29.277   3.309
21737W        W89955  33.635  30.489   4.765
21738W        W89956  33.869  44.296   3.242
21739W        W89957  12.876  13.749  11.240
21740W        W89958  10.713  24.974   3.811
21741W        W89959  20.843  30.926   1.178
21742W        W89960  19.428   5.802   2.705
21743W        W89961   6.836   5.870  13.758
21744W        W89962  30.374   6.775  12.456
21745W        W89963  36.108  28.087  12.371
21746W        W89964  26.610  31.636  10.452
21747W        W89965   0.878   6.502   0.515
21748W        W89966   0.179  31.348  13.816
21749W        W89967  32.036  42.394   3.381
21750W        W89968  10.672  44.455  10.577
21751W        W89969  40.461   3.517   1.269
21752W        W89970  41.460   6.229  11.720
21753W        W89971  18.652  36.142  14.264
21754W        W89972   0.367   1.460  10.440
21755W        W89973  38.641  31.121   2.701
21756W        W89974  20.139  10.882   4.181
21757W        W89975   7.665  38.524   4.681
21758W        W89976  23.494   4.934   2.307
21759W        W89977  34.471   7.656   1.390
21760W        W89978   3.430  17.995  10.764
21761W        W89979  30.092  19.159  13.439
21762W        W89980  31.654  40.489   2.939
21763W        W89981   0.648  26.747   3.549
21764W        W89982  22.588  40.839  11.985
21765W        W89983  30.187  23.280   0.805
21766W        W89984  30.084   7.525  12.574
21767W        W89985  31.106   6.747  10.247
21768W        W89986  14.035   4.343  12.838
21769W        W89987  24.261  26.774   0.880
21770W        W89988  19.092   3.847   3.891
21771W        W89989  16.109  20.063   1.090
21772W        W89990   9.875  40.282  13.336
21773W        W89991  33.228  31.038   4.666
21774W        W89992  12.269  21.476   0.318
21775W        W89993  42.419   2.745   2.682
21776W        W89994  32.853  21.283   2.960
21777W        W89995   8.196  21.051  14.720
21778W        W89996  24.178  27.987  12.086
21779W        W89997  26.735  43.219   0.358
21780W        W89998  44.724  15.739   2.737
21781W        W89999   6.814  37.461  14.106
21782W        W90000  31.008  33.042   4.810
21783W        W90001  41.001   3.762  10.981
21784W        W90002  21.563  26.433   2.787
21785W        W90003   1.397  29.154   4.391
21786W        W90004  16.825  30.263   2.329
21787W        W90005  32.512  25.523   2.451
21788W        W90006   1.352  10.945   1.485
21789W        W90007  25.530  10.037   0.925
21790W        W90008  20.544   8.480   1.580
21791W        W90009  41.523   6.684  14.729
21792W        W90010   1.701   3.874  14.804
21793W        W90011  20.191  23.065   3.148
21794W        W90012  22.697  29.184   1.528
21795W        W90013   6.339  35.342  13.825
21796W        W90014  17.676  29.438   3.270
21797W        W90015  15.166  24.813  13.839
21798W        W90016   1.845   4.432   2.242
21799W        W90017   8.574  27.220  14.389
21800W        W90018  30.173  26.181   1.204
21801W        W90019  16.313  39.749   4.164
21802W        W90020  34.383  20.871  14.687
21803W        W90021  29.797  29.578   1.683
21804W        W90022  39.360  21.767  13.054
21805W        W90023  12.904  39.268   2.354
21806W        W90024   8.944  35.112  12.007
21807W        W90025  37.307  18.752   3.701
21808W        W90026  22.107  12.812   2.477
21809W        W90027  10.481  23.549  12.036
21810W        W90028  15.894  15.508   4.501
21811W        W90029  30.639  32.483  12.481
21812W        W90030   1.871  24.729   0.741
21813W        W90031  10.358  24.360  14.893
21814W        W90032   6.632  30.965  13.861
21815W        W90033  32.025  12.877  11.148
21816W        W90034  36.304  30.933  13.324
21817W        W90035  20.582  43.074   4.313
21818W        W90036  33.048  27.571   4.302
21819W        W90037  26.861   2.381  14.138
21820W        W90038   4.270  12.024  10.850
21821W        W90039   8.356   7.190   3.689
21822W        W90040  26.571  16.481  14.916
21823W        W90041  29.395  20.225  14.392
21824W        W90042  15.914   8.422  14.882
21825W        W90043   3.624  31.039  11.561
21826W        W90044  11.396  28.443   2.686
21827W        W90045  21.247  24.137   2.392
21828W        W90046   2.767   4.322   2.322
21829W        W90047   4.406  12.333   3.214
21830W        W90048  33.096  11.607  10.969
21831W        W90049  17.211  39.500   0.779
21832W        W90050   1.847   0.510   1.727
21833W        W90051  20.653  25.935   2.771
21834W        W90052  40.459   6.458   1.609
21835W        W90053  18.733  10.409  10.304
21836W        W90054  11.571   0.028   2.250
21837W        W90055  17.662  10.338   1.123
21838W        W90056  43.539  27.559   1.196
21839W        W90057  42.371  17.991   1.885
21840W        W90058   0.412  14.968  14.763
21841W        W90059  23.942  19.345   3.687
21842W        W90060   3.843  29.659   3.528
21843W        W90061  20.701  11.682  12.038
21844W        W90062  41.537  38.800  12.059
21845W        W90063  18.619  27.789   2.717
21846W        W90064   0.025  34.502  13.444
21847W        W90065  30.591  25.224   3.244
21848W        W90066  38.347  10.190   3.171
21849W        W90067  29.149  17.926   9.851
21850W        W90068  43.689   2.451   2.247
21851W        W90069  34.908  30.871   2.328
21852W        W90070  13.881  29.648  14.550
21853W        W90071  25.682   9.939  11.077
21854W        W90072  24.165  24.143  11.163
21855W        W90073  17.200  30.439   1.292
21856W        W90074  40.681  42.431   0.615
21857W        W90075  20.189  21.965  11.500
21858W        W90076   5.241  35.883  13.906
21859W        W90077  30.358  39.492  12.420
21860W        W90078  10.345  42.605   2.396
21861W        W90079  44.339  13.768  11.083
21862W        W90080  24.222  29.617   4.191
21863W        W90081  13.695  35.836  14.880
21864W        W90082   4.529  38.577  14.367
21865W        W90083  31.401   2.217  11.586
21866W        W90084  33.427  32.555   0.387
21867W        W90085  44.800  40.505   0.874
21868W        W90086  33.223   8.012  11.957
21869W        W90087  22.192  22.122  12.201
21870W        W90088  38.913  10.778  11.541
21871W        W90089   8.987  12.525   2.281
21872W        W90090  11.969   5.813  13.447
21873W        W90091  14.496  22.049  14.229
21874W        W90092  13.362  19.249  13.569
21875W        W90093   1.066  15.736   2.255
21876W        W90094  30.983  33.162  10.169
21877W        W90095   0.794  24.846   3.711
21878W        W90096  38.450  22.540   0.359
21879W        W90097  31.336  42.541  13.537
21880W        W90098  41.796   8.210  11.171
21881W        W90099   2.762   2.465   4.219
21882W        W90100  24.838  44.884  11.692
21883W        W90101  40.356   7.723  12.475
21884W        W90102  25.371   3.137   2.167
21885W        W90103  17.846   1.319  12.875
21886W        W90104  10.863   6.158   3.706
21887W        W90105  20.313  44.161   2.266
21888W        W90106  16.828  22.937   0.725
21889W        W90107  42.502  43.288  12.083
21890W        W90108  38.851  23.180  11.867
21891W        W90109  36.843  23.258  12.926
21892W        W90110  21.259   5.791   2.368
21893W        W90111  36.121  18.815   4.584
21894W        W90112  20.588  43.586   1.030
21895W        W90113  20.789   1.716  12.483
21896W        W90114  37.575  20.715  14.910
21897W        W90115  34.445  22.001  14.449
21898W        W90116  36.312  17.062  12.530
21899W        W90117  27.920  38.864  12.952
21900W        W90118  34.284  23.951   2.652
21901W        W90119   8.675  39.817   1.818
21902W        W90120  11.844  27.952  13.098
21903W        W90121  30.868  33.417   0.354
21904W        W90122   6.917  10.642  13.303
21905W        W90123  37.927   5.454  11.041
21906W        W90124  24.414  36.822  12.663
21907W        W90125  13.843  38.980  11.830
21908W        W90126  26.902   8.638  11.644
21909W        W90127  25.211   7.989  11.217
21910W        W90128  29.160  37.300  10.924
21911W        W90129  10.297  28.733   1.635
21912W        W90130   3.262  21.191  14.303
21913W        W90131  39.820  40.316  12.982
21914W        W90132  29.288  27.812   1.235
21915W        W90133   5.884  37.595  13.769
21916W        W90134  12.599  14.945  11.099
21917W        W90135  18.515  13.612  11.464
21918W        W90136   7.845  22.775   3.272
21919W        W90137  23.607  38.561   3.200
21920W        W90138  21.172   6.846  13.538
21921W        W90139  38.402  14.251  10.656
21922W        W90140   7.744  42.102  13.908
21923W        W90141  21.978  16.132   1.329
21924W        W90142  24.939  38.239   4.546
21925W        W90143  14.082  34.324  11.477
21926W        W90144  29.226  17.818  11.170
21927W        W90145  38.550  20.697  11.406
21928W        W90146  39.658  38.222   4.162
21929W        W90147  39.297  14.308   0.849
21930W        W90148   6.198  13.350   1.017
21931W        W90149  28.882  23.032   2.610
21932W        W90150   1.863  21.144   1.696
21933W        W90151  27.442   6.289  11.982
21934W        W90152  32.160   4.747  12.040
21935W        W90153  25.421  43.277  12.401
21936W        W90154  33.909   2.218  11.141
21937W        W90155   0.920  23.265  12.973
21938W        W90156  11.911   5.812  10.751
21939W        W90157  18.826  11.758  12.072
21940W        W90158  38.439  44.701   3.267
21941W        W90159   3.571   0.726  10.685
21942W        W90160  41.552  36.832  13.425
21943W        W90161  27.073  16.561   2.706
21944W        W90162  24.095  11.272  11.248
21945W        W90163  17.776  11.359   1.412
21946W        W90164  14.652  24.527  11.948
21947W        W90165  25.023  25.954   2.718
21948W        W90166   8.743  13.886   4.107
21949W        W90167   7.870   3.793  13.318
21950W        W90168  12.220  16.305  13.710
21951W        W90169  21.638  33.628   3.145
21952W        W90170  42.485  33.814  10.616
21953W        W90171  29.971  41.413  12.449
21954W        W90172  24.798  17.856  14.531
21955W        W90173   7.958  31.544  14.846
21956W        W90174  36.919  30.758  11.579
21957W        W90175   6.525  30.979   3.825
21958W        W90176  43.737  39.148   4.554
21959W        W90177   9.214  31.366   2.411
21960W        W90178  11.652  14.013   9.958
21961W        W90179   2.717   2.435  11.960
21962W        W90180  11.412  31.165   1.263
21963W        W90181  23.169  23.274  13.058
21964W        W90182  12.755  36.677   3.634
21965W        W90183   3.929  20.047   0.904
21966W        W90184   2.173   0.510   0.192
21967W        W90185  34.183  36.818   4.156
21968W        W90186   3.885  11.478  13.301
21969W        W90187  37.943  41.468  14.017
21970W        W90188  15.610   2.719   0.266
21971W        W90189  23.284   0.843  13.851
21972W        W90190   8.130  27.336  13.037
21973W        W90191  34.846  37.779  13.053
21974W        W90192  10.135  12.429  14.068
21975W        W90193   3.005  18.649   3.823
21976W        W90194  18.747  23.680   4.980
21977W        W90195  37.454  12.834   2.627
21978W        W90196  38.915   9.090  14.483
21979W        W90197  37.808   9.684  11.493
21980W        W90198  23.459  33.521  14.343
21981W        W90199  22.103  32.667   4.696
21982W        W90200  24.689  11.165   2.810
21983W        W90201  31.831  43.495   3.275
21984W        W90202  22.218  16.303   3.219
21985W        W90203  18.854  21.154   4.813
21986W        W90204  40.750   5.255   2.536
21987W        W90205   5.564   0.017   1.299
21988W        W90206  17.573  44.805  14.953
21989W        W90207  17.515  43.748  14.887
21990W        W90208  20.115  10.738   3.196
21991W        W90209  12.318   8.288  12.075
21992W        W90210  25.550  21.523   4.526
21993W        W90211  33.681  36.043   1.214
21994W        W90212  10.145  22.412  14.113
21995W        W90213   6.633  27.280  11.326
21996W        W90214  11.223  25.682   3.865
21997W        W90215  17.973  38.347   0.513
21998W        W90216  10.790  30.592  13.958
21999W        W90217  19.519   6.407   2.338
22000W        W90218  44.289  12.568  11.599
22001W        W90219  11.201  13.347   5.048
22002W        W90220   9.079  16.632  14.359
22003W        W90221   2.451  37.187  11.518
22004W        W90222  17.563  20.310   2.769
22005W        W90223  17.222  17.547   4.571
22006W        W90224  20.689   5.851  11.187
22007W        W90225  17.696  44.820   2.781
22008W        W90226   0.907  41.563  10.650
22009W        W90227  22.249   0.531   3.234
22010W        W90228  31.174  22.997  12.531
22011W        W90229  39.050  12.412   3.294
22012W        W90230   8.760  28.479   3.890
22013W        W90231   3.351  35.487  10.669
22014W        W90232  33.805  12.766  10.593
22015W        W90233   3.275   2.598  13.344
22016W        W90234  21.747  24.927  12.449
22017W        W90235  13.406  10.293   4.686
22018W        W90236  25.972  41.495  12.459
22019W        W90237  27.051  16.361  10.870
22020W        W90238  30.987  41.510   1.754
22021W        W90239  34.486  38.867   3.794
22022W        W90240   3.157   3.099  13.228
22023W        W90241   9.315   5.724   2.676
22024W        W90242  33.822  27.447  14.515
22025W        W90243  33.799  18.633  11.985
22026W        W90244  38.901  43.324   3.204
22027W        W90245  13.105  41.632  13.565
22028W        W90246   0.444  11.084  11.131
22029W        W90247  29.228  14.306   0.508
22030W        W90248  32.468  20.211  11.050
22031W        W90249  16.779   2.949   3.228
22032W        W90250  26.154   0.596  11.915
22033W        W90251  31.545   5.930   5.029
22034W        W90252  16.559  25.087   2.868
22035W        W90253  20.705  10.881   2.366
22036W        W90254   1.418  26.177  11.681
22037W        W90255  37.805   0.120  13.414
22038W        W90256  39.987  32.479  13.439
22039W        W90257  31.236  34.908   1.278
22040W        W90258   5.873  39.061   4.486
22041W        W90259  19.283  21.575  12.054
22042W        W90260  10.346  20.564   3.139
22043W        W90261  23.163  41.568   3.225
22044W        W90262   0.730  13.121   3.238
22045W        W90263  30.566  12.263   1.348
22046W        W90264  18.623  35.420   4.327
22047W        W90265   1.362  19.638   2.759
22048W        W90266  32.835  29.126  10.279
22049W        W90267  13.133  38.312  11.358
22050W        W90268  37.265  31.458   0.450
22051W        W90269   2.346   5.405   1.958
22052W        W90270  40.074  44.978   1.330
22053W        W90271  28.545  30.543  12.583
22054W        W90272  33.534  36.393  13.502
22055W        W90273  25.028  13.201  14.375
22056W        W90274  27.624   0.345  12.848
22057W        W90275  23.118  44.029  13.479
22058W        W90276  38.978  35.796   4.503
22059W        W90277   8.743  30.928   3.461
22060W        W90278   6.191  23.641   2.239
22061W        W90279   2.712  38.078  14.470
22062W        W90280  11.863   5.708  11.603
22063W        W90281  19.222  19.583  13.328
22064W        W90282  14.702  29.596   1.184
22065W        W90283  10.769  20.772  11.341
22066W        W90284  38.335  40.660   3.267
22067W        W90285  40.732  31.842   5.137
22068W        W90286  44.083  41.757  14.274
22069W        W90287   1.498  14.080   3.986
22070W        W90288   9.235  26.176   1.741
22071W        W90289  24.064  44.434   2.812
22072W        W90290   3.774  35.530   4.068
22073W        W90291  40.408  39.073  11.680
22074W        W90292  39.881  11.589  14.230
22075W        W90293   3.875   3.046   3.569
22076W        W90294  40.566  27.411   0.418
22077W        W90295  21.830  42.736  12.188
22078W        W90296  15.094  17.049  11.469
22079W        W90297  11.237  42.419  12.147
22080W        W90298  32.168  23.983  13.415
22081W        W90299  44.276  44.703   2.704
22082W        W90300  43.916  18.998   2.335
22083W        W90301   5.374  26.543  12.542
22084W        W90302  39.069  26.951  12.548
22085W        W90303  44.480  15.151   4.381
22086W        W90304  19.728   0.007   1.819
22087W        W90305  16.142   0.062   0.899
22088W        W90306  25.012   4.340   2.739
22089W        W90307  43.480   6.818   0.482
22090W        W90308   7.393  43.457   3.871
22091W        W90309   7.064  34.096   2.346
22092W        W90310  36.859   0.223   1.217
22093W        W90311  29.156  33.155   3.736
22094W        W90312   4.813  12.167  14.511
22095W        W90313  37.259  17.524   2.332
22096W        W90314  21.254  21.199   2.274
22097W        W90315  13.685  40.997   2.804
22098W        W90316  26.529  29.593   3.555
22099W        W90317  13.779   4.731  13.895
22100W        W90318  38.291   9.996  13.191
22101W        W90319  12.311  23.090   1.973
22102W        W90320   4.968  40.950   9.656
22103W        W90321  17.984  36.107   1.439
22104W        W90322  41.965  41.804  10.596
22105W        W90323  32.080  34.891  10.469
22106W        W90324  42.982   0.390   0.845
22107W        W90325  31.095  10.746  14.390
22108W        W90326   2.330   5.948  13.905
22109W        W90327  30.899  33.399   1.215
22110W        W90328   6.741  13.933  12.925
22111W        W90329  33.658  25.017  12.364
22112W        W90330  24.688  33.116   4.323
22113W        W90331  22.749  37.427   0.857
22114W        W90332  21.486  21.195   5.001
22115W        W90333  16.871  10.768  11.524
22116W        W90334  15.648  30.699   3.715
22117W        W90335  30.253  26.684   2.382
22118W        W90336  16.024   5.445  11.104
22119W        W90337   0.861  17.024  11.846
22120W        W90338  15.502   9.235   1.953
22121W        W90339  18.785  30.886  10.120
22122W        W90340  34.988  38.799   2.724
22123W        W90341  20.297  39.533   2.235
22124W        W90342  30.968  15.284   0.288
22125W        W90343  43.589  39.548  10.387
22126W        W90344  29.660  42.508  15.000
22127W        W90345  20.810  12.587   1.749
22128W        W90346   6.925  15.263  14.490
22129W        W90347  19.051   1.458   2.459
22130W        W90348  39.420  13.487  13.618
22131W        W90349  44.424  22.016   4.571
22132W        W90350  22.763  21.799   2.454
22133W        W90351   3.759   8.952   5.074
22134W        W90352  39.800  14.261   0.752
22135W        W90353  28.864   3.265   2.203
22136W        W90354  21.995   0.198   4.140
22137W        W90355  16.677  32.600  14.544
22138W        W90356  11.751   0.781  14.328
22139W        W90357  10.265   7.149  12.415
22140W        W90358  12.018  38.348   4.344
22141W        W90359  31.021  42.020  12.828
22142W        W90360  25.728  34.994   2.638
22143W        W90361  31.618  20.073  10.863
22144W        W90362  16.079  44.045  10.774
22145W        W90363  44.850  26.108   2.127
22146W        W90364  17.761  17.850  12.169
22147W        W90365   7.181  41.820  12.701
22148W        W90366  21.133  43.915   0.693
22149W        W90367  31.633  43.722  13.855
22150W        W90368  23.472  15.289   1.381
22151W        W90369  34.189  31.381   2.043
22152W        W90370  30.975  20.822  13.323
22153W        W90371  36.968   0.682   1.705
22154W        W90372   2.227  33.948  11.000
22155W        W90373  23.031  41.760   4.724
22156W        W90374  28.438   0.987  10.639
22157W        W90375   4.805   4.363   3.809
22158W        W90376  21.240   3.418  12.414
22159W        W90377  21.940  42.755   4.567
22160W        W90378  17.301   3.175  14.373
22161W        W90379  14.854   1.776   3.700
22162W        W90380  38.608  31.135   0.069
22163W        W90381   6.330  11.232  13.114
22164W        W90382  39.773  36.441  11.696
22165W        W90383   8.398  10.508   4.340
22166W        W90384  21.622  43.800   4.089
22167W        W90385  34.365  38.534   3.377
22168W        W90386   5.319  18.449   0.235
22169W        W90387  27.613  17.235  10.721
22170W        W90388  35.168  32.231   4.006
22171W        W90389  27.734  33.421   4.055
22172W        W90390  17.769  35.391   4.896
22173W        W90391  32.836  14.269   1.942
22174W        W90392  20.227  22.586  14.120
22175W        W90393  37.969  19.993  12.446
22176W        W90394  39.122  27.546  11.619
22177W        W90395  23.982  16.661   4.548
22178W        W90396   0.761  36.549   4.496
22179W        W90397  30.117  39.443  12.860
22180W        W90398  43.280  34.598   4.719
22181W        W90399  28.142  22.079  14.450
22182W        W90400   6.320   0.427  10.470
22183W        W90401  14.086  37.216  13.555
22184W        W90402  31.200  13.242   1.008
22185W        W90403  21.598   9.798  10.650
22186W        W90404  22.185  43.881   1.016
22187W        W90405  12.784   8.856   1.783
22188W        W90406  40.334   6.938  12.096
22189W        W90407  11.809  42.239   0.861
22190W        W90408  14.276   8.887   3.099
22191W        W90409  35.032   8.963   3.248
22192W        W90410  43.641  41.859   4.987
22193W        W90411  40.152  33.465  11.952
22194W        W90412   5.650  18.165   1.015
22195W        W90413   9.160   2.244  13.104
22196W        W90414  27.682  13.269   2.841
22197W        W90415  36.882  26.174  14.521
22198W        W90416  12.909  27.045   2.981
22199W        W90417  21.469  27.855  11.187
22200W        W90418  35.082  37.059  11.144
22201W        W90419  17.482  12.637   4.874
22202W        W90420  10.095   2.580   4.620
22203W        W90421  38.378   2.082   2.340
22204W        W90422   8.604  37.293  13.844
22205W        W90423   4.597  14.653   4.564
22206W        W90424  27.253   8.857  11.242
22207W        W90425   3.228  15.660   3.691
22208W        W90426  28.852   8.422   3.189
22209W        W90427  23.570   4.442   4.465
22210W        W90428  37.501  26.176   2.289
22211W        W90429  25.194  17.529   3.277
22212W        W90430  13.085  22.590   4.992
22213W        W90431  32.615  14.114  10.606
22214W        W90432   4.680   2.382  14.333
22215W        W90433  14.631  16.717   0.913
22216W        W90434   8.794   8.910  14.919
22217W        W90435  44.286  33.110  11.000
22218W        W90436  27.608  22.123   0.751
22219W        W90437  36.454  15.542  11.681
22220W        W90438   1.507   8.593   2.671
22221W        W90439  26.105  16.863  11.495
22222W        W90440  19.772  37.485  13.772
22223W        W90441  13.193  32.707   2.379
22224W        W90442  11.150   6.596  12.366
22225W        W90443  36.961   4.294   2.874
22226W        W90444  30.666  19.593   4.315
22227W        W90445  24.849  34.804  11.999
22228W        W90446  21.042  22.887  13.494
22229W        W90447  42.857  27.631   2.906
22230W        W90448  42.933  30.890   5.077
22231W        W90449   0.913  12.706  10.729
22232W        W90450  40.996  39.731  12.664
22233W        W90451  25.962  41.957  13.964
22234W        W90452  39.095  42.466   2.569
22235W        W90453  34.732   4.971   0.957
22236W        W90454  25.419  18.717  11.967
22237W        W90455  37.459   9.318  10.789
22238W        W90456  26.413   7.301   0.637
22239W        W90457  23.569  24.220   1.857
22240W        W90458  28.334   9.075   4.347
22241W        W90459   8.871  24.284   4.216
22242W        W90460  40.943  15.796   2.224
22243W        W90461  24.814  23.908  14.847
22244W        W90462  27.405  16.130   3.206
22245W        W90463  44.518  12.795   1.167
22246W        W90464  11.716  20.187   1.730
22247W        W90465  36.367   6.867  10.760
22248W        W90466  11.188  27.633   3.386
22249W        W90467   9.746  34.545   3.312
22250W        W90468   9.344  18.022   5.437
22251W        W90469  11.401   0.320  13.056
22252W        W90470  41.038  35.516   4.212
22253W        W90471  27.273   2.350   4.126
22254W        W90472  14.968  21.647  11.720
22255W        W90473  19.567  10.508  11.041
22256W        W90474  33.950  17.768  10.543
22257W        W90475  15.647  31.865   2.882
22258W        W90476  33.059  44.109   1.657
22259W        W90477  16.190  32.962  14.505
22260W        W90478  19.113  21.706  10.673
22261W        W90479   4.206  12.337   0.321
22262W        W90480   9.836   8.599   4.461
22263W        W90481  13.881  34.470  14.975
22264W        W90482  40.711   6.466   0.512
22265W        W90483  11.558  29.564   3.329
22266W        W90484  14.095  19.592   2.663
22267W        W90485  43.827  37.607   4.166
22268W        W90486  14.018  16.305  12.272
22269W        W90487  28.357  35.980   2.734
22270W        W90488  22.586  28.539  14.018
22271W        W90489   4.853  12.134   1.406
22272W        W90490  19.391  12.877  12.372
22273W        W90491  11.620  41.239   0.970
22274W        W90492  23.230  32.233  13.482
22275W        W90493  23.962   7.755  13.800
22276W        W90494  42.732  36.054   0.517
22277W        W90495  24.089   2.818   4.938
22278W        W90496  14.496  15.462   0.158
22279W        W90497   0.568  16.892  13.484
22280W        W90498  10.148  21.749  14.864
22281W        W90499  17.046  39.179  14.709
22282W        W90500  16.905   4.711   0.964
22283W        W90501   3.199  31.434  12.065
22284W        W90502   4.045  10.057  11.755
22285W        W90503  16.571  39.967   4.556
22286W        W90504  27.678  26.477   5.005
22287W        W90505  30.352   7.915   3.655
22288W        W90506  20.597   8.439   1.060
22289W        W90507   2.780  33.860   4.628
22290W        W90508  37.792   3.764   1.756
22291W        W90509   2.611  31.729   2.418
22292W        W90510  14.021  17.778   4.767
22293W        W90511  20.647   9.964   1.387
22294W        W90512  15.316  11.115  12.645
22295W        W90513  16.583  42.197  11.530
22296W        W90514  11.823  41.136  10.014
22297W        W90515  26.640  26.445   0.537
22298W        W90516   1.319  29.013  11.109
22299W        W90517  12.109  14.798   4.042
22300W        W90518   3.063  25.772   2.842
22301W        W90519  15.195  22.401   3.293
22302W        W90520  39.624  13.783  10.720
22303W        W90521  35.995  37.924   2.839
22304W        W90522  17.806   2.798   0.987
22305W        W90523  21.368   0.882  13.909
22306W        W90524   6.824  43.893  11.975
22307W        W90525  42.072  24.715   4.054
22308W        W90526   8.688  12.792  12.498
22309W        W90527   2.297   5.110  11.177
22310W        W90528   5.880   2.422  10.544
22311W        W90529  43.044  27.431   4.066
22312W        W90530  10.658  18.198  12.016
22313W        W90531  23.054  34.079  10.715
22314W        W90532  31.894  41.793  14.919
22315W        W90533  10.714  38.293  13.432
22316W        W90534  27.082  19.957  14.237
22317W        W90535  35.275  18.810   0.008
22318W        W90536  24.418  39.529  10.692
22319W        W90537   2.248  21.921  11.222
22320W        W90538  16.150  43.549  13.889
22321W        W90539   0.936  39.437   3.278
22322W        W90540  31.384   7.187  12.211
22323W        W90541  13.730  30.097  12.140
22324W        W90542  29.977   8.792  13.383
22325W        W90543  25.346  11.876  11.722
22326W        W90544  20.642   4.316  13.565
22327W        W90545   9.174   9.244  14.709
22328W        W90546  13.418  23.387  10.134
22329W        W90547  42.938  24.059  14.479
22330W        W90548   7.800  25.482  11.900
22331W        W90549  37.796  11.619  14.367
22332W        W90550  15.662  38.068   2.203
22333W        W90551  40.740   9.532   2.590
22334W        W90552  23.238   7.748  12.478
22335W        W90553  28.668   0.536  10.517
22336W        W90554  13.747  11.888  14.413
22337W        W90555  41.996  31.154  12.080
22338W        W90556  20.324  33.288   4.667
22339W        W90557  19.954  24.447  13.393
22340W        W90558  25.134   1.767   3.404
22341W        W90559  24.643   9.317  10.733
22342W        W90560  27.011  25.731   1.853
22343W        W90561   6.408  14.619  12.062
22344W        W90562   7.089  32.673   3.321
22345W        W90563  19.265  20.928   4.481
22346W        W90564  10.922  35.623  13.379
22347W        W90565  40.220   3.920   2.887
22348W        W90566  33.417   4.295  12.129
22349W        W90567  22.670   9.349  10.740
22350W        W90568   2.503  20.685  14.510
22351W        W90569  41.738  21.281  14.509
22352W        W90570  34.539  38.261   1.578
22353W        W90571  13.442  10.121   1.943
22354W        W90572   3.338  22.443  11.575
22355W        W90573  25.171  43.798  13.025
22356W        W90574  12.722  42.908  13.922
22357W        W90575  12.609  14.302  13.010
22358W        W90576  37.528   4.942   4.069
22359W        W90577  11.092  44.794  11.875
22360W        W90578   8.615   4.810   4.833
22361W        W90579  32.258  13.808   4.484
22362W        W90580  12.356  22.828   1.513
22363W        W90581  36.683  43.008   2.324
22364W        W90582  41.977  29.673  11.265
22365W        W90583   6.415  38.975   1.400
22366W        W90584  25.194  26.211   3.622
22367W        W90585  18.533  30.683  13.561
22368W        W90586   3.728  31.563  13.821
22369W        W90587  38.728  38.536   4.000
22370W        W90588  30.011  37.031  14.463
22371W        W90589  15.246  11.191   1.788
22372W        W90590  39.155  26.520  11.672
22373W        W90591  11.085   3.208   0.839
22374W        W90592  13.240   2.658  11.134
22375W        W90593  41.453  14.742  13.942
22376W        W90594  29.232  30.911   3.264
22377W        W90595   7.815  35.429  14.335
22378W        W90596  39.862  42.718   0.399
22379W        W90597   0.510  34.418   0.285
22380W        W90598  39.296   6.473  14.872
22381W        W90599  31.125  31.600  14.532
22382W        W90600  35.804   6.397   2.368
22383W        W90601  19.357  31.813  10.620
22384W        W90602   2.437  36.829   3.914
22385W        W90603   2.030  25.049  11.254
22386W        W90604  10.888  18.459   4.007
22387W        W90605  15.929  13.651   3.546
22388W        W90606  39.643  14.789   3.254
22389W        W90607  40.635  41.298  12.147
22390W        W90608   8.801  17.943  14.779
22391W        W90609  38.376  32.805   1.628
22392W        W90610  13.490   1.390  14.084
22393W        W90611  20.267   6.769  12.377
22394W        W90612  25.706  21.072  10.076
22395W        W90613  29.005  36.363  13.714
22396W        W90614  40.488  27.860  13.665
22397W        W90615  38.651   6.343   0.284
22398W        W90616  37.573  43.046   3.280
22399W        W90617  43.564  21.203   3.457
22400W        W90618  22.026  23.011  14.338
22401W        W90619  21.970   9.163  13.983
22402W        W90620  43.801  24.206   4.640
22403W        W90621   7.136  20.664   3.865
22404W        W90622  33.550  22.283  10.242
22405W        W90623   7.640  15.788  12.358
22406W        W90624  24.972  43.921   4.745
22407W        W90625   7.088  14.349   1.937
22408W        W90626  24.327  18.455  13.522
22409W        W90627  24.516  43.001   4.247
22410W        W90628   8.201  28.897  11.180
22411W        W90629   0.069  27.354  11.623
22412W        W90630  15.173  40.343   2.284
22413W        W90631  44.508  36.023   0.402
22414W        W90632  13.799  22.077   2.417
22415W        W90633  33.794  35.835  13.941
22416W        W90634  27.419  37.090   1.735
22417W        W90635  41.899   7.365   4.582
22418W        W90636   4.206   5.908  11.407
22419W        W90637   7.761  12.201  14.026
22420W        W90638  15.342  25.037  11.151
22421W        W90639  31.295  18.306  14.473
22422W        W90640   6.837  26.713  14.251
22423W        W90641  11.222   0.824  13.017
22424W        W90642   1.212  26.191  10.665
22425W        W90643  35.388  10.733   3.666
22426W        W90644  13.092   4.711   1.418
22427W        W90645   6.853  40.800   4.183
22428W        W90646  23.967   5.255   1.366
22429W        W90647  28.216  38.063  12.255
22430W        W90648  41.232  33.610   0.267
22431W        W90649  43.830   6.743  11.614
22432W        W90650  32.151  18.682   3.651
22433W        W90651  19.546   3.821  14.590
22434W        W90652  13.257   9.763  14.429
22435W        W90653  35.503  24.757   4.262
22436W        W90654  44.481  34.536   1.379
22437W        W90655  41.698  40.567   0.740
22438W        W90656  15.634  13.764   5.144
22439W        W90657  22.033  43.898   1.937
22440W        W90658  25.518  11.257  10.728
22441W        W90659  26.717  30.146  11.574
22442W        W90660  16.833  37.893  12.972
22443W        W90661  26.018  27.921   4.760
22444W        W90662  32.350  10.341  14.519
22445W        W90663  14.324  12.715  10.874
22446W        W90664   5.082  37.749   5.004
22447W        W90665  28.479  42.437  11.692
22448W        W90666  12.639  14.196   3.655
22449W        W90667  35.520  26.078  10.406
22450W        W90668   6.219   7.218   1.408
22451W        W90669   5.335  34.930  12.066
22452W        W90670   6.034  40.395   3.417
22453W        W90671  26.976  33.581  12.478
22454W        W90672  10.299   2.935   4.306
22455W        W90673  17.794  35.832  12.930
22456W        W90674  11.633  11.886  14.928
22457W        W90675  28.595   7.793  13.411
22458W        W90676  23.562   4.844   1.396
22459W        W90677   2.383  37.783   2.596
22460W        W90678  29.387  16.324  13.773
22461W        W90679  42.823  22.742   3.662
22462W        W90680  25.200   1.595   1.439
22463W        W90681  19.460  24.057  11.208
22464W        W90682   4.362  28.496  13.842
22465W        W90683   4.381  15.375  12.869
22466W        W90684  14.678  34.836  14.464
22467W        W90685  17.520   2.792  14.927
22468W        W90686  42.468  39.792  12.014
22469W        W90687  25.694  22.224   2.733
22470W        W90688  37.786   8.438  14.397
22471W        W90689   6.933  29.090  13.507
22472W        W90690  16.609  25.588   0.228
22473W        W90691  39.619   5.207   3.790
22474W        W90692  29.627   4.215   0.788
22475W        W90693  35.452  33.035   1.809
22476W        W90694   0.317  22.694  10.860
22477W        W90695  17.890  35.946   4.655
22478W        W90696  37.392  20.794   2.864
22479W        W90697   4.143  24.754   1.814
22480W        W90698  14.249  10.296  10.593
22481W        W90699  24.035  18.678   4.122
22482W        W90700   8.857  20.930  12.870
22483W        W90701  26.655  19.745  14.481
22484W        W90702  43.115   4.535   1.827
22485W        W90703  10.574  18.172   4.307
22486W        W90704  16.340  44.949   1.393
22487W        W90705  43.172   1.717  14.997
22488W        W90706   3.489  16.780  12.963
22489W        W90707  21.265  15.100   1.453
22490W        W90708  16.733   8.246  14.523
22491W        W90709  10.248  44.856   1.679
22492W        W90710  34.441  17.691  10.378
22493W        W90711  25.892  27.696  13.180
22494W        W90712  13.400  20.697   2.238
22495W        W90713  30.995   8.538  14.949
22496W        W90714  33.897  31.806   0.228
22497W        W90715   8.906  42.940   4.920
22498W        W90716  40.376  27.161   2.388
22499W        W90717  10.254   4.926   5.048
22500W        W90718  43.045  10.814   1.722
22501W        W90719   7.680  37.473  11.235
22502W        W90720  26.067  30.306   1.696
22503W        W90721   3.287  25.518  11.216
22504W        W90722  31.462  32.847  10.726
22505W        W90723   7.317  32.610  10.841
22506W        W90724  28.056   4.879   1.362
22507W        W90725   6.323  12.642   4.655
22508W        W90726  14.048   0.050   0.957
22509W        W90727  36.836   5.411  13.899
22510W        W90728  19.891  12.935  12.221
22511W        W90729   7.820  24.113   1.607
22512W        W90730  34.335  38.776   1.947
22513W        W90731  43.066  11.785  13.432
22514W        W90732  13.231  37.578   2.688
22515W        W90733  11.776  30.490   0.436
22516W        W90734  42.891  14.936  14.715
22517W        W90735  43.089  24.308   3.699
22518W        W90736  22.485  15.006   2.049
22519W        W90737  11.188   8.051  14.941
22520W        W90738  40.305   1.290  14.844
22521W        W90739   5.451  13.347  11.133
22522W        W90740   2.757   7.973  12.420
22523W        W90741  27.285  30.413   0.883
22524W        W90742  11.115  23.045   4.129
22525W        W90743  36.329  27.017   1.423
22526W        W90744   8.125  41.122  12.015
22527W        W90745   4.180   5.759  11.885
22528W        W90746   7.422  28.450  13.923
22529W        W90747   9.701  15.725   2.269
22530W        W90748   4.941  12.977   1.890
22531W        W90749  19.197  11.476  10.778
22532W        W90750  32.895  13.006   2.353
22533W        W90751  40.865  26.643  14.470
22534W        W90752  17.484  38.125  12.209
22535W        W90753  38.944  43.797  10.616
22536W        W90754  18.629  33.406  11.638
22537W        W90755  31.156   6.480   5.409
22538W        W90756  13.996  26.648  14.430
22539W        W90757  10.642  37.959  12.071
22540W        W90758  15.145  19.521   3.697
22541W        W90759  10.810  23.653   0.786
22542W        W90760  22.266  44.754   4.118
22543W        W90761  38.810   8.873   4.079
22544W        W90762  43.990  14.223  11.582
22545W        W90763  11.820   0.665   0.718
22546W        W90764  37.867   3.238  13.381
22547W        W90765  42.939  31.152  11.524
22548W        W90766  35.933  24.495  12.154
22549W        W90767  19.583  36.430  13.754
22550W        W90768  12.965  21.943  11.538
22551W        W90769  33.906  28.113  12.108
22552W        W90770  27.811  39.767   2.761
22553W        W90771  13.075  41.458   4.590
22554W        W90772  24.933  35.884  12.975
22555W        W90773   7.687  25.019   1.201
22556W        W90774  44.390  23.069  13.542
22557W        W90775  24.165   9.121  10.751
22558W        W90776  35.263  39.425  11.236
22559W        W90777  16.278  14.622   2.213
22560W        W90778   1.958  20.348   0.178
22561W        W90779  40.510   2.639  14.254
22562W        W90780   1.447  15.689   1.368
22563W        W90781  31.025  15.105   3.338
22564W        W90782  10.281  36.472   3.686
22565W        W90783   3.751  14.749  10.845
22566W        W90784   3.407  30.354  13.899
22567W        W90785  32.898  35.431  12.983
22568W        W90786  40.884  11.709  10.717
22569W        W90787  26.683  39.672  12.517
22570W        W90788   0.315   6.001   2.762
22571W        W90789   7.628  37.614  10.756
22572W        W90790  30.037  21.077   2.636
22573W        W90791  25.607   9.476  12.385
22574W        W90792  35.408  29.925   4.261
22575W        W90793  18.734   9.130   3.314
22576W        W90794  43.821  28.432   2.556
22577W        W90795  10.567  37.338   4.564
22578W        W90796  13.919   6.361  13.899
22579W        W90797   2.348  16.369  10.714
22580W        W90798   5.308  29.984   1.924
22581W        W90799   3.757  40.552   9.981
22582W        W90800  44.194  14.089  10.690
22583W        W90801  39.582  26.446  12.051
22584W        W90802  38.160  12.848   3.226
22585W        W90803  21.616   6.345  10.826
22586W        W90804  13.130  24.319   0.450
22587W        W90805   3.919  18.666  13.416
22588W        W90806  33.455   4.886   2.868
22589W        W90807  35.946   7.838  10.646
22590W        W90808  40.577  28.562   3.315
22591W        W90809  27.108  14.761   4.253
22592W        W90810  40.103  29.033  11.783
22593W        W90811  38.376  30.424   4.499
22594W        W90812  31.637  34.496   0.927
22595W        W90813   0.558  33.699   3.524
22596W        W90814  34.743  24.167   0.799
22597W        W90815  20.159   4.322   2.146
22598W        W90816   1.956  40.811   2.156
22599W        W90817  34.174  20.672   4.319
22600W        W90818  22.184  23.844   2.704
22601W        W90819   0.488  13.080  12.482
22602W        W90820  23.037  43.345  10.792
22603W        W90821  18.033  11.718  12.532
22604W        W90822  15.692   8.186   0.326
22605W        W90823  25.527  41.322   0.877
22606W        W90824  40.983  12.540   4.231
22607W        W90825  21.964  35.945  11.145
22608W        W90826  43.130  26.115  13.013
22609W        W90827  35.973   8.253  13.009
22610W        W90828   4.296  36.343  12.488
22611W        W90829  27.951  33.625  14.382
22612W        W90830  35.591   5.976   0.248
22613W        W90831  26.477  15.294  12.996
22614W        W90832  12.569  34.497  14.650
22615W        W90833  28.607   7.146  12.547
22616W        W90834  32.414  14.704   3.627
22617W        W90835   9.945  14.229  14.913
22618W        W90836  22.204  25.600  11.708
22619W        W90837  22.251   9.818   2.739
22620W        W90838  20.729  20.816  12.098
22621W        W90839   0.062  22.048  11.506
22622W        W90840   5.504  43.397   0.825
22623W        W90841  23.007  43.943   4.438
22624W        W90842  28.183   7.801   4.360
22625W        W90843  18.775  26.478   0.998
22626W        W90844  31.386  16.287  11.459
22627W        W90845  24.070  21.221  13.050
22628W        W90846   0.333   7.056  12.866
22629W        W90847   6.172  38.715  14.656
22630W        W90848   8.687  40.766  13.946
22631W        W90849   3.239  33.963   1.309
22632W        W90850  23.006   7.242  14.830
22633W        W90851  16.974  12.343   0.814
22634W        W90852   6.252  34.349  13.893
22635W        W90853   1.477   5.894   0.247
22636W        W90854  11.249  21.674  11.464
22637W        W90855  16.646  33.706  13.138
22638W        W90856   5.881   6.940   4.858
22639W        W90857   5.724   1.414   4.475
22640W        W90858  16.027  11.682  12.388
22641W        W90859  31.961  30.703  13.063
22642W        W90860  25.514   4.508   2.714
22643W        W90861  42.839  28.122   4.619
22644W        W90862  31.869  30.109   1.301
22645W        W90863  29.953  40.958   3.231
22646W        W90864  11.785  22.788  13.463
22647W        W90865  10.920   1.725  12.921
22648W        W90866  17.695  40.801   4.148
22649W        W90867   7.521  10.246   3.438
22650W        W90868  39.042  32.689   0.998
22651W        W90869  43.618  37.621   5.132
22652W        W90870  40.083  12.250   2.870
22653W        W90871  17.186  29.479  10.009
22654W        W90872   7.913   2.201  10.524
22655W        W90873  19.764   8.328   1.304
22656W        W90874   9.378  27.193  10.978
22657W        W90875  27.523   0.763   2.836
22658W        W90876  38.519  43.774  11.508
22659W        W90877   5.738  38.202   2.462
22660W        W90878  44.381  30.176   4.163
22661W        W90879  10.810  36.604   2.797
22662W        W90880   6.956  29.143   0.849
22663W        W90881   4.659  33.351   4.059
22664W        W90882  21.489   4.190  13.535
22665W        W90883  32.124   5.908  14.823
22666W        W90884  36.524  40.402   1.464
22667W        W90885  13.416  20.328   3.825
22668W        W90886  33.428  40.832   4.199
22669W        W90887  42.063  22.952   4.633
22670W        W90888  21.742  28.153  12.910
22671W        W90889  34.183  38.271  13.943
22672W        W90890  29.129   7.619   4.274
22673W        W90891  20.251  40.071  11.080
22674W        W90892  41.317   8.112  13.436
22675W        W90893  39.623  14.322  12.448
22676W        W90894  23.326  22.688  10.712
22677W        W90895  33.417  13.947  11.169
22678W        W90896  25.997   0.222   2.732
22679W        W90897  41.387  21.740  10.666
22680W        W90898  19.321  31.565  13.295
22681W        W90899  17.275  40.355  13.894
22682W        W90900  13.597  22.622   0.848
22683W        W90901   0.853  14.413  11.719
22684W        W90902  10.762  16.658   3.897
22685W        W90903   9.920  20.303  11.580
22686W        W90904  31.939  43.972   1.301
22687W        W90905  31.457   3.388  11.981
22688W        W90906  39.284  25.615  12.625
22689W        W90907  37.440  39.917  10.371
22690W        W90908  41.951  23.489  12.065
22691W        W90909   9.164  19.611   5.100
22692W        W90910   4.663  10.700  10.769
22693W        W90911   8.845   3.415  10.561
22694W        W90912  26.878  18.024  11.283
22695W        W90913  40.568  19.220   4.534
22696W        W90914  36.628   9.637   4.688
22697W        W90915   5.281  40.506  13.466
22698W        W90916  29.968  11.732  13.910
22699W        W90917  28.576  44.196  11.857
22700W        W90918   4.314  35.077  13.091
22701W        W90919  19.736  21.526   3.267
22702W        W90920  19.480  11.786  10.462
22703W        W90921   7.437  10.688   3.655
22704W        W90922  35.379   5.404   1.436
22705W        W90923  18.010  37.829   1.999
22706W        W90924   9.270  38.420   3.187
22707W        W90925  14.617  17.779   3.678
22708W        W90926  32.448  31.984  14.299
22709W        W90927  42.968  16.009   4.082
22710W        W90928   4.205  30.427   3.849
22711W        W90929  13.481  42.841   4.608
22712W        W90930  44.546   6.782  13.875
22713W        W90931   1.104  26.082   4.133
22714W        W90932  35.894  16.215  13.322
22715W        W90933  42.356   8.380   4.337
22716W        W90934  22.473  23.937  12.404
22717W        W90935  10.989  17.290  13.999
22718W        W90936  11.546   4.404  10.949
22719W        W90937   5.205   1.888   1.943
22720W        W90938  28.085  33.943   1.959
22721W        W90939  26.704  28.102  14.467
22722W        W90940  19.595  28.486  10.767
22723W        W90941  30.639   6.745   4.756
22724W        W90942  17.141  14.280   0.273
22725W        W90943   2.992   8.401   1.633
22726W        W90944   7.317  40.015   4.536
22727W        W90945   5.738  22.022   0.549
22728W        W90946  14.144  19.220   4.900
22729W        W90947   8.838  11.345  14.798
22730W        W90948  19.089  17.373  10.496
22731W        W90949  23.884  13.157  10.593
22732W        W90950  36.033  39.946  10.877
22733W        W90951  18.486  36.581   0.726
22734W        W90952  20.049   4.718  10.921
22735W        W90953  43.432   0.778   2.640
22736W        W90954  15.220  31.611   3.660
22737W        W90955   5.259   5.195   4.311
22738W        W90956  13.802  10.075  13.420
22739W        W90957  34.797  37.518   5.077
22740W        W90958   0.326   4.825  12.508
22741W        W90959  11.245   2.782  11.673
22742W        W90960  28.558   9.393  13.087
22743W        W90961  37.744  33.098  10.944
22744W        W90962  19.755  34.370  14.860
22745W        W90963  14.836  19.261  11.852
22746W        W90964   4.214   1.394  11.135
22747W        W90965  14.210   8.309  13.970
22748W        W90966  34.013  15.821  11.360
22749W        W90967  24.526   6.863   3.321
22750W        W90968  19.243  17.611  12.903
22751W        W90969  38.534  10.129  11.688
22752W        W90970  23.345  34.849  13.998
22753W        W90971   3.012  25.458  10.752
22754W        W90972  44.847  10.057   2.263
22755W        W90973  22.460  33.149   4.054
22756W        W90974  36.972  16.013  12.015
22757W        W90975  13.165   9.082   4.263
22758W        W90976  31.017  11.270  14.578
22759W        W90977   0.427  30.927  14.347
22760W        W90978   0.104  10.800  11.466
22761W        W90979  26.090  43.383  11.623
22762W        W90980  22.786   2.878  12.833
22763W        W90981  14.719  26.274   4.819
22764W        W90982  32.016   7.365   3.558
22765W        W90983   3.491  11.898  12.615
22766W        W90984  23.291   4.164   4.097
22767W        W90985  37.332  22.012  12.559
22768W        W90986  44.410  32.690  10.731
22769W        W90987  15.074  39.106  11.447
22770W        W90988  34.431  20.268   4.085
22771W        W90989  41.665  10.626   3.601
22772W        W90990  32.403  16.246  14.860
22773W        W90991  28.676   1.935  14.894
22774W        W90992  28.479  13.191  12.483
22775W        W90993  12.955  20.978  14.915
22776W        W90994  11.256   7.952  14.166
22777W        W90995  44.021  13.022  10.825
22778W        W90996  29.802  37.384   3.157
22779W        W90997   3.846   5.972  13.808
22780W        W90998  34.502   8.179   2.242
22781W        W90999  34.162  18.203  10.741
22782W        W91000  20.634   1.932  12.934
22783W        W91001  12.363   8.212  14.555
22784W        W91002   4.911  35.411   3.618
22785W        W91003  24.555  28.819  14.059
22786W        W91004  14.098  17.980   3.698
22787W        W91005  14.620  36.802  12.444
22788W        W91006  14.050   6.154   2.397
22789W        W91007   4.449  28.067  12.539
22790W        W91008   5.992  36.449  14.873
22791W        W91009  33.832  16.218   4.591
22792W        W91010   1.907  12.165   0.743
22793W        W91011  12.400  44.530   3.780
22794W        W91012  34.939  30.863  11.588
22795W        W91013  38.680  12.264  13.142
22796W        W91014  32.515  29.311  14.373
22797W        W91015  30.902  42.444   3.700
22798W        W91016  35.903  30.677   4.409
22799W        W91017  33.136  26.454   0.335
22800W        W91018  15.310  32.628   1.335
22801W        W91019   2.352  37.341  10.255
22802W        W91020   4.402  11.853  12.612
22803W        W91021  31.558  40.892   0.554
22804W        W91022  35.979  16.780  12.966
22805W        W91023  11.648  20.022  14.060
22806W        W91024  14.717   4.873   2.878
22807W        W91025  27.909  36.892   2.626
22808W        W91026  11.335  36.638  12.094
22809W        W91027  15.479   9.146   3.323
22810W        W91028  32.962  22.266  13.581
22811W        W91029  16.581  23.735  14.043
22812W        W91030   5.457   9.687   2.098
22813W        W91031  24.245   1.972   1.348
22814W        W91032  13.629  32.173   2.783
22815W        W91033  36.006  22.163   4.946
22816W        W91034  11.783   6.913   0.942
22817W        W91035  39.791  23.517   1.803
22818W        W91036  31.272   3.645   3.189
22819W        W91037  40.181  25.075   4.183
22820W        W91038  35.919  30.414  11.209
22821W        W91039  21.592  27.503  10.659
22822W        W91040  20.158  29.269   1.974
22823W        W91041  10.845  38.545  10.340
22824W        W91042   6.994  39.870  12.951
22825W        W91043   1.127  33.592  13.349
22826W        W91044  40.372  14.123   4.657
22827W        W91045  21.103  23.593   0.397
22828W        W91046   9.426  36.305  12.486
22829W        W91047   4.171   2.360   0.405
22830W        W91048   1.928  29.428  11.190
22831W        W91049  16.728  29.131  12.286
22832W        W91050  18.646  19.081  11.583
22833W        W91051  28.291  19.826   2.271
22834W        W91052  39.798  14.839  12.522
22835W        W91053  20.686  11.740   0.836
22836W        W91054  31.393  38.825   1.894
22837W        W91055  11.730  30.220  12.139
22838W        W91056  35.364  13.817  12.338
22839W        W91057  40.573  16.259  11.700
22840W        W91058  43.593  19.226   4.578
22841W        W91059   4.765  20.165   1.329
22842W        W91060  29.962  12.597  11.871
22843W        W91061  44.265  29.461   3.134
22844W        W91062  28.894  18.620  13.817
22845W        W91063  36.048   4.922  14.803
22846W        W91064  15.619  41.638  14.260
22847W        W91065   1.926  20.749  13.755
22848W        W91066  28.427  32.079   0.880
22849W        W91067  14.546  16.739  11.835
22850W        W91068  34.958  39.441   0.427
22851W        W91069  20.211  15.322  13.744
22852W        W91070   9.697   6.892  14.505
22853W        W91071   7.862   7.842  12.040
22854W        W91072   1.930  23.173  13.646
22855W        W91073  13.591  32.901  10.886
22856W        W91074  44.928  27.115   2.171
22857W        W91075  23.670  12.244   0.803
22858W        W91076  43.701  20.278   1.214
22859W        W91077  38.033  27.429  13.861
22860W        W91078  24.072  36.340   0.507
22861W        W91079  21.658  22.761  10.525
22862W        W91080   2.770  18.195   0.712
22863W        W91081   8.523   9.054   1.912
22864W        W91082   7.308  41.941   2.961
22865W        W91083  12.775  41.015   0.320
22866W        W91084  37.487  34.118   2.795
22867W        W91085  29.165  26.124   4.648
22868W        W91086  13.341  38.047   3.636
22869W        W91087  28.635  35.019  12.465
22870W        W91088  11.641  39.746   0.846
22871W        W91089  31.990  35.630  12.873
22872W        W91090   6.271   9.326  12.180
22873W        W91091  40.861  42.328   1.085
22874W        W91092  23.883  41.946  11.968
22875W        W91093   9.941  40.512  11.913
22876W        W91094  33.871  19.177  14.498
22877W        W91095  30.086  27.091   3.452
22878W        W91096   6.450  16.506  13.517
22879W        W91097  21.728  26.437   1.323
22880W        W91098  23.532  35.370   2.959
22881W        W91099  20.664  28.151  14.014
22882W        W91100   3.201   5.637   4.658
22883W        W91101   5.034  11.160  14.839
22884W        W91102  18.781   5.678  14.245
22885W        W91103   6.211   2.283   4.734
22886W        W91104   8.898  16.208   3.587
22887W        W91105   7.579   3.292  12.508
22888W        W91106  11.589  42.061  14.471
22889W        W91107   1.217  17.694  10.594
22890W        W91108  18.788  35.169   0.856
22891W        W91109  25.429  21.047   0.254
22892W        W91110  12.129  43.842  11.682
22893W        W91111  30.092   2.373   0.756
22894W        W91112  32.192  22.660  13.035
22895W        W91113   8.899  28.599  11.825
22896W        W91114  25.718   0.431   2.271
22897W        W91115  25.315  39.702  12.195
22898W        W91116  42.564  23.925   2.314
22899W        W91117   1.258  14.324   4.378
22900W        W91118  28.678  14.789  14.815
22901W        W91119  17.238   0.050   3.615
22902W        W91120   4.321  16.808   3.808
22903W        W91121  30.364  25.245  11.254
22904W        W91122  22.644  24.893   3.251
22905W        W91123  38.228  28.895   3.732
22906W        W91124  24.088  29.993   3.731
22907W        W91125   5.691  23.499   2.191
22908W        W91126   1.425  17.583  12.393
22909W        W91127  26.569  14.071  14.362
22910W        W91128  26.575  20.269  12.596
22911W        W91129  24.987  10.430  14.306
22912W        W91130   7.433  26.600  13.789
22913W        W91131   7.453  34.564   1.257
22914W        W91132  27.431  24.235   0.403
22915W        W91133  24.063  31.696  13.479
22916W        W91134  22.226  16.300  13.433
22917W        W91135  23.026  38.313  11.130
22918W        W91136  38.910  31.654   3.530
22919W        W91137  15.028  21.567  14.338
22920W        W91138  26.304  25.972   1.582
22921W        W91139  35.528  39.542  12.422
22922W        W91140  40.303  12.647   2.625
22923W        W91141  39.063  30.854   4.890
22924W        W91142  22.157  16.223   4.612
22925W        W91143  33.211  35.884  14.807
22926W        W91144  21.823  10.315  10.582
22927W        W91145   0.265  29.182  11.556
22928W        W91146  11.274  20.477  14.032
22929W        W91147  42.925  21.570  11.401
22930W        W91148   7.209   0.654  12.453
22931W        W91149   4.512   3.531  12.976
22932W        W91150  14.493  35.508   3.227
22933W        W91151  28.636  27.169  10.736
22934W        W91152  38.005   4.816   9.874
22935W        W91153  19.740  28.746   3.179
22936W        W91154  41.760   4.947  14.380
22937W        W91155  39.401  12.644   3.589
22938W        W91156   5.329  34.045  13.111
22939W        W91157   6.301  37.457  12.403
22940W        W91158  16.409  16.493  14.942
22941W        W91159  13.088  17.738   2.375
22942W        W91160  36.610  10.297  10.484
22943W        W91161  24.190   2.369   4.645
22944W        W91162  17.003  13.270  12.919
22945W        W91163  19.129  11.106   0.399
22946W        W91164  22.162  41.998   4.177
22947W        W91165  41.295  26.693  10.437
22948W        W91166  22.682  28.389   2.372
22949W        W91167  16.075  16.734   0.289
22950W        W91168  22.567  42.825   0.741
22951W        W91169   0.478  21.991  14.164
22952W        W91170  26.278  11.204   3.447
22953W        W91171  12.132  30.585  14.020
22954W        W91172  36.362   0.292   2.179
22955W        W91173  13.154  22.101  10.583
22956W        W91174  18.570   7.746  10.743
22957W        W91175   2.586   5.319  14.833
22958W        W91176  22.492  15.156  11.180
22959W        W91177  31.645  40.534  12.631
22960W        W91178  33.999  37.081   0.390
22961W        W91179  40.910  37.892   0.876
22962W        W91180  12.165  16.198  14.210
22963W        W91181  42.773  29.855  11.133
22964W        W91182   9.919  40.971  14.278
22965W        W91183  36.886  44.315   1.889
22966W        W91184   2.570  27.106   3.046
22967W        W91185  28.176  20.596  13.129
22968W        W91186  36.134  13.571  11.693
22969W        W91187   2.391  42.766  12.927
22970W        W91188  43.760  32.534  14.411
22971W        W91189  16.638  22.149  10.852
22972W        W91190  15.723  14.074   9.966
22973W        W91191  10.896   5.741   2.590
22974W        W91192  42.881  34.801   4.103
22975W        W91193  36.959  25.859   4.550
22976W        W91194  30.478  32.560  11.628
22977W        W91195  41.510  30.688   3.668
22978W        W91196  33.836  31.059  10.821
22979W        W91197  34.757  40.775  12.418
22980W        W91198  33.878  15.647   0.279
22981W        W91199  18.136  22.667   0.760
22982W        W91200   8.394  11.124   2.807
22983W        W91201   3.331  14.772  14.358
22984W        W91202   6.938  10.840  13.769
22985W        W91203  33.502  23.449   3.074
22986W        W91204   8.569  44.021  14.871
22987W        W91205   6.786  39.151   2.186
22988W        W91206  11.919  29.979   1.184
22989W        W91207  34.399  41.006  13.313
22990W        W91208   2.799   8.809  13.490
22991W        W91209  39.123   1.443   1.248
22992W        W91210  21.839   0.046  12.197
22993W        W91211  32.923  16.569  11.528
22994W        W91212  34.626   1.561   0.633
22995W        W91213  17.573   2.910   3.767
22996W        W91214  28.375  13.605  12.934
22997W        W91215   4.339  21.324  14.287
22998W        W91216  33.863  31.074  13.145
22999W        W91217  42.521   3.524   3.106
23000W        W91218  39.374  40.094  12.800
23001W        W91219  43.597   5.990  10.361
23002W        W91220  38.954   7.583   1.865
23003W        W91221   7.468  30.975   3.375
23004W        W91222  42.209  38.574   0.892
23005W        W91223  15.168  30.127  10.603
23006W        W91224  38.614  29.663   2.120
23007W        W91225  15.723  40.100  12.531
23008W        W91226   5.675  39.079   2.631
23009W        W91227   8.757  11.846   4.233
23010W        W91228  24.217   9.390   1.729
23011W        W91229   3.547   0.947   4.414
23012W        W91230  26.555   8.055  11.131
23013W        W91231  17.857  43.704   4.196
23014W        W91232  32.145   7.153   3.065
23015W        W91233  25.027  44.345   2.721
23016W        W91234  44.508   6.616  13.147
23017W        W91235  27.225   5.879   4.088
23018W        W91236  38.251   3.930  10.260
23019W        W91237  16.002   7.371  13.333
23020W        W91238  12.083  20.800   0.195
23021W        W91239   6.440  17.095   1.344
23022W        W91240  41.837  14.611  13.603
23023W        W91241  44.522   3.658  13.017
23024W        W91242  26.044  25.535  13.503
23025W        W91243   5.195  13.909   4.174
23026W        W91244  29.077  32.902   4.191
23027W        W91245  21.848   1.820   3.117
23028W        W91246   1.441   7.089  11.890
23029W        W91247  36.188  10.452   2.455
23030W        W91248  30.599  39.079   4.208
23031W        W91249  27.072  32.359  10.491
23032W        W91250  20.006  25.215   1.948
23033W        W91251  17.209  31.028  13.327
23034W        W91252  32.181   4.182  11.490
23035W        W91253  37.330  20.594  12.580
23036W        W91254  28.605  39.320   2.785
23037W        W91255  24.023  24.644   5.017
23038W        W91256  21.740  16.518  14.326
23039W        W91257  25.988   2.962   0.086
23040W        W91258  35.891  24.190   1.371
23041W        W91259  36.928  34.611  13.556
23042W        W91260  25.739  32.436  11.207
23043W        W91261  33.997   1.219   0.519
23044W        W91262  34.639  23.636   2.438
23045W        W91263   5.420   6.664  14.982
23046W        W91264  12.322  14.760  14.980
23047W        W91265   0.449  32.221  13.393
23048W        W91266  44.110  38.016  14.919
23049W        W91267  15.124  18.253   0.995
23050W        W91268  23.008  27.430  14.298
23051W        W91269  44.336  28.092  14.291
23052W        W91270  25.130   7.965  13.084
23053W        W91271  16.157  27.866   1.046
23054W        W91272   6.390  30.416  11.441
23055W        W91273  12.208  39.533  12.926
23056W        W91274  16.286  32.975   1.810
23057W        W91275  22.637  18.574   0.394
23058W        W91276  25.129  14.588  13.525
23059W        W91277   9.381  14.821  11.192
23060W        W91278  12.258   9.877   2.211
23061W        W91279  35.881  38.112  11.578
23062W        W91280  10.091  42.826   3.253
23063W        W91281  26.821  31.287  14.315
23064W        W91282   1.899  26.555  12.371
23065W        W91283   2.039   2.403   2.456
23066W        W91284  12.192  29.269   0.366
23067W        W91285  18.136  40.821   3.465
23068W        W91286  40.989  29.670   4.718
23069W        W91287  40.039  34.822  12.501
23070W        W91288  22.188  15.842  12.531
23071W        W91289  25.812  34.880  14.365
23072W        W91290   2.353  35.490   2.924
23073W        W91291  27.214  31.216   1.786
23074W        W91292  28.328  23.218  13.297
23075W        W91293  35.112  19.977   1.300
23076W        W91294  32.195  24.303   0.432
23077W        W91295  36.969   8.801   4.812
23078W        W91296  20.063  37.122   3.562
23079W        W91297  13.923  21.284   4.779
23080W        W91298  22.435  19.264  11.677
23081W        W91299  41.755  11.821   0.755
23082W        W91300  10.471  19.242   0.717
23083W        W91301  44.307  34.918   1.778
23084W        W91302   0.494  26.910   1.684
23085W        W91303   2.726  19.701   0.460
23086W        W91304  39.551  15.101  10.428
23087W        W91305  39.561  17.023   3.819
23088W        W91306  20.750   4.760   1.939
23089W        W91307   6.702   3.235   2.794
23090W        W91308  44.346  24.900   4.887
23091W        W91309  29.881   0.565   0.467
23092W        W91310  18.334  38.619   0.814
23093W        W91311  37.847  23.277   0.856
23094W        W91312  14.837   8.909  12.562
23095W        W91313   3.205   8.244  11.098
23096W        W91314   0.408  22.448  14.383
23097W        W91315   7.123  10.854   2.716
23098W        W91316  27.318  40.883   4.684
23099W        W91317   2.485   1.695   1.141
23100W        W91318  39.951   6.807  14.083
23101W        W91319   2.745  22.253  12.134
23102W        W91320  35.432  13.529  10.469
23103W        W91321  21.014  40.906  13.851
23104W        W91322  24.785  11.319   4.089
23105W        W91323   9.041  36.998   2.717
23106W        W91324   1.398  30.672   4.774
23107W        W91325   7.767  30.669  11.218
23108W        W91326  12.226  13.990  13.823
23109W        W91327   8.909  28.146  14.873
23110W        W91328  39.287  30.539   0.817
23111W        W91329  23.649  31.411  13.335
23112W        W91330  29.179  34.397   1.152
23113W        W91331  43.892  10.243  14.585
23114W        W91332   0.544  42.522   2.267
23115W        W91333  20.036  16.358  12.469
23116W        W91334  36.024   0.911  10.719
23117W        W91335  26.056   3.427  11.107
23118W        W91336  18.590   5.267   0.973
23119W        W91337  41.899   5.388  11.185
23120W        W91338   3.924  30.778   5.030
23121W        W91339   4.712  41.405   3.147
23122W        W91340   5.849   1.096  11.643
23123W        W91341   2.918  25.472  14.033
23124W        W91342  25.423  16.728   4.858
23125W        W91343  43.568   5.705  12.087
23126W        W91344  19.449   8.905   3.894
23127W        W91345  23.771  18.664   2.752
23128W        W91346  41.788  30.200  12.650
23129W        W91347   3.520  15.559   1.170
23130W        W91348  32.486  32.319  10.688
23131W        W91349   8.351  42.807   2.155
23132W        W91350  27.099   5.355  14.759
23133W        W91351  11.894  20.557   2.329
23134W        W91352  26.124  16.728   0.146
23135W        W91353  20.644  27.650   4.657
23136W        W91354  40.556  32.065  10.784
23137W        W91355  44.407  10.186  13.268
23138W        W91356  23.975   7.119  11.509
23139W        W91357  44.295  18.035   2.200
23140W        W91358   8.551  20.030  11.095
23141W        W91359  41.452   3.848   1.336
23142W        W91360  23.158   5.953   0.719
23143W        W91361  21.518  13.795   4.674
23144W        W91362   5.977  11.617   0.475
23145W        W91363   2.457  31.710  11.377
23146W        W91364  36.527  19.712   0.367
23147W        W91365   0.477  27.443   1.538
23148W        W91366  30.077   0.476  10.684
23149W        W91367   8.884  24.799  11.700
23150W        W91368  20.318  21.614   4.326
23151W        W91369  31.702  35.167  10.726
23152W        W91370   2.228  40.967   1.290
23153W        W91371  19.089  10.350  12.304
23154W        W91372  39.580   1.649   3.626
23155W        W91373  23.764  18.151   3.190
23156W        W91374  12.627   8.100   3.200
23157W        W91375   4.043  21.723  10.273
23158W        W91376  13.003  15.605  10.618
23159W        W91377  35.901  15.839   3.726
23160W        W91378  42.599  35.747  11.942
23161W        W91379  18.697   9.454   1.541
23162W        W91380  41.512  34.847  14.880
23163W        W91381  21.015  44.692   2.782
23164W        W91382  31.877  32.353   1.608
23165W        W91383  16.137  15.141   0.365
23166W        W91384  31.104  40.295  12.563
23167W        W91385   1.800   7.448  13.257
23168W        W91386  33.494  20.757   3.224
23169W        W91387  13.273  44.413   1.787
23170W        W91388  11.211  35.005   2.253
23171W        W91389   7.719  23.123  12.057
23172W        W91390  32.007  35.149   2.371
23173W        W91391  32.622  32.471   4.596
23174W        W91392  12.884  22.783   2.731
23175W        W91393   4.765  38.562   5.137
23176W        W91394  40.537  13.674   1.193
23177W        W91395  15.942  16.029   0.759
23178W        W91396  13.749  16.046   3.623
23179W        W91397  27.782   3.275  14.321
23180W        W91398  16.842  19.170   4.140
23181W        W91399  40.504  43.478  13.484
23182W        W91400   2.781  20.635   5.044
23183W        W91401  42.609  31.814   1.699
23184W        W91402   8.658  20.046  11.931
23185W        W91403   8.659  39.099   1.319
23186W        W91404  27.372  17.880  11.551
23187W        W91405  29.336  42.067  12.458
23188W        W91406  35.657  18.729  11.613
23189W        W91407  12.302  14.878  11.513
23190W        W91408  35.717  13.135  12.439
23191W        W91409   4.389   1.506  12.472
23192W        W91410  26.036  43.748  12.516
23193W        W91411  44.177  33.532  12.624
23194W        W91412  38.416  27.023  11.067
23195W        W91413  30.435  29.016  12.125
23196W        W91414  42.931   7.439   2.405
23197W        W91415  29.631   6.297   2.227
23198W        W91416   4.815  40.373   0.805
23199W        W91417  28.888   8.334  11.314
23200W        W91418   4.695  13.370   3.740
23201W        W91419  22.789  30.413  12.995
23202W        W91420  43.454  43.415   1.025
23203W        W91421  41.315  23.275  13.401
23204W        W91422   4.007  31.395  11.546
23205W        W91423  19.266  10.851   4.190
23206W        W91424  22.313  42.410   1.806
23207W        W91425  33.853  34.335   3.261
23208W        W91426  15.546  39.455  13.530
23209W        W91427   8.842  14.462  12.392
23210W        W91428  16.180  30.593   1.794
23211W        W91429  15.355  10.151   1.786
23212W        W91430   1.447  15.703  11.488
23213W        W91431  27.081  39.001  14.560
23214W        W91432  18.402  21.006  12.082
23215W        W91433  43.832  39.906  14.452
23216W        W91434  42.836  17.104   4.177
23217W        W91435  42.373   6.882  12.937
23218W        W91436  26.996  42.563  13.410
23219W        W91437  38.469   1.186   1.451
23220W        W91438  34.616  38.679  13.932
23221W        W91439  31.626  31.005   0.802
23222W        W91440  30.719  41.927   3.786
23223W        W91441   4.897  42.777  13.284
23224W        W91442  15.564  24.700   3.785
23225W        W91443  22.463  41.822   3.046
23226W        W91444   5.680  37.813   2.114
23227W        W91445  32.614  10.116   1.850
23228W        W91446  25.280   1.678   2.182
23229W        W91447  30.175  43.505  10.809
23230W        W91448  20.569  34.069   0.989
23231W        W91449  33.935   7.487  13.916
23232W        W91450  35.115  43.409  10.810
23233W        W91451  30.458  30.892  14.340
23234W        W91452  24.899  20.213  14.467
23235W        W91453  31.979  11.439   1.489
23236W        W91454  11.509  38.103  14.693
23237W        W91455  32.297  38.473  11.739
23238W        W91456  19.211  17.991   1.268
23239W        W91457  15.968  40.415  13.800
23240W        W91458  29.477  28.530   4.369
23241W        W91459  40.824   7.713   3.302
23242W        W91460  19.961   9.610  14.747
23243W        W91461  11.890  41.006  10.571
23244W        W91462  14.623  42.038   2.673
23245W        W91463  17.583  13.841   3.288
23246W        W91464  31.082  11.359  11.932
23247W        W91465  31.532  28.412   3.240
23248W        W91466  27.145  38.787   2.176
23249W        W91467   7.401  13.881  11.508
23250W        W91468  16.848  37.370  12.978
23251W        W91469  16.697  33.866  11.202
23252W        W91470  33.086  17.622  11.634
23253W        W91471  34.465  25.714   1.372
23254W        W91472  26.154  11.832   2.260
23255W        W91473   0.103  10.288   1.717
23256W        W91474  26.682  25.320  14.280
23257W        W91475  31.624  10.180   0.315
23258W        W91476  15.623   6.526   3.192
23259W        W91477  34.429   9.455  11.403
23260W        W91478  27.578   1.446   1.406
23261W        W91479  15.757  38.985   2.140
23262W        W91480  34.112  24.750  14.304
23263W        W91481   2.709  16.187  13.858
23264W        W91482  30.883  20.541  11.131
23265W        W91483  34.893  12.620   3.859
23266W        W91484   2.920  10.379   4.061
23267W        W91485  32.406   2.168  14.098
23268W        W91486  38.974  33.848   5.131
23269W        W91487  36.689  33.572  11.117
23270W        W91488  35.674  42.250   0.952
23271W        W91489  34.345  38.371  13.061
23272W        W91490  40.215  26.976   0.460
23273W        W91491  12.031  12.222  13.791
23274W        W91492  29.028  15.866  11.199
23275W        W91493  30.386  17.059   4.238
23276W        W91494  42.397  27.724   3.172
23277W        W91495  22.959  10.225  14.049
23278W        W91496  31.913  17.000  11.285
23279W        W91497  20.684   4.430   2.347
23280W        W91498  16.244  15.555   4.865
23281W        W91499  14.597  39.071   0.075
23282W        W91500   9.693  18.043   5.031
23283W        W91501  12.585  11.331   0.896
23284W        W91502  13.901   5.068  12.586
23285W        W91503  23.263   5.113  11.143
23286W        W91504   6.823   7.765  13.251
23287W        W91505  37.593  18.709   3.277
23288W        W91506  17.057   9.770   3.858
23289W        W91507  38.486  41.869   1.336
23290W        W91508   1.722  39.395   1.988
23291W        W91509  22.016   0.451   1.301
23292W        W91510  28.647  16.285   4.848
23293W        W91511  22.291  25.519  14.935
23294W        W91512  40.419  25.905   1.706
23295W        W91513  16.301  22.808  13.977
23296W        W91514  34.119  21.080   1.267
23297W        W91515   5.254  33.971   1.497
23298W        W91516  29.941  30.505   3.662
23299W        W91517   4.217  17.720  10.593
23300W        W91518  42.322  40.781  13.319
23301W        W91519   6.452  30.691  13.128
23302W        W91520  43.824  12.370   3.164
23303W        W91521  41.564   0.067  13.594
23304W        W91522  24.559  10.380  11.641
23305W        W91523   5.890  25.231  11.644
23306W        W91524  12.150  26.426   4.391
23307W        W91525  22.808  41.106  12.355
23308W        W91526  43.240  25.915   3.181
23309W        W91527  12.314  26.636  10.667
23310W        W91528  41.926  22.553  12.292
23311W        W91529   6.276  43.666  14.104
23312W        W91530   5.437  33.065   0.986
23313W        W91531   7.242  17.090  13.399
23314W        W91532   7.906   8.721  12.179
23315W        W91533  35.672  12.332   4.210
23316W        W91534  13.365  30.562   0.389
23317W        W91535  24.266   7.587   4.991
23318W        W91536  16.884  20.674  12.981
23319W        W91537  35.015  28.708   1.835
23320W        W91538   0.378  38.647   4.648
23321W        W91539  11.123  16.031   0.374
23322W        W91540  23.371  44.942   2.830
23323W        W91541   9.132  41.161  12.155
23324W        W91542  44.616  17.686  14.022
23325W        W91543  18.761  21.530   2.184
23326W        W91544  38.022  30.944   1.033
23327W        W91545  42.962  19.558   1.343
23328W        W91546   3.729  31.488   4.188
23329W        W91547  23.463  39.366  12.166
23330W        W91548  12.880  22.511   1.537
23331W        W91549   0.736   4.731  14.803
23332W        W91550  27.855   1.663   2.344
23333W        W91551   0.858  38.437   0.670
23334W        W91552   4.336  27.999   0.915
23335W        W91553  34.492  13.842  14.323
23336W        W91554  10.802  19.273   2.355
23337W        W91555   0.801  30.335   3.045
23338W        W91556  19.770   3.447   1.702
23339W        W91557  33.528  15.822   5.155
23340W        W91558  22.863   6.908  12.880
23341W        W91559  23.036  10.222  11.598
23342W        W91560  38.904   6.705  10.037
23343W        W91561  31.681  15.073  12.484
23344W        W91562  43.255  25.019  13.521
23345W        W91563   5.335  14.459  13.890
23346W        W91564  20.241  41.226   0.984
23347W        W91565  42.355   1.561   4.410
23348W        W91566  37.057  26.484   0.951
23349W        W91567  33.860  29.946   3.653
23350W        W91568  38.859   8.295  11.354
23351W        W91569  34.524   1.060   0.751
23352W        W91570  14.706  19.006   0.789
23353W        W91571  20.193  23.004   4.029
23354W        W91572   7.201   5.295  12.907
23355W        W91573  27.702  10.668   2.545
23356W        W91574  35.370  26.659  12.146
23357W        W91575  14.909   3.182  13.033
23358W        W91576  29.506  44.569  13.568
23359W        W91577  34.598  44.020   3.701
23360W        W91578  16.693  16.176   0.300
23361W        W91579  17.777  18.256   4.316
23362W        W91580  32.015   2.365   1.394
23363W        W91581  37.916  43.803  14.541
23364W        W91582  41.912   7.129  12.408
23365W        W91583  17.056  43.154  10.488
23366W        W91584  17.058  19.229  14.366
23367W        W91585   6.806  32.494   1.397
23368W        W91586  19.589  39.344   3.635
23369W        W91587  10.479   6.978   4.798
23370W        W91588   2.796  31.055  14.826
23371W        W91589  39.776  12.721  12.522
23372W        W91590  37.811  10.750   1.934
23373W        W91591  30.494  15.193  14.462
23374W        W91592   6.190  26.092  14.379
23375W        W91593  44.485   7.655   2.240
23376W        W91594  38.221  22.542   4.152
23377W        W91595  10.845  39.989   1.332
23378W        W91596   9.654  15.136   4.622
23379W        W91597  35.092  36.367  12.387
23380W        W91598  42.560   8.846   2.157
23381W        W91599   5.595  24.116   4.663
23382W        W91600  20.649  38.322  12.103
23383W        W91601   4.882  17.369   0.740
23384W        W91602  22.765  25.534   0.158
23385W        W91603  13.055  22.205  12.925
23386W        W91604  32.262  40.615   5.052
23387W        W91605  41.523   7.559  14.504
23388W        W91606  38.920   5.364   0.312
23389W        W91607  31.665   4.307   3.532
23390W        W91608  19.837  30.778  11.484
23391W        W91609  29.970  34.396  12.362
23392W        W91610   3.755  16.045   1.414
23393W        W91611  16.812  17.676  11.196
23394W        W91612  30.744  15.929   5.055
23395W        W91613   9.079  21.121   1.874
23396W        W91614   0.745  27.921   2.679
23397W        W91615  19.449  32.537  14.966
23398W        W91616   9.686  44.800   3.739
23399W        W91617  11.634  25.001   1.817
23400W        W91618  15.787  11.223  12.485
23401W        W91619  38.667  27.312  12.441
23402W        W91620  33.129  32.108  11.970
23403W        W91621  33.383   0.793   1.703
23404W        W91622  18.831  24.274   0.831
23405W        W91623   7.249  24.238  12.260
23406W        W91624  33.146   9.268   2.022
23407W        W91625  40.064   3.303  13.365
23408W        W91626   0.237  42.547   4.600
23409W        W91627  37.036  43.773  12.856
23410W        W91628  35.627  35.454   3.381
23411W        W91629  27.043  16.119   1.729
23412W        W91630  13.357  42.252  11.156
23413W        W91631  14.179  37.329   4.556
23414W        W91632  33.114  40.764  13.071
23415W        W91633  38.554  13.622  12.163
23416W        W91634  13.220   5.704   2.327
23417W        W91635   5.929  11.748  11.694
23418W        W91636  41.762  22.403   1.936
23419W        W91637  37.080   4.702  14.344
23420W        W91638  30.533   9.324  13.885
23421W        W91639  12.264  41.364   1.403
23422W        W91640  27.546  30.458  11.031
23423W        W91641  28.002  44.450  13.890
23424W        W91642   6.720  24.850  13.895
23425W        W91643  36.569  35.865   0.769
23426W        W91644  14.120  11.568  12.926
23427W        W91645   6.445  31.298  11.984
23428W        W91646   0.122  39.800  10.790
23429W        W91647  29.862   9.852   3.188
23430W        W91648  24.452   5.815  12.175
23431W        W91649   6.447  18.311  11.095
23432W        W91650   9.333  12.583  14.553
23433W        W91651  15.124  22.740   0.763
23434W        W91652  20.788  44.507   2.248
23435W        W91653  26.349  30.907  14.314
23436W        W91654   4.354  25.974   4.770
23437W        W91655  32.137  39.513   3.736
23438W        W91656  29.120  14.865   3.751
23439W        W91657  11.765   7.926   3.127
23440W        W91658  35.934  14.068   1.131
23441W        W91659  34.000  29.434  13.872
23442W        W91660  40.794  39.976  13.057
23443W        W91661  33.637  41.727   4.038
23444W        W91662  28.931  13.160  13.482
23445W        W91663  38.498  19.146   4.557
23446W        W91664  44.978  43.347   2.003
23447W        W91665  42.937   6.712   2.240
23448W        W91666  32.615   8.723   3.694
23449W        W91667  10.072  11.334  14.183
23450W        W91668  41.556  43.997   0.963
23451W        W91669  19.542  19.665   2.325
23452W        W91670  39.995   4.171  11.938
23453W        W91671   9.915  24.515   2.007
23454W        W91672  10.291   0.496  12.024
23455W        W91673  24.711  10.322   1.732
23456W        W91674  15.254  33.648   2.812
23457W        W91675  26.163  24.955  12.596
23458W        W91676  10.395  14.765   3.221
23459W        W91677  17.051  12.237  10.838
23460W        W91678   1.563  22.903   2.087
23461W        W91679  17.414   6.367  10.656
23462W        W91680  15.525  42.538   4.198
23463W        W91681  36.627  34.559   4.078
23464W        W91682  32.653  20.706   2.213
23465W        W91683   8.832  19.693   1.387
23466W        W91684   9.940  35.928  12.176
23467W        W91685  17.784   3.002   2.914
23468W        W91686  17.817   8.299  11.694
23469W        W91687  36.070  14.827   0.303
23470W        W91688   1.829  39.839  10.632
23471W        W91689   8.731  35.287   0.388
23472W        W91690  21.321  11.211  10.630
23473W        W91691  12.567  42.141  11.385
23474W        W91692  34.093  38.239  12.563
23475W        W91693  11.833  30.555  13.134
23476W        W91694  24.649  28.002  13.436
23477W        W91695  33.928   6.290  10.223
23478W        W91696  13.300  43.525   2.242
23479W        W91697  31.734  15.344  13.703
23480W        W91698  26.415  37.301   4.046
23481W        W91699  13.148  43.100   0.512
23482W        W91700  12.842  34.440  13.973
23483W        W91701  29.999   7.428   0.308
23484W        W91702  19.204   6.153   0.454
23485W        W91703  43.211  43.789  10.652
23486W        W91704   9.876  32.870  14.443
23487W        W91705  28.936  24.256  12.940
23488W        W91706  28.328  30.695   2.289
23489W        W91707  35.581  26.106   3.788
23490W        W91708  44.193  16.728  13.324
23491W        W91709  32.081  16.719   4.622
23492W        W91710  37.013  16.316  11.602
23493W        W91711  28.503   3.239  14.324
23494W        W91712  16.035  20.783  14.290
23495W        W91713  20.562   2.501   4.084
23496W        W91714   7.830   7.135  12.073
23497W        W91715   5.922  14.806  11.063
23498W        W91716  29.849  21.650  11.897
23499W        W91717  41.708   0.818   0.891
23500W        W91718  19.628  19.372  10.530
23501W        W91719  20.746   1.501   1.232
23502W        W91720  14.109  43.030   4.008
23503W        W91721  25.226  43.555   1.342
23504W        W91722  32.908  10.603  10.759
23505W        W91723  43.988   4.424  13.918
23506W        W91724  25.511  15.124   3.138
23507W        W91725  16.147  39.334  12.391
23508W        W91726  35.516  37.517  12.474
23509W        W91727  27.220  33.098   3.621
23510W        W91728  26.635   8.971  11.933
23511W        W91729  43.342  34.883   1.473
23512W        W91730   9.941  27.025  12.885
23513W        W91731  44.309  12.327   2.959
23514W        W91732  21.253   7.598  14.848
23515W        W91733  16.244  40.780   0.026
23516W        W91734  38.971  27.445   0.251
23517W        W91735   8.833   0.312  12.141
23518W        W91736  11.725  29.898   0.327
23519W        W91737  39.261   8.336   3.559
23520W        W91738  23.229   5.802   1.383
23521W        W91739  16.761  10.373  11.166
23522W        W91740   0.880  16.299   4.099
23523W        W91741  36.568   0.188   0.432
23524W        W91742  43.779  37.788  11.147
23525W        W91743  31.484   4.796  11.171
23526W        W91744   3.398   5.918  10.983
23527W        W91745  19.048  23.793   2.750
23528W        W91746  16.995  20.994   3.168
23529W        W91747   0.458  31.788   0.942
23530W        W91748  11.528  30.463  14.963
23531W        W91749  27.997  33.208  14.008
23532W        W91750  29.883  44.357   0.017
23533W        W91751  33.807  13.177   1.830
23534W        W91752  11.372  26.591  11.012
23535W        W91753   3.667  20.055   4.522
23536W        W91754  40.441  23.085  13.572
23537W        W91755  42.081  42.714   0.962
23538W        W91756  11.751  25.681   1.309
23539W        W91757   9.983   3.251  10.222
23540W        W91758   1.326   1.858   2.924
23541W        W91759  40.728  40.412  13.295
23542W        W91760  15.684  19.014   3.516
23543W        W91761   8.250   3.179   3.712
23544W        W91762  12.231  23.953   4.362
23545W        W91763  26.019   5.827   2.410
23546W        W91764  21.956  40.479  11.605
23547W        W91765  32.331  40.306  13.072
23548W        W91766  44.155  18.741   4.112
23549W        W91767  19.156  32.352   2.883
23550W        W91768  10.581   6.283  11.635
23551W        W91769  40.508   2.061   0.393
23552W        W91770  33.708  19.666   1.196
23553W        W91771  42.099  35.827   3.108
23554W        W91772  33.191  39.892  12.795
23555W        W91773  17.112   3.099  14.870
23556W        W91774  26.788  28.634   2.612
23557W        W91775   1.750  29.021   2.006
23558W        W91776   2.649  33.711  13.091
23559W        W91777  23.159  22.283   4.946
23560W        W91778   8.626  33.472   2.641
23561W        W91779  18.402  20.096   4.751
23562W        W91780   0.880  37.933   3.872
23563W        W91781  38.969  28.591   1.809
23564W        W91782   1.940  36.799   4.149
23565W        W91783  41.769  31.723  11.524
23566W        W91784  37.127  23.551   1.457
23567W        W91785  22.135   4.675  11.202
23568W        W91786  16.900  35.444   0.405
23569W        W91787  37.311  36.835  14.119
23570W        W91788  11.651  20.748  12.584
23571W        W91789  34.137  11.171   0.923
23572W        W91790   1.563  33.976  13.807
23573W        W91791  19.524  20.486  13.857
23574W        W91792  22.251  42.067  14.275
23575W        W91793  42.425  44.911   2.385
23576W        W91794   9.330  39.128  14.482
23577W        W91795  23.163  36.531   0.967
23578W        W91796   1.760  26.136   4.647
23579W        W91797  42.617  11.477  11.490
23580W        W91798  33.498  29.667   5.385
23581W        W91799   0.778  13.438  11.200
23582W        W91800  36.921  24.601   2.581
23583W        W91801  43.491   5.761   3.195
23584W        W91802  27.788  41.525   1.954
23585W        W91803   2.251  38.297   4.194
23586W        W91804  16.801  11.416   0.617
23587W        W91805  38.501  15.518   1.361
23588W        W91806   7.650  40.272   0.686
23589W        W91807  21.365  34.027   0.286
23590W        W91808  38.502  39.404  10.506
23591W        W91809  26.812   3.932   3.781
23592W        W91810   7.872   8.914   5.405
23593W        W91811  36.822  13.201   3.176
23594W        W91812   3.932   8.124  10.603
23595W        W91813  25.229   2.823  11.567
23596W        W91814  10.288   7.179  14.669
23597W        W91815  14.289  26.250  10.744
23598W        W91816  32.424  37.527   1.799
23599W        W91817  12.183  44.612   1.663
23600W        W91818  38.996  10.742  11.026
23601W        W91819  27.044  38.867   4.132
23602W        W91820  38.299  26.590   4.236
23603W        W91821  36.424  38.236   0.900
23604W        W91822   0.066  44.896  13.018
23605W        W91823  41.425  32.909  12.074
23606W        W91824  33.138  31.079  12.091
23607W        W91825  11.147   1.013  13.498
23608W        W91826  44.276   8.252   5.091
23609W        W91827  11.393  42.819  11.173
23610W        W91828  41.056  38.020  11.991
23611W        W91829  33.444  35.391   1.839
23612W        W91830   4.069  44.896   4.549
23613W        W91831   3.825  38.101   3.311
23614W        W91832  29.621   6.947  11.158
23615W        W91833  39.536  25.705  10.867
23616W        W91834  20.658  36.266   2.922
23617W        W91835  28.008  42.573   1.357
23618W        W91836   2.919  36.447  12.572
23619W        W91837   4.227  31.527  14.956
23620W        W91838  20.131  11.829  13.927
23621W        W91839   4.120  23.666  11.618
23622W        W91840  10.428   1.096  14.748
23623W        W91841   6.135  17.510   3.843
23624W        W91842  22.626   1.790  14.505
23625W        W91843  17.494   5.887  14.823
23626W        W91844  25.664  27.193   3.817
23627W        W91845  40.763  26.564  13.098
23628W        W91846   3.414  19.767   2.423
23629W        W91847  42.856  12.330  10.977
23630W        W91848  17.906  33.128   3.838
23631W        W91849  27.516  20.735  14.487
23632W        W91850   4.840   0.356  12.114
23633W        W91851  40.072  29.373  10.448
23634W        W91852   8.753  15.173  13.615
23635W        W91853  34.524  35.440   2.527
23636W        W91854   2.779  28.361   2.267
23637W        W91855   0.410  17.041  11.551
23638W        W91856   1.291  43.324   4.018
23639W        W91857   2.764  17.149  11.601
23640W        W91858  29.393  30.175   1.517
23641W        W91859   1.855  10.326   0.761
23642W        W91860  40.013  34.610  12.019
23643W        W91861  30.183   9.386   0.926
23644W        W91862  22.323  17.006  14.749
23645W        W91863  25.647  32.783  14.458
23646W        W91864   3.084  18.583   2.773
23647W        W91865   3.864  41.591  12.510
23648W        W91866  42.650  11.412  10.752
23649W        W91867  26.492  39.357  10.436
23650W        W91868  35.891  29.450  13.073
23651W        W91869  43.381  21.087   1.871
23652W        W91870  28.363  30.109  13.437
23653W        W91871   1.513  36.293  11.102
23654W        W91872  26.509  20.626   3.493
23655W        W91873   8.674  43.059  11.043
23656W        W91874  37.077  15.093   3.212
23657W        W91875   4.107  43.363   0.575
23658W        W91876  38.087  41.498  11.644
23659W        W91877  16.219  25.037   4.562
23660W        W91878  41.762  10.197   2.447
23661W        W91879  27.107  38.949   3.535
23662W        W91880  15.592  24.950  13.552
23663W        W91881  20.773  37.119  11.653
23664W        W91882  35.661  22.587  10.776
23665W        W91883  34.568   1.474  11.857
23666W        W91884  16.776  12.149  13.430
23667W        W91885   4.645   2.623   2.896
23668W        W91886  38.930  21.748  10.674
23669W        W91887  23.582  20.483   4.089
23670W        W91888   2.426  26.529  14.578
23671W        W91889  44.906   0.683   1.867
23672W        W91890  43.866   3.722   0.209
23673W        W91891  17.292  32.941   1.215
23674W        W91892  11.063  23.095   2.499
23675W        W91893  31.900   9.827  11.993
23676W        W91894  44.091   6.310  13.125
23677W        W91895  39.500  15.171  13.658
23678W        W91896   1.376  25.407   4.299
23679W        W91897   9.741   6.915   4.011
23680W        W91898  39.556  27.092  14.260
23681W        W91899  25.779  11.205  14.741
23682W        W91900  10.370  10.284  10.260
23683W        W91901  27.500  28.117   4.571
23684W        W91902   6.432  31.755   2.666
23685W        W91903  36.852  33.282   1.092
23686W        W91904   1.897  39.332   0.509
23687W        W91905  26.694  33.304   3.971
23688W        W91906  31.687   5.982  14.511
23689W        W91907  27.772   4.156  11.172
23690W        W91908   4.957   4.761  12.500
23691W        W91909  14.048   3.790   3.265
23692W        W91910  12.722  23.004  10.915
23693W        W91911  21.189  40.037  12.811
23694W        W91912   7.426   5.693  12.089
23695W        W91913  31.690  44.002  14.289
23696W        W91914  24.143  31.298  11.123
23697W        W91915   3.980  38.445  10.323
23698W        W91916   4.323  41.451   4.027
23699W        W91917  42.838  41.798  10.638
23700W        W91918  16.291   7.855   2.848
23701W        W91919  10.179  20.184  14.684
23702W        W91920   9.916  25.484  11.588
23703W        W91921  39.480  11.783   2.985
23704W        W91922   8.790  15.071  14.153
23705W        W91923   5.397  17.304   1.418
23706W        W91924  37.775  21.559  14.776
23707W        W91925   4.127  30.128  12.790
23708W        W91926  15.041  36.792   2.621
23709W        W91927  40.255  42.619  11.548
23710W        W91928  28.387  26.022   4.254
23711W        W91929  18.556   9.592   0.657
23712W        W91930  30.754  29.208   0.380
23713W        W91931  29.589  23.935   9.819
23714W        W91932  13.883   9.713  13.041
23715W        W91933  13.419  40.787  10.776
23716W        W91934  16.229   5.457  14.004
23717W        W91935  35.410  23.303   1.373
23718W        W91936   7.421   6.243   4.129
23719W        W91937  24.511  23.655   1.289
23720W        W91938   4.549  41.712  13.857
23721W        W91939  26.176  41.882  11.876
23722W        W91940  13.287   2.802  12.514
23723W        W91941  41.054   2.212   0.397
23724W        W91942   6.965  34.937   1.197
23725W        W91943   5.029  19.351  12.021
23726W        W91944  22.202   6.543   3.662
23727W        W91945  20.555  20.277  12.094
23728W        W91946  32.032  28.252   3.175
23729W        W91947  24.974  22.905  14.792
23730W        W91948   6.106  20.699   3.755
23731W        W91949  40.821  13.534  12.056
23732W        W91950  29.171   0.571  14.415
23733W        W91951   2.926  19.788  10.674
23734W        W91952  32.655  13.301  14.381
23735W        W91953   5.653   3.524   1.736
23736W        W91954  14.812  33.026   4.894
23737W        W91955   3.019   3.426   3.728
23738W        W91956  35.084   5.693  12.140
23739W        W91957  27.930   4.415   0.403
23740W        W91958   4.990  39.534  11.051
23741W        W91959   0.677  10.790   4.954
23742W        W91960  43.396  14.248  11.165
23743W        W91961  24.949  26.135  13.977
23744W        W91962  27.943   4.467  12.072
23745W        W91963  19.141   8.183  12.705
23746W        W91964  17.976  28.974  12.945
23747W        W91965   1.796   4.493   4.864
23748W        W91966   0.298   6.791   0.031
23749W        W91967  38.492  26.949   2.594
23750W        W91968  22.963   4.901   2.254
23751W        W91969  41.419  24.594  11.426
23752W        W91970   6.066   5.789   4.156
23753W        W91971  36.547  41.943   2.201
23754W        W91972  13.873  42.583   1.280
23755W        W91973  42.319   5.940   3.367
23756W        W91974  30.709   0.931  12.083
23757W        W91975  20.096  23.582   3.199
23758W        W91976  14.165  37.604   4.113
23759W        W91977   5.456  39.441  10.917
23760W        W91978  39.852   9.654  13.767
23761W        W91979  40.302  20.507  12.634
23762W        W91980  34.400  26.801  10.653
23763W        W91981   7.805  43.745   1.653
23764W        W91982  42.871  41.605   0.876
23765W        W91983   1.764  12.676   1.341
23766W        W91984  12.717  33.678  14.587
23767W        W91985   5.623  33.593  11.171
23768W        W91986  10.691   2.664  13.883
23769W        W91987  22.689  36.347   0.819
23770W        W91988  21.954   3.229   2.529
23771W        W91989  15.311   7.361   3.351
23772W        W91990  40.032  12.658  12.987
23773W        W91991  21.969  36.969  14.311
23774W        W91992  42.094  44.203  10.292
23775W        W91993  16.196  31.122   4.347
23776W        W91994  40.742   5.386  14.111
23777W        W91995  35.637  15.805  11.151
23778W        W91996  37.130  20.504  11.090
23779W        W91997   5.136  30.502   3.855
23780W        W91998   8.704  36.919  11.021
23781W        W91999  20.663  25.412   2.649
23782W        W92000   0.119  23.785   0.943
23783W        W92001  14.233  42.083  12.461
23784W        W92002  27.614  10.659   1.060
23785W        W92003  35.351  21.638   2.272
23786W        W92004  40.901  29.481  11.777
23787W        W92005   5.848  19.051  10.322
23788W        W92006  26.039   4.371   4.021
23789W        W92007  12.836  12.656   4.541
23790W        W92008  27.258  35.040  14.115
23791W        W92009  44.481  43.260  12.796
23792W        W92010  12.665  19.022   2.413
23793W        W92011   5.221  39.606   0.226
23794W        W92012   8.175  26.111   4.169
23795W        W92013  27.553  32.078  10.453
23796W        W92014  14.744  35.116  11.665
23797W        W92015  14.198  12.147  14.347
23798W        W92016  38.118  25.301  12.972
23799W        W92017  28.422  16.265  12.953
23800W        W92018  37.381  29.115   2.242
23801W        W92019   8.419  14.354   3.350
23802W        W92020  36.541  40.971   2.375
23803W        W92021  19.068  26.189   1.807
23804W        W92022  35.635  43.214  12.053
23805W        W92023   6.499  34.934   4.513
23806W        W92024   2.360  14.083  14.957
23807W        W92025   2.470  29.316   4.515
23808W        W92026  18.084  36.158   2.347
23809W        W92027  40.612  19.227  12.907
23810W        W92028  26.955  16.818  14.746
23811W        W92029  40.759   6.309  14.017
23812W        W92030  14.380  25.511   4.162
23813W        W92031  36.380   9.737   0.282
23814W        W92032  11.427  41.445  12.395
23815W        W92033  42.846  39.763   4.437
23816W        W92034   1.853   0.558   4.140
23817W        W92035  33.134  38.676  11.142
23818W        W92036  25.591  31.423  11.455
23819W        W92037  15.859   9.900  13.365
23820W        W92038  12.975  41.812  11.795
23821W        W92039  40.440   7.889   3.730
23822W        W92040  23.011  31.145   0.839
23823W        W92041   8.729  44.102  14.389
23824W        W92042  38.415  13.312  12.619
23825W        W92043  32.585  16.711   1.424
23826W        W92044  26.995  24.957  11.930
23827W        W92045  20.763  38.120  10.354
23828W        W92046  14.107   7.580   4.549
23829W        W92047  15.260  32.003  11.270
23830W        W92048  33.148  18.104  14.791
23831W        W92049  32.502   7.679  13.877
23832W        W92050  34.848  17.736  12.349
23833W        W92051  16.586  26.259  13.780
23834W        W92052  44.470  16.265  13.852
23835W        W92053   3.433  25.262   1.780
23836W        W92054  32.558  37.169   3.374
23837W        W92055  24.203  27.012   1.720
23838W        W92056  32.423  24.773   0.337
23839W        W92057  21.718  23.625  10.238
23840W        W92058   4.370  25.418  10.674
23841W        W92059  41.289   4.520   2.295
23842W        W92060   7.785  43.302  14.990
23843W        W92061   8.718   4.025  14.040
23844W        W92062  37.442   7.291  13.168
23845W        W92063  44.505  19.161   3.401
23846W        W92064  10.999   9.175   4.584
23847W        W92065  22.712  16.350   2.348
23848W        W92066  29.583  37.552   2.605
23849W        W92067  19.902   0.193  14.785
23850W        W92068  11.174  29.137   3.529
23851W        W92069   2.988  32.958  10.646
23852W        W92070  31.052  23.216  14.370
23853W        W92071  41.262  14.333   0.026
23854W        W92072  17.225  14.071  14.325
23855W        W92073  12.857   7.254   0.324
23856W        W92074  17.236   7.730  10.669
23857W        W92075   5.245  10.711   3.310
23858W        W92076   8.701   6.217   3.633
23859W        W92077  25.962  18.224   3.607
23860W        W92078   7.737  37.339   2.776
23861W        W92079  19.014  35.513  14.678
23862W        W92080   9.563   3.703  11.584
23863W        W92081   5.824   4.888  10.715
23864W        W92082  40.883  10.768  14.037
23865W        W92083  36.921  40.383   4.470
23866W        W92084  26.793   9.456  14.505
23867W        W92085   6.226   5.326   4.013
23868W        W92086  26.813  29.571  11.811
23869W        W92087  39.361  39.284   2.089
23870W        W92088  32.471  43.339  10.571
23871W        W92089  30.784  14.755  12.586
23872W        W92090  16.635  15.867   4.134
23873W        W92091  15.714  22.586   4.567
23874W        W92092  36.974  21.994   2.923
23875W        W92093   0.905   4.405   3.352
23876W        W92094   1.411  15.869  10.781
23877W        W92095  40.618  29.194  14.431
23878W        W92096  41.487  25.070   1.353
23879W        W92097   8.377  43.060   4.282
23880W        W92098   7.730   8.736   0.738
23881W        W92099  37.835  27.672  14.577
23882W        W92100  24.508  21.743   0.275
23883W        W92101  25.795  41.284  13.530
23884W        W92102  29.000  17.397  14.433
23885W        W92103   5.366  29.119  12.919
23886W        W92104  22.426  37.867  12.075
23887W        W92105   7.725   4.426  12.138
23888W        W92106  21.151  17.026   0.401
23889W        W92107   2.492   9.913   1.909
23890W        W92108  21.157  22.466  13.205
23891W        W92109  27.120  16.375   0.323
23892W        W92110  29.753  25.597   0.844
23893W        W92111  19.762  40.977  12.393
23894W        W92112  33.918  36.565  11.724
23895W        W92113  36.987  29.395   4.588
23896W        W92114  24.656  37.629  12.578
23897W        W92115   4.733  28.212   1.890
23898W        W92116  16.564  32.542  13.581
23899W        W92117  16.619  41.830  12.797
23900W        W92118  32.849  29.219   3.450
23901W        W92119  19.515  12.569  11.961
23902W        W92120  11.334  37.124  12.888
23903W        W92121  20.406   5.912   2.779
23904W        W92122  11.463  12.162  13.101
23905W        W92123  21.252  29.767   2.582
23906W        W92124  44.446   0.676  11.532
23907W        W92125  10.097   3.769  10.190
23908W        W92126  10.462  17.179   3.676
23909W        W92127  38.632  12.665   3.133
23910W        W92128  25.681   8.682   0.779
23911W        W92129  19.087   3.247   3.168
23912W        W92130  38.475  11.124  11.607
23913W        W92131  36.028   3.786  11.408
23914W        W92132  11.874   9.564  13.816
23915W        W92133  24.838  44.307  14.207
23916W        W92134  27.615  22.112  14.419
23917W        W92135   4.451  37.542  13.856
23918W        W92136  24.650  21.752   1.242
23919W        W92137  14.685  24.221  10.983
23920W        W92138   8.471   5.200  11.247
23921W        W92139  34.778   7.142  12.462
23922W        W92140   3.484  36.342  14.950
23923W        W92141   9.663  23.952  12.420
23924W        W92142  25.533   8.093   4.224
23925W        W92143  24.156  42.253   2.525
23926W        W92144  39.267  22.985  13.798
23927W        W92145   5.624  43.689   2.765
23928W        W92146  28.117  30.161  14.855
23929W        W92147  22.646   0.908   0.985
23930W        W92148  24.219  38.776  10.228
23931W        W92149  19.575   9.621   4.653
23932W        W92150  36.935  44.418  14.843
23933W        W92151  16.456  18.602   3.887
23934W        W92152  21.224  11.404   1.309
23935W        W92153  22.550  30.971   4.372
23936W        W92154  15.762  16.879   2.446
23937W        W92155  23.604   8.422   4.153
23938W        W92156  31.598  38.381  13.401
23939W        W92157  33.656  43.416  14.506
23940W        W92158   7.501  11.058   3.307
23941W        W92159  32.070  16.093   3.164
23942W        W92160  21.653   9.232  14.408
23943W        W92161   7.082  34.962   3.460
23944W        W92162  28.574  16.321  13.876
23945W        W92163  22.383  26.769   5.155
23946W        W92164  28.987  31.643  11.502
23947W        W92165   6.567  41.029   4.537
23948W        W92166  26.947  32.451   2.192
23949W        W92167  11.268  28.974   1.256
23950W        W92168   0.074  10.966   2.322
23951W        W92169   0.013  23.987  11.967
23952W        W92170  37.915  42.536  11.682
23953W        W92171  17.059  19.372  11.728
23954W        W92172  14.944  15.774  10.722
23955W        W92173  10.398  29.139   4.642
23956W        W92174   2.189  27.643   1.864
23957W        W92175  27.753  13.989   4.555
23958W        W92176   4.704   5.107   4.202
23959W        W92177  19.048  18.418   0.260
23960W        W92178  20.990  28.574  13.826
23961W        W92179   9.846  10.586   3.021
23962W        W92180  10.138   2.702   1.836
23963W        W92181   1.887  42.578  14.907
23964W        W92182  37.518  15.330   2.414
23965W        W92183  41.536  25.965   4.518
23966W        W92184  24.702  10.862  11.640
23967W        W92185  35.624  10.143   0.883
23968W        W92186  14.392  11.202  10.704
23969W        W92187  39.128  13.825   4.098
23970W        W92188  22.768   8.759   4.031
23971W        W92189  11.085  39.317   3.685
23972W        W92190  10.888  42.735  11.187
23973W        W92191  39.503   6.786  13.052
23974W        W92192  31.836  17.656  14.837
23975W        W92193  10.352  25.759   4.151
23976W        W92194   8.264  36.319   4.726
23977W        W92195   1.141   2.968   1.501
23978W        W92196  28.191  14.590   2.705
23979W        W92197  12.153  15.786   1.323
23980W        W92198  42.298  18.189  11.493
23981W        W92199   9.014  34.272  13.556
23982W        W92200  25.958  33.437  13.498
23983W        W92201  28.480  37.608  14.326
23984W        W92202  13.675  34.629   4.826
23985W        W92203   3.193  18.851   3.217
23986W        W92204  36.916  31.248  10.745
23987W        W92205  26.247  23.974  11.832
23988W        W92206  30.119  38.068   2.394
23989W        W92207  37.452   9.827  14.584
23990W        W92208  28.465   3.708   0.981
23991W        W92209  22.398  18.148   2.761
23992W        W92210  44.799  31.136   1.271
23993W        W92211  23.269  21.273   0.915
23994W        W92212  37.274  35.936   4.090
23995W        W92213  39.030  20.576  13.073
23996W        W92214  38.573  33.415  11.574
23997W        W92215   6.365  17.678   2.859
23998W        W92216  40.887  18.321  14.332
23999W        W92217  44.597  22.786   0.289
24000W        W92218   9.598  10.686   3.779
24001W        W92219  24.653  11.962  12.408
24002W        W92220  15.299  39.249  11.017
24003W        W92221  26.247  32.389   0.030
24004W        W92222  25.875  24.782   4.473
24005W        W92223  28.026  38.318  11.033
24006W        W92224   6.244  27.225   2.254
24007W        W92225  14.100   3.132   3.635
24008W        W92226  17.505  17.719  12.639
24009W        W92227  27.171  31.989   1.270
24010W        W92228  44.116  25.395  13.375
24011W        W92229  27.106  19.722   0.230
24012W        W92230   6.019  28.613   1.922
24013W        W92231  20.312   2.878  13.908
24014W        W92232  32.119  21.381  10.167
24015W        W92233  17.716   5.484   1.444
24016W        W92234   5.200  13.820   2.420
24017W        W92235  24.654  16.489   0.754
24018W        W92236   3.043   1.579   3.755
24019W        W92237  26.215  30.558  13.769
24020W        W92238   3.590  19.833  11.914
24021W        W92239  29.097  15.712   0.897
24022W        W92240  44.989  19.720   2.065
24023W        W92241  28.895  39.901   0.953
24024W        W92242   9.878  27.993  12.877
24025W        W92243  23.125  37.000  12.079
24026W        W92244  23.058  18.546  11.572
24027W        W92245  39.324  19.735   1.064
24028W        W92246   7.650  32.027   1.766
24029W        W92247   3.389   2.449   2.442
24030W        W92248  27.659  27.601  11.952
24031W        W92249  23.168  20.290  12.659
24032W        W92250   8.334  17.717  14.820
24033W        W92251   2.317  21.698   1.232
24034W        W92252  31.669  26.663  14.525
24035W        W92253  31.810  34.165  12.044
24036W        W92254  29.914   3.306  11.498
24037W        W92255  17.123  35.329  14.306
24038W        W92256  42.595   6.946   4.218
24039W        W92257  12.922  13.119   1.333
24040W        W92258   6.847  10.271  12.101
24041W        W92259  10.255  13.677  11.454
24042W        W92260   8.863  16.231  12.434
24043W        W92261   6.397  35.856  13.632
24044W        W92262   5.289   8.909  12.518
24045W        W92263  31.542  43.901   3.412
24046W        W92264  20.950  40.770   4.454
24047W        W92265  36.056  17.158   4.072
24048W        W92266  16.124  32.693   4.599
24049W        W92267  36.986  10.474   0.981
24050W        W92268  18.484  25.549   1.264
24051W        W92269   0.350  32.154  12.016
24052W        W92270  39.085  27.781   0.664
24053W        W92271  25.467  29.940   2.649
24054W        W92272  35.523  33.445  14.029
24055W        W92273  32.864  18.551   3.336
24056W        W92274  12.182  30.172   3.816
24057W        W92275  34.858  43.505  12.602
24058W        W92276   0.287  19.791  14.418
24059W        W92277  31.721  11.303   1.916
24060W        W92278   7.825   9.954  14.887
24061W        W92279   3.739  38.100   0.298
24062W        W92280   2.791   6.784  12.295
24063W        W92281   8.439  33.427   4.076
24064W        W92282  39.385  11.710   1.280
24065W        W92283   4.002  40.802   0.907
24066W        W92284  17.470  21.805   1.848
24067W        W92285  17.075   5.669  11.545
24068W        W92286  15.915  28.658   1.663
24069W        W92287  12.507  38.517   3.360
24070W        W92288  11.559  20.742   0.310
24071W        W92289  16.401  18.709   2.398
24072W        W92290  15.369  28.569   4.067
24073W        W92291  12.416  16.298   3.547
24074W        W92292  16.578   7.291   0.667
24075W        W92293   5.873  29.473   0.282
24076W        W92294  22.452  15.796  14.287
24077W        W92295  34.143  12.803   2.017
24078W        W92296   3.466   2.761  10.871
24079W        W92297  41.441  20.660  10.663
24080W        W92298  19.791  34.516   3.693
24081W        W92299   8.477  20.287   1.234
24082W        W92300  11.302  35.427  14.595
24083W        W92301  38.837  33.320   4.215
24084W        W92302   7.240  37.295  12.409
24085W        W92303  25.868  40.553   0.866
24086W        W92304  29.404   8.931   1.707
24087W        W92305  36.000  33.056   3.031
24088W        W92306  33.402  18.090  10.261
24089W        W92307   0.397  13.310   4.063
24090W        W92308  24.476  44.117   0.468
24091W        W92309  27.106  24.931  13.025
24092W        W92310   5.831  29.892   1.949
24093W        W92311  36.274   4.010  11.033
24094W        W92312  13.279   4.218  11.081
24095W        W92313  21.488  40.781  11.992
24096W        W92314  17.748  39.308  12.054
24097W        W92315  35.441  32.696   1.404
24098W        W92316   5.518  30.399  11.478
24099W        W92317  22.721  29.964  12.241
24100W        W92318  38.777  23.593   5.006
24101W        W92319   7.158  28.176  11.904
24102W        W92320   7.265  31.459   3.579
24103W        W92321  31.862  39.583  13.040
24104W        W92322   3.167  20.158   1.385
24105W        W92323  19.084  26.542   2.345
24106W        W92324   4.465  12.259  14.894
24107W        W92325  41.912  30.873   0.859
24108W        W92326   4.901   9.297  13.299
24109W        W92327   7.447   9.898  13.891
24110W        W92328   0.798  14.656   0.135
24111W        W92329  37.390   3.564   2.884
24112W        W92330  29.426  22.149  12.634
24113W        W92331  19.431  39.611   4.381
24114W        W92332  12.376   0.944  10.620
24115W        W92333   7.864  21.763   1.738
24116W        W92334   4.237  20.499   4.454
24117W        W92335  27.919  24.042   2.836
24118W        W92336   8.383  42.950  13.264
24119W        W92337  34.189   5.056   5.070
24120W        W92338  13.248  19.994   1.917
24121W        W92339  38.627  43.724   2.128
24122W        W92340   7.731  44.932  12.394
24123W        W92341  42.081  15.472   3.705
24124W        W92342  17.789  18.155   3.806
24125W        W92343  33.416  33.407  10.357
24126W        W92344  19.354   3.293   4.525
24127W        W92345  33.220  31.474  12.420
24128W        W92346  42.014   6.834   0.485
24129W        W92347  30.334   8.698  10.693
24130W        W92348   6.987  19.820   2.647
24131W        W92349   1.396  32.336  14.366
24132W        W92350  40.050  10.623   1.813
24133W        W92351  14.999  44.974   1.896
24134W        W92352   0.905  10.850  11.070
24135W        W92353   1.705  36.075  13.010
24136W        W92354  22.157  22.626  12.313
24137W        W92355  28.633  39.333  12.473
24138W        W92356  42.355  19.564   4.619
24139W        W92357  41.448  13.796  10.980
24140W        W92358  30.464  21.285   0.360
24141W        W92359  43.816  39.020  12.502
24142W        W92360  21.287  40.248  12.302
24143W        W92361  18.498  22.254  12.833
24144W        W92362  21.436  11.853  12.575
24145W        W92363  44.432  28.352  11.185
24146W        W92364  35.005  21.958  13.709
24147W        W92365   0.890  21.990  12.300
24148W        W92366  18.666  20.234  14.520
24149W        W92367  39.041  23.251   4.711
24150W        W92368  26.242  25.679  11.922
24151W        W92369  36.291  42.776  12.970
24152W        W92370  30.592  43.941  14.739
24153W        W92371  39.487  34.581   4.466
24154W        W92372   2.402  38.138  13.791
24155W        W92373  40.669   0.271  11.612
24156W        W92374  41.096  20.972  10.878
24157W        W92375  28.011  18.945   9.928
24158W        W92376  27.050   1.904  14.460
24159W        W92377  15.063  31.079  11.489
24160W        W92378  36.345   5.086  12.341
24161W        W92379   4.812  38.733   3.341
24162W        W92380  37.312   7.404  14.998
24163W        W92381   2.021   1.754   1.370
24164W        W92382  39.615  20.109   3.687
24165W        W92383   9.160  36.075  14.297
24166W        W92384   3.843  20.497  13.237
24167W        W92385   4.398  31.615   0.429
24168W        W92386  33.154   5.837   1.383
24169W        W92387  21.179   3.381   0.344
24170W        W92388  34.344  14.076  14.756
24171W        W92389  19.477   1.593   0.273
24172W        W92390   7.676  25.608  10.379
24173W        W92391   8.167  33.318  12.146
24174W        W92392  17.834  44.314   2.688
24175W        W92393  28.268  19.276  13.297
24176W        W92394   9.045   9.317  11.128
24177W        W92395  19.137   1.001  14.323
24178W        W92396  22.107  23.582  12.532
24179W        W92397   5.331   2.264   0.949
24180W        W92398  21.984  12.362  12.462
24181W        W92399  42.792  21.396   3.175
24182W        W92400  33.413  20.615  14.380
24183W        W92401  33.578   7.616   0.062
24184W        W92402  15.767  10.725   3.780
24185W        W92403   8.529  17.364   1.463
24186W        W92404  13.262  17.127  10.234
24187W        W92405  28.516  18.892  13.577
24188W        W92406  16.317  24.502   1.185
24189W        W92407  33.714   0.167  13.466
24190W        W92408  30.555   8.909   2.760
24191W        W92409  32.006  32.609  12.911
24192W        W92410  37.902   3.883  11.229
24193W        W92411   9.858  36.538  10.348
24194W        W92412  10.917  32.914  11.109
24195W        W92413  14.639  39.841  14.596
24196W        W92414   7.142   9.253  13.583
24197W        W92415  41.034  25.173  11.881
24198W        W92416  36.825  30.983   2.362
24199W        W92417  14.202   9.820  14.842
24200W        W92418  12.137  28.444  14.749
24201W        W92419   3.908   7.655   0.228
24202W        W92420  11.684  19.268   2.890
24203W        W92421   4.271  41.490  12.825
24204W        W92422  24.128  35.528  10.427
24205W        W92423  39.300  23.659   1.772
24206W        W92424  44.979   8.116   0.982
24207W        W92425  21.524  32.420   2.251
24208W        W92426  27.682   7.152  14.292
24209W        W92427   0.312  26.904  11.202
24210W        W92428  14.407  18.797   3.696
24211W        W92429  36.256  17.605   1.838
24212W        W92430  43.845  30.232  12.854
24213W        W92431  25.013  27.671   3.144
24214W        W92432  30.162  33.692   2.829
24215W        W92433  21.077  29.017  10.333
24216W        W92434  19.120  32.145   0.036
24217W        W92435  21.162   3.258   4.068
24218W        W92436  38.465  22.602   3.711
24219W        W92437  22.224   7.964   1.137
24220W        W92438  24.751  35.868   4.695
24221W        W92439  20.356  27.085  13.192
24222W        W92440   7.328   7.361  10.964
24223W        W92441   8.642  22.712   2.150
24224W        W92442   3.617   6.607  10.623
24225W        W92443  36.098  36.939  10.572
24226W        W92444  15.149  11.624   2.835
24227W        W92445  28.470  42.157   4.570
24228W        W92446  41.873  24.387   2.758
24229W        W92447   6.778   7.379   4.104
24230W        W92448  41.305  32.080   1.373
24231W        W92449  22.014  19.222  13.269
24232W        W92450  11.365  36.581  13.789
24233W        W92451  20.750  28.858  12.605
24234W        W92452  11.342  41.629  11.577
24235W        W92453  30.961   3.834   3.581
24236W        W92454  32.943   4.731   2.962
24237W        W92455  42.421   4.026  12.801
24238W        W92456  30.738  10.537  11.994
24239W        W92457  28.326  21.943  13.103
24240W        W92458   4.184   8.299   0.744
24241W        W92459  34.488  10.335   2.755
24242W        W92460  13.105  11.732   2.327
24243W        W92461  36.159   8.605   0.677
24244W        W92462   8.243  33.743   1.780
24245W        W92463  18.505  21.196  13.539
24246W        W92464  33.600   5.616   1.478
24247W        W92465  37.020  42.306  14.780
24248W        W92466  26.066   6.866   4.195
24249W        W92467   5.506  19.077  14.534
24250W        W92468  21.849  27.327  12.506
24251W        W92469  32.833  37.019  13.702
24252W        W92470   6.451  26.538  11.679
24253W        W92471  34.305  24.414   1.950
24254W        W92472   1.429  31.058   2.872
24255W        W92473  28.869  38.843   2.788
24256W        W92474   4.714  33.071  13.869
24257W        W92475   7.319  42.551   0.099
24258W        W92476   7.961  36.475  10.585
24259W        W92477  44.649  20.529  11.942
24260W        W92478  17.225  25.564  10.757
24261W        W92479  27.407  24.776   1.090
24262W        W92480  21.270  26.668  10.795
24263W        W92481  18.666   3.204   1.198
24264W        W92482  14.121  15.897  11.531
24265W        W92483  12.127  43.019   1.954
24266W        W92484  37.351  21.273   0.258
24267W        W92485  13.715  15.589  10.966
24268W        W92486  20.579  18.272  13.030
24269W        W92487  10.856  15.635  11.090
24270W        W92488   4.921  12.676  11.548
24271W        W92489  24.643  22.713  11.031
24272W        W92490  33.914  43.349   3.857
24273W        W92491  10.920  20.213  12.408
24274W        W92492  16.284  15.434  13.848
24275W        W92493   3.404  38.118  11.994
24276W        W92494  17.807  18.735  14.921
24277W        W92495   8.720  13.858  10.651
24278W        W92496  28.999  39.086   0.511
24279W        W92497   5.011  25.946  11.126
24280W        W92498   6.659   8.469  12.045
24281W        W92499  29.948   9.666  13.057
24282W        W92500  13.802  13.110   2.978
24283W        W92501  10.167  33.108   3.253
24284W        W92502   6.458  42.364   3.791
24285W        W92503  12.596   4.551  12.095
24286W        W92504  38.102  43.031   9.978
24287W        W92505  25.915  13.270  13.894
24288W        W92506  44.194  27.110   4.712
24289W        W92507  22.020  41.954  13.833
24290W        W92508  21.458  11.871   1.423
24291W        W92509  30.588  17.092   1.488
24292W        W92510  44.950  17.385  14.330
24293W        W92511   4.447  37.837   3.176
24294W        W92512  18.970  26.021  14.862
24295W        W92513  15.605  32.225   1.113
24296W        W92514  17.103  20.128   2.672
24297W        W92515  44.836  35.455   4.571
24298W        W92516  39.993  12.248   2.375
24299W        W92517  37.586  12.628   0.056
24300W        W92518  38.807  41.569   2.923
24301W        W92519  38.924   3.824  14.102
24302W        W92520  25.735  31.674  12.438
24303W        W92521  23.022  40.614  14.379
24304W        W92522  39.045  34.654  14.212
24305W        W92523  11.858  44.709   2.923
24306W        W92524  31.717  43.821   0.840
24307W        W92525  27.518  25.133  11.065
24308W        W92526  14.355  44.395  12.144
24309W        W92527  19.280  26.155  14.335
24310W        W92528   9.687  18.484  11.186
24311W        W92529  22.964  30.096   4.411
24312W        W92530  40.284  30.401   4.140
24313W        W92531  24.491  10.381  12.542
24314W        W92532  10.183   9.287   5.092
24315W        W92533  43.302  37.870  14.317
24316W        W92534  29.191   8.235  14.013
24317W        W92535   1.074  33.616   3.572
24318W        W92536  37.591   7.403   3.853
24319W        W92537   3.208  14.048  12.012
24320W        W92538  44.265  22.116   1.842
24321W        W92539  23.034  35.819   3.770
24322W        W92540   7.101  35.365  11.128
24323W        W92541  23.046  29.688  14.936
24324W        W92542  38.124  39.877  11.138
24325W        W92543  21.937  34.442  11.079
24326W        W92544  13.158  31.437   0.013
24327W        W92545   5.474  34.463  14.809
24328W        W92546   3.571  20.278  14.614
24329W        W92547  20.307  41.263   1.498
24330W        W92548  19.744  24.907   2.890
24331W        W92549  14.157   5.272   3.883
24332W        W92550  44.551  14.668   3.245
24333W        W92551   8.270   1.618  12.136
24334W        W92552  21.122  38.421  14.773
24335W        W92553  22.098  12.356   2.211
24336W        W92554  36.603   9.168  11.585
24337W        W92555   3.614  44.824  13.789
24338W        W92556   7.810   8.790   4.640
24339W        W92557  20.071   0.668  14.798
24340W        W92558   8.374   7.390   4.551
24341W        W92559  30.006  26.233  11.675
24342W        W92560  30.125   7.609   1.656
24343W        W92561  15.813  29.067   1.951
24344W        W92562  30.120  37.056  11.742
24345W        W92563  33.467  15.270  14.994
24346W        W92564  17.344   3.991  12.069
24347W        W92565  33.229  40.550  10.353
24348W        W92566  34.434   7.909  13.588
24349W        W92567  24.691  17.510  11.969
24350W        W92568  13.254   1.936  12.008
24351W        W92569  24.490  15.319   2.285
24352W        W92570  20.564  27.564   0.941
24353W        W92571  14.695  22.414  12.496
24354W        W92572  24.059   5.832  11.366
24355W        W92573  13.841  11.396   0.424
24356W        W92574  38.285  19.108   4.082
24357W        W92575  20.445  15.949   3.117
24358W        W92576  15.506  16.381  13.603
24359W        W92577  31.675   9.092   1.494
24360W        W92578  28.571  17.194   4.542
24361W        W92579  22.204  28.370   2.133
24362W        W92580  15.816   9.196   3.682
24363W        W92581   6.236  40.401  10.508
24364W        W92582   4.861  44.304  13.547
24365W        W92583  28.482  24.330  11.463
24366W        W92584  20.013  26.491  12.517
24367W        W92585  20.288   9.808   3.078
24368W        W92586  39.310  36.744   4.136
24369W        W92587  16.286  17.382   3.583
24370W        W92588  12.348  17.377   1.311
24371W        W92589  38.077   5.643   4.128
24372W        W92590  10.281  13.139  11.590
24373W        W92591   6.002  27.841  13.410
24374W        W92592  38.042  33.519   2.751
24375W        W92593  32.539  18.983   0.302
24376W        W92594  38.922  26.080  13.511
24377W        W92595  37.937   3.998  10.727
24378W        W92596  10.176  36.769  14.684
24379W        W92597   5.232  42.820   4.256
24380W        W92598  37.208  32.419   0.884
24381W        W92599  23.551  10.707   0.849
24382W        W92600  19.859  13.075   4.824
24383W        W92601  14.853  18.252  12.919
24384W        W92602   9.823  30.157  10.773
24385W        W92603   1.470  42.763   2.860
24386W        W92604  17.751  35.295   4.179
24387W        W92605  16.098  25.028  12.463
24388W        W92606  35.420   9.983   2.485
24389W        W92607   5.194  42.258  12.506
24390W        W92608  42.728  42.400   0.703
24391W        W92609  27.204   6.350  11.524
24392W        W92610  19.036  41.016   1.864
24393W        W92611   3.715  35.620   0.829
24394W        W92612  38.366   1.686   3.322
24395W        W92613  27.273  22.640  12.139
24396W        W92614  41.792  30.207  13.187
24397W        W92615   4.292   7.219   3.259
24398W        W92616   3.503  34.336  14.508
24399W        W92617  28.310  29.673   1.604
24400W        W92618  17.045  26.484  12.101
24401W        W92619  37.637  39.120  10.299
24402W        W92620  34.850  29.386  14.942
24403W        W92621  37.157  33.216  12.873
24404W        W92622  27.076   8.247   4.670
24405W        W92623  33.999  23.729  10.851
24406W        W92624   7.861  42.423  12.939
24407W        W92625  20.950  30.974   2.350
24408W        W92626  42.732  42.880  10.599
24409W        W92627  43.458  28.261   3.349
24410W        W92628   2.344   9.364  14.290
24411W        W92629  16.834  22.122   0.468
24412W        W92630   4.860  19.229   4.522
24413W        W92631  42.938   6.754   4.678
24414W        W92632  24.523   0.840   0.048
24415W        W92633  13.656  25.069  14.280
24416W        W92634  13.090   6.760   3.150
24417W        W92635  21.780   8.860  11.102
24418W        W92636  30.707  20.960  11.693
24419W        W92637  13.722  38.065   3.287
24420W        W92638   4.694  38.302   1.374
24421W        W92639  39.925  42.523   2.297
24422W        W92640  42.469  35.474  12.753
24423W        W92641  17.933   4.631   4.119
24424W        W92642  24.746  31.439   0.883
24425W        W92643  32.147   6.754  12.042
24426W        W92644   0.622   8.966  13.393
24427W        W92645  33.945   8.552   3.825
24428W        W92646  38.824   8.619  13.524
24429W        W92647  32.174  43.543   4.611
24430W        W92648  38.915  38.061  12.939
24431W        W92649   7.736   4.337   1.466
24432W        W92650  15.755  23.230  14.470
24433W        W92651  25.017  10.158  11.733
24434W        W92652  26.208  39.978  11.160
24435W        W92653   7.005  15.595  11.180
24436W        W92654   9.373  35.428  13.329
24437W        W92655  36.861  14.718  13.051
24438W        W92656  15.581  36.212   4.579
24439W        W92657  16.243  33.004  12.429
24440W        W92658   0.837  23.774  14.410
24441W        W92659   7.105  41.428  13.558
24442W        W92660   2.158  35.090   3.189
24443W        W92661  15.680  16.028  12.692
24444W        W92662   0.281   9.139   2.378
24445W        W92663   8.843  38.430  14.781
24446W        W92664  31.478  13.516  10.660
24447W        W92665  41.224  43.624   3.764
24448W        W92666  29.617  11.371  12.054
24449W        W92667  34.431  10.395  12.123
24450W        W92668  34.542   2.695   1.396
24451W        W92669  24.229   3.315  12.473
24452W        W92670  19.894   1.391  11.795
24453W        W92671  37.634   5.778  11.353
24454W        W92672  13.304  25.582  14.899
24455W        W92673  30.945   2.233  13.400
24456W        W92674  25.503   3.936  11.072
24457W        W92675  16.086  14.256  14.883
24458W        W92676   0.471  28.469   1.238
24459W        W92677  16.351  22.732   1.325
24460W        W92678  11.603  19.618  12.106
24461W        W92679   3.484  38.965   4.094
24462W        W92680  27.232  34.040  12.455
24463W        W92681  18.298  42.262  13.385
24464W        W92682  37.967  35.598   4.612
24465W        W92683   3.639  17.243  12.075
24466W        W92684   4.351  42.379  10.259
24467W        W92685   9.354  10.711   4.596
24468W        W92686  42.935  18.565   1.340
24469W        W92687  27.450  19.138  12.928
24470W        W92688   0.995  24.061   3.164
24471W        W92689  44.233  33.171  12.993
24472W        W92690  38.535   6.089  11.096
24473W        W92691  32.222  13.127  11.549
24474W        W92692  31.652   8.887   2.854
24475W        W92693  22.507  26.918   0.836
24476W        W92694  21.504   1.931   5.093
24477W        W92695   7.119  26.016   0.445
24478W        W92696  20.714  37.802   9.940
24479W        W92697   9.114  41.815  14.845
24480W        W92698   4.461  41.603   3.557
24481W        W92699  20.259  30.100  11.116
24482W        W92700  11.618  28.787   4.929
24483W        W92701  38.520  26.103   2.471
24484W        W92702  40.912  42.886   1.954
24485W        W92703  33.966   3.412  14.017
24486W        W92704  43.803  43.534   3.413
24487W        W92705  10.405   0.401   3.820
24488W        W92706  11.322   4.248  13.282
24489W        W92707  36.099  35.831  13.034
24490W        W92708  39.595   2.781   0.955
24491W        W92709  11.875   1.198  12.341
24492W        W92710   9.471   3.749  14.405
24493W        W92711   5.739   0.796  14.558
24494W        W92712  24.025  32.426  12.296
24495W        W92713  27.621  36.312  11.050
24496W        W92714   4.682  25.958   1.274
24497W        W92715  37.226   8.657  12.996
24498W        W92716  16.501  36.563   4.155
24499W        W92717  31.532   6.371  14.203
24500W        W92718  24.775  24.118  13.735
24501W        W92719  37.566  28.315  12.500
24502W        W92720  33.901  24.274   2.426
24503W        W92721  34.960  39.113   0.850
24504W        W92722   0.247  15.850  13.019
24505W        W92723  39.681   1.905  14.261
24506W        W92724  34.357  36.598   0.308
24507W        W92725   7.146   6.874  11.582
24508W        W92726  38.901  24.982   3.736
24509W        W92727   4.741   9.639  14.298
24510W        W92728  39.215  39.468   4.771
24511W        W92729  11.637  34.461   0.635
24512W        W92730  28.609  38.618   1.048
24513W        W92731  20.230   5.868   0.057
24514W        W92732  27.037  38.025   0.398
24515W        W92733  18.092  27.050  13.789
24516W        W92734  38.849   4.788   5.088
24517W        W92735  26.990   7.640   3.826
24518W        W92736   1.104  31.960  11.945
24519W        W92737  12.752   4.696   0.105
24520W        W92738  25.561  42.857   1.076
24521W        W92739   9.233  37.308  14.715
24522W        W92740  20.316  22.832   1.391
24523W        W92741  27.860   4.451   4.230
24524W        W92742  36.623  10.136   1.206
24525W        W92743  24.727  42.059  13.031
24526W        W92744  12.707  19.885  12.965
24527W        W92745   7.034  26.227  11.105
24528W        W92746   4.706  38.829  13.777
24529W        W92747  16.344  32.719  10.607
24530W        W92748  10.210  27.731   3.257
24531W        W92749  19.097  33.028   0.290
24532W        W92750  19.678  21.733   1.001
24533W        W92751  16.128   4.257   0.928
24534W        W92752   8.342  32.814  13.051
24535W        W92753  36.143   3.911  11.886
24536W        W92754   0.534  25.565  14.988
24537W        W92755  24.919  22.209   1.159
24538W        W92756  24.176  12.026  13.567
24539W        W92757  37.419  32.790  11.663
24540W        W92758  19.154  29.857   0.870
24541W        W92759  11.672   1.822  11.490
24542W        W92760  17.741  34.334  12.959
24543W        W92761  13.873  10.210   3.736
24544W        W92762   1.988   6.300   1.393
24545W        W92763   2.425  23.238   3.303
24546W        W92764  15.676  17.874   0.896
24547W        W92765   2.034  25.991   2.155
24548W        W92766   5.606  12.076  11.957
24549W        W92767  29.163   9.695   2.377
24550W        W92768  16.600   1.248  13.519
24551W        W92769   1.182  39.736  11.978
24552W        W92770  35.054  18.990   4.140
24553W        W92771  42.712  29.936   4.215
24554W        W92772   8.370  15.389   1.333
24555W        W92773   9.807  39.916   4.823
24556W        W92774   1.469  38.842  12.825
24557W        W92775  38.892  25.097  13.545
24558W        W92776   8.956  10.723   4.950
24559W        W92777  12.324  32.646  13.354
24560W        W92778  23.530   4.861  14.516
24561W        W92779  16.213  21.933   4.794
24562W        W92780  28.984  38.392   1.800
24563W        W92781  15.530  27.075  13.831
24564W        W92782   3.830   4.505   3.824
24565W        W92783  32.565   3.372   3.198
24566W        W92784   4.183  22.550  13.341
24567W        W92785  36.075  34.382  13.986
24568W        W92786  23.521  15.549  10.778
24569W        W92787  11.112  13.756   4.747
24570W        W92788  38.342  22.945   1.382
24571W        W92789  36.100   7.310   0.037
24572W        W92790  28.636  17.312  11.053
24573W        W92791  13.867  27.918  14.875
24574W        W92792  12.294   0.064  13.467
24575W        W92793  22.034  19.657   1.226
24576W        W92794  16.998  41.923   4.786
24577W        W92795  33.850  12.325  13.280
24578W        W92796  21.330  11.212   4.485
24579W        W92797  20.356   4.384  13.985
24580W        W92798  31.439  30.959  13.388
24581W        W92799   6.109  43.334  12.860
24582W        W92800  10.282  18.526   1.303
24583W        W92801   4.514  35.946  13.571
24584W        W92802  38.697  34.043  10.402
24585W        W92803  28.596  38.418   2.808
24586W        W92804  24.220   9.369  14.643
24587W        W92805   4.667  36.502   2.793
24588W        W92806   0.077  41.052  12.099
24589W        W92807  23.685  13.848   2.817
24590W        W92808  25.046  40.636  11.108
24591W        W92809  31.979   7.461   0.892
24592W        W92810   8.637   3.287   1.964
24593W        W92811   8.272  29.569  14.036
24594W        W92812  36.318  30.922   2.335
24595W        W92813   5.945  28.521   0.566
24596W        W92814  15.165  18.187   1.894
24597W        W92815  21.760  38.503  13.084
24598W        W92816  25.686  37.814  14.946
24599W        W92817  23.070  36.051   1.924
24600W        W92818  29.193  42.249   2.388
24601W        W92819  32.365  34.073  13.933
24602W        W92820  31.125  14.812  11.889
24603W        W92821  17.206  41.851   3.454
24604W        W92822  38.819  19.167  13.445
24605W        W92823   4.195  42.383  11.116
24606W        W92824  33.499  43.685  11.143
24607W        W92825   3.887  29.697   2.641
24608W        W92826  20.140  29.848  10.674
24609W        W92827  21.475   8.052   1.187
24610W        W92828   7.642  37.902   4.444
24611W        W92829  24.505   0.548   0.804
24612W        W92830  21.869  27.803   2.754
24613W        W92831   3.768  24.968  12.909
24614W        W92832  44.982  43.317   4.965
24615W        W92833  42.547  44.941  13.552
24616W        W92834  30.568  35.829  14.726
24617W        W92835   5.472  41.770  14.377
24618W        W92836  34.365  24.581  12.971
24619W        W92837  31.093  40.290   3.056
24620W        W92838  21.158  27.208  14.360
24621W        W92839   5.262  12.628   4.522
24622W        W92840  21.590  14.400  11.928
24623W        W92841  19.727  40.886  13.358
24624W        W92842  42.567  22.132  13.063
24625W        W92843  26.881  44.899   2.832
24626W        W92844  16.805   0.354  11.395
24627W        W92845  44.995  24.254   0.814
24628W        W92846  24.103   6.974   3.063
24629W        W92847  13.171  25.435   1.664
24630W        W92848  16.275  18.804  14.864
24631W        W92849   5.679  39.942   2.754
24632W        W92850   5.459  25.675   3.811
24633W        W92851   9.111  39.560   0.273
24634W        W92852  12.168  25.109   1.817
24635W        W92853  36.507   3.353  13.520
24636W        W92854   0.451  28.972  13.744
24637W        W92855  11.029  14.545   1.433
24638W        W92856  17.657  14.787   3.670
24639W        W92857  19.438  24.992   2.444
24640W        W92858   2.217  34.185  13.056
24641W        W92859  25.199  12.681  13.057
24642W        W92860  37.523   4.663   4.524
24643W        W92861   4.158  41.397   9.734
24644W        W92862  19.493  24.574   1.364
24645W        W92863  42.824   1.584  12.231
24646W        W92864  13.871  44.076  12.067
24647W        W92865  10.975  30.236   1.405
24648W        W92866  32.378  36.404  13.500
24649W        W92867  40.135  20.061   3.624
24650W        W92868  33.601  41.743  13.488
24651W        W92869  37.490  33.015   2.301
24652W        W92870  19.795  19.199   2.252
24653W        W92871  16.164  14.176  12.143
24654W        W92872  17.967  38.522  11.616
24655W        W92873  20.128  14.247   2.165
24656W        W92874  35.822  28.779   4.264
24657W        W92875   5.659  23.808   1.333
24658W        W92876   6.673  42.099   3.256
24659W        W92877   0.755  40.352   4.100
24660W        W92878  30.536  14.922   5.091
24661W        W92879  42.756  44.589  10.725
24662W        W92880  28.858  35.305  11.162
24663W        W92881  16.378   0.569   4.302
24664W        W92882   3.472  10.352   0.960
24665W        W92883  14.561  13.739  10.632
24666W        W92884   2.317   2.378   0.347
24667W        W92885  25.150  40.000  11.206
24668W        W92886  18.268  32.631   1.357
24669W        W92887   5.873  39.936   2.270
24670W        W92888  17.111  44.401   5.027
24671W        W92889  14.043  33.061   2.340
24672W        W92890   5.103  29.052   0.483
24673W        W92891  16.842  29.035   4.150
24674W        W92892  12.568  12.390  11.822
24675W        W92893  29.992  14.638   0.441
24676W        W92894  32.119   9.166  14.695
24677W        W92895   6.130  43.503   4.508
24678W        W92896  16.844   9.547  11.621
24679W        W92897   9.350  10.408   5.020
24680W        W92898   0.860  20.479   3.142
24681W        W92899  12.273  19.594  12.956
24682W        W92900  24.591  13.788   1.318
24683W        W92901   3.448  19.000   2.785
24684W        W92902   6.107  29.941   1.486
24685W        W92903  22.978   1.783   5.203
24686W        W92904  35.073  29.456   3.609
24687W        W92905  23.147  12.874   1.259
24688W        W92906  20.236  18.677   0.022
24689W        W92907  36.466  29.995   0.489
24690W        W92908  12.817   2.189   0.462
24691W        W92909  31.058  37.990  12.271
24692W        W92910  30.059  17.524   2.108
24693W        W92911  36.980  20.646  13.949
24694W        W92912   9.252  36.302  14.944
24695W        W92913  28.610  15.791   0.007
24696W        W92914   5.644  13.619  10.581
24697W        W92915  28.838  35.324   1.226
24698W        W92916  28.168   7.605   3.847
24699W        W92917  16.049  37.883  12.120
24700W        W92918  10.163  26.222   0.367
24701W        W92919  39.251  23.983   3.665
24702W        W92920  27.659  12.785   3.126
24703W        W92921   0.367   1.880   4.336
24704W        W92922  24.395   7.217  13.855
24705W        W92923  26.765  18.794  11.547
24706W        W92924  28.852   6.295  10.107
24707W        W92925  30.039  36.924  12.237
24708W        W92926  30.100  30.842   1.927
24709W        W92927   5.013  43.575  11.084
24710W        W92928  36.294  28.730   9.663
24711W        W92929  36.123   6.302   3.277
24712W        W92930  37.016  34.935  10.579
24713W        W92931  15.690  39.354  14.861
24714W        W92932  33.925  11.706  11.579
24715W        W92933  17.333  40.118  10.544
24716W        W92934   4.187  12.608  13.914
24717W        W92935  12.597  22.734  12.823
24718W        W92936  41.540  14.311   0.836
24719W        W92937  11.356  11.747   1.809
24720W        W92938  33.626   2.437  13.430
24721W        W92939  37.417   0.224  11.324
24722W        W92940  36.610  44.790  13.927
24723W        W92941  23.150  16.391  14.278
24724W        W92942  39.759  22.962  13.948
24725W        W92943  21.114  27.226   2.829
24726W        W92944   1.222  29.481  13.397
24727W        W92945  29.627   4.958   1.357
24728W        W92946  34.477  40.534   1.939
24729W        W92947  13.090  23.629  14.484
24730W        W92948  28.699  31.384   0.441
24731W        W92949   4.140  15.966   0.171
24732W        W92950   1.725  18.268  11.069
24733W        W92951  32.153  24.279  12.867
24734W        W92952   4.989  30.442  10.563
24735W        W92953  44.196   3.262  13.077
24736W        W92954  37.267  37.754   0.963
24737W        W92955  29.089  24.193  13.950
24738W        W92956  27.121   9.352  14.910
24739W        W92957   1.258  18.750   4.735
24740W        W92958  19.696  31.306   4.330
24741W        W92959  33.553   3.266  12.867
24742W        W92960  10.550  33.431   5.388
24743W        W92961  39.757   1.679  10.699
24744W        W92962  33.307   2.024  11.661
24745W        W92963  17.838  12.888  14.623
24746W        W92964   2.292  40.122   1.756
24747W        W92965  23.130  39.577  14.470
24748W        W92966   8.138  44.480   2.890
24749W        W92967  43.504  36.664   4.817
24750W        W92968  23.718  31.920   1.857
24751W        W92969   9.907  21.749  13.477
24752W        W92970  35.019  26.684   2.116
24753W        W92971  18.727  39.600   4.859
24754W        W92972  14.678  34.730   2.253
24755W        W92973   2.336  34.374   4.355
24756W        W92974  32.464  37.716  12.527
24757W        W92975  11.276   8.710   4.666
24758W        W92976  26.164  44.899  14.988
24759W        W92977   3.806   8.596   3.756
24760W        W92978  43.415  29.949  12.618
24761W        W92979  10.647  33.357  11.015
24762W        W92980  22.780  21.546  10.982
24763W        W92981   9.814  12.326  10.574
24764W        W92982  25.694  38.326  13.491
24765W        W92983  38.919  14.875   2.750
24766W        W92984  38.116  36.136   3.444
24767W        W92985  11.989  23.510   1.248
24768W        W92986  42.890  35.864  14.640
24769W        W92987  40.867  27.608   2.898
24770W        W92988   4.587  25.655  14.281
24771W        W92989  26.466   7.209  11.497
24772W        W92990   6.416  33.426  13.893
24773W        W92991   4.200   9.564  11.612
24774W        W92992  16.054  18.659  13.354
24775W        W92993  10.077  20.826   1.858
24776W        W92994  27.867  17.343   4.483
24777W        W92995  32.782   0.829   1.657
24778W        W92996   4.904  25.557  10.737
24779W        W92997  20.036  26.101  10.418
24780W        W92998   9.899  30.041   3.394
24781W        W92999  44.778  35.329   5.132
24782W        W93000  31.958  44.925   1.181
24783W        W93001  28.421  39.062   1.925
24784W        W93002  43.600  24.789  13.834
24785W        W93003  30.396  17.741   1.243
24786W        W93004  41.010   3.424  13.578
24787W        W93005  39.588   4.175  12.553
24788W        W93006   5.476  35.805   0.306
24789W        W93007  29.125   0.329  12.961
24790W        W93008  24.347  29.990  14.728
24791W        W93009   2.006  21.959  10.752
24792W        W93010  23.648  39.747   4.524
24793W        W93011  26.577   0.301   2.624
24794W        W93012  29.619  21.731  12.869
24795W        W93013   8.802  27.641   0.910
24796W        W93014  33.043   8.374  13.875
24797W        W93015  29.657  14.770  13.946
24798W        W93016   9.814  10.250   2.616
24799W        W93017  22.681  20.106  10.687
24800W        W93018  17.164  11.797  14.592
24801W        W93019  15.830  39.734   0.204
24802W        W93020  38.028   9.908  11.911
24803W        W93021  15.849  31.798  10.977
24804W        W93022  39.298  42.193  10.585
24805W        W93023  28.138   7.141   0.770
24806W        W93024  38.653  32.937  12.370
24807W        W93025  26.088  17.697  13.375
24808W        W93026  13.646  25.102  11.190
24809W        W93027  39.759  42.187  13.445
24810W        W93028   9.282  11.154   4.850
24811W        W93029  32.721   0.451   4.711
24812W        W93030  39.080   2.761  13.910
24813W        W93031   2.910   0.552  11.008
24814W        W93032  10.068   9.871   3.921
24815W        W93033  15.141  28.005   3.594
24816W        W93034  33.081  19.078  14.939
24817W        W93035  34.120   1.867  14.949
24818W        W93036  33.976  39.334  14.467
24819W        W93037  29.385  28.408   0.597
24820W        W93038  37.883  28.861  13.032
24821W        W93039  28.260  38.079  13.344
24822W        W93040  32.491  27.979  11.970
24823W        W93041  25.046   7.384  12.409
24824W        W93042  12.579  17.726   2.407
24825W        W93043  37.557  15.214   3.412
24826W        W93044  28.453  30.507   5.012
24827W        W93045  33.436  31.583   4.558
24828W        W93046  11.830  25.218  12.486
24829W        W93047  18.167   3.805   2.871
24830W        W93048  20.896   4.001  11.392
24831W        W93049  25.466  40.820  12.914
24832W        W93050  11.316  11.898   3.228
24833W        W93051  42.894   1.019  13.129
24834W        W93052   1.828   8.421  11.226
24835W        W93053   5.575  18.922   1.103
24836W        W93054  36.253   2.139   3.202
24837W        W93055  37.187  43.897   1.959
24838W        W93056  37.457   2.259  14.024
24839W        W93057  20.308  42.703   5.002
24840W        W93058  11.992   5.287  10.734
24841W        W93059   1.727  33.163  14.990
24842W        W93060  27.329  15.644  12.504
24843W        W93061  17.108   8.381   0.787
24844W        W93062  42.892  11.941   4.156
24845W        W93063  39.406  23.490  12.357
24846W        W93064   5.230  24.276   0.065
24847W        W93065  34.089  36.324   4.773
24848W        W93066  23.415  31.286  11.989
24849W        W93067  27.966  40.855  13.172
24850W        W93068  28.144  20.635  10.296
24851W        W93069   1.870  14.234   1.768
24852W        W93070  16.835  15.849   0.725
24853W        W93071   6.119  26.564  10.652
24854W        W93072   3.344  33.191   3.075
24855W        W93073  32.600  27.576  11.634
24856W        W93074   1.518  40.071   4.183
24857W        W93075  40.540  23.563   0.386
24858W        W93076  12.172   2.333   1.011
24859W        W93077  21.961  23.540   3.654
24860W        W93078  44.422  40.446   2.312
24861W        W93079  11.789   8.706   0.960
24862W        W93080  11.144   4.791   0.438
24863W        W93081  32.148  31.889  11.444
24864W        W93082  30.395  31.596   4.121
24865W        W93083  23.987   0.461   1.688
24866W        W93084  24.018   4.286  14.835
24867W        W93085  17.167   3.924  11.575
24868W        W93086  10.565  12.886   3.679
24869W        W93087  25.504  38.072  12.546
24870W        W93088  21.582   0.512   3.996
24871W        W93089  31.499   6.729  10.580
24872W        W93090  36.031  16.117   4.144
24873W        W93091  40.977  40.839  12.131
24874W        W93092   6.306  31.986   0.327
24875W        W93093  33.135   1.412  14.910
24876W        W93094  42.773  43.722   2.290
24877W        W93095  10.229  26.274   2.287
24878W        W93096   8.847  36.968  14.551
24879W        W93097  28.498  18.693  12.155
24880W        W93098   0.487  17.642   0.329
24881W        W93099  26.124  39.718  11.674
24882W        W93100  42.451  10.118   1.864
24883W        W93101  16.374   9.850  12.459
24884W        W93102  34.156  40.895  12.039
24885W        W93103  10.692   1.095  12.398
24886W        W93104  41.532   0.227   0.436
24887W        W93105  17.967   5.749  11.871
24888W        W93106   8.209  15.930   3.197
24889W        W93107  35.053  34.533   3.832
24890W        W93108  21.548  24.672   1.199
24891W        W93109  34.359  41.470  14.584
24892W        W93110   8.170  39.998  14.911
24893W        W93111  26.512  13.257  10.643
24894W        W93112  23.690  31.904   1.091
24895W        W93113   9.404  28.156   0.018
24896W        W93114  16.023  18.673  11.486
24897W        W93115  23.732  10.641   3.650
24898W        W93116   8.661  37.534   3.283
24899W        W93117  11.134  41.074  14.520
24900W        W93118  35.807  33.974  11.258
24901W        W93119  26.537   1.101   0.013
24902W        W93120  25.670  10.335  13.957
24903W        W93121   9.647  26.567  10.753
24904W        W93122  31.037  25.160   0.984
24905W        W93123  37.340  43.041  11.149
24906W        W93124  19.024  22.251   3.311
24907W        W93125   2.716   0.334   4.692
24908W        W93126   8.769   6.797  12.858
24909W        W93127  20.274  22.530   4.291
24910W        W93128  28.092   4.373  14.897
24911W        W93129  25.643  11.133   1.879
24912W        W93130  44.942   3.853   1.766
24913W        W93131  41.033  41.237  13.453
24914W        W93132  11.815  30.075   1.734
24915W        W93133   1.011  44.249   1.645
24916W        W93134  22.449  43.098  11.465
24917W        W93135  32.929  23.762  14.944
24918W        W93136   6.409   4.859  12.885
24919W        W93137  27.081  33.099   1.654
24920W        W93138  35.955  29.867  13.428
24921W        W93139  11.624  27.507  14.381
24922W        W93140  29.870  16.717   1.794
24923W        W93141  23.677  36.270  12.937
24924W        W93142  18.256  10.278  13.889
24925W        W93143  41.361  38.583  11.634
24926W        W93144  28.279  37.440  10.958
24927W        W93145   5.139  37.186  11.601
24928W        W93146  22.928  41.943  12.365
24929W        W93147   6.861  27.566  13.586
24930W        W93148  41.374  27.121  12.063
24931W        W93149  38.213  35.469  11.958
24932W        W93150  14.296   9.584  14.384
24933W        W93151  35.083  36.085   0.853
24934W        W93152   8.796  22.520  11.105
24935W        W93153   7.333  14.085  10.279
24936W        W93154  16.069   1.459   2.304
24937W        W93155   6.747  37.549  10.730
24938W        W93156   5.886  24.380  11.321
24939W        W93157  13.839  23.475   3.816
24940W        W93158  28.624   4.058   5.431
24941W        W93159  40.916   9.482   3.595
24942W        W93160  28.149  12.273   0.503
24943W        W93161  33.900  33.559   1.422
24944W        W93162  27.567  12.128  10.854
24945W        W93163  41.932  18.073  11.848
24946W        W93164  44.382  37.092   0.776
24947W        W93165  16.364  18.701  11.982
24948W        W93166  39.909   7.482   0.276
24949W        W93167  12.326  41.301   2.829
24950W        W93168  38.343  19.052  14.793
24951W        W93169   2.749  14.296   0.919
24952W        W93170   1.722  17.251  10.722
24953W        W93171  36.037  39.385   1.620
24954W        W93172  24.111  12.683   4.570
24955W        W93173  44.053   0.543  12.072
24956W        W93174  37.571  38.358   3.132
24957W        W93175  13.393  19.197   3.797
24958W        W93176   5.015  32.351   1.525
24959W        W93177  31.979  27.947  14.994
24960W        W93178  27.323   4.320   1.392
24961W        W93179  30.711  16.181   1.478
24962W        W93180   1.868  14.867  13.522
24963W        W93181  27.627  18.539  10.412
24964W        W93182  40.282  11.679  13.332
24965W        W93183  13.140  31.721   1.488
24966W        W93184  21.583   8.381  11.159
24967W        W93185  27.959  16.105   1.758
24968W        W93186  16.193  28.344   0.820
24969W        W93187  34.333  11.819   1.774
24970W        W93188   2.663  19.579   4.702
24971W        W93189  16.308  14.710  12.690
24972W        W93190  20.455  34.582   0.966
24973W        W93191  18.633  44.251  13.750
24974W        W93192  36.463  24.774   4.171
24975W        W93193  21.185  28.671   3.955
24976W        W93194  36.864  33.148   1.577
24977W        W93195   2.865  27.036  10.595
24978W        W93196   7.457  15.271   2.425
24979W        W93197  22.292  28.484   1.233
24980W        W93198  41.489  15.612   4.557
24981W        W93199  37.451   8.073  14.494
24982W        W93200   4.629  10.147   2.265
24983W        W93201  27.063  30.529   4.532
24984W        W93202  14.661  40.435  11.397
24985W        W93203  13.674  43.223  14.351
24986W        W93204  13.853  30.971  11.108
24987W        W93205   2.779  29.193   4.921
24988W        W93206  15.531  37.986   2.746
24989W        W93207  22.075  36.441   2.927
24990W        W93208   8.298   6.943  12.628
24991W        W93209  10.219   6.447   2.660
24992W        W93210  39.947  27.074  10.734
24993W        W93211  43.421  19.329   1.267
24994W        W93212  36.589  12.039  13.806
24995W        W93213  23.643  15.083  12.123
24996W        W93214  23.104  28.596  13.908
24997W        W93215  41.806  28.684  11.551
24998W        W93216   8.790  32.769  13.767
24999W        W93217  37.810   5.435   4.581
25000W        W93218  43.008  13.332  12.436
25001W        W93219  29.150   1.615  14.373
25002W        W93220   0.431  32.597   1.450
25003W        W93221  20.038  43.468   2.824
25004W        W93222  10.865  13.601   0.326
25005W        W93223  23.703  31.384  14.804
25006W        W93224  13.340  35.746   2.370
25007W        W93225  29.243  16.359  11.127
25008W        W93226  26.909  10.149   3.597
25009W        W93227  27.868  17.672  11.502
25010W        W93228  27.139  18.984  11.145
25011W        W93229  10.329  40.495   2.927
25012W        W93230  37.426   4.265  14.885
25013W        W93231  16.683  20.654   2.385
25014W        W93232   4.493  41.947   1.543
25015W        W93233  16.009   3.387  12.135
25016W        W93234  25.510  29.061  13.035
25017W        W93235  43.789  16.071  11.128
25018W        W93236  37.862  14.159   2.183
25019W        W93237  28.122  38.983   2.335
25020W        W93238   3.847  41.091  10.010
25021W        W93239  31.194  38.599   0.008
25022W        W93240   8.637   9.603   3.440
25023W        W93241   5.916  14.327   3.865
25024W        W93242  13.379   6.203  14.824
25025W        W93243  12.685  17.132   4.246
25026W        W93244   6.702  39.990   1.798
25027W        W93245  15.596   7.673   0.292
25028W        W93246  14.330  27.152   0.088
25029W        W93247   9.149  39.037  10.532
25030W        W93248  40.303  21.460   4.483
25031W        W93249   6.613  30.529   2.584
25032W        W93250  35.873  13.897  12.514
25033W        W93251  33.126  28.338   3.165
25034W        W93252  10.360  40.343   0.200
25035W        W93253  33.499  25.599  12.201
25036W        W93254  36.189  33.661  11.072
25037W        W93255  25.463   2.570   2.355
25038W        W93256   7.282  33.355   1.899
25039W        W93257   4.383   5.167  10.731
25040W        W93258  11.136  39.947  13.113
25041W        W93259  30.219  35.818   4.187
25042W        W93260  42.875  27.188   3.650
25043W        W93261  28.653  25.195  10.244
25044W        W93262  22.713  23.326   1.778
25045W        W93263  16.611  32.861  11.125
25046W        W93264  40.411  28.073   4.951
25047W        W93265  14.648  38.012   2.755
25048W        W93266  32.999  32.716  14.469
25049W        W93267  23.066  43.966  12.569
25050W        W93268  29.426  20.235  12.967
25051W        W93269  18.245   0.869   3.276
25052W        W93270  17.236  15.601  11.789
25053W        W93271  43.215  12.669   0.162
25054W        W93272  17.986  27.520   2.930
25055W        W93273  37.285  19.454  11.824
25056W        W93274  18.783   9.330  13.861
25057W        W93275   4.237  39.938  13.580
25058W        W93276  32.083  14.111   1.405
25059W        W93277  34.045  23.806   1.204
25060W        W93278  30.857  22.109  13.812
25061W        W93279  16.631   0.472  11.869
25062W        W93280  24.172   4.710  12.138
25063W        W93281  40.326  36.999   2.268
25064W        W93282  12.084   6.141   4.044
25065W        W93283  30.937  20.548   4.711
25066W        W93284   1.048  35.820  11.211
25067W        W93285  19.726  26.879   0.883
25068W        W93286  29.891  36.967   4.795
25069W        W93287  42.988  36.763  12.008
25070W        W93288  10.427  18.708   1.753
25071W        W93289   0.586   9.720  11.163
25072W        W93290   0.090   7.475  13.794
25073W        W93291  16.234  20.245   2.936
25074W        W93292  28.605   4.675   2.332
25075W        W93293  26.909  11.611   2.743
25076W        W93294  27.617  26.767   4.085
25077W        W93295  31.139  40.969  12.080
25078W        W93296  31.337  27.142   2.017
25079W        W93297  44.552  36.090  12.032
25080W        W93298  38.800   2.793  11.645
25081W        W93299  34.527  33.826  14.836
25082W        W93300  32.144  38.755   0.201
25083W        W93301  28.428   3.239  12.397
25084W        W93302   7.898  28.640  12.044
25085W        W93303   9.235  38.349  12.530
25086W        W93304   8.055   9.609   0.831
25087W        W93305  34.773  43.300   4.998
25088W        W93306  38.310  31.531  11.147
25089W        W93307  20.542   5.590  12.241
25090W        W93308   7.088  18.249   4.598
25091W        W93309   6.802  23.549  11.675
25092W        W93310   0.873  26.367  11.637
25093W        W93311  27.833   1.363  13.096
25094W        W93312  38.703  28.924   3.145
25095W        W93313   9.948  13.189  14.388
25096W        W93314   3.121  44.024  13.492
25097W        W93315  25.022   4.401   4.603
25098W        W93316   3.876   0.286  13.884
25099W        W93317   0.248  22.539   2.645
25100W        W93318  42.917  15.491  11.125
25101W        W93319  35.962   2.395   0.181
25102W        W93320  28.144   9.812  12.010
25103W        W93321  30.673  21.048   0.773
25104W        W93322  20.572  24.239  12.043
25105W        W93323  26.188  21.043   0.715
25106W        W93324  29.562  16.245   2.137
25107W        W93325  23.243  18.612   2.806
25108W        W93326  38.869  33.136  11.903
25109W        W93327  18.145   5.286   2.860
25110W        W93328  17.081  41.686  12.589
25111W        W93329  37.645  16.408  10.536
25112W        W93330  32.549  27.770   3.944
25113W        W93331  33.560   1.773   1.627
25114W        W93332  10.339  24.895   1.965
25115W        W93333   2.291  36.945  11.969
25116W        W93334  14.912  34.930   0.219
25117W        W93335   2.685  26.585   4.685
25118W        W93336   3.747  41.359  10.971
25119W        W93337  27.720  33.972  12.195
25120W        W93338  24.182   0.771   2.375
25121W        W93339  13.080   8.172   0.726
25122W        W93340  11.489   3.303   5.118
25123W        W93341  34.583   6.783   4.099
25124W        W93342  22.126  20.508  13.700
25125W        W93343   3.820  12.283   3.702
25126W        W93344  12.374   8.646   0.486
25127W        W93345  19.904   3.002  10.687
25128W        W93346  40.527  42.913   9.556
25129W        W93347   5.386   4.717  13.318
25130W        W93348  16.960   5.459  13.542
25131W        W93349  27.243  18.518  14.313
25132W        W93350  18.275  15.495   1.767
25133W        W93351  32.011  14.629   3.205
25134W        W93352  28.554  32.339   2.055
25135W        W93353  40.209  19.290  11.031
25136W        W93354   8.587  17.625   2.610
25137W        W93355   3.958   9.736   2.689
25138W        W93356  32.441  13.678  12.760
25139W        W93357  33.905   4.926   1.331
25140W        W93358  40.473  12.658  10.736
25141W        W93359  25.558  30.483   0.014
25142W        W93360   8.649  43.928   3.871
25143W        W93361  11.134   7.680  14.595
25144W        W93362  33.853  35.925  12.166
25145W        W93363  39.602   7.390   4.710
25146W        W93364   3.383  24.520  13.826
25147W        W93365  35.537  36.095  12.428
25148W        W93366   7.279  18.058   1.802
25149W        W93367   3.704  17.637  10.544
25150W        W93368  10.490  32.292   0.405
25151W        W93369  23.499  35.512   0.438
25152W        W93370  44.969  10.981   0.244
25153W        W93371  14.613  42.960   4.136
25154W        W93372  16.521  42.042   4.661
25155W        W93373  32.010  25.666  14.886
25156W        W93374   1.350  23.285  14.972
25157W        W93375  29.111   9.435   2.899
25158W        W93376  31.814  30.572   3.824
25159W        W93377  36.158   5.790  13.849
25160W        W93378   6.187   0.515   1.335
25161W        W93379  32.460  43.248   0.730
25162W        W93380   0.396  11.250   3.246
25163W        W93381  15.417  34.885   0.131
25164W        W93382  30.387  13.522  14.515
25165W        W93383   4.333  38.102   1.015
25166W        W93384  20.340  29.420   3.675
25167W        W93385  11.691  21.477  10.500
25168W        W93386  28.826  35.092  10.272
25169W        W93387   5.086   0.489   3.661
25170W        W93388  34.356  44.556  10.763
25171W        W93389  15.285  10.343  12.036
25172W        W93390  42.704   6.181   4.251
25173W        W93391  15.576  39.411   4.218
25174W        W93392  35.942   2.234  12.744
25175W        W93393  25.468  38.183  11.260
25176W        W93394  43.431  31.061   1.760
25177W        W93395  32.033  32.033   1.208
25178W        W93396  33.571  33.714  10.845
25179W        W93397  28.358  36.905  11.715
25180W        W93398  16.584   7.330  12.018
25181W        W93399  20.442  33.458   1.284
25182W        W93400  41.152   1.380  14.692
25183W        W93401  27.706  30.138   2.389
25184W        W93402   8.800   8.107   1.793
25185W        W93403  35.646  24.974   3.615
25186W        W93404   2.986   1.969  14.823
25187W        W93405  26.601  38.961   3.239
25188W        W93406   9.733   5.195  14.431
25189W        W93407  35.800  13.226   1.715
25190W        W93408   0.288  10.630  12.199
25191W        W93409   3.872  11.187   1.382
25192W        W93410   6.897  13.829   2.802
25193W        W93411   2.396  33.254  13.531
25194W        W93412  34.899  38.261   4.394
25195W        W93413  33.276  20.628   4.444
25196W        W93414  35.586  29.981  11.148
25197W        W93415   3.907   1.711  12.364
25198W        W93416  21.132  15.542  13.909
25199W        W93417  30.183   8.910   3.564
25200W        W93418  30.354  17.677   5.362
25201W        W93419   5.438  10.785  14.305
25202W        W93420  43.522  31.954   1.856
25203W        W93421  40.056  44.734   0.354
25204W        W93422  18.170  38.407  13.563
25205W        W93423  23.867  31.403  12.859
25206W        W93424  44.581  30.677   3.735
25207W        W93425   5.857   5.765   3.677
25208W        W93426  12.228  13.119  13.315
25209W        W93427  21.820  24.597  13.257
25210W        W93428  34.899  41.549   3.680
25211W        W93429  13.596  29.555  10.983
25212W        W93430   3.183   7.428  13.087
25213W        W93431  11.213  15.490   4.345
25214W        W93432   5.149  36.155   3.595
25215W        W93433  39.753   0.831  13.797
25216W        W93434  26.059  39.492  12.160
25217W        W93435  25.749   1.204   2.738
25218W        W93436  17.077  41.694   1.347
25219W        W93437  37.064   2.871   3.344
25220W        W93438  19.747  37.992   0.988
25221W        W93439  23.670  31.992   3.837
25222W        W93440  28.143  39.547   1.249
25223W        W93441  21.785  26.948   0.509
25224W        W93442  11.066  20.611   4.766
25225W        W93443  42.784  25.665   1.802
25226W        W93444  20.318  16.584   3.289
25227W        W93445   7.602   1.801   1.224
25228W        W93446  14.200   0.389  13.155
25229W        W93447  21.713  38.206  10.633
25230W        W93448   0.827  23.440  13.995
25231W        W93449   5.913   5.448  14.983
25232W        W93450  14.509  26.564  14.418
25233W        W93451  34.835  23.508  14.801
25234W        W93452  38.923   3.143   1.241
25235W        W93453  39.492  36.517  14.370
25236W        W93454   8.686  14.221   4.509
25237W        W93455  37.724   2.730  14.794
25238W        W93456  15.794  42.046   1.340
25239W        W93457  39.333  11.449  13.346
25240W        W93458   1.978   2.878   3.217
25241W        W93459  32.369  26.041  10.550
25242W        W93460  23.927  38.330  13.883
25243W        W93461  13.789   9.896   4.197
25244W        W93462  14.388   6.504  12.586
25245W        W93463  11.850  13.543   0.349
25246W        W93464   7.501  19.097  13.511
25247W        W93465  18.636  32.499  11.533
25248W        W93466  14.548  11.553  12.637
25249W        W93467   1.074  35.568   2.402
25250W        W93468  28.902  19.981   3.292
25251W        W93469  17.871   3.305   0.244
25252W        W93470  26.257  42.687   3.828
25253W        W93471  31.920  17.204   4.539
25254W        W93472  36.821  30.037   3.288
25255W        W93473  14.404  17.190   0.826
25256W        W93474   1.246  14.831   4.188
25257W        W93475  13.777   3.265   0.513
25258W        W93476  24.264  31.494   0.359
25259W        W93477   7.145  34.785   2.913
25260W        W93478  24.037  40.563  12.029
25261W        W93479  16.346  15.776   0.539
25262W        W93480  24.532  17.814  14.000
25263W        W93481  11.739  26.467   1.963
25264W        W93482   4.713  32.596   0.538
25265W        W93483  20.455   2.011   4.242
25266W        W93484  36.139  32.336   0.905
25267W        W93485  20.962  41.745  12.430
25268W        W93486   2.828  35.686   0.972
25269W        W93487  28.047   4.052  11.596
25270W        W93488  20.294  42.518   2.720
25271W        W93489   0.091  30.985  12.438
25272W        W93490   9.845  37.458  12.126
25273W        W93491  27.357   4.844   5.003
25274W        W93492  15.839  25.628  13.808
25275W        W93493  35.541  11.122  12.947
25276W        W93494  14.682  19.584   3.987
25277W        W93495  18.763  12.795  10.901
25278W        W93496  32.639   6.168  12.430
25279W        W93497  39.615  17.558   3.810
25280W        W93498   5.740  12.734   2.848
25281W        W93499  31.766   2.506   3.691
25282W        W93500  16.558  31.575  14.433
25283W        W93501  34.250  33.072  13.730
25284W        W93502  26.134  29.147   4.128
25285W        W93503   0.384  23.518   1.544
25286W        W93504  41.218   8.018   3.419
25287W        W93505  22.240   9.054  11.470
25288W        W93506  19.948  28.258  12.011
25289W        W93507  31.926   8.264  10.787
25290W        W93508  42.736   6.264   2.342
25291W        W93509  31.460  33.392   4.728
25292W        W93510  33.147  29.912  14.845
25293W        W93511  19.830   3.376   0.859
25294W        W93512   1.294  29.664   2.328
25295W        W93513  36.164   4.939  10.703
25296W        W93514  29.704  26.561  14.706
25297W        W93515  31.754  34.903   1.230
25298W        W93516  43.284  18.812  14.959
25299W        W93517  13.783  12.160  12.507
25300W        W93518  30.898  17.878  12.374
25301W        W93519  38.817  20.123  14.891
25302W        W93520  44.495  44.373  13.551
25303W        W93521  29.329  26.930   1.327
25304W        W93522  17.290  40.636   0.667
25305W        W93523  23.292  15.916  12.551
25306W        W93524  18.778  14.259  10.303
25307W        W93525  39.350  41.732   2.260
25308W        W93526  32.963   2.876   1.143
25309W        W93527  23.235   2.545   3.231
25310W        W93528  34.533  28.149   1.309
25311W        W93529  11.870  15.055  10.659
25312W        W93530  20.337  17.951  13.379
25313W        W93531  10.424  11.793   1.859
25314W        W93532  16.609  27.552   4.349
25315W        W93533  42.263  33.016   1.915
25316W        W93534  12.845  10.635  13.674
25317W        W93535  12.611  20.206   1.967
25318W        W93536  31.575  16.067  10.103
25319W        W93537  37.778  18.750  11.165
25320W        W93538  26.256  24.435   4.109
25321W        W93539  13.162  28.689  10.611
25322W        W93540  18.698  35.014   4.649
25323W        W93541  32.468  44.051   1.294
25324W        W93542  43.464   6.838  12.582
25325W        W93543  16.162  17.537  10.598
25326W        W93544  13.837  32.539  12.476
25327W        W93545   8.244   7.291   0.930
25328W        W93546  25.694   1.860  14.766
25329W        W93547  17.066  26.432  14.871
25330W        W93548  32.167   6.635   3.127
25331W        W93549  39.222  29.877  14.030
25332W        W93550  33.607  24.277  12.344
25333W        W93551  34.538   0.467   1.904
25334W        W93552  33.046  32.099   0.031
25335W        W93553  42.439  38.120   0.798
25336W        W93554  26.644  26.622   4.753
25337W        W93555   1.240  36.381   1.400
25338W        W93556  11.717  23.760   1.604
25339W        W93557  33.826   4.780  10.224
25340W        W93558  15.990  29.687  12.597
25341W        W93559  38.982  38.059  14.842
25342W        W93560  26.551  29.648  10.601
25343W        W93561  24.427   0.459   4.144
25344W        W93562  19.576  37.620  14.641
25345W        W93563  31.889  12.361   2.723
25346W        W93564  18.993  42.519  12.070
25347W        W93565  25.766  13.176   2.209
25348W        W93566  11.613  31.212  12.361
25349W        W93567  18.617  32.271  14.865
25350W        W93568  37.600  32.011  12.466
25351W        W93569  43.654   0.459  11.186
25352W        W93570   9.221  31.633   1.477
25353W        W93571   9.099  12.695   5.061
25354W        W93572  33.810  30.559   3.625
25355W        W93573  32.458   7.625   0.198
25356W        W93574  21.396  35.372  14.510
25357W        W93575  34.376  24.190   1.160
25358W        W93576  37.721   4.662   0.572
25359W        W93577  12.177  28.773  13.448
25360W        W93578  38.322  42.935  13.896
25361W        W93579  24.916   0.003   2.713
25362W        W93580  38.471  30.081  12.001
25363W        W93581   4.749  42.848   3.388
25364W        W93582  39.571  41.531  11.356
25365W        W93583  41.602  17.061  13.387
25366W        W93584  23.215  25.706   0.310
25367W        W93585  26.412  28.558   2.215
25368W        W93586  17.102  25.466   3.731
25369W        W93587  39.596   1.937  12.066
25370W        W93588   6.419   5.274   2.206
25371W        W93589   8.700  12.939   0.199
25372W        W93590  44.444  32.018   5.077
25373W        W93591  38.619  26.031  11.214
25374W        W93592  10.625  44.855  11.560
25375W        W93593  42.722  16.937   2.204
25376W        W93594  12.478   9.439   4.909
25377W        W93595  27.445  26.957   1.806
25378W        W93596  11.907  44.444   3.750
25379W        W93597   7.443  15.240  14.943
25380W        W93598  16.090  19.393  10.837
25381W        W93599  20.510  24.630   3.096
25382W        W93600  38.815  44.748   3.904
25383W        W93601  25.144  24.538  12.870
25384W        W93602  25.901   6.621  10.408
25385W        W93603  33.783  23.639  12.951
25386W        W93604   0.882   4.119  10.707
25387W        W93605  44.131  36.120   3.759
25388W        W93606  30.328   7.205   4.733
25389W        W93607  44.467  40.805   4.240
25390W        W93608   4.767  12.863   4.548
25391W        W93609   1.545  14.551   2.724
25392W        W93610  30.089  10.275  11.019
25393W        W93611  26.449  29.962  13.656
25394W        W93612  20.284  10.599  13.801
25395W        W93613   2.810  15.628  12.971
25396W        W93614  43.243  43.957   0.868
25397W        W93615  31.698  11.049   3.728
25398W        W93616  19.060  16.314   4.546
25399W        W93617  26.624  29.101  10.625
25400W        W93618  14.350  23.563   1.488
25401W        W93619   7.347  26.171   3.760
25402W        W93620  20.545   0.389  12.433
25403W        W93621  37.019  33.699   1.325
25404W        W93622   0.754   2.457  12.097
25405W        W93623  29.690  19.828   3.697
25406W        W93624  31.723  16.631   2.703
25407W        W93625  44.799  28.932  10.721
25408W        W93626   2.482   5.323  13.346
25409W        W93627   9.206   6.588  14.334
25410W        W93628  17.612   5.802  10.691
25411W        W93629  26.685  42.125  11.689
25412W        W93630  34.411  18.803  12.906
25413W        W93631  33.489   2.925   2.698
25414W        W93632  10.975  40.808   2.436
25415W        W93633   9.297  26.377  13.008
25416W        W93634  24.727  41.726   1.396
25417W        W93635  35.027  34.369   1.333
25418W        W93636  18.792  22.021   3.695
25419W        W93637  31.846  30.993  10.486
25420W        W93638   7.462   3.055   1.391
25421W        W93639  44.746  28.481  12.505
25422W        W93640  32.924  22.021   4.542
25423W        W93641  13.377   1.336   0.377
25424W        W93642  30.884  10.950   4.530
25425W        W93643  17.758  11.313   4.549
25426W        W93644  18.240  21.991  13.650
25427W        W93645  23.610  28.125   2.005
25428W        W93646  31.863  28.104   2.146
25429W        W93647  30.692  25.853   3.905
25430W        W93648  29.193  33.709  13.438
25431W        W93649   0.500  40.998  12.948
25432W        W93650  36.539  37.235   0.890
25433W        W93651   1.376  37.534  11.403
25434W        W93652  15.897   3.817   1.094
25435W        W93653  20.163  16.551  13.002
25436W        W93654  13.276  15.614   3.276
25437W        W93655  42.321  27.056   1.726
25438W        W93656  38.354   6.835   4.581
25439W        W93657  37.015  36.105  13.473
25440W        W93658   9.458  36.495  10.843
25441W        W93659  30.687   1.278   0.915
25442W        W93660  36.487  18.502  11.238
25443W        W93661  12.821  19.555  11.202
25444W        W93662  42.965  21.041   0.789
25445W        W93663   9.173   1.439  11.954
25446W        W93664   5.362   4.296  14.913
25447W        W93665  27.281  19.739   2.064
25448W        W93666  38.067  16.704  12.582
25449W        W93667  34.556  17.020   2.342
25450W        W93668   0.815  21.550   3.154
25451W        W93669  38.289   5.938   0.351
25452W        W93670  44.759  37.432   4.385
25453W        W93671   3.686  30.640   4.586
25454W        W93672   5.740   4.898   0.973
25455W        W93673   8.643  16.106  10.937
25456W        W93674  21.032  36.545   4.715
25457W        W93675  37.530  29.508  14.794
25458W        W93676  42.896  25.448  14.548
25459W        W93677  11.477  31.177   2.129
25460W        W93678  29.591  40.229   1.422
25461W        W93679   3.945  37.606   3.153
25462W        W93680  24.682   1.306  14.900
25463W        W93681  23.707  29.254  11.858
25464W        W93682  17.555  10.926   1.737
25465W        W93683   2.522  18.124   3.310
25466W        W93684  14.147  21.800  14.521
25467W        W93685  38.445  26.536  12.991
25468W        W93686  30.407  14.478  12.851
25469W        W93687   8.683  18.596  11.177
25470W        W93688  21.212  36.438   5.193
25471W        W93689   7.951  30.842   4.085
25472W        W93690  24.656  32.037   1.994
25473W        W93691  43.064  26.397   3.210
25474W        W93692  25.187  13.810  14.041
25475W        W93693  37.372  23.053  13.473
25476W        W93694  15.570  29.257   3.164
25477W        W93695  14.671  24.687   4.111
25478W        W93696  10.239  14.731   0.981
25479W        W93697  17.498  26.831  13.484
25480W        W93698  38.749   3.797   0.100
25481W        W93699  33.285  31.686  10.016
25482W        W93700  32.585  38.007  11.667
25483W        W93701  25.395  42.760   3.200
25484W        W93702  25.074  28.926  10.605
25485W        W93703  27.936   3.355   2.335
25486W        W93704  27.194  27.432   2.254
25487W        W93705  40.585  33.874   0.329
25488W        W93706  18.750  30.071  10.745
25489W        W93707  25.402   9.215   0.574
25490W        W93708  39.645  44.913  11.105
25491W        W93709   2.405  40.303   2.428
25492W        W93710  25.230  22.082   2.556
25493W        W93711  19.767  10.884  12.917
25494W        W93712   8.661  36.900   1.847
25495W        W93713  37.886  29.878  13.822
25496W        W93714  35.811  17.711  10.739
25497W        W93715   2.457  16.577   1.438
25498W        W93716  35.110   4.029  14.535
25499W        W93717  33.863  42.355  12.027
25500W        W93718  39.330   6.662  12.084
25501W        W93719   7.818  19.841   5.025
25502W        W93720   9.987  44.533   3.407
25503W        W93721  21.006  14.969   2.870
25504W        W93722   7.992  14.322  10.767
25505W        W93723  39.798  13.396   0.910
25506W        W93724  15.688  14.143  12.349
25507W        W93725  26.936  17.225   0.975
25508W        W93726  15.209  43.538  14.000
25509W        W93727  12.591   4.862   2.277
25510W        W93728  39.810  44.770   3.286
25511W        W93729   6.637  11.851   4.844
25512W        W93730  41.917  14.202   2.554
25513W        W93731  29.186  25.897  11.208
25514W        W93732  41.142  40.179   0.203
25515W        W93733  21.564  25.002   2.419
25516W        W93734  23.797  13.092   3.325
25517W        W93735  35.396  19.167   4.494
25518W        W93736  10.287  25.396  14.998
25519W        W93737  30.068   4.828   4.417
25520W        W93738  42.245  29.707   4.223
25521W        W93739  34.438  43.980  12.882
25522W        W93740   7.382  21.573   3.714
25523W        W93741  10.229  25.079  14.430
25524W        W93742  44.937   1.731  13.380
25525W        W93743  41.475  33.677  11.488
25526W        W93744   4.189  23.725   1.426
25527W        W93745  26.971  10.641   1.884
25528W        W93746  12.205  25.194   2.901
25529W        W93747  39.291   7.245  12.660
25530W        W93748  22.451  26.275   1.789
25531W        W93749  28.469  35.835   0.381
25532W        W93750  42.826  20.026   2.123
25533W        W93751  22.281  29.223   0.325
25534W        W93752  22.577  30.469   2.552
25535W        W93753  15.788  16.520   0.904
25536W        W93754  40.868  41.014  13.885
25537W        W93755   1.864  30.355   3.244
25538W        W93756   1.338  41.842   2.205
25539W        W93757  42.326  36.066   4.011
25540W        W93758  24.504   0.389  12.063
25541W        W93759   1.294  28.612  13.800
25542W        W93760  29.584  36.869   0.439
25543W        W93761  44.591  22.224  12.848
25544W        W93762   7.784   3.470  10.898
25545W        W93763  37.289  12.164  12.127
25546W        W93764  16.556  32.475   1.838
25547W        W93765  33.556  34.766   0.847
25548W        W93766  34.698  17.501   2.384
25549W        W93767  29.598  37.838   3.343
25550W        W93768  42.000  17.140  14.860
25551W        W93769  32.994  20.110  14.081
25552W        W93770  42.937  33.886   2.754
25553W        W93771   4.327  18.057  10.989
25554W        W93772  27.947  16.772  10.920
25555W        W93773   9.108  29.442  14.726
25556W        W93774  19.596  42.241   2.168
25557W        W93775  19.976  24.973   4.251
25558W        W93776  30.094   5.432  11.186
25559W        W93777  37.951  29.896  14.759
25560W        W93778  22.234  34.869   0.872
25561W        W93779   9.282  14.371  12.123
25562W        W93780   0.283  27.064  14.315
25563W        W93781  20.167  15.297  11.526
25564W        W93782  20.079  41.833  13.934
25565W        W93783  10.201  23.571  10.708
25566W        W93784  33.463  16.544  11.361
25567W        W93785   6.640  34.136  14.314
25568W        W93786  35.900  34.968  12.599
25569W        W93787  22.846  32.421   0.840
25570W        W93788  22.386  30.827   4.897
25571W        W93789  43.034  23.962  11.255
25572W        W93790  27.441  44.172   1.645
25573W        W93791  25.947  35.853   3.875
25574W        W93792  31.369  43.296   3.304
25575W        W93793  11.778  22.794  11.041
25576W        W93794  11.849   1.816  12.849
25577W        W93795  17.515   5.711   0.752
25578W        W93796  26.150  26.166  14.234
25579W        W93797   6.423  25.301  14.376
25580W        W93798   8.274  24.035   4.845
25581W        W93799  13.285  39.048   0.816
25582W        W93800  27.362  32.104  12.182
25583W        W93801  43.459  17.889  11.078
25584W        W93802  21.469  29.561   1.626
25585W        W93803   5.993  16.053   2.668
25586W        W93804  26.621  38.072   0.747
25587W        W93805  37.644  17.457  11.130
25588W        W93806  42.371  13.236   1.138
25589W        W93807  38.484  30.940  10.477
25590W        W93808   9.740  38.822  14.607
25591W        W93809  16.783  30.173  13.056
25592W        W93810  37.790   8.798   1.202
25593W        W93811  27.561   2.738   3.847
25594W        W93812  40.344  42.051  11.549
25595W        W93813  40.301  14.281   3.053
25596W        W93814  24.547  13.088  14.536
25597W        W93815  44.906  14.941  14.944
25598W        W93816   4.469  40.934   4.085
25599W        W93817  15.294  43.266   2.586
25600W        W93818  29.389  44.989   4.101
25601W        W93819  23.873  33.411   2.800
25602W        W93820   4.336   3.893   3.855
25603W        W93821   6.312  44.939  10.181
25604W        W93822   1.098  43.486   3.554
25605W        W93823  18.289   4.203  11.123
25606W        W93824  42.727  17.272   0.380
25607W        W93825  25.524   9.321   4.736
25608W        W93826  25.093  12.377  13.461
25609W        W93827  37.986  15.141   2.605
25610W        W93828  25.146  21.147  10.360
25611W        W93829   5.679  12.198   3.618
25612W        W93830  14.057  39.094   1.773
25613W        W93831  28.403  13.743   3.138
25614W        W93832  11.966  22.958   2.789
25615W        W93833  28.755  18.191  14.094
25616W        W93834  12.125  23.289   2.412
25617W        W93835  19.772  25.105  13.011
25618W        W93836  31.649  19.773  11.693
25619W        W93837   9.507   0.305   3.111
25620W        W93838   8.722   3.463   2.886
25621W        W93839   5.825  15.324  11.006
25622W        W93840  44.287  42.407  12.897
25623W        W93841   5.357  27.063   4.487
25624W        W93842   7.805  34.144  12.522
25625W        W93843  22.745  17.021  12.018
25626W        W93844  12.204  11.208  12.976
25627W        W93845   5.233  12.445  10.692
25628W        W93846  15.984   8.263   2.780
25629W        W93847  41.524  43.911   3.197
25630W        W93848  11.341   6.291  11.077
25631W        W93849  33.834  37.622  10.490
25632W        W93850  15.091  25.377   4.875
25633W        W93851   4.651  21.037   1.458
25634W        W93852  20.564  41.880   2.874
25635W        W93853  27.933  34.630  13.689
25636W        W93854  40.787   3.282   4.202
25637W        W93855  41.585  37.769  11.991
25638W        W93856  29.133  18.497   3.745
25639W        W93857  26.661   4.338   4.779
25640W        W93858   2.218   1.975   3.699
25641W        W93859  35.175  15.480  12.010
25642W        W93860   0.528  27.708  13.311
25643W        W93861  28.264  37.897  12.832
25644W        W93862   3.876  19.075   1.394
25645W        W93863  18.569  40.524   4.195
25646W        W93864  32.024   7.679   4.963
25647W        W93865  17.613   8.781  13.044
25648W        W93866   1.510  40.477   2.361
25649W        W93867  35.925  31.684  11.269
25650W        W93868  41.535   6.975   2.624
25651W        W93869  43.737  34.127   1.236
25652W        W93870  42.522  28.901   1.325
25653W        W93871  32.664   7.241  11.617
25654W        W93872  14.202  36.458  14.113
25655W        W93873  35.639  31.059   3.691
25656W        W93874  39.833  40.019   2.044
25657W        W93875  14.389  15.422  11.912
25658W        W93876  17.095   8.705  12.974
25659W        W93877  38.842  11.285   0.370
25660W        W93878  40.071  25.515  12.355
25661W        W93879  40.608  37.085   2.664
25662W        W93880  31.248   5.905   9.801
25663W        W93881  36.015  35.043   0.796
25664W        W93882   4.709   7.072   2.318
25665W        W93883  40.908  33.195   3.557
25666W        W93884  29.084   5.429  13.534
25667W        W93885  10.233  37.479   1.412
25668W        W93886  29.457  42.434   3.666
25669W        W93887  34.414  10.908   3.644
25670W        W93888  10.978  11.777  12.177
25671W        W93889  30.783  40.975   2.920
25672W        W93890  37.645   1.519   4.599
25673W        W93891  30.425  28.535   2.401
25674W        W93892  29.438  39.283   4.096
25675W        W93893  27.676  31.401  13.844
25676W        W93894  18.789  14.586  12.011
25677W        W93895   5.330   3.302   4.102
25678W        W93896  15.092  11.057   4.317
25679W        W93897  44.037  25.823   2.144
25680W        W93898   8.653   9.537   4.101
25681W        W93899  44.994  35.569   0.526
25682W        W93900  35.620   2.048   2.360
25683W        W93901  25.983  16.525  12.432
25684W        W93902   9.323  27.513  12.549
25685W        W93903  15.287   0.531   3.973
25686W        W93904  41.712  33.685   2.183
25687W        W93905  41.714  19.277  10.821
25688W        W93906   0.160  19.678  11.973
25689W        W93907   2.453  10.253  10.183
25690W        W93908  40.903  44.013  13.985
25691W        W93909   8.740   5.391  11.847
25692W        W93910  30.246   4.623   9.794
25693W        W93911  30.509  17.833   3.679
25694W        W93912  24.384  19.700   4.324
25695W        W93913  17.545   1.698   4.568
25696W        W93914  30.392   1.160  11.140
25697W        W93915  40.991  23.790  12.706
25698W        W93916  13.625  28.614  11.956
25699W        W93917  14.349  32.139  14.544
25700W        W93918   6.612  30.431  14.914
25701W        W93919   4.742   2.913   3.337
25702W        W93920  12.437  38.348   0.901
25703W        W93921  42.037  29.413   3.337
25704W        W93922  17.654   1.387  13.839
25705W        W93923  26.009  27.290  12.879
25706W        W93924  39.578  15.652  13.437
25707W        W93925  12.675  22.182   1.902
25708W        W93926  34.688  18.990  14.861
25709W        W93927  33.400  15.150  12.515
25710W        W93928  27.211  36.343   5.000
25711W        W93929  19.685  18.489   1.713
25712W        W93930  42.299  14.464   1.303
25713W        W93931  24.056  11.873  14.925
25714W        W93932  39.459  18.777   3.338
25715W        W93933  34.719  22.746  11.063
25716W        W93934  31.378  37.949   3.971
25717W        W93935   2.399   6.467  13.923
25718W        W93936  32.019   9.306   4.108
25719W        W93937  21.051  38.067  13.440
25720W        W93938  13.590  10.630  11.089
25721W        W93939  32.431  16.436   3.336
25722W        W93940  15.337  12.824   5.016
25723W        W93941  39.812  21.639   4.220
25724W        W93942   9.241   2.159   2.721
25725W        W93943  17.812   8.788   0.428
25726W        W93944  17.752  23.185   4.219
25727W        W93945   7.975  20.961   4.128
25728W        W93946  13.622  34.607  10.595
25729W        W93947  35.611   2.698  13.972
25730W        W93948  35.631  44.900   1.748
25731W        W93949   0.213  13.255   2.574
25732W        W93950   1.427  30.993  11.294
25733W        W93951   8.414  26.505   3.176
25734W        W93952  18.535  42.239  10.485
25735W        W93953  43.493  36.007   0.662
25736W        W93954   0.459   9.391   0.895
25737W        W93955  27.153   4.889  14.921
25738W        W93956   0.365  18.564   2.719
25739W        W93957   3.854  33.361  11.671
25740W        W93958  39.970   8.144  10.722
25741W        W93959  42.454  25.019   1.706
25742W        W93960  11.117   1.421  10.713
25743W        W93961  21.619  43.702  12.472
25744W        W93962  25.465  31.750  14.383
25745W        W93963  19.126   1.181  13.401
25746W        W93964  34.066   1.362  14.527
25747W        W93965  34.056   0.269   0.635
25748W        W93966   0.303  22.513  13.275
25749W        W93967  16.103  27.427  11.425
25750W        W93968  15.247  26.307   4.763
25751W        W93969   9.413   8.418  10.594
25752W        W93970  26.228  39.802   1.975
25753W        W93971  11.352  23.095   2.025
25754W        W93972  24.680  20.581   1.870
25755W        W93973  27.014  35.119   2.753
25756W        W93974  17.149  13.551  13.396
25757W        W93975   4.610  28.200   3.709
25758W        W93976  28.729  41.383   4.037
25759W        W93977  43.832   9.792   0.353
25760W        W93978   8.678  33.474   1.604
25761W        W93979  37.488   7.706   1.843
25762W        W93980   3.030  42.482   0.957
25763W        W93981  42.176  12.334   4.615
25764W        W93982  10.796  20.847   3.118
25765W        W93983  37.884  32.619   1.865
25766W        W93984   2.251   1.161  11.118
25767W        W93985  11.052  35.451   3.176
25768W        W93986   8.964   9.332   3.753
25769W        W93987  33.576  18.134  12.621
25770W        W93988  39.071  38.081  11.341
25771W        W93989  18.497  43.893   2.594
25772W        W93990  35.564   9.830  14.884
25773W        W93991  34.104   6.470   2.205
25774W        W93992  33.422  35.866  11.455
25775W        W93993   6.743  32.047   1.647
25776W        W93994  15.018  16.576  11.736
25777W        W93995  34.939  34.610  10.630
25778W        W93996  37.168  18.650  11.920
25779W        W93997   5.261  28.122   0.938
25780W        W93998  24.275  28.170   4.992
25781W        W93999  31.882  37.999   0.752
25782W        W94000  22.300  32.266  11.340
25783W        W94001  39.642  33.549   1.381
25784W        W94002   5.238  18.182   4.786
25785W        W94003  22.458  24.167   4.576
25786W        W94004   6.413  44.454  11.440
25787W        W94005  20.785  32.488   1.301
25788W        W94006  35.858   7.376   2.381
25789W        W94007  13.332  14.188   0.957
25790W        W94008  25.656  43.196  13.022
25791W        W94009  30.696  10.393   2.726
25792W        W94010  27.880   4.651   1.828
25793W        W94011  13.050  28.872  11.140
25794W        W94012   7.842  40.406   3.027
25795W        W94013  39.537  25.906   3.165
25796W        W94014  24.488  17.913  11.644
25797W        W94015  29.404  35.211  11.958
25798W        W94016   9.310  23.345   0.905
25799W        W94017  36.443  43.798   4.040
25800W        W94018  23.300  41.817  13.996
25801W        W94019  42.755   6.966   1.818
25802W        W94020  31.706   2.150   5.425
25803W        W94021  24.119  39.144   4.125
25804W        W94022   6.377  43.029  12.014
25805W        W94023  32.399  23.650  14.299
25806W        W94024  39.025   8.947  12.711
25807W        W94025  19.563  31.044  11.968
25808W        W94026  35.196  30.069  12.480
25809W        W94027   4.346  22.460  11.880
25810W        W94028  25.755  42.346   1.816
25811W        W94029  13.450  20.252   2.894
25812W        W94030  31.038  20.227   2.098
25813W        W94031  39.044  42.837  13.405
25814W        W94032  21.911  10.633   1.657
25815W        W94033  26.623  40.683  12.483
25816W        W94034  26.705  22.210  12.222
25817W        W94035   7.479  39.937  13.126
25818W        W94036  32.551  23.273  11.174
25819W        W94037  16.229  25.256   4.113
25820W        W94038  30.869  20.509  14.840
25821W        W94039  28.178  44.256   0.280
25822W        W94040  19.993  34.596   4.168
25823W        W94041  28.022   6.848   4.658
25824W        W94042  22.130  36.104   2.423
25825W        W94043  18.791  36.594   2.741
25826W        W94044  18.735   9.576  10.596
25827W        W94045  17.618  31.270   4.629
25828W        W94046  36.196  23.995  12.078
25829W        W94047  37.875  12.427  13.489
25830W        W94048  35.073  13.293   2.236
25831W        W94049   4.855  42.201  13.949
25832W        W94050  22.241   8.108   1.800
25833W        W94051  16.540   3.701   1.835
25834W        W94052   5.806   3.424   4.626
25835W        W94053  43.319  20.764   3.645
25836W        W94054  43.233  17.746  14.925
25837W        W94055   5.278  12.081  14.713
25838W        W94056  39.760   1.865   2.448
25839W        W94057   6.195  25.136   0.774
25840W        W94058  17.539  12.671  10.326
25841W        W94059  11.835  10.195   1.276
25842W        W94060  28.949   8.665  13.352
25843W        W94061  12.701  14.526   3.256
25844W        W94062  24.990   2.722   2.227
25845W        W94063  36.868  20.187   4.008
25846W        W94064  42.516  22.684  14.917
25847W        W94065  43.039  43.031   0.140
25848W        W94066  10.657   8.342   1.686
25849W        W94067  27.214  41.962  10.710
25850W        W94068  39.053   7.278   1.444
25851W        W94069  11.200  34.037  14.262
25852W        W94070  18.197  37.999   4.493
25853W        W94071  20.602   8.393   4.230
25854W        W94072  26.655   7.369   1.926
25855W        W94073  42.864  23.654  12.096
25856W        W94074  20.893   8.313  12.101
25857W        W94075  34.610  30.322   0.634
25858W        W94076  42.576  18.193   3.952
25859W        W94077  31.678  41.108   2.352
25860W        W94078  34.032  35.916  14.390
25861W        W94079  28.960  43.085  12.598
25862W        W94080  20.515  13.674  14.019
25863W        W94081  16.076  36.482  12.012
25864W        W94082  11.277  30.921   3.663
25865W        W94083  44.973   9.344   1.680
25866W        W94084  27.531  23.177  12.834
25867W        W94085  30.423   2.713   0.099
25868W        W94086  15.304  37.894   0.515
25869W        W94087  17.588  27.097  13.908
25870W        W94088   4.787   4.298   0.497
25871W        W94089  15.881  23.151  13.956
25872W        W94090   4.543  19.496  11.995
25873W        W94091  36.600  25.761   3.280
25874W        W94092  35.940  13.036  13.544
25875W        W94093  15.783  29.808   3.654
25876W        W94094  16.580   6.703   4.359
25877W        W94095  20.718   8.722   4.593
25878W        W94096  24.963  27.026  14.007
25879W        W94097  32.947  12.353   1.960
25880W        W94098  40.928  30.083   0.525
25881W        W94099  13.762  13.549  11.995
25882W        W94100   1.672  42.714  10.640
25883W        W94101  26.845  20.583   5.465
25884W        W94102   4.715  43.953   2.749
25885W        W94103  14.838  17.561   1.955
25886W        W94104  25.133  27.167   4.636
25887W        W94105  13.173  40.736   3.007
25888W        W94106  19.687  30.083   2.899
25889W        W94107  36.264  44.401  13.060
25890W        W94108  26.581   6.903  11.897
25891W        W94109  10.822   3.505   0.445
25892W        W94110  22.917  32.395  14.341
25893W        W94111  39.797  12.672   2.697
25894W        W94112  34.536  40.394  10.723
25895W        W94113  33.030  25.753   1.839
25896W        W94114  25.556  15.815  13.304
25897W        W94115  22.772  24.489  12.420
25898W        W94116  26.813  15.317   3.469
25899W        W94117  20.513  13.034  11.578
25900W        W94118  12.164  44.229  11.363
25901W        W94119  31.159  44.293   2.710
25902W        W94120  35.475  21.660  14.326
25903W        W94121   5.943  33.006  13.630
25904W        W94122   9.818  30.030  14.934
25905W        W94123  43.844   5.938   3.663
25906W        W94124  15.654  29.687  13.647
25907W        W94125   0.383  36.431  12.508
25908W        W94126  28.767  23.489   4.177
25909W        W94127  24.569  41.801   4.594
25910W        W94128   4.431  35.060   1.859
25911W        W94129  17.557  12.924  12.272
25912W        W94130  15.402  16.643  10.789
25913W        W94131  41.868   8.782  10.271
25914W        W94132  36.965  19.668   0.090
25915W        W94133  12.755   2.754  13.678
25916W        W94134  19.760  14.343  12.341
25917W        W94135   9.654   1.343  14.454
25918W        W94136  36.072   6.332   1.468
25919W        W94137  35.888  20.906  12.783
25920W        W94138  41.432  11.242   4.965
25921W        W94139  33.818  31.220  14.435
25922W        W94140   9.285   8.811  13.855
25923W        W94141  31.131   9.554   2.551
25924W        W94142  39.361  34.328   2.858
25925W        W94143  44.302  27.287   4.235
25926W        W94144  26.680  40.647  11.572
25927W        W94145  36.649   5.886  13.807
25928W        W94146  16.913  14.838  12.016
25929W        W94147  33.779  17.498   4.160
25930W        W94148   2.033  43.021   3.683
25931W        W94149   4.312  19.993   2.153
25932W        W94150  11.954  17.628  13.918
25933W        W94151  35.068  37.933   3.475
25934W        W94152   0.410   1.740   3.234
25935W        W94153  29.523  25.186   1.730
25936W        W94154  26.890  22.514  11.132
25937W        W94155  32.480   6.361   1.891
25938W        W94156   1.285  13.376  11.174
25939W        W94157  35.581  20.602   4.162
25940W        W94158  25.393   6.083   0.758
25941W        W94159   5.591   2.519  10.963
25942W        W94160  16.706   2.287  10.538
25943W        W94161  25.943  15.734   2.625
25944W        W94162  40.904  36.843   0.826
25945W        W94163  24.783   9.621  14.145
25946W        W94164   7.608  31.494   3.184
25947W        W94165  19.467  29.073  14.368
25948W        W94166  39.085  28.425  11.102
25949W        W94167   3.948  38.298  10.893
25950W        W94168  25.841   5.763  14.315
25951W        W94169  44.582  33.998  11.442
25952W        W94170  11.248  24.409  13.459
25953W        W94171  29.998  29.627   2.577
25954W        W94172  28.714  22.919  13.520
25955W        W94173  42.433   0.803   2.720
25956W        W94174  25.897  23.144  14.941
25957W        W94175   9.760  33.015  10.437
25958W        W94176  30.633   0.369   4.294
25959W        W94177   8.710  36.848  10.506
25960W        W94178  42.633  12.865   3.837
25961W        W94179  34.940  22.916   0.379
25962W        W94180   9.849  16.100  14.398
25963W        W94181  22.811  28.151  12.274
25964W        W94182  26.854   1.533   4.587
25965W        W94183   0.417  32.533   4.697
25966W        W94184  31.170   7.455   4.528
25967W        W94185  38.022   0.948  11.597
25968W        W94186   9.846  25.635   4.445
25969W        W94187  28.497   9.175  11.361
25970W        W94188   3.361  26.113  13.028
25971W        W94189  23.072  37.619   2.779
25972W        W94190  10.690   7.291  11.652
25973W        W94191  37.847  28.000   2.440
25974W        W94192  29.499   1.231  12.624
25975W        W94193  21.298  42.057  14.600
25976W        W94194   5.101  28.602   0.770
25977W        W94195  24.008   7.324   3.751
25978W        W94196   8.713  33.989   1.692
25979W        W94197  21.654   4.834   9.809
25980W        W94198  30.958  21.085   4.938
25981W        W94199  29.880  27.488  10.731
25982W        W94200  24.537  36.798  12.143
25983W        W94201  29.443  40.903  13.788
25984W        W94202  19.981  17.116   4.661
25985W        W94203  18.328  13.802   1.337
25986W        W94204   8.193  39.360  11.236
25987W        W94205   5.438  40.483   1.285
25988W        W94206  22.229   4.008   2.003
25989W        W94207  38.303   7.705   2.501
25990W        W94208  41.024  43.798   0.414
25991W        W94209  20.221   4.887  13.865
25992W        W94210  26.935  29.276   3.592
25993W        W94211  21.185   7.184   1.297
25994W        W94212  33.642  30.861  14.812
25995W        W94213  34.598  41.792   0.444
25996W        W94214  26.704  19.534   2.777
25997W        W94215   0.004  10.380  10.837
25998W        W94216  27.971  36.821   0.889
25999W        W94217  37.973  35.985   0.352
26000W        W94218  40.470  10.896  11.103
26001W        W94219  25.751  11.737  10.802
26002W        W94220  38.020  43.518   2.831
26003W        W94221  10.950   3.951   1.809
26004W        W94222  42.993   7.259   4.802
26005W        W94223  34.140   4.421   9.487
26006W        W94224  21.264  44.974   1.201
26007W        W94225  30.181  19.648   2.224
26008W        W94226  24.116   5.871   3.646
26009W        W94227  33.388  34.913   4.098
26010W        W94228  11.083   1.879  11.567
26011W        W94229   3.810  23.824  14.362
26012W        W94230   6.493  27.487   1.494
26013W        W94231  11.696  15.297   2.222
26014W        W94232  36.505   4.749  12.724
26015W        W94233  28.672  10.986  14.165
26016W        W94234   6.399  23.518   1.768
26017W        W94235  10.920  18.627   1.925
26018W        W94236  24.536  33.500  12.039
26019W        W94237  26.191  38.642   3.255
26020W        W94238   5.434   7.512  12.881
26021W        W94239  43.892   5.185  14.817
26022W        W94240  17.312  12.061  12.559
26023W        W94241  24.185  18.208  13.949
26024W        W94242  28.897  19.769  11.135
26025W        W94243  38.867  25.991  10.282
26026W        W94244  35.611   5.603  12.854
26027W        W94245   8.654  28.868  13.706
26028W        W94246   5.736   5.935   0.679
26029W        W94247  25.816  25.116  13.931
26030W        W94248  38.463  33.739  14.701
26031W        W94249  25.886  25.020  14.832
26032W        W94250   8.607  13.836  14.854
26033W        W94251  40.730  26.136  12.801
26034W        W94252  12.782   7.189   2.057
26035W        W94253  28.049   0.497  12.166
26036W        W94254   4.087  26.879  14.474
26037W        W94255   2.991  24.281  11.306
26038W        W94256  14.809  11.671   3.249
26039W        W94257  16.977  22.554   3.688
26040W        W94258  14.009  39.759   2.440
26041W        W94259   0.445  12.604  14.730
26042W        W94260  33.924  20.563   1.954
26043W        W94261  18.533  13.592   3.263
26044W        W94262  27.936  39.273   1.913
26045W        W94263  37.997   4.665  13.370
26046W        W94264  17.608  42.516   0.208
26047W        W94265  25.516  14.811   2.695
26048W        W94266  37.610  21.661  10.407
26049W        W94267  24.677  35.534   3.335
26050W        W94268  20.289  42.316   4.144
26051W        W94269  25.562  39.789  13.896
26052W        W94270  40.376  38.864  10.660
26053W        W94271  32.526   6.379  12.863
26054W        W94272  14.763  17.516   4.106
26055W        W94273  39.819  34.124   1.691
26056W        W94274  24.720   1.180  12.476
26057W        W94275   6.183  29.149   1.389
26058W        W94276  23.458  28.586   3.842
26059W        W94277  10.267  42.740   4.160
26060W        W94278  33.122  13.212   1.243
26061W        W94279  29.259  13.567  13.368
26062W        W94280  19.205   7.764  13.976
26063W        W94281  17.454  39.082  14.972
26064W        W94282   5.691  10.477  13.602
26065W        W94283  14.596  28.455  12.041
26066W        W94284   3.702  33.997  12.403
26067W        W94285   6.297  27.515  12.816
26068W        W94286  41.708  19.302  11.328
26069W        W94287   8.737  30.707  14.471
26070W        W94288   3.253  27.024  13.378
26071W        W94289  15.075   2.339   0.814
26072W        W94290  32.864  37.651   0.338
26073W        W94291  19.345   8.808  13.487
26074W        W94292  13.168  39.846   2.271
26075W        W94293   9.342  19.607  11.576
26076W        W94294  24.123  26.813   5.064
26077W        W94295  12.181  35.752  12.178
26078W        W94296  34.998   1.883   2.255
26079W        W94297   4.538  20.099   4.313
26080W        W94298  25.567  18.635   1.796
26081W        W94299  25.576  15.340  13.506
26082W        W94300  34.015  20.762  12.004
26083W        W94301   6.690  33.451  11.176
26084W        W94302  27.389   9.846  14.872
26085W        W94303  28.809  31.472   0.945
26086W        W94304   8.328  13.439   4.669
26087W        W94305  40.563  23.128   3.727
26088W        W94306  44.453   0.149   3.617
26089W        W94307  40.819  34.273  13.000
26090W        W94308  12.650  18.096  13.449
26091W        W94309  12.180  38.808   0.701
26092W        W94310  21.785   6.233   0.729
26093W        W94311  26.127  21.481  13.933
26094W        W94312  27.047  15.077  11.683
26095W        W94313   3.991  38.901   4.153
26096W        W94314   4.946  30.938   4.146
26097W        W94315  43.509   9.404  11.429
26098W        W94316   8.658  25.936   0.294
26099W        W94317  25.091  30.609   0.234
26100W        W94318  23.106   3.927   1.484
26101W        W94319   0.741   5.663   3.777
26102W        W94320  35.006  27.603  14.596
26103W        W94321  33.429  38.925   1.822
26104W        W94322  15.595  19.571  12.918
26105W        W94323  42.424  30.060   2.867
26106W        W94324  30.179  26.988   5.260
26107W        W94325  38.551   8.369  13.872
26108W        W94326  28.440   8.673   1.850
26109W        W94327   4.072  22.142   1.875
26110W        W94328  39.458  24.145   1.800
26111W        W94329  36.511  33.758   4.260
26112W        W94330  26.590  12.560   1.052
26113W        W94331  44.005  36.756   0.995
26114W        W94332   9.378  29.957  10.575
26115W        W94333   8.251  26.421   2.215
26116W        W94334  39.744  35.376   4.119
26117W        W94335  38.966   9.661   3.609
26118W        W94336  29.156  44.082   1.142
26119W        W94337   1.404   6.912  14.417
26120W        W94338  27.215   3.288   0.009
26121W        W94339  19.149  11.598   1.930
26122W        W94340  18.355  21.869  12.449
26123W        W94341  41.886  40.956  11.957
26124W        W94342  41.354  18.661  10.399
26125W        W94343  27.136  18.414   3.385
26126W        W94344  13.806  34.950  14.461
26127W        W94345  26.965  44.297  13.836
26128W        W94346  15.581  17.615  11.041
26129W        W94347  39.864  10.735   4.658
26130W        W94348  37.032  27.641   2.429
26131W        W94349  28.215  44.552   4.556
26132W        W94350  14.723  31.557   4.641
26133W        W94351  32.908  33.710  14.379
26134W        W94352  37.720  34.470  14.325
26135W        W94353   7.105  15.921   3.203
26136W        W94354  15.523  14.789  14.512
26137W        W94355  17.668  23.076  14.507
26138W        W94356  17.803  39.868  10.624
26139W        W94357  17.117  31.371  14.018
26140W        W94358  33.431   6.094  11.377
26141W        W94359  17.333  43.268  13.522
26142W        W94360  28.395   8.662  14.014
26143W        W94361   5.180  42.269   3.172
26144W        W94362  37.921  43.598  10.709
26145W        W94363  23.120  39.838   0.486
26146W        W94364   8.104  19.084  12.917
26147W        W94365  16.838  32.147  12.215
26148W        W94366  44.828  24.482  13.172
26149W        W94367   9.915  11.774  10.697
26150W        W94368  42.173  15.033  12.190
26151W        W94369  14.686  21.470   0.498
26152W        W94370  11.789  12.768  14.442
26153W        W94371  36.427  18.965   1.812
26154W        W94372  29.516   3.484  10.376
26155W        W94373  31.383  27.365   5.130
26156W        W94374  11.649  36.792  14.485
26157W        W94375  31.674  31.602  13.240
26158W        W94376  39.613   7.350   1.325
26159W        W94377   1.754  13.866  10.678
26160W        W94378  15.691  12.538  10.219
26161W        W94379   2.214  32.694   1.928
26162W        W94380  30.529  11.072   0.573
26163W        W94381  17.667  34.911   1.075
26164W        W94382  40.495   4.315   3.685
26165W        W94383  43.980  28.969   0.214
26166W        W94384   7.444   6.378   2.689
26167W        W94385  39.253  22.588  13.391
26168W        W94386  30.880   5.464   2.712
26169W        W94387  12.765  42.388   0.508
26170W        W94388  38.717  31.755   2.701
26171W        W94389  14.116  41.833  13.481
26172W        W94390  17.070  24.389   4.562
26173W        W94391  43.152  16.482   4.057
26174W        W94392  36.360  26.103  11.523
26175W        W94393  39.572   6.822  14.469
26176W        W94394  27.728   6.248   1.743
26177W        W94395   2.945   8.840   2.475
26178W        W94396  42.711  26.016   3.139
26179W        W94397  36.254  19.729   4.623
26180W        W94398  24.466  13.401  14.136
26181W        W94399  19.811  20.966   1.709
26182W        W94400  17.290  20.353  11.550
26183W        W94401  34.025  27.643   3.191
26184W        W94402   7.837  10.115   1.832
26185W        W94403  26.924   3.431   1.037
26186W        W94404   4.188  44.155   2.079
26187W        W94405   1.343  22.683  10.699
26188W        W94406  27.715   3.241  14.839
26189W        W94407  33.150  26.894  12.109
26190W        W94408  20.860  36.920   5.045
26191W        W94409  18.944  34.008  10.090
26192W        W94410  10.629  28.189  13.308
26193W        W94411   7.474  17.140   1.329
26194W        W94412   6.186  44.000  10.190
26195W        W94413  24.442   3.452  10.365
26196W        W94414  19.906  12.234  13.425
26197W        W94415  44.292   1.861   1.267
26198W        W94416  33.532  25.713   4.087
26199W        W94417   7.266  11.439   0.396
26200W        W94418  36.358  20.196   3.901
26201W        W94419  43.674  32.915   4.305
26202W        W94420   2.176   0.684  10.059
26203W        W94421  35.825  17.421  11.674
26204W        W94422  38.390  21.089  11.695
26205W        W94423  22.279  21.617   4.261
26206W        W94424  23.270  26.103   3.169
26207W        W94425  10.358  29.657  13.410
26208W        W94426  16.534  19.316   1.469
26209W        W94427  22.687  44.930  11.194
26210W        W94428  15.433  17.316   0.702
26211W        W94429  39.159  12.786   0.482
26212W        W94430  34.383   4.216   0.057
26213W        W94431  18.405   6.170   2.668
26214W        W94432  10.201  43.062   0.900
26215W        W94433   5.853  24.930   3.563
26216W        W94434   2.775  17.230   4.144
26217W        W94435  26.257  29.188   3.240
26218W        W94436  40.436  39.546  13.878
26219W        W94437  10.899   7.733   2.350
26220W        W94438  36.336  35.058   4.398
26221W        W94439  36.485  43.647   0.266
26222W        W94440  31.847  35.654   0.348
26223W        W94441  33.192  44.980   2.616
26224W        W94442  41.816  18.566   4.528
26225W        W94443  44.837   2.904  14.149
26226W        W94444  10.327  21.944  13.997
26227W        W94445   3.759  15.709   3.989
26228W        W94446  23.490   2.782  11.445
26229W        W94447   7.667  17.638   0.420
26230W        W94448   1.920  11.721   0.375
26231W        W94449   9.367  16.822   0.443
26232W        W94450  11.818  24.072   1.997
26233W        W94451   9.868  16.617  11.473
26234W        W94452  43.955   6.653   2.733
26235W        W94453  21.644  42.403  14.023
26236W        W94454  38.502  22.990  13.769
26237W        W94455   6.521  10.207   3.304
26238W        W94456  32.945  14.734  13.900
26239W        W94457  23.549  10.386  11.148
26240W        W94458  12.174  41.800  13.277
26241W        W94459  18.271  30.528   4.657
26242W        W94460  20.029  24.170  12.945
26243W        W94461  33.086   4.952   4.211
26244W        W94462  10.872  17.359   2.353
26245W        W94463  20.176  25.255  13.352
26246W        W94464  38.999   0.838  14.874
26247W        W94465  34.549   7.392   3.660
26248W        W94466  32.064  43.965  11.061
26249W        W94467  24.242  27.958   0.347
26250W        W94468   6.848  14.770   1.739
26251W        W94469  40.315  42.763  11.012
26252W        W94470  42.025   8.083  11.625
26253W        W94471  12.325   4.077  12.114
26254W        W94472  14.727  18.062   4.103
26255W        W94473  24.085  24.571  12.830
26256W        W94474  21.257  41.433   1.738
26257W        W94475  38.085  29.017   1.426
26258W        W94476  35.271  24.692  11.546
26259W        W94477  30.424  35.007   1.752
26260W        W94478   8.267  22.750   0.840
26261W        W94479  17.062  37.036  11.671
26262W        W94480  17.152   4.395  11.791
26263W        W94481  26.659  27.506   0.239
26264W        W94482   7.658  40.316  10.945
26265W        W94483  43.342  33.096  12.661
26266W        W94484  30.352  14.586   9.756
26267W        W94485   2.157   2.497  14.283
26268W        W94486  14.776   7.375  10.673
26269W        W94487  17.645  23.559  10.689
26270W        W94488  14.213  26.933   2.331
26271W        W94489  35.553   1.954   0.990
26272W        W94490  21.795   7.078   4.312
26273W        W94491  12.693   5.940   3.587
26274W        W94492  42.197  18.080   1.401
26275W        W94493  26.558  36.875  11.572
26276W        W94494   8.881  24.497  12.821
26277W        W94495   3.837  20.439   0.164
26278W        W94496  44.875  26.369  11.604
26279W        W94497  31.113   1.012   0.961
26280W        W94498  22.185  25.861  12.390
26281W        W94499  15.274  29.197   2.747
26282W        W94500  26.022  36.297  11.074
26283W        W94501  22.645  25.072   0.360
26284W        W94502  20.719  39.756  11.104
26285W        W94503   3.661  42.135   4.164
26286W        W94504  38.474  27.648   4.391
26287W        W94505  28.101  22.519  10.628
26288W        W94506  25.255  32.603  11.189
26289W        W94507  11.130  22.447   0.868
26290W        W94508   1.527   6.742   3.871
26291W        W94509   3.943  21.893   1.431
26292W        W94510  33.295   4.072  11.156
26293W        W94511   8.350   7.900   4.433
26294W        W94512  37.399   3.502  13.342
26295W        W94513  37.866  20.968   2.990
26296W        W94514  36.309  32.198  13.866
26297W        W94515  39.833   5.848  11.870
26298W        W94516  34.307  13.098   4.019
26299W        W94517  18.744  42.579   4.658
26300W        W94518  33.044   7.412   2.295
26301W        W94519   5.024  28.583  12.901
26302W        W94520   4.524  33.864  13.839
26303W        W94521   3.225  35.767  14.696
26304W        W94522  28.243   5.847  14.895
26305W        W94523  20.777   7.929   4.170
26306W        W94524  35.502  18.203   3.267
26307W        W94525  31.063  38.548  14.498
26308W        W94526  27.240  30.163   4.867
26309W        W94527  29.060  34.490   4.091
26310W        W94528  33.064  25.293  11.529
26311W        W94529   3.404  32.329  14.967
26312W        W94530  34.128   1.769  11.965
26313W        W94531  15.339  44.481  11.921
26314W        W94532  29.036  31.695   2.771
26315W        W94533  36.442  38.747   0.868
26316W        W94534  27.914   1.814  14.335
26317W        W94535  20.713  12.186  10.404
26318W        W94536  15.664  43.595   4.270
26319W        W94537   7.259   6.465  14.278
26320W        W94538  35.926  28.999  12.005
26321W        W94539  21.221   7.516   3.666
26322W        W94540  28.112   7.314  12.526
26323W        W94541   6.928   1.189  11.679
26324W        W94542  18.804  25.972  10.995
26325W        W94543  11.810  15.598  14.999
26326W        W94544  23.254  19.234  13.864
26327W        W94545  12.641  26.468  11.037
26328W        W94546  15.441  33.302   4.104
26329W        W94547  18.829  30.174   2.621
26330W        W94548  31.605   2.252  12.874
26331W        W94549  39.103  41.988   2.786
26332W        W94550  33.340  19.147   4.970
26333W        W94551   7.777   0.350   2.801
26334W        W94552  22.032  24.091  14.535
26335W        W94553   0.704  39.380   0.276
26336W        W94554  22.764  24.266  10.724
26337W        W94555  15.251  15.919   1.920
26338W        W94556  37.848  41.634   2.880
26339W        W94557   4.466   7.481   4.256
26340W        W94558  28.576  17.855  13.729
26341W        W94559   2.896   5.839   3.766
26342W        W94560  12.256  35.878   0.441
26343W        W94561  35.390  27.606  12.551
26344W        W94562  25.065  40.070   1.307
26345W        W94563  41.310  24.981   2.277
26346W        W94564  28.624  12.600  11.927
26347W        W94565   1.445  17.206   4.332
26348W        W94566  10.266  39.740   0.788
26349W        W94567  25.504  14.009   4.438
26350W        W94568  41.519  41.080  13.391
26351W        W94569   4.767  10.065   2.808
26352W        W94570  29.134  28.933   2.172
26353W        W94571  28.000  37.591  13.371
26354W        W94572  28.234  33.453   2.722
26355W        W94573  33.545  37.086  13.896
26356W        W94574  18.690  29.495  13.857
26357W        W94575  16.612   1.735  10.538
26358W        W94576  43.793  24.953  14.286
26359W        W94577  20.981  17.245  14.544
26360W        W94578  34.112  28.670   2.392
26361W        W94579   5.945  29.179   4.127
26362W        W94580   6.683  36.990   4.677
26363W        W94581  19.630  38.853   0.407
26364W        W94582  11.845  34.332  11.149
26365W        W94583  14.300   8.827  13.870
26366W        W94584  32.772  19.609  10.499
26367W        W94585  41.790  21.700  11.702
26368W        W94586   5.438   7.149  13.913
26369W        W94587  19.018  32.155  14.520
26370W        W94588  16.009   9.891   1.737
26371W        W94589  15.120  28.143  12.958
26372W        W94590  34.184   4.313  11.582
26373W        W94591  13.326  17.634   3.213
26374W        W94592  42.318  43.079   0.485
26375W        W94593  17.604  19.207  13.104
26376W        W94594   4.855  22.067   0.404
26377W        W94595  33.856   3.709  12.156
26378W        W94596  35.127   2.020  12.876
26379W        W94597   1.885  37.559   1.933
26380W        W94598  22.726   6.028   0.985
26381W        W94599  42.054  23.121  13.822
26382W        W94600  27.769  13.679  10.949
26383W        W94601  24.143  39.968  13.538
26384W        W94602  34.818  42.618  14.783
26385W        W94603   5.351   8.602  13.347
26386W        W94604  18.120  35.616  11.130
26387W        W94605   2.862  20.900  10.731
26388W        W94606  33.260  12.702   1.284
26389W        W94607  16.571  16.558   3.674
26390W        W94608  17.724  30.853  14.584
26391W        W94609  14.706   9.223  13.973
26392W        W94610  21.719  11.835   0.513
26393W        W94611  23.627  43.001  13.029
26394W        W94612  13.900   9.299   4.802
26395W        W94613   9.152  25.178   4.769
26396W        W94614  23.106  44.698   3.664
26397W        W94615  43.784  38.415   4.155
26398W        W94616  25.005  40.284   3.664
26399W        W94617  13.782  26.699  12.123
26400W        W94618  36.365  43.859   3.084
26401W        W94619   9.442  19.992   4.889
26402W        W94620  22.610  19.714  11.458
26403W        W94621  10.718  24.013   4.101
26404W        W94622  24.013  17.701   3.175
26405W        W94623  36.915  29.073   3.186
26406W        W94624  40.571  39.917  14.446
26407W        W94625  33.915   7.474   4.131
26408W        W94626  34.343  24.600  11.242
26409W        W94627   6.385  35.616   1.322
26410W        W94628  23.197  38.959   4.450
26411W        W94629  12.804   1.580   4.564
26412W        W94630  15.108  40.140  11.376
26413W        W94631  22.756   6.800   4.189
26414W        W94632  18.479   3.838  13.543
26415W        W94633  30.997  41.046  13.054
26416W        W94634   1.162  16.374   3.689
26417W        W94635  21.038  37.433   3.623
26418W        W94636  12.681  30.595   1.538
26419W        W94637  39.815  21.205  13.944
26420W        W94638  30.151   3.641   3.140
26421W        W94639   8.732  18.620  14.308
26422W        W94640  12.087  36.840   1.769
26423W        W94641  24.464  40.032   0.132
26424W        W94642   7.788  40.679  13.471
26425W        W94643  20.906  25.056   2.211
26426W        W94644  41.884  28.942   3.752
26427W        W94645   3.288  35.903   0.188
26428W        W94646  22.559   5.807  12.552
26429W        W94647  10.710  20.195   3.509
26430W        W94648  25.970  38.442   2.282
26431W        W94649   1.148  38.907  11.125
26432W        W94650  14.620  16.177  12.597
26433W        W94651  15.084  11.855  14.813
26434W        W94652  13.248  36.886  14.022
26435W        W94653   7.931  44.777   4.638
26436W        W94654  10.265  35.665  11.184
26437W        W94655  14.189  31.815   5.142
26438W        W94656  36.890  30.165  12.481
26439W        W94657   2.381  20.044  12.549
26440W        W94658   7.530  10.733   4.437
26441W        W94659   6.756  34.421  13.891
26442W        W94660   3.189  17.555  10.684
26443W        W94661  40.004  36.412   1.248
26444W        W94662  25.904  30.698  12.807
26445W        W94663   9.581  44.894   4.639
26446W        W94664  41.072  42.681  13.394
26447W        W94665  19.270  36.360   2.761
26448W        W94666  10.239  39.567  11.152
26449W        W94667  29.221  29.881   2.301
26450W        W94668  44.216   2.284  13.783
26451W        W94669  43.403   7.583   2.213
26452W        W94670  31.100  38.050   2.433
26453W        W94671   8.368  41.869  14.487
26454W        W94672  40.669  16.096  13.179
26455W        W94673  31.456   4.411  13.414
26456W        W94674   6.815  41.437  12.119
26457W        W94675  15.679  23.565  10.781
26458W        W94676  20.913  23.912   2.830
26459W        W94677  35.458  28.549  13.640
26460W        W94678   0.106  30.985   3.081
26461W        W94679   8.415  13.847   1.781
26462W        W94680  35.011  10.630  14.822
26463W        W94681  16.159  28.133  10.696
26464W        W94682   1.487  25.294   1.222
26465W        W94683   7.242  26.446   4.427
26466W        W94684  44.773  21.869  12.496
26467W        W94685   8.345  42.308   0.348
26468W        W94686  11.793  15.842  13.117
26469W        W94687   1.983  14.266  10.996
26470W        W94688  13.676   8.803   1.909
26471W        W94689   9.398   0.854   0.111
26472W        W94690  36.836   4.169   0.532
26473W        W94691  19.942  26.967  12.322
26474W        W94692   3.259  44.997   2.179
26475W        W94693   2.326  42.578   4.018
26476W        W94694  25.983  25.184   0.912
26477W        W94695  30.447  40.970   4.169
26478W        W94696  15.863  30.998   2.867
26479W        W94697  11.652  11.668   5.048
26480W        W94698  25.922  18.220  12.616
26481W        W94699  10.670  42.708   3.842
26482W        W94700  14.174  29.495  13.473
26483W        W94701  33.475  31.144   1.451
26484W        W94702  36.335  44.474  13.572
26485W        W94703  34.337  37.863   1.871
26486W        W94704  40.733  44.303   0.770
26487W        W94705  44.267  18.068   1.405
26488W        W94706  31.847  15.332  10.732
26489W        W94707  14.992   2.647  12.454
26490W        W94708  21.064   2.795   3.794
26491W        W94709  28.921  24.586  11.312
26492W        W94710  32.703  42.915  11.927
26493W        W94711  15.817  19.557   0.728
26494W        W94712   3.871   0.239  12.362
26495W        W94713  12.920  34.626   1.939
26496W        W94714  28.858   8.443  14.974
26497W        W94715  29.874  12.642  14.408
26498W        W94716  42.978  25.375   2.440
26499W        W94717   1.264  33.186   0.812
26500W        W94718  13.120  15.845   0.026
26501W        W94719  35.030  18.713  10.943
26502W        W94720  33.937   1.435  13.078
26503W        W94721  24.369  11.599   0.231
26504W        W94722  32.933  27.337  14.307
26505W        W94723  14.792  16.675   4.652
26506W        W94724  32.206  16.468   2.735
26507W        W94725  14.103  23.967  13.428
26508W        W94726   8.615  41.679  14.930
26509W        W94727   5.463  40.029   0.370
26510W        W94728  41.822  28.511  12.055
26511W        W94729  14.259  10.111  12.969
26512W        W94730  35.340  30.417   1.340
26513W        W94731  16.164  32.415  13.214
26514W        W94732  37.598  13.130  13.802
26515W        W94733  25.987   0.674   4.275
26516W        W94734   2.524   3.444   1.827
26517W        W94735  27.955  17.173  11.696
26518W        W94736  32.567   6.000  14.292
26519W        W94737  15.044  35.411  14.991
26520W        W94738  37.400  21.178  14.752
26521W        W94739   9.860  33.099   0.419
26522W        W94740   8.889  40.112   1.178
26523W        W94741  24.892  39.517   0.871
26524W        W94742  13.012  16.685  14.047
26525W        W94743  27.541  19.933   0.547
26526W        W94744  14.863  32.225  14.538
26527W        W94745  20.571  18.184   1.762
26528W        W94746  38.066  16.241   0.693
26529W        W94747   8.094   4.388   4.251
26530W        W94748  44.250  27.727  12.350
26531W        W94749  25.855  33.561   4.089
26532W        W94750  14.249  13.672  13.355
26533W        W94751  32.998   8.749   1.769
26534W        W94752  27.235  27.712   4.083
26535W        W94753  38.068  14.757  14.071
26536W        W94754  40.925  13.163   0.407
26537W        W94755  29.527   3.330   0.435
26538W        W94756  41.371  36.438  12.463
26539W        W94757  13.808  14.678   0.312
26540W        W94758   3.349   1.291   0.809
26541W        W94759   8.889  42.923   4.396
26542W        W94760  10.726  39.545   1.593
26543W        W94761  42.389   5.216   1.658
26544W        W94762  11.289  17.526   0.341
26545W        W94763   7.780  36.561  11.051
26546W        W94764  26.598   2.826   2.670
26547W        W94765   1.836  17.723  13.353
26548W        W94766  19.746  25.579   4.120
26549W        W94767  28.155  12.286  14.100
26550W        W94768  34.048  14.212   0.167
26551W        W94769  22.189   4.758  14.887
26552W        W94770  26.548   2.413   0.022
26553W        W94771  31.580  26.498   3.611
26554W        W94772   5.661  36.987   0.778
26555W        W94773  11.159   7.765   4.681
26556W        W94774  10.810  42.597   0.792
26557W        W94775  21.008   6.689   0.468
26558W        W94776  11.169  29.608  12.108
26559W        W94777  44.661  39.080  12.067
26560W        W94778  30.565  40.545  13.821
26561W        W94779  44.334  24.934  13.383
26562W        W94780   0.690   4.842  13.394
26563W        W94781  10.860  39.111   1.896
26564W        W94782  36.597  25.941  10.250
26565W        W94783  41.351  30.107  12.345
26566W        W94784  10.609   8.559  13.849
26567W        W94785   7.281  44.058  11.173
26568W        W94786  24.593  42.952  12.984
26569W        W94787   9.655  37.986  11.288
26570W        W94788   5.165  17.914   1.640
26571W        W94789  42.099  10.199  12.910
26572W        W94790  31.474  29.050   1.817
26573W        W94791  28.448  35.996  11.476
26574W        W94792  32.488  29.658  11.518
26575W        W94793   3.337  11.039  14.358
26576W        W94794  29.475  20.596   3.054
26577W        W94795  34.854  20.249   0.023
26578W        W94796  41.801  32.167   1.425
26579W        W94797  16.150  42.484  10.300
26580W        W94798  25.700  25.276   2.252
26581W        W94799  20.135  27.231   0.917
26582W        W94800  32.894  29.171   0.501
26583W        W94801  35.418  16.594   3.129
26584W        W94802  19.082  30.675  11.560
26585W        W94803   9.312  29.046   0.614
26586W        W94804  44.045  10.914   3.168
26587W        W94805  33.556  41.878  10.686
26588W        W94806  43.571  40.513   3.749
26589W        W94807  19.240  34.760   3.053
26590W        W94808  31.306  16.182   4.515
26591W        W94809  36.902  26.370   4.353
26592W        W94810  32.984  35.639  11.628
26593W        W94811  40.364  10.870  14.020
26594W        W94812  41.289  33.591  14.325
26595W        W94813  35.733  37.320   4.031
26596W        W94814  41.864  22.411   2.839
26597W        W94815   1.525  20.183  14.289
26598W        W94816  37.016  19.114   2.818
26599W        W94817   0.869  18.379  10.564
26600W        W94818  34.045   4.094  13.251
26601W        W94819  34.804  38.282   1.150
26602W        W94820  31.574  10.481  14.879
26603W        W94821  19.354  11.678  12.045
26604W        W94822  26.062  28.422  14.025
26605W        W94823  26.999  25.325  11.543
26606W        W94824  37.572   9.624  12.797
26607W        W94825  23.550  29.237  10.364
26608W        W94826  23.076  13.545   0.752
26609W        W94827  21.726  34.047   4.022
26610W        W94828  25.935  37.352   2.787
26611W        W94829  16.192   4.450   2.696
26612W        W94830  15.697  10.397   4.534
26613W        W94831   8.775   9.589  11.572
26614W        W94832  13.216  11.810  13.504
26615W        W94833  13.182  23.788   0.362
26616W        W94834  29.967  21.498   0.381
26617W        W94835  36.018  16.233  12.006
26618W        W94836  14.801  30.148   3.907
26619W        W94837  33.447  33.110   2.067
26620W        W94838  14.076  29.414  11.033
26621W        W94839  23.380  14.108   2.373
26622W        W94840   6.800  16.041  11.048
26623W        W94841   5.390  23.934   1.982
26624W        W94842  33.879  33.042   2.947
26625W        W94843  10.188   1.904  10.784
26626W        W94844  28.455  25.209  12.560
26627W        W94845  42.895  32.905   4.940
26628W        W94846   6.451  17.771  11.566
26629W        W94847  33.441   7.301  14.084
26630W        W94848  31.967  28.970   3.737
26631W        W94849  35.439   6.746  14.818
26632W        W94850  42.277  31.072   4.455
26633W        W94851  15.055   4.971  10.564
26634W        W94852  21.530   2.669   0.227
26635W        W94853  44.479  32.512   0.767
26636W        W94854  33.037  20.222   2.848
26637W        W94855   1.972  32.987  11.554
26638W        W94856  31.538   2.611   0.098
26639W        W94857  12.403   9.912  12.871
26640W        W94858  11.255  15.317   1.853
26641W        W94859  36.416  10.078   2.723
26642W        W94860  38.902  43.534   1.692
26643W        W94861   6.243  38.102   1.307
26644W        W94862  44.507  40.460  11.092
26645W        W94863  36.434  33.392  13.744
26646W        W94864  42.586  29.114   2.695
26647W        W94865  33.984   3.944   0.255
26648W        W94866  43.499  24.013   3.770
26649W        W94867  22.179  30.184  13.765
26650W        W94868  40.411   4.682  13.455
26651W        W94869   6.664  35.900   0.967
26652W        W94870   0.644   7.000   2.868
26653W        W94871  33.572  37.909   0.299
26654W        W94872  39.954   6.728   1.547
26655W        W94873  38.088   0.700  10.646
26656W        W94874   6.406  24.965  11.603
26657W        W94875  28.345  17.764   4.598
26658W        W94876  44.158  27.653  13.891
26659W        W94877   6.677  20.742  13.341
26660W        W94878  35.927  25.539  12.367
26661W        W94879  19.269  19.372   0.442
26662W        W94880   4.502   9.840   4.517
26663W        W94881  38.859  16.031   0.899
26664W        W94882  10.950  31.599   2.616
26665W        W94883  24.939  20.084  12.377
26666W        W94884  43.939  28.158   1.671
26667W        W94885  33.895  33.852  14.384
26668W        W94886  13.257   3.580   3.676
26669W        W94887  34.988   0.313   4.014
26670W        W94888  25.188  20.660  13.488
26671W        W94889   3.450  41.896   5.022
26672W        W94890  19.211  25.982   0.337
26673W        W94891  30.065  19.736   4.069
26674W        W94892   9.489   2.779  12.021
26675W        W94893  36.162  21.053  13.806
26676W        W94894  43.185  36.948  12.476
26677W        W94895   8.802  41.689   2.820
26678W        W94896  28.719  24.650   1.629
26679W        W94897   1.909  42.556  12.971
26680W        W94898   9.883  42.417  14.315
26681W        W94899  32.857  43.520   0.502
26682W        W94900  44.328  21.258  12.006
26683W        W94901  17.227  18.252  11.039
26684W        W94902  11.833  27.000   1.948
26685W        W94903  12.958  36.551   2.765
26686W        W94904   3.278  29.184   1.134
26687W        W94905   0.348   0.338   2.538
26688W        W94906  41.980  41.739  11.558
26689W        W94907  14.430  35.767   2.228
26690W        W94908   2.702  28.849  12.368
26691W        W94909  36.839  16.673   2.714
26692W        W94910   6.051  19.146   0.945
26693W        W94911  23.002  34.070  12.042
26694W        W94912  40.365  41.724  12.358
26695W        W94913  34.431  26.176  13.416
26696W        W94914  30.009   6.965   3.660
26697W        W94915  30.996  20.759  14.347
26698W        W94916  33.550   0.369   3.415
26699W        W94917  27.494  32.349   1.492
26700W        W94918   5.689  38.307   1.474
26701W        W94919  33.047  11.148  12.235
26702W        W94920   8.774   1.689   2.806
26703W        W94921  29.632   2.160  14.872
26704W        W94922   2.788  21.358   0.830
26705W        W94923  22.117  11.710  11.630
26706W        W94924  34.592   2.976  12.359
26707W        W94925  17.601  42.440  12.631
26708W        W94926  30.857   5.792  10.144
26709W        W94927  18.858   0.199   1.852
26710W        W94928  22.977  21.040  13.914
26711W        W94929  13.045   8.933  13.932
26712W        W94930   5.424  39.936   1.276
26713W        W94931  37.447  44.227   2.417
26714W        W94932  19.574  20.916   3.945
26715W        W94933   2.803  16.626   2.265
26716W        W94934  33.988   2.056   1.804
26717W        W94935  43.308  21.668   2.756
26718W        W94936  40.443  17.993   3.125
26719W        W94937  28.656   7.558   3.089
26720W        W94938  33.532  32.148  11.635
26721W        W94939  14.830  33.069   3.448
26722W        W94940  30.999  18.684   3.069
26723W        W94941  44.860  14.763   4.500
26724W        W94942  34.577  37.259   2.286
26725W        W94943  33.536   6.796  14.003
26726W        W94944   9.747  23.760  14.585
26727W        W94945  33.008   7.319   3.608
26728W        W94946  29.065  31.070   1.136
26729W        W94947   2.055  35.895   3.765
26730W        W94948  42.272  13.063   1.867
26731W        W94949  42.002  44.510  12.880
26732W        W94950   0.311  13.809   3.706
26733W        W94951  10.187  35.456  12.888
26734W        W94952  12.094  27.710  14.541
26735W        W94953  20.632   7.019  11.182
26736W        W94954  36.355  32.469   2.389
26737W        W94955  30.468  13.574   2.071
26738W        W94956  36.062   6.432  10.671
26739W        W94957  44.265  15.823  11.146
26740W        W94958   1.737  41.039   1.687
26741W        W94959  31.386   6.367  14.699
26742W        W94960  14.188   5.153  10.397
26743W        W94961  44.387  18.484   4.999
26744W        W94962  30.666   7.483   4.447
26745W        W94963   3.287  33.271  10.964
26746W        W94964  28.934  24.480   4.886
26747W        W94965  38.834  44.258   3.277
26748W        W94966  11.057  26.737  10.500
26749W        W94967   8.951  18.138   0.226
26750W        W94968  23.225  33.557  12.843
26751W        W94969   2.700  32.085  13.537
26752W        W94970  17.158  38.032  10.731
26753W        W94971  25.378  38.501  13.884
26754W        W94972   5.907   4.811  11.649
26755W        W94973   9.626  20.686   0.382
26756W        W94974  14.479  32.715   3.568
26757W        W94975  38.584  38.148  10.613
26758W        W94976  31.381  22.956  13.917
26759W        W94977  33.639  44.924  11.140
26760W        W94978  36.409  14.066  12.978
26761W        W94979   1.406  41.447   1.840
26762W        W94980   8.724  33.107  11.940
26763W        W94981   5.249   2.127   1.435
26764W        W94982  33.561  11.549  14.344
26765W        W94983  38.622   3.892   4.012
26766W        W94984  10.422  15.040  12.971
26767W        W94985  32.489  25.369  13.811
26768W        W94986  35.871  31.334   2.189
26769W        W94987   8.836  36.449  13.466
26770W        W94988  33.334  25.174  11.982
26771W        W94989  14.619  31.376  11.500
26772W        W94990  26.100  42.872  11.646
26773W        W94991  29.068  27.375   1.406
26774W        W94992  31.676  17.842   0.299
26775W        W94993  28.679   7.838   2.389
26776W        W94994  27.434   7.900  12.032
26777W        W94995  43.022  21.958  10.695
26778W        W94996  38.545  10.801  13.853
26779W        W94997  39.465   7.143   0.444
26780W        W94998  32.416   0.643   2.840
26781W        W94999  41.047   7.489  12.482
26782W        W95000  37.835  35.068  11.976
26783W        W95001  15.720  26.872   1.277
26784W        W95002   7.725  38.616  12.667
26785W        W95003  34.008  23.490  13.388
26786W        W95004  42.480  37.600   1.721
26787W        W95005   3.149  43.381   2.366
26788W        W95006   3.800  29.631  13.108
26789W        W95007  24.606  41.120   2.221
26790W        W95008  38.535  43.621   4.030
26791W        W95009  42.313  33.350  10.411
26792W        W95010  36.265   7.637   1.680
26793W        W95011  41.361  17.053   3.137
26794W        W95012  13.160   4.264   1.739
26795W        W95013  23.998   4.725  14.339
26796W        W95014  37.859   1.680  13.358
26797W        W95015  39.290  17.061  14.418
26798W        W95016   1.867  36.422   1.849
26799W        W95017  22.737  42.408   4.218
26800W        W95018  37.551  37.433   3.252
26801W        W95019  23.118   4.792   3.606
26802W        W95020  19.074  17.876   2.583
26803W        W95021  26.193  44.278  11.174
26804W        W95022  33.428  39.809  11.882
26805W        W95023  24.638  41.859  13.516
26806W        W95024   2.513  41.133   4.212
26807W        W95025   1.703  27.048  12.119
26808W        W95026  21.837   6.391  14.416
26809W        W95027  29.167   1.781  11.591
26810W        W95028  31.047  44.266  13.448
26811W        W95029   7.383  20.603   3.391
26812W        W95030  24.550  39.181   4.486
26813W        W95031   1.942  31.386  13.375
26814W        W95032  17.121   7.166   2.303
26815W        W95033  22.269   2.271   0.394
26816W        W95034  36.623   4.743  10.908
26817W        W95035  19.761   6.287  14.388
26818W        W95036   6.430  38.849  12.206
26819W        W95037  12.673  31.415   1.626
26820W        W95038  32.159  44.193   2.807
26821W        W95039  21.016  16.854   4.413
26822W        W95040  20.971  40.470   1.990
26823W        W95041  41.412  12.719  11.081
26824W        W95042   9.327   5.228  11.615
26825W        W95043  30.980   0.336  12.556
26826W        W95044  22.772   7.302   4.063
26827W        W95045   5.747  25.950   4.841
26828W        W95046  26.711   3.974  12.898
26829W        W95047   9.082  24.118  10.684
26830W        W95048  23.516  11.366   4.672
26831W        W95049  17.387  19.345   4.147
26832W        W95050  42.959  27.914  10.722
26833W        W95051  11.264  37.124   4.535
26834W        W95052  21.793   3.361  11.041
26835W        W95053  29.205  20.045  13.906
26836W        W95054   2.342  35.585   3.435
26837W        W95055  25.844   4.845   4.685
26838W        W95056  44.702  30.866  13.828
26839W        W95057  34.614   5.243   4.763
26840W        W95058  17.112  30.874   0.981
26841W        W95059  18.490  34.528  10.134
26842W        W95060  13.368  34.238   0.761
26843W        W95061  43.187  14.540  10.760
26844W        W95062  11.175  42.580  11.649
26845W        W95063  14.133  42.497  10.709
26846W        W95064  28.200  40.952  10.725
26847W        W95065  25.612   6.466  12.129
26848W        W95066  41.897  44.647  10.490
26849W        W95067  15.278  26.635  11.715
26850W        W95068  38.363   6.972   2.429
26851W        W95069  44.442  41.703  12.564
26852W        W95070  20.276  43.827   4.602
26853W        W95071  43.871  23.512  14.029
26854W        W95072  16.640  28.577  12.009
26855W        W95073   4.754   9.843  12.809
26856W        W95074  36.595   8.442   3.783
26857W        W95075  38.892  32.827  14.685
26858W        W95076  10.966  22.276   2.140
26859W        W95077  31.348   7.759   2.697
26860W        W95078  34.456  12.697  14.421
26861W        W95079  10.780   1.813  14.205
26862W        W95080   1.828  22.040   2.237
26863W        W95081  40.537  35.901   5.329
26864W        W95082  14.118  25.497  12.029
26865W        W95083   1.907  21.706  13.614
26866W        W95084  28.404  10.422  14.148
26867W        W95085  36.693  18.900  12.744
26868W        W95086  43.893  16.875  11.536
26869W        W95087  30.060  34.375  11.844
26870W        W95088  27.490  41.111   1.937
26871W        W95089  21.041  28.881   0.985
26872W        W95090  39.803   2.852  11.647
26873W        W95091  37.433  17.835   4.176
26874W        W95092   3.151  12.302  11.379
26875W        W95093  10.252  41.893  12.968
26876W        W95094  37.878  32.366   2.764
26877W        W95095  18.481  30.495   2.417
26878W        W95096  31.968  42.209  13.948
26879W        W95097   7.519  29.698  11.969
26880W        W95098  12.617  21.374  12.224
26881W        W95099  24.671  18.310   2.561
26882W        W95100   3.023   6.848   2.669
26883W        W95101  13.650  33.560  10.668
26884W        W95102  12.229  32.428  14.337
26885W        W95103  36.786  34.158  13.791
26886W        W95104  30.471  20.863  10.977
26887W        W95105  33.224  27.197   3.995
26888W        W95106  14.403  16.214  14.812
26889W        W95107  18.681   8.244  12.426
26890W        W95108  25.011  32.659   0.265
26891W        W95109   6.246   1.751  11.065
26892W        W95110  17.333  39.960   4.154
26893W        W95111  16.570  15.511  14.248
26894W        W95112  13.869   5.236  12.073
26895W        W95113  25.528  12.123   0.822
26896W        W95114  44.296   7.706   3.580
26897W        W95115  37.565   5.586  11.839
26898W        W95116   2.354   2.962  11.561
26899W        W95117  15.147  12.554  11.226
26900W        W95118   2.290  21.388  11.229
26901W        W95119  18.659   8.950   1.490
26902W        W95120  19.734  25.922   2.685
26903W        W95121  19.346  15.374   4.261
26904W        W95122   5.645  36.982  12.481
26905W        W95123   5.251  27.003  14.819
26906W        W95124  34.403  25.087  13.912
26907W        W95125   1.875  12.946  11.649
26908W        W95126  17.474   2.916  13.917
26909W        W95127   8.624  17.873   1.597
26910W        W95128   6.833  39.663   2.207
26911W        W95129   5.285  28.960  14.543
26912W        W95130  38.869  18.672  13.525
26913W        W95131  42.900   8.856  12.941
26914W        W95132  13.297   0.578   2.174
26915W        W95133  22.936  15.197   4.517
26916W        W95134  36.104  26.216  12.946
26917W        W95135  12.880  18.843   0.224
26918W        W95136  30.222  44.366  11.302
26919W        W95137  26.013  21.244  14.391
26920W        W95138  19.979  44.916   2.791
26921W        W95139  38.443  25.651   2.734
26922W        W95140  44.730  13.110  14.407
26923W        W95141   5.120   0.250  11.018
26924W        W95142   4.887  17.862  13.497
26925W        W95143  12.796  16.630   3.397
26926W        W95144  29.495  38.568  14.323
26927W        W95145  20.461  14.737   4.106
26928W        W95146  41.892  10.392  11.127
26929W        W95147   9.284  24.868  12.946
26930W        W95148  18.334  25.624   1.941
26931W        W95149  20.220  27.843  10.656
26932W        W95150   9.159  18.880  14.929
26933W        W95151   0.809  41.357   1.702
26934W        W95152  14.661  41.944   1.692
26935W        W95153   5.952  22.717   3.796
26936W        W95154  20.521  39.764  12.009
26937W        W95155  22.675  18.774  12.909
26938W        W95156  42.502  37.469  11.850
26939W        W95157  11.203  12.551  12.551
26940W        W95158  35.568  19.574  11.125
26941W        W95159  37.102  18.302   2.196
26942W        W95160  22.220   9.406  10.503
26943W        W95161  11.217  43.022   2.057
26944W        W95162  25.190  42.300   1.853
26945W        W95163  12.164  16.554  11.342
26946W        W95164  26.788  27.108   2.396
26947W        W95165   9.727  31.892  13.162
26948W        W95166  13.762  37.922  13.998
26949W        W95167  37.428  40.008   3.895
26950W        W95168  25.026  15.686   0.763
26951W        W95169   9.154  30.627  14.772
26952W        W95170  34.592  31.199   1.702
26953W        W95171  41.871  37.709   4.546
26954W        W95172  13.132  38.099  10.877
26955W        W95173  15.356   7.077  14.718
26956W        W95174  38.384  34.499  13.567
26957W        W95175  33.871  16.369  10.664
26958W        W95176  35.450  35.942   4.669
26959W        W95177  34.730  26.479   3.651
26960W        W95178   4.213  32.485  11.670
26961W        W95179  14.187   4.506   4.580
26962W        W95180  41.542  43.233  12.974
26963W        W95181  44.862  24.285   3.722
26964W        W95182  24.685  32.660   4.080
26965W        W95183  29.467  14.151  11.635
26966W        W95184   5.970  41.327  12.081
26967W        W95185   7.699  19.641   4.561
26968W        W95186  27.631  30.164   1.220
26969W        W95187  32.458  44.247  10.760
26970W        W95188   1.012  27.665   0.868
26971W        W95189  17.515  34.411   3.309
26972W        W95190  27.463   5.415   4.131
26973W        W95191  22.281  16.458   1.885
26974W        W95192  10.811  35.367  13.833
26975W        W95193  16.086   7.170   0.923
26976W        W95194  13.055  25.701   4.611
26977W        W95195  28.239   6.998   2.862
26978W        W95196   8.247  28.475   4.666
26979W        W95197  37.501  13.167  12.858
26980W        W95198  35.343  29.092   2.072
26981W        W95199  15.737  30.380  11.523
26982W        W95200  40.349  23.252  14.547
26983W        W95201  15.345  31.944  11.789
26984W        W95202  38.386  25.242  13.462
26985W        W95203   3.877  32.098   2.427
26986W        W95204  36.434  33.359  13.233
26987W        W95205  12.847  16.057   3.595
26988W        W95206  35.317   8.231   2.655
26989W        W95207  28.818  31.941   1.214
26990W        W95208  25.896  42.040   0.391
26991W        W95209  44.409  40.748   3.701
26992W        W95210  10.277  27.268  10.433
26993W        W95211  36.004  29.681   4.569
26994W        W95212  42.408  27.969   3.709
26995W        W95213   3.198  43.356   0.303
26996W        W95214  40.071   5.233   4.028
26997W        W95215  44.204  19.567  12.283
26998W        W95216  20.494  38.518   0.264
26999W        W95217  24.184  39.259   1.890
27000W        W95218  30.606  34.611   3.168
27001W        W95219  28.376  16.432  10.189
27002W        W95220  12.874  42.589   3.790
27003W        W95221  16.398  41.854   3.263
27004W        W95222  33.428  36.672  11.997
27005W        W95223  17.963  10.607   0.778
27006W        W95224   2.876  28.939   1.387
27007W        W95225  36.331  13.416  13.551
27008W        W95226   1.410  22.921  11.954
27009W        W95227  39.055  29.442  14.777
27010W        W95228  22.983  14.603   0.955
27011W        W95229  20.217  26.227   3.588
27012W        W95230  30.660  11.207   1.959
27013W        W95231  14.132  15.941   0.183
27014W        W95232  35.875  27.093   2.336
27015W        W95233  14.035  21.195   0.784
27016W        W95234  24.590  12.797  14.961
27017W        W95235  13.609  40.471  11.132
27018W        W95236  20.224  38.489   3.258
27019W        W95237   2.775  13.812  13.951
27020W        W95238  16.221  33.044   3.652
27021W        W95239  19.402   7.934   4.862
27022W        W95240  20.665  40.302   4.018
27023W        W95241  27.731  33.401   2.715
27024W        W95242  13.300  10.759   0.116
27025W        W95243   0.597   4.645  12.917
27026W        W95244  44.506  25.434   4.784
27027W        W95245  26.384  10.862  12.325
27028W        W95246  33.632  11.039  10.027
27029W        W95247  16.948  40.876  14.735
27030W        W95248  44.738   5.989   2.768
27031W        W95249  18.545   0.358   2.298
27032W        W95250   5.823   9.258  11.926
27033W        W95251  43.948  34.069   4.920
27034W        W95252  10.301  26.853  13.807
27035W        W95253  28.042  37.933   4.406
27036W        W95254  33.074  28.851  11.596
27037W        W95255  44.080  42.229  14.453
27038W        W95256  19.036  34.436   0.411
27039W        W95257  12.204  44.841  13.003
27040W        W95258  11.240   4.031  13.765
27041W        W95259  44.873  32.651   2.682
27042W        W95260   0.321   4.336   4.586
27043W        W95261  39.483  24.594   4.273
27044W        W95262   9.697  20.701   2.200
27045W        W95263  36.595  38.873   0.394
27046W        W95264  34.583  33.366   2.819
27047W        W95265  41.411  17.253  12.004
27048W        W95266   6.150  12.313  14.991
27049W        W95267   1.665  24.112   4.779
27050W        W95268  19.018   5.232  14.111
27051W        W95269   0.995   5.211  13.091
27052W        W95270  28.879  22.606   2.341
27053W        W95271  33.304  32.650  13.571
27054W        W95272  33.496  16.793  10.390
27055W        W95273  35.213   7.488   4.447
27056W        W95274  25.686   5.923  12.211
27057W        W95275  33.521  36.663   4.161
27058W        W95276  29.718   9.605  14.350
27059W        W95277  37.030  37.450   3.305
27060W        W95278   6.537   8.596  14.768
27061W        W95279  15.546  29.082  10.117
27062W        W95280  26.134  22.705   1.184
27063W        W95281  43.160  14.173  12.149
27064W        W95282  33.451  18.335   2.304
27065W        W95283  18.864  15.639  10.545
27066W        W95284  29.141  16.178  11.598
27067W        W95285  24.981   1.920   0.286
27068W        W95286   3.204  34.452   1.453
27069W        W95287  28.169  23.638   2.654
27070W        W95288  22.510  30.441   3.066
27071W        W95289  23.482   1.487  11.925
27072W        W95290  25.118  34.086   1.836
27073W        W95291  32.627   8.912   9.801
27074W        W95292  42.754  34.878   2.743
27075W        W95293   3.107   8.560  10.002
27076W        W95294  15.835  12.193  12.466
27077W        W95295  44.267  24.374   4.940
27078W        W95296  11.002  22.700   9.808
27079W        W95297  42.878  14.248   3.795
27080W        W95298  20.141  43.761   3.240
27081W        W95299  18.262  21.469  14.718
27082W        W95300  19.658  12.903   3.361
27083W        W95301   5.932  38.827   1.762
27084W        W95302  27.311  31.681  10.979
27085W        W95303  10.286  16.242   1.786
27086W        W95304   9.753  21.004   0.836
27087W        W95305  34.389   1.456   3.383
27088W        W95306  33.026  30.040  12.606
27089W        W95307  43.016  24.623   0.696
27090W        W95308  17.099   3.241   1.438
27091W        W95309  42.981  14.575   0.069
27092W        W95310   6.397  16.158   3.618
27093W        W95311  39.373  12.715  11.571
27094W        W95312  22.247  19.498  11.149
27095W        W95313  14.119  42.437   3.816
27096W        W95314  20.072  40.380   1.547
27097W        W95315   3.912  35.515  14.317
27098W        W95316  25.530   4.419  11.256
27099W        W95317  19.625   4.014   4.061
27100W        W95318  39.963  43.497  12.822
27101W        W95319  25.509  31.684   3.798
27102W        W95320  29.944  41.870   3.165
27103W        W95321   8.030  42.276   2.725
27104W        W95322  12.941   3.450  11.559
27105W        W95323  22.997  11.866   1.251
27106W        W95324  12.276   3.922   1.836
27107W        W95325  30.923  43.339  10.374
27108W        W95326   8.608  38.300  13.801
27109W        W95327  15.068  17.332   4.497
27110W        W95328  26.769   9.560  12.836
27111W        W95329  38.728  38.071   3.744
27112W        W95330   8.935  17.288   3.159
27113W        W95331  16.390  41.631  10.735
27114W        W95332  15.614  10.360  13.587
27115W        W95333  13.002  43.851  10.267
27116W        W95334  25.014  43.626  11.083
27117W        W95335  35.973  29.661  10.547
27118W        W95336  37.080  34.650  14.850
27119W        W95337  23.765  18.617   1.767
27120W        W95338   8.183  33.490   0.374
27121W        W95339  33.649  34.203   3.710
27122W        W95340  29.680  41.265  12.043
27123W        W95341  11.663  10.817   4.220
27124W        W95342  21.207   8.212   4.144
27125W        W95343  36.260  16.249   0.118
27126W        W95344  20.740  33.032   4.933
27127W        W95345   7.272  16.907   3.548
27128W        W95346  31.900  42.432   2.881
27129W        W95347  28.464  34.453  10.981
27130W        W95348  10.628  21.115  10.511
27131W        W95349  12.084  11.261   4.200
27132W        W95350  38.406  18.037   1.739
27133W        W95351  16.588  31.135   0.380
27134W        W95352  11.700  19.040   0.958
27135W        W95353  32.460  21.618  13.305
27136W        W95354  13.194   8.813   2.121
27137W        W95355  21.040  31.843  14.026
27138W        W95356  39.465  36.892  12.001
27139W        W95357  16.180  10.455   9.944
27140W        W95358  24.528  38.869  12.942
27141W        W95359  15.988   3.266  10.871
27142W        W95360  40.798  44.856   2.348
27143W        W95361  41.852  32.096   2.295
27144W        W95362   7.837  36.297  13.435
27145W        W95363  42.983   7.539   0.448
27146W        W95364   3.564  39.507  11.050
27147W        W95365  42.092  21.942   2.068
27148W        W95366  15.153  20.319  11.131
27149W        W95367  37.824  30.093   2.251
27150W        W95368   7.341   0.051  13.846
27151W        W95369   6.784  15.762   4.244
27152W        W95370  42.978  28.703   1.958
27153W        W95371  19.447  43.841   2.233
27154W        W95372  38.828  35.842  10.690
27155W        W95373  29.091   2.485  13.918
27156W        W95374  16.578  44.856  12.670
27157W        W95375   2.919  13.048  10.701
27158W        W95376   8.419  12.334  12.447
27159W        W95377  12.658   6.372  14.407
27160W        W95378   1.899   3.178   4.528
27161W        W95379  15.258  12.581  12.040
27162W        W95380   7.460   7.263   3.556
27163W        W95381  22.614  34.921  11.143
27164W        W95382  11.886   3.298   3.646
27165W        W95383   7.447  23.604  14.958
27166W        W95384  21.644  18.253  13.732
27167W        W95385  25.647  43.135  11.514
27168W        W95386  34.381  24.434   3.659
27169W        W95387  32.051  39.541   2.783
27170W        W95388  33.755   9.302   0.816
27171W        W95389  18.141  19.113  12.337
27172W        W95390   2.292   7.276  13.458
27173W        W95391  30.549  43.132  10.674
27174W        W95392  13.843  37.595   1.478
27175W        W95393   1.758  25.526  11.196
27176W        W95394   8.693  27.873   3.151
27177W        W95395  42.343  14.565   3.262
27178W        W95396  33.147   3.517   2.280
27179W        W95397  42.181  34.973   2.364
27180W        W95398  32.521  29.270  12.526
27181W        W95399  20.490  13.778   1.344
27182W        W95400   4.845   6.644   2.699
27183W        W95401  44.317  37.871  14.442
27184W        W95402  36.143  38.812  14.617
27185W        W95403  22.645  18.279   2.329
27186W        W95404  16.676   6.734   4.908
27187W        W95405  28.008  12.721  13.853
27188W        W95406  23.491  38.526  11.198
27189W        W95407   3.762  15.896  10.529
27190W        W95408  38.560  10.066   1.950
27191W        W95409  15.775  21.586  11.074
27192W        W95410   7.981  29.028   4.148
27193W        W95411   2.228  22.368  12.087
27194W        W95412   8.486   2.179   4.144
27195W        W95413  10.686  14.023  12.955
27196W        W95414  22.042   7.237  14.886
27197W        W95415  29.396  11.925   4.121
27198W        W95416  16.830  18.155  13.587
27199W        W95417   1.368   4.687   1.780
27200W        W95418  29.071  18.182   0.920
27201W        W95419  12.086   6.866   2.405
27202W        W95420   9.786  35.143  10.646
27203W        W95421   2.791  23.602  12.606
27204W        W95422  34.601   4.456  11.348
27205W        W95423  35.719  34.017   2.870
27206W        W95424   7.134  13.639   2.232
27207W        W95425  35.492  24.285  13.335
27208W        W95426   9.739  30.431   1.471
27209W        W95427  29.166  12.928  14.895
27210W        W95428   2.974  39.795   4.129
27211W        W95429  32.712  24.863   2.439
27212W        W95430  30.413  28.438   4.844
27213W        W95431  16.664  10.658   2.176
27214W        W95432  35.000  36.097   3.877
27215W        W95433  30.600  16.879   0.291
27216W        W95434   8.152  31.600   0.803
27217W        W95435  12.309  34.996  11.505
27218W        W95436  38.451  25.447   4.678
27219W        W95437  43.427  25.591   1.537
27220W        W95438  29.082  13.422   2.599
27221W        W95439  36.381  32.924  13.938
27222W        W95440  14.314  44.353  11.201
27223W        W95441  21.542  12.823  13.571
27224W        W95442  33.365  10.302   1.345
27225W        W95443  17.084  22.880   4.702
27226W        W95444   9.853  40.384   1.022
27227W        W95445  40.021  26.769   1.661
27228W        W95446   1.467  44.419  10.479
27229W        W95447  34.592  41.792  13.947
27230W        W95448  22.691  25.091  10.403
27231W        W95449   9.905  39.975   3.693
27232W        W95450   2.559  17.609   0.766
27233W        W95451  36.632  29.399  11.540
27234W        W95452   4.812  26.509  12.071
27235W        W95453  36.920  30.915   1.840
27236W        W95454   6.185  12.245   3.737
27237W        W95455  38.888  24.935  12.645
27238W        W95456  24.542  33.022  10.291
27239W        W95457  17.492   2.332   2.311
27240W        W95458  13.639  13.756  14.326
27241W        W95459  23.527  13.581  14.950
27242W        W95460  13.857  23.555  10.773
27243W        W95461  34.486  19.616   0.518
27244W        W95462  17.120   8.662  10.126
27245W        W95463  13.313  10.391   3.814
27246W        W95464  26.182  35.529  13.330
27247W        W95465  20.337  17.423  13.336
27248W        W95466  40.799  38.026  13.842
27249W        W95467  21.053   1.325   3.816
27250W        W95468   3.861  39.820   3.834
27251W        W95469  25.155  27.909   3.577
27252W        W95470   8.778   8.164  14.355
27253W        W95471  13.295  37.611  10.707
27254W        W95472  30.510  17.108  10.928
27255W        W95473  42.774  39.686   1.347
27256W        W95474  43.475  38.547  10.738
27257W        W95475  19.273  18.417  11.144
27258W        W95476  25.832  40.991   1.149
27259W        W95477   7.164  40.569  14.595
27260W        W95478  28.341  39.642  12.006
27261W        W95479  40.797  14.900   3.678
27262W        W95480  41.898  11.620  14.892
27263W        W95481  43.146  25.476   2.934
27264W        W95482  31.621  42.693  13.989
27265W        W95483  21.765  16.079   0.857
27266W        W95484   2.410  37.211   4.264
27267W        W95485  32.036  34.638   3.128
27268W        W95486  19.803  18.488   4.471
27269W        W95487  34.585   2.450  14.603
27270W        W95488   9.322   7.407   4.664
27271W        W95489  43.308  35.037  13.047
27272W        W95490  28.629  25.059   2.438
27273W        W95491   4.471  11.142   3.166
27274W        W95492  21.718  41.228   1.921
27275W        W95493   4.912   2.835  14.953
27276W        W95494  27.468  27.808  12.403
27277W        W95495  27.853  33.460  10.270
27278W        W95496  23.692  43.502  14.006
27279W        W95497   9.153  32.472   0.436
27280W        W95498  16.154  14.347   3.571
27281W        W95499   5.300   4.340   2.263
27282W        W95500  36.839  40.622  14.836
27283W        W95501  23.258  40.361  11.168
27284W        W95502  20.242  22.541   0.142
27285W        W95503  15.850   2.238   0.265
27286W        W95504  39.249  10.306  11.099
27287W        W95505  31.150  24.257   9.910
27288W        W95506   8.266   8.698  12.991
27289W        W95507  29.488  32.859   2.296
27290W        W95508  40.405   8.615   1.296
27291W        W95509  24.164  20.477  13.455
27292W        W95510  43.813  13.710   2.883
27293W        W95511  43.833   7.698   4.270
27294W        W95512   8.868  14.687   4.449
27295W        W95513  31.647   9.909  11.074
27296W        W95514  13.651  12.291   0.819
27297W        W95515  15.136   3.287   2.381
27298W        W95516  12.816  17.599   1.349
27299W        W95517   6.124  11.791  10.391
27300W        W95518  36.893  24.791   4.686
27301W        W95519  34.604  35.812   4.197
27302W        W95520   2.939  16.381   3.408
27303W        W95521   3.245  16.088   1.318
27304W        W95522  11.587  11.211  11.647
27305W        W95523  19.438  16.572   0.755
27306W        W95524   0.206   3.462   0.957
27307W        W95525  23.451  24.717  13.955
27308W        W95526  12.255  20.032  12.687
27309W        W95527  17.008  21.624   2.668
27310W        W95528  16.222  35.393  14.583
27311W        W95529  21.210  13.284  10.397
27312W        W95530  11.108   5.853  11.201
27313W        W95531  12.361  32.937  14.079
27314W        W95532  22.621  40.120  14.801
27315W        W95533  37.251  25.940  10.817
27316W        W95534   3.755  17.670  14.689
27317W        W95535  30.433  32.334  12.946
27318W        W95536  30.094  32.011  10.142
27319W        W95537  43.141  41.582  11.004
27320W        W95538   8.271  28.264   1.067
27321W        W95539   1.641  10.771   4.548
27322W        W95540   8.975  29.008  11.530
27323W        W95541  17.130   4.699   3.741
27324W        W95542  42.086  16.612  14.877
27325W        W95543  17.530   0.513  12.055
27326W        W95544  43.787  34.913  13.229
27327W        W95545  11.064  31.342   3.301
27328W        W95546  33.946  31.851  11.429
27329W        W95547  24.983  30.534  10.525
27330W        W95548  43.559  14.066   2.593
27331W        W95549   5.002   1.211   2.967
27332W        W95550  16.719  24.175  14.244
27333W        W95551   1.974  15.772   3.285
27334W        W95552   0.984  25.465   1.328
27335W        W95553  37.448  30.004  14.039
27336W        W95554  34.166  19.011  14.883
27337W        W95555  16.204   8.512   4.762
27338W        W95556  36.490   2.885   4.186
27339W        W95557  34.611  27.643  11.438
27340W        W95558  18.310  19.285   4.923
27341W        W95559  25.072  36.224   5.119
27342W        W95560  43.916  44.783  11.877
27343W        W95561  43.873  41.857   0.175
27344W        W95562  41.937  20.537   3.382
27345W        W95563  40.635  41.446   4.148
27346W        W95564  12.144   2.730   2.327
27347W        W95565   7.191  14.091  13.439
27348W        W95566  21.174  16.671   3.355
27349W        W95567   2.164  18.170  12.079
27350W        W95568  11.226  30.874  13.714
27351W        W95569   6.774  33.355   2.851
27352W        W95570   1.299  22.562   0.936
27353W        W95571   4.304  18.224   2.687
27354W        W95572  41.876  40.935  11.077
27355W        W95573  18.222  11.043   0.702
27356W        W95574  35.201  33.825   2.346
27357W        W95575  44.699  34.480  14.960
27358W        W95576   6.259   4.151  14.835
27359W        W95577  10.263  40.883  10.508
27360W        W95578  31.540  17.146   3.902
27361W        W95579  14.509  14.617  13.124
27362W        W95580  11.039  20.186   1.233
27363W        W95581  28.467   3.606   2.343
27364W        W95582  22.063  32.995  14.388
27365W        W95583  30.137  19.339  11.195
27366W        W95584  28.107   6.587  11.571
27367W        W95585  22.761  27.750  11.961
27368W        W95586  33.162  40.582   3.806
27369W        W95587   1.790  34.183  13.369
27370W        W95588   6.757  20.475  10.676
27371W        W95589   1.243  44.953  12.316
27372W        W95590  25.010   8.250   1.716
27373W        W95591  12.734  39.166   4.710
27374W        W95592   8.820  23.595  11.240
27375W        W95593   2.898   9.665  11.587
27376W        W95594  14.707  21.806  14.665
27377W        W95595   9.463  29.064   2.309
27378W        W95596  18.378  34.515   2.975
27379W        W95597  37.009  43.282   0.055
27380W        W95598  19.272  37.756   2.341
27381W        W95599  37.555  14.610   1.748
27382W        W95600  42.824   9.067  14.785
27383W        W95601  38.900  30.420   4.652
27384W        W95602  14.483  33.397  12.299
27385W        W95603  13.474  24.577  10.649
27386W        W95604  31.018  19.317  13.391
27387W        W95605   9.092  38.842   1.160
27388W        W95606  23.486  33.860  11.978
27389W        W95607  24.231  44.285  13.014
27390W        W95608  19.524  35.430  14.722
27391W        W95609  25.152   2.154   2.330
27392W        W95610  27.960  29.713   3.407
27393W        W95611  40.291   5.790   0.817
27394W        W95612  16.358  15.061   3.101
27395W        W95613  42.482  14.174   4.218
27396W        W95614   8.694   0.690   4.169
27397W        W95615  23.394   1.460   0.246
27398W        W95616  19.271  10.278   4.144
27399W        W95617  15.046  24.467   3.718
27400W        W95618  15.890  16.106   2.699
27401W        W95619  30.411  36.496   0.983
27402W        W95620  19.776   6.996   4.461
27403W        W95621  17.844  16.815  11.040
27404W        W95622  31.037  35.882  12.537
27405W        W95623  28.505  27.447   2.713
27406W        W95624   6.442  40.676   3.129
27407W        W95625  29.495   2.891   2.847
27408W        W95626  20.019   3.667  11.134
27409W        W95627   7.963  22.241  12.612
27410W        W95628   3.764  20.418  12.741
27411W        W95629  39.904  36.053   2.943
27412W        W95630  26.002  12.691  11.586
27413W        W95631  17.267  43.185   0.293
27414W        W95632  43.482  30.564  10.414
27415W        W95633  18.269  13.320   2.762
27416W        W95634  24.402  22.734  12.475
27417W        W95635  37.617  34.580  12.070
27418W        W95636  25.520  24.208   0.725
27419W        W95637  41.114  24.695   0.757
27420W        W95638  43.407   2.819  12.631
27421W        W95639  11.581   3.969  10.651
27422W        W95640  14.635  11.226   4.097
27423W        W95641  35.142   2.463   0.725
27424W        W95642   0.648  10.383   0.506
27425W        W95643  29.617   9.746  11.640
27426W        W95644  27.302  36.664   2.019
27427W        W95645  21.733   9.757   0.542
27428W        W95646  43.330  39.964  14.714
27429W        W95647  12.164  37.618   3.188
27430W        W95648   7.717  17.233  14.297
27431W        W95649   3.668  16.813  10.703
27432W        W95650  30.933  10.512  13.390
27433W        W95651  15.584  22.974   0.865
27434W        W95652  35.427  22.770   1.329
27435W        W95653  33.964  43.784  14.692
27436W        W95654  15.056  35.099   4.619
27437W        W95655  40.253   1.362   2.232
27438W        W95656  28.485  38.914  13.723
27439W        W95657  21.052   1.905  11.524
27440W        W95658  20.671   1.302   1.718
27441W        W95659  44.688  11.792   4.144
27442W        W95660   8.196  24.258   2.974
27443W        W95661   2.189  19.251  12.785
27444W        W95662  41.576  44.325   2.456
27445W        W95663  38.875  35.293   3.714
27446W        W95664   1.442   8.173  12.813
27447W        W95665  13.839  39.493  14.832
27448W        W95666   6.611  15.913   1.389
27449W        W95667  16.680  11.154   2.020
27450W        W95668  16.748   1.503  10.972
27451W        W95669   2.394   7.952  10.720
27452W        W95670  17.249  22.126   3.814
27453W        W95671  36.926  14.186  13.586
27454W        W95672  37.581   5.482   4.130
27455W        W95673  33.056  43.831  13.516
27456W        W95674  22.753  19.323  12.539
27457W        W95675  34.023  41.547   4.610
27458W        W95676   0.609  28.703  10.304
27459W        W95677  38.396  21.775   2.721
27460W        W95678  16.114  26.856  13.131
27461W        W95679  28.729  20.982   4.069
27462W        W95680  31.557  16.735   4.630
27463W        W95681  43.594  40.228  11.411
27464W        W95682   0.615  44.315   3.409
27465W        W95683  10.264  35.167   3.661
27466W        W95684   9.805  42.815   4.803
27467W        W95685  42.524  32.743  12.678
27468W        W95686   5.652  29.075  10.714
27469W        W95687   4.849  32.032   3.281
27470W        W95688  40.373  38.548   1.451
27471W        W95689  39.441  37.420   2.075
27472W        W95690  25.994  42.451   2.596
27473W        W95691   1.918  37.682  10.261
27474W        W95692   7.350   4.047   1.215
27475W        W95693  39.423  41.560  12.378
27476W        W95694  25.590   8.157  14.269
27477W        W95695   2.312   9.110   1.073
27478W        W95696  44.218  17.103   0.447
27479W        W95697   9.574  35.767   3.820
27480W        W95698  43.270  14.562  13.004
27481W        W95699  37.595   1.508   2.873
27482W        W95700  11.114  22.125   1.272
27483W        W95701  43.793  14.206   3.590
27484W        W95702  33.050  10.908   0.055
27485W        W95703   7.203  37.782  13.907
27486W        W95704  27.125  20.639   0.773
27487W        W95705  42.762   9.747  14.553
27488W        W95706  14.174  32.308   3.555
27489W        W95707  25.567  19.345  12.586
27490W        W95708   4.719  14.549   3.166
27491W        W95709  40.347  34.132  13.752
27492W        W95710  20.141  39.252  10.633
27493W        W95711  17.650  14.536  13.077
27494W        W95712  42.347  16.112  12.082
27495W        W95713  11.284  27.528   4.448
27496W        W95714   8.850  40.406  10.247
27497W        W95715  10.354  43.762  12.052
27498W        W95716   5.703   6.443   4.737
27499W        W95717  17.778  30.020   4.089
27500W        W95718  43.934  11.161   1.364
27501W        W95719  16.769  17.825   2.115
27502W        W95720  42.520   5.229  14.452
27503W        W95721  12.155  19.093  13.065
27504W        W95722   0.770  10.273  14.586
27505W        W95723  13.345  18.523  11.295
27506W        W95724  30.190   2.487   3.707
27507W        W95725  31.571   8.191  11.713
27508W        W95726  18.024  21.942  14.920
27509W        W95727  17.576   7.496   0.307
27510W        W95728  14.168   9.622  11.697
27511W        W95729  15.351  36.180   0.235
27512W        W95730  32.608   1.404   0.776
27513W        W95731   7.840  37.735  12.016
27514W        W95732  33.386  40.987  12.292
27515W        W95733  22.571  39.450  12.172
27516W        W95734   3.316  34.227  13.253
27517W        W95735  39.152  16.908  14.880
27518W        W95736  11.988  16.532   4.465
27519W        W95737  21.311  16.834   0.867
27520W        W95738  40.907  32.227  12.085
27521W        W95739  36.332  15.140  13.860
27522W        W95740  12.015  20.103  14.477
27523W        W95741  23.076   3.260  12.037
27524W        W95742   1.258   7.090  14.943
27525W        W95743   0.756   8.139   3.351
27526W        W95744  14.216  33.426   2.912
27527W        W95745   2.712  20.576   4.546
27528W        W95746   6.768  15.833   0.876
27529W        W95747  39.994  39.920  10.898
27530W        W95748  38.512  12.154   4.612
27531W        W95749  17.238   9.660  14.480
27532W        W95750   8.357   7.876   2.882
27533W        W95751  26.759  38.375  10.719
27534W        W95752  31.072  34.773   2.265
27535W        W95753  15.172  35.577   4.425
27536W        W95754   2.754  11.406   4.147
27537W        W95755  14.023  10.163  12.404
27538W        W95756  41.273  21.150   0.435
27539W        W95757  43.089  31.313   0.315
27540W        W95758   5.807  21.969  14.890
27541W        W95759  21.019  20.869   1.256
27542W        W95760  32.888  37.580   3.449
27543W        W95761   1.391  32.017   4.256
27544W        W95762  10.154  10.788  10.192
27545W        W95763  28.484  33.115   3.235
27546W        W95764   5.324  28.981  14.020
27547W        W95765   3.540  38.049   4.131
27548W        W95766  29.950  15.529   3.713
27549W        W95767  40.171  22.955  11.075
27550W        W95768  17.460   0.951   3.100
27551W        W95769  37.026  44.503   3.951
27552W        W95770  17.939  26.654  14.344
27553W        W95771  22.482  28.574  11.643
27554W        W95772  32.676  39.892  14.186
27555W        W95773   6.870  20.578   2.133
27556W        W95774  22.984  11.301   3.799
27557W        W95775  19.079  26.939  12.120
27558W        W95776   4.989  22.745   1.781
27559W        W95777  43.750  32.019   0.327
27560W        W95778  34.826  38.319  12.884
27561W        W95779  31.928   6.136   4.745
27562W        W95780  33.306  23.792   0.792
27563W        W95781  32.469   3.460   0.909
27564W        W95782   2.910  26.152   0.178
27565W        W95783  12.421  26.928  13.968
27566W        W95784  26.226  41.758   1.260
27567W        W95785  40.264  21.968  10.948
27568W        W95786  23.297  37.439   3.207
27569W        W95787   7.775  38.233  11.865
27570W        W95788  12.428  26.778  12.600
27571W        W95789  41.262  35.281  13.869
27572W        W95790  37.414   3.253  13.811
27573W        W95791  30.257  11.841  11.412
27574W        W95792  28.722   7.127   3.391
27575W        W95793  31.001  40.522  14.902
27576W        W95794  39.352   9.661   3.992
27577W        W95795   0.504  44.365  12.458
27578W        W95796   7.690  10.280   4.701
27579W        W95797   4.897   3.029  12.164
27580W        W95798   2.323  34.873  11.445
27581W        W95799   2.760   0.751   2.073
27582W        W95800   5.402  27.539   2.075
27583W        W95801   5.250  32.624  13.181
27584W        W95802  26.423  21.138   9.980
27585W        W95803  17.828  26.175   1.414
27586W        W95804   4.814  11.851   4.556
27587W        W95805  16.555  10.231   4.650
27588W        W95806   5.793  42.828   0.493
27589W        W95807  27.730   2.906  11.099
27590W        W95808   0.981  17.902   3.088
27591W        W95809  25.519  44.920   0.645
27592W        W95810  33.991   9.779   0.711
27593W        W95811  36.781  27.977   0.719
27594W        W95812  39.413  17.561   0.325
27595W        W95813  41.929  16.748   1.330
27596W        W95814  36.291  27.587  12.828
27597W        W95815   1.956  39.434   1.015
27598W        W95816  13.699  17.247  10.559
27599W        W95817   9.268  32.742  14.990
27600W        W95818  10.161  32.450   1.278
27601W        W95819  19.675   5.933   4.521
27602W        W95820  20.651  15.579  10.068
27603W        W95821  37.412  42.025   0.707
27604W        W95822  13.218   6.044   3.296
27605W        W95823  34.074   4.554   5.019
27606W        W95824  21.836  38.014  12.039
27607W        W95825   1.093  18.759   1.255
27608W        W95826  27.275   6.318   3.189
27609W        W95827   4.856  35.878  11.911
27610W        W95828  26.556  29.650   2.718
27611W        W95829  27.778  27.604  13.502
27612W        W95830  35.060   1.564  14.309
27613W        W95831  30.123  23.465  13.056
27614W        W95832   7.720   2.307   1.209
27615W        W95833  40.425  14.654  11.716
27616W        W95834  34.952  22.772  11.999
27617W        W95835   3.574   7.184  11.266
27618W        W95836   5.730  13.137  12.656
27619W        W95837  40.887  24.517  10.662
27620W        W95838  30.722  18.222  11.874
27621W        W95839   9.350   3.177   1.491
27622W        W95840  35.911  32.144  12.466
27623W        W95841   7.933   3.599  12.843
27624W        W95842   8.692   5.664  12.627
27625W        W95843   6.008  18.050   1.374
27626W        W95844   2.832  41.553  14.455
27627W        W95845  12.912   2.330  13.417
27628W        W95846   3.322  31.461  11.039
27629W        W95847   0.909  36.835  14.754
27630W        W95848  32.506  36.948  11.860
27631W        W95849  18.922   1.466   2.953
27632W        W95850  34.530   9.665  14.803
27633W        W95851  17.183   7.879  11.164
27634W        W95852   8.087  34.644   3.618
27635W        W95853  10.308  36.570   0.743
27636W        W95854   2.691  25.390   2.858
27637W        W95855  43.902  42.279  10.709
27638W        W95856  14.859  27.468  13.627
27639W        W95857   3.504  30.513   0.313
27640W        W95858  18.238   4.491  10.696
27641W        W95859   3.014  19.154   4.595
27642W        W95860  34.735  38.704  12.087
27643W        W95861  10.222  24.551  12.684
27644W        W95862  16.096  13.656   4.046
27645W        W95863   3.970   1.436   2.700
27646W        W95864  28.598   3.239   0.346
27647W        W95865  41.058  10.320  10.460
27648W        W95866   3.941  21.554   3.623
27649W        W95867  21.514   7.859  14.405
27650W        W95868  20.164  10.837   0.685
27651W        W95869  29.601  33.532  13.168
27652W        W95870  15.193   0.814  13.575
27653W        W95871   7.724  25.163  13.019
27654W        W95872  12.155   5.743   4.355
27655W        W95873  20.737  39.391   1.288
27656W        W95874  33.177  16.686   0.107
27657W        W95875  20.898  41.578   4.161
27658W        W95876   2.205  16.285  12.580
27659W        W95877  19.153   6.317   1.847
27660W        W95878  32.465  15.204  12.149
27661W        W95879   6.016  44.612   0.477
27662W        W95880  42.166  30.574  13.359
27663W        W95881   2.345  37.044  12.879
27664W        W95882  44.951  39.990   4.518
27665W        W95883   8.847  17.102   3.995
27666W        W95884  29.799  23.515   1.034
27667W        W95885  12.739   9.110   2.231
27668W        W95886  40.952   3.225  13.097
27669W        W95887  40.963  10.900  11.689
27670W        W95888   0.805   7.963   1.993
27671W        W95889   9.144  41.420  13.585
27672W        W95890   8.177  40.825   9.691
27673W        W95891  13.754  41.479  14.898
27674W        W95892  42.567  14.572  11.579
27675W        W95893  31.609  24.051   2.299
27676W        W95894  39.604  17.580  13.914
27677W        W95895   0.075  44.684   2.295
27678W        W95896  37.520  34.835  11.616
27679W        W95897  27.173  33.999   2.394
27680W        W95898  16.806  32.374  12.665
27681W        W95899  27.588  29.723  11.956
27682W        W95900  44.081  23.911  12.085
27683W        W95901   2.687  31.759   3.366
27684W        W95902  15.027  25.411  11.060
27685W        W95903   1.014  13.208  11.622
27686W        W95904   8.441  31.937  11.078
27687W        W95905  28.926  11.210   2.813
27688W        W95906   2.212  10.813   2.443
27689W        W95907  34.411  21.289  14.977
27690W        W95908   4.004  31.518   0.931
27691W        W95909   3.799   8.174   4.577
27692W        W95910  15.128  28.025  11.055
27693W        W95911   8.258  35.221   1.663
27694W        W95912  32.996   9.030  14.273
27695W        W95913  23.920  19.666   0.788
27696W        W95914  22.841   8.750  12.512
27697W        W95915  14.721   3.666   1.634
27698W        W95916  34.228  11.299   1.799
27699W        W95917  26.970  38.525  11.169
27700W        W95918  32.053  20.568  14.713
27701W        W95919  18.599  42.783  11.909
27702W        W95920  10.278  12.181   3.619
27703W        W95921  26.193  41.358  11.999
27704W        W95922  23.642  13.584   3.313
27705W        W95923  22.281  27.814  10.924
27706W        W95924   0.519  25.373  10.301
27707W        W95925   7.836  37.867   1.372
27708W        W95926  19.201  19.566   2.913
27709W        W95927   6.863   2.730  12.481
27710W        W95928  35.375  38.246   0.257
27711W        W95929   4.625  31.098  10.217
27712W        W95930  18.615  34.203  14.799
27713W        W95931  18.256  26.526   0.840
27714W        W95932  20.646   2.188  11.592
27715W        W95933  27.954   0.696   2.455
27716W        W95934   5.721  17.087  12.578
27717W        W95935  44.718  30.676  11.143
27718W        W95936  25.583   0.642  11.668
27719W        W95937  21.578   0.911   2.093
27720W        W95938  42.315  38.313  12.489
27721W        W95939   2.430  40.471   3.425
27722W        W95940   0.151   9.729  12.382
27723W        W95941  38.978  25.012   2.604
27724W        W95942  36.732  21.738   0.060
27725W        W95943  36.378  40.848  10.794
27726W        W95944   6.212  29.492   4.454
27727W        W95945  11.311   3.477   2.766
27728W        W95946  13.348  36.375   0.407
27729W        W95947  14.877  12.327  11.620
27730W        W95948  11.822  36.486  14.929
27731W        W95949  11.674  29.579  13.029
27732W        W95950  24.538   5.777  11.144
27733W        W95951  38.262  42.900   5.129
27734W        W95952  17.548  37.039  10.781
27735W        W95953  24.439   4.801   3.349
27736W        W95954  43.304  23.549  12.662
27737W        W95955  43.043   0.358  12.157
27738W        W95956  25.324  18.764   1.037
27739W        W95957   7.242  19.216  12.240
27740W        W95958  29.058  29.046  11.608
27741W        W95959  28.086  27.825  12.719
27742W        W95960  18.277  18.129  11.131
27743W        W95961  43.401   4.052   0.326
27744W        W95962  19.229  39.551  11.123
27745W        W95963   1.917   5.740   2.063
27746W        W95964   5.875  16.504   2.343
27747W        W95965   2.494  27.632  11.156
27748W        W95966  19.282   2.438  12.898
27749W        W95967  44.593  10.296   1.661
27750W        W95968  43.010  44.906  10.314
27751W        W95969  32.968  11.111   1.333
27752W        W95970  34.038  13.361   1.388
27753W        W95971   1.756  18.700   4.873
27754W        W95972   9.396  40.869   4.560
27755W        W95973  29.689  28.856   3.583
27756W        W95974  17.997  44.866  11.976
27757W        W95975  25.847   9.112   2.934
27758W        W95976  35.353  20.267  14.288
27759W        W95977  12.235  14.078   0.925
27760W        W95978   6.583  38.932  11.550
27761W        W95979  34.629  36.753   2.352
27762W        W95980  32.527  33.577  13.986
27763W        W95981  30.242   5.925  14.482
27764W        W95982  29.342   1.182  14.938
27765W        W95983  31.613  25.733  12.526
27766W        W95984  36.623  43.117   0.361
27767W        W95985  41.402  24.232   1.764
27768W        W95986   1.956  20.203  13.870
27769W        W95987   2.137  19.484   4.728
27770W        W95988  16.151  36.949   0.913
27771W        W95989   8.168   2.331  11.683
27772W        W95990  39.001  40.729   4.550
27773W        W95991  43.805  28.471   0.325
27774W        W95992   5.445  24.063   3.776
27775W        W95993  24.598   9.882  11.571
27776W        W95994   2.714  27.031  11.883
27777W        W95995  30.304  15.481   9.790
27778W        W95996  22.074  30.160  14.303
27779W        W95997   7.137  31.033  13.864
27780W        W95998  41.302  37.450   3.393
27781W        W95999  23.646  28.075  12.297
27782W        W96000  22.228   5.686   1.641
27783W        W96001  29.024  13.670   0.466
27784W        W96002  26.958  26.664  11.433
27785W        W96003  38.721  17.799   2.084
27786W        W96004  42.835  13.780  11.457
27787W        W96005  30.902  14.820  11.443
27788W        W96006   2.086   7.325   0.449
27789W        W96007  40.577  11.720   3.939
27790W        W96008  42.317  29.716  12.158
27791W        W96009   7.856  37.862  11.515
27792W        W96010  30.973  34.092  14.077
27793W        W96011  44.955  40.393  10.805
27794W        W96012  26.841  18.567  14.701
27795W        W96013  29.757  24.716   0.957
27796W        W96014  13.651  43.699   3.156
27797W        W96015   8.442  36.004  12.151
27798W        W96016   5.384  10.327   1.484
27799W        W96017  24.559  31.884   4.080
27800W        W96018  21.553  26.688   0.898
27801W        W96019  29.441  13.893   0.220
27802W        W96020  17.039  24.648  13.979
27803W        W96021  41.964   5.315   3.084
27804W        W96022  21.237  24.498   0.566
27805W        W96023  27.110  37.360  12.303
27806W        W96024  14.630  12.896  14.525
27807W        W96025  32.560   8.193  13.912
27808W        W96026  37.861  25.061   0.288
27809W        W96027  39.422  13.128  11.290
27810W        W96028  23.862  10.661   1.765
27811W        W96029   8.434  19.001   0.299
27812W        W96030  14.767  10.733   2.766
27813W        W96031   8.856  23.285  10.443
27814W        W96032  27.641  21.607  13.772
27815W        W96033  39.856  16.778   2.272
27816W        W96034  13.815   5.957  11.586
27817W        W96035   2.420  22.746   2.230
27818W        W96036  25.802  44.153   4.170
27819W        W96037  36.596  42.729   1.874
27820W        W96038  10.620  42.421  13.905
27821W        W96039   4.359  36.035  10.649
27822W        W96040  34.056  41.072   2.262
27823W        W96041  36.866  13.136   2.256
27824W        W96042   2.911   7.944   1.274
27825W        W96043   6.306   8.356  14.336
27826W        W96044  33.497   3.980   9.947
27827W        W96045   7.956  28.951   3.214
27828W        W96046  40.797  15.106   1.984
27829W        W96047  20.221  28.586   3.305
27830W        W96048  15.747  23.497  12.674
27831W        W96049  20.641  27.561  10.744
27832W        W96050  26.952  27.934   1.834
27833W        W96051  33.481  17.699   1.327
27834W        W96052   0.234  25.180   3.144
27835W        W96053  18.220  43.666   1.664
27836W        W96054  32.250  34.951   0.420
27837W        W96055  20.248  42.905  10.705
27838W        W96056   0.426   5.910   0.292
27839W        W96057  33.719  28.959  13.786
27840W        W96058   1.851  12.216  10.475
27841W        W96059  14.619   3.224   3.692
27842W        W96060   8.359  13.071   2.765
27843W        W96061  37.303   4.301  11.756
27844W        W96062  33.341  37.980  10.591
27845W        W96063  10.799  41.757  11.639
27846W        W96064  24.293   5.792   4.657
27847W        W96065  30.552   2.497  11.544
27848W        W96066  38.883  37.590  11.592
27849W        W96067  13.166  24.178  14.972
27850W        W96068  37.808  38.505  11.025
27851W        W96069   3.356  25.470  13.778
27852W        W96070   0.157  24.133  12.462
27853W        W96071  34.035   8.235   0.366
27854W        W96072  16.594  11.796   3.413
27855W        W96073   9.349  22.120   4.221
27856W        W96074  13.365  30.838  12.223
27857W        W96075  12.263   5.711   3.817
27858W        W96076   9.242   6.340  13.851
27859W        W96077  12.183  23.874   0.375
27860W        W96078   5.255   8.312   0.564
27861W        W96079  38.533  13.610   1.284
27862W        W96080  26.569  39.314   2.150
27863W        W96081  17.952  36.678  12.032
27864W        W96082   9.926  40.841   2.779
27865W        W96083  14.810  28.498  13.820
27866W        W96084  12.115  41.151  14.505
27867W        W96085  17.672   7.995  13.788
27868W        W96086  12.848  40.046  10.483
27869W        W96087  40.769   8.051  14.714
27870W        W96088  25.936  21.025  10.820
27871W        W96089  22.686  38.407  11.952
27872W        W96090  13.382  33.326   1.107
27873W        W96091  20.751  43.241   1.375
27874W        W96092  34.450   6.086  10.496
27875W        W96093  43.823  24.530   1.056
27876W        W96094  37.817  19.592   4.604
27877W        W96095  40.251  27.899  10.352
27878W        W96096  15.138  29.429  13.503
27879W        W96097  23.791  37.587  12.226
27880W        W96098   8.975   3.255   2.484
27881W        W96099   4.223  19.713   4.172
27882W        W96100  21.973   1.816   4.581
27883W        W96101  24.052  11.213  11.747
27884W        W96102  34.990  18.658  12.737
27885W        W96103  28.185  38.085   0.467
27886W        W96104   4.784  39.896  11.348
27887W        W96105  23.693  14.344  14.801
27888W        W96106   8.248  21.080  11.066
27889W        W96107  13.208  15.815   1.337
27890W        W96108  43.237   9.756   1.761
27891W        W96109   8.538  24.067  13.157
27892W        W96110   0.671  13.149   1.796
27893W        W96111   8.761  24.073   0.021
27894W        W96112   8.812  31.613  12.188
27895W        W96113  43.722  10.197   0.064
27896W        W96114  30.953  38.571  11.296
27897W        W96115  30.528  38.256  12.934
27898W        W96116   3.348  13.830   3.578
27899W        W96117  42.324  41.729   0.784
27900W        W96118  36.105  42.297   4.091
27901W        W96119  25.536  27.036  14.805
27902W        W96120   5.949  31.480  10.467
27903W        W96121  24.639  32.983  14.454
27904W        W96122   7.654  29.962  13.670
27905W        W96123  16.238  33.363  13.266
27906W        W96124  29.400  28.691  13.562
27907W        W96125  30.052   8.828   1.696
27908W        W96126   6.421  36.509  12.438
27909W        W96127   6.961   7.690   0.274
27910W        W96128  21.132  13.197   2.617
27911W        W96129  28.461  18.362  11.038
27912W        W96130   0.116  39.360  14.497
27913W        W96131   4.813  14.325   1.330
27914W        W96132  13.226   8.088  10.700
27915W        W96133  13.162  32.663   4.095
27916W        W96134  15.887  25.885   2.778
27917W        W96135  34.673  27.411   3.561
27918W        W96136   3.718  28.442   2.502
27919W        W96137  11.613  38.607  12.965
27920W        W96138  29.036  25.732  13.934
27921W        W96139   7.912   8.225  14.458
27922W        W96140   4.580  24.223   3.662
27923W        W96141  23.230  25.185  14.070
27924W        W96142  22.128  39.260  12.984
27925W        W96143  31.097  15.194   2.260
27926W        W96144  11.031  31.843   3.077
27927W        W96145  20.988  27.047  12.541
27928W        W96146  35.354  21.102   3.334
27929W        W96147  14.736   8.103   2.989
27930W        W96148   7.932  30.330   4.118
27931W        W96149  44.772   5.407  10.930
27932W        W96150  13.327  20.183   2.405
27933W        W96151  43.134  20.637  13.526
27934W        W96152  13.076   6.698  13.967
27935W        W96153  43.410  43.862   0.322
27936W        W96154  29.084  10.181  13.983
27937W        W96155   3.910  10.926   0.364
27938W        W96156  18.357  38.728   3.232
27939W        W96157   8.899   9.335  12.816
27940W        W96158  18.630  29.146   3.747
27941W        W96159  11.533  22.125  11.537
27942W        W96160   6.721  21.910  13.745
27943W        W96161  23.757  34.008   4.547
27944W        W96162  36.974   3.287   2.730
27945W        W96163  40.260  42.447  13.072
27946W        W96164  24.527  17.195   1.425
27947W        W96165   0.011  23.636  14.609
27948W        W96166  36.937   7.966   2.277
27949W        W96167  40.338  23.346  13.105
27950W        W96168   6.341  44.458  12.025
27951W        W96169  29.360   5.367  11.786
27952W        W96170  43.995   0.323   0.920
27953W        W96171  32.069  43.955   3.328
27954W        W96172  12.248   0.310  12.820
27955W        W96173   6.574   0.388  14.456
27956W        W96174  25.214  31.386  13.014
27957W        W96175  38.416  24.520  13.975
27958W        W96176  28.390   3.298  13.828
27959W        W96177   0.475  18.046   2.789
27960W        W96178   8.069   3.398  14.563
27961W        W96179  11.384  44.923  10.467
27962W        W96180   5.848  13.119  14.013
27963W        W96181  20.574  27.069   1.189
27964W        W96182  20.166  28.651   0.828
27965W        W96183  26.672  14.226  14.928
27966W        W96184  36.324  29.097  13.862
27967W        W96185  26.477  37.142  11.129
27968W        W96186   6.865  34.952  10.952
27969W        W96187  35.119  32.994  12.841
27970W        W96188  21.565  26.133   2.330
27971W        W96189  31.968   4.672  11.384
27972W        W96190   5.665  42.761   2.421
27973W        W96191  29.566  17.281   1.305
27974W        W96192   9.611   1.355   0.969
27975W        W96193  12.089  36.563   2.213
27976W        W96194  10.712  19.333   3.208
27977W        W96195  18.043  42.887   0.685
27978W        W96196  36.395   0.491  13.301
27979W        W96197   3.680  25.525   4.348
27980W        W96198   8.353  32.467  11.091
27981W        W96199  11.421   2.266  11.058
27982W        W96200  14.842   2.536  12.969
27983W        W96201  24.011  11.821   1.213
27984W        W96202   6.317  24.391   3.122
27985W        W96203  11.586  16.323  13.022
27986W        W96204  29.136  23.011  10.749
27987W        W96205  19.344   3.978  12.989
27988W        W96206  22.218  22.556   0.714
27989W        W96207  20.241   1.301   3.346
27990W        W96208  17.850   9.234   3.663
27991W        W96209  44.728  24.039  10.714
27992W        W96210   7.276   3.025  12.033
27993W        W96211  21.167  31.184   1.916
27994W        W96212  14.835  10.842   1.765
27995W        W96213   6.601   9.486   0.868
27996W        W96214  25.677   8.183  11.082
27997W        W96215  44.002  39.299   1.298
27998W        W96216  23.441  38.062  13.877
27999W        W96217  44.200  36.535  12.026
28000W        W96218   6.733   9.702   4.171
28001W        W96219  14.370   7.016   3.342
28002W        W96220  11.551  13.989   4.582
28003W        W96221  11.620  23.279  13.450
28004W        W96222   3.501  29.533  11.738
28005W        W96223  23.568  26.113  14.955
28006W        W96224   2.905  10.497   0.783
28007W        W96225   7.275   7.878  11.551
28008W        W96226  30.096  28.387   2.771
28009W        W96227  19.017   2.742  10.993
28010W        W96228  16.725  12.869   4.234
28011W        W96229  23.753  17.883  14.965
28012W        W96230  17.125  40.483   2.677
28013W        W96231  12.712  37.002   2.694
28014W        W96232  34.814  27.566   2.632
28015W        W96233   9.258  30.115  12.527
28016W        W96234   7.638   0.934  12.499
28017W        W96235   2.298  40.893   4.635
28018W        W96236  30.925  41.828   1.321
28019W        W96237  44.431  40.264   1.347
28020W        W96238  32.705  38.354  10.997
28021W        W96239  21.551   2.564   2.602
28022W        W96240  28.398   2.322   2.902
28023W        W96241  15.543  13.766   0.662
28024W        W96242  10.904  25.979   0.901
28025W        W96243  38.242  13.379  13.522
28026W        W96244  16.264  25.531   1.895
28027W        W96245  22.760  36.643  12.647
28028W        W96246   1.765  27.917   0.253
28029W        W96247   4.463  23.285   3.285
28030W        W96248  13.178  21.232  10.707
28031W        W96249   2.499  32.951  10.464
28032W        W96250  27.175  18.150  10.801
28033W        W96251  16.183  11.581  10.318
28034W        W96252  34.494  34.540  13.461
28035W        W96253   7.925   4.272  10.569
28036W        W96254  41.110  13.193  14.494
28037W        W96255   4.423  23.605   2.880
28038W        W96256  38.663  16.587  13.867
28039W        W96257  25.705  24.533   3.232
28040W        W96258  11.769  12.342   0.665
28041W        W96259  35.582  21.724  13.237
28042W        W96260   7.975  36.845  14.279
28043W        W96261  17.296  20.521  11.052
28044W        W96262   1.348  15.017   3.710
28045W        W96263  39.303  15.866  13.054
28046W        W96264  20.496  23.517  13.639
28047W        W96265  32.891  39.317   2.253
28048W        W96266  15.179  23.424   3.742
28049W        W96267  32.644  26.861   2.523
28050W        W96268  38.861  40.017   3.724
28051W        W96269  14.249  36.486  10.651
28052W        W96270  25.719  43.959   2.226
28053W        W96271   5.835  18.710   1.670
28054W        W96272   4.624  32.082  13.871
28055W        W96273  26.916  11.785  14.350
28056W        W96274   3.412  26.565  12.396
28057W        W96275  10.902   6.096   1.542
28058W        W96276  35.765  23.050  14.255
28059W        W96277   4.524  37.083  12.951
28060W        W96278  25.638   2.738  12.507
28061W        W96279  22.387  19.802   5.043
28062W        W96280  29.473   2.778  14.133
28063W        W96281  20.353  15.199  14.731
28064W        W96282  10.100  25.393  10.471
28065W        W96283  18.195   3.243  12.410
28066W        W96284  25.790   9.813   1.316
28067W        W96285  16.381  42.838  14.246
28068W        W96286  23.596  37.103   2.267
28069W        W96287  11.269  36.442  14.273
28070W        W96288  30.451   3.750  14.357
28071W        W96289  31.923  21.647   1.485
28072W        W96290  18.165  36.191  14.409
28073W        W96291  24.627  39.566  12.603
28074W        W96292   7.747   0.865   4.164
28075W        W96293  27.502  32.401  13.626
28076W        W96294  14.160  32.864  10.171
28077W        W96295  18.886  11.172  13.281
28078W        W96296  26.047   4.464   2.718
28079W        W96297  13.800   8.600  11.158
28080W        W96298  23.366  26.612  14.832
28081W        W96299  27.384   5.078   3.745
28082W        W96300  41.827  17.698   3.386
28083W        W96301  40.728  24.967  10.946
28084W        W96302  25.263   2.380  13.842
28085W        W96303  18.311  23.123  11.914
28086W        W96304  32.363  23.448   0.700
28087W        W96305  25.735   0.450  12.993
28088W        W96306  25.126   3.081  11.133
28089W        W96307  41.859  43.890  11.589
28090W        W96308  14.306   8.280  11.986
28091W        W96309  19.335  31.417  12.776
28092W        W96310   8.123  16.258  14.411
28093W        W96311  20.128  33.499  11.813
28094W        W96312  19.798   9.917  11.942
28095W        W96313  44.306   4.290  14.926
28096W        W96314  42.285   8.464  13.485
28097W        W96315   3.203   4.847   3.069
28098W        W96316  36.999  15.333   0.876
28099W        W96317  22.065  29.887   4.868
28100W        W96318  11.807  26.710   3.396
28101W        W96319  35.930  23.566  14.339
28102W        W96320  17.476  22.614   3.622
28103W        W96321  40.798  13.047  10.583
28104W        W96322  43.297  13.755  11.171
28105W        W96323  32.900  35.156   1.925
28106W        W96324  35.593  29.575   2.849
28107W        W96325  12.219  25.797  12.547
28108W        W96326  19.566  25.962  12.186
28109W        W96327   8.612  19.279  14.468
28110W        W96328  28.675   2.187  13.772
28111W        W96329  36.365   1.258   2.306
28112W        W96330  34.501  14.675  10.703
28113W        W96331  18.384   5.821   1.677
28114W        W96332  41.023  19.402  10.793
28115W        W96333   6.007   6.713  12.525
28116W        W96334   7.072  41.453  13.058
28117W        W96335   2.719  26.988  14.457
28118W        W96336   4.927   1.414   1.836
28119W        W96337  32.008   2.884  14.915
28120W        W96338  20.717  39.994   2.907
28121W        W96339  34.126  27.151  14.826
28122W        W96340  35.154  20.914   4.228
28123W        W96341  22.722  16.636   3.711
28124W        W96342  16.673  35.822  11.160
28125W        W96343  37.611  41.066  13.948
28126W        W96344   0.437  34.157   2.087
28127W        W96345  14.202  18.718  11.748
28128W        W96346  42.230   1.532  11.534
28129W        W96347  22.506  24.648   0.020
28130W        W96348  40.518  13.125  11.972
28131W        W96349  13.596  21.646  13.138
28132W        W96350  28.117   5.420   2.206
28133W        W96351   6.391  43.124  11.068
28134W        W96352   2.174  38.902  13.417
28135W        W96353  43.896   2.485   0.721
28136W        W96354   6.587  44.796  14.851
28137W        W96355  28.608  42.700  13.867
28138W        W96356  32.819  28.495  12.584
28139W        W96357  27.863  20.669   0.767
28140W        W96358  14.910   7.696   0.903
28141W        W96359  44.780   1.066   2.828
28142W        W96360   3.203  28.687  12.213
28143W        W96361  40.120  33.968  12.359
28144W        W96362  42.100  33.566   2.566
28145W        W96363   2.336  13.676   4.312
28146W        W96364  33.112  11.745   4.507
28147W        W96365  26.729  42.792   3.685
28148W        W96366  39.091  29.045   4.183
28149W        W96367  33.547  32.877   3.388
28150W        W96368  14.162  23.668   1.011
28151W        W96369  11.740   0.778   4.061
28152W        W96370   7.827   0.357  13.661
28153W        W96371  35.404  40.275   0.096
28154W        W96372  44.840  43.980   4.331
28155W        W96373  31.090  44.509  12.846
28156W        W96374  38.893   3.710  14.614
28157W        W96375  42.916  29.484   1.328
28158W        W96376  13.890  38.613  13.391
28159W        W96377  15.766   8.644  10.539
28160W        W96378   2.284  22.321  12.591
28161W        W96379   0.391  44.658   0.026
28162W        W96380  11.112  21.612  12.383
28163W        W96381  17.682  31.938   4.534
28164W        W96382  15.577  42.255  12.331
28165W        W96383  34.352  16.249   3.756
28166W        W96384   6.107   1.285  14.336
28167W        W96385  39.980   1.214   1.785
28168W        W96386   7.213  31.918   0.280
28169W        W96387  22.514   0.225   4.134
28170W        W96388  29.168  13.327  12.009
28171W        W96389  16.809  26.103   0.271
28172W        W96390   3.597  19.067   4.525
28173W        W96391  17.222  30.906   1.497
28174W        W96392   0.930  32.582   3.193
28175W        W96393  33.906  21.215  13.843
28176W        W96394  37.702   7.713  11.213
28177W        W96395  21.078   5.166  13.805
28178W        W96396  38.340  36.896  13.303
28179W        W96397  44.789  14.942  13.910
28180W        W96398  15.246  11.146   0.481
28181W        W96399   7.664  23.111   1.207
28182W        W96400  44.543  38.950   3.336
28183W        W96401  26.960   1.246   4.175
28184W        W96402  30.130  21.080  14.396
28185W        W96403  13.913  25.995  10.992
28186W        W96404  40.400  38.146   4.558
28187W        W96405  28.459  38.667  12.880
28188W        W96406  14.759  31.576  12.796
28189W        W96407  19.992  35.006   3.852
28190W        W96408  22.325  40.546  14.715
28191W        W96409   9.340  39.877   4.586
28192W        W96410  39.546  14.655  13.956
28193W        W96411  44.337  24.000   1.902
28194W        W96412  35.390  26.143   1.242
28195W        W96413  25.718  25.500   3.175
28196W        W96414  39.283   1.978  13.474
28197W        W96415  35.092  32.994  13.349
28198W        W96416  30.032  41.448   1.215
28199W        W96417   1.955   4.631  12.798
28200W        W96418  43.515  23.647   4.518
28201W        W96419   2.397   3.461  11.590
28202W        W96420  34.852   5.312  11.871
28203W        W96421  22.849  14.701  10.523
28204W        W96422  17.751  30.373  14.342
28205W        W96423  17.022  25.240  10.323
28206W        W96424  21.200  39.568  11.102
28207W        W96425  13.221  18.738  13.552
28208W        W96426  41.100  41.218   0.259
28209W        W96427  25.245  42.882  14.588
28210W        W96428  29.195  13.404   0.880
28211W        W96429  41.359   0.762   0.463
28212W        W96430  39.497  22.600  10.759
28213W        W96431  11.948  14.856   2.358
28214W        W96432  36.469  15.829  14.468
28215W        W96433  21.461  17.730   1.373
28216W        W96434  13.381  18.360  10.804
28217W        W96435  34.393  16.524   3.335
28218W        W96436  43.998  18.192   0.972
28219W        W96437  39.541  39.906  13.757
28220W        W96438   8.591  42.912  14.408
28221W        W96439  16.922  31.462  13.538
28222W        W96440  38.036  26.511  11.215
28223W        W96441   9.087  10.208   9.852
28224W        W96442  15.636   3.392   0.898
28225W        W96443  12.105  23.539  11.407
28226W        W96444  36.201  28.833   5.359
28227W        W96445  44.717  41.459  13.984
28228W        W96446  35.526  41.437   1.903
28229W        W96447  29.124  33.527   1.157
28230W        W96448   5.618  12.691  14.191
28231W        W96449  42.229  17.383   0.324
28232W        W96450  19.958  23.524   0.679
28233W        W96451  22.653   6.280  10.738
28234W        W96452   2.410  33.532   2.682
28235W        W96453  19.670   4.007   3.211
28236W        W96454   1.520  32.461  13.866
28237W        W96455  13.857  10.217  14.831
28238W        W96456  16.104   5.138   3.400
28239W        W96457  20.167  16.880   2.322
28240W        W96458  26.030   0.966   1.044
28241W        W96459  12.150  44.268   4.185
28242W        W96460  10.857  14.972  14.027
28243W        W96461  40.418   4.167  12.571
28244W        W96462  32.351  41.534  10.232
28245W        W96463  43.312  30.756  14.015
28246W        W96464   1.301   1.365  11.444
28247W        W96465  32.559   6.846   2.869
28248W        W96466   5.445  25.776  11.947
28249W        W96467  29.471  41.508   0.916
28250W        W96468  20.751  12.104  13.614
28251W        W96469  35.472  38.576   4.740
28252W        W96470   8.530  34.239  12.187
28253W        W96471  22.040  33.922   3.365
28254W        W96472  16.416   4.660   0.775
28255W        W96473  23.674  18.298  14.001
28256W        W96474  41.041   3.165  10.311
28257W        W96475  43.002  10.129   5.364
28258W        W96476  19.421  29.418   2.175
28259W        W96477   0.757  26.541   2.448
28260W        W96478  35.842   8.375   1.427
28261W        W96479  43.297  39.804  13.700
28262W        W96480  39.074  28.733   3.779
28263W        W96481  41.504   7.960   0.704
28264W        W96482   5.107   4.337  14.475
28265W        W96483  31.931   4.446  14.878
28266W        W96484  44.281  19.106   0.353
28267W        W96485   5.404  44.295   2.278
28268W        W96486  32.817   7.276  14.953
28269W        W96487   2.500   1.821  14.752
28270W        W96488   3.980  33.430  14.489
28271W        W96489  36.105  35.286   2.313
28272W        W96490   1.998  41.900  14.310
28273W        W96491  12.347   8.425   3.565
28274W        W96492  17.402   3.702   3.261
28275W        W96493   3.855   8.050  14.887
28276W        W96494  40.621   5.451   2.995
28277W        W96495   6.171  25.468   3.269
28278W        W96496  31.579   7.634   0.572
28279W        W96497  22.270  35.618  12.322
28280W        W96498  29.544  24.726   2.736
28281W        W96499   8.273   3.916  11.533
28282W        W96500   8.278  39.063  13.298
28283W        W96501  18.528  34.242   2.563
28284W        W96502  44.103  42.205  13.325
28285W        W96503  37.931  34.002   2.535
28286W        W96504  32.843   4.342  14.762
28287W        W96505  26.097   4.727  13.374
28288W        W96506  23.745  41.278   1.404
28289W        W96507  40.065   7.222  13.337
28290W        W96508  25.582  22.105  10.211
28291W        W96509   8.732  35.350  11.123
28292W        W96510  32.071   1.782  13.991
28293W        W96511  10.365  26.005   0.856
28294W        W96512  32.176  38.311   4.159
28295W        W96513  34.774  41.363  11.885
28296W        W96514   4.919   5.288   0.833
28297W        W96515  18.077   8.184  14.720
28298W        W96516  31.086  36.603  13.129
28299W        W96517   7.650  43.559  13.706
28300W        W96518  40.027  18.267   1.909
28301W        W96519  12.431  14.448  11.202
28302W        W96520   7.649  20.561  11.628
28303W        W96521  11.277  16.832   4.768
28304W        W96522   2.389   3.377  10.241
28305W        W96523  44.557  34.678   0.484
28306W        W96524  37.042   5.169   4.121
28307W        W96525  29.856  39.470  10.539
28308W        W96526  11.348  21.247   0.327
28309W        W96527   9.744  19.300  11.637
28310W        W96528  28.694  24.756  13.447
28311W        W96529   6.832  27.428   1.107
28312W        W96530  34.508  10.655   3.189
28313W        W96531  18.361  21.969   4.552
28314W        W96532  44.816  30.508   4.167
28315W        W96533  41.079  19.786  11.615
28316W        W96534  14.695  32.083  12.631
28317W        W96535  25.264  30.994   5.010
28318W        W96536  35.351   0.948  10.161
28319W        W96537  42.371   1.356   1.389
28320W        W96538  16.644  17.689  14.336
28321W        W96539  33.103  29.373  11.530
28322W        W96540  12.606  41.625  11.449
28323W        W96541   1.300  36.889   2.400
28324W        W96542  12.467  37.410   0.910
28325W        W96543  43.926  38.544  12.019
28326W        W96544  40.139   0.190   2.836
28327W        W96545  36.321  19.123  13.519
28328W        W96546  30.985  23.323   1.377
28329W        W96547  39.411  27.527   3.872
28330W        W96548  37.538  40.517   3.646
28331W        W96549   0.997  27.874   1.343
28332W        W96550  18.780  32.921  10.808
28333W        W96551  16.165  30.155   2.486
28334W        W96552  11.128   6.205   4.290
28335W        W96553  25.677  42.351   4.264
28336W        W96554  26.058   0.762   2.048
28337W        W96555  16.351  10.618   3.714
28338W        W96556  21.949  28.084  12.127
28339W        W96557  14.186   5.696   1.322
28340W        W96558  31.353  15.739   0.452
28341W        W96559   9.366  34.539  12.732
28342W        W96560  12.166  22.615   3.912
28343W        W96561  42.847  12.687  12.194
28344W        W96562  41.319  32.856  10.706
28345W        W96563  37.615  36.073  14.751
28346W        W96564   7.288  23.097   0.843
28347W        W96565  21.193   4.393   0.760
28348W        W96566   2.848  21.024   4.300
28349W        W96567  24.206  43.773   2.826
28350W        W96568  18.219   6.969  13.597
28351W        W96569  36.511  19.257   2.885
28352W        W96570   3.868  41.971   2.762
28353W        W96571  36.354  33.154  11.058
28354W        W96572  27.148  44.527   3.350
28355W        W96573  38.088  21.256  14.474
28356W        W96574  22.673  31.850   3.263
28357W        W96575   6.659   4.806  11.100
28358W        W96576  36.583  44.994   4.749
28359W        W96577  42.996  43.619   5.017
28360W        W96578  28.962  40.946  14.976
28361W        W96579  44.290  15.294  11.165
28362W        W96580  37.405  40.756  11.727
28363W        W96581  39.405  35.713   0.908
28364W        W96582  35.575  15.857  13.932
28365W        W96583   1.219  10.877  12.505
28366W        W96584  38.107   9.316   2.013
28367W        W96585  40.018  40.772  12.444
28368W        W96586  33.217  19.872   1.118
28369W        W96587  42.604  43.493  12.584
28370W        W96588  10.425   8.105   3.260
28371W        W96589  12.582  18.490   0.448
28372W        W96590   9.791  27.967   1.720
28373W        W96591  11.213   5.324   1.761
28374W        W96592  24.091  12.892   2.149
28375W        W96593  31.556  37.933  13.060
28376W        W96594   1.395   7.723   1.908
28377W        W96595   4.477  31.235   3.413
28378W        W96596  22.682  20.546   2.648
28379W        W96597   9.251  19.070   5.200
28380W        W96598   2.842  10.077   3.655
28381W        W96599  32.641   1.149   2.698
28382W        W96600  23.972  22.450  12.470
28383W        W96601  30.081  39.490   0.836
28384W        W96602  44.388  41.023  13.884
28385W        W96603  13.133  19.807  14.393
28386W        W96604  25.055  27.947  11.332
28387W        W96605  10.776  31.355  13.074
28388W        W96606  14.208  32.460   0.274
28389W        W96607  22.340  38.503   1.981
28390W        W96608  44.775  43.257   2.487
28391W        W96609  31.125  31.238   0.848
28392W        W96610  18.225  37.609   0.685
28393W        W96611  39.921  27.118   2.113
28394W        W96612  10.158   8.389  12.107
28395W        W96613  14.700   0.041  11.649
28396W        W96614   4.237  28.045   1.893
28397W        W96615  29.960  21.707   3.336
28398W        W96616  18.854  38.365  13.891
28399W        W96617  11.078   5.318  11.781
28400W        W96618  33.178  31.966  12.476
28401W        W96619  31.559  28.598  10.643
28402W        W96620  28.200  39.331  13.827
28403W        W96621  34.709  12.574  10.616
28404W        W96622   1.697  40.216   0.385
28405W        W96623  13.543  38.981  13.358
28406W        W96624  33.098   1.416   2.280
28407W        W96625   2.697  13.080  11.154
28408W        W96626  37.325  23.091   1.263
28409W        W96627  43.585  30.596   1.983
28410W        W96628   7.066  42.317  14.688
28411W        W96629  17.936   6.498  10.670
28412W        W96630  10.500  34.618  13.398
28413W        W96631   4.336  37.422   3.887
28414W        W96632  28.174   5.740   3.864
28415W        W96633  33.596  19.113  14.015
28416W        W96634  39.477  35.850   2.742
28417W        W96635   8.870   1.492   3.651
28418W        W96636  41.063   4.963   2.199
28419W        W96637  35.772  29.268   4.116
28420W        W96638  30.738  41.784   4.602
28421W        W96639   7.684  13.383   2.765
28422W        W96640  16.365  10.255   1.779
28423W        W96641  43.956  40.510  10.330
28424W        W96642  33.049   2.854  13.906
28425W        W96643  10.139  25.726  13.321
28426W        W96644   5.021  19.152  14.337
28427W        W96645  11.422  14.694  12.358
28428W        W96646  12.515  30.212   2.466
28429W        W96647  10.766  20.741  14.819
28430W        W96648  29.676  12.157  13.089
28431W        W96649  27.737  22.357  14.886
28432W        W96650   7.814  44.803  10.922
28433W        W96651  39.298  18.732   4.701
28434W        W96652   3.847   8.321   1.417
28435W        W96653  21.237  22.714   1.433
28436W        W96654  25.084   4.897  10.597
28437W        W96655   1.788   8.785   0.371
28438W        W96656  33.684  42.640   3.907
28439W        W96657  10.893   9.612  13.036
28440W        W96658  37.861   7.669  10.725
28441W        W96659  12.364  20.578   4.580
28442W        W96660  41.691  18.824  10.024
28443W        W96661  24.620  35.488  13.117
28444W        W96662  26.722   9.969  11.995
28445W        W96663  27.053   0.702  10.699
28446W        W96664  29.344  31.510   4.070
28447W        W96665   0.469  32.869   3.222
28448W        W96666   1.709  39.796   2.318
28449W        W96667  10.283  14.598  10.709
28450W        W96668  44.212   0.922   2.353
28451W        W96669  16.567  20.265  10.978
28452W        W96670  31.485   8.208   3.563
28453W        W96671  32.487  19.328  12.020
28454W        W96672  34.895   5.686   4.850
28455W        W96673   7.153  30.473  14.928
28456W        W96674  39.273  25.475   4.928
28457W        W96675  18.232  39.928  14.934
28458W        W96676  15.488  10.122   2.633
28459W        W96677  20.947  31.373   3.267
28460W        W96678  20.222  24.261  14.427
28461W        W96679  33.573  40.249  11.066
28462W        W96680  10.756  17.804  11.575
28463W        W96681  10.712  36.227  11.603
28464W        W96682  30.122   7.943  14.742
28465W        W96683  29.493   9.849  13.929
28466W        W96684  30.370   8.387  11.234
28467W        W96685  27.040  14.094  11.589
28468W        W96686  14.169  18.179  11.573
28469W        W96687  36.909  33.102  13.918
28470W        W96688  34.753  41.967  12.895
28471W        W96689  38.474  14.722   0.019
28472W        W96690   2.044  17.565  11.186
28473W        W96691  42.375  36.129  14.530
28474W        W96692  20.745   0.984   2.612
28475W        W96693   8.411   3.444   3.309
28476W        W96694  25.644  14.222  11.124
28477W        W96695  18.572  23.689   3.667
28478W        W96696  35.169  30.703   4.591
28479W        W96697  43.316  14.406   0.397
28480W        W96698   3.657  15.055  14.045
28481W        W96699   4.344  25.986   2.246
28482W        W96700   2.844  12.425   4.451
28483W        W96701  23.871   1.985   0.960
28484W        W96702  30.059   2.872   5.017
28485W        W96703   3.710  37.853  10.682
28486W        W96704  11.392   0.808  10.257
28487W        W96705   4.065  17.152  14.525
28488W        W96706  20.407  11.695   2.250
28489W        W96707   6.141  44.927   2.213
28490W        W96708  16.024  18.374   2.217
28491W        W96709  20.059   6.802   3.722
28492W        W96710  17.496  11.887   4.365
28493W        W96711  25.941  26.178   4.323
28494W        W96712  18.432  35.879   4.558
28495W        W96713  34.353   4.874  10.195
28496W        W96714  32.411  26.361  13.904
28497W        W96715  16.275  38.210   3.358
28498W        W96716  42.354  20.311  13.365
28499W        W96717  22.556   6.526   0.914
28500W        W96718  17.541  37.013   1.764
28501W        W96719  13.781  29.048  10.793
28502W        W96720  16.533  17.710  13.587
28503W        W96721  19.986  28.258  14.304
28504W        W96722  16.171  33.706   1.237
28505W        W96723  33.569  38.942  12.908
28506W        W96724  38.001   1.599   4.994
28507W        W96725   7.449  20.536  12.109
28508W        W96726  40.359  18.582  13.997
28509W        W96727  40.796  30.026   1.027
28510W        W96728   3.400  13.021  12.903
28511W        W96729   1.505  30.095  11.663
28512W        W96730  20.351  41.789   2.381
28513W        W96731  31.452  10.248  13.890
28514W        W96732  28.985   8.332  14.480
28515W        W96733  21.123  40.580  11.081
28516W        W96734   5.351  41.233  11.898
28517W        W96735  12.155   6.294  10.727
28518W        W96736  39.829  44.381  11.178
28519W        W96737  33.668   9.749   4.588
28520W        W96738   6.718  26.446   4.542
28521W        W96739  25.217   8.465  14.442
28522W        W96740  43.022  11.634   3.757
28523W        W96741  40.699   1.570  11.678
28524W        W96742  36.124  35.049   3.174
28525W        W96743  38.461  16.750  11.759
28526W        W96744  36.108  33.540  14.572
28527W        W96745   2.415  25.867  12.485
28528W        W96746  10.347  20.226   0.862
28529W        W96747  41.582  30.434  11.190
28530W        W96748  30.007  41.625  12.933
28531W        W96749   0.232  38.103  13.486
28532W        W96750  36.755  40.745   4.146
28533W        W96751  32.048  27.158  12.914
28534W        W96752  38.226  34.499   3.770
28535W        W96753  21.765  37.968   2.517
28536W        W96754  38.959   9.958  14.848
28537W        W96755  13.393   9.397   0.281
28538W        W96756  10.938  43.944  13.828
28539W        W96757  35.837  15.603   3.276
28540W        W96758  23.954  39.398   1.258
28541W        W96759  35.074  37.573  13.453
28542W        W96760  36.663  22.210   2.197
28543W        W96761  16.771  17.321  10.521
28544W        W96762  19.782  12.402   3.540
28545W        W96763  31.979  10.215   1.897
28546W        W96764   1.430   7.111   2.828
28547W        W96765  14.705  30.945   2.611
28548W        W96766   6.924  32.830  13.422
28549W        W96767   1.721   0.265   0.257
28550W        W96768  41.614  21.968  13.963
28551W        W96769  13.713   4.143   3.136
28552W        W96770  23.794  26.689   1.739
28553W        W96771  36.900  21.068   9.819
28554W        W96772  16.430  20.472  12.188
28555W        W96773  17.058  17.216   4.207
28556W        W96774  12.191  19.553   0.790
28557W        W96775  17.962  15.262  14.480
28558W        W96776   0.390  28.940  12.845
28559W        W96777  10.829  12.352   0.953
28560W        W96778  32.266  15.219   2.877
28561W        W96779  22.786  44.768   4.098
28562W        W96780  43.015  43.033   3.660
28563W        W96781  42.892  37.134  13.875
28564W        W96782   3.223   1.783  11.585
28565W        W96783  33.363  20.620  11.720
28566W        W96784  31.525  17.879   0.795
28567W        W96785  31.515  13.151   4.262
28568W        W96786  37.064  40.820  14.343
28569W        W96787  40.802   9.506   3.099
28570W        W96788  36.855  31.780  10.759
28571W        W96789  44.457   5.169  11.282
28572W        W96790   8.949  13.380  10.725
28573W        W96791  33.671  43.304   2.814
28574W        W96792  43.746  10.872  10.765
28575W        W96793  29.610  17.070   4.829
28576W        W96794  21.459  31.731   9.848
28577W        W96795   2.798   8.992  14.365
28578W        W96796  25.435   8.639  13.984
28579W        W96797  26.708  16.514   1.723
28580W        W96798  19.089  26.931   4.762
28581W        W96799  40.191   3.934  14.831
28582W        W96800  40.473  27.580   4.770
28583W        W96801  42.389  16.081  11.242
28584W        W96802  11.368   6.722  13.719
28585W        W96803   2.819  11.819   0.929
28586W        W96804  13.619  23.011   3.752
28587W        W96805  11.840  13.614   3.679
28588W        W96806  13.229  19.026  13.098
28589W        W96807   2.501  16.564  13.220
28590W        W96808  32.531  11.210   4.352
28591W        W96809  18.812  39.818  12.573
28592W        W96810  15.361  31.369   0.947
28593W        W96811  43.661   0.493  14.400
28594W        W96812  27.551  23.551   3.187
28595W        W96813  30.982  43.140   4.210
28596W        W96814  35.381  21.541  11.753
28597W        W96815  43.954  36.688  13.026
28598W        W96816   6.432  26.636  12.596
28599W        W96817  42.404  19.815  14.785
28600W        W96818  36.211   4.720   3.813
28601W        W96819  39.039  41.631  14.358
28602W        W96820   2.222  27.032  12.061
28603W        W96821  24.633  28.111  14.315
28604W        W96822  19.654   8.733  13.063
28605W        W96823  31.167   3.295   1.399
28606W        W96824  31.441  41.669  12.851
28607W        W96825  30.941  27.468  13.330
28608W        W96826   2.625  16.745   4.730
28609W        W96827  12.304  34.242  13.911
28610W        W96828  27.978  44.877   1.437
28611W        W96829   5.862   7.813  12.898
28612W        W96830  34.545  16.859  13.079
28613W        W96831   1.340  12.596  11.030
28614W        W96832  26.983  18.673  12.051
28615W        W96833  12.133  37.147  10.382
28616W        W96834  31.531  10.206  12.421
28617W        W96835  38.404  14.798   3.799
28618W        W96836  18.413  33.575   1.310
28619W        W96837   1.095   7.699   1.468
28620W        W96838  32.539  14.584   0.538
28621W        W96839  44.065  30.466   4.577
28622W        W96840  15.255  11.641  12.011
28623W        W96841  16.697  41.260   4.230
28624W        W96842  14.759  19.312  14.284
28625W        W96843  30.114  35.855   2.528
28626W        W96844   1.940  23.217   4.206
28627W        W96845  32.624   1.827  13.776
28628W        W96846  21.119  10.250   2.262
28629W        W96847  35.249  37.351  12.050
28630W        W96848  31.324  21.503  11.875
28631W        W96849  15.519  20.575  13.527
28632W        W96850  17.608  27.051  10.573
28633W        W96851  31.379   6.296   1.217
28634W        W96852  23.110  41.025   2.472
28635W        W96853   1.988   6.516  11.151
28636W        W96854  29.155   9.307   1.010
28637W        W96855   3.935  34.430   4.070
28638W        W96856  10.132  38.590  10.024
28639W        W96857  11.710  20.687   1.210
28640W        W96858   1.529  13.571   3.353
28641W        W96859  36.005  23.073   2.727
28642W        W96860  28.968  27.048   4.702
28643W        W96861  27.390  19.935   1.409
28644W        W96862   2.007  26.671  10.691
28645W        W96863   2.375   8.309   4.931
28646W        W96864  36.019  40.017   0.885
28647W        W96865  11.820  35.455   0.813
28648W        W96866   3.332   8.712   0.838
28649W        W96867   1.434  33.486  13.792
28650W        W96868   5.640  36.171  13.769
28651W        W96869   1.753  16.955  12.929
28652W        W96870  11.685  10.311   2.321
28653W        W96871  16.701  21.019  11.651
28654W        W96872  25.386  25.422  11.545
28655W        W96873   1.851   8.825   1.767
28656W        W96874  10.874  25.678   4.362
28657W        W96875  27.508   9.715  11.558
28658W        W96876  29.568  13.503   2.757
28659W        W96877  42.985  17.730  13.981
28660W        W96878   8.100  22.107   4.642
28661W        W96879  21.319  27.593   4.812
28662W        W96880  32.630  12.649  13.575
28663W        W96881   8.290   3.730   2.714
28664W        W96882  20.641  43.483  11.387
28665W        W96883  22.158  24.689   3.319
28666W        W96884   7.828  34.075  10.689
28667W        W96885   6.795  24.040   2.360
28668W        W96886  11.389  18.711  13.371
28669W        W96887  16.333  22.229   0.380
28670W        W96888  33.010  10.423  14.913
28671W        W96889   0.344   2.992  14.865
28672W        W96890  44.316  36.590  11.068
28673W        W96891  25.337  32.187  10.295
28674W        W96892  20.795  26.545   2.143
28675W        W96893  17.218  42.195   1.317
28676W        W96894  25.527  23.086  13.597
28677W        W96895   8.905   7.164   2.299
28678W        W96896  28.094  20.215  11.918
28679W        W96897  26.327   8.816  12.545
28680W        W96898  38.886  37.466  11.061
28681W        W96899  15.562   1.405   4.539
28682W        W96900  41.884  25.533  13.795
28683W        W96901  21.303  20.220   5.193
28684W        W96902  40.429  12.569   9.852
28685W        W96903  30.594  23.559   0.818
28686W        W96904  32.473  22.183  11.693
28687W        W96905  36.920  40.057  13.064
28688W        W96906  22.817  43.701  12.101
28689W        W96907   5.237  19.502   4.242
28690W        W96908  32.047   5.720   2.451
28691W        W96909  25.431   7.283  11.519
28692W        W96910  18.647  40.248  10.920
28693W        W96911  14.227  37.457  14.467
28694W        W96912  12.191  11.116  12.420
28695W        W96913  15.024  31.653  13.916
28696W        W96914   5.915  44.296   1.710
28697W        W96915  34.653  15.313   2.896
28698W        W96916  41.399  14.325   1.686
28699W        W96917  19.630   4.383  12.430
28700W        W96918  11.408  10.705  13.117
28701W        W96919  34.923  31.552  11.964
28702W        W96920  32.755  32.135   1.966
28703W        W96921  25.564  32.635  10.475
28704W        W96922  26.294  39.929  13.427
28705W        W96923  42.811  36.027  12.408
28706W        W96924  32.436  42.574   4.682
28707W        W96925   7.852  39.412   1.706
28708W        W96926  29.236  26.630  11.886
28709W        W96927   8.174  35.760  11.199
28710W        W96928   9.738  21.525   2.640
28711W        W96929  42.746  38.440  14.042
28712W        W96930  42.176  39.147   1.676
28713W        W96931   2.295  39.049   0.841
28714W        W96932  14.660  18.022  11.867
28715W        W96933  20.414  16.545  14.953
28716W        W96934  30.015  11.957   3.202
28717W        W96935  23.419  34.644   0.859
28718W        W96936   5.867  36.471  14.337
28719W        W96937  14.125  10.620   0.501
28720W        W96938   5.031  20.258   4.421
28721W        W96939  23.251  29.709   0.401
28722W        W96940   3.918  16.181  14.389
28723W        W96941   9.843  42.088   3.660
28724W        W96942  25.562  37.402   4.568
28725W        W96943  24.873  10.343  13.488
28726W        W96944   4.545  31.514   2.672
28727W        W96945  20.962  37.738   2.790
28728W        W96946  29.668  20.608   0.297
28729W        W96947  35.994  37.166   1.975
28730W        W96948  41.813  26.033   2.713
28731W        W96949  38.566  34.114  13.881
28732W        W96950  17.577  33.508  10.852
28733W        W96951  33.705  17.212   1.328
28734W        W96952  29.854  31.880   1.372
28735W        W96953   1.172   8.180   1.710
28736W        W96954  41.693  31.838  11.027
28737W        W96955  30.958   4.164  13.328
28738W        W96956  19.235   4.476  11.663
28739W        W96957  10.249  34.207  13.616
28740W        W96958  23.702  28.069   2.539
28741W        W96959  38.539  24.766   0.922
28742W        W96960  16.758  14.890   2.270
28743W        W96961   9.916  39.275   3.198
28744W        W96962  38.338  14.196   1.733
28745W        W96963  44.952  28.253  13.970
28746W        W96964  32.057  28.794  11.547
28747W        W96965  34.465  26.236   1.435
28748W        W96966  30.665  26.722  12.983
28749W        W96967  11.735  40.817   0.702
28750W        W96968  25.649   8.907   1.772
28751W        W96969  20.758  33.023  14.991
28752W        W96970  26.178  27.070   3.745
28753W        W96971   7.130  10.666  12.825
28754W        W96972   6.505  17.802   4.078
28755W        W96973  14.556  31.072   2.126
28756W        W96974  15.055  19.687  12.835
28757W        W96975  24.035  31.989   2.941
28758W        W96976   5.739  34.450  12.543
28759W        W96977  44.644  35.266   0.787
28760W        W96978  28.018   0.922  14.038
28761W        W96979  15.133  32.402   0.894
28762W        W96980  40.529  27.404  13.120
28763W        W96981   1.931  22.973  11.900
28764W        W96982  15.729  32.193   1.620
28765W        W96983  24.097  31.053   2.708
28766W        W96984  42.685  10.225   2.303
28767W        W96985  38.516  15.208  10.731
28768W        W96986   3.181  21.975  13.896
28769W        W96987  12.644  39.718   4.890
28770W        W96988  25.242   9.719   4.570
28771W        W96989  19.789  42.857   3.668
28772W        W96990  22.208  36.154   4.510
28773W        W96991  15.990  35.104  12.099
28774W        W96992  15.599  28.383  12.846
28775W        W96993  11.566  32.303  11.120
28776W        W96994  20.839  42.478  14.554
28777W        W96995  34.536   4.201  14.031
28778W        W96996  29.452  24.337   5.084
28779W        W96997  40.885   3.526   3.780
28780W        W96998  39.539  12.156   2.185
28781W        W96999  22.707  15.788   2.788
28782W        W97000  37.319   5.905   3.021
28783W        W97001  42.198  28.075  11.456
28784W        W97002  26.908  22.508   3.137
28785W        W97003  18.725  16.648  10.540
28786W        W97004   1.210  24.912   3.385
28787W        W97005  13.062  44.886   1.851
28788W        W97006  18.814  33.394   4.807
28789W        W97007  34.551   9.059   4.051
28790W        W97008  19.877  39.838   3.004
28791W        W97009  19.202  20.584  13.445
28792W        W97010  13.514  15.878   4.086
28793W        W97011  16.170  26.707   4.434
28794W        W97012  17.465  20.117  12.023
28795W        W97013  11.291  15.704  14.843
28796W        W97014  40.697   7.089  14.556
28797W        W97015  44.517  20.434  13.922
28798W        W97016  40.547  12.283  12.451
28799W        W97017  28.240  25.600   4.509
28800W        W97018  30.975   8.721  13.596
28801W        W97019  16.223  18.101   2.687
28802W        W97020  10.042  33.923   2.735
28803W        W97021   1.306   9.370   1.223
28804W        W97022  36.295   7.944   3.619
28805W        W97023  13.623  23.146  11.047
28806W        W97024  12.297   7.241   4.739
28807W        W97025  26.732   6.225  13.595
28808W        W97026  10.422  30.586   3.237
28809W        W97027  43.262  32.915  11.196
28810W        W97028  44.015  18.568  12.466
28811W        W97029  31.423  10.188  10.508
28812W        W97030  16.976   1.734  11.937
28813W        W97031  16.173  21.496   3.278
28814W        W97032  43.834   4.926  10.692
28815W        W97033  40.523  36.631  12.085
28816W        W97034   6.662  43.480   4.588
28817W        W97035  40.511  30.602  12.848
28818W        W97036  13.814  44.305   3.681
28819W        W97037  27.593  37.628  10.691
28820W        W97038   3.966   6.066   2.811
28821W        W97039  12.994  13.703   1.668
28822W        W97040  40.068  12.114  13.108
28823W        W97041  31.680  31.981   4.516
28824W        W97042  17.793  21.208  14.077
28825W        W97043  13.423  27.701  12.485
28826W        W97044   6.301  20.271  13.134
28827W        W97045  44.408   1.462  12.186
28828W        W97046   3.523  28.405  12.505
28829W        W97047   9.794  28.662   2.339
28830W        W97048  17.093  32.308   2.962
28831W        W97049  21.577  36.156   3.673
28832W        W97050  23.088  32.114   4.070
28833W        W97051   6.773   2.941  10.694
28834W        W97052  31.191  38.520   1.021
28835W        W97053  28.710  21.374  12.481
28836W        W97054  41.687   4.783  12.905
28837W        W97055  14.079  16.792   0.937
28838W        W97056  41.612  36.040   0.719
28839W        W97057  44.368   6.045  11.634
28840W        W97058  22.677  35.374  12.151
28841W        W97059   9.686   8.108   1.814
28842W        W97060  38.889  40.906   2.239
28843W        W97061  44.670  42.116  10.479
28844W        W97062  17.310  42.524   2.742
28845W        W97063  28.954   8.404   0.808
28846W        W97064  24.479  16.566   4.591
28847W        W97065  17.030  43.937  12.959
28848W        W97066  44.889  33.889  13.786
28849W        W97067   1.654   6.193   4.121
28850W        W97068   6.290   1.111   2.889
28851W        W97069  26.133   7.069   3.719
28852W        W97070  39.584  44.252  13.924
28853W        W97071  13.643  33.515   2.067
28854W        W97072  14.802  33.915   0.950
28855W        W97073  27.435  14.235   4.928
28856W        W97074  31.212   7.745   0.917
28857W        W97075  19.545  21.326   0.533
28858W        W97076  40.420   3.459   0.418
28859W        W97077  29.984   6.674  12.789
28860W        W97078  15.828   5.903   4.076
28861W        W97079   9.497   6.947   4.458
28862W        W97080   9.626  43.894  14.300
28863W        W97081  10.312  27.979   2.801
28864W        W97082  14.634  41.888   1.178
28865W        W97083  23.253  28.589   0.929
28866W        W97084   4.120  31.971   4.581
28867W        W97085  27.478  30.164  12.160
28868W        W97086  22.661  12.778   1.009
28869W        W97087  36.449  31.373   0.799
28870W        W97088  24.128  42.779   1.824
28871W        W97089   1.649  31.145   4.800
28872W        W97090  41.125  37.317   5.158
28873W        W97091  13.200  43.086  13.828
28874W        W97092   6.330  31.770   0.930
28875W        W97093  17.733  10.261  14.264
28876W        W97094  34.811   8.372   1.764
28877W        W97095  13.441  20.533   3.317
28878W        W97096  26.491  34.338  13.007
28879W        W97097  36.547   5.188  14.667
28880W        W97098  27.905  33.813   4.374
28881W        W97099  25.583  35.472  11.615
28882W        W97100   6.091  11.749  13.969
28883W        W97101  23.753  29.085   0.278
28884W        W97102  21.019   0.321  14.976
28885W        W97103   2.265  41.823   1.953
28886W        W97104   9.364  26.917  10.496
28887W        W97105  39.941  29.477   1.138
28888W        W97106  17.727  11.099  13.991
28889W        W97107  37.236  28.923   0.005
28890W        W97108  42.556  25.158   3.808
28891W        W97109  34.118  42.989   3.488
28892W        W97110  33.696  40.088  11.562
28893W        W97111  33.051   1.397   4.945
28894W        W97112   4.713  19.431   9.908
28895W        W97113  21.768  14.327   2.603
28896W        W97114   1.146  15.325  12.613
28897W        W97115  23.663  11.809   3.964
28898W        W97116  40.068  20.032  11.876
28899W        W97117  31.768  28.626  10.132
28900W        W97118  13.334   1.476   4.629
28901W        W97119  27.055  32.292  14.364
28902W        W97120  21.294  33.649   1.043
28903W        W97121  19.248  40.057  13.412
28904W        W97122  25.678  23.506  14.550
28905W        W97123  41.587  44.337   1.934
28906W        W97124  43.688  11.897   1.688
28907W        W97125  33.078  29.654  13.803
28908W        W97126  10.822  11.591  10.175
28909W        W97127   5.269  21.207   3.983
28910W        W97128  30.146   1.437   2.910
28911W        W97129   0.965  19.338   0.581
28912W        W97130  27.542   5.286   1.362
28913W        W97131   1.155  12.709   1.576
28914W        W97132  23.008  39.152  12.414
28915W        W97133  37.548  26.727  14.078
28916W        W97134   3.681  10.147  13.549
28917W        W97135   3.995  13.666  12.407
28918W        W97136  19.469  39.303   1.839
28919W        W97137  26.195   4.174  14.745
28920W        W97138   4.351  30.482   1.955
28921W        W97139  21.701   2.970  11.753
28922W        W97140   7.176  19.675   0.478
28923W        W97141  32.965   7.776   0.186
28924W        W97142  43.307   8.175  13.807
28925W        W97143  16.583  36.374   4.646
28926W        W97144  33.792   8.417  14.782
28927W        W97145  30.980  27.726  10.726
28928W        W97146  10.358  28.642  12.451
28929W        W97147  14.478  26.722   4.981
28930W        W97148  29.588  15.779  13.218
28931W        W97149  40.109  15.792  12.286
28932W        W97150  35.964  17.035   0.070
28933W        W97151  13.951  32.339  11.519
28934W        W97152  42.426  24.574  13.928
28935W        W97153  35.832  20.934   0.317
28936W        W97154  41.036  44.011   4.580
28937W        W97155  22.981   8.709   3.018
28938W        W97156  43.835  43.573   0.261
28939W        W97157  28.151  21.519   3.610
28940W        W97158  44.347  16.994   4.939
28941W        W97159  25.462  12.646   0.976
28942W        W97160   5.881  36.957  11.090
28943W        W97161  38.886  21.164  11.949
28944W        W97162  21.444  39.525  14.059
28945W        W97163   0.251  42.226  11.560
28946W        W97164  12.695  37.105  13.566
28947W        W97165  19.558  28.476   4.883
28948W        W97166   0.798  17.161  13.849
28949W        W97167  35.398  41.059  11.023
28950W        W97168  36.326  33.019   0.329
28951W        W97169  36.170  22.058   2.298
28952W        W97170  35.039   9.465  13.950
28953W        W97171  33.429  34.021   1.921
28954W        W97172  35.454   1.640  10.709
28955W        W97173   0.800  12.811   2.378
28956W        W97174   0.262   7.602  11.552
28957W        W97175  28.696  18.163  13.070
28958W        W97176  42.567  11.218  12.994
28959W        W97177   2.159  42.026   3.239
28960W        W97178  18.184  34.244  12.554
28961W        W97179  17.908  20.218   4.599
28962W        W97180  39.612  42.837   1.550
28963W        W97181  28.370  21.648  10.613
28964W        W97182  30.565  42.923   1.883
28965W        W97183   4.739   3.790  11.029
28966W        W97184  37.630  26.039  12.009
28967W        W97185   4.621  30.229  14.288
28968W        W97186  30.156   4.488  11.103
28969W        W97187   1.865   6.294  13.066
28970W        W97188   7.078   7.042   1.361
28971W        W97189  31.718  43.452   1.522
28972W        W97190  43.755  14.732   3.725
28973W        W97191  14.192   0.210  13.918
28974W        W97192  36.448   7.230   5.230
28975W        W97193  10.780  11.512  14.772
28976W        W97194   9.736  34.103  11.910
28977W        W97195  25.791  18.535   1.137
28978W        W97196  36.861   3.736  13.407
28979W        W97197  40.546  28.893   4.146
28980W        W97198  43.854  25.966  14.316
28981W        W97199  27.135  44.765  10.521
28982W        W97200   0.037  27.461   4.151
28983W        W97201  44.272  21.658  10.657
28984W        W97202  41.493   9.393  13.929
28985W        W97203   6.024  20.095  14.926
28986W        W97204  38.962  40.425   0.325
28987W        W97205   9.599  34.403   2.826
28988W        W97206   5.222  26.325  13.051
28989W        W97207  28.313  35.455   1.191
28990W        W97208  32.257  20.369   2.337
28991W        W97209  22.539  12.081  13.893
28992W        W97210  29.085  12.865   3.698
28993W        W97211  19.535  38.598   2.476
28994W        W97212  15.806  41.365  11.072
28995W        W97213  11.365   6.302   4.748
28996W        W97214  11.261  20.813  11.628
28997W        W97215  31.157  29.156  10.479
28998W        W97216  23.622  13.656   2.339
28999W        W97217   8.831  29.086  12.007
29000W        W97218  13.076  24.123  13.530
29001W        W97219  18.385  25.543   2.821
29002W        W97220  37.114  39.075  11.064
29003W        W97221  31.049  30.459  13.833
29004W        W97222  22.211  38.945  14.421
29005W        W97223  43.553   4.792  10.270
29006W        W97224  14.744  15.504  13.180
29007W        W97225  34.328  25.491  10.650
29008W        W97226  20.680  25.206   0.355
29009W        W97227   3.609  33.317  14.885
29010W        W97228  43.055  41.453   1.343
29011W        W97229  29.734  14.477  13.390
29012W        W97230  10.557  37.270  13.262
29013W        W97231   6.826  24.659   4.241
29014W        W97232  35.357  30.084   2.901
29015W        W97233  31.589  14.858  13.774
29016W        W97234  31.055  43.107   1.990
29017W        W97235   6.273  19.609   1.005
29018W        W97236   0.719  40.863  12.506
29019W        W97237  42.448  26.756   0.888
29020W        W97238  35.891  28.401   3.578
29021W        W97239  15.747  20.069   2.816
29022W        W97240  15.681  20.245  11.036
29023W        W97241  37.359  13.649  13.020
29024W        W97242  14.163   6.609  12.157
29025W        W97243  34.920  30.018  12.026
29026W        W97244  28.753  30.588   2.019
29027W        W97245  10.703  21.452   3.105
29028W        W97246   3.139  39.862  13.280
29029W        W97247  23.589  23.132   0.447
29030W        W97248   4.384  20.398  13.901
29031W        W97249  24.442  40.482   4.419
29032W        W97250   9.213  43.832   3.259
29033W        W97251  14.744   1.240  12.991
29034W        W97252  20.154  29.061   0.381
29035W        W97253  29.155  26.178  12.173
29036W        W97254  40.362  22.240  13.645
29037W        W97255  40.714   3.459  14.380
29038W        W97256   6.571   1.603  11.435
29039W        W97257  15.215  16.930  12.829
29040W        W97258  19.160  40.414  12.224
29041W        W97259  36.896  10.604   1.494
29042W        W97260   8.152  12.232  11.183
29043W        W97261  34.960  22.861   2.166
29044W        W97262   9.820  15.726  11.203
29045W        W97263  15.355  20.971  12.176
29046W        W97264   3.810  34.658   3.625
29047W        W97265  22.968   9.452   1.802
29048W        W97266   3.784  10.772  14.296
29049W        W97267  32.993  28.946  13.513
29050W        W97268  26.466  23.712   0.503
29051W        W97269  35.400  23.670   3.709
29052W        W97270   3.416  32.872   4.259
29053W        W97271  35.096  17.714   2.118
29054W        W97272   7.691  12.670  13.759
29055W        W97273  44.362  21.312  13.646
29056W        W97274  18.280  42.914  10.955
29057W        W97275  17.555  15.885   2.917
29058W        W97276  39.142  27.508  12.532
29059W        W97277  31.137   1.790   4.528
29060W        W97278  34.876   3.730   3.229
29061W        W97279   8.779  23.505   1.631
29062W        W97280  31.127  10.599   3.292
29063W        W97281   1.959  26.018  14.766
29064W        W97282  37.953  24.138  14.413
29065W        W97283  13.613  29.815   3.832
29066W        W97284  41.622   1.927   1.444
29067W        W97285  16.584  40.840   0.952
29068W        W97286   9.098  30.067  13.479
29069W        W97287   2.994  12.833   3.244
29070W        W97288  14.876   2.400  11.591
29071W        W97289  28.549   1.828  13.430
29072W        W97290   6.983  44.262   1.699
29073W        W97291  17.123   0.740  11.236
29074W        W97292  39.360  29.068   0.932
29075W        W97293  38.917   8.738  10.083
29076W        W97294  16.035  24.066  13.426
29077W        W97295  24.896   8.425  12.953
29078W        W97296   7.636  19.573  13.653
29079W        W97297  42.882  23.074  14.976
29080W        W97298  19.578  42.763   2.273
29081W        W97299   8.229  34.642  12.080
29082W        W97300  21.487  19.201  14.795
29083W        W97301  10.639   4.702  13.870
29084W        W97302  10.675  43.901  14.341
29085W        W97303  17.135  37.367  13.395
29086W        W97304  23.995  25.801  10.144
29087W        W97305  40.805  13.875  14.844
29088W        W97306  42.114  27.940   1.476
29089W        W97307  42.381  44.528  13.262
29090W        W97308   9.141  16.543   0.856
29091W        W97309  36.742  35.108  14.656
29092W        W97310  39.468  25.038  11.406
29093W        W97311  40.862  11.179  14.995
29094W        W97312   4.684   7.245   1.196
29095W        W97313  41.976  43.702   0.846
29096W        W97314   5.157  21.798   1.000
29097W        W97315  40.261  41.020   0.693
29098W        W97316  13.800  16.654   1.364
29099W        W97317  26.544  28.486  13.840
29100W        W97318  38.104  39.550   0.087
29101W        W97319   9.123  13.880  12.980
29102W        W97320  37.016  40.048   0.833
29103W        W97321  38.365  16.966  10.661
29104W        W97322  38.904  43.909  14.338
29105W        W97323  42.980   1.314  14.749
29106W        W97324   2.216   6.401  14.823
29107W        W97325  39.446   9.768  14.763
29108W        W97326  40.097  35.498   1.173
29109W        W97327   7.723   0.570   1.862
29110W        W97328   3.189  19.097  14.844
29111W        W97329  10.872  11.537   1.899
29112W        W97330  16.182  34.565   4.365
29113W        W97331  38.810   7.969  12.002
29114W        W97332  11.745  28.477   0.654
29115W        W97333   7.717  35.781   1.095
29116W        W97334  24.692  39.731   1.395
29117W        W97335  34.691   4.649   0.045
29118W        W97336  32.126  20.756   1.027
29119W        W97337  33.599  11.775   5.002
29120W        W97338  41.190  14.163   4.659
29121W        W97339  25.407  43.812   0.203
29122W        W97340  14.215   8.812   4.533
29123W        W97341  17.583  17.292   4.050
29124W        W97342  17.206  37.842  13.564
29125W        W97343   1.673  26.623   0.532
29126W        W97344  21.008  28.979  11.761
29127W        W97345  25.274  41.022  12.488
29128W        W97346   8.795  15.288  11.628
29129W        W97347  23.452  24.213   3.700
29130W        W97348  37.761  23.601   0.107
29131W        W97349  10.170  43.336  13.833
29132W        W97350  42.392  30.894   4.948
29133W        W97351  14.813  13.352   2.835
29134W        W97352  16.805  32.925   1.809
29135W        W97353  14.230  30.306   1.722
29136W        W97354  17.116   6.766  10.389
29137W        W97355  32.796  38.824   3.427
29138W        W97356  30.725  27.940   5.440
29139W        W97357  14.676  13.638   4.139
29140W        W97358  43.670  12.294  12.101
29141W        W97359  42.611   7.302   1.391
29142W        W97360  26.828   1.457  14.333
29143W        W97361  10.403   6.436   3.604
29144W        W97362  11.942  42.848   3.293
29145W        W97363  16.052  37.964  13.040
29146W        W97364  16.071  36.414   4.541
29147W        W97365  44.356  21.568  12.622
29148W        W97366   0.419  39.411  13.235
29149W        W97367  20.784  44.961   1.369
29150W        W97368  17.202  41.201  13.329
29151W        W97369   0.902  34.376  11.892
29152W        W97370  30.434  15.104  12.088
29153W        W97371   6.098  43.265  10.657
29154W        W97372   3.953  39.861  11.881
29155W        W97373  32.524  22.683  12.409
29156W        W97374  32.759  42.439  13.505
29157W        W97375   9.078  25.120   1.034
29158W        W97376  38.899  28.660  10.679
29159W        W97377  21.868   6.926   1.089
29160W        W97378  39.419  32.183   4.028
29161W        W97379   2.911  38.616   4.561
29162W        W97380  14.840  44.207  11.972
29163W        W97381  30.823  38.081  11.264
29164W        W97382   4.369  32.889  11.084
29165W        W97383  42.579  37.989   3.819
29166W        W97384  41.595  41.370  11.058
29167W        W97385  20.597   8.153   1.998
29168W        W97386  12.082  30.558  12.002
29169W        W97387  42.794  37.858   2.493
29170W        W97388  14.420   6.964   2.209
29171W        W97389   6.386  41.393  10.818
29172W        W97390  23.532  16.088  13.005
29173W        W97391  27.504  26.108   0.297
29174W        W97392   3.700  34.908   1.785
29175W        W97393  20.057  41.820  11.476
29176W        W97394  38.542  31.045  11.498
29177W        W97395  18.725  20.028  11.525
29178W        W97396   9.253   4.926   9.904
29179W        W97397  33.390  32.079  12.985
29180W        W97398  38.688  35.150   4.170
29181W        W97399  37.582  29.855   2.707
29182W        W97400  35.133  14.824   2.268
29183W        W97401  16.248  42.461   0.921
29184W        W97402   5.102  26.477  10.649
29185W        W97403   5.667  15.209   0.803
29186W        W97404  32.341   7.126   0.163
29187W        W97405  44.148  26.114   2.825
29188W        W97406  25.234  22.059   3.803
29189W        W97407   9.234  25.676   3.578
29190W        W97408   4.210  41.476   5.414
29191W        W97409  43.863  27.227  13.912
29192W        W97410  35.067  17.360   5.176
29193W        W97411   0.967  24.564   0.841
29194W        W97412  20.196  26.677  14.987
29195W        W97413  23.026  13.485  14.868
29196W        W97414  32.882  23.269  14.863
29197W        W97415  25.695  20.689   1.879
29198W        W97416  40.929  31.161   1.870
29199W        W97417  17.187   2.745   1.289
29200W        W97418  20.225  10.417  13.100
29201W        W97419  19.595  18.637   2.656
29202W        W97420  19.720  39.445  10.896
29203W        W97421  28.676  22.462  11.816
29204W        W97422   6.448  16.578   0.123
29205W        W97423  22.903  19.793   0.964
29206W        W97424  26.309   6.351  11.568
29207W        W97425  24.119  16.102  10.944
29208W        W97426  41.566  33.144   0.222
29209W        W97427  27.610  32.312  12.602
29210W        W97428  27.023   9.699   1.807
29211W        W97429  39.918   0.724   0.414
29212W        W97430   1.905  30.698   4.536
29213W        W97431  26.642   6.789  12.868
29214W        W97432  33.984  13.536   0.920
29215W        W97433   2.850  32.431  12.374
29216W        W97434  29.655  34.537  11.556
29217W        W97435  41.246  41.507   1.863
29218W        W97436  10.948  37.044   3.749
29219W        W97437  28.867  43.639  13.937
29220W        W97438  15.601  15.036   3.637
29221W        W97439  13.360   6.878  13.583
29222W        W97440  14.514  44.232   1.221
29223W        W97441  11.848  21.154  14.411
29224W        W97442  24.966  38.032   0.250
29225W        W97443  34.771  35.960  11.753
29226W        W97444   8.324   9.830  11.533
29227W        W97445  11.030  14.431   2.333
29228W        W97446  16.891  17.556   1.682
29229W        W97447   4.463  17.062  10.766
29230W        W97448  18.517  17.218   3.043
29231W        W97449  18.063   0.416   1.370
29232W        W97450  29.677  27.613   4.553
29233W        W97451  28.107   8.366  12.403
29234W        W97452  34.836   2.720  13.465
29235W        W97453  15.792  43.157  11.593
29236W        W97454  12.207  35.093  12.846
29237W        W97455  30.177  35.925   0.405
29238W        W97456  18.272  20.718  13.032
29239W        W97457  21.495  30.703  10.771
29240W        W97458  44.593  28.029   4.749
29241W        W97459  24.646  26.740   3.808
29242W        W97460  41.714  29.488   2.945
29243W        W97461  17.852  38.050   3.148
29244W        W97462  12.548  23.520   5.044
29245W        W97463  44.524   7.188  12.039
29246W        W97464  21.183  14.115  12.128
29247W        W97465  10.358  24.979   2.845
29248W        W97466  34.693  16.260  14.338
29249W        W97467  13.363  42.622   0.358
29250W        W97468  27.873  20.204   3.206
29251W        W97469  24.887   3.376   5.123
29252W        W97470   0.055  28.196   1.351
29253W        W97471  44.440  34.907  14.554
29254W        W97472  40.773   1.262   2.267
29255W        W97473  13.202  33.748   1.947
29256W        W97474   2.978  14.448  14.554
29257W        W97475  14.862  44.816   2.377
29258W        W97476  32.659   3.205  10.921
29259W        W97477  18.504  24.770  11.193
29260W        W97478  28.412   6.982   1.178
29261W        W97479  21.620  19.731  11.640
29262W        W97480  19.004   4.349   0.178
29263W        W97481  25.093  22.914   2.842
29264W        W97482   2.660  29.194   1.879
29265W        W97483  16.826  34.029  13.930
29266W        W97484  12.633  15.091   4.632
29267W        W97485  35.258  14.706  12.632
29268W        W97486   5.704  18.147   0.482
29269W        W97487   3.335  22.275   2.470
29270W        W97488   9.591  23.018   2.383
29271W        W97489  37.309  13.552   3.830
29272W        W97490  19.700  34.080  13.362
29273W        W97491   8.228   6.289  13.600
29274W        W97492  25.879   5.850  10.950
29275W        W97493  37.791  37.789   2.241
29276W        W97494  32.043  10.939   1.420
29277W        W97495  10.781  15.814  14.455
29278W        W97496  31.478  23.302  11.526
29279W        W97497  18.272  29.211  11.644
29280W        W97498  28.942  24.941  14.345
29281W        W97499  44.352  21.539   1.820
29282W        W97500   9.458  41.406   4.396
29283W        W97501   0.630  38.507  14.695
29284W        W97502  25.166  22.671  13.359
29285W        W97503  14.841  37.469  10.904
29286W        W97504  28.866  15.214   0.871
29287W        W97505   0.342  28.493   4.712
29288W        W97506   8.205  20.580  13.403
29289W        W97507  14.324  24.192   5.023
29290W        W97508   2.035   5.162  11.621
29291W        W97509   8.233  40.014  13.807
29292W        W97510  40.453  20.749   0.690
29293W        W97511  33.655   1.317   1.384
29294W        W97512  38.033  33.934  10.954
29295W        W97513  17.294  35.575  12.977
29296W        W97514   9.573   9.692   0.364
29297W        W97515  27.449   8.158  10.726
29298W        W97516  32.947  30.651  12.326
29299W        W97517  22.943  42.348  12.049
29300W        W97518  42.914  13.908   2.675
29301W        W97519   7.884  10.181   0.940
29302W        W97520  18.643  34.159  10.956
29303W        W97521   3.294  16.378  10.604
29304W        W97522  10.978  42.860   1.203
29305W        W97523  43.424  39.791  11.600
29306W        W97524  43.468   1.322   3.370
29307W        W97525  39.331  42.074  12.431
29308W        W97526   0.973  27.680  11.171
29309W        W97527  26.020  40.862  12.888
29310W        W97528  11.268  39.008  11.190
29311W        W97529  31.423   1.141   3.075
29312W        W97530  12.191  35.601  12.761
29313W        W97531  23.240  30.139   0.715
29314W        W97532  42.187   7.321   0.672
29315W        W97533  33.196  21.031   4.117
29316W        W97534  12.088  35.906  11.266
29317W        W97535  24.771  28.833   0.484
29318W        W97536  41.368  26.648  13.959
29319W        W97537   8.363  35.512   0.814
29320W        W97538  18.100  35.841  13.384
29321W        W97539   3.180  30.091  14.340
29322W        W97540  10.508  41.353  10.167
29323W        W97541  29.960  43.001   0.744
29324W        W97542   2.486  25.761   3.345
29325W        W97543  17.784   7.747  14.857
29326W        W97544  14.170  20.620  11.364
29327W        W97545  27.700  33.097  13.454
29328W        W97546   4.363   2.983   3.703
29329W        W97547   2.289  37.467  11.933
29330W        W97548  34.774  34.736   0.216
29331W        W97549   0.764  26.169  13.406
29332W        W97550  13.905  37.393  13.047
29333W        W97551  25.534  11.279   0.201
29334W        W97552  40.182  23.122  12.609
29335W        W97553   8.865   6.737  10.515
29336W        W97554  15.326  24.257   4.140
29337W        W97555  31.892   5.580  13.062
29338W        W97556  33.557  32.290   4.076
29339W        W97557  23.521  39.915  14.678
29340W        W97558  43.854  25.478   4.364
29341W        W97559  21.511  11.721  10.737
29342W        W97560  40.920  24.039   4.806
29343W        W97561  22.719  10.391   3.896
29344W        W97562  41.028  44.397   2.424
29345W        W97563   3.891  43.602  10.518
29346W        W97564  18.572  33.995   3.020
29347W        W97565  33.183   2.856   4.117
29348W        W97566  27.210  27.841  12.875
29349W        W97567   9.209  29.144  10.336
29350W        W97568  31.134  41.393   5.089
29351W        W97569  18.075  29.136   0.420
29352W        W97570  18.751  26.590  10.959
29353W        W97571   6.314   1.177   3.426
29354W        W97572  24.295  37.309  13.443
29355W        W97573   8.758   0.283  13.475
29356W        W97574   1.010  25.036   0.563
29357W        W97575  24.508  27.182  14.944
29358W        W97576  30.804  21.565  11.092
29359W        W97577  39.477   9.224  11.588
29360W        W97578   4.697  12.621   9.896
29361W        W97579  35.060  10.643   1.804
29362W        W97580  24.650  41.840  12.583
29363W        W97581  42.375   3.377   4.048
29364W        W97582  39.092   5.779  12.940
29365W        W97583  14.532  25.514   1.300
29366W        W97584  38.305   7.820   4.641
29367W        W97585   4.717  36.327  11.584
29368W        W97586  28.603  10.035  13.859
29369W        W97587   9.698   9.933   1.486
29370W        W97588   2.533  24.056  12.627
29371W        W97589  16.246  16.010  10.841
29372W        W97590   7.759  29.446   1.780
29373W        W97591   8.779   0.975  11.325
29374W        W97592  40.555   8.058   1.470
29375W        W97593  42.926  21.304   2.111
29376W        W97594   5.588  23.451  12.670
29377W        W97595  32.908  37.341   2.986
29378W        W97596  29.513   6.836  12.593
29379W        W97597   2.033  43.516  13.891
29380W        W97598  28.987  10.826   2.466
29381W        W97599  14.136  14.860   1.848
29382W        W97600   8.689   4.912   4.071
29383W        W97601  38.810  15.355  11.741
29384W        W97602   5.990   2.738   0.941
29385W        W97603   6.304  26.696  11.135
29386W        W97604  28.184  19.749  12.709
29387W        W97605  30.550  19.765   3.819
29388W        W97606   6.433  19.985  14.088
29389W        W97607  37.583  43.858  13.792
29390W        W97608   7.705   8.203  11.601
29391W        W97609  25.452  30.963  11.660
29392W        W97610  13.053   4.674   0.506
29393W        W97611  34.069  41.344   0.019
29394W        W97612  44.202  38.609  11.104
29395W        W97613  22.284  38.828  11.928
29396W        W97614   6.045  39.461   2.558
29397W        W97615  34.547   1.430   1.107
29398W        W97616  24.157  25.336  10.371
29399W        W97617  20.207   5.189   2.412
29400W        W97618  36.227   6.164  14.853
29401W        W97619  29.542  34.704   4.133
29402W        W97620  40.376  27.625  11.147
29403W        W97621  36.229   5.511   4.486
29404W        W97622  16.293  36.009  12.064
29405W        W97623  22.186  41.193   4.578
29406W        W97624  19.645  13.102   2.372
29407W        W97625   0.304  39.572   4.539
29408W        W97626   4.178  11.417  10.612
29409W        W97627  25.665  13.750  12.827
29410W        W97628  27.258  39.454  14.814
29411W        W97629   5.283  23.159   0.167
29412W        W97630  15.905  20.686  11.664
29413W        W97631  10.100  32.457  11.052
29414W        W97632  23.736  39.927   3.372
29415W        W97633  10.728  42.237  12.502
29416W        W97634  28.039   8.624  13.263
29417W        W97635  31.255  36.811  11.182
29418W        W97636   2.533  42.916  14.265
29419W        W97637  34.281   0.934   1.776
29420W        W97638  23.492  38.391   2.720
29421W        W97639  25.467  40.393  11.255
29422W        W97640  21.138  17.079  11.600
29423W        W97641   2.390  12.209   4.395
29424W        W97642  26.212  41.350  13.831
29425W        W97643  19.113  25.668  12.542
29426W        W97644  31.413  11.014   3.289
29427W        W97645  39.881   9.500   4.063
29428W        W97646  42.176  35.991   2.341
29429W        W97647  25.953  44.107  13.412
29430W        W97648  29.948   6.271  10.709
29431W        W97649  24.491   3.281  14.786
29432W        W97650  37.360  27.520  11.519
29433W        W97651  23.326   2.039   3.167
29434W        W97652  26.181  41.888   1.758
29435W        W97653  41.813  32.447  13.738
29436W        W97654  21.013  26.559  13.657
29437W        W97655  23.078   9.332  14.862
29438W        W97656  24.665  39.466   1.851
29439W        W97657  31.227  11.303   3.676
29440W        W97658  38.927   8.375  14.955
29441W        W97659  14.715  38.836   4.953
29442W        W97660  41.700  37.321   1.202
29443W        W97661  23.296   3.253  12.539
29444W        W97662  23.096  41.871   0.387
29445W        W97663   2.366   2.847   2.765
29446W        W97664  22.562  26.384   0.751
29447W        W97665  14.199   4.890   4.226
29448W        W97666   8.244  24.909   2.404
29449W        W97667  18.971  22.957  12.276
29450W        W97668   4.734  42.742  10.291
29451W        W97669  44.367   5.805  14.829
29452W        W97670  31.110  34.698   4.556
29453W        W97671   9.378  38.136  13.477
29454W        W97672  21.714  37.183   5.391
29455W        W97673  13.752  18.798  11.022
29456W        W97674   1.586   3.995   4.592
29457W        W97675  26.034  14.413   1.977
29458W        W97676   9.645   4.979   1.261
29459W        W97677  14.333  33.215   3.371
29460W        W97678   1.384  44.423   1.342
29461W        W97679  25.144  27.167  11.659
29462W        W97680  16.243  32.017   1.705
29463W        W97681   0.072  12.575  11.034
29464W        W97682   6.933  29.113   2.396
29465W        W97683  38.895  42.260  13.563
29466W        W97684  28.967   0.253  11.974
29467W        W97685   2.474  12.703   0.767
29468W        W97686  16.148  25.613   2.402
29469W        W97687  21.199   1.456   1.485
29470W        W97688   2.655   8.784   1.396
29471W        W97689  37.365  31.624  14.952
29472W        W97690  42.403  29.868  11.516
29473W        W97691  35.119  12.723  13.027
29474W        W97692  35.556  12.600   3.235
29475W        W97693  15.673  30.650  14.280
29476W        W97694   0.949  27.839   3.703
29477W        W97695   9.998  11.787  11.933
29478W        W97696  17.032  12.637   5.431
29479W        W97697  27.254   5.579   0.200
29480W        W97698  23.890  24.230  11.582
29481W        W97699  20.636  22.262   2.596
29482W        W97700   8.202   1.428   1.699
29483W        W97701  35.140   0.221  13.809
29484W        W97702  10.817  12.086  10.385
29485W        W97703   3.504  41.708   1.837
29486W        W97704  17.353   1.012   4.557
29487W        W97705   8.972  34.400  12.410
29488W        W97706  30.462  44.563  10.480
29489W        W97707   8.390  37.377   0.787
29490W        W97708  21.639   8.904  13.268
29491W        W97709   9.452  28.949   1.095
29492W        W97710  20.136  19.073   4.189
29493W        W97711  38.356  34.288   3.309
29494W        W97712   4.763  19.736   2.121
29495W        W97713  17.312  17.287   0.004
29496W        W97714  29.112   1.985   2.279
29497W        W97715  13.274  43.252  10.989
29498W        W97716  41.926   2.922   1.971
29499W        W97717  31.407  19.347  11.561
29500W        W97718  23.336  26.864   1.914
29501W        W97719  30.891  35.813  11.166
29502W        W97720  10.815  39.866   4.661
29503W        W97721  42.317  41.932   1.254
29504W        W97722  43.762  22.474   4.166
29505W        W97723  10.489  34.192   2.706
29506W        W97724   3.806  17.198   4.200
29507W        W97725  38.020  19.652  12.876
29508W        W97726  32.514  38.054   1.796
29509W        W97727  34.049  44.372  12.911
29510W        W97728   0.675  30.135   1.407
29511W        W97729  31.174   6.191   2.323
29512W        W97730  27.800  26.027   3.657
29513W        W97731  12.433  14.729  12.309
29514W        W97732  43.524  26.399   4.546
29515W        W97733  33.578  30.634  11.525
29516W        W97734   6.288  24.659   4.092
29517W        W97735  28.203  42.425  12.235
29518W        W97736  22.656  23.247  12.931
29519W        W97737  29.769   3.176   4.135
29520W        W97738  23.255  42.379  12.457
29521W        W97739  15.169  37.603  14.544
29522W        W97740  28.900  34.114  10.933
29523W        W97741  20.515  29.688  14.254
29524W        W97742  13.718  37.357  14.334
29525W        W97743  11.497  27.581   1.329
29526W        W97744   3.403  38.187   0.701
29527W        W97745  42.040  17.189   3.367
29528W        W97746  40.493  16.753  12.598
29529W        W97747  13.175  17.837   3.653
29530W        W97748  39.404  37.921   2.269
29531W        W97749   2.229  17.214  13.926
29532W        W97750   0.168  10.698  14.864
29533W        W97751  33.304  17.815  12.334
29534W        W97752  21.486  27.031   2.240
29535W        W97753  31.872  25.643  13.944
29536W        W97754  36.961  35.905   1.684
29537W        W97755  13.516  39.344  11.633
29538W        W97756  41.765  12.869   2.987
29539W        W97757  15.561   0.834   1.831
29540W        W97758  11.378  27.088  14.827
29541W        W97759  20.171  28.203  11.538
29542W        W97760   8.617  16.699  12.525
29543W        W97761  42.559  29.505  12.568
29544W        W97762  27.399  17.974   0.402
29545W        W97763  41.162  40.697   2.223
29546W        W97764  38.060   9.323   2.505
29547W        W97765  15.983  23.419   4.106
29548W        W97766  24.703  44.326   1.875
29549W        W97767  24.069  16.109   2.461
29550W        W97768  19.528  25.795  11.691
29551W        W97769  33.046  26.647  11.203
29552W        W97770  12.104  12.892   4.066
29553W        W97771  23.452   6.839  14.950
29554W        W97772  22.608  40.347  14.331
29555W        W97773   6.860  26.035   1.084
29556W        W97774  31.331  11.180  14.177
29557W        W97775  43.963   8.423  12.345
29558W        W97776  40.735  34.444   3.896
29559W        W97777  28.911   1.440   3.076
29560W        W97778  18.810  24.797   4.313
29561W        W97779   1.730  19.161  13.346
29562W        W97780  43.775  28.380  10.551
29563W        W97781  26.769  13.956  13.886
29564W        W97782  38.580   5.594   2.317
29565W        W97783  43.942  37.658  13.144
29566W        W97784  36.071   7.709  12.962
29567W        W97785  38.347  35.011   1.660
29568W        W97786  37.548  20.809  11.179
29569W        W97787   1.736  28.218   3.845
29570W        W97788  18.650  34.170   0.686
29571W        W97789  32.439  36.656   3.312
29572W        W97790   5.768  24.971  12.071
29573W        W97791  20.627  21.501  14.968
29574W        W97792  28.670  34.362   1.291
29575W        W97793  34.673  24.758  14.268
29576W        W97794  19.655  44.240  14.606
29577W        W97795  41.993  16.191  10.930
29578W        W97796  28.749  23.216   5.543
29579W        W97797  17.673   3.803  13.949
29580W        W97798  20.248  26.105   0.426
29581W        W97799  37.513  27.653   2.234
29582W        W97800  11.921  33.809  11.079
29583W        W97801  36.787  34.310   3.393
29584W        W97802   4.558  11.456  12.904
29585W        W97803  29.412  33.115   3.292
29586W        W97804  10.602   3.798   1.463
29587W        W97805  18.497  29.301   4.224
29588W        W97806  18.855  32.027   1.706
29589W        W97807  23.663  38.077  12.023
29590W        W97808  16.281   0.271   0.438
29591W        W97809  37.421  22.284   2.806
29592W        W97810  30.567  16.220  13.474
29593W        W97811  43.427  17.581   3.119
29594W        W97812  29.575  34.328  13.957
29595W        W97813  20.165  43.882   0.439
29596W        W97814  26.212  18.215  11.103
29597W        W97815  23.159  29.624   1.907
29598W        W97816   6.879   3.161   0.327
29599W        W97817   3.008  11.655   3.792
29600W        W97818  14.644  39.522  12.183
29601W        W97819  16.272  33.159  10.933
29602W        W97820  16.821   1.295  13.031
29603W        W97821  12.740  29.709  11.974
29604W        W97822   8.654  18.236  13.068
29605W        W97823  36.873  33.146  10.908
29606W        W97824   9.926  28.397  14.024
29607W        W97825  33.077  17.035   4.266
29608W        W97826  36.139  11.540   3.745
29609W        W97827  24.625  44.249  12.513
29610W        W97828  21.719  27.691   0.983
29611W        W97829   3.869  19.596   2.244
29612W        W97830  17.519  23.800  14.450
29613W        W97831  18.264  21.160   3.843
29614W        W97832  33.044  11.564  10.444
29615W        W97833  39.442  19.670  14.058
29616W        W97834  18.099   6.407   2.299
29617W        W97835  17.741  37.383  13.871
29618W        W97836  24.051  13.164  14.412
29619W        W97837   2.191  34.575   0.666
29620W        W97838  41.137  26.741   4.207
29621W        W97839  39.983   0.842  10.381
29622W        W97840  26.948  16.472   4.918
29623W        W97841  10.238  24.807  13.588
29624W        W97842  13.626  41.763  12.588
29625W        W97843  15.634  40.183   3.814
29626W        W97844  36.406  14.931  13.387
29627W        W97845  26.657   0.608  14.867
29628W        W97846  23.510  16.827  14.009
29629W        W97847  38.539   1.015   2.727
29630W        W97848  27.712   4.191   2.252
29631W        W97849   3.333  17.769  12.584
29632W        W97850  18.233  10.483  11.253
29633W        W97851  22.559  43.963   1.978
29634W        W97852  38.562  26.497   2.830
29635W        W97853  10.472  42.318   4.352
29636W        W97854  36.019   0.351  10.326
29637W        W97855  31.060  21.337   0.979
29638W        W97856  28.619   7.803  12.877
29639W        W97857  37.839  21.538   3.818
29640W        W97858  40.301  22.960   4.126
29641W        W97859  12.702  15.611  11.923
29642W        W97860   3.320  32.402  14.044
29643W        W97861  43.450  17.769  12.408
29644W        W97862  26.230  10.504   5.130
29645W        W97863   7.768  18.777   1.806
29646W        W97864  43.536   2.136  11.431
29647W        W97865  33.177  19.618  11.495
29648W        W97866  17.719  18.657   3.979
29649W        W97867   3.740   7.453   1.575
29650W        W97868  28.966  35.860   2.073
29651W        W97869  32.367   0.741  14.143
29652W        W97870  16.148   2.887   4.400
29653W        W97871  41.231   2.423   5.399
29654W        W97872  11.754  32.526  14.583
29655W        W97873  28.062  34.398   4.494
29656W        W97874  29.995  42.390  13.415
29657W        W97875  42.314  33.014   2.487
29658W        W97876  24.125  13.781  14.004
29659W        W97877  44.520  18.629   0.320
29660W        W97878  16.805  20.516  11.724
29661W        W97879  17.443   4.174   0.259
29662W        W97880  11.523   1.932   1.177
29663W        W97881  17.337   9.282   1.857
29664W        W97882  35.345  12.800   0.628
29665W        W97883  27.394  36.022  13.519
29666W        W97884   6.292   6.946   0.376
29667W        W97885   6.066  22.291   0.240
29668W        W97886   0.755  28.451  11.569
29669W        W97887  10.092  34.981   3.200
29670W        W97888  26.074  26.794  13.416
29671W        W97889   9.888  15.176  14.349
29672W        W97890  10.053  21.592   4.960
29673W        W97891  16.266  19.138  12.279
29674W        W97892  26.966  21.816   4.512
29675W        W97893  25.248   0.657   2.155
29676W        W97894  41.860  13.232   3.361
29677W        W97895  24.056  10.023  12.472
29678W        W97896   3.602  17.683  13.018
29679W        W97897   3.888   4.243   0.715
29680W        W97898  21.217  10.554  13.085
29681W        W97899  26.704  19.137  13.855
29682W        W97900   0.023  14.829   3.153
29683W        W97901   5.779  44.510  13.290
29684W        W97902  25.344  44.790  11.635
29685W        W97903  20.181  28.960   3.863
29686W        W97904  39.409   0.220  10.051
29687W        W97905  35.740  12.746  10.795
29688W        W97906   2.824  15.733  14.110
29689W        W97907  11.269  25.629  11.936
29690W        W97908  17.228  23.987  11.547
29691W        W97909  29.077   4.996  14.411
29692W        W97910  36.950   1.051  13.787
29693W        W97911  19.055  33.917   0.511
29694W        W97912  41.523  27.905  12.495
29695W        W97913  33.128   5.299  13.430
29696W        W97914   0.000  17.364  11.562
29697W        W97915  18.116  27.151  14.288
29698W        W97916  17.076  42.980   2.781
29699W        W97917  32.707  39.935   1.514
29700W        W97918   2.231  32.017   3.262
29701W        W97919  25.532   0.361   4.545
29702W        W97920  28.437  31.571   2.270
29703W        W97921  27.942  34.946   1.961
29704W        W97922  27.722  35.357  14.368
29705W        W97923  18.632   5.109  12.820
29706W        W97924  34.440  35.138  14.362
29707W        W97925  24.518  27.529   0.335
29708W        W97926  11.116   9.642   1.519
29709W        W97927   8.299  33.191  11.655
29710W        W97928   7.462  22.376   0.357
29711W        W97929  35.414  19.759   3.699
29712W        W97930  25.198   1.811   2.881
29713W        W97931  37.996  17.171  14.039
29714W        W97932  35.059  43.963  12.036
29715W        W97933   2.789   0.233   2.166
29716W        W97934  22.271  12.435   1.216
29717W        W97935  14.720  22.967  14.331
29718W        W97936  41.850  32.610   0.493
29719W        W97937  18.587  42.870  13.706
29720W        W97938   7.841   0.553   3.730
29721W        W97939  10.084  24.073  10.666
29722W        W97940  21.029  43.629  12.095
29723W        W97941  44.434   8.529  13.026
29724W        W97942  28.488  18.840  10.084
29725W        W97943  19.809  28.527   3.883
29726W        W97944  36.113  19.264   1.518
29727W        W97945   6.031  28.540  13.063
29728W        W97946  21.749  21.219  11.443
29729W        W97947  36.771  39.023  11.455
29730W        W97948  40.342   5.151  10.774
29731W        W97949  31.388   4.279   0.652
29732W        W97950  13.155  29.459  13.048
29733W        W97951  30.974  30.691  14.481
29734W        W97952  18.920  34.442  11.572
29735W        W97953   0.443  43.018   3.712
29736W        W97954  26.598  19.132   3.121
29737W        W97955  28.437  14.262   0.937
29738W        W97956  22.571  25.891   0.958
29739W        W97957  32.369   5.770  13.883
29740W        W97958  30.098   6.446   0.709
29741W        W97959  19.291  30.340   4.490
29742W        W97960  14.312  38.400   1.319
29743W        W97961  26.613  16.693   0.395
29744W        W97962   4.031  35.916  13.372
29745W        W97963  11.707  17.346   3.210
29746W        W97964  11.115  43.969  13.329
29747W        W97965  20.314  23.985  13.334
29748W        W97966  43.279  16.419   0.087
29749W        W97967   9.172  31.522  14.351
29750W        W97968  30.023  14.046  10.741
29751W        W97969  21.269   9.600   0.730
29752W        W97970   4.575  37.756  11.931
29753W        W97971  37.487   5.887   4.477
29754W        W97972  26.923  25.701  10.706
29755W        W97973  35.293  28.629   0.394
29756W        W97974   1.134  16.569   4.799
29757W        W97975  19.778  44.457   4.639
29758W        W97976  31.047  24.324   0.707
29759W        W97977  20.066  37.933   0.376
29760W        W97978   0.526  20.607  13.833
29761W        W97979  11.660  23.245   4.207
29762W        W97980   8.156  20.649  11.556
29763W        W97981  13.154  36.634   0.880
29764W        W97982  27.377  41.415   3.728
29765W        W97983   2.299   5.711   2.404
29766W        W97984   8.327  37.527  11.976
29767W        W97985  24.723  28.646  12.412
29768W        W97986  28.073  10.043  13.788
29769W        W97987   3.984   8.881   3.355
29770W        W97988  22.197   2.374  12.499
29771W        W97989   7.088   4.274   3.231
29772W        W97990  11.199  20.650   1.059
29773W        W97991  36.805   2.832  12.022
29774W        W97992  32.610  33.636   1.729
29775W        W97993   2.380  30.559   3.254
29776W        W97994  10.724  11.947   3.520
29777W        W97995  17.978   2.496   4.604
29778W        W97996  39.024  36.624  12.690
29779W        W97997   6.443  35.485   3.334
29780W        W97998  24.746  14.325  14.834
29781W        W97999  22.204  18.621   2.567
29782W        W98000  36.615  14.604   4.628
29783W        W98001  38.748  26.758   1.197
29784W        W98002   5.749  39.556   0.033
29785W        W98003  32.226  17.064   1.326
29786W        W98004   2.281  11.802   4.059
29787W        W98005  36.460  14.985  10.705
29788W        W98006  28.474  24.814   0.797
29789W        W98007   5.661  16.257   4.141
29790W        W98008  16.659  21.141  12.957
29791W        W98009  32.565  31.430   0.546
29792W        W98010  11.242  21.559  13.952
29793W        W98011  32.286  23.319  13.873
29794W        W98012  27.115  33.323  13.425
29795W        W98013   8.648  40.229   0.726
29796W        W98014  18.044  43.057   4.652
29797W        W98015   8.354  34.097   4.608
29798W        W98016  22.807  36.434   2.226
29799W        W98017  16.809  32.880  12.631
29800W        W98018   8.317  10.688   3.623
29801W        W98019  13.557   6.837  12.388
29802W        W98020   6.099  28.100   0.299
29803W        W98021  34.926  40.090   0.226
29804W        W98022   5.192  11.874  10.590
29805W        W98023  19.613  21.650   0.100
29806W        W98024  17.206  37.535   3.032
29807W        W98025   3.927   4.497   2.705
29808W        W98026  36.284  15.552   1.260
29809W        W98027  21.417   8.465   3.753
29810W        W98028  30.799   0.185  11.144
29811W        W98029  20.173  25.581   3.374
29812W        W98030  38.592   0.754  10.254
29813W        W98031  41.994  20.537   1.875
29814W        W98032  40.965  26.003   0.491
29815W        W98033  13.217  24.944  12.172
29816W        W98034  14.898   7.452  13.827
29817W        W98035  11.610  30.693  11.127
29818W        W98036  18.703  19.837   4.071
29819W        W98037  29.181  12.726   1.489
29820W        W98038   3.171  29.320  13.860
29821W        W98039  44.815  27.572   4.614
29822W        W98040  43.048  13.363   3.568
29823W        W98041  23.322   4.823  12.941
29824W        W98042  41.817   8.795   2.347
29825W        W98043  27.145  24.380   3.295
29826W        W98044  31.282  16.313   3.762
29827W        W98045   7.501  44.145   5.036
29828W        W98046  15.545  19.350   1.496
29829W        W98047  32.884  17.232   1.898
29830W        W98048  21.796  25.921   0.456
29831W        W98049   3.326   8.815  13.309
29832W        W98050   9.261  22.094  14.600
29833W        W98051  39.784  36.952   4.284
29834W        W98052  42.540   4.935  14.885
29835W        W98053  17.570  25.202  14.512
29836W        W98054  13.926  33.961   2.180
29837W        W98055  41.940  25.126   4.602
29838W        W98056  13.893  19.160  14.361
29839W        W98057  37.422  14.230   1.374
29840W        W98058  19.324  44.198   4.603
29841W        W98059  38.161  12.102  13.067
29842W        W98060  34.524   6.281   4.935
29843W        W98061  21.991   2.377  13.123
29844W        W98062  39.753  44.446   0.673
29845W        W98063  29.080  39.064  10.425
29846W        W98064  36.874  44.156  13.507
29847W        W98065  15.809  25.707   0.693
29848W        W98066  30.205  41.572   4.808
29849W        W98067  20.097   2.443  12.425
29850W        W98068   7.729  22.251  14.610
29851W        W98069  11.737  28.332  12.754
29852W        W98070  26.285   4.012  13.446
29853W        W98071   1.553  29.527   1.862
29854W        W98072   8.133  25.909   2.176
29855W        W98073  30.383   9.414   5.090
29856W        W98074  29.977  38.485  13.019
29857W        W98075   1.762  12.651  14.478
29858W        W98076  18.254   6.799  13.107
29859W        W98077  43.818  21.458  13.474
29860W        W98078   6.712  33.218  11.654
29861W        W98079  40.800  18.592   3.714
29862W        W98080   5.557  38.674   0.390
29863W        W98081  32.909  42.872   2.376
29864W        W98082  21.518   8.597   1.214
29865W        W98083  29.112   3.333   3.633
29866W        W98084  26.348   8.891   2.887
29867W        W98085  12.339  34.631  11.129
29868W        W98086  11.740  39.262   1.695
29869W        W98087  39.023  21.550   4.624
29870W        W98088  34.449  16.117  12.377
29871W        W98089  31.333  32.483   3.764
29872W        W98090  27.140  39.408   4.881
29873W        W98091  24.119  26.482  14.103
29874W        W98092  23.750  44.925   1.046
29875W        W98093  13.248  38.419  14.869
29876W        W98094  31.406   7.776   3.831
29877W        W98095  11.740  25.449  12.028
29878W        W98096  10.867  32.353   0.745
29879W        W98097  24.716  39.846   3.782
29880W        W98098  42.023  15.395  13.467
29881W        W98099  37.403  44.298  13.513
29882W        W98100   7.689  42.254   3.151
29883W        W98101  15.309  23.762  12.818
29884W        W98102  18.600  34.590   3.421
29885W        W98103  24.037  12.756  10.284
29886W        W98104   8.400  19.253   3.820
29887W        W98105  20.031  44.445  14.324
29888W        W98106  17.631  15.571   1.123
29889W        W98107  18.199  28.197  13.578
29890W        W98108  27.531  41.146  14.053
29891W        W98109   7.421  38.915  11.042
29892W        W98110  37.661  34.091   1.364
29893W        W98111  28.764   0.270   2.259
29894W        W98112  14.788   8.882  10.794
29895W        W98113  12.210  17.325   4.091
29896W        W98114   5.357  10.214   1.984
29897W        W98115   0.447  26.250   0.755
29898W        W98116  13.844  42.318   0.798
29899W        W98117  10.255  17.518   0.350
29900W        W98118  43.797  23.187   1.314
29901W        W98119  25.522  43.138   1.513
29902W        W98120  35.503  29.702   4.728
29903W        W98121   9.303  17.618  11.232
29904W        W98122   0.240  39.896   0.309
29905W        W98123  23.007   1.514  13.101
29906W        W98124   4.187  38.434   1.481
29907W        W98125  37.474  26.761  13.573
29908W        W98126  17.653  25.695  14.214
29909W        W98127   9.767  39.066  12.664
29910W        W98128  13.791   8.205  12.985
29911W        W98129  26.950  18.102   3.015
29912W        W98130   8.430  41.961  13.519
29913W        W98131   7.740  15.705   2.293
29914W        W98132  22.283  11.309   3.317
29915W        W98133  37.907  21.471  13.902
29916W        W98134  33.866  31.338   4.551
29917W        W98135   3.909  41.486  14.012
29918W        W98136  24.714  12.581  12.084
29919W        W98137  41.289  15.996   0.487
29920W        W98138   2.524  32.932   0.862
29921W        W98139  27.698  37.366   0.562
29922W        W98140  28.392  41.228   2.763
29923W        W98141  37.907  30.419  14.757
29924W        W98142  33.481  10.200  10.566
29925W        W98143  27.201  16.149  11.309
29926W        W98144  38.702  27.194  13.363
29927W        W98145  38.476   4.600   9.825
29928W        W98146  16.497   3.886   4.799
29929W        W98147  22.237  12.795  12.428
29930W        W98148  33.499  34.939  12.022
29931W        W98149  37.946  10.589   3.466
29932W        W98150  11.918  19.258   3.368
29933W        W98151  39.823  26.147  13.055
29934W        W98152  14.956  40.575   2.727
29935W        W98153  31.324  43.167  10.031
29936W        W98154  18.727   4.969  11.048
29937W        W98155  31.100   0.855   0.300
29938W        W98156  43.660   6.452  14.984
29939W        W98157  28.851  37.028   5.041
29940W        W98158  38.426  36.884   4.098
29941W        W98159   0.697   9.683  13.999
29942W        W98160  13.557  25.187   1.944
29943W        W98161   7.399  28.502   0.297
29944W        W98162   5.358  42.494  13.933
29945W        W98163   5.280  21.001   1.670
29946W        W98164  26.552  41.005   3.837
29947W        W98165   1.220  42.439   1.731
29948W        W98166  35.088   1.928  10.013
29949W        W98167  25.861  34.125  13.323
29950W        W98168   3.377   5.696   0.398
29951W        W98169  22.933  26.553  12.371
29952W        W98170  39.831  13.271  14.034
29953W        W98171  12.211  20.559   1.865
29954W        W98172  41.026  33.423   3.121
29955W        W98173  19.592  40.547  13.001
29956W        W98174  43.609   0.479  12.988
29957W        W98175  24.021  27.155   2.490
29958W        W98176  22.487  16.257   1.386
29959W        W98177  28.567   8.221  10.915
29960W        W98178   9.133  37.186  11.195
29961W        W98179  30.226  14.652  11.129
29962W        W98180  30.461  17.494   4.476
29963W        W98181  18.222  23.716  14.857
29964W        W98182  31.338  14.182   1.830
29965W        W98183  27.690  40.610  11.530
29966W        W98184  28.944  32.694  10.745
29967W        W98185   7.454  34.297   4.164
29968W        W98186  30.932  20.324  13.483
29969W        W98187  34.506  26.721   1.284
29970W        W98188  28.592  27.381   1.187
29971W        W98189  44.279  31.864   2.357
29972W        W98190  17.156  43.712   1.210
29973W        W98191  14.769  13.168   2.335
29974W        W98192  25.235  15.849  11.540
29975W        W98193  18.298  13.158  14.425
29976W        W98194   5.320   9.307  10.534
29977W        W98195  12.950   9.701   3.725
29978W        W98196   1.185  36.452  13.624
29979W        W98197  29.635  18.696   3.184
29980W        W98198  11.069  35.213  11.635
29981W        W98199   2.916   5.378  13.627
29982W        W98200  37.947  39.979  11.623
29983W        W98201  33.399  40.609   3.268
29984W        W98202   4.142  20.834   0.255
29985W        W98203  44.962  43.506  14.938
29986W        W98204  16.310  43.801  14.459
29987W        W98205  20.091  40.412  12.608
29988W        W98206  17.693  20.707  14.323
29989W        W98207   1.363   0.243  12.997
29990W        W98208  30.426   1.361   1.366
29991W        W98209  33.652   4.426   5.284
29992W        W98210  13.588  29.405   3.172
29993W        W98211  21.222  21.532   0.744
29994W        W98212   8.300  31.647   3.838
29995W        W98213  29.704  33.147  14.547
29996W        W98214  18.669  19.646  14.464
29997W        W98215  19.647  27.416   0.830
29998W        W98216  40.241  38.950   1.758
29999W        W98217  40.794   2.144   1.228
30000W        W98218   2.322   4.902   2.906
30001W        W98219  31.548  17.842   2.739
30002W        W98220  15.895  35.296  13.812
30003W        W98221   9.965  29.124   2.151
30004W        W98222  32.922  44.510   4.009
30005W        W98223  21.763   5.414  13.867
30006W        W98224  29.345   5.333   3.730
30007W        W98225  40.736   7.969   2.252
30008W        W98226   9.745  23.255  13.405
30009W        W98227   7.582  11.788   5.257
30010W        W98228  23.036  18.347   0.655
30011W        W98229  32.101  31.341   4.406
30012W        W98230  43.713   7.267  14.260
30013W        W98231  20.812  10.308   3.685
30014W        W98232   2.337   2.496  10.694
30015W        W98233  31.420  15.611   4.601
30016W        W98234  29.559  21.760   4.636
30017W        W98235  34.703  27.139  12.475
30018W        W98236   3.244  36.692  11.847
30019W        W98237  43.918   9.818  14.311
30020W        W98238   0.509   4.757   4.879
30021W        W98239  32.611  31.317   3.756
30022W        W98240  13.143   3.025  10.776
30023W        W98241  42.751  37.262  10.520
30024W        W98242  34.666  37.459   1.826
30025W        W98243  31.705   2.946   4.105
30026W        W98244  25.512  15.737  14.837
30027W        W98245  16.075   9.417  13.399
30028W        W98246  28.143  28.040   3.753
30029W        W98247  14.330  31.478  10.566
30030W        W98248  38.213  43.387  14.792
30031W        W98249  42.029   0.398  12.855
30032W        W98250  25.797  32.612  12.082
30033W        W98251   4.919   4.779  14.828
30034W        W98252   9.266  15.149  13.501
30035W        W98253  37.546  28.837   2.662
30036W        W98254  44.613  19.261  14.982
30037W        W98255  10.684   7.805  12.480
30038W        W98256  34.397  34.410  11.612
30039W        W98257   8.778  12.678   4.656
30040W        W98258   7.537   7.886  12.460
30041W        W98259  13.402  25.628  12.935
30042W        W98260  31.106  18.105  14.926
30043W        W98261  24.979  21.693   2.776
30044W        W98262  42.473  44.178   0.243
30045W        W98263  42.249  39.299   4.026
30046W        W98264  17.284  13.108  13.765
30047W        W98265  16.212   3.398   2.728
30048W        W98266   9.163  26.958   0.950
30049W        W98267  18.290  35.864  10.721
30050W        W98268  34.365  27.677   0.273
30051W        W98269  34.939  38.545   1.698
30052W        W98270  15.641  34.047   1.269
30053W        W98271  44.423  17.098  10.698
30054W        W98272  22.127  40.278  13.018
30055W        W98273  23.029  30.580   2.328
30056W        W98274  29.892  15.633   0.514
30057W        W98275  23.438  15.159   4.603
30058W        W98276  25.864  27.014  12.037
30059W        W98277  41.297  40.793  12.999
30060W        W98278  16.062  33.028  11.406
30061W        W98279  40.111  40.007  13.996
30062W        W98280   1.221  38.096   0.845
30063W        W98281  33.028  25.667  12.433
30064W        W98282  10.020  35.434  11.564
30065W        W98283  43.991  21.192   4.436
30066W        W98284  29.644  43.951   1.014
30067W        W98285  27.318  28.845  12.399
30068W        W98286  31.716   6.815   2.919
30069W        W98287   9.389   3.354  12.893
30070W        W98288  19.746   6.226   1.891
30071W        W98289   5.585  28.543   0.955
30072W        W98290  36.037  10.772  12.434
30073W        W98291  30.947  41.731  11.543
30074W        W98292   6.867  18.010   2.251
30075W        W98293  12.080  35.604   1.308
30076W        W98294  13.614  17.191   0.012
30077W        W98295  35.902  34.115  13.574
30078W        W98296  14.432   1.745   4.969
30079W        W98297  21.042  36.911   3.566
30080W        W98298  34.415   0.062   3.756
30081W        W98299  41.940   7.823   1.002
30082W        W98300   4.832  20.698  10.784
30083W        W98301  20.803  34.982   2.761
30084W        W98302  26.724  18.212  12.096
30085W        W98303  16.660  19.794  11.729
30086W        W98304   0.712  13.695  10.720
30087W        W98305  35.652  26.473  13.505
30088W        W98306  21.634  19.593   0.353
30089W        W98307  28.023  31.015  14.950
30090W        W98308   1.730  35.472   0.992
30091W        W98309   5.438  10.265   0.954
30092W        W98310  16.748  42.489   4.788
30093W        W98311  19.007   6.196  11.569
30094W        W98312  42.556   4.292   3.329
30095W        W98313  44.520  42.928   3.875
30096W        W98314  11.739  16.184   0.276
30097W        W98315  44.435  28.090  14.807
30098W        W98316  40.556  15.281   4.181
30099W        W98317  18.171  40.377  11.112
30100W        W98318  17.984  25.948  14.920
30101W        W98319  20.088   1.865  11.697
30102W        W98320   4.557  12.869  11.235
30103W        W98321  41.292  25.501   3.062
30104W        W98322  18.462   8.111   1.865
30105W        W98323  32.903  34.207   0.772
30106W        W98324  17.212  42.342   3.631
30107W        W98325   2.943  10.905   4.033
30108W        W98326  42.317  41.142  12.957
30109W        W98327   4.305  33.796  14.319
30110W        W98328   3.829  43.292   3.760
30111W        W98329   2.831   0.358   0.730
30112W        W98330  43.507   5.947  14.432
30113W        W98331  31.161   8.529  14.110
30114W        W98332   3.463  15.568  13.269
30115W        W98333  13.947  42.409   5.261
30116W        W98334  25.694  28.476   2.861
30117W        W98335  34.341  28.563  12.507
30118W        W98336   2.717   0.930  12.329
30119W        W98337  23.028  30.417  12.157
30120W        W98338  17.805  28.373  10.605
30121W        W98339  10.565  33.133   2.708
30122W        W98340  37.161  30.594  13.367
30123W        W98341  31.928   6.495  10.441
30124W        W98342  25.203  35.962  14.215
30125W        W98343  25.444  28.137  10.706
30126W        W98344   5.970  25.493   2.471
30127W        W98345  13.825  39.959  12.367
30128W        W98346   6.206  40.281   5.195
30129W        W98347  34.100  35.632   3.769
30130W        W98348  22.476   4.407  10.432
30131W        W98349  31.623   2.026  11.158
30132W        W98350  40.017  43.021   0.798
30133W        W98351  43.343  10.743  12.958
30134W        W98352  20.940  21.788   0.381
30135W        W98353  11.870   6.469   4.680
30136W        W98354  32.567   4.210  10.901
30137W        W98355  38.870  24.009   2.478
30138W        W98356  22.542  35.496  11.674
30139W        W98357  28.594   3.865  11.594
30140W        W98358  30.471  22.638   2.988
30141W        W98359   0.655   1.023  13.804
30142W        W98360   3.789  37.307   5.090
30143W        W98361  24.914   8.857   1.224
30144W        W98362  21.118  39.052  11.017
30145W        W98363  25.091  36.610   1.452
30146W        W98364  39.022  44.122  13.109
30147W        W98365  26.000  25.831   1.192
30148W        W98366   9.194  35.398  14.992
30149W        W98367  19.589  35.690  10.328
30150W        W98368  33.755   9.520   0.321
30151W        W98369  28.153  33.047  10.182
30152W        W98370  17.698  17.840  10.717
30153W        W98371   3.424  10.926   0.206
30154W        W98372  15.861  31.483   0.937
30155W        W98373  36.288   5.262  13.855
30156W        W98374   6.316  14.289   3.539
30157W        W98375   1.091  17.527  14.056
30158W        W98376  35.387   5.459  11.792
30159W        W98377   6.340  13.592  13.150
30160W        W98378  15.324   5.146   0.077
30161W        W98379   5.777  24.081   0.843
30162W        W98380  37.923  29.440   1.181
30163W        W98381   5.441  40.377  12.983
30164W        W98382  26.963  34.612   2.695
30165W        W98383  29.020  18.176  13.516
30166W        W98384  28.945  26.499  11.484
30167W        W98385  31.486   9.415  11.087
30168W        W98386  18.150   7.479  13.396
30169W        W98387  42.811   3.196   2.797
30170W        W98388  24.134  14.157   2.756
30171W        W98389  30.655   8.197  12.492
30172W        W98390  18.349  12.201  11.140
30173W        W98391  29.123  20.621   3.920
30174W        W98392   9.724   0.850  11.124
30175W        W98393   9.859   8.693   0.001
30176W        W98394  14.121  25.925  13.377
30177W        W98395  37.808  26.238   3.348
30178W        W98396  12.553   9.435  13.615
30179W        W98397  22.854  23.791   9.902
30180W        W98398  42.818  20.558  10.887
30181W        W98399  11.176  29.444  13.050
30182W        W98400  26.392  22.247   1.441
30183W        W98401  35.038  16.643  13.047
30184W        W98402  43.301  17.681   4.604
30185W        W98403   7.066  18.600  14.057
30186W        W98404  10.525   5.310   0.946
30187W        W98405  35.852   2.334   4.177
30188W        W98406  25.756  28.864  14.009
30189W        W98407  33.349  27.543  11.117
30190W        W98408  30.956  27.003  14.948
30191W        W98409  29.548   7.390  12.465
30192W        W98410   8.247  12.411   1.985
30193W        W98411   5.360  14.043   1.278
30194W        W98412  17.276  33.656   0.417
30195W        W98413  12.873  38.519  10.695
30196W        W98414  22.526   4.978   4.272
30197W        W98415  38.319  31.919  14.202
30198W        W98416  17.470  20.486  13.817
30199W        W98417  24.525  33.030   2.318
30200W        W98418  31.473  25.047   4.534
30201W        W98419  40.958  32.419   0.839
30202W        W98420  15.336  39.818  12.300
30203W        W98421  18.183  10.800   2.759
30204W        W98422  39.522  28.483   3.609
30205W        W98423  43.483  44.409   0.291
30206W        W98424  14.067  20.263  11.002
30207W        W98425  40.314  44.030   1.184
30208W        W98426  16.116  38.971   9.673
30209W        W98427  25.813  19.575   2.243
30210W        W98428  21.983  10.084  13.919
30211W        W98429  40.402  40.020  11.236
30212W        W98430  30.547   8.167   2.368
30213W        W98431  27.462  25.966   1.826
30214W        W98432  43.342  19.836  14.880
30215W        W98433  16.014   6.291  12.856
30216W        W98434  38.852   2.776  13.449
30217W        W98435   8.645  32.502   2.750
30218W        W98436  19.067  23.100  13.412
30219W        W98437  37.839  38.605   4.442
30220W        W98438   9.861  34.062   4.706
30221W        W98439  14.769  28.522  10.739
30222W        W98440   0.023  34.185   1.764
30223W        W98441   4.791   0.199   5.097
30224W        W98442  13.273  11.655  14.380
30225W        W98443  27.527  15.021  13.495
30226W        W98444  20.451   3.195  13.523
30227W        W98445  17.632  30.413  12.016
30228W        W98446  35.529   8.750  13.910
30229W        W98447  43.609  42.427   0.906
30230W        W98448  22.026  28.616   0.812
30231W        W98449  34.603  39.183   2.157
30232W        W98450   8.289  28.131   3.369
30233W        W98451  40.338  43.994   4.276
30234W        W98452  44.351  30.990   2.785
30235W        W98453   2.830  35.073  10.807
30236W        W98454  37.020  41.867  14.428
30237W        W98455  27.125  19.760   3.564
30238W        W98456   0.368  13.718  12.038
30239W        W98457   4.764  15.532   3.475
30240W        W98458  37.828  21.568   3.298
30241W        W98459  29.705  11.559   0.002
30242W        W98460  35.587  13.220   2.606
30243W        W98461  29.414  37.252   0.820
30244W        W98462  32.779   3.506  14.434
30245W        W98463  13.073  12.397   4.111
30246W        W98464  28.165  24.260  13.395
30247W        W98465  26.164  17.907  14.382
30248W        W98466  34.489  35.872  10.813
30249W        W98467  14.151  40.566   4.735
30250W        W98468  26.103   9.945   0.389
30251W        W98469  44.207  11.898   3.236
30252W        W98470  29.788  36.810  13.072
30253W        W98471  43.392  39.333  13.419
30254W        W98472  11.874   4.405  10.552
30255W        W98473  41.320  12.342  14.883
30256W        W98474  31.481  36.902  11.886
30257W        W98475  15.746  43.895  12.165
30258W        W98476   1.518  40.353   3.388
30259W        W98477   2.232  33.968  14.959
30260W        W98478  33.298  16.229  11.753
30261W        W98479  40.618  31.587   4.718
30262W        W98480  19.758  26.431   2.835
30263W        W98481  20.600  25.218   4.585
30264W        W98482  33.666  16.998   0.430
30265W        W98483  11.299  20.488   3.735
30266W        W98484  19.153  33.473   2.753
30267W        W98485   6.219   6.778   2.358
30268W        W98486  39.359   2.221  13.929
30269W        W98487  42.193  39.557  14.353
30270W        W98488  20.457  44.930  12.617
30271W        W98489  41.081  27.037   0.764
30272W        W98490  33.686  19.531  13.358
30273W        W98491  30.486  10.219   4.764
30274W        W98492   5.132  20.461  13.385
30275W        W98493  18.144  25.384  11.611
30276W        W98494  35.663   4.810   0.276
30277W        W98495   2.778  29.915  14.013
30278W        W98496   8.124   1.254   5.245
30279W        W98497   2.019   7.522  11.163
30280W        W98498  12.221  12.131   4.769
30281W        W98499  37.078  28.036  14.405
30282W        W98500  32.777  38.545  11.987
30283W        W98501  32.152   1.943  11.182
30284W        W98502  18.717  27.236   2.785
30285W        W98503  38.525  41.969   2.755
30286W        W98504   7.369  39.918   0.947
30287W        W98505  19.848   0.439   2.794
30288W        W98506  10.372   9.133  14.341
30289W        W98507  18.611  43.054   0.977
30290W        W98508  18.063  23.364   4.628
30291W        W98509   4.171  17.571   2.318
30292W        W98510   4.422  20.127  12.012
30293W        W98511  15.434  29.199  13.874
30294W        W98512  17.686  28.150  14.945
30295W        W98513   5.152  23.716   1.371
30296W        W98514  40.575  10.392  13.790
30297W        W98515  39.537  34.798   4.936
30298W        W98516  30.180  11.368   1.898
30299W        W98517  23.980  20.250   2.366
30300W        W98518  39.522   8.308  13.930
30301W        W98519  16.732   6.331   2.640
30302W        W98520  19.975  10.366   4.809
30303W        W98521  25.714  10.193  11.995
30304W        W98522  31.633  16.120  13.475
30305W        W98523  39.526   4.979  11.085
30306W        W98524   7.929  19.334  13.323
30307W        W98525   6.479   3.144  12.443
30308W        W98526  36.594   8.516  11.451
30309W        W98527  28.088   0.200  12.591
30310W        W98528  36.469  18.889  14.209
30311W        W98529   8.308  16.029   0.833
30312W        W98530  39.672  11.794   3.967
30313W        W98531  31.882  23.689  14.364
30314W        W98532   6.089  39.400   9.826
30315W        W98533  13.204  43.043   1.964
30316W        W98534  27.699  14.165  11.111
30317W        W98535  28.982  34.873   0.963
30318W        W98536  24.587  15.473   0.911
30319W        W98537  13.417  20.749   1.323
30320W        W98538  14.214  40.996  14.042
30321W        W98539  36.143  22.713  14.198
30322W        W98540  38.604   6.256   3.763
30323W        W98541   6.889  26.532   2.211
30324W        W98542  21.032   0.870   0.836
30325W        W98543  15.336  16.112  14.023
30326W        W98544   8.751   1.563   2.307
30327W        W98545   6.858  38.076  12.459
30328W        W98546   4.860   8.075   4.706
30329W        W98547  39.364  18.426   2.148
30330W        W98548  36.894  34.651   1.252
30331W        W98549   0.417  13.882  12.996
30332W        W98550  20.806   2.651   1.883
30333W        W98551  15.105   5.756  14.511
30334W        W98552  29.709  43.864  11.535
30335W        W98553  32.623  32.486   3.162
30336W        W98554   2.281  17.141  12.028
30337W        W98555  38.576  32.418  12.321
30338W        W98556  26.478  39.490   3.791
30339W        W98557  11.300  15.890  12.967
30340W        W98558  12.616  19.126  11.458
30341W        W98559  18.057  10.362   0.320
30342W        W98560  25.722  27.553   1.436
30343W        W98561  24.287  32.979  14.061
30344W        W98562  13.269  14.256  14.277
30345W        W98563  26.219  36.269  11.965
30346W        W98564  37.456  36.609  12.873
30347W        W98565  43.693  40.293   1.793
30348W        W98566  36.616  31.526  14.363
30349W        W98567  42.775  36.580  13.854
30350W        W98568  27.559  30.079  12.687
30351W        W98569   1.268  13.304  12.958
30352W        W98570  40.891  42.859   0.914
30353W        W98571  34.131   5.703   3.111
30354W        W98572  27.076   9.982   1.135
30355W        W98573  36.928  40.945   1.109
30356W        W98574   1.228  20.511   1.744
30357W        W98575  20.736  12.038   3.536
30358W        W98576  19.801  18.752  12.432
30359W        W98577  25.018  18.211  12.359
30360W        W98578  13.805  19.361   4.058
30361W        W98579  13.582   7.722  12.858
30362W        W98580   5.810  34.540   3.084
30363W        W98581   4.419   0.335  14.897
30364W        W98582   8.895  19.141  12.483
30365W        W98583  23.859   7.931   1.541
30366W        W98584   8.401  30.597   4.169
30367W        W98585  12.035  30.562  10.252
30368W        W98586  29.805  39.564  11.353
30369W        W98587  14.837  39.055  12.218
30370W        W98588  40.354   1.232  10.234
30371W        W98589  16.428   6.931   0.317
30372W        W98590  12.201  43.282   2.943
30373W        W98591   3.749  27.239   0.089
30374W        W98592  29.962  10.157   3.590
30375W        W98593  15.935  29.524  10.853
30376W        W98594  19.161  30.945  12.923
30377W        W98595  39.076  41.339  14.796
30378W        W98596  28.048   9.928  12.500
30379W        W98597  38.744  26.688   2.210
30380W        W98598   3.564  43.241   0.653
30381W        W98599  30.992  28.675   9.796
30382W        W98600  43.400  37.131  13.532
30383W        W98601  10.387   3.632  14.492
30384W        W98602  15.982  41.612   4.146
30385W        W98603  39.042  29.933  14.960
30386W        W98604  39.312   3.658   0.939
30387W        W98605   3.686  27.299  11.956
30388W        W98606   3.664  11.760   2.177
30389W        W98607  24.758  14.515   3.142
30390W        W98608   6.635  32.018  11.221
30391W        W98609  22.502  37.873   4.123
30392W        W98610   8.221  30.374   0.065
30393W        W98611  43.038   6.404   2.740
30394W        W98612  10.139  40.347   4.682
30395W        W98613  19.569  19.033   3.290
30396W        W98614   3.667  28.967   4.675
30397W        W98615  15.816   0.647   5.102
30398W        W98616  41.267  40.521  11.541
30399W        W98617  38.012  40.389   0.592
30400W        W98618  20.024   7.721  11.702
30401W        W98619  17.812  29.246   1.234
30402W        W98620   1.204  28.459   0.297
30403W        W98621  19.583  35.126   1.128
30404W        W98622  40.695  27.405  14.073
30405W        W98623  42.860   9.950  10.707
30406W        W98624   1.474  22.727  14.991
30407W        W98625  32.878  18.596   1.324
30408W        W98626   2.660   2.740  11.205
30409W        W98627   9.061  17.802   2.240
30410W        W98628   3.927  25.401   0.957
30411W        W98629  28.853  19.778  12.176
30412W        W98630  30.351  36.381   4.184
30413W        W98631  10.983  33.152  12.449
30414W        W98632  34.222  34.868  11.458
30415W        W98633  39.563  19.740   3.318
30416W        W98634   6.850  14.368   4.271
30417W        W98635   6.894  41.038  14.491
30418W        W98636  40.495   2.466   2.328
30419W        W98637   5.439  31.238   3.098
30420W        W98638  35.213  23.694  12.553
30421W        W98639  23.597   5.755  11.576
30422W        W98640  35.398  23.174   2.202
30423W        W98641   9.319   4.553   1.307
30424W        W98642  19.155  24.236   4.153
30425W        W98643   6.758  13.819  12.101
30426W        W98644  43.787  30.921  14.813
30427W        W98645   8.333  28.657   4.138
30428W        W98646  21.076  23.432   0.947
30429W        W98647  38.855   2.330  14.053
30430W        W98648  34.623  16.763   3.748
30431W        W98649  33.353  41.617   3.563
30432W        W98650  18.016  21.180   3.380
30433W        W98651  40.830  40.747  11.129
30434W        W98652  43.854  32.589   4.661
30435W        W98653  17.770  36.521   3.577
30436W        W98654  42.076   3.095  13.111
30437W        W98655   2.507  30.398  12.934
30438W        W98656  33.484  34.135  14.220
30439W        W98657  32.297  40.348   0.926
30440W        W98658  26.602  39.386  11.471
30441W        W98659  33.568  22.757   2.295
30442W        W98660   1.244  42.292   2.986
30443W        W98661  40.925  44.478  14.766
30444W        W98662  14.264  43.836  14.229
30445W        W98663  43.259  27.235   0.934
30446W        W98664  21.571  38.832   4.256
30447W        W98665  10.980   3.365  11.482
30448W        W98666   6.439  33.654  11.590
30449W        W98667   8.315  19.129   5.324
30450W        W98668  36.311  24.500  12.539
30451W        W98669  24.506  15.728   4.916
30452W        W98670  28.474  29.526  12.979
30453W        W98671  24.682   1.882   3.186
30454W        W98672  33.063  13.172  12.512
30455W        W98673  14.750  20.494  10.671
30456W        W98674   7.516  31.021   2.847
30457W        W98675  27.090  30.856  10.720
30458W        W98676   1.810  40.752   0.343
30459W        W98677  34.397  13.641   4.595
30460W        W98678  31.592  10.087   1.259
30461W        W98679  22.725  41.825  10.968
30462W        W98680  13.135   9.659  10.644
30463W        W98681   7.728  16.328   3.342
30464W        W98682  35.908  32.943  14.822
30465W        W98683  41.442  19.150   2.684
30466W        W98684  20.085  21.406   4.735
30467W        W98685  14.132  34.586  12.638
30468W        W98686   9.189  36.464   1.404
30469W        W98687   4.425  32.502  13.605
30470W        W98688  24.216   3.917  10.439
30471W        W98689  26.243   8.772   0.772
30472W        W98690  23.001  23.825   0.406
30473W        W98691  44.291   2.525   5.153
30474W        W98692  37.250  27.720  13.254
30475W        W98693   7.949   2.322   3.610
30476W        W98694  20.106  30.192   0.837
30477W        W98695  31.389  41.080   4.773
30478W        W98696  23.969  12.342  12.620
30479W        W98697  29.447  19.052   4.170
30480W        W98698  18.133  32.045   0.417
30481W        W98699  19.675   7.158   0.391
30482W        W98700  25.738  16.399   4.440
30483W        W98701  23.225  19.629   0.016
30484W        W98702  12.238   5.477  14.166
30485W        W98703   0.433   2.720  12.932
30486W        W98704  16.823  15.101   2.744
30487W        W98705   6.601   8.240   1.328
30488W        W98706  40.028  44.475   1.135
30489W        W98707   0.565   0.419   1.157
30490W        W98708  18.143   2.291   0.559
30491W        W98709  29.402  10.899   1.224
30492W        W98710   8.183  38.403  12.635
30493W        W98711  25.130   0.493   4.849
30494W        W98712  21.664  38.039  14.915
30495W        W98713  43.413  36.451   2.426
30496W        W98714  44.520  35.244  11.614
30497W        W98715  33.544  23.852   5.152
30498W        W98716  38.818  41.395   0.249
30499W        W98717  33.610   1.278   0.848
30500W        W98718  14.336   6.393   1.335
30501W        W98719  10.262  15.372  13.322
30502W        W98720  32.450  20.343  12.819
30503W        W98721  11.818  36.556  14.041
30504W        W98722   6.207  26.016   3.313
30505W        W98723  31.129   8.421  12.513
30506W        W98724   7.711   5.676  14.442
30507W        W98725   7.326  38.436  11.981
30508W        W98726  16.463  19.750  11.242
30509W        W98727   7.222  36.429  12.030
30510W        W98728   0.683   8.842   5.156
30511W        W98729  15.458   9.250   2.457
30512W        W98730  29.693  41.604  14.085
30513W        W98731   4.707  21.497   2.315
30514W        W98732   9.206  29.909   2.262
30515W        W98733  23.262  40.823  10.956
30516W        W98734  41.931  27.495  14.723
30517W        W98735   8.691  26.249  11.606
30518W        W98736   8.441  10.278   1.855
30519W        W98737  13.077  30.099  14.284
30520W        W98738  16.746   6.220  14.036
30521W        W98739   7.156  20.500  11.605
30522W        W98740   2.030  22.625   3.464
30523W        W98741  26.338  36.946   4.448
30524W        W98742   0.374  14.580  10.629
30525W        W98743  17.268  10.404  10.640
30526W        W98744   4.680   7.396   4.725
30527W        W98745  27.465   4.952  13.363
30528W        W98746  43.283   2.090   4.314
30529W        W98747  11.222  32.670  13.312
30530W        W98748  13.832  24.730   2.002
30531W        W98749  26.498  22.086  10.293
30532W        W98750  19.651  23.995  14.389
30533W        W98751  28.593   3.401   9.824
30534W        W98752   7.359  26.486   1.985
30535W        W98753  22.091   4.018   4.643
30536W        W98754  38.281   8.828   1.323
30537W        W98755  13.839   9.798  12.072
30538W        W98756   5.864   0.929   2.669
30539W        W98757  42.890  33.652   1.297
30540W        W98758  29.538  25.522   4.472
30541W        W98759  11.069  37.859   1.443
30542W        W98760  43.932  26.264   1.846
30543W        W98761  27.461  44.420   2.118
30544W        W98762  14.770  24.318   1.787
30545W        W98763  28.468  10.810  13.215
30546W        W98764   4.315  24.097  11.459
30547W        W98765  30.263  24.506  12.069
30548W        W98766   0.759   4.154   4.312
30549W        W98767  34.649  36.250  12.162
30550W        W98768  37.274  25.330  13.394
30551W        W98769  15.022  24.738   2.673
30552W        W98770  28.124  14.281   2.316
30553W        W98771  30.634  22.026  14.697
30554W        W98772  37.400  27.429  10.560
30555W        W98773  35.997  41.503   2.706
30556W        W98774   2.398  20.157   0.393
30557W        W98775  44.440  22.485   3.616
30558W        W98776  20.574  12.670  13.979
30559W        W98777  42.986  16.292  11.522
30560W        W98778  20.413   9.645  12.569
30561W        W98779  34.097   9.477  13.826
30562W        W98780  34.953  22.267  12.026
30563W        W98781  35.149  37.615   1.660
30564W        W98782  41.750  39.287  11.095
30565W        W98783  16.607  11.852   4.232
30566W        W98784  12.641  42.836  13.380
30567W        W98785   2.858   1.056   4.389
30568W        W98786   6.365  11.905   0.285
30569W        W98787   6.243   0.776   0.902
30570W        W98788  29.485  28.597   0.106
30571W        W98789  39.857  36.955   2.454
30572W        W98790   3.750  35.789  14.770
30573W        W98791  12.685  35.965  12.097
30574W        W98792   1.056  16.368  14.823
30575W        W98793  14.198  15.887   3.322
30576W        W98794  44.206  42.732  14.502
30577W        W98795  22.357  43.085   1.862
30578W        W98796  29.738  33.186  13.516
30579W        W98797  17.638  34.357  10.899
30580W        W98798  23.961   5.197   2.768
30581W        W98799  19.053  22.501  12.022
30582W        W98800   6.363  21.579  14.426
30583W        W98801  29.999  21.684   4.328
30584W        W98802  30.918  16.572  14.418
30585W        W98803   8.314  23.400  10.672
30586W        W98804  12.931  20.472  14.943
30587W        W98805  38.304  26.261   0.181
30588W        W98806  40.054  43.556   0.824
30589W        W98807   9.896  27.182  14.049
30590W        W98808  40.951  42.242   2.784
30591W        W98809  37.714  37.572   2.765
30592W        W98810  37.582  42.495   0.868
30593W        W98811  31.080  29.617   0.432
30594W        W98812  31.120  39.114   4.467
30595W        W98813   5.875  19.638  13.293
30596W        W98814  11.279  15.075   1.004
30597W        W98815  30.043   4.899  13.826
30598W        W98816  21.542   4.387   1.400
30599W        W98817  26.706   4.495  12.838
30600W        W98818  21.973  33.172  13.541
30601W        W98819  35.362   9.750   1.670
30602W        W98820  30.094  43.008   4.656
30603W        W98821  27.958   4.070  13.067
30604W        W98822  21.116  10.641   2.611
30605W        W98823  33.272  39.816  14.857
30606W        W98824  30.327  25.549  13.412
30607W        W98825   8.910  41.181   2.763
30608W        W98826  35.926  24.558   2.800
30609W        W98827  14.784  12.200   2.427
30610W        W98828   5.817  37.498  14.284
30611W        W98829   7.505   8.737  12.488
30612W        W98830   0.308  16.100   4.747
30613W        W98831   6.185  24.657   0.435
30614W        W98832   1.237  28.602   1.915
30615W        W98833  19.240  21.434   4.595
30616W        W98834  22.733   4.837  10.559
30617W        W98835  21.477  32.572  14.265
30618W        W98836  20.646   1.417  12.912
30619W        W98837  16.839  15.373  13.822
30620W        W98838  28.737  18.585  11.415
30621W        W98839  26.075  37.007   0.205
30622W        W98840  32.848   6.866   4.841
30623W        W98841  24.218  40.823  10.703
30624W        W98842  12.317  14.788   1.599
30625W        W98843  30.932   6.430   2.703
30626W        W98844  34.002  39.045  13.488
30627W        W98845  24.019  43.582   1.237
30628W        W98846  44.638  12.314   4.178
30629W        W98847  33.119  21.442   3.808
30630W        W98848  41.055  20.210  13.401
30631W        W98849  32.541  41.233  14.868
30632W        W98850  33.437  38.019  11.627
30633W        W98851  25.979  24.125   3.736
30634W        W98852  18.506  37.582   4.523
30635W        W98853  11.181  17.769  10.819
30636W        W98854  42.494   6.620  11.607
30637W        W98855  26.175  41.589  14.299
30638W        W98856   0.264  10.588   3.366
30639W        W98857  24.413  33.377  11.555
30640W        W98858  43.357  39.963  10.609
30641W        W98859  42.715  25.692   2.737
30642W        W98860  17.267  30.006   1.003
30643W        W98861  31.099   4.196   1.438
30644W        W98862   1.209  12.702   0.259
30645W        W98863  35.539  31.435   0.318
30646W        W98864  13.093  23.639   3.275
30647W        W98865  27.453  25.449   1.910
30648W        W98866   7.638  12.784  12.452
30649W        W98867   8.511  19.740   3.927
30650W        W98868  11.681  44.292   0.693
30651W        W98869  25.631   2.516   1.458
30652W        W98870   4.740  38.864  14.736
30653W        W98871  36.663  24.518  13.495
30654W        W98872  28.302  30.428  11.740
30655W        W98873  28.839  35.031  14.966
30656W        W98874   8.887   1.328  13.895
30657W        W98875  38.839  43.634  13.224
30658W        W98876  35.460  14.376   0.922
30659W        W98877  18.715  32.972   3.581
30660W        W98878  42.929  12.755  10.696
30661W        W98879  41.639  43.122   3.242
30662W        W98880  13.138   5.698   4.848
30663W        W98881   3.883  20.555  13.752
30664W        W98882   7.855  35.142   4.162
30665W        W98883  38.676  30.609  11.755
30666W        W98884  36.917  19.157   1.820
30667W        W98885  11.908  25.644   4.618
30668W        W98886  11.702  34.565  11.635
30669W        W98887  28.705  42.559  12.938
30670W        W98888  40.772  32.520  13.812
30671W        W98889  44.711   5.074  13.120
30672W        W98890  37.555  10.873   0.347
30673W        W98891   3.986   7.129   0.039
30674W        W98892  31.549  18.163  13.149
30675W        W98893  32.909  20.171  13.550
30676W        W98894  16.650  40.757   0.447
30677W        W98895   0.922   3.935   1.307
30678W        W98896  15.136   2.338   1.668
30679W        W98897  34.061   1.721   4.170
30680W        W98898  17.109  33.066  11.333
30681W        W98899  22.075   8.194  13.835
30682W        W98900  41.277   4.322   4.850
30683W        W98901  25.848  17.666  10.423
30684W        W98902   3.228  19.802  12.283
30685W        W98903  40.524  26.155   0.717
30686W        W98904   4.358  19.459  11.145
30687W        W98905  21.603  43.009  11.798
30688W        W98906  10.368  12.800   0.988
30689W        W98907  39.506  30.542  13.366
30690W        W98908  17.153   7.843  13.085
30691W        W98909  33.528   2.257  12.499
30692W        W98910  14.208  34.618   1.225
30693W        W98911  43.737   4.780  14.397
30694W        W98912   9.759  22.629   3.508
30695W        W98913  19.822   4.979   0.992
30696W        W98914  28.231  21.031   3.844
30697W        W98915  27.881  31.636   4.125
30698W        W98916  33.718   7.182   4.572
30699W        W98917  40.935   4.758  13.964
30700W        W98918  39.211  32.104  14.454
30701W        W98919  28.642  24.786   3.647
30702W        W98920  30.874  28.437  10.259
30703W        W98921   1.460  30.503   3.764
30704W        W98922  12.106  26.456   0.543
30705W        W98923  10.351   9.671  11.146
30706W        W98924  40.857   7.138  14.068
30707W        W98925  32.493  14.427   3.184
30708W        W98926  42.757  32.702   0.544
30709W        W98927  13.779  11.622  12.525
30710W        W98928   7.758  43.725  14.696
30711W        W98929  40.828  24.953  13.589
30712W        W98930  36.104   6.374  13.512
30713W        W98931  35.962   0.215  13.412
30714W        W98932  35.030  42.806  11.497
30715W        W98933  27.714   2.677   1.846
30716W        W98934   0.104  27.407  13.397
30717W        W98935  42.572  33.794   4.772
30718W        W98936  24.467   2.704   2.205
30719W        W98937  23.163   9.109   4.120
30720W        W98938  25.419   7.381   3.159
30721W        W98939  36.020  28.437  10.979
30722W        W98940  30.543  21.577   1.484
30723W        W98941  12.058  43.747   5.040
30724W        W98942  26.245  35.067  13.060
30725W        W98943  34.494   0.016   3.162
30726W        W98944  44.101   0.183  11.167
30727W        W98945  38.659   4.062   1.452
30728W        W98946  28.886  32.769   1.787
30729W        W98947  35.106  32.688   2.686
30730W        W98948  13.800  39.316  13.026
30731W        W98949  12.847   1.506   3.789
30732W        W98950  42.294   7.888   4.201
30733W        W98951  30.968  42.825  13.025
30734W        W98952  35.403  11.902  14.822
30735W        W98953   6.387  35.989  12.028
30736W        W98954  25.277  36.851   2.416
30737W        W98955  22.495  32.049   0.802
30738W        W98956   5.708   6.315   2.644
30739W        W98957   6.835  32.987   1.169
30740W        W98958  12.482  43.047   4.638
30741W        W98959  22.248  32.126   2.485
30742W        W98960   6.980   4.871   1.650
30743W        W98961  41.999  28.751  13.379
30744W        W98962  14.063   6.854   1.799
30745W        W98963  16.845  27.111   3.587
30746W        W98964  36.761  16.763  11.585
30747W        W98965  32.404   2.329  10.922
30748W        W98966  18.596  27.908   0.826
30749W        W98967   3.311  18.162  12.960
30750W        W98968   7.303  25.336   1.332
30751W        W98969  14.612  42.922   1.705
30752W        W98970  30.555  26.130   2.601
30753W        W98971  31.439  21.941  10.697
30754W        W98972  11.950  14.197  14.218
30755W        W98973  18.173  18.555   4.420
30756W        W98974  26.279  13.507  11.043
30757W        W98975  15.231  14.337  12.548
30758W        W98976   2.984  37.892   1.425
30759W        W98977   6.185  21.918  11.908
30760W        W98978   2.265   4.759   9.950
30761W        W98979  10.747  41.880   1.404
30762W        W98980  23.754   8.298  14.495
30763W        W98981   3.742  10.150   3.630
30764W        W98982   5.325  39.840  14.774
30765W        W98983  26.057   1.135  12.512
30766W        W98984  26.885   6.761   2.321
30767W        W98985  34.071  35.851   4.237
30768W        W98986  36.597  38.954  14.409
30769W        W98987  39.019  22.815  10.801
30770W        W98988  22.763  19.248  11.287
30771W        W98989  18.979   3.839  10.454
30772W        W98990  18.653  34.984  11.467
30773W        W98991  31.951   5.201   3.667
30774W        W98992  23.451  16.285  11.607
30775W        W98993  16.741  27.463   3.226
30776W        W98994  18.450  27.911   2.240
30777W        W98995  39.340  35.201   0.890
30778W        W98996  37.960  43.212   0.256
30779W        W98997  39.569  30.381   3.671
30780W        W98998  31.184  41.281   3.084
30781W        W98999  37.271  37.008   0.499
30782W        W99000  21.275  26.560   2.343
30783W        W99001  14.928  22.518   2.609
30784W        W99002  15.768  35.370  10.607
30785W        W99003  31.667   0.284   4.260
30786W        W99004  38.828  18.582  14.907
30787W        W99005  23.218  12.007   0.812
30788W        W99006  22.718  32.974   3.622
30789W        W99007  15.582  12.667  12.449
30790W        W99008  11.050  34.529   2.280
30791W        W99009  12.111  39.984   0.865
30792W        W99010   8.436  28.971   4.542
30793W        W99011  36.660  42.897  14.868
30794W        W99012  35.080  35.214  11.326
30795W        W99013   9.412  21.562   3.542
30796W        W99014   4.744   5.903  12.700
30797W        W99015   3.770  27.956  13.891
30798W        W99016  33.422  13.028  11.279
30799W        W99017  34.860  21.114   3.260
30800W        W99018   0.260  21.620  14.451
30801W        W99019   8.138   2.832  11.604
30802W        W99020  21.779  28.490   1.308
30803W        W99021  36.083   1.673  11.158
30804W        W99022  44.043  41.513   1.561
30805W        W99023  38.349  38.298  13.860
30806W        W99024   2.004   1.356   2.918
30807W        W99025   4.040  42.215  10.639
30808W        W99026  26.010   5.007  12.498
30809W        W99027  22.562  35.056   3.347
30810W        W99028   2.985  23.759  14.883
30811W        W99029  14.201  20.354   2.385
30812W        W99030   5.406  34.567   2.745
30813W        W99031  40.821  41.544  12.567
30814W        W99032  10.170  42.355  10.748
30815W        W99033  35.476  10.404  14.963
30816W        W99034  27.897  14.791   1.244
30817W        W99035  18.853  31.603  12.875
30818W        W99036  32.032  36.312  10.232
30819W        W99037   1.123  40.429  13.273
30820W        W99038  42.752   2.457  12.325
30821W        W99039  31.050  24.815   0.571
30822W        W99040  27.449   5.384   2.734
30823W        W99041  22.175  41.003   2.333
30824W        W99042  22.318  42.455   0.432
30825W        W99043   3.121  30.479  11.095
30826W        W99044  12.679  28.002  11.118
30827W        W99045  22.934  23.229   4.556
30828W        W99046  40.803  21.057   2.834
30829W        W99047   1.858  34.165   1.275
30830W        W99048   8.350  23.053  14.523
30831W        W99049   1.722  37.034  13.042
30832W        W99050  34.325  16.251  11.463
30833W        W99051  33.544   0.933  11.284
30834W        W99052  41.019  12.072   1.764
30835W        W99053   0.835  42.361  13.974
30836W        W99054   3.011  28.653  11.229
30837W        W99055  24.399  24.804  10.325
30838W        W99056   1.396  19.560   4.807
30839W        W99057  35.766  43.959  10.697
30840W        W99058  36.989  10.886  12.512
30841W        W99059  34.305   2.247   4.823
30842W        W99060  44.293   5.136  12.588
30843W        W99061  31.047  16.769   1.922
30844W        W99062  38.392  28.152   0.685
30845W        W99063  26.457  28.110  10.944
30846W        W99064  10.817  29.078   0.959
30847W        W99065   2.602   0.083  11.095
30848W        W99066  39.830  27.815   0.744
30849W        W99067  34.503   4.276   3.790
30850W        W99068  25.543  36.043   5.008
30851W        W99069   3.147  20.262  13.567
30852W        W99070  42.950   3.744   0.305
30853W        W99071  39.376  17.598   4.662
30854W        W99072  34.499  33.185   3.495
30855W        W99073  16.162   7.213  10.672
30856W        W99074  27.497   3.712  14.909
30857W        W99075  29.621  42.979  14.766
30858W        W99076  43.994  11.219  11.188
30859W        W99077  28.948  40.212  12.504
30860W        W99078   8.449  37.866  10.715
30861W        W99079   9.298  20.679  14.005
30862W        W99080  33.411  40.346  12.965
30863W        W99081  43.486  19.724  10.727
30864W        W99082  10.835  36.871   2.355
30865W        W99083  26.230  28.491  14.864
30866W        W99084  31.354  23.684  14.493
30867W        W99085  28.296  16.177  14.849
30868W        W99086  35.439  40.001   3.573
30869W        W99087   2.986   0.224   4.252
30870W        W99088  15.296  20.341   2.804
30871W        W99089  13.080   3.977  12.918
30872W        W99090  35.837  25.979   1.524
30873W        W99091  28.991  11.838   2.174
30874W        W99092   4.269  38.376   3.220
30875W        W99093   5.007  41.160  12.347
30876W        W99094  18.318  20.573   4.599
30877W        W99095  11.252   9.231  10.395
30878W        W99096  32.924  22.247  14.985
30879W        W99097   6.666  17.814   0.322
30880W        W99098  17.083  27.510   4.540
30881W        W99099  34.188   0.288  13.645
30882W        W99100  40.243   7.551   2.831
30883W        W99101  28.084  22.136   4.377
30884W        W99102   5.386  16.974   2.261
30885W        W99103  29.059  11.343  10.707
30886W        W99104  41.329  28.614   1.318
30887W        W99105  22.016  30.226  13.266
30888W        W99106  35.919  15.440  11.595
30889W        W99107   0.457  41.112   0.890
30890W        W99108  22.032  13.745   4.532
30891W        W99109  13.322  11.081   3.461
30892W        W99110  31.526  29.952  10.658
30893W        W99111  20.398  36.606   0.370
30894W        W99112  24.801   2.331  14.976
30895W        W99113  23.842  38.389   0.828
30896W        W99114  10.763  22.734   3.867
30897W        W99115  40.197  17.096  12.892
30898W        W99116  40.752  10.117   5.110
30899W        W99117  21.815  19.665  10.781
30900W        W99118   7.610  42.306  10.735
30901W        W99119  43.985  42.588  12.531
30902W        W99120  42.020  23.363   2.641
30903W        W99121   0.807  36.009   4.494
30904W        W99122  33.195  15.209   2.729
30905W        W99123  40.374  35.023  13.141
30906W        W99124  35.884  20.560   2.807
30907W        W99125  18.207  38.464  12.581
30908W        W99126  25.463  29.082   1.876
30909W        W99127   8.420   0.154  11.919
30910W        W99128  10.390  43.260   3.340
30911W        W99129  34.961  44.398   1.247
30912W        W99130  16.932  26.376   2.362
30913W        W99131  29.968  31.424  13.768
30914W        W99132  24.604   0.279   2.399
30915W        W99133   9.138   2.308   4.271
30916W        W99134  42.831   7.878   4.135
30917W        W99135  34.572  35.870   0.803
30918W        W99136  16.076  11.962   3.466
30919W        W99137  14.106  24.288   3.705
30920W        W99138  29.721  12.568  10.701
30921W        W99139  29.890  16.193   1.730
30922W        W99140   1.536  29.898  13.530
30923W        W99141   0.984  38.027   1.338
30924W        W99142   9.660  14.396  11.335
30925W        W99143  24.058  11.438   4.606
30926W        W99144  35.767   1.450  11.498
30927W        W99145   6.419  23.136  11.822
30928W        W99146  36.975  19.112  13.114
30929W        W99147  22.056  37.909   3.832
30930W        W99148   8.875  26.006  13.074
30931W        W99149  39.916  34.768  13.003
30932W        W99150  22.203   1.396   1.404
30933W        W99151   8.842  40.996   2.287
30934W        W99152   4.979  37.408  12.055
30935W        W99153  20.763  31.659   4.605
30936W        W99154  29.390  10.326   2.751
30937W        W99155  42.599  28.175   4.138
30938W        W99156  31.017  28.368  13.843
30939W        W99157  29.066   3.392   1.760
30940W        W99158   8.286  35.004   0.194
30941W        W99159   8.790  31.557   4.125
30942W        W99160  28.335  12.544  11.464
30943W        W99161  28.944  33.946   1.428
30944W        W99162   0.790  27.580   5.004
30945W        W99163   7.604  10.163   1.378
30946W        W99164  20.561   7.836  13.828
30947W        W99165   2.548   3.917  13.012
30948W        W99166  36.497  29.682  12.910
30949W        W99167  31.460   2.919   3.659
30950W        W99168  37.354   5.877  10.914
30951W        W99169  16.774   6.537  14.937
30952W        W99170  38.957  27.596  14.050
30953W        W99171  27.529  17.129   3.646
30954W        W99172  19.909  10.431   0.461
30955W        W99173  40.310  36.388   2.871
30956W        W99174  36.051   3.391  11.725
30957W        W99175  10.735   2.980   4.045
30958W        W99176  17.683  28.478   3.235
30959W        W99177   3.504  21.937  14.823
30960W        W99178  13.923  31.607   4.399
30961W        W99179  10.143  32.075   1.864
30962W        W99180  43.860   1.561   1.170
30963W        W99181   5.889  11.829  14.447
30964W        W99182  37.814  26.428   0.248
30965W        W99183  31.458  32.974   2.530
30966W        W99184  37.424  19.851   0.432
30967W        W99185  33.585  34.259  13.478
30968W        W99186   3.778   2.362   1.475
30969W        W99187  20.280  11.407  12.028
30970W        W99188  44.496  14.392  13.994
30971W        W99189  26.720  18.618   1.493
30972W        W99190   5.393  18.509   3.850
30973W        W99191  35.466  37.781   2.105
30974W        W99192   2.310   9.868  10.514
30975W        W99193   1.744  14.283   1.241
30976W        W99194  28.153  11.299  11.097
30977W        W99195   5.145  13.327   0.800
30978W        W99196   9.034   2.896  14.732
30979W        W99197   3.195   7.983   1.954
30980W        W99198  29.476   6.663  11.578
30981W        W99199   1.327  10.259  11.467
30982W        W99200  13.197   2.778  11.625
30983W        W99201  20.164  27.621   2.872
30984W        W99202  32.815  40.924   1.247
30985W        W99203  29.553  35.638   2.639
30986W        W99204  36.297  41.337  14.460
30987W        W99205  42.947   7.926   2.657
30988W        W99206   7.657  33.560   4.470
30989W        W99207  17.696  40.521  11.236
30990W        W99208  34.672   8.656   2.398
30991W        W99209  13.721  19.523   3.577
30992W        W99210  40.057  17.211   4.945
30993W        W99211  10.313  33.541   1.019
30994W        W99212  25.174  17.614  13.335
30995W        W99213   3.670  21.049   2.423
30996W        W99214  36.079  32.645  13.627
30997W        W99215   1.875  41.250  12.536
30998W        W99216  22.224   4.850  11.672
30999W        W99217  36.795  16.492  12.908
31000W        W99218  40.897  37.380   0.773
31001W        W99219  21.244  21.408  11.003
31002W        W99220  17.018  39.556  11.089
31003W        W99221   5.009   1.364  10.742
31004W        W99222  44.941  11.628  11.465
31005W        W99223  11.310  17.002   0.347
31006W        W99224  18.032  27.096   0.778
31007W        W99225  22.022  12.248   4.196
31008W        W99226  28.363  21.646   2.629
31009W        W99227  33.430  12.758   3.186
31010W        W99228  29.127  31.942  13.030
31011W        W99229  41.548  33.491   3.970
31012W        W99230  36.871  34.710  14.345
31013W        W99231   8.261  18.196  13.969
31014W        W99232  35.213  34.505  11.900
31015W        W99233  11.900  26.853   4.232
31016W        W99234  18.667  35.327   1.332
31017W        W99235  35.380  44.395   0.883
31018W        W99236   6.387  16.777   5.279
31019W        W99237  34.214  12.895  14.984
31020W        W99238  24.366  36.914  11.060
31021W        W99239  37.816  25.124  11.921
31022W        W99240  15.083   5.256  14.630
31023W        W99241  18.134  18.054  13.845
31024W        W99242  42.182  40.357  11.517
31025W        W99243  42.033  26.553  12.125
31026W        W99244   2.473  40.575   1.981
31027W        W99245  35.972  30.177  12.394
31028W        W99246  19.655  10.900   1.402
31029W        W99247  25.527  35.140   3.509
31030W        W99248  21.948   9.359   2.763
31031W        W99249  23.194  31.107  11.524
31032W        W99250  11.197  18.331  12.035
31033W        W99251  23.503   5.795   1.907
31034W        W99252   2.824   8.448  12.169
31035W        W99253   5.747   0.515   4.281
31036W        W99254  42.847  17.843   4.810
31037W        W99255  35.631  40.941  12.027
31038W        W99256  32.465  12.313  10.584
31039W        W99257  25.204   0.381   3.216
31040W        W99258   1.276  26.137  13.322
31041W        W99259   6.906  18.162   4.121
31042W        W99260  32.575  25.001  14.223
31043W        W99261  15.802  12.888  14.525
31044W        W99262  30.675  42.239   2.115
31045W        W99263  34.425  19.788  11.523
31046W        W99264  29.478  19.400  12.886
31047W        W99265  39.238  18.764   3.812
31048W        W99266  28.050  21.075   1.922
31049W        W99267  16.947  25.184  12.876
31050W        W99268  24.979  38.518  11.797
31051W        W99269  36.295  36.016   1.438
31052W        W99270  16.317  10.000   1.295
31053W        W99271   3.485  39.427  13.440
31054W        W99272  20.118  36.385  13.585
31055W        W99273  42.070  43.095   4.810
31056W        W99274  21.314  32.980   0.023
31057W        W99275  13.711  23.649   0.737
31058W        W99276  12.699  44.326  12.104
31059W        W99277  27.711   9.813  14.447
31060W        W99278   3.446  18.932   0.287
31061W        W99279  43.893  44.010  12.513
31062W        W99280  39.087  25.922  11.045
31063W        W99281  44.659  44.458  10.722
31064W        W99282  37.138  39.420  12.465
31065W        W99283  22.782  26.910  11.597
31066W        W99284  18.145  43.922  11.594
31067W        W99285  27.573  25.652   3.353
31068W        W99286   0.213  40.756  12.527
31069W        W99287  41.082  28.587   3.309
31070W        W99288  13.808  23.483   0.172
31071W        W99289  38.440   9.373  11.152
31072W        W99290  40.784  21.450   0.013
31073W        W99291  11.105   1.037  14.309
31074W        W99292   3.725  15.703   0.715
31075W        W99293   7.962  13.877   2.684
31076W        W99294   7.327  20.258  13.962
31077W        W99295  33.542   5.297  14.342
31078W        W99296   2.964  13.347   3.282
31079W        W99297  28.568  34.915   3.282
31080W        W99298   2.423  21.649  10.815
31081W        W99299  42.337  44.789  12.059
31082W        W99300  15.014  12.893  14.858
31083W        W99301  18.151  15.312   2.286
31084W        W99302  15.977  37.978   3.005
31085W        W99303  27.691  33.462  14.806
31086W        W99304   4.117  32.323   0.467
31087W        W99305  37.870   7.649  14.072
31088W        W99306  34.402  33.552   2.364
31089W        W99307  40.977  17.535   2.911
31090W        W99308  18.821  37.633   1.435
31091W        W99309   0.093  36.297  14.457
31092W        W99310  13.384  30.473  14.459
31093W        W99311   9.194  12.656  12.492
31094W        W99312   5.663  43.740   4.444
31095W        W99313  12.731  21.674   2.823
31096W        W99314  38.083  24.803   0.679
31097W        W99315  33.445  40.513  12.477
31098W        W99316   8.593  12.169   2.302
31099W        W99317   0.507   9.217  10.639
31100W        W99318  32.830  37.782  14.844
31101W        W99319  30.987  42.607   1.955
31102W        W99320  36.854   6.312  14.044
31103W        W99321  41.899  32.334   4.277
31104W        W99322   5.826   8.668  13.184
31105W        W99323  27.933  31.483  11.541
31106W        W99324  27.971  44.362   3.765
31107W        W99325  14.139  41.944  14.467
31108W        W99326  28.916  30.952   0.228
31109W        W99327  11.362   3.430   0.354
31110W        W99328   0.779  34.951   1.814
31111W        W99329  31.639  25.255  11.697
31112W        W99330   6.059   7.276   9.929
31113W        W99331   1.947   5.753  10.734
31114W        W99332  14.741   3.593  12.774
31115W        W99333  10.891  18.513  11.062
31116W        W99334  43.485  27.431  11.699
31117W        W99335   5.974   0.448   3.429
31118W        W99336  20.770  23.385  11.178
31119W        W99337  43.815  12.283   4.053
31120W        W99338  21.186  37.683   9.729
31121W        W99339  34.633  22.169   3.764
31122W        W99340   0.786  20.764   1.775
31123W        W99341   5.672  22.288   3.847
31124W        W99342  16.808  43.481   0.320
31125W        W99343   7.802  10.648  13.226
31126W        W99344   9.687   6.452  13.626
31127W        W99345  33.115  15.634   2.459
31128W        W99346  30.029  25.519  13.891
31129W        W99347  33.803  13.379   0.446
31130W        W99348  44.102   4.933   1.862
31131W        W99349  43.771  21.878   3.330
31132W        W99350   2.864  30.554  14.937
31133W        W99351  26.093  37.617   3.208
31134W        W99352  20.899   5.236  11.985
31135W        W99353   0.528  37.482  10.809
31136W        W99354  26.956   7.277  13.818
31137W        W99355  31.689  39.957  13.360
31138W        W99356   8.068  15.117   4.551
31139W        W99357  32.055   8.975  11.570
31140W        W99358  15.685  13.254   2.406
31141W        W99359  31.724  10.950   0.046
31142W        W99360   5.860   5.798   1.832
31143W        W99361   5.193  34.122  12.626
31144W        W99362   5.682  17.772   1.754
31145W        W99363  23.510  17.311  11.583
31146W        W99364  11.921  32.549   1.841
31147W        W99365  17.580   9.769  14.090
31148W        W99366   4.210  28.068   4.808
31149W        W99367  41.435  10.903   1.751
31150W        W99368  31.359  10.279   0.787
31151W        W99369  31.117  29.392   2.080
31152W        W99370  37.973  38.391   0.296
31153W        W99371  34.069  36.468   2.308
31154W        W99372   7.909  42.768  13.424
31155W        W99373  31.193  36.634   3.761
31156W        W99374  31.607  15.605  12.434
31157W        W99375  15.608  26.751  12.984
31158W        W99376  40.984   2.326  12.730
31159W        W99377  28.089  14.347  12.553
31160W        W99378   4.975   4.831   4.560
31161W        W99379  35.208  38.893  12.248
31162W        W99380  18.350  41.810  11.638
31163W        W99381  25.511   8.847   4.563
31164W        W99382  34.936  25.971   0.008
31165W        W99383  13.336  24.797   2.222
31166W        W99384  22.572  16.755   2.695
31167W        W99385  30.643   0.851   0.076
31168W        W99386  17.144  17.628   1.245
31169W        W99387  23.629   0.263  10.875
31170W        W99388  18.123   1.840  13.906
31171W        W99389  23.269   1.805   2.731
31172W        W99390   7.707  14.668   4.600
31173W        W99391  34.841  31.828  10.808
31174W        W99392  11.056  21.658  12.944
31175W        W99393   7.609  20.559  12.967
31176W        W99394  11.388  29.473  13.527
31177W        W99395  23.117  40.577  12.138
31178W        W99396  13.276  32.328   3.658
31179W        W99397   8.298  18.675   1.884
31180W        W99398  36.675  15.680   3.721
31181W        W99399   8.582  31.234   4.759
31182W        W99400  27.607  38.779   0.292
31183W        W99401  33.399   7.248   0.539
31184W        W99402  10.896  11.230   2.852
31185W        W99403  18.155  29.071  13.436
31186W        W99404  35.997   5.890   1.177
31187W        W99405  43.037  20.022   4.345
31188W        W99406  21.693  40.879   1.532
31189W        W99407  20.124  30.509   5.023
31190W        W99408  17.693   9.983   1.493
31191W        W99409   7.642  31.137  13.799
31192W        W99410   6.148  13.150  11.877
31193W        W99411  38.029  22.531   1.299
31194W        W99412  43.508  20.991   0.862
31195W        W99413  41.482   4.456  14.616
31196W        W99414  30.674  25.376  12.509
31197W        W99415   1.332  19.111  12.514
31198W        W99416  15.363  14.076   1.903
31199W        W99417  36.115  38.938   1.870
31200W        W99418  41.498  25.258   1.833
31201W        W99419  12.807  32.832  11.169
31202W        W99420  16.066  14.728  12.181
31203W        W99421   9.717   8.622   1.754
31204W        W99422  34.001   1.388   0.047
31205W        W99423  16.710  26.948  10.772
31206W        W99424   3.053  19.291   0.341
31207W        W99425  18.094  16.291   3.205
31208W        W99426  11.974  23.206  13.069
31209W        W99427   9.324  44.430   4.721
31210W        W99428   3.108  31.438  13.135
31211W        W99429  11.780  16.483   0.722
31212W        W99430  44.895   9.972   3.609
31213W        W99431  12.876   7.915   2.777
31214W        W99432  42.303  18.476  11.944
31215W        W99433   6.617  40.975   2.714
31216W        W99434  42.148  25.170  12.287
31217W        W99435   3.910   6.005   3.520
31218W        W99436   8.886  27.188   2.342
31219W        W99437  12.651  19.278   4.473
31220W        W99438  42.609   5.577  13.769
31221W        W99439  42.767  38.036  11.022
31222W        W99440  43.844  14.144  12.478
31223W        W99441  19.072  40.345   1.492
31224W        W99442  25.688   1.730   2.729
31225W        W99443  35.727  34.619  11.750
31226W        W99444  27.947  15.787  11.170
31227W        W99445   1.044  23.142   2.717
31228W        W99446  32.151  31.948  13.493
31229W        W99447  41.569   7.070   4.848
31230W        W99448  25.323  30.870  14.593
31231W        W99449  17.173  39.587  14.350
31232W        W99450   1.399  15.547  13.666
31233W        W99451  40.805  17.806  14.366
31234W        W99452   6.008  30.167  12.690
31235W        W99453   2.520  22.718  12.361
31236W        W99454  11.873   7.306  14.940
31237W        W99455   8.879  22.952  11.390
31238W        W99456  36.804  39.908   4.597
31239W        W99457  33.609  31.876  14.398
31240W        W99458   2.215  27.165   0.855
31241W        W99459  21.092  24.721  10.684
31242W        W99460   4.145   4.863   0.295
31243W        W99461  33.129  37.457  11.151
31244W        W99462   1.897   7.853  12.939
31245W        W99463  10.134  31.238  14.309
31246W        W99464  37.133  16.077   3.090
31247W        W99465  41.076   4.022  10.552
31248W        W99466  29.708  32.198  11.010
31249W        W99467   5.119  27.906   2.343
31250W        W99468  18.995  32.027  13.182
31251W        W99469  12.748  23.241   0.811
31252W        W99470   9.371  24.731   0.808
31253W        W99471  18.962   4.878  11.883
31254W        W99472   6.837  16.027   2.258
31255W        W99473  44.020  36.527   3.413
31256W        W99474   8.875  19.366  11.633
31257W        W99475  42.432  39.879   4.756
31258W        W99476  38.973  13.451  12.444
31259W        W99477  27.440  21.515  12.274
31260W        W99478  19.562  19.894   2.778
31261W        W99479  43.867  37.379  13.578
31262W        W99480   6.791  21.831   4.611
31263W        W99481  15.790   3.799  14.588
31264W        W99482   0.016  40.833   4.236
31265W        W99483  19.626  20.124   4.921
31266W        W99484  30.181  11.378   0.952
31267W        W99485   6.425  29.555   1.201
31268W        W99486  13.405  15.909   0.472
31269W        W99487  43.516  22.592   9.962
31270W        W99488   8.118  18.144  13.454
31271W        W99489  13.451  31.936  14.436
31272W        W99490   3.442  13.538  12.855
31273W        W99491  43.293  37.399   0.542
31274W        W99492  37.329  22.088  13.424
31275W        W99493  38.853  43.819  13.734
31276W        W99494  16.367   8.166   3.365
31277W        W99495  31.610   4.176  13.857
31278W        W99496  33.827  21.177   3.255
31279W        W99497   7.501   5.415  10.957
31280W        W99498  43.675  40.003   0.485
31281W        W99499  34.236  33.229  12.623
31282W        W99500   0.600  24.568  11.478
31283W        W99501   8.670  27.833   0.216
31284W        W99502  39.525  26.214  11.013
31285W        W99503  35.591  16.525  10.583
31286W        W99504  29.306   8.930   2.826
31287W        W99505   3.495  13.297  14.142
31288W        W99506  36.008  39.116  11.965
31289W        W99507  37.536  10.711   1.241
31290W        W99508  28.633   7.713   4.165
31291W        W99509  41.365  27.248   2.216
31292W        W99510  25.794  23.647   0.045
31293W        W99511  43.751   1.929  14.631
31294W        W99512   3.187  43.554  12.118
31295W        W99513  17.709  17.176  13.348
31296W        W99514   5.225   6.927  10.923
31297W        W99515  36.593   0.858  12.410
31298W        W99516  24.005  39.350   0.723
31299W        W99517  43.857   1.953   2.053
31300W        W99518   9.413  17.103   3.212
31301W        W99519  33.583  20.189   0.321
31302W        W99520   7.885  25.197   2.649
31303W        W99521  30.022   5.487  12.065
31304W        W99522  11.900   4.244   4.583
31305W        W99523   6.875   5.041   2.121
31306W        W99524   1.371  37.528   2.149
31307W        W99525  20.684  11.041  12.631
31308W        W99526   1.571  34.927   2.166
31309W        W99527  15.777  44.376  12.378
31310W        W99528  32.036  30.216   0.835
31311W        W99529   6.131  15.841  10.298
31312W        W99530  28.210  38.684   3.750
31313W        W99531  29.252  36.833  13.954
31314W        W99532   3.756  42.968   4.152
31315W        W99533  34.561   8.930   0.897
31316W        W99534   1.469  30.674   4.255
31317W        W99535  36.175  26.960   2.760
31318W        W99536   6.276  39.007  13.686
31319W        W99537  40.936  44.058  12.841
31320W        W99538  12.881  30.110  14.775
31321W        W99539  13.724   3.497  13.482
31322W        W99540  41.318   3.752   9.777
31323W        W99541  44.889  31.427  11.618
31324W        W99542   8.773  19.278   5.134
31325W        W99543   1.014  33.991   4.353
31326W        W99544  38.844  19.130  14.822
31327W        W99545   6.866  28.095   0.820
31328W        W99546  14.796  40.334  14.656
31329W        W99547  27.645  11.665  11.055
31330W        W99548  18.565  41.954  12.555
31331W        W99549  17.070  18.588   4.546
31332W        W99550  39.880  22.885   4.751
31333W        W99551   2.670  20.017   3.717
31334W        W99552  22.018  34.628   1.813
31335W        W99553  22.718  27.550   1.193
31336W        W99554  30.757  27.468  14.911
31337W        W99555  10.252   3.901   0.521
31338W        W99556  13.049  20.996  11.153
31339W        W99557  35.977  30.892   1.933
31340W        W99558  14.050  17.211   1.800
31341W        W99559  16.469  19.970  14.399
31342W        W99560  39.015  22.597   3.317
31343W        W99561  44.487   0.987   0.517
31344W        W99562   9.916  42.883  14.065
31345W        W99563  28.490  11.958  14.302
31346W        W99564  17.545  31.469  12.592
31347W        W99565  21.036  37.521   1.144
31348W        W99566   1.856   4.874   1.969
31349W        W99567   1.809  16.793  14.778
31350W        W99568  43.157  34.597   2.453
31351W        W99569  14.856  22.544  10.674
31352W        W99570   9.095  13.209   0.971
31353W        W99571  29.121  41.027   1.447
31354W        W99572  21.430   0.286  11.961
31355W        W99573  41.376  37.602   1.476
31356W        W99574   2.394   0.366  13.911
31357W        W99575  36.981  24.754  14.835
31358W        W99576  35.604  10.019   4.436
31359W        W99577  24.731   3.802   1.754
31360W        W99578  36.945   3.247  11.746
31361W        W99579  16.188  12.154  12.047
31362W        W99580  34.791   2.750  14.991
31363W        W99581  21.105  35.487   1.171
31364W        W99582  39.442  30.511  10.612
31365W        W99583  38.956  34.519   1.701
31366W        W99584  44.423  40.632  14.924
31367W        W99585   4.310  25.733   2.700
31368W        W99586   9.390   7.295   2.403
31369W        W99587   4.158  40.738  13.885
31370W        W99588  43.034  19.673  10.968
31371W        W99589  16.565   5.050   3.168
31372W        W99590  20.831  17.312  13.387
31373W        W99591  22.142  43.966   4.042
31374W        W99592  23.462   9.619   1.787
31375W        W99593  31.072  29.458   1.335
31376W        W99594  23.891  40.061   2.834
31377W        W99595  28.456  36.590   0.979
31378W        W99596  23.910  33.402   3.338
31379W        W99597  33.715  39.348   1.667
31380W        W99598  43.522  44.688  13.431
31381W        W99599  30.371  25.745  11.189
31382W        W99600   6.845  34.112  10.698
31383W        W99601   9.195  22.545  11.431
31384W        W99602  13.848   6.887  14.617
31385W        W99603  16.151  13.698   2.260
31386W        W99604  18.568   2.151  10.347
31387W        W99605  20.108  19.088  12.642
31388W        W99606  22.977  16.649   4.496
31389W        W99607  37.593  34.819  11.105
31390W        W99608  33.411   3.453  14.796
31391W        W99609  28.636   8.211   1.646
31392W        W99610  33.886  12.155   1.750
31393W        W99611   0.502  40.790   4.085
31394W        W99612  44.516  34.850  12.457
31395W        W99613  37.405   1.203  14.052
31396W        W99614   0.814   1.285   4.936
31397W        W99615  10.255   3.158   2.783
31398W        W99616   7.416  32.026   3.789
31399W        W99617  26.212  20.721  13.260
31400W        W99618   1.507  31.691  13.981
31401W        W99619   9.874  30.520  12.086
31402W        W99620  22.774  23.004   4.135
31403W        W99621  17.646  37.071  13.465
31404W        W99622  28.130   6.625   0.877
31405W        W99623  43.903  18.200   2.763
31406W        W99624  13.355   9.403   1.289
31407W        W99625  32.604  34.046  13.472
31408W        W99626  38.594  22.763   2.354
31409W        W99627  23.615  12.277   3.731
31410W        W99628  15.748  38.113  12.613
31411W        W99629  30.960   2.215  14.464
31412W        W99630   4.324  14.029  10.718
31413W        W99631   3.031  13.327  13.885
31414W        W99632   5.254   2.087  10.734
31415W        W99633  43.279  24.990  11.794
31416W        W99634  17.065   4.771  11.454
31417W        W99635  29.587  38.318  13.815
31418W        W99636  43.357  35.400   1.683
31419W        W99637  42.408  23.803   4.883
31420W        W99638   5.724  43.037   1.991
31421W        W99639  18.496  23.186  11.442
31422W        W99640   2.940   1.198   0.451
31423W        W99641  30.143   7.339   3.338
31424W        W99642  19.147  35.963  10.759
31425W        W99643  14.669   5.919   1.269
31426W        W99644  13.380  27.098   2.732
31427W        W99645  42.395  29.225   4.043
31428W        W99646  34.582  21.574   0.398
31429W        W99647  22.161  26.561  13.888
31430W        W99648  26.458  11.710  14.943
31431W        W99649  44.636  23.010   4.595
31432W        W99650  21.738  36.176  10.706
31433W        W99651   8.845  20.197   1.644
31434W        W99652  16.337  24.615   0.683
31435W        W99653  33.920  25.829   3.295
31436W        W99654   6.412   6.113   0.698
31437W        W99655  11.159   1.660   0.193
31438W        W99656   1.717  18.097  13.846
31439W        W99657  19.332  44.229  11.636
31440W        W99658  41.313   9.357   0.832
31441W        W99659  31.611  16.321  12.937
31442W        W99660  32.401  38.784   4.358
31443W        W99661  27.442  37.878  11.139
31444W        W99662  35.066  31.675   0.343
31445W        W99663  26.936  43.250  11.158
31446W        W99664  24.882  37.000  11.007
31447W        W99665   2.222  18.616   4.304
31448W        W99666  26.114  26.553  12.021
31449W        W99667  22.797  17.585   0.020
31450W        W99668  44.272  35.601   0.653
31451W        W99669  15.567  21.595  13.577
31452W        W99670  40.792   2.268   3.977
31453W        W99671   0.005  20.551  13.804
31454W        W99672  15.736   9.154   2.890
31455W        W99673  15.290  43.990   3.738
31456W        W99674  19.882  17.706  13.422
31457W        W99675  39.560  15.275   2.658
31458W        W99676  42.015   2.367   0.285
31459W        W99677  20.140  29.873  13.805
31460W        W99678  11.252  13.131  13.364
31461W        W99679  31.655  30.416  13.334
31462W        W99680  43.394   5.696   3.711
31463W        W99681  30.103  31.529   4.584
31464W        W99682  37.541   9.916  13.213
31465W        W99683  29.111   7.910  11.022
31466W        W99684  17.347  24.614   2.774
31467W        W99685  22.027  30.385   1.283
31468W        W99686  28.693  35.798  14.907
31469W        W99687   5.387  19.223  14.004
31470W        W99688  34.552  37.355   3.187
31471W        W99689   6.926  43.395  13.449
31472W        W99690  13.627  25.508  13.909
31473W        W99691  18.654   0.058  13.464
31474W        W99692  31.437  28.632  14.461
31475W        W99693  43.846  37.982   0.894
31476W        W99694  11.265   4.326  14.985
31477W        W99695  37.865  43.988   3.070
31478W        W99696   9.625  23.258   1.411
31479W        W99697  39.574   1.415   1.505
31480W        W99698  13.265  44.498   2.792
31481W        W99699  44.839   8.586  11.127
31482W        W99700  11.086  27.885   1.258
31483W        W99701   0.658  29.832   2.925
31484W        W99702   9.257  34.754   2.620
31485W        W99703  39.447  17.537  14.406
31486W        W99704  23.411  30.015   2.873
31487W        W99705  40.241  31.798  11.128
31488W        W99706  43.740  12.116  11.098
31489W        W99707  13.322  25.138  13.086
31490W        W99708  27.195   1.348  11.210
31491W        W99709  33.982  22.557   3.631
31492W        W99710  30.053  12.174  13.492
31493W        W99711  39.759  43.241   2.725
31494W        W99712  23.545  23.570  10.579
31495W        W99713  32.064  25.545   1.285
31496W        W99714  42.527  39.584   0.066
31497W        W99715  16.058  37.514   1.245
31498W        W99716  22.070   3.642  12.833
31499W        W99717  10.768  10.369   4.406
31500W        W99718  38.927  22.718  12.089
31501W        W99719  40.993  21.676   0.501
31502W        W99720  25.864  24.121  10.972
31503W        W99721  17.792   0.864  13.808
31504W        W99722  16.165  29.528   1.207
31505W        W99723   6.325  17.161   3.500
31506W        W99724   6.373   5.753  13.478
31507W        W99725  43.054  43.024   2.734
31508W        W99726  24.277  11.846  11.613
31509W        W99727   3.466  10.794  11.682
31510W        W99728  32.786  32.467  13.598
31511W        W99729  42.950  31.534  12.962
31512W        W99730  21.527  34.637  13.865
31513W        W99731  42.836  11.126  14.803
31514W        W99732  44.299  17.294  13.570
31515W        W99733  19.527  35.596  13.376
31516W        W99734  20.697  30.555  13.768
31517W        W99735  15.110  10.345   3.188
31518W        W99736  27.688  22.927  12.046
31519W        W99737  43.017  21.772   2.319
31520W        W99738  13.799  42.542  11.128
31521W        W99739  36.955  27.591   4.279
31522W        W99740  17.292  35.058  12.856
31523W        W99741  31.668   2.934  13.413
31524W        W99742   6.512  20.631   4.674
31525W        W99743   7.935  38.920  14.314
31526W        W99744  23.909  24.993  14.452
31527W        W99745  23.622  43.242  13.546
31528W        W99746  27.617  16.248   2.753
31529W        W99747  36.630  34.522  11.880
31530W        W99748  16.169  38.655  13.263
31531W        W99749   1.029  42.326   1.276
31532W        W99750  32.110   5.244  13.467
31533W        W99751  11.346  28.984   2.660
31534W        W99752  38.486   7.744   0.689
31535W        W99753  28.473   1.233   3.653
31536W        W99754  14.630  12.559   3.161
31537W        W99755  43.255   0.811  12.000
31538W        W99756  44.608  13.023  12.517
31539W        W99757  43.785  23.553  14.958
31540W        W99758  20.719  31.762   2.430
31541W        W99759  35.982   0.679   2.232
31542W        W99760   9.414  11.793   0.011
31543W        W99761  28.111  15.896  12.029
31544W        W99762  39.530  40.584  12.568
31545W        W99763  23.680  26.940  11.554
31546W        W99764  14.831  21.725   3.887
31547W        W99765  11.834  36.059  10.313
31548W        W99766  23.240  25.699   0.830
31549W        W99767  12.250  11.395   2.449
31550W        W99768  16.537   4.350   1.221
31551W        W99769  29.488  16.709   3.504
31552W        W99770  33.863  21.816   0.915
31553W        W99771  30.330  13.235   2.843
31554W        W99772  23.584   6.944   3.741
31555W        W99773   7.684  27.120  13.839
31556W        W99774  18.680  37.359   9.911
31557W        W99775  36.443  14.963   0.640
31558W        W99776   8.155  20.619  14.367
31559W        W99777  43.973  34.501  13.468
31560W        W99778  33.311  17.161  10.728
31561W        W99779  20.421   5.920   0.586
31562W        W99780  39.053  37.300  13.464
31563W        W99781  20.721  31.001   1.685
31564W        W99782  30.271  33.781  10.644
31565W        W99783  15.772  26.103   1.347
31566W        W99784  14.808  19.355   2.285
31567W        W99785  26.144  31.990  10.515
31568W        W99786  13.151   3.268   3.193
31569W        W99787  12.640   3.442   3.164
31570W        W99788  36.229  18.089   3.861
31571W        W99789  15.873  28.387  11.520
31572W        W99790  23.257  34.228  11.600
31573W        W99791  43.131   6.175  14.178
31574W        W99792  39.460   6.990  13.571
31575W        W99793   3.026  15.153  14.537
31576W        W99794   2.031   8.162   1.415
31577W        W99795  39.693  17.637   2.674
31578W        W99796  44.410  36.566   0.689
31579W        W99797   1.856  34.144  10.670
31580W        W99798  42.576  28.961  11.869
31581W        W99799  16.763   2.451  12.049
31582W        W99800  44.867  39.494   1.577
31583W        W99801  26.030   7.179  13.404
31584W        W99802  13.281  13.176   3.146
31585W        W99803   7.867  32.004  13.322
31586W        W99804  44.619  33.481   0.763
31587W        W99805  13.912   5.878   1.733
31588W        W99806  44.269   4.502  13.465
31589W        W99807  20.992   5.785  13.619
31590W        W99808  15.037  16.382  12.363
31591W        W99809  21.791   5.719   4.376
31592W        W99810  18.811  31.403   4.877
31593W        W99811  19.107  28.256  13.854
31594W        W99812  44.253  19.982  13.824
31595W        W99813  31.947  33.690   2.237
31596W        W99814  33.437  43.213   4.032
31597W        W99815  23.551  14.609  11.942
31598W        W99816  33.620  42.853  14.902
31599W        W99817   7.997  27.704   0.526
31600W        W99818  14.215  10.644   0.987
31601W        W99819  41.983   4.019   1.243
31602W        W99820  10.601  27.141  13.449
31603W        W99821  31.886  22.174  10.617
31604W        W99822  19.069  22.061   1.453
31605W        W99823  14.948  36.817   3.248
31606W        W99824  15.256  30.158  11.595
31607W        W99825  33.203   6.402  13.961
31608W        W99826   5.707  14.171  11.233
31609W        W99827  34.963  43.911  12.940
31610W        W99828  43.799  10.376  10.930
31611W        W99829   8.417  42.634   2.674
31612W        W99830  28.950  11.245   1.349
31613W        W99831   7.007  13.258   4.539
31614W        W99832  19.674   0.651   5.006
31615W        W99833  32.486   2.952   0.774
31616W        W99834   0.757  16.737  13.027
31617W        W99835  22.713   4.019  14.897
31618W        W99836   0.311  29.702  10.679
31619W        W99837  33.274  14.303   1.634
31620W        W99838  31.410  32.161   1.740
31621W        W99839   0.529   1.364   2.627
31622W        W99840  19.709  32.488  13.549
31623W        W99841  31.055  26.095   0.777
31624W        W99842  13.275  44.918   0.387
31625W        W99843  43.553   4.246   1.787
31626W        W99844  12.620  18.323   0.944
31627W        W99845   6.731  34.505   3.046
31628W        W99846  23.570  28.951  14.770
31629W        W99847  27.378  26.212  11.920
31630W        W99848   2.377  24.689   4.265
31631W        W99849  18.585  14.287   2.671
31632W        W99850   7.363  25.694  12.051
31633W        W99851  29.483   1.885  13.837
31634W        W99852  38.372  14.336  11.180
31635W        W99853  20.348  43.080  11.182
31636W        W99854  19.204   2.883   3.882
31637W        W99855  23.194   6.857  12.482
31638W        W99856  40.369  17.003   2.247
31639W        W99857   0.594  18.618   0.416
31640W        W99858  36.564  43.427  14.822
31641W        W99859  11.774   9.724   2.320
31642W        W99860  16.993  31.776   4.221
31643W        W99861   3.951  19.268   4.127
31644W        W99862  24.586  22.720   3.964
31645W        W99863  25.696  12.890  10.560
31646W        W99864  12.577  30.941  14.357
31647W        W99865  19.993  37.046   4.066
31648W        W99866   3.513  13.812   5.071
31649W        W99867  43.140   0.356  14.383
31650W        W99868  26.897   4.000  11.249
31651W        W99869  23.957   9.434   2.751
31652W        W99870  39.880  22.158   4.122
31653W        W99871  43.882  40.799   0.053
31654W        W99872  42.983  32.589   1.987
31655W        W99873  41.763   4.333  13.234
31656W        W99874  14.791  27.144   4.800
31657W        W99875  32.670  22.752   2.116
31658W        W99876  14.825  29.119   3.529
31659W        W99877  17.077  29.374   2.621
31660W        W99878  39.941  11.832  12.060
31661W        W99879  31.524  37.076  10.647
31662W        W99880  38.813  16.706  12.830
31663W        W99881  13.382  16.560  11.066
31664W        W99882  42.957   9.308   1.924
31665W        W99883  17.641  43.472   2.382
31666W        W99884  29.459   3.277  12.421
31667W        W99885  39.867  23.152  11.923
31668W        W99886  28.537  43.107   4.597
31669W        W99887  24.085  36.510   3.742
31670W        W99888  26.478  24.532  11.216
31671W        W99889   9.198   6.328  10.554
31672W        W99890  14.537  40.977  11.510
31673W        W99891   6.291  25.102   2.436
31674W        W99892  22.944  15.465  12.868
31675W        W99893  17.058  15.150  14.273
31676W        W99894   9.747  19.763   2.403
31677W        W99895   5.630  14.590   4.593
31678W        W99896  44.413  44.111   4.621
31679W        W99897  35.020   5.747  11.143
31680W        W99898  17.343   3.470  10.994
31681W        W99899  19.206  39.466  11.627
31682W        W99900   9.099  41.382  11.205
31683W        W99901  26.781   8.798   3.838
31684W        W99902  16.350  15.127   5.121
31685W        W99903  23.070   7.677   2.193
31686W        W99904   8.914  11.627  13.248
31687W        W99905  24.917  28.715  11.601
31688W        W99906  37.740  41.013  12.851
31689W        W99907  17.031  40.186   2.255
31690W        W99908   0.936   9.689   2.494
31691W        W99909  33.863  40.004  12.069
31692W        W99910   3.218  17.658   4.644
31693W        W99911  29.630  29.014   4.530
31694W        W99912  21.057  34.841  13.898
31695W        W99913  31.247  29.930   3.224
31696W        W99914  21.787   1.410   3.402
31697W        W99915  17.079  11.858  11.603
31698W        W99916  35.845  28.536   2.701
31699W        W99917  42.273  41.821   3.883
31700W        W99918  44.179   2.726  11.149
31701W        W99919   3.329   5.980  11.927
31702W        W99920  22.699  32.964  11.005
31703W        W99921  36.798  29.656  13.396
31704W        W99922   3.380   3.540   4.667
31705W        W99923  33.944  41.316  11.825
31706W        W99924   3.835   2.303  14.927
31707W        W99925  30.256   9.603  14.228
31708W        W99926   8.164  11.159  11.156
31709W        W99927  35.459   4.088   2.020
31710W        W99928  16.064   0.507  10.701
31711W        W99929   2.540  29.376   2.847
31712W        W99930  31.616   0.002  14.358
31713W        W99931   9.242  22.320   0.997
31714W        W99932  32.491   9.088  12.494
31715W        W99933  37.146  32.657   2.176
31716W        W99934  32.833  31.017   5.019
31717W        W99935  14.697  38.437  14.649
31718W        W99936   6.229  38.070   2.683
31719W        W99937  38.390  18.887  13.422
31720W        W99938   6.921  26.492   3.647
31721W        W99939   7.194  14.308   2.713
31722W        W99940  16.651  34.534  11.886
31723W        W99941   4.275  41.661   0.907
31724W        W99942  12.241   7.951   1.773
31725W        W99943  41.319  29.993   0.867
31726W        W99944   0.329   3.830  14.440
31727W        W99945   3.488  28.936  13.772
31728W        W99946  14.190   4.450  14.114
31729W        W99947   8.169  12.879  13.680
31730W        W99948  28.378   0.403  11.384
31731W        W99949  28.228  31.697   5.005
31732W        W99950  34.133  37.720  12.496
31733W        W99951   4.479  10.633   4.939
31734W        W99952  39.811  14.130  14.375
31735W        W99953  21.044  10.782  10.595
31736W        W99954  13.507   1.899   3.249
31737W        W99955  44.298   7.164   2.310
31738W        W99956   7.538  30.619  12.032
31739W        W99957  27.642  27.466  13.997
31740W        W99958   4.351  20.810   1.827
31741W        W99959  35.943  33.990  12.171
31742W        W99960   5.358  10.875  10.634
31743W        W99961  10.806  26.499   3.149
31744W        W99962  24.783  42.804   3.743
31745W        W99963  15.329  17.801   2.265
31746W        W99964   1.322  38.922  14.105
31747W        W99965  20.254  20.117   4.183
31748W        W99966   9.885  15.263  10.423
31749W        W99967  22.103  14.707  13.536
31750W        W99968  20.522  18.365   0.838
31751W        W99969  22.178  17.527   3.674
31752W        W99970   7.603  37.048   4.454
31753W        W99971  15.187   4.105  13.456
31754W        W99972   4.361  37.348   3.367
31755W        W99973  27.668  30.102   3.241
31756W        W99974  21.033  35.620  13.514
31757W        W99975  12.528  35.325   1.305
31758W        W99976  26.713  33.781   0.937
31759W        W99977  27.753  14.206   0.004
31760W        W99978  28.100   0.318  14.534
31761W        W99979  28.627   1.053   1.578
31762W        W99980  31.179  15.722  13.977
31763W        W99981  21.565  43.012   0.516
31764W        W99982  18.745  14.056   3.127
31765W        W99983  11.925   9.872  14.251
31766W        W99984  36.478  21.394   4.593
31767W        W99985   2.904   4.192   0.336
31768W        W99986  43.744  19.745  12.127
31769W        W99987  32.350  41.102  12.949
31770W        W99988   1.691  11.985  11.609
31771W        W99989  33.055   6.807  14.243
31772W        W99990  21.525  13.714   1.399
31773W        W99991  41.672  17.320  12.442
31774W        W99992   7.801   1.855  12.011
31775W        W99993  10.192  14.099  11.755
31776W        W99994  28.211  13.741   1.719
31777W        W99995   3.030  41.455   3.588
31778W        W99996  19.213  16.088   0.961
31779W        W99997  26.430  21.127   1.390
31780W        W99998   9.978  29.112  11.511
31781W        W99999  22.729  22.732   3.722
31782W        W    0  41.075  23.077  10.792
31783W        W    1  28.377  19.624   4.085
31784W        W    2  22.234  33.347  11.169
31785W        W    3   9.896  10.324  11.602
31786W        W    4  42.413  35.105  13.112
31787W        W    5   2.601  38.559   0.858
31788W        W    6  28.034   7.081  11.657
31789W        W    7  15.045   1.373   5.736
31790W        W    8  18.569   1.875   2.765
31791W        W    9  26.223   5.144  11.170
31792W        W   10  24.652  32.670   2.684
31793W        W   11  35.636  31.059   0.796
31794W        W   12  19.258  14.556   1.867
31795W        W   13  16.650  19.421  10.597
31796W        W   14  40.709  26.109  11.015
31797W        W   15  31.421  41.927   1.262
31798W        W   16   5.989  34.551   1.637
31799W        W   17  25.554   4.959  14.794
31800W        W   18   9.652  18.762  11.623
31801W        W   19  12.912   0.263   3.293
31802W        W   20  19.018   5.835  13.430
31803W        W   21  19.251   4.901  13.767
31804W        W   22  30.114  35.492  14.568
31805W        W   23   3.553  41.855  14.063
31806W        W   24  10.783  17.397   0.428
31807W        W   25  42.041   5.623   4.643
31808W        W   26  44.299  22.557  11.595
31809W        W   27  15.750  40.038   1.062
31810W        W   28  44.699  36.368   1.423
31811W        W   29  27.999  27.961  13.791
31812W        W   30  16.412  15.087   3.784
31813W        W   31  38.992  24.717  12.170
31814W        W   32  34.066   4.624  13.351
31815W        W   33  35.443  23.434  14.222
31816W        W   34  15.782  29.908   4.304
31817W        W   35  18.623  15.090  12.661
31818W        W   36  29.583   8.763  13.751
31819W        W   37  32.660   9.493  14.988
31820W        W   38  38.180  23.394   4.224
31821W        W   39   2.354  31.205  12.197
31822W        W   40  22.690  18.757   4.874
31823W        W   41  35.453  28.552  13.112
31824W        W   42  39.451  39.389  12.829
31825W        W   43  41.785  18.072  14.271
31826W        W   44  23.068  28.064  11.131
31827W        W   45  29.977  19.555  13.003
31828W        W   46  43.980   8.402   3.716
31829W        W   47  39.537  10.427   2.767
31830W        W   48  37.700   6.974  13.477
31831W        W   49  41.756  27.481  12.034
31832W        W   50  16.537  18.551   0.282
31833W        W   51   3.377  11.560  14.367
31834W        W   52  28.188  35.218   4.084
31835W        W   53  22.909   0.197   2.241
31836W        W   54   0.160  23.264  11.102
31837W        W   55  29.102  27.135  13.752
31838W        W   56  35.014  18.229   4.607
31839W        W   57   7.785  21.354   0.757
31840W        W   58  10.627  16.609  13.609
31841W        W   59  10.253  39.576  13.288
31842W        W   60  12.327   7.970   3.791
31843W        W   61  12.103  37.755   0.313
31844W        W   62   2.413  37.147   1.694
31845W        W   63  25.607  12.300   3.703
31846W        W   64  41.125  28.944  11.602
31847W        W   65  14.945  35.909   3.618
31848W        W   66  37.565  30.493  14.327
31849W        W   67  15.277   2.810  13.018
31850W        W   68  30.011   4.993   0.598
31851W        W   69  40.968  26.576  11.717
31852W        W   70   3.228  31.319  14.951
31853W        W   71   6.666  16.580  13.979
31854W        W   72   2.335  18.312   0.064
31855W        W   73   7.832  43.101   5.000
31856W        W   74   3.086  42.279   1.455
31857W        W   75  16.691  22.624   4.460
31858W        W   76  19.125  16.528   2.761
31859W        W   77  36.078  42.482  10.655
31860W        W   78  18.532  14.159  13.002
31861W        W   79  28.544  27.944   2.923
31862W        W   80   6.759  18.871   1.536
31863W        W   81  10.924  18.605   2.761
31864W        W   82  20.262  24.048  11.576
31865W        W   83  13.847  22.705   4.243
31866W        W   84   3.577  10.441  12.601
31867W        W   85  32.036  25.618   1.783
31868W        W   86  25.335  38.087   1.959
31869W        W   87  32.617  10.023   3.683
31870W        W   88  14.685  23.131   1.343
31871W        W   89  17.194  36.390  14.372
31872W        W   90   8.752  19.867   5.388
31873W        W   91   1.865  31.071   3.336
31874W        W   92  34.537  39.174  10.691
31875W        W   93  40.346  14.634  10.693
31876W        W   94  19.007  25.501   1.285
31877W        W   95   4.903  39.433  12.068
31878W        W   96  18.994  17.177  14.235
31879W        W   97  26.394  26.037   2.080
31880W        W   98   4.217   9.518   0.548
31881W        W   99  18.034   0.746  11.135
31882W        W  100  25.839   9.161   0.844
31883W        W  101  26.290   9.401   2.884
31884W        W  102  16.842  24.562  11.627
31885W        W  103  15.540  34.935   4.767
31886W        W  104  20.681  42.009   3.381
31887W        W  105  36.514  18.843   4.267
31888W        W  106  32.703  16.756   2.571
31889W        W  107  39.813  12.317  12.194
31890W        W  108  39.293  38.377  10.672
31891W        W  109  34.311   9.833  14.355
31892W        W  110  12.994  43.991   2.798
31893W        W  111   7.316   2.930   0.487
31894W        W  112  19.705  38.559  11.701
31895W        W  113   9.150  14.563  10.236
31896W        W  114  30.892  41.534   0.019
31897W        W  115  37.572  43.000   2.232
31898W        W  116  11.059  17.215  13.467
31899W        W  117  19.121  39.991  10.895
31900W        W  118  30.094  20.083   1.936
31901W        W  119  12.399   5.996  11.083
31902W        W  120  16.044  35.092   1.196
31903W        W  121  33.519  29.252   2.078
31904W        W  122   3.140  13.803   2.189
31905W        W  123  31.391  43.750   2.512
31906W        W  124  17.770  36.003   2.769
31907W        W  125  29.074  22.606   2.871
31908W        W  126   7.752  44.452  12.599
31909W        W  127  23.799   3.470  11.169
31910W        W  128  15.545  38.405  11.086
31911W        W  129  16.202  39.323   4.939
31912W        W  130  20.597  30.012   2.340
31913W        W  131  22.735  29.051  11.682
31914W        W  132  10.684  24.060  10.595
31915W        W  133  40.514  17.313   2.747
31916W        W  134   0.860  41.930   4.414
31917W        W  135  28.533  21.328   1.361
31918W        W  136   7.519  29.309   0.523
31919W        W  137  31.028  41.812  10.681
31920W        W  138  43.000  42.730  11.606
31921W        W  139  31.570   5.349  10.509
31922W        W  140   1.922   2.695  11.538
31923W        W  141  43.877   8.108   3.296
31924W        W  142  44.862  34.463  10.747
31925W        W  143  15.069  18.574   0.568
31926W        W  144  13.127  29.610   0.765
31927W        W  145  15.178  21.471  12.181
31928W        W  146  21.103   3.270   1.224
31929W        W  147  27.182  23.989  13.392
31930W        W  148  32.644  39.421  13.332
31931W        W  149  40.297  28.153  12.598
31932W        W  150  36.574  34.135   2.939
31933W        W  151  22.069   5.489  13.439
31934W        W  152  40.660  14.407   2.418
31935W        W  153   0.460  42.701   2.755
31936W        W  154  30.085  32.406   1.840
31937W        W  155  31.256  43.924  11.512
31938W        W  156  13.663   4.218  14.878
31939W        W  157  14.199  22.082   4.576
31940W        W  158   7.424  39.251  14.883
31941W        W  159  42.718   7.564  14.985
31942W        W  160   1.475  25.909  12.124
31943W        W  161  27.599  40.403   2.215
31944W        W  162  43.916  42.889   1.678
31945W        W  163   0.877  20.573  14.792
31946W        W  164   8.163   3.699  10.621
31947W        W  165  19.100  26.438  12.143
31948W        W  166  23.705  28.185   3.562
31949W        W  167  36.381  41.443   3.905
31950W        W  168  33.508  30.101   5.072
31951W        W  169   3.023  34.490  12.001
31952W        W  170  42.873   8.469   1.445
31953W        W  171  16.268   9.780   4.712
31954W        W  172  44.965  37.932   4.350
31955W        W  173   7.398   5.915   3.738
31956W        W  174  20.010  36.681   1.199
31957W        W  175  36.154  44.902  12.982
31958W        W  176  10.607  20.534   0.446
31959W        W  177  26.413  19.125   2.644
31960W        W  178  13.650  12.211  11.188
31961W        W  179  30.987  37.060  10.796
31962W        W  180  39.033  15.138   3.839
31963W        W  181   8.185  44.372  10.876
31964W        W  182  43.010  22.093   4.143
31965W        W  183   8.473   2.192   5.029
31966W        W  184  25.158  25.707  13.290
31967W        W  185  26.652  42.827   4.600
31968W        W  186  44.006  20.500  13.954
31969W        W  187  38.571   2.166  13.047
31970W        W  188  16.853   7.397   4.141
31971W        W  189  35.240  24.051   0.705
31972W        W  190  44.485   4.748   5.027
31973W        W  191  15.286  17.834   3.234
31974W        W  192  35.418  41.663  13.497
31975W        W  193  42.816  28.450   1.509
31976W        W  194  10.169   1.746   0.390
31977W        W  195  25.730   6.891   1.318
31978W        W  196  42.965  14.877   2.507
31979W        W  197  18.033  29.627   0.586
31980W        W  198  32.353  32.712  13.753
31981W        W  199  18.328  20.695   2.643
31982W        W  200  28.470   7.656   0.481
31983W        W  201   6.648  34.855  14.705
31984W        W  202   3.332   4.778   1.735
31985W        W  203  40.593  39.983   3.117
31986W        W  204  44.405  19.852   5.077
31987W        W  205   2.218  13.846   1.727
31988W        W  206  16.068  35.604   4.193
31989W        W  207   0.463  11.487   3.684
31990W        W  208  38.671  17.108  14.907
31991W        W  209   5.496   5.959  14.366
31992W        W  210  21.670  20.800   1.007
31993W        W  211  40.709  17.835  11.602
31994W        W  212  27.623   1.334   3.085
31995W        W  213  13.233  11.627  13.017
31996W        W  214  18.084   8.353  13.647
31997W        W  215  13.614  39.509  12.591
31998W        W  216  30.054  25.419   2.363
31999W        W  217  21.219   0.583  11.137
32000W        W  218  17.099  42.906   1.783
32001W        W  219   1.837   1.442   4.346
32002W        W  220  22.002  14.063   4.107
32003W        W  221  12.181  36.857  14.271
32004W        W  222   8.781  10.970   0.632
32005W        W  223  26.226  20.637   1.254
32006W        W  224  33.147  22.508   3.256
32007W        W  225  25.622  16.252   4.916
32008W        W  226  11.088  11.277  13.312
32009W        W  227  32.401   6.246   0.607
32010W        W  228  41.848  28.728  14.397
32011W        W  229  42.467   3.011   3.138
32012W        W  230   3.303  33.463  13.933
32013W        W  231  21.679  29.908  11.148
32014W        W  232  23.168   4.201  14.679
32015W        W  233  14.049   1.881  13.012
32016W        W  234   9.357   2.800   3.879
32017W        W  235   2.736   9.950   1.111
32018W        W  236  37.867  17.740  14.857
32019W        W  237   5.891  15.768   4.852
32020W        W  238   8.864   9.689   4.578
32021W        W  239   2.298  15.725  14.855
32022W        W  240  31.173  41.335  12.475
32023W        W  241  41.069  33.044   0.261
32024W        W  242  38.307   1.743  12.502
32025W        W  243  42.528  32.619   1.018
32026W        W  244  11.553  42.995   3.610
32027W        W  245  11.573  13.636  11.648
32028W        W  246  31.401  39.341   2.245
32029W        W  247   7.935  19.187   4.528
32030W        W  248  28.841  37.986   2.896
32031W        W  249  37.826  37.884   3.183
32032W        W  250   0.837  34.472   1.585
32033W        W  251  34.461  15.680   2.566
32034W        W  252  32.372  21.680   0.687
32035W        W  253   5.181  44.189   0.956
32036W        W  254  11.362  13.909  10.737
32037W        W  255   9.647   1.757   0.308
32038W        W  256  29.163  41.438   4.340
32039W        W  257   4.907  23.046   2.378
32040W        W  258  23.621  21.536  10.645
32041W        W  259  38.039  31.102  10.778
32042W        W  260  39.019   9.650  12.111
32043W        W  261   8.349  19.757   2.602
32044W        W  262  23.101  17.761  13.699
32045W        W  263  23.609  15.880   2.497
32046W        W  264  30.641  35.651  11.584
32047W        W  265  22.449  29.854  10.626
32048W        W  266  22.041  27.569   4.000
32049W        W  267  23.595  41.696   0.440
32050W        W  268  16.389   4.196   0.443
32051W        W  269   4.475   7.686   3.429
32052W        W  270  15.648  35.158  12.482
32053W        W  271  14.814  41.104   3.617
32054W        W  272   3.732  41.313   5.217
32055W        W  273  23.699  38.082  11.489
32056W        W  274  20.971  44.364  12.579
32057W        W  275  17.376  14.644   1.218
32058W        W  276  26.703  15.999  11.473
32059W        W  277  43.762  32.461   1.297
32060W        W  278  40.252   5.451   4.903
32061W        W  279   3.103  43.454   0.831
32062W        W  280  11.410  22.047  12.402
32063W        W  281   0.946  21.771   0.774
32064W        W  282  36.391   2.499  12.645
32065W        W  283  25.008  41.312   3.620
32066W        W  284  20.628   5.514   4.361
32067W        W  285  41.470  33.452  11.959
32068W        W  286  35.055  41.109  14.822
32069W        W  287  36.950  42.773   2.722
32070W        W  288  24.653  16.041   1.757
32071W        W  289  10.404  22.160   4.286
32072W        W  290  33.192   8.337  13.375
32073W        W  291  11.639  33.393   2.718
32074W        W  292   7.812   7.194   2.931
32075W        W  293   4.257  25.173  12.912
32076W        W  294  39.780  18.539   0.574
32077W        W  295  27.002  20.954   4.937
32078W        W  296  32.127  18.706  14.378
32079W        W  297  22.545   3.803  11.171
32080W        W  298   4.039  43.882   1.333
32081W        W  299  34.656  12.704  11.713
32082W        W  300  33.946  16.170  14.920
32083W        W  301  19.929  34.566   1.872
32084W        W  302  31.730  37.310  11.504
32085W        W  303  20.299  22.145  10.693
32086W        W  304  37.540  33.931  11.157
32087W        W  305  15.955  34.886  13.423
32088W        W  306  38.416  11.102  10.695
32089W        W  307  24.965  16.601  11.026
32090W        W  308   6.351  13.149   1.972
32091W        W  309   0.629  11.301   5.115
32092W        W  310  34.908  16.306   3.797
32093W        W  311  36.981  40.868  13.346
32094W        W  312  19.164  44.974  14.139
32095W        W  313   3.177  16.887   4.251
32096W        W  314  41.846   5.314  14.899
32097W        W  315  34.569   6.263  13.684
32098W        W  316  18.111  14.848  11.488
32099W        W  317  22.936  25.187   1.029
32100W        W  318  24.591   9.853  12.481
32101W        W  319   2.866  31.016   1.884
32102W        W  320  14.409  29.024   3.250
32103W        W  321   8.133  16.035   4.514
32104W        W  322   6.689   8.587  13.981
32105W        W  323  21.071   9.103  14.476
32106W        W  324   4.770   9.783   3.313
32107W        W  325  36.568  20.716  12.940
32108W        W  326   0.931   3.394  12.895
32109W        W  327  35.638  33.891  13.165
32110W        W  328  38.958  40.107   1.652
32111W        W  329  19.621  43.191  14.409
32112W        W  330  16.047  19.543   4.115
32113W        W  331  32.409  39.204   3.416
32114W        W  332  38.105  36.889  14.304
32115W        W  333   4.709  23.981   1.389
32116W        W  334   0.687  39.983  13.978
32117W        W  335  31.854  11.804   1.871
32118W        W  336  11.762  31.341   3.896
32119W        W  337  33.248   1.403   3.861
32120W        W  338  10.871   0.235  11.288
32121W        W  339  24.683  19.797  12.816
32122W        W  340  23.565  32.464   4.581
32123W        W  341  44.343  34.964   5.151
32124W        W  342  39.558  24.554   4.782
32125W        W  343  17.610   0.262   4.775
32126W        W  344  20.447  37.607  11.074
32127W        W  345   1.477  39.138  12.396
32128W        W  346  17.023  28.686   0.345
32129W        W  347  44.432  28.549  14.531
32130W        W  348  19.599   2.508   3.169
32131W        W  349  10.841  43.320  14.861
32132W        W  350  39.903  15.384   3.857
32133W        W  351  25.378  13.375  12.625
32134W        W  352  29.882   7.779   3.455
32135W        W  353  36.144  10.659   0.283
32136W        W  354  32.494  12.787  13.092
32137W        W  355  33.467  35.871  13.535
32138W        W  356  37.371  33.788  11.606
32139W        W  357  26.710  18.690   2.518
32140W        W  358   2.310  25.997  14.364
32141W        W  359  17.066  25.261   0.359
32142W        W  360  37.925  18.591  13.899
32143W        W  361   8.403  17.784  11.748
32144W        W  362   9.190   6.273   3.814
32145W        W  363  13.880  35.108   4.127
32146W        W  364  22.057  22.014  13.167
32147W        W  365  21.565  10.402  12.628
32148W        W  366  44.023  31.518  11.997
32149W        W  367  35.842  19.801  10.747
32150W        W  368  44.464  26.784   3.342
32151W        W  369  18.345  35.980  11.599
32152W        W  370  44.599   7.815  14.600
32153W        W  371  35.784   3.990   3.232
32154W        W  372  22.591  13.570  12.412
32155W        W  373   9.802   4.461  12.404
32156W        W  374  25.984   7.185  14.859
32157W        W  375  16.276  42.118  12.539
32158W        W  376  42.880  15.240   0.694
32159W        W  377   3.464  44.233  11.632
32160W        W  378  15.660  26.652   0.800
32161W        W  379   2.517  33.739   5.104
32162W        W  380  25.003  12.641   1.952
32163W        W  381  32.740  23.115  12.633
32164W        W  382  37.986   9.224   1.020
32165W        W  383  43.374   2.402   4.723
32166W        W  384   0.215  22.207   0.063
32167W        W  385  27.085  29.533  14.576
32168W        W  386  22.292   2.739  12.869
32169W        W  387  15.665  43.021  12.915
32170W        W  388  28.181  13.973  11.123
32171W        W  389  13.370  37.479   4.065
32172W        W  390   2.222  15.652   1.866
32173W        W  391  18.188  29.713   4.078
32174W        W  392  35.396  24.500  12.889
32175W        W  393  26.051  36.122   2.922
32176W        W  394  17.521   5.889  11.654
32177W        W  395  13.919   2.927   4.568
32178W        W  396  19.049  42.967  13.892
32179W        W  397   3.737  18.012  12.319
32180W        W  398  16.017   6.171  11.532
32181W        W  399  43.679  41.174  11.735
32182W        W  400   0.865   2.955  13.166
32183W        W  401  30.371  11.820   1.586
32184W        W  402  14.851  21.072  11.470
32185W        W  403  10.000  14.374  12.563
32186W        W  404  36.141  14.191   2.644
32187W        W  405  18.634   2.601  10.610
32188W        W  406   5.835  21.671  14.346
32189W        W  407  24.115   6.765  11.920
32190W        W  408  32.142  18.102  12.103
32191W        W  409  19.502   6.717  12.561
32192W        W  410  37.478  33.101   0.437
32193W        W  411   1.705  17.785  10.814
32194W        W  412  17.106  24.713  12.050
32195W        W  413  23.686  14.175  11.245
32196W        W  414  14.776  11.394   4.600
32197W        W  415  35.869   5.618  11.688
32198W        W  416  31.699  27.921  12.466
32199W        W  417  22.556  30.050   2.257
32200W        W  418  24.181  15.839  13.287
32201W        W  419   3.216  38.838  13.344
32202W        W  420   7.897   1.440   3.866
32203W        W  421  27.441  33.375   1.360
32204W        W  422   5.316  30.210  13.447
32205W        W  423   5.591  13.324  13.627
32206W        W  424  15.576   7.786   4.528
32207W        W  425   5.256  15.556   0.971
32208W        W  426  15.766  43.123   3.356
32209W        W  427  36.923  43.519   0.499
32210W        W  428  10.344  31.345   3.646
32211W        W  429  27.159  38.498  14.475
32212W        W  430  18.511  35.816   3.232
32213W        W  431  24.708   1.894   0.737
32214W        W  432  24.450  32.022  13.987
32215W        W  433  39.907  27.240  13.823
32216W        W  434   9.361  33.326   2.245
32217W        W  435  12.704  14.864   2.850
32218W        W  436  32.388   0.745  14.666
32219W        W  437  36.589  23.076   3.454
32220W        W  438  10.641  12.063  13.958
32221W        W  439   7.268  13.543   4.072
32222W        W  440  11.793  10.780  12.616
32223W        W  441  28.888   5.686  11.186
32224W        W  442  11.880  28.143  13.907
32225W        W  443   4.430   1.297  13.970
32226W        W  444  17.635  42.792   4.117
32227W        W  445   4.257  39.687   0.685
32228W        W  446   4.820  29.046  12.980
32229W        W  447  35.070  43.253  13.580
32230W        W  448  17.376  26.218   4.634
32231W        W  449  24.565  25.875  14.582
32232W        W  450  38.193   2.674   1.075
32233W        W  451  14.188  43.450  12.064
32234W        W  452   1.974  42.471   4.382
32235W        W  453  43.081  10.696  13.425
32236W        W  454  14.093  34.375   2.744
32237W        W  455   4.680   6.726   1.331
32238W        W  456  21.226  18.321   0.327
32239W        W  457  34.891  10.435   1.312
32240W        W  458   0.456  41.579   4.468
32241W        W  459   8.501  29.831  11.971
32242W        W  460  24.511   4.281   1.720
32243W        W  461  10.896  28.895   2.377
32244W        W  462  22.516  32.106  11.851
32245W        W  463  38.579  13.422   3.781
32246W        W  464  35.053  19.650  11.138
32247W        W  465  44.474   1.949  10.796
32248W        W  466   7.246  34.692  11.201
32249W        W  467  35.925  22.465   4.006
32250W        W  468   6.411  44.986   0.460
32251W        W  469   0.754  34.867  11.076
32252W        W  470  40.225  16.603   4.215
32253W        W  471  38.406  37.532  14.279
32254W        W  472  38.954   0.274  12.057
32255W        W  473  25.090   9.938   0.407
32256W        W  474   9.229  30.492   0.274
32257W        W  475  37.899  31.122  11.594
32258W        W  476  17.613  11.358  12.995
32259W        W  477  36.539  23.114   1.981
32260W        W  478   0.991   9.467   4.718
32261W        W  479  24.550  33.545   1.656
32262W        W  480  11.788  44.504   5.245
32263W        W  481  27.409  11.474   0.924
32264W        W  482  11.295  16.139   5.480
32265W        W  483  11.615  19.677   1.843
32266W        W  484  34.686   7.094  14.784
32267W        W  485  22.590  39.455  13.189
32268W        W  486   0.777  28.327  14.920
32269W        W  487   6.891  42.928  11.030
32270W        W  488   2.962  33.007   4.447
32271W        W  489   7.503   8.276  10.783
32272W        W  490  27.538  25.150  14.867
32273W        W  491   8.694  13.062   5.010
32274W        W  492  24.003  10.822   4.080
32275W        W  493   6.313  17.061  12.824
32276W        W  494  39.948  43.325  13.748
32277W        W  495  23.147   4.086  11.594
32278W        W  496  30.919  39.736  14.404
32279W        W  497  32.538  11.597  12.246
32280W        W  498   6.735  36.460   1.367
32281W        W  499  37.932  38.787   2.198
32282W        W  500  33.489  26.548  11.973
32283W        W  501  34.271  14.459   4.147
32284W        W  502  33.968  39.630  11.635
32285W        W  503  17.329   4.157   2.136
32286W        W  504   8.991  30.946   0.359
32287W        W  505  39.632  30.718  14.099
32288W        W  506  36.025   4.635   4.839
32289W        W  507   1.246   6.605  14.794
32290W        W  508   9.204  15.890   2.381
32291W        W  509   6.344  44.873  11.161
32292W        W  510   1.504  35.207  13.008
32293W        W  511  37.863  32.862   4.222
32294W        W  512  17.243  33.608   1.346
32295W        W  513  36.971   0.764   4.906
32296W        W  514  29.481   3.719  14.410
32297W        W  515   0.804  43.533   2.299
32298W        W  516   2.317   4.461   2.630
32299W        W  517  21.186   8.616   2.746
32300W        W  518   1.388  30.128   4.702
32301W        W  519  22.247  24.192  14.072
32302W        W  520  31.376  26.062   4.795
32303W        W  521  44.885  29.990  10.681
32304W        W  522  30.160  33.186   2.808
32305W        W  523  15.223  26.532   3.343
32306W        W  524  36.152   1.782  11.951
32307W        W  525  13.805   7.359  13.877
32308W        W  526   1.463  23.654   4.930
32309W        W  527  19.792   9.917  14.322
32310W        W  528  39.031  43.601   4.119
32311W        W  529   0.850   4.414   1.907
32312W        W  530  38.784  23.673  10.255
32313W        W  531   6.688   4.447   4.168
32314W        W  532  31.058   8.174   2.586
32315W        W  533  10.639  18.751   2.358
32316W        W  534   7.920   1.411  13.860
32317W        W  535  19.541   8.216  13.026
32318W        W  536  42.746  13.800   3.540
32319W        W  537   8.347   8.890  14.534
32320W        W  538  14.101   5.535  12.449
32321W        W  539   2.807  20.953  14.984
32322W        W  540  40.068   1.037  12.986
32323W        W  541  20.316  31.514   0.635
32324W        W  542  32.745  28.739   3.650
32325W        W  543   5.587  14.271   0.859
32326W        W  544   3.300   5.653   2.230
32327W        W  545  29.695  13.689   1.772
32328W        W  546  44.906   5.277   2.433
32329W        W  547  43.177  11.848   1.689
32330W        W  548  29.203  17.615   3.734
32331W        W  549  21.653  30.375  12.073
32332W        W  550  40.079  39.939   4.315
32333W        W  551  20.003  36.312  11.879
32334W        W  552   6.502   8.564   2.549
32335W        W  553   0.159  13.366  14.301
32336W        W  554  25.493  27.028   1.477
32337W        W  555  18.775  20.048   0.799
32338W        W  556  21.207  36.411  12.459
32339W        W  557  18.762  35.942   4.158
32340W        W  558  23.696  10.942   1.291
32341W        W  559  25.684  32.120   2.804
32342W        W  560   4.830  14.876   1.427
32343W        W  561  28.557  36.146  10.662
32344W        W  562   4.844  14.049   3.036
32345W        W  563  38.928  30.842   3.838
32346W        W  564  43.314  34.532   4.203
32347W        W  565  39.023  15.140  12.750
32348W        W  566  37.623   8.188   0.971
32349W        W  567   4.487  35.498  12.822
32350W        W  568  31.416  35.329   0.449
32351W        W  569  37.906   1.249  10.734
32352W        W  570  20.561   6.614  14.060
32353W        W  571  31.514  24.310  12.621
32354W        W  572  19.541   7.906  13.477
32355W        W  573  11.959   9.809   1.809
32356W        W  574  39.969  39.521  10.569
32357W        W  575  28.373  17.103  14.961
32358W        W  576   1.362  32.357  11.637
32359W        W  577  39.092   6.424   4.158
32360W        W  578  21.600   7.397   2.144
32361W        W  579  14.286   3.621   2.806
32362W        W  580  30.884  21.570   1.923
32363W        W  581   1.304  27.968   0.489
32364W        W  582  29.796   3.694  13.151
32365W        W  583  37.125   3.664  12.034
32366W        W  584  25.003  35.377   4.669
32367W        W  585   3.411   3.269   1.871
32368W        W  586   3.294   1.547   3.222
32369W        W  587  27.050  23.839  14.411
32370W        W  588  17.965  43.902   2.375
32371W        W  589   4.830   2.149   3.844
32372W        W  590  27.702  13.696   5.520
32373W        W  591   0.492  22.489   0.469
32374W        W  592  35.629  28.295  10.663
32375W        W  593  23.186  22.806   0.303
32376W        W  594   6.253  36.334  13.478
32377W        W  595  29.132  38.081   2.194
32378W        W  596   7.674  19.976   4.177
32379W        W  597  33.120  27.942   0.144
32380W        W  598   9.668  41.750  13.410
32381W        W  599  39.717  36.419  10.672
32382W        W  600   4.220  30.586  10.992
32383W        W  601   3.419  24.141  11.033
32384W        W  602  16.845  18.671  11.732
32385W        W  603  24.195  30.231   1.094
32386W        W  604  21.138  28.215   3.643
32387W        W  605  23.403   8.710   3.336
32388W        W  606  31.405  35.851   2.767
32389W        W  607  35.944   9.826   3.697
32390W        W  608  11.311  36.468  14.809
32391W        W  609   1.723  36.237  14.085
32392W        W  610  14.454  25.552  14.382
32393W        W  611  20.070  11.903   4.057
32394W        W  612  16.315  24.276  10.662
32395W        W  613   7.111  39.826   4.086
32396W        W  614   1.700  27.471   3.392
32397W        W  615  26.733  37.046  14.493
32398W        W  616  15.325   6.808   0.204
32399W        W  617   4.918  16.317   0.766
32400W        W  618  11.157  43.811   3.124
32401W        W  619  22.712  27.457   2.181
32402W        W  620  21.259  16.191   3.202
32403W        W  621  10.933  42.377   4.177
32404W        W  622  37.416  35.351  12.477
32405W        W  623  10.216   2.504   3.698
32406W        W  624   2.851  26.044  12.713
32407W        W  625   4.815  11.910   0.002
32408W        W  626   2.946   6.438   2.983
32409W        W  627  10.759   0.794   2.675
32410W        W  628  28.034  30.887  13.838
32411W        W  629  27.931  14.367   4.909
32412W        W  630  34.346   6.848   1.834
32413W        W  631  17.610   8.350   0.564
32414W        W  632  15.539  18.471  14.283
32415W        W  633  34.395   2.617  13.789
32416W        W  634   5.713  30.263   2.838
32417W        W  635  16.058  32.512   1.843
32418W        W  636  22.078  13.712  13.672
32419W        W  637  12.853  10.801  14.164
32420W        W  638  41.608  44.697   2.849
32421W        W  639  28.094  24.659  13.831
32422W        W  640  25.618   4.847  13.453
32423W        W  641  16.138  30.184   3.505
32424W        W  642  44.959   9.754   3.139
32425W        W  643  17.700  43.243  11.761
32426W        W  644  23.207  26.471  13.218
32427W        W  645   1.626  12.168   0.292
32428W        W  646  28.202  29.194   4.139
32429W        W  647  44.416  11.239   1.592
32430W        W  648  14.725  37.333  14.496
32431W        W  649  11.864  33.342   0.332
32432W        W  650  19.344  40.804   3.713
32433W        W  651  27.648  33.607  13.526
32434W        W  652   1.935  23.603   2.608
32435W        W  653  35.984  21.143   2.139
32436W        W  654   3.428  11.312   2.310
32437W        W  655   3.238  13.345  13.293
32438W        W  656  12.816  39.409   2.864
32439W        W  657  19.729  30.437   2.211
32440W        W  658  18.108  41.223  13.447
32441W        W  659  34.389   1.885   3.704
32442W        W  660  29.501  22.629  12.824
32443W        W  661  30.826  18.827   3.547
32444W        W  662  13.743   7.889   0.827
32445W        W  663   2.338  24.148  14.594
32446W        W  664  44.744  12.131   3.687
32447W        W  665   0.263   6.080   0.763
32448W        W  666   6.196  11.641   5.074
32449W        W  667   6.442   8.387   0.275
32450W        W  668  32.005   6.470   3.609
32451W        W  669  35.037  18.009  11.977
32452W        W  670  26.087  22.800  14.222
32453W        W  671   3.249   5.953  13.013
32454W        W  672  17.772  20.534   3.715
32455W        W  673  44.958  24.146  14.801
32456W        W  674   5.715  31.285  14.306
32457W        W  675  12.441  33.567   3.049
32458W        W  676  25.290  14.030  14.894
32459W        W  677  40.779  28.142  10.593
32460W        W  678  20.024  32.239   4.687
32461W        W  679  17.826  24.072  12.387
32462W        W  680  40.422  26.651  10.068
32463W        W  681  19.888  18.750  14.282
32464W        W  682  39.011  31.015  11.723
32465W        W  683   6.762   1.883   4.352
32466W        W  684  28.371  29.067  11.036
32467W        W  685   5.395  21.810  10.406
32468W        W  686  38.432  31.078  14.563
32469W        W  687   4.621  20.005   2.569
32470W        W  688  41.160  17.277  13.588
32471W        W  689  19.878   3.267   4.491
32472W        W  690  20.093  17.085   1.351
32473W        W  691   9.850  17.475  12.588
32474W        W  692  13.232  30.906  11.727
32475W        W  693  43.435  34.536  13.368
32476W        W  694  10.087  43.954   0.629
32477W        W  695  19.445   7.613  10.751
32478W        W  696  24.763   8.348   1.266
32479W        W  697  25.870  14.122   0.723
32480W        W  698  33.058  35.106  13.346
32481W        W  699   8.311  39.833  12.322
32482W        W  700   8.187  42.991   0.850
32483W        W  701  32.426  43.036   2.243
32484W        W  702  37.060  40.522   3.390
32485W        W  703  11.689   9.771  14.688
32486W        W  704  11.761  18.538  14.932
32487W        W  705  38.308  33.605   0.967
32488W        W  706  30.871  28.376   1.236
32489W        W  707   4.182  30.546  12.452
32490W        W  708  44.434  10.796   3.893
32491W        W  709   4.963  11.172  13.067
32492W        W  710  36.476   7.163   2.339
32493W        W  711  44.659  15.915  13.074
32494W        W  712   5.458  31.034  12.045
32495W        W  713  28.888  23.400   2.258
32496W        W  714  34.483  38.865   2.880
32497W        W  715  10.109  19.768   2.789
32498W        W  716  37.479  26.494   1.876
32499W        W  717  22.591  26.032  13.146
32500W        W  718   9.605  33.534   1.643
32501W        W  719   3.737  33.141   3.977
32502W        W  720  10.145   9.682  13.520
32503W        W  721   5.900  26.732  10.174
32504W        W  722  12.200   8.705  14.524
32505W        W  723  44.442  35.502   2.167
32506W        W  724  22.687  23.926  13.312
32507W        W  725   9.461  39.449  12.187
32508W        W  726  17.814  15.095  13.964
32509W        W  727   1.317  10.414   1.486
32510W        W  728   9.367   6.873  13.830
32511W        W  729  44.375  35.813  14.930
32512W        W  730  17.749  28.446   1.782
32513W        W  731  36.983  41.521  10.534
32514W        W  732  17.411  20.285  14.282
32515W        W  733   5.552  30.436  10.620
32516W        W  734  14.197  19.677   3.591
32517W        W  735  22.592  16.963   9.991
32518W        W  736  43.712  16.405   1.681
32519W        W  737  30.964  28.394  11.544
32520W        W  738   5.385  19.781   0.748
32521W        W  739  40.021  44.374  14.717
32522W        W  740  15.959  31.963  13.040
32523W        W  741  32.847  10.431   0.975
32524W        W  742   5.956  38.761  12.366
32525W        W  743   2.912  23.165  13.427
32526W        W  744   3.480  26.598   0.790
32527W        W  745  31.397  38.637  11.530
32528W        W  746   8.891  44.208   0.240
32529W        W  747  42.525  19.731  10.589
32530W        W  748  23.299  23.378   0.851
32531W        W  749  41.632  34.137   4.537
32532W        W  750  21.709  44.742  13.937
32533W        W  751  26.276  27.548  14.833
32534W        W  752   5.417  16.643  13.569
32535W        W  753  13.755  20.283   2.114
32536W        W  754  21.885  23.066  12.452
32537W        W  755   9.354  22.891   1.660
32538W        W  756  20.044   0.490  11.581
32539W        W  757  21.062  35.521   0.166
32540W        W  758  25.515  23.224   0.355
32541W        W  759   0.628  33.716   2.930
32542W        W  760  12.692  11.896  11.929
32543W        W  761   7.430  21.205   1.333
32544W        W  762   9.615  36.370   4.250
32545W        W  763  17.251  20.176  12.493
32546W        W  764   8.653  24.482  11.336
32547W        W  765  11.271  32.719  10.783
32548W        W  766  34.801  21.808   1.236
32549W        W  767  19.593  27.943  14.424
32550W        W  768  37.506  19.289  12.347
32551W        W  769  41.567  27.861  14.968
32552W        W  770  17.496  41.499  11.455
32553W        W  771  39.319  25.190  12.898
32554W        W  772  24.688  16.251   2.284
32555W        W  773  11.609  32.523   1.432
32556W        W  774  40.569  39.321  13.411
32557W        W  775  23.141  22.466   3.163
32558W        W  776  33.528  15.129   1.424
32559W        W  777  13.828  31.581   3.857
32560W        W  778  39.284   8.025  11.133
32561W        W  779  28.888  33.464  12.099
32562W        W  780  24.176  13.187   4.776
32563W        W  781  24.726  13.308   1.180
32564W        W  782  43.047  18.020   4.286
32565W        W  783  20.308  44.799   3.172
32566W        W  784  23.761  17.337  14.965
32567W        W  785  44.682  25.927  14.693
32568W        W  786  15.627  36.920  12.910
32569W        W  787  27.894  33.597  13.015
32570W        W  788  30.628  32.321  13.952
32571W        W  789   1.167  15.294   0.456
32572W        W  790  32.709  14.722  14.453
32573W        W  791  12.108   7.932   1.257
32574W        W  792  26.737  23.213  13.843
32575W        W  793  21.292  28.990  13.942
32576W        W  794  25.082  40.246  10.767
32577W        W  795  19.600  40.871  11.137
32578W        W  796  32.758  15.589   4.129
32579W        W  797  29.813  40.468  13.476
32580W        W  798  29.573   7.249   3.731
32581W        W  799  16.024  28.341  12.524
32582W        W  800  14.617  37.020   2.350
32583W        W  801  24.146  22.422  10.357
32584W        W  802  23.199  38.066   1.368
32585W        W  803   2.604  14.760  11.263
32586W        W  804   5.430   5.250   0.072
32587W        W  805  37.296  16.539  12.933
32588W        W  806   1.806  44.722   1.427
32589W        W  807  23.499  35.131   4.191
32590W        W  808   9.454   8.801   0.364
32591W        W  809  20.154  14.107   1.652
32592W        W  810  36.773  27.073  14.442
32593W        W  811   1.203  44.428  14.501
32594W        W  812   7.550  22.043   4.524
32595W        W  813  35.057  25.750   4.130
32596W        W  814   6.469   4.904   4.145
32597W        W  815   2.342  26.835   5.011
32598W        W  816  44.966  39.223   2.001
32599W        W  817  12.089   5.284   2.794
32600W        W  818  24.795  10.676   3.631
32601W        W  819  30.392  31.944   1.357
32602W        W  820  18.228   1.976   1.504
32603W        W  821   7.228  26.253  13.419
32604W        W  822  41.102  31.113  12.038
32605W        W  823  39.795   5.387  13.125
32606W        W  824   2.806  37.057  14.494
32607W        W  825  34.894  13.544  14.437
32608W        W  826  30.850  31.037   0.328
32609W        W  827   4.902  34.307   1.714
32610W        W  828  24.236  28.882   0.475
32611W        W  829  22.327  22.256  10.743
32612W        W  830   3.850  13.247  13.172
32613W        W  831  29.695  11.405   1.781
32614W        W  832   4.246  22.735   4.091
32615W        W  833  36.056   7.271  14.523
32616W        W  834  41.383  43.507   2.245
32617W        W  835  23.267  15.104   4.106
32618W        W  836   4.682  16.237   2.154
32619W        W  837  20.175  14.863   2.636
32620W        W  838  44.372  21.509   2.383
32621W        W  839  19.640   2.444  14.979
32622W        W  840  22.562   4.329  12.715
32623W        W  841  21.537  17.069  10.280
32624W        W  842  33.334   4.802   3.782
32625W        W  843  37.368  34.134  11.985
32626W        W  844   7.203  28.669   1.139
32627W        W  845  42.225  31.157  12.542
32628W        W  846  31.596  39.444  13.534
32629W        W  847  20.659  35.620   1.403
32630W        W  848   2.949  31.058   4.033
32631W        W  849  22.986  36.839  14.410
32632W        W  850   0.784  38.011   2.847
32633W        W  851  21.659  24.193  12.934
32634W        W  852  39.204  38.984   3.399
32635W        W  853  33.418   0.761  12.649
32636W        W  854  42.862  26.935  14.271
32637W        W  855  36.712  20.190  13.839
32638W        W  856  18.589  19.971  10.550
32639W        W  857  42.749   5.928   2.713
32640W        W  858  42.987   3.826  13.551
32641W        W  859  27.663  43.969   1.161
32642W        W  860  26.943  32.773  11.545
32643W        W  861  39.926  30.868  13.516
32644W        W  862   7.897  13.805  12.405
32645W        W  863  28.056  42.361  10.651
32646W        W  864   3.359  36.127  12.501
32647W        W  865   3.079  34.252  11.134
32648W        W  866  29.433  42.900   0.722
32649W        W  867  20.389  30.848   2.635
32650W        W  868  31.868  34.406  11.585
32651W        W  869  14.649  18.056  11.355
32652W        W  870  25.268  31.810   2.910
32653W        W  871   6.965  40.311  13.617
32654W        W  872  28.101   1.300  11.740
32655W        W  873  33.169   1.710  13.752
32656W        W  874   7.463  30.615   4.129
32657W        W  875   8.446  29.120  13.277
32658W        W  876  36.945   8.835   2.345
32659W        W  877  13.278  40.799  13.754
32660W        W  878  35.593   7.423  14.349
32661W        W  879  36.951  27.212  10.609
32662W        W  880   1.065   3.891   4.637
32663W        W  881  28.120  37.691   3.916
32664W        W  882  13.593   6.400   3.897
32665W        W  883   0.903  35.530  11.709
32666W        W  884   4.483  43.753   2.285
32667W        W  885  19.707  42.982  11.554
32668W        W  886  21.103  40.178   1.130
32669W        W  887   9.145  31.651   0.902
32670W        W  888  24.032  44.889  10.454
32671W        W  889   5.400  18.487   5.175
32672W        W  890  34.728   8.089  12.616
32673W        W  891  34.407  16.752  14.370
32674W        W  892  39.765  31.142  11.092
32675W        W  893  10.668  43.764   3.275
32676W        W  894  32.808  13.702   0.457
32677W        W  895   7.791  20.659   1.982
32678W        W  896   0.539   7.700   3.801
32679W        W  897  36.475   8.286  11.905
32680W        W  898   6.309   3.719   4.911
32681W        W  899   5.946  10.411   4.154
32682W        W  900  30.044   6.737   2.197
32683W        W  901  35.522  26.602  10.693
32684W        W  902  24.929  16.585   4.300
32685W        W  903  28.839  30.527  13.001
32686W        W  904  35.070  15.172  12.800
32687W        W  905  17.628  10.060  11.962
32688W        W  906  18.336  41.802   0.312
32689W        W  907   5.789  41.807   1.413
32690W        W  908  25.275  23.067   4.028
32691W        W  909   6.987  10.939   3.692
32692W        W  910  34.548  36.539  12.575
32693W        W  911  28.249   2.786  13.253
32694W        W  912  32.904  25.009   0.533
32695W        W  913  24.749  31.031   1.467
32696W        W  914  25.565  12.562  13.433
32697W        W  915   3.730  28.902   2.260
32698W        W  916   8.886  18.324   1.370
32699W        W  917  41.918   7.501   2.104
32700W        W  918  19.366  24.590  12.246
32701W        W  919  10.304  34.037  10.435
32702W        W  920  30.593   3.909  11.891
32703W        W  921  14.093   3.443   4.730
32704W        W  922  42.405  14.217  11.109
32705W        W  923  30.611   6.311   0.864
32706W        W  924  12.237  23.109   3.236
32707W        W  925   8.752  34.725  13.389
32708W        W  926  28.364  17.810  13.257
32709W        W  927  33.561  23.742   0.306
32710W        W  928  26.459  15.174  12.059
32711W        W  929  13.733  37.407  11.996
32712W        W  930   7.182  42.959   1.475
32713W        W  931   4.905  20.830   0.453
32714W        W  932   0.436  14.577   2.974
32715W        W  933   0.841  14.840   3.125
32716W        W  934  13.062  14.209   0.479
32717W        W  935  24.692   9.381  11.596
32718W        W  936  23.746  41.334   2.372
32719W        W  937  10.663  32.510  13.491
32720W        W  938  22.193  36.286   0.985
32721W        W  939  11.804   5.783   1.764
32722W        W  940  28.216  31.386   0.291
32723W        W  941  10.871  38.532   2.804
32724W        W  942   8.722  11.170   4.821
32725W        W  943  32.611  13.227  11.839
32726W        W  944  39.929   6.829   2.459
32727W        W  945  37.266   0.264  14.330
32728W        W  946  24.143  40.928   4.448
32729W        W  947  26.135   1.836  13.943
32730W        W  948   4.908  22.079  13.049
32731W        W  949  18.724   3.409  13.460
32732W        W  950  34.268  32.826   4.576
32733W        W  951  34.978   7.129   3.539
32734W        W  952  12.664  25.954   0.588
32735W        W  953  21.842  41.238  13.100
32736W        W  954   5.440  31.624  13.154
32737W        W  955  18.158   8.336   0.471
32738W        W  956  44.811  12.646  10.586
32739W        W  957  16.663   7.780  11.114
32740W        W  958  24.278  12.231  13.013
32741W        W  959   2.988  13.525  11.161
32742W        W  960  21.470  14.189  14.924
32743W        W  961  12.318  13.456   3.552
32744W        W  962   5.390  14.760   0.226
32745W        W  963   2.068   3.400   1.075
32746W        W  964  28.789  13.133   5.015
32747W        W  965  43.919  39.329  13.524
32748W        W  966  20.766  16.135   0.875
32749W        W  967  35.407   1.461  13.585
32750W        W  968  40.345  33.494   1.925
32751W        W  969  10.715  13.260  13.306
32752W        W  970  10.432  42.840  12.650
32753W        W  971   7.023  10.163   3.305
32754W        W  972  22.273  11.391   2.424
32755W        W  973  25.585  39.483  10.933
32756W        W  974   3.985   3.743  12.316
32757W        W  975  39.001  25.906   2.460
32758W        W  976   8.560  10.865  12.102
32759W        W  977  37.795  35.818   2.654
32760W        W  978  39.306  38.107   3.783
32761W        W  979  26.109  38.935   0.204
32762W        W  980  18.287  16.052   0.788
32763W        W  981  12.139  20.104   2.203
32764W        W  982  40.342  37.666   3.462
32765W        W  983  40.354  37.971   1.426
32766W        W  984  22.583  35.855   2.745
32767W        W  985  20.752  19.306  12.087
32768W        W  986  35.576  15.118   4.120
32769W        W  987   8.044  27.953   4.457
32770W        W  988  36.813  42.784   5.078
32771W        W  989  43.302  38.530   3.276
32772W        W  990  30.565   8.886   1.732
32773W        W  991  12.465  26.074  12.164
32774W        W  992  37.464  27.815  12.480
32775W        W  993  16.314   9.484   1.604
32776W        W  994   6.187  24.662   2.710
32777W        W  995  43.347   0.439   1.237
32778W        W  996  44.364  30.592  12.155
32779W        W  997  13.064  28.458   0.915
32780W        W  998  39.497   5.449  14.903
32781W        W  999   6.479   0.945   1.329
32782W        W 1000  29.570   6.469   4.232
32783W        W 1001   7.930  10.070   3.195
32784W        W 1002   3.686  29.958   2.244
32785W        W 1003   4.708  25.170   3.180
32786W        W 1004  12.447  41.879   3.522
32787W        W 1005  31.574  43.497   3.737
32788W        W 1006  23.670  34.378  14.605
32789W        W 1007   1.847   7.925   2.733
32790W        W 1008  37.909   3.979  13.917
32791W        W 1009  27.421  26.670  13.655
32792W        W 1010   5.580   4.901  12.893
32793W        W 1011   6.593  38.861  14.939
32794W        W 1012  15.147  28.885   3.142
32795W        W 1013  20.650  22.698  13.850
32796W        W 1014  29.579  34.416   2.370
32797W        W 1015  41.747  23.731  14.777
32798W        W 1016  25.688  25.166  12.473
32799W        W 1017  44.865  21.707   2.376
32800W        W 1018   9.264   2.471  10.878
32801W        W 1019  30.937  13.889   2.048
32802W        W 1020  25.506  31.414  14.774
32803W        W 1021  25.577  18.766  10.776
32804W        W 1022  34.872  27.244  10.696
32805W        W 1023   4.470  10.363   1.384
32806W        W 1024   1.912  34.923  11.061
32807W        W 1025  21.639  17.978   0.308
32808W        W 1026  35.399  14.860   3.689
32809W        W 1027  35.070  40.209   2.695
32810W        W 1028  10.324  12.507  10.655
32811W        W 1029  19.273  25.508   2.369
32812W        W 1030  15.206   7.282   0.392
32813W        W 1031  37.531  10.195   1.094
32814W        W 1032  18.743  15.540  12.893
32815W        W 1033  19.428  42.620  10.787
32816W        W 1034   5.274  25.579  12.411
32817W        W 1035  34.984  43.178   4.006
32818W        W 1036  13.842  24.976  13.811
32819W        W 1037  12.219   7.702  13.428
32820W        W 1038  42.979   7.935   2.147
32821W        W 1039  33.475   7.350   1.839
32822W        W 1040  38.460  33.491   0.193
32823W        W 1041   1.825  32.356   1.971
32824W        W 1042  35.819  13.737  11.346
32825W        W 1043   9.693  39.132   2.256
32826W        W 1044  16.283  22.813   2.778
32827W        W 1045  30.130   7.514   4.363
32828W        W 1046   4.820  21.207  13.401
32829W        W 1047  22.348   7.871   4.471
32830W        W 1048  26.168  24.045   2.275
32831W        W 1049   9.897  12.681  12.143
32832W        W 1050   3.350   9.380   3.709
32833W        W 1051   7.144  32.744   2.107
32834W        W 1052   0.528  34.918   2.286
32835W        W 1053  18.305   9.160   0.770
32836W        W 1054  28.565   6.621  12.830
32837W        W 1055  14.273  23.244   0.200
32838W        W 1056   8.187   7.476  12.243
32839W        W 1057  21.157  19.553   1.238
32840W        W 1058  17.352   9.740   3.358
32841W        W 1059  44.942  10.905  13.022
32842W        W 1060  39.368  15.058  10.930
32843W        W 1061  26.811  11.156  11.099
32844W        W 1062   7.570  24.753   3.335
32845W        W 1063  43.451  30.368  10.884
32846W        W 1064   3.866  14.176   2.906
32847W        W 1065  24.500   1.759   1.756
32848W        W 1066  35.019  18.658   1.036
32849W        W 1067  33.816  16.956  11.367
32850W        W 1068  16.622  29.670  13.962
32851W        W 1069  28.382  17.101   1.750
32852W        W 1070  44.863  44.317   4.830
32853W        W 1071  41.370  13.031   3.310
32854W        W 1072  23.796  28.445  13.581
32855W        W 1073  25.974   4.374  14.332
32856W        W 1074  31.690  12.379   0.726
32857W        W 1075  27.208  33.357  14.356
32858W        W 1076   9.646  23.870   0.435
32859W        W 1077  21.631  14.116   3.133
32860W        W 1078  25.037  11.876  13.581
32861W        W 1079   6.224  44.888  11.667
32862W        W 1080  31.566   5.389  11.584
32863W        W 1081  30.794  36.945   3.612
32864W        W 1082  12.864  14.385   4.080
32865W        W 1083  10.149   9.702  12.625
32866W        W 1084  16.217   0.820  14.368
32867W        W 1085  42.376  33.929   1.979
32868W        W 1086  21.610  22.575  14.988
32869W        W 1087   8.212  41.937  14.000
32870W        W 1088  32.400  35.806   4.922
32871W        W 1089  33.951  10.946  13.725
32872W        W 1090  36.006   6.705  13.897
32873W        W 1091  27.608   2.576   3.287
32874W        W 1092   5.039  26.731   0.993
32875W        W 1093  11.694  19.024   2.415
32876W        W 1094   3.632  16.103  12.584
32877W        W 1095  17.455  38.866   2.684
32878W        W 1096  10.101   7.258   0.889
32879W        W 1097  17.030  17.262  10.959
32880W        W 1098   1.165  28.705   3.698
32881W        W 1099  44.857  11.894   1.377
32882W        W 1100  33.314  33.353  11.102
32883W        W 1101  36.410  24.065  13.463
32884W        W 1102  20.076   8.402   0.896
32885W        W 1103  31.902  31.497  11.619
32886W        W 1104  13.198  11.316   1.442
32887W        W 1105  11.511  23.371   1.264
32888W        W 1106  41.983  19.674  14.498
32889W        W 1107  44.832   6.242   2.341
32890W        W 1108   6.748  17.420  12.028
32891W        W 1109  33.096  41.369  11.351
32892W        W 1110   8.842  36.944  13.518
32893W        W 1111  33.339  44.887  13.234
32894W        W 1112   7.307  25.755  11.136
32895W        W 1113   4.921  24.541   0.747
32896W        W 1114  31.186  39.849  13.544
32897W        W 1115  36.246  29.199   5.001
32898W        W 1116  31.156  35.938   3.229
32899W        W 1117  18.299  13.140   4.028
32900W        W 1118  44.531  16.109   2.022
32901W        W 1119  37.238  16.441  12.090
32902W        W 1120  10.160  44.243  13.906
32903W        W 1121  19.576  26.749   1.369
32904W        W 1122  35.127  33.989  11.812
32905W        W 1123  32.450   8.471   5.001
32906W        W 1124  24.516  38.270   0.214
32907W        W 1125   4.405  19.448   4.597
32908W        W 1126   6.319   9.150   4.592
32909W        W 1127  20.318  40.887  11.580
32910W        W 1128  33.516  39.004   0.877
32911W        W 1129  36.040  30.712   0.083
32912W        W 1130  39.409   7.868   4.866
32913W        W 1131  16.272  38.886   0.391
32914W        W 1132   0.304  31.837  12.457
32915W        W 1133  28.085  40.669   3.648
32916W        W 1134  26.407  15.998   0.061
32917W        W 1135  32.199   2.006  14.545
32918W        W 1136  40.365  22.524   0.455
32919W        W 1137  38.006  29.409  12.129
32920W        W 1138  27.920  31.495   2.191
32921W        W 1139  31.297  39.748   1.831
32922W        W 1140  38.001  28.547  12.648
32923W        W 1141  14.114  25.516  11.175
32924W        W 1142  44.248   9.252   2.404
32925W        W 1143  11.888  28.469   2.541
32926W        W 1144  28.077  24.929  12.856
32927W        W 1145   9.226  21.029  10.779
32928W        W 1146  43.273  43.028  12.933
32929W        W 1147  43.016  32.623  12.906
32930W        W 1148  10.190  29.213   0.325
32931W        W 1149  27.211  35.405  12.420
32932W        W 1150  40.260   0.790  10.849
32933W        W 1151  28.513   8.793  14.789
32934W        W 1152  10.578   9.851   3.851
32935W        W 1153  20.070  13.739   9.802
32936W        W 1154  30.477  34.155   4.146
32937W        W 1155  34.101   8.767  12.612
32938W        W 1156  11.967  17.464   1.649
32939W        W 1157   5.832  19.261  13.767
32940W        W 1158  11.520  18.463   3.830
32941W        W 1159  39.860  15.772   2.554
32942W        W 1160   3.150   3.905   2.313
32943W        W 1161  40.587  34.080   1.247
32944W        W 1162  25.108   6.350   2.677
32945W        W 1163  36.056  27.967  13.124
32946W        W 1164  25.235  38.875  14.265
32947W        W 1165  11.847   2.109  14.881
32948W        W 1166  19.684  13.422   3.480
32949W        W 1167  36.083  26.402   3.786
32950W        W 1168  36.869   5.630  11.007
32951W        W 1169  17.312  43.904  14.404
32952W        W 1170  38.763  40.985   3.670
32953W        W 1171   5.165   1.237   0.963
32954W        W 1172  14.733  33.936  14.127
32955W        W 1173   6.868   8.955  14.970
32956W        W 1174  22.807  43.371   3.793
32957W        W 1175  43.196   9.949  13.641
32958W        W 1176  25.987   9.081   2.439
32959W        W 1177   1.232  33.046  14.896
32960W        W 1178  31.550   3.298   2.863
32961W        W 1179  22.512  29.983  12.738
32962W        W 1180  41.807   0.974  12.089
32963W        W 1181  38.262  42.343   1.343
32964W        W 1182  12.675  38.868   1.615
32965W        W 1183   6.828  39.918  10.499
32966W        W 1184  31.671  21.071   3.155
32967W        W 1185  20.564  28.086  13.507
32968W        W 1186  41.863  24.444   0.316
32969W        W 1187  28.433  44.939   4.252
32970W        W 1188  38.983  24.490  13.546
32971W        W 1189  33.050   3.354  12.989
32972W        W 1190  10.438  28.223   3.220
32973W        W 1191  35.037  33.345   3.308
32974W        W 1192  25.903   5.801   2.918
32975W        W 1193  20.250  39.060  12.031
32976W        W 1194  11.636  20.254  11.152
32977W        W 1195   4.290   4.752   5.055
32978W        W 1196  15.645   4.360  13.302
32979W        W 1197   7.894  33.136   4.689
32980W        W 1198  27.716  42.030  11.501
32981W        W 1199  11.258   3.616  12.930
32982W        W 1200   7.041  30.749  10.692
32983W        W 1201  16.051  22.091   1.690
32984W        W 1202  26.579   9.873   3.286
32985W        W 1203  26.620  22.714  12.945
32986W        W 1204  32.451   8.290   3.460
32987W        W 1205  42.852  34.441   4.470
32988W        W 1206  43.947   5.739  11.742
32989W        W 1207   6.148   7.745  12.463
32990W        W 1208  35.025  32.731  14.252
32991W        W 1209  38.984  32.724   3.570
32992W        W 1210  31.054  16.243  12.986
32993W        W 1211  34.166   3.370   0.288
32994W        W 1212  14.634  34.760   4.641
32995W        W 1213  44.200  33.375  10.198
32996W        W 1214  32.481  39.264  12.486
32997W        W 1215  10.372  15.829   4.583
32998W        W 1216   5.854   8.948   0.927
32999W        W 1217   8.137  25.001   0.321
33000W        W 1218  32.894   7.270   4.107
33001W        W 1219   9.348  36.119   2.878
33002W        W 1220  20.942  34.498   0.926
33003W        W 1221  25.412  27.253  12.092
33004W        W 1222  42.325  13.855   3.840
33005W        W 1223   8.257  17.694  13.223
33006W        W 1224   3.690  17.219  11.113
33007W        W 1225  38.812  11.591  13.409
33008W        W 1226   8.785  17.119  13.424
33009W        W 1227  31.381  29.476   0.895
33010W        W 1228  37.318   2.929  14.428
33011W        W 1229  20.137  38.136  14.871
33012W        W 1230  40.535  22.604  13.328
33013W        W 1231  37.763  36.913   0.362
33014W        W 1232  34.675  13.179  14.960
33015W        W 1233  35.329   8.531   3.814
33016W        W 1234  39.854  21.900  11.905
33017W        W 1235  18.785   8.929   5.041
33018W        W 1236  29.181  14.674   2.774
33019W        W 1237   2.271  31.253  10.689
33020W        W 1238  29.617  18.546  12.954
33021W        W 1239  44.860   7.171   1.238
33022W        W 1240  38.191  17.588  11.089
33023W        W 1241  42.001  12.195  10.678
33024W        W 1242  36.371   4.964   1.677
33025W        W 1243   1.938  34.639  10.644
33026W        W 1244   7.200  18.600  14.805
33027W        W 1245  22.151  17.781  12.514
33028W        W 1246  29.642   6.840  12.072
33029W        W 1247  42.569  25.578  11.154
33030W        W 1248  26.957  44.212   1.900
33031W        W 1249  12.349   9.630  14.468
33032W        W 1250   0.958  34.410  10.904
33033W        W 1251   3.372  24.544   2.351
33034W        W 1252  32.053  36.358  10.762
33035W        W 1253  35.846  24.882   0.831
33036W        W 1254  11.197  31.062   4.151
33037W        W 1255  44.429  14.889   5.259
33038W        W 1256   4.949   7.689  13.467
33039W        W 1257  13.728   9.359  11.608
33040W        W 1258  13.174  14.200  10.756
33041W        W 1259  33.283  10.064  13.575
33042W        W 1260   6.345  13.596   4.207
33043W        W 1261   4.345  28.774   1.278
33044W        W 1262  27.234   8.546   0.401
33045W        W 1263  30.507   2.407  12.045
33046W        W 1264   3.706   1.136  13.544
33047W        W 1265  43.429   7.802  12.562
33048W        W 1266  34.605  18.294   1.375
33049W        W 1267  43.790   4.870   1.430
33050W        W 1268  28.162  22.052  11.324
33051W        W 1269  27.209  12.831  14.944
33052W        W 1270  44.453   4.124   1.825
33053W        W 1271   5.678  17.689   1.232
33054W        W 1272   1.034   7.423   3.699
33055W        W 1273   9.983  29.144  14.569
33056W        W 1274  23.147  35.458  12.362
33057W        W 1275  40.919  37.810  12.790
33058W        W 1276  22.027  43.502   4.231
33059W        W 1277  25.774  11.399  13.891
33060W        W 1278  31.883   0.447   0.288
33061W        W 1279  40.536  40.889   1.094
33062W        W 1280  11.347  26.638  13.059
33063W        W 1281  33.928  11.346   1.374
33064W        W 1282  11.245   1.789   0.738
33065W        W 1283  26.750  43.057   4.140
33066W        W 1284  38.045  29.402  14.853
33067W        W 1285  44.110  44.713  10.900
33068W        W 1286  42.784  15.867   0.779
33069W        W 1287  36.328  25.446  12.018
33070W        W 1288  41.585  34.596  14.391
33071W        W 1289  43.834  29.731  12.913
33072W        W 1290  17.008   1.961   3.747
33073W        W 1291  18.548  23.514   2.685
33074W        W 1292  21.120  28.469   4.972
33075W        W 1293   1.373  11.536  13.083
33076W        W 1294  33.675  35.040   2.823
33077W        W 1295  32.656  42.323  11.270
33078W        W 1296  10.185  13.765   0.009
33079W        W 1297   4.708  35.474  10.048
33080W        W 1298  24.546   7.084   2.845
33081W        W 1299   3.985  44.570   3.311
33082W        W 1300  44.941   0.337  12.147
33083W        W 1301  19.220  19.663   4.035
33084W        W 1302  34.038  16.606   2.423
33085W        W 1303  12.227  25.743  11.283
33086W        W 1304  13.260  27.937  13.076
33087W        W 1305  30.016  28.681   3.210
33088W        W 1306  25.681  24.694   0.811
33089W        W 1307  39.060  35.779   3.617
33090W        W 1308   6.218   9.794  10.733
33091W        W 1309   9.681  14.108   4.101
33092W        W 1310  16.649  19.023  14.600
33093W        W 1311  25.204  12.280   4.461
33094W        W 1312  16.541  15.046  12.355
33095W        W 1313  38.486   6.900  13.037
33096W        W 1314   1.391   2.525  10.786
33097W        W 1315  41.824  43.781   2.250
33098W        W 1316  20.206  30.477   0.423
33099W        W 1317  43.711  27.743  14.859
33100W        W 1318  20.283  26.523   2.270
33101W        W 1319  40.136   2.669  13.842
33102W        W 1320   6.030  42.370   4.088
33103W        W 1321  32.471  20.965   2.817
33104W        W 1322  19.237  43.985   3.729
33105W        W 1323  27.551  28.748   0.486
33106W        W 1324  33.440  32.532   2.511
33107W        W 1325   1.586  27.108   0.358
33108W        W 1326  44.327   3.628   4.118
33109W        W 1327  34.341   2.714   2.176
33110W        W 1328  25.950  37.995   1.319
33111W        W 1329  40.015   2.164   4.279
33112W        W 1330  20.925  28.538  11.517
33113W        W 1331  38.447   8.440   1.622
33114W        W 1332   5.510  36.629  13.977
33115W        W 1333   3.583  22.452  14.771
33116W        W 1334  32.559   6.524  11.164
33117W        W 1335  36.079  34.514   0.659
33118W        W 1336  44.450  37.809   1.320
33119W        W 1337  41.389   2.505   3.195
33120W        W 1338  42.872  22.211  13.507
33121W        W 1339   2.601  17.193   2.810
33122W        W 1340  38.100   0.711  14.935
33123W        W 1341  38.967  11.462   4.150
33124W        W 1342  13.024   8.592  10.659
33125W        W 1343  21.867  43.970  10.701
33126W        W 1344   4.442  20.686   3.031
33127W        W 1345   5.146  28.243  11.069
33128W        W 1346   5.250  35.872   4.239
33129W        W 1347  12.323  38.582   1.941
33130W        W 1348  32.548  25.906   3.806
33131W        W 1349   1.871  37.962  11.256
33132W        W 1350  12.584  34.405   4.061
33133W        W 1351  20.948  35.842  12.004
33134W        W 1352  27.603   9.296   1.255
33135W        W 1353  28.934  32.865   3.338
33136W        W 1354  13.759  33.662   0.310
33137W        W 1355  38.544  11.762  12.996
33138W        W 1356  14.275  30.156  12.763
33139W        W 1357   0.031  44.956  14.812
33140W        W 1358   4.465  12.966  12.126
33141W        W 1359  43.515  22.029   4.082
33142W        W 1360  25.481  38.303   4.558
33143W        W 1361  26.187  16.689  13.299
33144W        W 1362  36.529  28.965  12.093
33145W        W 1363  18.883  33.892   2.619
33146W        W 1364  11.400   1.886   2.852
33147W        W 1365  25.135  10.364   0.749
33148W        W 1366  26.951  27.471  12.387
33149W        W 1367  11.105  34.938  13.706
33150W        W 1368  13.346  27.169  12.521
33151W        W 1369  10.310  34.299  12.597
33152W        W 1370  32.374  35.418   0.782
33153W        W 1371  36.916  15.977  14.249
33154W        W 1372  14.148  20.076  13.446
33155W        W 1373  24.137  22.694  11.203
33156W        W 1374  25.736   1.924  13.128
33157W        W 1375   7.697  31.729   2.433
33158W        W 1376  21.472   6.421   2.223
33159W        W 1377  16.228  36.609  11.191
33160W        W 1378  21.222   8.138  13.456
33161W        W 1379  31.232  17.659   4.172
33162W        W 1380  34.139  20.209  10.760
33163W        W 1381  27.054  38.205  11.566
33164W        W 1382  26.225  17.836   2.427
33165W        W 1383   0.393  39.530  11.952
33166W        W 1384  44.721  12.068  11.533
33167W        W 1385  30.919  22.944   4.024
33168W        W 1386  19.559  28.556   0.958
33169W        W 1387   4.263  42.392  13.089
33170W        W 1388  17.919  33.226   2.684
33171W        W 1389  30.353  19.483   1.201
33172W        W 1390  42.548  16.010   2.286
33173W        W 1391  17.676  20.009  11.555
33174W        W 1392  27.650  41.322  13.195
33175W        W 1393  33.290   6.288   5.118
33176W        W 1394   9.859  25.069  14.837
33177W        W 1395  10.553  41.654  11.199
33178W        W 1396  17.112  27.381  10.533
33179W        W 1397  23.695  35.531   5.514
33180W        W 1398  44.727   9.994  10.601
33181W        W 1399  12.577  31.211   3.332
33182W        W 1400  30.244   5.713   1.382
33183W        W 1401  36.962  16.192   1.234
33184W        W 1402  10.141  23.027  14.767
33185W        W 1403  19.673   5.704  13.742
33186W        W 1404  38.782   7.182  14.017
33187W        W 1405  28.058   3.600  12.914
33188W        W 1406   1.713   4.965  13.570
33189W        W 1407  11.854  25.454  14.582
33190W        W 1408   8.336  19.540  13.005
33191W        W 1409   1.243  11.834   3.514
33192W        W 1410  33.537  43.033  12.542
33193W        W 1411  15.431  33.353  12.627
33194W        W 1412  33.475   7.868   1.833
33195W        W 1413  34.742  37.239  11.926
33196W        W 1414  33.620   0.477   4.433
33197W        W 1415  18.200  34.175  14.439
33198W        W 1416  15.113  38.125  14.551
33199W        W 1417  36.981  15.286  12.347
33200W        W 1418  15.722  12.617   5.325
33201W        W 1419  23.923  18.366   0.044
33202W        W 1420  14.351  44.520   2.056
33203W        W 1421   4.320  27.378   3.661
33204W        W 1422  44.947   9.603   0.292
33205W        W 1423  42.986  30.509  11.651
33206W        W 1424  34.109  24.196  12.177
33207W        W 1425  20.279  27.695   2.363
33208W        W 1426  21.587   1.188   0.766
33209W        W 1427  27.888  41.242   2.821
33210W        W 1428  24.982  10.235   1.242
33211W        W 1429   9.200  32.403  11.996
33212W        W 1430  18.675  35.958   5.028
33213W        W 1431  27.271  32.572  11.193
33214W        W 1432  37.896  29.872  13.047
33215W        W 1433  12.282  36.137   1.354
33216W        W 1434  42.837  36.886  12.859
33217W        W 1435  13.122  24.327   2.138
33218W        W 1436  16.544  27.183  13.940
33219W        W 1437   6.863  25.685   1.938
33220W        W 1438  32.407  13.707   3.676
33221W        W 1439  17.285  14.390  12.691
33222W        W 1440  42.577  23.150   4.381
33223W        W 1441   2.229  10.844  12.359
33224W        W 1442  12.772  14.582   1.459
33225W        W 1443  26.993  42.743  11.108
33226W        W 1444  44.805  44.879  13.461
33227W        W 1445  43.338  21.740   0.514
33228W        W 1446  43.308  40.999   1.283
33229W        W 1447  19.529  22.083  11.182
33230W        W 1448  42.750   1.391   4.117
33231W        W 1449   6.496   5.899  11.917
33232W        W 1450  21.291  15.375   2.763
33233W        W 1451   0.944   0.603  13.654
33234W        W 1452  20.814  18.987   2.682
33235W        W 1453   9.745  35.602   4.894
33236W        W 1454   6.603  39.465   0.473
33237W        W 1455  20.006  15.246   1.857
33238W        W 1456  38.850  32.921   1.428
33239W        W 1457   0.760   7.273   4.115
33240W        W 1458  29.708  25.715  12.541
33241W        W 1459  39.997   6.987   0.526
33242W        W 1460  27.512  25.198   3.803
33243W        W 1461  38.287  32.068   4.101
33244W        W 1462   1.813   2.683  12.760
33245W        W 1463  14.363  33.681  13.738
33246W        W 1464   7.008  21.450  10.623
33247W        W 1465   7.657  21.306  13.520
33248W        W 1466  15.936  13.401   4.895
33249W        W 1467  25.857  27.435  12.363
33250W        W 1468  18.690  14.817  14.810
33251W        W 1469  14.779  10.754   3.291
33252W        W 1470  19.037  38.912  12.477
33253W        W 1471  15.569  37.480   1.384
33254W        W 1472   9.135   6.760  12.453
33255W        W 1473  40.849   4.428  13.353
33256W        W 1474  38.981  21.703  12.105
33257W        W 1475  43.998   4.952  13.981
33258W        W 1476   3.327   1.490  11.143
33259W        W 1477  23.559   0.358  13.624
33260W        W 1478  18.394   5.072   5.203
33261W        W 1479   3.053   3.241   0.806
33262W        W 1480   4.609  33.348   1.919
33263W        W 1481  40.147  12.732  11.148
33264W        W 1482   5.586   5.958  12.862
33265W        W 1483  20.636  13.067   2.507
33266W        W 1484  14.050  35.445  12.394
33267W        W 1485  37.494  30.709  12.964
33268W        W 1486  15.165  23.767   2.392
33269W        W 1487  33.009  44.741  14.002
33270W        W 1488  43.123  43.395   1.421
33271W        W 1489  35.085   4.210   3.202
33272W        W 1490   3.454   1.938   1.383
33273W        W 1491  32.527  14.104  12.433
33274W        W 1492  28.763  31.619  11.054
33275W        W 1493  30.533  30.676   4.336
33276W        W 1494  42.597  38.397  14.522
33277W        W 1495  20.159  18.167  11.144
33278W        W 1496  25.910  10.158  13.473
33279W        W 1497  25.596  12.861  13.858
33280W        W 1498  34.618  17.557  14.080
33281W        W 1499  43.029   3.663   3.029
33282W        W 1500  26.970  20.588   3.219
33283W        W 1501  10.114   3.665  11.586
33284W        W 1502  29.494  31.149  11.546
33285W        W 1503   6.679  24.057   0.419
33286W        W 1504   4.342  43.267  12.113
33287W        W 1505  36.649   7.288   1.798
33288W        W 1506  22.698  40.621   3.097
33289W        W 1507   7.818  13.919  14.774
33290W        W 1508   8.419  35.538  12.407
33291W        W 1509   6.293   4.411   0.318
33292W        W 1510  26.935  26.380   0.982
33293W        W 1511  38.831  26.402   4.157
33294W        W 1512  42.317  41.915   4.442
33295W        W 1513  25.065  38.915   1.634
33296W        W 1514  39.258  14.745  13.498
33297W        W 1515   7.744  16.642   1.275
33298W        W 1516  19.633  35.316  13.831
33299W        W 1517  40.718  25.680  11.610
33300W        W 1518  10.607  14.368   3.772
33301W        W 1519  44.367  12.591  13.177
33302W        W 1520  33.614  19.628  14.373
33303W        W 1521   8.207  18.648  14.993
33304W        W 1522  43.560  34.564   1.868
33305W        W 1523  25.891  31.111  13.454
33306W        W 1524  20.529   9.638   1.803
33307W        W 1525  27.362   3.810  11.156
33308W        W 1526  23.436  40.431   4.542
33309W        W 1527  43.186  21.671   1.822
33310W        W 1528   7.950  41.806  13.480
33311W        W 1529  22.089  32.441  11.841
33312W        W 1530  10.696  34.441  13.855
33313W        W 1531  25.433  28.916   2.755
33314W        W 1532   0.027   6.332  10.564
33315W        W 1533  35.044  15.241   4.676
33316W        W 1534   6.654  17.181   0.435
33317W        W 1535  25.593  42.848   1.938
33318W        W 1536  18.962   2.801   1.918
33319W        W 1537  23.583  28.499  11.844
33320W        W 1538  15.636  29.576   5.255
33321W        W 1539  15.029   4.608  11.668
33322W        W 1540  38.272  43.894  14.902
33323W        W 1541  12.298  27.244  14.374
33324W        W 1542  16.528  39.584   1.812
33325W        W 1543  32.390  12.454   1.484
33326W        W 1544   1.384  33.550  14.791
33327W        W 1545  11.627  10.024  13.856
33328W        W 1546  31.437   0.837   4.665
33329W        W 1547  19.645  36.053   0.206
33330W        W 1548  21.632  36.944   4.564
33331W        W 1549  25.895  13.341  13.033
33332W        W 1550   4.371  38.951   3.249
33333W        W 1551  43.459  26.435   0.374
33334W        W 1552  32.075  31.885  10.925
33335W        W 1553  23.094  22.132   2.204
33336W        W 1554  29.347  12.634  14.400
33337W        W 1555  35.674  15.309  12.021
33338W        W 1556  39.959  29.193  12.246
33339W        W 1557  16.742   3.851  14.977
33340W        W 1558  37.176  28.506  11.013
33341W        W 1559  43.704  15.135   0.359
33342W        W 1560  39.926   8.985   4.155
33343W        W 1561  40.168   9.650  12.813
33344W        W 1562   2.612  30.445  14.514
33345W        W 1563  11.016  31.453  12.053
33346W        W 1564  13.333  26.489  10.504
33347W        W 1565  26.728   0.434   2.135
33348W        W 1566  30.042  20.974   0.308
33349W        W 1567  36.510  13.844   4.891
33350W        W 1568   4.369  42.835  12.841
33351W        W 1569  44.517  36.897   2.497
33352W        W 1570   6.727  35.735  11.086
33353W        W 1571  27.678  23.708   1.753
33354W        W 1572   7.257   2.004   4.342
33355W        W 1573  17.133  13.681   4.040
33356W        W 1574  19.207  40.884  14.869
33357W        W 1575  13.214   4.015  13.821
33358W        W 1576   5.604   6.252   3.661
33359W        W 1577  26.632  25.982   0.777
33360W        W 1578  34.586  38.829  12.940
33361W        W 1579  12.792  36.191  11.641
33362W        W 1580  40.288  12.238  11.999
33363W        W 1581  17.658  32.286   0.401
33364W        W 1582  26.180  32.940  11.941
33365W        W 1583  34.516  41.317  14.122
33366W        W 1584   3.051  44.431  13.815
33367W        W 1585  17.709  24.183   2.756
33368W        W 1586  25.264  37.032  12.537
33369W        W 1587   8.613   1.115   1.786
33370W        W 1588  34.474  20.997   4.022
33371W        W 1589  24.511  32.595  12.436
33372W        W 1590  16.163  13.333   1.115
33373W        W 1591  23.507  30.432  14.842
33374W        W 1592  43.232  37.146  10.634
33375W        W 1593  10.955   9.911   1.969
33376W        W 1594  12.781  29.453   4.945
33377W        W 1595  17.991   3.389  11.913
33378W        W 1596  41.278  34.068  13.525
33379W        W 1597  21.252  11.021  14.477
33380W        W 1598  27.598  24.992  13.899
33381W        W 1599  25.410  19.658  14.937
33382W        W 1600   9.458  31.848  12.713
33383W        W 1601  27.726  24.555  13.475
33384W        W 1602   5.369  29.994   0.347
33385W        W 1603  21.809   8.776   1.648
33386W        W 1604  43.285  32.336   1.148
33387W        W 1605  22.528   9.836  10.628
33388W        W 1606  18.619   7.885  11.717
33389W        W 1607   3.645  40.962   3.731
33390W        W 1608  13.342  33.714   0.708
33391W        W 1609  42.988  24.147  12.166
33392W        W 1610  25.198  14.233  13.103
33393W        W 1611   0.577   7.693   1.573
33394W        W 1612   9.712  28.854   3.645
33395W        W 1613  28.176  17.741   1.949
33396W        W 1614  16.651  16.275   4.495
33397W        W 1615  32.522  20.034   4.584
33398W        W 1616  27.605   4.942  11.313
33399W        W 1617  36.590  43.354  12.440
33400W        W 1618   7.938  18.109  10.091
33401W        W 1619   3.919  10.882   3.148
33402W        W 1620  15.543  35.399   0.888
33403W        W 1621  33.992  26.530   1.271
33404W        W 1622  20.261  35.944   2.784
33405W        W 1623  29.928   3.454  14.617
33406W        W 1624  13.761  17.801  14.737
33407W        W 1625  19.952  22.742   3.645
33408W        W 1626   1.225   6.685   1.838
33409W        W 1627  24.091  33.115  14.565
33410W        W 1628   8.294  21.501   0.003
33411W        W 1629  28.853  17.609   4.614
33412W        W 1630  40.813  12.434  14.878
33413W        W 1631  26.198  28.040   0.782
33414W        W 1632  25.131  43.872  10.629
33415W        W 1633  24.782   5.474  11.959
33416W        W 1634  30.547   2.715   1.638
33417W        W 1635   8.419  24.228   3.898
33418W        W 1636  28.613  20.163  11.897
33419W        W 1637  29.908  36.118  13.501
33420W        W 1638   4.748   5.906   3.762
33421W        W 1639  19.197  39.549  10.592
33422W        W 1640   6.307   6.940  14.457
33423W        W 1641  39.754  25.831  12.636
33424W        W 1642  27.239   8.099  13.981
33425W        W 1643  37.462  36.768   5.111
33426W        W 1644  42.568  37.677  11.381
33427W        W 1645  18.836   9.739  13.509
33428W        W 1646   6.012  17.375  13.112
33429W        W 1647  44.919  20.027   3.274
33430W        W 1648  30.417  11.762   4.252
33431W        W 1649  43.309   5.224   3.916
33432W        W 1650  29.338  17.139   3.855
33433W        W 1651  27.420   2.243   1.900
33434W        W 1652   0.187   8.773   4.867
33435W        W 1653   9.757   6.320  12.113
33436W        W 1654  20.245   7.255   0.447
33437W        W 1655  30.671   8.733   3.694
33438W        W 1656  13.583  32.591  13.872
33439W        W 1657  13.875  31.180  10.638
33440W        W 1658  15.732  33.037   1.692
33441W        W 1659   1.470  27.829   3.694
33442W        W 1660  10.189  38.978  11.919
33443W        W 1661   3.271  13.097  11.099
33444W        W 1662  44.926   1.730   3.409
33445W        W 1663  16.280  13.310   0.605
33446W        W 1664   0.452   5.748   4.568
33447W        W 1665  37.926  35.421  12.446
33448W        W 1666  18.226  14.721  10.597
33449W        W 1667  19.268  25.734   1.903
33450W        W 1668   9.427  33.204   4.015
33451W        W 1669  40.568  25.076   1.405
33452W        W 1670  41.825   7.689   1.546
33453W        W 1671  19.092  39.944   4.690
33454W        W 1672   2.387   3.907  10.412
33455W        W 1673  35.268  42.760  13.207
33456W        W 1674  16.247  24.186   4.318
33457W        W 1675  25.527  33.202  12.418
33458W        W 1676  32.544  27.473   3.519
33459W        W 1677  25.467  11.317   2.372
33460W        W 1678  28.160   3.088  12.846
33461W        W 1679  13.801  27.408  12.631
33462W        W 1680  41.546  26.775   2.849
33463W        W 1681  13.372  21.020   1.825
33464W        W 1682  26.264  10.312   2.835
33465W        W 1683  23.741  29.166  10.857
33466W        W 1684  15.364  29.008  10.891
33467W        W 1685  41.565   5.715  12.552
33468W        W 1686  34.485  44.454  12.662
33469W        W 1687  20.935  38.394  12.835
33470W        W 1688   5.703  22.931   1.372
33471W        W 1689   0.761  21.495  12.392
33472W        W 1690   4.731  30.511  11.003
33473W        W 1691   3.331  33.908   2.684
33474W        W 1692  17.900  15.694   5.299
33475W        W 1693   5.313  31.608  14.463
33476W        W 1694  13.133  29.795   4.012
33477W        W 1695  33.706   4.685   1.758
33478W        W 1696   5.709  43.267   1.512
33479W        W 1697   5.006  14.247   0.006
33480W        W 1698  16.732   7.199  14.340
33481W        W 1699  41.808  43.394  13.730
33482W        W 1700   2.335  31.058   3.127
33483W        W 1701  30.518  32.596   0.356
33484W        W 1702  40.734  16.656   3.180
33485W        W 1703  39.949  36.088  14.320
33486W        W 1704  37.048  26.618  13.307
33487W        W 1705  23.146  27.555   4.464
33488W        W 1706   8.891   2.005  12.329
33489W        W 1707  24.482  36.015   4.242
33490W        W 1708   0.252  34.041   1.308
33491W        W 1709  11.124  39.758   0.505
33492W        W 1710  17.224  17.997   2.763
33493W        W 1711  37.128  36.984   4.733
33494W        W 1712  38.601  36.336  12.653
33495W        W 1713  20.580   1.508   0.741
33496W        W 1714  43.491  18.138   0.927
33497W        W 1715   4.632  33.043   3.499
33498W        W 1716  14.818  41.457  13.024
33499W        W 1717  17.550  19.550   3.688
33500W        W 1718  24.510  32.005  14.942
33501W        W 1719  34.122   6.597  12.018
33502W        W 1720   6.291  37.605   3.228
33503W        W 1721  22.079   7.923   2.297
33504W        W 1722  43.838   7.276   1.004
33505W        W 1723  11.353   7.801   4.198
33506W        W 1724  24.080  37.202   4.487
33507W        W 1725  39.906  33.929  11.001
33508W        W 1726  12.056  18.148  13.054
33509W        W 1727  23.207  16.149  13.774
33510W        W 1728  10.148  27.767   4.205
33511W        W 1729  19.941  31.466  12.089
33512W        W 1730  37.315  37.521   1.473
33513W        W 1731  23.148  31.361  12.418
33514W        W 1732  24.162   5.335   0.856
33515W        W 1733  18.258  14.324  10.257
33516W        W 1734   0.258  37.395  14.970
33517W        W 1735   7.312  21.928  10.988
33518W        W 1736  12.100  43.387   3.918
33519W        W 1737  27.158  40.905   1.606
33520W        W 1738  14.194   4.760  13.155
33521W        W 1739  39.536  12.222   3.245
33522W        W 1740   6.738  39.891  13.409
33523W        W 1741  43.057  11.909  12.551
33524W        W 1742  28.014  35.546  11.471
33525W        W 1743  40.331  31.937  14.968
33526W        W 1744  40.790  36.508  11.454
33527W        W 1745  25.402  23.003   3.268
33528W        W 1746  36.118  42.549   3.598
33529W        W 1747  42.329  43.723  11.144
33530W        W 1748  14.780  23.207  12.469
33531W        W 1749   8.113  35.377  14.856
33532W        W 1750  20.895   1.216   0.444
33533W        W 1751  10.748  44.254   2.665
33534W        W 1752  19.166  35.062  13.787
33535W        W 1753  43.056  29.726   3.906
33536W        W 1754  42.838  20.302  14.518
33537W        W 1755  24.284  21.125  10.769
33538W        W 1756  19.718  42.526  12.987
33539W        W 1757  19.389  26.865  13.452
33540W        W 1758   5.880  10.362  11.030
33541W        W 1759  29.333   7.882  12.543
33542W        W 1760  33.938  25.237  14.130
33543W        W 1761  29.696  21.689  13.754
33544W        W 1762   7.778  35.051   1.838
33545W        W 1763  41.392  40.375   2.580
33546W        W 1764   1.234  28.889  14.246
33547W        W 1765  17.553  16.112  14.305
33548W        W 1766  34.098   0.702  11.908
33549W        W 1767   5.291  24.951   2.264
33550W        W 1768   7.510   8.409  14.963
33551W        W 1769  29.034  16.054  14.002
33552W        W 1770  36.589  44.492   3.658
33553W        W 1771  20.454   0.638   1.337
33554W        W 1772  36.697  14.771  11.204
33555W        W 1773  12.394  41.924   1.740
33556W        W 1774  42.612  24.470   0.986
33557W        W 1775  13.196  34.524   3.687
33558W        W 1776  16.114   6.424   1.436
33559W        W 1777  13.545  22.456   1.614
33560W        W 1778  44.793  28.794   4.863
33561W        W 1779  43.831  27.962  12.530
33562W        W 1780  30.884  43.670   4.021
33563W        W 1781  39.517  22.350   2.314
33564W        W 1782  41.804   3.016   1.355
33565W        W 1783  27.495  42.069   1.216
33566W        W 1784  15.180  36.499   4.382
33567W        W 1785  36.613   1.283   2.782
33568W        W 1786  24.786  23.216   3.914
33569W        W 1787  23.179  12.814   2.299
33570W        W 1788  16.275  40.463  12.398
33571W        W 1789  30.442   0.699   4.655
33572W        W 1790  20.738   0.686  11.305
33573W        W 1791  25.197  20.047   3.591
33574W        W 1792  28.526  23.003   9.717
33575W        W 1793  29.614   9.191   4.751
33576W        W 1794  31.526  30.416  12.044
33577W        W 1795  28.359  16.680   5.024
33578W        W 1796  18.808  12.661   2.339
33579W        W 1797  16.233  26.673  11.422
33580W        W 1798   6.536   4.694   2.279
33581W        W 1799  42.465   9.435   1.350
33582W        W 1800  30.541  30.097  14.973
33583W        W 1801  15.273  22.219  11.656
33584W        W 1802  42.669  39.752  11.072
33585W        W 1803   3.268  17.761   2.230
33586W        W 1804   4.356  11.359  12.419
33587W        W 1805  11.654  13.143  11.534
33588W        W 1806  34.078  18.504  11.562
33589W        W 1807  31.312  15.631  10.303
33590W        W 1808  27.222  26.267  13.405
33591W        W 1809  33.148   6.469   4.235
33592W        W 1810   0.090   3.368   1.469
33593W        W 1811   7.780  12.922   1.900
33594W        W 1812  26.626  37.401  13.291
33595W        W 1813  25.798   2.979   2.400
33596W        W 1814  30.719  17.179  10.467
33597W        W 1815  39.298  30.584   4.054
33598W        W 1816  42.054  23.834  11.102
33599W        W 1817  36.813  23.927   4.293
33600W        W 1818  23.974  18.833   3.630
33601W        W 1819  37.953   3.422   0.536
33602W        W 1820  37.840  38.589  11.846
33603W        W 1821  24.025  12.620  12.015
33604W        W 1822  21.281  32.783  13.823
33605W        W 1823  38.121  16.079  13.008
33606W        W 1824  28.028   8.326   4.570
33607W        W 1825   5.203  15.748  14.383
33608W        W 1826   4.360  31.592   1.316
33609W        W 1827  25.946  26.683   0.972
33610W        W 1828  42.378  28.711   4.079
33611W        W 1829   3.880   9.824   3.231
33612W        W 1830  23.883  34.876   1.863
33613W        W 1831  26.125  36.142   4.828
33614W        W 1832   2.305  17.523  13.442
33615W        W 1833   9.884  33.166   3.683
33616W        W 1834  17.971  20.030  12.025
33617W        W 1835  24.603   2.607  12.372
33618W        W 1836   5.801  43.956   9.865
33619W        W 1837   0.228  38.389  12.471
33620W        W 1838  24.690  24.772  14.325
33621W        W 1839  20.503  20.076   1.397
33622W        W 1840  24.297  24.492   3.759
33623W        W 1841  21.166  34.952   4.717
33624W        W 1842   5.201   2.686  12.489
33625W        W 1843  35.376  16.364   3.582
33626W        W 1844  15.349  34.041  11.959
33627W        W 1845   1.198  42.963   0.538
33628W        W 1846  12.319  19.848   1.194
33629W        W 1847  29.725   5.757   0.957
33630W        W 1848  30.666  14.128  11.917
33631W        W 1849  36.764  28.055  14.804
33632W        W 1850  39.810  10.807   2.263
33633W        W 1851   8.920  30.665  11.913
33634W        W 1852  30.456   4.879  13.402
33635W        W 1853  27.641  25.739  12.677
33636W        W 1854  19.709   7.711   2.754
33637W        W 1855  25.261   3.952   3.956
33638W        W 1856  17.130  19.236   0.334
33639W        W 1857  44.351   7.449  13.423
33640W        W 1858  20.525  22.112   1.687
33641W        W 1859   2.753  18.858   1.626
33642W        W 1860   4.044  39.531   3.479
33643W        W 1861  43.798  21.170  10.083
33644W        W 1862   6.126  31.036  13.965
33645W        W 1863   9.817  44.756   2.451
33646W        W 1864   6.318   5.425  14.433
33647W        W 1865  14.559   8.284  11.542
33648W        W 1866  42.162  12.752  13.599
33649W        W 1867  14.565  23.506   3.449
33650W        W 1868   7.795   8.819   2.777
33651W        W 1869  34.957  18.731   2.015
33652W        W 1870  10.328  25.614  12.360
33653W        W 1871  44.936   3.805  13.335
33654W        W 1872  13.590  41.909  13.569
33655W        W 1873  28.881  36.360   4.380
33656W        W 1874  18.727   1.973  11.659
33657W        W 1875  30.056  26.583   3.663
33658W        W 1876  13.847  31.672  10.497
33659W        W 1877  10.631  39.997  13.022
33660W        W 1878   3.845  24.349   1.908
33661W        W 1879  11.938   0.823   3.578
33662W        W 1880   6.639  32.528  11.064
33663W        W 1881  12.813  22.080   0.021
33664W        W 1882   4.187  11.080   1.957
33665W        W 1883  33.272   6.764  13.394
33666W        W 1884  30.134  36.103  11.174
33667W        W 1885  31.991  33.493   2.732
33668W        W 1886   8.188  32.974   0.401
33669W        W 1887  38.114  43.627   2.214
33670W        W 1888  33.462  30.760   4.006
33671W        W 1889   5.888   8.852   1.858
33672W        W 1890   0.182  12.837  14.307
33673W        W 1891  31.885   1.456   1.544
33674W        W 1892  33.294  35.085  14.559
33675W        W 1893  27.467  38.487  11.719
33676W        W 1894  14.347   2.567   5.114
33677W        W 1895  44.182   0.679  13.302
33678W        W 1896  22.494  19.145   4.597
33679W        W 1897  44.279  13.176   0.857
33680W        W 1898  42.539  40.951   1.926
33681W        W 1899  40.452   3.913  12.112
33682W        W 1900  30.953  30.056  13.513
33683W        W 1901  15.763  17.059   3.399
33684W        W 1902  29.114  19.687   2.898
33685W        W 1903  37.089   1.765   4.120
33686W        W 1904  35.523  36.666   1.455
33687W        W 1905  10.755  24.586   2.064
33688W        W 1906  30.301  43.508   4.503
33689W        W 1907  44.276  12.909  14.506
33690W        W 1908  33.959  24.827  13.801
33691W        W 1909  34.902  39.069  13.274
33692W        W 1910   8.682  20.372  13.581
33693W        W 1911  15.773   8.905  13.457
33694W        W 1912  23.257  32.610   4.110
33695W        W 1913  10.383   8.677  10.732
33696W        W 1914  15.548   8.736   3.647
33697W        W 1915   0.807   2.059  13.490
33698W        W 1916  25.752   6.036   0.382
33699W        W 1917  14.271  37.857   1.296
33700W        W 1918   8.345  24.921  14.519
33701W        W 1919  40.086   2.159  12.092
33702W        W 1920  23.410  12.718  14.497
33703W        W 1921  31.051   4.285  14.340
33704W        W 1922  39.759  18.074  13.911
33705W        W 1923   6.772  39.989  11.472
33706W        W 1924   3.374  40.912   3.320
33707W        W 1925  37.651   3.767  12.942
33708W        W 1926  33.248  27.615   2.734
33709W        W 1927  41.922  17.531  11.141
33710W        W 1928  18.512  37.905  11.676
33711W        W 1929  15.447   5.858  10.162
33712W        W 1930  34.984  32.927   0.820
33713W        W 1931  29.459  21.691  14.701
33714W        W 1932   0.187  25.003   1.421
33715W        W 1933   2.283  18.500  11.652
33716W        W 1934  16.550  23.187  11.667
33717W        W 1935   8.662   2.065   2.445
33718W        W 1936   7.141   9.397  14.987
33719W        W 1937  30.738  28.823   4.844
33720W        W 1938  36.952   3.920  11.615
33721W        W 1939  33.055  16.788   3.808
33722W        W 1940   0.968  35.048  11.521
33723W        W 1941  10.643   4.825   0.361
33724W        W 1942  16.870  36.144  10.755
33725W        W 1943  18.612   1.681   1.287
33726W        W 1944  23.979  28.570   3.825
33727W        W 1945   6.445  39.784   0.879
33728W        W 1946  24.036   7.803   0.280
33729W        W 1947  20.506   3.018  14.819
33730W        W 1948   8.970  39.816   0.729
33731W        W 1949  34.476   8.939  11.628
33732W        W 1950  44.855  14.065   3.772
33733W        W 1951   8.407  21.951  14.290
33734W        W 1952  11.676  27.006  10.938
33735W        W 1953  15.277  34.140   2.627
33736W        W 1954  18.557  35.548  14.911
33737W        W 1955  22.779  35.954   0.376
33738W        W 1956  23.075  40.669  12.641
33739W        W 1957   7.316  29.068  10.455
33740W        W 1958  11.587  40.804   4.243
33741W        W 1959  39.567  42.924   5.104
33742W        W 1960  13.223  27.022  14.755
33743W        W 1961  25.836  11.989  10.350
33744W        W 1962  41.890  21.469   0.793
33745W        W 1963  16.879  11.366   2.453
33746W        W 1964  27.553  22.465  11.740
33747W        W 1965  43.413  44.342   2.297
33748W        W 1966  36.119  40.492   0.716
33749W        W 1967   9.193  36.023   1.778
33750W        W 1968  37.911  41.733  13.431
33751W        W 1969  29.541  35.704  12.087
33752W        W 1970  11.687  44.184  10.111
33753W        W 1971  24.152  39.662  14.397
33754W        W 1972  16.096  15.147   1.392
33755W        W 1973  32.552  37.130   4.740
33756W        W 1974   8.755   8.792  13.030
33757W        W 1975  23.576  13.603  11.643
33758W        W 1976  25.464  18.317   0.282
33759W        W 1977   2.878  17.350   1.692
33760W        W 1978  20.272  23.218   0.948
33761W        W 1979  21.713  39.899   3.274
33762W        W 1980  35.041  40.424   5.136
33763W        W 1981  30.165  33.593  14.299
33764W        W 1982   9.360  34.796  10.854
33765W        W 1983   6.246  23.837  10.115
33766W        W 1984  25.457  35.945  11.462
33767W        W 1985   7.999  22.733  11.914
33768W        W 1986   5.026  18.171   5.361
33769W        W 1987  36.610  27.142  10.968
33770W        W 1988  35.562  40.943   2.682
33771W        W 1989   7.809  42.399   0.306
33772W        W 1990  16.154   4.912  11.865
33773W        W 1991   0.293   8.238   3.165
33774W        W 1992  26.076  13.602  11.530
33775W        W 1993  38.936  12.358   0.881
33776W        W 1994  22.132  14.716  14.940
33777W        W 1995  25.032  31.561  12.077
33778W        W 1996  25.162   6.365  12.673
33779W        W 1997  32.648  25.039  12.855
33780W        W 1998  16.595  23.259  13.401
33781W        W 1999  34.603   8.282  11.709
33782W        W 2000   9.625  14.386   3.677
33783W        W 2001  43.032  28.885   1.276
33784W        W 2002   8.631  31.432  12.632
33785W        W 2003  31.915  28.768   3.259
33786W        W 2004  11.308  11.491  14.836
33787W        W 2005  10.576  11.259  13.392
33788W        W 2006  20.335  39.441  14.393
33789W        W 2007  11.255  13.665   3.144
33790W        W 2008  27.459   1.920   3.267
33791W        W 2009  17.268  29.131  12.366
33792W        W 2010  26.550  30.916   1.070
33793W        W 2011  17.022  16.783   3.909
33794W        W 2012  44.999  21.142  10.612
33795W        W 2013   8.673  40.262  13.941
33796W        W 2014  44.500  26.113  12.185
33797W        W 2015  13.138  33.450   2.376
33798W        W 2016  32.437  15.082   0.668
33799W        W 2017  19.737  36.103  11.513
33800W        W 2018  33.008  41.689   0.682
33801W        W 2019  10.862  44.368   4.678
33802W        W 2020  17.609   3.535   5.031
33803W        W 2021  16.464   5.813  14.300
33804W        W 2022   1.012  13.278   2.387
33805W        W 2023  39.344  27.189  14.766
33806W        W 2024  37.560  26.309  10.656
33807W        W 2025   2.396   4.827  10.708
33808W        W 2026  18.731   9.106   1.978
33809W        W 2027  34.372  33.552  14.381
33810W        W 2028  17.713  30.925  11.981
33811W        W 2029   8.642  11.914   2.959
33812W        W 2030   5.186  17.708   2.334
33813W        W 2031  14.896   2.831   2.719
33814W        W 2032   0.458   5.194   0.736
33815W        W 2033  41.820   2.068  14.153
33816W        W 2034   6.849  37.253  13.017
33817W        W 2035  40.457   5.774  14.736
33818W        W 2036  39.980   5.858  13.870
33819W        W 2037  43.582  26.061   1.362
33820W        W 2038  23.593  12.695  13.994
33821W        W 2039   3.004  26.664  11.559
33822W        W 2040   3.352  27.180   1.412
33823W        W 2041  30.483  25.806   5.025
33824W        W 2042   7.401  19.527   4.119
33825W        W 2043  42.139  44.841   3.738
33826W        W 2044  21.108  31.188  11.154
33827W        W 2045  10.067  20.390   1.284
33828W        W 2046  33.959   7.428  13.020
33829W        W 2047  26.932  18.103  14.428
33830W        W 2048  33.479  12.881  12.692
33831W        W 2049   9.719   6.378  14.624
33832W        W 2050  19.947   6.948  13.278
33833W        W 2051  19.550  21.877   2.004
33834W        W 2052   6.211   5.314  11.979
33835W        W 2053  38.122  18.485  12.439
33836W        W 2054  29.518  36.977  13.478
33837W        W 2055   4.013  41.662   4.982
33838W        W 2056   2.280  40.878  11.647
33839W        W 2057   2.471  33.119  11.961
33840W        W 2058   8.508  17.696  10.655
33841W        W 2059  29.636  42.046  11.676
33842W        W 2060  27.234  32.668  12.546
33843W        W 2061  23.305  42.261   0.666
33844W        W 2062   2.385  17.136   0.889
33845W        W 2063  41.844  15.100  13.850
33846W        W 2064   0.026  14.487  13.942
33847W        W 2065  26.180  35.119   2.820
33848W        W 2066  33.741   4.679  12.063
33849W        W 2067  37.397  44.178   1.052
33850W        W 2068  38.536  21.280   3.962
33851W        W 2069  19.129  19.224  11.216
33852W        W 2070  34.362  17.121   1.881
33853W        W 2071  19.117  18.855   2.431
33854W        W 2072  22.946  12.580  14.658
33855W        W 2073  34.688  26.628  14.339
33856W        W 2074  19.291   5.762  11.533
33857W        W 2075  11.407   0.284  10.094
33858W        W 2076   8.613  22.192  14.950
33859W        W 2077   8.109  39.467   0.444
33860W        W 2078  41.116  34.519   1.807
33861W        W 2079  34.022  30.785   4.962
33862W        W 2080  11.325   7.834  13.141
33863W        W 2081  42.932  44.402   3.615
33864W        W 2082  33.466  24.270   0.699
33865W        W 2083  44.371  12.849  12.066
33866W        W 2084  28.470  15.620   1.836
33867W        W 2085   7.219  29.616   0.809
33868W        W 2086  30.959  41.353  13.566
33869W        W 2087  28.505  41.950  14.494
33870W        W 2088  33.545  12.291  10.412
33871W        W 2089  35.832  23.577   4.258
33872W        W 2090  24.190   8.452  11.210
33873W        W 2091  11.992   4.768  13.748
33874W        W 2092  18.124   1.568   0.001
33875W        W 2093   6.840  43.774  12.484
33876W        W 2094  31.881  33.271   3.804
33877W        W 2095  12.739  27.651  12.072
33878W        W 2096  44.994  15.646  13.418
33879W        W 2097  41.259  19.298  11.698
33880W        W 2098  21.790  23.009   2.304
33881W        W 2099  33.756  37.119   4.076
33882W        W 2100  23.151  29.313  10.729
33883W        W 2101   9.698  11.016   3.403
33884W        W 2102   8.337  36.832  13.877
33885W        W 2103  23.103  16.231  10.767
33886W        W 2104  31.485  37.852   4.972
33887W        W 2105  18.047  24.945   0.777
33888W        W 2106  10.784  10.440  12.653
33889W        W 2107  33.948  17.106   2.815
33890W        W 2108  10.690  20.609   0.998
33891W        W 2109  42.666  12.309  11.858
33892W        W 2110  19.446  12.979   4.481
33893W        W 2111  22.704   1.287  14.862
33894W        W 2112  34.191  42.765  11.929
33895W        W 2113  41.438  37.967  12.879
33896W        W 2114   3.210  18.204  13.933
33897W        W 2115  32.555  34.341  10.789
33898W        W 2116  15.015  39.852   2.196
33899W        W 2117  31.326  27.628   1.246
33900W        W 2118  13.279  40.627  11.965
33901W        W 2119  29.419   3.199   3.251
33902W        W 2120  12.666  23.798   4.621
33903W        W 2121  34.756   2.072   4.620
33904W        W 2122  22.158   9.460  13.190
33905W        W 2123  44.314  25.153   1.293
33906W        W 2124  14.990  27.593  11.947
33907W        W 2125  41.907  22.524   3.366
33908W        W 2126   5.272  42.635   0.253
33909W        W 2127   1.355  17.890  13.306
33910W        W 2128  18.634  27.225   4.058
33911W        W 2129  20.542  31.038   0.777
33912W        W 2130  31.563  29.388   2.364
33913W        W 2131  28.336  40.032  11.672
33914W        W 2132  14.739  39.137   3.873
33915W        W 2133  39.483  33.122  10.718
33916W        W 2134  11.609  44.103  13.438
33917W        W 2135  35.585  11.946  13.314
33918W        W 2136  37.356  23.111   0.718
33919W        W 2137  26.046  22.989  13.515
33920W        W 2138  33.548   4.389  14.005
33921W        W 2139  19.267   3.323   3.628
33922W        W 2140  41.343  24.619  14.981
33923W        W 2141  29.150  15.209   4.143
33924W        W 2142  23.051   8.193   2.222
33925W        W 2143  39.164  29.356  11.532
33926W        W 2144  20.702   7.506  11.087
33927W        W 2145  16.737  25.013  11.127
33928W        W 2146  37.104   3.578   5.355
33929W        W 2147  36.295  19.721   3.689
33930W        W 2148  37.306  44.953   1.463
33931W        W 2149   7.315   8.290  12.686
33932W        W 2150  15.100  38.476   4.288
33933W        W 2151  13.723  12.402   0.314
33934W        W 2152  34.597  41.743  12.459
33935W        W 2153  20.799  15.050   4.306
33936W        W 2154  16.042  12.178   2.983
33937W        W 2155  19.997  22.250  11.914
33938W        W 2156  34.702  32.870   4.287
33939W        W 2157  42.096   0.505   1.869
33940W        W 2158  10.862  15.133   1.326
33941W        W 2159  43.864  24.443  14.111
33942W        W 2160  19.272  35.856   2.798
33943W        W 2161  28.415  31.894   1.831
33944W        W 2162  38.583  29.483   0.696
33945W        W 2163  34.450  33.043  11.648
33946W        W 2164  30.304  21.221  10.646
33947W        W 2165  42.210  21.793   4.118
33948W        W 2166  19.132  37.714   4.823
33949W        W 2167   1.831  21.486   4.081
33950W        W 2168  22.831  28.902  10.771
33951W        W 2169  17.360   3.306   0.412
33952W        W 2170  19.783   3.250   3.653
33953W        W 2171  32.665  31.990  11.669
33954W        W 2172  20.224   3.731   4.347
33955W        W 2173  28.344   2.283  13.319
33956W        W 2174  24.905  14.409  12.678
33957W        W 2175  10.824   8.797   0.858
33958W        W 2176  36.395   2.508   0.436
33959W        W 2177  15.866  31.936   2.061
33960W        W 2178  40.108  16.013  11.690
33961W        W 2179  40.274  41.842   4.084
33962W        W 2180  15.508   9.977  11.245
33963W        W 2181  33.119  29.715  11.912
33964W        W 2182  34.535  28.617  14.091
33965W        W 2183   0.933  15.007  14.772
33966W        W 2184  17.552  21.025   0.001
33967W        W 2185  13.689  23.264   3.315
33968W        W 2186  44.856   3.052  11.518
33969W        W 2187   6.871  30.561   2.116
33970W        W 2188   1.349   8.654   1.768
33971W        W 2189  44.691  33.081  14.939
33972W        W 2190   6.801  14.528   1.192
33973W        W 2191  41.347  18.175  12.511
33974W        W 2192  34.108  16.123   3.225
33975W        W 2193  29.863  33.958   2.236
33976W        W 2194  27.097  37.447   4.612
33977W        W 2195  36.122  40.980   2.695
33978W        W 2196  42.334  40.592  11.079
33979W        W 2197  30.995  39.931  10.449
33980W        W 2198  32.054  34.467  10.740
33981W        W 2199  10.721  11.713   0.279
33982W        W 2200  25.110  22.579   2.433
33983W        W 2201   2.518   1.553  12.905
33984W        W 2202  17.526  39.508  13.378
33985W        W 2203  36.110   4.953   1.208
33986W        W 2204  30.945  28.909   3.552
33987W        W 2205   0.436  22.025   3.907
33988W        W 2206  29.468  43.766   0.562
33989W        W 2207   4.240   8.985  12.153
33990W        W 2208   9.163   3.538   1.137
33991W        W 2209   3.993   7.881  13.457
33992W        W 2210  42.761  23.494   2.555
33993W        W 2211   6.079  38.600   1.321
33994W        W 2212  16.962   7.447  14.822
33995W        W 2213  43.149  21.896  13.869
33996W        W 2214  23.099  36.135  14.783
33997W        W 2215  31.894  40.962   4.859
33998W        W 2216  13.162   9.921   0.811
33999W        W 2217  11.746   2.803  12.416
34000W        W 2218  10.498  40.314  11.625
34001W        W 2219  16.522  34.100   0.308
34002W        W 2220  34.151   3.990   0.721
34003W        W 2221  42.912  16.062   1.664
34004W        W 2222  43.182  37.003   0.239
34005W        W 2223  38.858   5.920  10.720
34006W        W 2224  37.011  10.864   3.442
34007W        W 2225  34.254  26.237   3.236
34008W        W 2226  31.865  28.187  13.975
34009W        W 2227  32.402  25.438   2.936
34010W        W 2228   5.919   5.670   2.806
34011W        W 2229  11.789  16.819   3.150
34012W        W 2230   5.739   2.454  11.450
34013W        W 2231  22.522  21.784   1.343
34014W        W 2232  41.844   6.917  12.869
34015W        W 2233  41.353   2.983   0.375
34016W        W 2234  24.242  12.258   4.327
34017W        W 2235   5.951  14.835  11.944
34018W        W 2236   0.314  42.888  12.358
34019W        W 2237  21.314  35.404   2.189
34020W        W 2238   4.034  31.993  11.905
34021W        W 2239  41.550  12.531  13.077
34022W        W 2240  23.264   4.909   1.826
34023W        W 2241  23.547   8.914  13.653
34024W        W 2242  13.302  32.020  11.138
34025W        W 2243  19.647  21.138   4.729
34026W        W 2244  27.203   4.893  12.064
34027W        W 2245  40.973  19.839  14.316
34028W        W 2246  22.131   9.420   2.298
34029W        W 2247   9.921  42.944   0.477
34030W        W 2248  27.003  32.195  12.543
34031W        W 2249  10.649   6.262   0.552
34032W        W 2250  15.183  19.251  13.986
34033W        W 2251  31.202  23.539  14.001
34034W        W 2252   8.872  42.455  14.364
34035W        W 2253   8.887  27.676  13.480
34036W        W 2254  32.857  18.237  13.465
34037W        W 2255  31.108  16.120   0.699
34038W        W 2256  36.748  39.946  10.932
34039W        W 2257  14.371  40.651  14.906
34040W        W 2258   7.494  24.626  14.892
34041W        W 2259  12.251   5.032   3.235
34042W        W 2260  29.616  44.138   3.385
34043W        W 2261   7.579  17.183  12.614
34044W        W 2262  19.136   1.361   1.951
34045W        W 2263  28.070  41.760  10.292
34046W        W 2264  22.775  20.544  11.950
34047W        W 2265  44.432  42.456   4.089
34048W        W 2266   3.956  21.317  13.897
34049W        W 2267  38.394  23.274  11.379
34050W        W 2268  43.733   5.688   2.732
34051W        W 2269   3.842   7.720   4.848
34052W        W 2270  26.960  12.942   3.783
34053W        W 2271  34.618  20.127   1.349
34054W        W 2272   0.340  32.548  12.957
34055W        W 2273  14.243  26.626   1.834
34056W        W 2274  10.700  35.833   3.160
34057W        W 2275  17.588  29.032  11.201
34058W        W 2276  15.902  22.033  13.401
34059W        W 2277  43.555  17.590  10.679
34060W        W 2278  44.496  34.417  11.125
34061W        W 2279  18.285  44.968   1.542
34062W        W 2280  38.950   2.166   4.035
34063W        W 2281  28.586  35.923   4.493
34064W        W 2282  28.730  15.353   3.216
34065W        W 2283  40.601   2.877  12.947
34066W        W 2284   3.927  13.677  12.909
34067W        W 2285  43.842  16.778  12.913
34068W        W 2286  21.239   5.732  14.982
34069W        W 2287  41.054  25.026   1.676
34070W        W 2288  40.544   5.697   3.596
34071W        W 2289  34.478  22.038  12.103
34072W        W 2290  16.013   1.439   4.871
34073W        W 2291  36.612  24.019   1.974
34074W        W 2292   8.135  20.186  14.685
34075W        W 2293  22.808   9.713   2.774
34076W        W 2294  26.032  15.055   5.189
34077W        W 2295  36.919  39.042   0.752
34078W        W 2296  26.022   3.925  10.999
34079W        W 2297  17.718  14.774  12.636
34080W        W 2298  22.092  31.816   4.288
34081W        W 2299  21.006  25.152   4.901
34082W        W 2300  36.399  34.396  10.645
34083W        W 2301   1.412  44.165  10.935
34084W        W 2302   8.992   6.721   4.505
34085W        W 2303  42.916  16.575   4.914
34086W        W 2304  18.262  38.905   4.511
34087W        W 2305  21.949  14.718   2.868
34088W        W 2306  19.274  34.316  11.231
34089W        W 2307   4.375   1.770   2.769
34090W        W 2308  22.181  35.981  14.818
34091W        W 2309  32.576  40.750   4.202
34092W        W 2310  36.045  17.185   5.012
34093W        W 2311  18.689  36.666  14.255
34094W        W 2312  33.399   6.760   3.374
34095W        W 2313   6.831  22.170  12.624
34096W        W 2314  34.629  25.706   0.413
34097W        W 2315   4.699  33.108  11.902
34098W        W 2316  36.596  35.547   3.142
34099W        W 2317   5.320   9.241  14.568
34100W        W 2318  43.950  26.431   4.113
34101W        W 2319  43.523  24.563   4.384
34102W        W 2320   4.442   1.239   3.553
34103W        W 2321  15.701  24.757   1.903
34104W        W 2322  37.373  13.030  10.250
34105W        W 2323  12.637   3.787  13.815
34106W        W 2324  39.301  31.470   2.265
34107W        W 2325  29.057  37.757   3.285
34108W        W 2326  41.213   3.509   0.712
34109W        W 2327  26.857   6.173  10.175
34110W        W 2328  33.884  41.524   0.497
34111W        W 2329  43.981   5.558  12.670
34112W        W 2330  30.981  21.233  13.015
34113W        W 2331  10.086  17.631  14.849
34114W        W 2332  24.581  12.575   0.968
34115W        W 2333  10.462  28.125  10.547
34116W        W 2334  28.488   1.510   0.144
34117W        W 2335   5.809   3.170   0.261
34118W        W 2336  39.808  38.545  12.984
34119W        W 2337  14.738  44.519   4.514
34120W        W 2338  25.497  33.479   3.207
34121W        W 2339   9.940   6.810  12.019
34122W        W 2340  20.467  36.073   1.218
34123W        W 2341  17.025  34.364   4.206
34124W        W 2342   4.318  39.111  13.499
34125W        W 2343   4.724  27.486  11.022
34126W        W 2344  10.431  44.351  14.384
34127W        W 2345   7.232  23.297  11.500
34128W        W 2346  15.000  11.778   2.217
34129W        W 2347  22.558  39.651  11.272
34130W        W 2348  21.574  21.091  14.842
34131W        W 2349  39.547  10.687   1.211
34132W        W 2350  10.954  39.236   0.792
34133W        W 2351   8.372  26.765  13.685
34134W        W 2352  44.929  32.096   4.188
34135W        W 2353  41.801   9.243   3.219
34136W        W 2354  37.035  30.920  12.894
34137W        W 2355   7.904   2.957   1.657
34138W        W 2356  21.327   2.148  14.350
34139W        W 2357  18.733   7.330   3.655
34140W        W 2358  17.732  40.356  10.764
34141W        W 2359  30.021   1.866  11.938
34142W        W 2360   4.031  10.204  11.166
34143W        W 2361  16.625   8.975   4.002
34144W        W 2362  10.204  23.493  14.524
34145W        W 2363  39.269   6.351   2.103
34146W        W 2364   0.593  18.832  10.948
34147W        W 2365  28.506  35.319  12.873
34148W        W 2366  37.006   4.030  10.819
34149W        W 2367  44.888  28.175   0.035
34150W        W 2368  15.242  18.878  11.132
34151W        W 2369   0.827   2.219  10.784
34152W        W 2370  43.273  32.694  14.745
34153W        W 2371  44.814  28.972   1.735
34154W        W 2372  14.810  15.653   1.914
34155W        W 2373  36.993   6.497  14.932
34156W        W 2374   8.694  30.612  12.804
34157W        W 2375  32.040  44.956   0.173
34158W        W 2376   8.680  17.062   2.738
34159W        W 2377  39.559  15.667   5.011
34160W        W 2378  11.570  24.392   3.679
34161W        W 2379   1.419  14.680  13.940
34162W        W 2380  11.493  10.539  13.884
34163W        W 2381  42.746  30.456   3.250
34164W        W 2382  16.586  13.715   3.212
34165W        W 2383   3.333  38.231   1.209
34166W        W 2384  30.452  18.936   0.166
34167W        W 2385  17.459   8.448  12.324
34168W        W 2386  25.261  29.699   4.053
34169W        W 2387  38.474  16.096  14.555
34170W        W 2388   2.884  40.973   2.803
34171W        W 2389   8.202  13.411  13.727
34172W        W 2390  43.365  22.453  10.443
34173W        W 2391   9.191  10.650   0.473
34174W        W 2392  13.160   3.381   0.827
34175W        W 2393  21.904   5.182   4.142
34176W        W 2394  40.947  19.818   3.254
34177W        W 2395   8.641  17.246  14.916
34178W        W 2396  10.661  41.940   4.041
34179W        W 2397  25.475  27.690  14.346
34180W        W 2398  17.151  10.218  12.364
34181W        W 2399   5.465  18.665   2.044
34182W        W 2400  28.655  36.620  14.546
34183W        W 2401  13.769  29.639   0.048
34184W        W 2402  34.591   9.134  10.580
34185W        W 2403  41.865  10.455   0.186
34186W        W 2404  25.425  19.720   0.723
34187W        W 2405  33.592  40.053   2.262
34188W        W 2406  20.905  20.091   3.841
34189W        W 2407  16.375  10.995   2.446
34190W        W 2408  34.339  10.905  11.856
34191W        W 2409  39.018  38.423   4.995
34192W        W 2410  33.858   9.117   3.744
34193W        W 2411  24.971   1.319   4.268
34194W        W 2412  28.212  19.707   1.020
34195W        W 2413  18.348  23.265  12.800
34196W        W 2414  29.070  11.579   3.215
34197W        W 2415  14.151  40.271   2.372
34198W        W 2416  43.389  18.803  13.548
34199W        W 2417  30.336  16.699   2.679
34200W        W 2418  35.777  41.712   0.073
34201W        W 2419  34.930  20.028  11.482
34202W        W 2420  10.372  39.842  10.739
34203W        W 2421  15.632  12.719  13.648
34204W        W 2422  29.635  29.424  14.442
34205W        W 2423  20.271  14.269  12.308
34206W        W 2424  37.615  41.461  14.836
34207W        W 2425   4.552  37.831   0.126
34208W        W 2426  36.150  12.173  14.028
34209W        W 2427   7.275  23.287  14.508
34210W        W 2428  20.110  29.591   3.231
34211W        W 2429  25.451  25.584   1.784
34212W        W 2430  26.062   1.676   4.963
34213W        W 2431  42.919  16.805   1.658
34214W        W 2432   4.070  38.226  13.291
34215W        W 2433  18.315  40.746   1.181
34216W        W 2434  12.525  34.335   1.022
34217W        W 2435  33.630   9.183  13.885
34218W        W 2436  13.355  30.941   2.709
34219W        W 2437  38.297  18.501  14.842
34220W        W 2438  35.821   7.979  12.581
34221W        W 2439  19.398  10.640  13.962
34222W        W 2440  29.416   5.812  13.056
34223W        W 2441  39.840  14.737  10.653
34224W        W 2442   3.100  35.346   2.412
34225W        W 2443  23.002   5.522  14.269
34226W        W 2444   2.603  10.425  11.218
34227W        W 2445  20.985  19.130  14.754
34228W        W 2446   6.167   4.659   0.781
34229W        W 2447   0.247   6.827   0.828
34230W        W 2448  21.115  16.175  13.256
34231W        W 2449   1.794  12.416  14.020
34232W        W 2450  29.359  33.726   4.973
34233W        W 2451  31.890  20.652  12.168
34234W        W 2452  16.838  43.901  12.046
34235W        W 2453  29.543  18.156  10.143
34236W        W 2454  16.765  30.058   4.235
34237W        W 2455  18.967   7.233  12.411
34238W        W 2456   7.409  37.261   1.321
34239W        W 2457   5.612  12.166   0.886
34240W        W 2458  13.869   8.448   4.336
34241W        W 2459  13.319   4.438  10.547
34242W        W 2460  20.039  29.556   2.401
34243W        W 2461   1.507  24.113  13.385
34244W        W 2462   9.571  19.810  13.546
34245W        W 2463   5.781  33.850  13.339
34246W        W 2464  18.757  19.304   4.127
34247W        W 2465  14.101  40.266   0.187
34248W        W 2466  34.509  23.488   3.942
34249W        W 2467  38.100  32.641   2.351
34250W        W 2468  27.371   1.692  12.670
34251W        W 2469  39.748   7.703  13.068
34252W        W 2470   1.504  37.794  12.630
34253W        W 2471   0.001  42.866  11.082
34254W        W 2472   0.950  20.769  10.683
34255W        W 2473  16.036  26.584  13.566
34256W        W 2474  40.646  39.780  10.279
34257W        W 2475  38.558  44.389  14.013
34258W        W 2476  10.445  39.990  14.475
34259W        W 2477  15.678   7.079  11.850
34260W        W 2478  25.663  38.073  13.967
34261W        W 2479  34.944   6.345  10.507
34262W        W 2480  23.251  32.351   9.530
34263W        W 2481   6.950   0.340   0.971
34264W        W 2482  23.938  18.998  11.265
34265W        W 2483  12.916  19.367   3.734
34266W        W 2484  28.234  27.229   2.064
34267W        W 2485  24.526  31.852  13.056
34268W        W 2486  22.046  42.458   3.097
34269W        W 2487  43.269  12.608  14.277
34270W        W 2488   8.092   8.330   2.840
34271W        W 2489  12.634  15.687   3.927
34272W        W 2490  32.385   9.090   3.405
34273W        W 2491  17.123  29.188   4.581
34274W        W 2492  20.524   4.826  10.735
34275W        W 2493   0.905  18.316   2.805
34276W        W 2494  20.033   3.674   3.423
34277W        W 2495  42.751  25.133   2.848
34278W        W 2496  15.847  11.885   0.958
34279W        W 2497   5.128   3.714  10.010
34280W        W 2498   4.864  26.733  12.567
34281W        W 2499  38.588  42.897   3.634
34282W        W 2500   1.019   4.881  14.413
34283W        W 2501  28.899  10.339   4.601
34284W        W 2502  24.547  23.557  13.965
34285W        W 2503  35.025  26.001   3.675
34286W        W 2504  31.942  42.832  14.946
34287W        W 2505  39.112   4.927   4.657
34288W        W 2506  25.550  20.410   3.390
34289W        W 2507  10.695  32.100  11.988
34290W        W 2508  28.399  11.237   0.467
34291W        W 2509   1.011  27.553  13.290
34292W        W 2510  12.738  29.197  12.880
34293W        W 2511   1.137  34.855  13.052
34294W        W 2512   2.216  37.582   4.586
34295W        W 2513   3.686  13.032  11.450
34296W        W 2514   9.718   7.775  14.906
34297W        W 2515   3.359  24.421  14.755
34298W        W 2516   0.226  35.675   2.813
34299W        W 2517  33.836  15.663   4.099
34300W        W 2518  14.463  15.902  13.019
34301W        W 2519   0.176  41.786  10.499
34302W        W 2520  15.355   8.221  14.510
34303W        W 2521  25.471   5.982  13.053
34304W        W 2522  37.549  10.023   1.988
34305W        W 2523  25.976  22.296  14.339
34306W        W 2524  27.460  38.890   1.750
34307W        W 2525  39.325   1.739  11.692
34308W        W 2526  31.020  24.217   1.194
34309W        W 2527  39.011  14.717  13.941
34310W        W 2528  10.723   0.370   0.175
34311W        W 2529  25.217  11.268  12.979
34312W        W 2530   3.689  27.880   3.180
34313W        W 2531  23.538   6.210   1.192
34314W        W 2532  36.965   8.697  10.697
34315W        W 2533  33.515   0.402  14.418
34316W        W 2534  36.026  25.040  12.443
34317W        W 2535  27.757  41.066   3.747
34318W        W 2536  37.349  14.126   4.606
34319W        W 2537  40.964  32.957   2.274
34320W        W 2538   9.650   1.714   3.269
34321W        W 2539  16.860  44.473  14.492
34322W        W 2540  12.566  16.213  12.576
34323W        W 2541  37.235  18.696   4.617
34324W        W 2542  22.120  19.510   4.695
34325W        W 2543  35.470   8.432   4.770
34326W        W 2544  36.808  10.654  12.965
34327W        W 2545  17.736   2.499   2.843
34328W        W 2546  40.825  40.496  13.809
34329W        W 2547  14.599  13.838  14.798
34330W        W 2548   2.872  15.712  10.416
34331W        W 2549  29.580  31.024   2.882
34332W        W 2550  35.420  38.609  11.034
34333W        W 2551  30.475   4.930   4.094
34334W        W 2552  40.793   9.034  12.622
34335W        W 2553   4.404   8.397   2.724
34336W        W 2554  26.873  43.030   3.242
34337W        W 2555   7.259  19.090   1.812
34338W        W 2556  41.497  28.935   1.717
34339W        W 2557   5.510  17.266  13.058
34340W        W 2558  42.856  12.347   1.181
34341W        W 2559  43.834  27.604   1.965
34342W        W 2560  14.553  30.950   0.986
34343W        W 2561  39.939  38.813  11.686
34344W        W 2562  28.227  29.199   1.266
34345W        W 2563   9.584  29.631  14.557
34346W        W 2564  30.090  21.072   1.609
34347W        W 2565   7.179   3.658  14.954
34348W        W 2566   3.764  38.503   2.171
34349W        W 2567  18.130   0.526  14.897
34350W        W 2568   5.214  14.642  11.476
34351W        W 2569  44.187  20.818   3.212
34352W        W 2570  31.143   5.943   5.363
34353W        W 2571  33.054  20.330  12.661
34354W        W 2572   3.272   6.454   1.789
34355W        W 2573  14.445  42.534   5.164
34356W        W 2574  40.253   3.663  14.394
34357W        W 2575  30.461   6.771   3.842
34358W        W 2576   6.624  34.640  13.008
34359W        W 2577  14.239  39.963  10.776
34360W        W 2578  41.795   2.368  10.804
34361W        W 2579  36.571  44.165   0.280
34362W        W 2580  26.744   3.941  11.997
34363W        W 2581   2.655   9.001   4.098
34364W        W 2582   8.695  34.517   1.798
34365W        W 2583  22.729   0.826  14.428
34366W        W 2584   5.166  30.410  12.445
34367W        W 2585  42.281  19.216   2.353
34368W        W 2586  42.033   5.937  12.982
34369W        W 2587   4.659  35.393  10.628
34370W        W 2588  23.037  22.714  12.027
34371W        W 2589   3.957  15.268   4.165
34372W        W 2590  33.969  17.116   0.018
34373W        W 2591  12.998  16.275  12.298
34374W        W 2592  22.940  44.506  14.463
34375W        W 2593   1.400  27.566   2.782
34376W        W 2594  21.789  28.402  13.384
34377W        W 2595  11.280  30.936   3.057
34378W        W 2596  36.009  37.014   2.814
34379W        W 2597  35.135  16.839  12.552
34380W        W 2598   5.899   0.945   3.208
34381W        W 2599  40.378  43.992  13.980
34382W        W 2600   8.394  32.060   1.265
34383W        W 2601  34.638  37.946   3.806
34384W        W 2602   5.245  30.619   3.368
34385W        W 2603  18.421  14.242  12.095
34386W        W 2604  25.396  11.173  12.114
34387W        W 2605   1.037  32.319  10.281
34388W        W 2606  36.519  22.860  10.304
34389W        W 2607  24.533  10.702  14.998
34390W        W 2608  14.726  40.279   3.072
34391W        W 2609  19.439   1.079   0.384
34392W        W 2610  41.753  33.647  12.689
34393W        W 2611  20.458  38.949  11.534
34394W        W 2612   8.614  41.030   4.110
34395W        W 2613   2.771   6.224  10.479
34396W        W 2614  28.930   1.881  10.532
34397W        W 2615  28.801  13.916   0.837
34398W        W 2616  28.985  14.050   0.113
34399W        W 2617  11.399  38.358  12.495
34400W        W 2618  37.779  33.575  12.713
34401W        W 2619  41.484  42.728  14.681
34402W        W 2620  22.129  44.231  13.410
34403W        W 2621  25.989  27.708  14.357
34404W        W 2622  26.909  14.503  14.020
34405W        W 2623   2.988   1.323  11.558
34406W        W 2624  34.427   3.043   1.777
34407W        W 2625   1.035   8.526  10.717
34408W        W 2626  22.572   1.723   4.593
34409W        W 2627  44.691  30.373  13.731
34410W        W 2628  40.276  30.671   3.261
34411W        W 2629  14.261  15.635   0.602
34412W        W 2630  37.933  16.767  14.366
34413W        W 2631  22.673  18.263  11.390
34414W        W 2632  30.140  20.059  13.929
34415W        W 2633   2.468   8.713   3.548
34416W        W 2634  40.141   1.634   3.889
34417W        W 2635   7.157   7.837  14.822
34418W        W 2636  28.600  11.531   2.329
34419W        W 2637  41.438  34.970  13.475
34420W        W 2638   6.886  43.394   3.172
34421W        W 2639  24.643  42.486   0.471
34422W        W 2640  38.184  28.720   3.196
34423W        W 2641  35.010   6.205  11.413
34424W        W 2642  22.614  30.940   2.844
34425W        W 2643  14.363  16.569   4.012
34426W        W 2644  20.956  34.598   1.883
34427W        W 2645  13.217   7.158  10.427
34428W        W 2646  37.539   6.010  12.576
34429W        W 2647  42.532  33.343  14.907
34430W        W 2648   3.483  27.378  11.040
34431W        W 2649  44.500  12.208   1.944
34432W        W 2650  35.293  14.739  12.095
34433W        W 2651  10.733  27.093   2.435
34434W        W 2652  12.434  39.801   1.241
34435W        W 2653   7.896   2.588  11.164
34436W        W 2654  40.587  13.796  13.116
34437W        W 2655  10.286   6.910  12.876
34438W        W 2656  18.025  32.444   0.765
34439W        W 2657  32.772   6.859   3.811
34440W        W 2658  12.301   3.463  13.491
34441W        W 2659   3.683   0.334   1.326
34442W        W 2660  34.901  15.312  13.281
34443W        W 2661  28.630  19.381  11.937
34444W        W 2662   0.996  43.942   2.611
34445W        W 2663  13.435  36.383   2.805
34446W        W 2664  39.212  34.433   3.514
34447W        W 2665  31.684  40.556   4.146
34448W        W 2666  24.267  20.426  14.386
34449W        W 2667  35.402  43.874   1.843
34450W        W 2668  28.551  14.029   2.348
34451W        W 2669  24.559   5.689   3.420
34452W        W 2670   0.934   3.000   4.955
34453W        W 2671  39.748  36.854   1.453
34454W        W 2672  35.618  36.333   3.342
34455W        W 2673  15.188  42.316  12.653
34456W        W 2674  36.063  21.988   3.886
34457W        W 2675  19.024  37.107  10.213
34458W        W 2676  19.172  31.348   3.605
34459W        W 2677  14.766  42.711   0.349
34460W        W 2678  10.772  19.728  14.904
34461W        W 2679  13.604   4.726  10.868
34462W        W 2680  40.333  40.758   1.560
34463W        W 2681   1.907  43.088  14.744
34464W        W 2682  38.381   3.704  10.714
34465W        W 2683  20.631  35.171   3.227
34466W        W 2684   8.283   8.372   4.228
34467W        W 2685  11.889  32.357  13.377
34468W        W 2686  35.938   6.915  10.480
34469W        W 2687  18.085  13.615   0.923
34470W        W 2688   7.293  37.791   3.572
34471W        W 2689  42.633  40.413   1.849
34472W        W 2690  39.872   3.111  13.805
34473W        W 2691  44.994  15.855   4.429
34474W        W 2692  32.219   1.786  12.807
34475W        W 2693  11.789  15.686  12.219
34476W        W 2694  31.795  10.102   4.970
34477W        W 2695  30.274  24.759   4.779
34478W        W 2696  26.106   9.645   3.292
34479W        W 2697  14.236   8.936  11.162
34480W        W 2698  29.709  34.917   2.236
34481W        W 2699  27.082  44.254   3.777
34482W        W 2700  22.877  32.966   4.912
34483W        W 2701  43.109  16.790   4.481
34484W        W 2702  18.096  27.943   2.636
34485W        W 2703  26.840  44.774  12.452
34486W        W 2704  42.730  42.820  14.197
34487W        W 2705  30.445  10.271   1.748
34488W        W 2706   3.157  38.859   0.356
34489W        W 2707  44.320  39.016   4.680
34490W        W 2708  16.195  22.351  11.657
34491W        W 2709  30.395   2.996  12.636
34492W        W 2710  30.997  35.334  13.544
34493W        W 2711   2.031  33.976  12.435
34494W        W 2712  11.356  30.586  13.294
34495W        W 2713  35.139  25.791   2.378
34496W        W 2714  14.714   9.407   0.025
34497W        W 2715  13.217   7.325   4.605
34498W        W 2716  25.149  35.635   1.924
34499W        W 2717  18.875  19.526   3.665
34500W        W 2718  21.479   4.857   1.203
34501W        W 2719   7.324  38.492   3.331
34502W        W 2720  19.659  37.964  12.815
34503W        W 2721  10.413  43.269  13.370
34504W        W 2722   7.817  43.506   3.559
34505W        W 2723  33.000  33.959   4.491
34506W        W 2724  11.737  17.253  10.644
34507W        W 2725  22.106  31.926   0.007
34508W        W 2726  29.390  10.614  12.500
34509W        W 2727   1.251   5.426   0.313
34510W        W 2728  21.536  30.938  13.000
34511W        W 2729  13.820  30.687   2.879
34512W        W 2730  12.144  22.543   1.900
34513W        W 2731  28.183  39.994   0.454
34514W        W 2732   2.370   3.869  12.508
34515W        W 2733  31.676  39.798   3.145
34516W        W 2734  36.355   3.403   4.148
34517W        W 2735  34.929   0.243   1.624
34518W        W 2736  21.363  36.116   4.127
34519W        W 2737   8.725  33.474  14.802
34520W        W 2738  21.555   6.017   4.755
34521W        W 2739  20.572  22.099  13.078
34522W        W 2740  17.395  24.688   0.757
34523W        W 2741   5.719   9.674  11.654
34524W        W 2742   1.899  29.187   4.585
34525W        W 2743   5.899  10.753   3.716
34526W        W 2744  37.879  30.385  13.075
34527W        W 2745  10.356  32.097   4.056
34528W        W 2746   4.182  14.079   0.482
34529W        W 2747  33.290  29.351  10.381
34530W        W 2748  35.069  27.497   2.193
34531W        W 2749  41.906  28.256  13.543
34532W        W 2750  38.773  42.261  10.667
34533W        W 2751  30.660   8.390   2.865
34534W        W 2752  24.005   7.761  10.706
34535W        W 2753  16.659  18.131  14.062
34536W        W 2754  15.318   1.739  13.498
34537W        W 2755   5.200  41.222   0.814
34538W        W 2756   3.724   4.559   0.344
34539W        W 2757   5.643  35.994  14.395
34540W        W 2758  38.450   6.211   0.755
34541W        W 2759   3.373  30.446   2.831
34542W        W 2760  27.918  25.540  14.718
34543W        W 2761   8.373  43.999   0.768
34544W        W 2762   2.228  43.886   1.587
34545W        W 2763  34.459   6.249  12.208
34546W        W 2764  21.185  27.573  12.079
34547W        W 2765  40.271  36.937   4.031
34548W        W 2766  26.720   2.204  11.058
34549W        W 2767  19.923  42.491  11.993
34550W        W 2768   2.705  36.089  12.966
34551W        W 2769  23.413  30.037   1.714
34552W        W 2770  33.400  12.651  14.145
34553W        W 2771  30.972   9.637  10.941
34554W        W 2772  44.283  26.609   2.586
34555W        W 2773   5.710  42.472   3.250
34556W        W 2774  33.362  12.956   0.448
34557W        W 2775  28.575  25.682  11.676
34558W        W 2776  15.518  26.646   5.046
34559W        W 2777   6.338   7.635   4.081
34560W        W 2778  36.960  20.115  10.657
34561W        W 2779  24.712  24.982   2.753
34562W        W 2780  14.704  26.591  10.578
34563W        W 2781  27.980  44.844   1.945
34564W        W 2782  28.464  25.412   4.960
34565W        W 2783  26.962   6.764   1.359
34566W        W 2784  26.541   3.165  13.309
34567W        W 2785  34.110   3.442  10.760
34568W        W 2786   3.647  24.117   2.688
34569W        W 2787  32.337  17.741   1.001
34570W        W 2788   8.192  19.255  11.393
34571W        W 2789  41.773   7.107   1.821
34572W        W 2790  15.494  34.457   0.986
34573W        W 2791  24.226  40.400  12.509
34574W        W 2792  38.564  33.562  10.552
34575W        W 2793   1.919  31.418   1.746
34576W        W 2794  33.868  33.344  14.356
34577W        W 2795  11.566  44.278  12.201
34578W        W 2796  37.001  11.360   0.896
34579W        W 2797  22.984  38.084  14.711
34580W        W 2798  39.973  11.333   0.546
34581W        W 2799  34.679  16.218   2.930
34582W        W 2800  24.291   4.376   1.250
34583W        W 2801   6.918  14.261   3.794
34584W        W 2802  15.151  26.434   1.726
34585W        W 2803   1.880  32.376  14.568
34586W        W 2804   1.989  23.289  14.160
34587W        W 2805  12.652  16.545   1.322
34588W        W 2806  13.739  44.006   4.119
34589W        W 2807  27.087  39.555  14.334
34590W        W 2808  17.152  23.768  12.829
34591W        W 2809  25.912  27.125   2.248
34592W        W 2810  33.538  26.213   4.016
34593W        W 2811  40.494  15.452   0.115
34594W        W 2812  17.118  14.637  11.381
34595W        W 2813  15.046  40.864   4.367
34596W        W 2814  37.068  19.712   4.118
34597W        W 2815  10.298   4.265  10.039
34598W        W 2816  19.083  37.194  11.141
34599W        W 2817  19.320   5.202  10.658
34600W        W 2818  17.193  31.491  13.084
34601W        W 2819  42.517  12.825   2.311
34602W        W 2820  29.924  26.029  13.875
34603W        W 2821  22.197   8.821  11.957
34604W        W 2822  39.785  22.237   3.110
34605W        W 2823  34.818  35.129  10.458
34606W        W 2824  12.186  14.897   3.535
34607W        W 2825  23.941  40.209  11.641
34608W        W 2826  25.995  35.118  12.600
34609W        W 2827  41.299  44.343  12.103
34610W        W 2828   1.379  42.524  13.382
34611W        W 2829   5.441  41.512  14.827
34612W        W 2830  25.012  25.136   4.009
34613W        W 2831  13.102  14.881  11.165
34614W        W 2832  42.452  42.063   3.406
34615W        W 2833  12.636  27.207   3.813
34616W        W 2834  15.744  23.537   2.707
34617W        W 2835   3.498  14.840  11.663
34618W        W 2836   8.979  13.433   4.081
34619W        W 2837  43.805  28.079   3.695
34620W        W 2838  29.052   5.035   2.363
34621W        W 2839  17.847  16.584   0.097
34622W        W 2840   4.234   0.905  11.362
34623W        W 2841   0.429  33.562   1.329
34624W        W 2842  35.325  36.622  11.060
34625W        W 2843   0.856  28.587   3.304
34626W        W 2844   6.894   2.694  11.130
34627W        W 2845  42.488  42.241   4.824
34628W        W 2846  37.516  34.336   1.796
34629W        W 2847  27.928  15.091  11.720
34630W        W 2848  19.219  13.130  13.977
34631W        W 2849  44.297  44.519   2.206
34632W        W 2850  38.099   8.123  10.627
34633W        W 2851  39.940  33.015  11.009
34634W        W 2852  28.663   0.671  13.845
34635W        W 2853  21.726  33.003  13.966
34636W        W 2854  16.082  23.159  11.915
34637W        W 2855   2.342   2.412   0.872
34638W        W 2856  15.205   0.896   5.521
34639W        W 2857  21.652  32.073  10.200
34640W        W 2858  23.490  14.060  14.419
34641W        W 2859  24.975  22.516   0.249
34642W        W 2860   5.060  37.081  13.331
34643W        W 2861  23.463   0.477   4.363
34644W        W 2862  26.454   5.755   2.738
34645W        W 2863  16.130  33.055   4.190
34646W        W 2864  25.258  44.861   4.090
34647W        W 2865  28.363  10.328  13.467
34648W        W 2866  23.001  22.356  13.539
34649W        W 2867  38.009  36.249   2.421
34650W        W 2868  38.770  31.438   3.094
34651W        W 2869  33.899   7.912   4.563
34652W        W 2870  23.443  19.616  14.167
34653W        W 2871  22.414  38.360   0.334
34654W        W 2872  31.224  10.335  12.001
34655W        W 2873   2.517  43.326   4.731
34656W        W 2874  34.728  40.409   1.494
34657W        W 2875   2.221   7.795  13.875
34658W        W 2876   1.739  37.443   4.740
34659W        W 2877  18.086  42.126  10.741
34660W        W 2878  18.615  43.306   1.425
34661W        W 2879   3.792  36.990  11.402
34662W        W 2880  38.008  19.203   3.602
34663W        W 2881  38.512  13.169   1.581
34664W        W 2882  29.405   5.775  10.962
34665W        W 2883  42.080   6.199   1.847
34666W        W 2884  11.145   2.819   1.244
34667W        W 2885  13.620   3.821   2.340
34668W        W 2886  11.945  30.060  11.414
34669W        W 2887  20.239  11.939  12.019
34670W        W 2888  19.589   4.860   4.749
34671W        W 2889   6.770  29.915  10.959
34672W        W 2890  31.800  20.588   3.279
34673W        W 2891  28.016  21.457   0.692
34674W        W 2892  38.810  25.457   0.304
34675W        W 2893  16.661  15.126  14.593
34676W        W 2894  27.499  30.751   0.052
34677W        W 2895  28.591  17.216  10.547
34678W        W 2896  26.278   4.819  14.307
34679W        W 2897  30.784   2.026   4.832
34680W        W 2898  44.923  37.316   1.000
34681W        W 2899  28.989   9.644  13.912
34682W        W 2900  15.032  28.699   0.272
34683W        W 2901  39.302  28.117  14.814
34684W        W 2902  31.074  33.836   1.954
34685W        W 2903  39.824  31.671  13.939
34686W        W 2904   9.443  12.216   4.100
34687W        W 2905  36.596  28.094  10.092
34688W        W 2906  31.016   9.333   1.236
34689W        W 2907  30.202  22.779   0.765
34690W        W 2908  38.140  39.806  12.561
34691W        W 2909   0.881  38.376   4.182
34692W        W 2910  43.041  34.502   1.926
34693W        W 2911  29.717  23.959   3.256
34694W        W 2912  12.088  25.916  14.880
34695W        W 2913  39.700  12.754   0.485
34696W        W 2914  29.182  30.056  10.669
34697W        W 2915  36.051  35.120  10.988
34698W        W 2916   8.840  27.254   1.265
34699W        W 2917  35.371   4.970  11.071
34700W        W 2918  19.650  18.093  11.249
34701W        W 2919  30.391  22.421   1.096
34702W        W 2920  40.074   5.980  12.856
34703W        W 2921  29.660  10.856  11.252
34704W        W 2922  30.454  20.047  13.515
34705W        W 2923   3.950   9.899   1.284
34706W        W 2924  32.642  34.276  14.907
34707W        W 2925  29.145  20.810   4.405
34708W        W 2926  24.570  35.073  14.897
34709W        W 2927   8.787  42.100   3.675
34710W        W 2928  37.135  14.684  14.469
34711W        W 2929  12.715  11.720   3.642
34712W        W 2930  14.137   2.228  13.849
34713W        W 2931  27.218   0.430  13.933
34714W        W 2932  12.337  24.991   0.426
34715W        W 2933  43.701  10.582   0.796
34716W        W 2934  13.047  41.371  11.550
34717W        W 2935  17.124  28.918  11.911
34718W        W 2936  36.278  16.056   4.587
34719W        W 2937  34.394   3.776   3.763
34720W        W 2938  14.172   9.715   4.584
34721W        W 2939  30.943  21.627   4.136
34722W        W 2940  28.792  39.646  11.141
34723W        W 2941  36.168  19.328   0.443
34724W        W 2942  18.465   6.472   3.121
34725W        W 2943   4.070  39.590  11.439
34726W        W 2944  11.182  24.944   1.590
34727W        W 2945  17.663  29.345  14.290
34728W        W 2946   9.676  25.717   0.565
34729W        W 2947  27.522  20.547  14.957
34730W        W 2948   1.269  42.664  12.181
34731W        W 2949  44.914  24.805   3.670
34732W        W 2950  34.630  40.532  13.425
34733W        W 2951  14.563  43.814   1.561
34734W        W 2952  12.860  38.652   4.659
34735W        W 2953  20.961  15.879  14.249
34736W        W 2954  17.377  12.013   3.195
34737W        W 2955  42.268  22.212  12.079
34738W        W 2956  17.320  17.382  13.092
34739W        W 2957  36.780  22.713   2.226
34740W        W 2958  12.354  23.600   3.635
34741W        W 2959  38.517  34.041   1.689
34742W        W 2960  29.668  43.134  13.944
34743W        W 2961  22.978  16.427   2.775
34744W        W 2962  38.882  36.231   2.188
34745W        W 2963  19.047  43.550  12.028
34746W        W 2964  14.996   6.751   1.035
34747W        W 2965  22.089  17.282   0.371
34748W        W 2966   6.153   1.227  11.230
34749W        W 2967  19.997  34.496  12.829
34750W        W 2968   9.225  23.573  11.556
34751W        W 2969  38.890  29.217  10.652
34752W        W 2970  22.932  14.139  10.192
34753W        W 2971  44.889  18.518  13.420
34754W        W 2972   0.397  17.752   2.260
34755W        W 2973  16.052  10.100   0.831
34756W        W 2974  35.809   8.291   2.735
34757W        W 2975   8.880   7.662   4.410
34758W        W 2976  22.061  20.651  14.195
34759W        W 2977  43.376   3.771  14.884
34760W        W 2978   6.362  18.867  10.242
34761W        W 2979  21.627  25.480   2.590
34762W        W 2980  21.690  27.834  12.504
34763W        W 2981  31.466  27.992  14.983
34764W        W 2982   9.579  25.499  10.541
34765W        W 2983  31.031   9.373  14.704
34766W        W 2984   2.555  23.085   1.845
34767W        W 2985  21.696  14.502   0.768
34768W        W 2986  28.214   5.495  14.134
34769W        W 2987  30.165  26.582  10.404
34770W        W 2988  38.287  12.766  10.644
34771W        W 2989   5.809  36.879   4.370
34772W        W 2990   4.360  41.290   4.928
34773W        W 2991  16.305   2.413  13.019
34774W        W 2992  37.022  35.804  13.055
34775W        W 2993  23.673  14.237  13.189
34776W        W 2994  12.620  43.245  10.781
34777W        W 2995  36.427  11.391  13.280
34778W        W 2996  22.212  17.328  13.449
34779W        W 2997   7.086  37.949   2.604
34780W        W 2998  22.095  43.042   2.298
34781W        W 2999   7.429  13.843   2.732
34782W        W 3000  21.069  11.702  13.578
34783W        W 3001  33.639  21.589   0.484
34784W        W 3002  22.500  39.043   3.345
34785W        W 3003  31.907  39.353   2.274
34786W        W 3004  43.858   7.509   0.520
34787W        W 3005  12.368  17.766  12.773
34788W        W 3006  40.890  15.328  12.491
34789W        W 3007   3.337  12.321   2.422
34790W        W 3008  30.704  36.187  10.427
34791W        W 3009   5.944  16.886  11.698
34792W        W 3010  28.700  36.519   4.950
34793W        W 3011   5.300  12.871   3.105
34794W        W 3012   4.448  35.024  12.600
34795W        W 3013   5.184  34.160   3.585
34796W        W 3014  44.500  20.211  14.386
34797W        W 3015  31.913   4.992  13.950
34798W        W 3016  22.450   3.277  12.880
34799W        W 3017  13.733   8.207   1.236
34800W        W 3018  26.754   6.127  11.457
34801W        W 3019  10.804   7.823   4.285
34802W        W 3020  28.605  37.755   1.521
34803W        W 3021  30.961  44.345   1.776
34804W        W 3022  32.883  33.945  13.899
34805W        W 3023  27.660  35.168  11.545
34806W        W 3024  37.023  22.571   3.045
34807W        W 3025  29.458  11.306   0.429
34808W        W 3026   5.709   8.358   3.134
34809W        W 3027   9.152  25.971   3.159
34810W        W 3028  34.844  10.606   3.618
34811W        W 3029  24.597  14.670  12.362
34812W        W 3030   2.867  23.220   0.825
34813W        W 3031  20.334  11.268   3.268
34814W        W 3032  24.495  43.249  13.398
34815W        W 3033  15.616  23.042   4.968
34816W        W 3034  42.540   0.275  12.007
34817W        W 3035  27.325   2.585  13.322
34818W        W 3036   4.639  14.721  12.337
34819W        W 3037  16.329  23.053   4.389
34820W        W 3038   8.909   7.873  12.063
34821W        W 3039  21.546  29.039   2.214
34822W        W 3040   9.218  42.522  10.449
34823W        W 3041  15.047  30.946   2.242
34824W        W 3042  30.607  39.637  12.873
34825W        W 3043  18.650  41.289  13.398
34826W        W 3044  29.131   8.875   0.713
34827W        W 3045  30.040  27.572   1.483
34828W        W 3046   0.076  18.318   1.877
34829W        W 3047   2.334   5.235   1.296
34830W        W 3048  14.791  10.211   0.042
34831W        W 3049   2.616  44.906   1.692
34832W        W 3050   2.336  31.133  11.693
34833W        W 3051  11.584  36.003  14.882
34834W        W 3052  31.285  31.640   3.837
34835W        W 3053  19.784  41.542  11.814
34836W        W 3054   3.785  41.769  14.803
34837W        W 3055  16.434  19.576  12.513
34838W        W 3056  12.751  29.455  12.424
34839W        W 3057  31.135  43.308   4.664
34840W        W 3058  34.636  25.703  11.518
34841W        W 3059   0.516  15.601   3.125
34842W        W 3060  30.487  11.813   4.802
34843W        W 3061  14.106   5.753   0.441
34844W        W 3062  21.594  29.212  12.449
34845W        W 3063  20.067  31.031   4.091
34846W        W 3064  41.845  19.556   4.591
34847W        W 3065  29.637   0.743   2.213
34848W        W 3066  33.531  31.276  12.804
34849W        W 3067  34.565  37.337  14.673
34850W        W 3068  39.497  10.794  10.886
34851W        W 3069  33.357  24.689   0.401
34852W        W 3070  28.463  20.300   2.364
34853W        W 3071  35.892   5.280  12.555
34854W        W 3072  42.336  18.577   4.571
34855W        W 3073   0.410  34.146   3.731
34856W        W 3074  14.167  40.559   0.636
34857W        W 3075  43.239  22.684  11.321
34858W        W 3076  18.134  29.191   3.666
34859W        W 3077  13.969  25.739  14.339
34860W        W 3078  23.452  43.206  12.114
34861W        W 3079  11.391  23.889   3.627
34862W        W 3080  36.021  36.299  12.275
34863W        W 3081   4.866  40.944   0.500
34864W        W 3082  43.434  10.919   1.223
34865W        W 3083   5.640  40.976   0.959
34866W        W 3084  36.773   5.430   4.489
34867W        W 3085  38.549  25.849  12.214
34868W        W 3086  35.096  14.308   2.364
34869W        W 3087   3.002   9.196  12.518
34870W        W 3088  13.234  20.510   1.755
34871W        W 3089   6.140  28.013  12.367
34872W        W 3090  27.579   6.598   0.975
34873W        W 3091   6.193  21.032   0.006
34874W        W 3092  43.219  44.496   0.788
34875W        W 3093  30.890   8.158   0.788
34876W        W 3094  40.691  43.014   4.479
34877W        W 3095  36.844  32.441   0.335
34878W        W 3096  15.413   1.352   9.774
34879W        W 3097  24.470  40.903   2.684
34880W        W 3098  16.942  38.488  13.046
34881W        W 3099  40.760  37.065   4.184
34882W        W 3100  29.091  22.555  13.594
34883W        W 3101   6.863  12.920  12.953
34884W        W 3102  31.097  30.136  12.039
34885W        W 3103   5.123   2.444   2.781
34886W        W 3104  31.071  25.672   1.064
34887W        W 3105  27.986  40.918   4.193
34888W        W 3106  10.921  23.094  10.932
34889W        W 3107   8.777  19.342   0.526
34890W        W 3108  23.054  22.089   1.264
34891W        W 3109   9.209  20.672   3.775
34892W        W 3110   5.141  17.347   4.707
34893W        W 3111   7.553  30.858  10.768
34894W        W 3112  27.857   2.080   1.658
34895W        W 3113  40.595  19.450   3.245
34896W        W 3114  16.398  11.927  11.089
34897W        W 3115  20.955  24.671  14.087
34898W        W 3116  30.533  37.165  14.249
34899W        W 3117  18.600  37.394   0.028
34900W        W 3118  32.612  29.538   0.238
34901W        W 3119   4.459  11.174   4.130
34902W        W 3120  19.034   5.915  11.116
34903W        W 3121  14.114  42.344  12.889
34904W        W 3122  32.187  22.604   0.704
34905W        W 3123  14.147   1.364   4.232
34906W        W 3124  36.289  20.211   3.397
34907W        W 3125  42.026  24.987   3.577
34908W        W 3126   1.288  13.370   0.347
34909W        W 3127  42.279   9.680  11.546
34910W        W 3128   6.798   0.247  10.438
34911W        W 3129   5.266  26.543   3.334
34912W        W 3130  39.530  37.017   4.760
34913W        W 3131   7.825  35.904   1.595
34914W        W 3132   9.309   9.815  13.700
34915W        W 3133  37.456  42.485   3.920
34916W        W 3134  36.938  38.951  12.540
34917W        W 3135  39.482  36.993  10.658
34918W        W 3136   1.936  19.681  14.898
34919W        W 3137  30.389  32.344   2.735
34920W        W 3138  33.391   7.394  10.370
34921W        W 3139  10.340  28.467   1.190
34922W        W 3140  44.255  24.756  14.386
34923W        W 3141  21.819  24.622   3.726
34924W        W 3142  29.209  19.879   1.990
34925W        W 3143   9.019  34.366   2.860
34926W        W 3144  40.732  12.845  14.547
34927W        W 3145  36.518  30.713  12.893
34928W        W 3146  41.260  36.513   2.706
34929W        W 3147  11.402  37.291   2.743
34930W        W 3148  33.586  24.680  14.402
34931W        W 3149  39.234  12.238   0.422
34932W        W 3150  26.821  27.281  11.925
34933W        W 3151   9.464  36.460   1.861
34934W        W 3152  19.540  22.925  10.616
34935W        W 3153  34.287  14.111   1.769
34936W        W 3154  15.153  22.771  12.531
34937W        W 3155  30.203  41.479   0.371
34938W        W 3156  42.414  11.403   2.234
34939W        W 3157  30.660  18.113  10.701
34940W        W 3158   5.246  17.691  12.872
34941W        W 3159  32.169   1.378  10.525
34942W        W 3160  24.121  37.375   0.364
34943W        W 3161   2.632  23.062   2.833
34944W        W 3162  32.524  35.810  13.112
34945W        W 3163  28.454   2.306   0.704
34946W        W 3164  23.314  13.294   2.149
34947W        W 3165  29.653  19.787   4.594
34948W        W 3166  43.584  33.740  11.594
34949W        W 3167   6.361  34.492   2.251
34950W        W 3168  21.559   6.445  13.955
34951W        W 3169  37.479  29.998  14.556
34952W        W 3170   3.784   3.128  13.909
34953W        W 3171  15.605  30.452   1.844
34954W        W 3172   0.818   5.140  10.440
34955W        W 3173  28.458  44.224  12.784
34956W        W 3174  44.022  14.565   2.810
34957W        W 3175  31.938   9.710  12.913
34958W        W 3176  42.943  17.801  13.447
34959W        W 3177   8.592  20.967   5.002
34960W        W 3178  14.859  41.467   0.956
34961W        W 3179  21.875  31.363  12.957
34962W        W 3180  11.797  19.733   4.688
34963W        W 3181  25.361   4.546   0.092
34964W        W 3182   6.817  15.030   1.277
34965W        W 3183  30.596  20.787   0.328
34966W        W 3184  32.340   3.828  14.526
34967W        W 3185  26.888   4.191   0.384
34968W        W 3186  38.631  27.867   2.964
34969W        W 3187  38.380  42.263  11.926
34970W        W 3188   5.445  42.179  10.996
34971W        W 3189  40.882  25.770  14.041
34972W        W 3190  10.724  15.565  12.330
34973W        W 3191  29.007  36.864  13.484
34974W        W 3192  43.554  29.450  11.250
34975W        W 3193  37.746  41.903   1.993
34976W        W 3194   5.280  34.608  12.779
34977W        W 3195   1.035  41.504   3.781
34978W        W 3196  41.334  13.164   4.238
34979W        W 3197   1.289  33.657  11.974
34980W        W 3198  18.584   9.181   4.645
34981W        W 3199  20.041  43.425   0.200
34982W        W 3200   1.894  43.360  12.189
34983W        W 3201  38.141  26.925   3.600
34984W        W 3202   5.607  26.603  10.587
34985W        W 3203  40.260  10.767   0.420
34986W        W 3204  39.020  43.532  12.740
34987W        W 3205  25.460  27.901   3.149
34988W        W 3206  11.710   4.964   3.338
34989W        W 3207  14.279  33.627  13.223
34990W        W 3208  28.916  33.778  12.984
34991W        W 3209  13.211  39.827   3.281
34992W        W 3210  39.304  35.378   1.754
34993W        W 3211  14.000  44.812  14.252
34994W        W 3212  16.789  17.694   0.768
34995W        W 3213  35.946  32.109   3.383
34996W        W 3214  18.410   4.524   2.434
34997W        W 3215  10.658  37.601  14.731
34998W        W 3216  40.819  29.845   2.374
34999W        W 3217  40.877  14.200   1.628
35000W        W 3218   2.581   4.294  11.205
35001W        W 3219  24.405  18.825  11.151
35002W        W 3220  29.539  38.991  12.533
35003W        W 3221  24.148   5.050  12.529
35004W        W 3222  42.315  10.539  12.440
35005W        W 3223   1.070  32.475  12.036
35006W        W 3224  27.920   8.782   1.810
35007W        W 3225  36.484   3.250  11.983
35008W        W 3226  10.990  34.803   4.090
35009W        W 3227   7.461  37.538   1.752
35010W        W 3228  29.113   1.194   4.718
35011W        W 3229  34.327  13.794  12.449
35012W        W 3230   8.961   5.952   4.322
35013W        W 3231   5.272  24.656  13.247
35014W        W 3232   3.389  12.804  10.689
35015W        W 3233  23.245   1.222  14.813
35016W        W 3234  25.088  41.914  11.512
35017W        W 3235  14.865  14.287  11.830
35018W        W 3236  16.029  12.520  14.016
35019W        W 3237  18.193  36.643   3.273
35020W        W 3238   8.480  40.045  11.101
35021W        W 3239  36.024  11.055  13.177
35022W        W 3240  21.100  25.461  12.057
35023W        W 3241   6.394   0.492  12.992
35024W        W 3242  10.762  42.406   0.294
35025W        W 3243   0.237  40.836   1.324
35026W        W 3244  17.163  18.634  10.703
35027W        W 3245  25.239  40.447   2.858
35028W        W 3246  33.087  20.746   4.989
35029W        W 3247  19.884  19.718   0.090
35030W        W 3248   4.879   9.637  10.605
35031W        W 3249  33.366   0.376  11.261
35032W        W 3250  35.018  26.743  10.693
35033W        W 3251   9.283   2.416  11.597
35034W        W 3252  41.319  32.840   4.883
35035W        W 3253  38.638   5.280   3.599
35036W        W 3254   7.143  38.802   2.943
35037W        W 3255  35.662   3.346   1.240
35038W        W 3256  11.848  26.224  13.434
35039W        W 3257  10.898  38.403  11.886
35040W        W 3258  39.326  16.524   2.156
35041W        W 3259  37.426  31.120   1.700
35042W        W 3260  33.496  23.086   2.711
35043W        W 3261  10.567  40.029   4.222
35044W        W 3262  18.088   0.764   0.534
35045W        W 3263  14.732   9.742   4.628
35046W        W 3264  13.720  34.881  11.009
35047W        W 3265  25.463  18.317  13.398
35048W        W 3266  40.062   8.341  13.980
35049W        W 3267  31.128  28.856   2.144
35050W        W 3268  30.498   2.384  10.668
35051W        W 3269  19.675  13.060  11.768
35052W        W 3270  44.055  11.382  12.063
35053W        W 3271  34.860   7.663  10.944
35054W        W 3272  33.441  33.975   4.144
35055W        W 3273  21.131  12.384  11.129
35056W        W 3274   2.437  19.320  14.261
35057W        W 3275  39.180  28.099   4.580
35058W        W 3276  27.202  27.203  14.492
35059W        W 3277  43.755  20.278   3.753
35060W        W 3278   3.208  42.361  13.450
35061W        W 3279  19.832  42.219  14.406
35062W        W 3280   1.556   4.910  13.080
35063W        W 3281  33.068  32.482  13.148
35064W        W 3282  30.149  33.612   4.555
35065W        W 3283  13.436  34.231  14.199
35066W        W 3284  43.448   7.300   3.144
35067W        W 3285  19.646  35.838  12.935
35068W        W 3286  39.026   7.647   0.314
35069W        W 3287  18.174  30.529   3.338
35070W        W 3288  15.298  25.206  14.814
35071W        W 3289  14.749   0.495   0.798
35072W        W 3290  30.652   6.112  11.527
35073W        W 3291  11.182  37.499   3.705
35074W        W 3292  29.338   7.436  11.173
35075W        W 3293  10.775   3.166   2.929
35076W        W 3294   0.903  34.458   4.604
35077W        W 3295   8.216  29.118  13.763
35078W        W 3296   2.365  24.379  10.211
35079W        W 3297  15.273  38.440  10.645
35080W        W 3298  41.318   5.478  12.180
35081W        W 3299  44.735   8.136  13.328
35082W        W 3300  39.453  43.694  10.761
35083W        W 3301   2.046  42.350   1.288
35084W        W 3302   5.411  42.072   1.120
35085W        W 3303   0.989   6.785  14.105
35086W        W 3304  38.620  22.534  11.719
35087W        W 3305  31.070  16.742  13.064
35088W        W 3306  39.763  30.435   1.324
35089W        W 3307  35.853  44.609   4.372
35090W        W 3308  18.478  20.133  11.966
35091W        W 3309  43.774  18.066   2.285
35092W        W 3310  39.850  43.860   1.947
35093W        W 3311  15.769  43.244   1.007
35094W        W 3312   0.984   7.742  12.971
35095W        W 3313  32.615  27.257  14.724
35096W        W 3314   3.543   7.316   0.215
35097W        W 3315   7.255  12.804  14.019
35098W        W 3316  36.572  36.242   4.661
35099W        W 3317  35.175  11.330  14.048
35100W        W 3318  17.730   0.980   2.246
35101W        W 3319  35.586  11.859   2.151
35102W        W 3320  12.151   9.135   2.911
35103W        W 3321   5.290  18.987   4.399
35104W        W 3322  32.801   9.111  13.363
35105W        W 3323  32.779  40.424  10.697
35106W        W 3324  30.122  12.896   3.175
35107W        W 3325  22.979   0.429   1.763
35108W        W 3326   1.760  30.349  12.053
35109W        W 3327  39.176  26.182   0.707
35110W        W 3328  16.818   6.041   3.257
35111W        W 3329   2.882  44.444   1.753
35112W        W 3330  44.959  24.572  11.573
35113W        W 3331  26.096  21.299  10.333
35114W        W 3332  15.471  26.640  11.047
35115W        W 3333   0.872  24.789   2.744
35116W        W 3334  40.971  26.047   2.897
35117W        W 3335  44.350  39.891  14.563
35118W        W 3336  36.841  39.178  12.081
35119W        W 3337  16.705  28.066   1.810
35120W        W 3338   3.658  25.996   1.191
35121W        W 3339  35.429  28.116   1.288
35122W        W 3340  37.177  16.868  13.800
35123W        W 3341   3.772  38.792   3.684
35124W        W 3342  17.328  36.452   2.673
35125W        W 3343  11.634  37.076   4.887
35126W        W 3344  41.111  35.531   1.289
35127W        W 3345  23.493  18.153  12.442
35128W        W 3346  13.157  13.473  12.506
35129W        W 3347  36.876  20.000  13.388
35130W        W 3348  40.464  24.941  11.522
35131W        W 3349  26.297  37.011  13.414
35132W        W 3350  42.847  44.401   1.687
35133W        W 3351  36.938   1.275   1.202
35134W        W 3352   0.549   3.222   1.726
35135W        W 3353  30.020  23.077   2.406
35136W        W 3354  43.375  42.431   4.271
35137W        W 3355  34.924  33.072   1.739
35138W        W 3356  12.322  39.433   3.597
35139W        W 3357   7.107  19.080  13.189
35140W        W 3358  17.585   9.218   3.213
35141W        W 3359  43.320   7.209   1.208
35142W        W 3360  44.513   0.172   2.765
35143W        W 3361  29.833  24.042  10.334
35144W        W 3362  39.499  42.221   2.367
35145W        W 3363  41.261   7.051  14.482
35146W        W 3364  31.912  36.000  11.127
35147W        W 3365  25.290  42.368  11.994
35148W        W 3366  31.820  38.038   4.460
35149W        W 3367   6.290  43.513  11.861
35150W        W 3368  40.901  39.298  11.530
35151W        W 3369  36.563  20.690   0.221
35152W        W 3370  11.932  27.508   2.115
35153W        W 3371  40.730  19.630   2.785
35154W        W 3372  10.646   4.353   1.774
35155W        W 3373  31.450  40.231  14.779
35156W        W 3374   2.344  38.837   3.847
35157W        W 3375  17.542   3.013  11.286
35158W        W 3376  14.769  44.024  12.827
35159W        W 3377   1.535  42.334   2.141
35160W        W 3378   7.497  30.065   0.913
35161W        W 3379   0.016  23.040  10.642
35162W        W 3380  31.093  24.713   3.649
35163W        W 3381  42.004   7.806   2.848
35164W        W 3382  28.411  26.652   3.166
35165W        W 3383   4.332   2.010  12.580
35166W        W 3384  13.898  27.567   1.865
35167W        W 3385  43.410  44.594  11.625
35168W        W 3386  26.062  28.630   1.296
35169W        W 3387  36.513  15.107   1.129
35170W        W 3388  43.798  41.050   1.518
35171W        W 3389  14.252  21.693  10.654
35172W        W 3390   6.390  23.810   4.611
35173W        W 3391  30.335  13.716   1.185
35174W        W 3392  39.727  43.900  12.531
35175W        W 3393  20.584   3.203  11.667
35176W        W 3394  40.897  43.908   2.555
35177W        W 3395  28.897  22.112  14.006
35178W        W 3396  44.449  23.732   3.195
35179W        W 3397  37.365  17.151  12.510
35180W        W 3398  36.813  37.907   0.211
35181W        W 3399  35.850   3.842  13.947
35182W        W 3400  26.221  11.687  10.595
35183W        W 3401   2.763  39.763   3.213
35184W        W 3402   8.921  21.249  13.581
35185W        W 3403  28.439  35.392   4.523
35186W        W 3404  30.177   0.520  11.554
35187W        W 3405  34.093   7.343   1.185
35188W        W 3406   4.327  10.896  11.580
35189W        W 3407  42.705  26.434  14.276
35190W        W 3408  15.248   5.077   2.336
35191W        W 3409  23.461  13.280   3.730
35192W        W 3410  34.113  33.762  12.530
35193W        W 3411  12.828  24.684  13.862
35194W        W 3412  41.812  43.253   2.365
35195W        W 3413  19.968  30.880   2.331
35196W        W 3414  17.107  43.539   5.039
35197W        W 3415   8.587   4.365   4.078
35198W        W 3416   1.307  39.589   4.081
35199W        W 3417  20.434   8.299  14.089
35200W        W 3418  44.363  26.762   4.291
35201W        W 3419  23.116  13.685   3.269
35202W        W 3420  41.566  13.891   1.430
35203W        W 3421  39.846  23.480   0.944
35204W        W 3422   1.070  31.965  10.659
35205W        W 3423  30.748  40.383   4.542
35206W        W 3424  11.866   0.440  11.558
35207W        W 3425  33.328  37.487   0.470
35208W        W 3426  42.299  26.536  11.074
35209W        W 3427   9.245   3.844   2.214
35210W        W 3428  29.511   8.343  14.420
35211W        W 3429  18.567  42.059   0.931
35212W        W 3430  42.103  43.802  14.515
35213W        W 3431  13.055  39.193  11.786
35214W        W 3432  18.235  43.155   1.737
35215W        W 3433  39.419  40.327  13.446
35216W        W 3434   4.157   6.177   1.470
35217W        W 3435  21.999   3.337  11.964
35218W        W 3436  38.416  39.730  12.109
35219W        W 3437  11.301  14.568   1.875
35220W        W 3438  12.896  35.414   2.287
35221W        W 3439  36.432  29.642   3.747
35222W        W 3440  38.317  10.419  13.530
35223W        W 3441  23.255  29.961  12.102
35224W        W 3442   2.852  29.246   3.241
35225W        W 3443  19.279  43.567   4.079
35226W        W 3444   3.221   3.273   4.250
35227W        W 3445  33.928   3.429   3.677
35228W        W 3446  22.664  14.584   2.302
35229W        W 3447   4.995   5.150   0.331
35230W        W 3448   4.231  14.520  14.706
35231W        W 3449  44.308  37.960   5.007
35232W        W 3450  44.631  10.351  11.917
35233W        W 3451  21.117  21.829  14.499
35234W        W 3452  32.408  11.305   3.157
35235W        W 3453  35.390  35.119  12.630
35236W        W 3454   0.314  23.883   4.365
35237W        W 3455  19.603  18.531  13.859
35238W        W 3456  14.904  23.244  13.056
35239W        W 3457  40.453   8.167   0.977
35240W        W 3458  29.170  18.349  13.030
35241W        W 3459  26.071  26.512   3.942
35242W        W 3460  32.754  38.915  10.853
35243W        W 3461  19.665  30.580  10.997
35244W        W 3462  10.920  30.451  12.949
35245W        W 3463   9.158  27.653   4.382
35246W        W 3464  40.571   0.393  10.741
35247W        W 3465  10.839  37.949  14.384
35248W        W 3466   6.891  36.456  14.661
35249W        W 3467   7.127  39.032  11.623
35250W        W 3468  29.136   5.894   3.669
35251W        W 3469  31.518  12.877   3.826
35252W        W 3470  29.139   3.643   3.212
35253W        W 3471  40.844   2.917   2.621
35254W        W 3472   5.093  20.108   2.330
35255W        W 3473   4.518   8.651   0.547
35256W        W 3474  22.342  43.651  11.491
35257W        W 3475  14.087  28.475  12.161
35258W        W 3476   2.417  13.181  10.722
35259W        W 3477  10.212  38.882  14.804
35260W        W 3478  28.485   1.510   1.202
35261W        W 3479  15.764  24.932   2.430
35262W        W 3480  13.288  32.717  12.543
35263W        W 3481  13.124   6.611   4.012
35264W        W 3482  11.369  19.579  13.933
35265W        W 3483  26.603  15.593   1.469
35266W        W 3484  25.575   4.723  12.316
35267W        W 3485  21.168  23.651  12.460
35268W        W 3486   6.303  21.197   0.895
35269W        W 3487  31.174  17.672   0.463
35270W        W 3488  33.436   7.944   4.245
35271W        W 3489   2.535  10.285  10.724
35272W        W 3490   8.674  11.198   1.981
35273W        W 3491  30.700   3.388  13.020
35274W        W 3492   9.794  41.805   1.243
35275W        W 3493  10.702  31.462   0.290
35276W        W 3494  33.581  38.591  12.493
35277W        W 3495  34.458   4.877   2.663
35278W        W 3496  16.823  17.698   4.260
35279W        W 3497  19.668  35.471   1.522
35280W        W 3498  35.570   9.737  11.954
35281W        W 3499  29.652   0.432  13.890
35282W        W 3500  42.054  40.798   3.139
35283W        W 3501  39.292  38.778   2.902
35284W        W 3502  15.196  21.232  10.656
35285W        W 3503  43.927  28.192   3.185
35286W        W 3504  42.545  13.293  14.236
35287W        W 3505  23.641  11.637  10.592
35288W        W 3506  27.913  19.722  11.261
35289W        W 3507  28.805  43.194  10.768
35290W        W 3508  27.824  16.671   5.019
35291W        W 3509   5.854   9.659  12.615
35292W        W 3510   4.648  32.072  14.388
35293W        W 3511  13.793  31.431   3.361
35294W        W 3512  15.541  13.821   4.645
35295W        W 3513  23.027   1.461   1.835
35296W        W 3514  30.680  32.100  11.445
35297W        W 3515   4.797  24.162  11.597
35298W        W 3516  42.683  15.295  12.545
35299W        W 3517  20.754  41.809   0.381
35300W        W 3518  22.711   7.703   3.244
35301W        W 3519  26.693  22.240  12.728
35302W        W 3520  21.683  22.582  14.400
35303W        W 3521  16.306  40.783   2.652
35304W        W 3522  43.924  42.338  14.937
35305W        W 3523  44.233  19.061  12.881
35306W        W 3524   8.832  15.443   9.817
35307W        W 3525  35.425  14.197   3.328
35308W        W 3526  12.375  31.626  12.645
35309W        W 3527  38.322  28.951  13.877
35310W        W 3528   2.687   2.279   1.745
35311W        W 3529   1.399  30.990  10.786
35312W        W 3530   7.230   2.997   4.590
35313W        W 3531  21.938  30.619   0.821
35314W        W 3532  18.636   2.493  12.364
35315W        W 3533   8.188  30.963   4.525
35316W        W 3534  17.582   2.254  10.590
35317W        W 3535  42.779   5.436   0.905
35318W        W 3536  20.590  16.040  14.986
35319W        W 3537  42.847  10.706  11.999
35320W        W 3538  39.514   3.940  11.156
35321W        W 3539   4.458  25.163  14.396
35322W        W 3540  15.595  40.912   1.926
35323W        W 3541  25.324  24.662   2.897
35324W        W 3542  39.890  37.420  11.479
35325W        W 3543   6.174  27.772   2.912
35326W        W 3544  14.680  19.526  11.435
35327W        W 3545  42.599  26.964   2.199
35328W        W 3546  36.269  20.125  14.592
35329W        W 3547  32.731  39.322  14.905
35330W        W 3548  44.500  32.320   3.252
35331W        W 3549  33.999  17.810   0.334
35332W        W 3550  42.997   9.723  13.220
35333W        W 3551  34.443  34.556  11.104
35334W        W 3552  31.304  26.101   0.307
35335W        W 3553   9.348  20.352   5.247
35336W        W 3554  26.179  26.425  11.262
35337W        W 3555  23.949  16.573  11.051
35338W        W 3556  16.247  11.629  14.114
35339W        W 3557  43.421  24.300  13.841
35340W        W 3558  42.376  10.178  11.473
35341W        W 3559   9.175   9.459  13.339
35342W        W 3560  32.041  40.245  12.301
35343W        W 3561  11.758  31.186   1.669
35344W        W 3562   3.331  26.441  14.054
35345W        W 3563  29.552  16.086   2.617
35346W        W 3564  18.059  29.086  14.903
35347W        W 3565  35.033  36.571   2.630
35348W        W 3566  12.146  20.208   3.158
35349W        W 3567  40.986  22.713  12.620
35350W        W 3568  20.178   2.764   0.773
35351W        W 3569  25.033   4.213  11.870
35352W        W 3570   5.244  19.730  13.997
35353W        W 3571   7.114   6.052   2.426
35354W        W 3572  25.960  25.642   2.680
35355W        W 3573   5.939  22.799  14.480
35356W        W 3574  29.356  14.809  13.530
35357W        W 3575  25.235  36.624  10.766
35358W        W 3576  12.623  10.161  12.486
35359W        W 3577  30.240   6.318  11.134
35360W        W 3578  10.878  30.722   3.426
35361W        W 3579  26.025  10.347  11.115
35362W        W 3580  11.652  36.159   4.244
35363W        W 3581  15.646   3.191   2.332
35364W        W 3582  37.011  36.854  11.559
35365W        W 3583  40.909  24.754   2.554
35366W        W 3584  19.292   9.712   0.408
35367W        W 3585  34.992  20.828   4.756
35368W        W 3586  18.440  42.290   0.477
35369W        W 3587  32.947  15.434  11.122
35370W        W 3588   2.992   7.029   1.642
35371W        W 3589  22.302  31.533   2.657
35372W        W 3590  43.436   6.727   3.975
35373W        W 3591  11.219  32.418   3.802
35374W        W 3592  29.536  17.998  12.890
35375W        W 3593  37.144  22.614   1.839
35376W        W 3594   6.687  20.460  12.857
35377W        W 3595  15.777  38.303  11.648
35378W        W 3596  33.858  25.442  10.447
35379W        W 3597  17.157  20.199  10.673
35380W        W 3598  17.090  42.902  10.038
35381W        W 3599  24.592  22.564  14.891
35382W        W 3600  16.990  18.127  11.780
35383W        W 3601  21.180  29.590  12.034
35384W        W 3602  26.051  19.347  13.322
35385W        W 3603  37.579  19.112   4.522
35386W        W 3604  37.069   4.219  14.531
35387W        W 3605  18.526   3.998   3.710
35388W        W 3606  13.341  10.412  13.648
35389W        W 3607  13.169  15.008   1.603
35390W        W 3608  17.734  20.750  10.881
35391W        W 3609   5.425  16.906  11.625
35392W        W 3610  22.432   2.238   2.692
35393W        W 3611  41.665  28.193  12.902
35394W        W 3612   4.284  36.459   1.002
35395W        W 3613  10.017   0.833   4.720
35396W        W 3614  31.871   0.471  12.169
35397W        W 3615  31.192  33.854  13.396
35398W        W 3616  29.893  37.916   4.541
35399W        W 3617  17.818   3.221  14.289
35400W        W 3618  33.959  41.498  12.787
35401W        W 3619   0.184  27.389   3.409
35402W        W 3620   8.322  41.858   2.832
35403W        W 3621   4.879  17.621  11.145
35404W        W 3622  26.998  25.247   4.888
35405W        W 3623  41.840   1.286  13.399
35406W        W 3624  16.558  27.009   1.804
35407W        W 3625  13.275  21.652   3.631
35408W        W 3626  41.949  23.445  13.425
35409W        W 3627  13.639  35.311   3.684
35410W        W 3628  40.911  43.944  14.922
35411W        W 3629  26.552  35.776   2.320
35412W        W 3630  11.159  18.203   3.547
35413W        W 3631  40.992  42.757   2.720
35414W        W 3632   4.653  31.042   2.877
35415W        W 3633  37.327  30.958   2.206
35416W        W 3634  39.174   4.336   0.382
35417W        W 3635  23.843  16.347   1.719
35418W        W 3636  44.399  22.705  12.993
35419W        W 3637   3.340  14.189   9.856
35420W        W 3638  28.708  43.090   1.486
35421W        W 3639   3.673   4.051   2.760
35422W        W 3640   7.718  34.589  12.952
35423W        W 3641  31.568   3.137  14.929
35424W        W 3642   4.436   6.930   1.878
35425W        W 3643  40.404   2.976   1.249
35426W        W 3644   0.702  25.041   1.414
35427W        W 3645  25.026   7.201   1.765
35428W        W 3646  10.204  12.621   4.466
35429W        W 3647  18.387  10.385  12.997
35430W        W 3648   3.644   3.466  10.681
35431W        W 3649  41.735  22.009   4.128
35432W        W 3650   4.934  31.820  13.065
35433W        W 3651  24.605  18.157   1.582
35434W        W 3652   7.432  10.425  10.656
35435W        W 3653  42.925  37.553   4.910
35436W        W 3654   3.256  19.778   3.230
35437W        W 3655   0.514  19.305   0.918
35438W        W 3656   1.056  13.350   0.826
35439W        W 3657  33.637  39.350   3.718
35440W        W 3658  19.742  25.003   1.539
35441W        W 3659   8.901  40.666  13.043
35442W        W 3660  36.449   6.756   0.850
35443W        W 3661  20.972   9.429   2.440
35444W        W 3662  35.566  10.326   4.842
35445W        W 3663  30.624  44.009   3.634
35446W        W 3664  36.779   7.170  11.276
35447W        W 3665  35.574   8.289  13.387
35448W        W 3666  29.044  15.539  13.912
35449W        W 3667  40.763  37.095   0.376
35450W        W 3668  22.673  34.693  12.533
35451W        W 3669  34.193   4.463   0.491
35452W        W 3670  30.313  15.826  10.176
35453W        W 3671  35.389  30.948   4.143
35454W        W 3672   9.610  38.564   2.246
35455W        W 3673   4.312  39.090   4.532
35456W        W 3674  26.933  33.628   3.047
35457W        W 3675  19.281   7.744  12.446
35458W        W 3676  11.323  35.430  12.555
35459W        W 3677  44.926  35.285   3.000
35460W        W 3678  29.578  41.238  11.233
35461W        W 3679   2.791   0.367  14.311
35462W        W 3680   9.203  18.590   1.011
35463W        W 3681   7.167   6.876   3.366
35464W        W 3682  39.006  39.606  10.626
35465W        W 3683  27.435  40.954   3.335
35466W        W 3684  30.054  22.051  10.911
35467W        W 3685  39.932  30.081   3.858
35468W        W 3686  11.689   1.316  12.821
35469W        W 3687  21.436  41.147   3.268
35470W        W 3688   9.032  29.856   0.941
35471W        W 3689  20.610  31.450   1.073
35472W        W 3690  13.091  33.377  14.772
35473W        W 3691   3.318  10.747  12.974
35474W        W 3692  41.418  22.459  13.876
35475W        W 3693  12.183  39.711  11.631
35476W        W 3694  23.201  16.592   0.598
35477W        W 3695  36.915  35.485   0.911
35478W        W 3696  21.133  22.778   0.130
35479W        W 3697   0.839   1.297  10.628
35480W        W 3698  17.017  20.814   4.160
35481W        W 3699  20.315   3.391   1.740
35482W        W 3700   6.281   3.174  10.645
35483W        W 3701   4.743   2.443   4.274
35484W        W 3702   5.464  24.434   2.170
35485W        W 3703  43.319   3.233  13.377
35486W        W 3704  39.036  20.520  12.175
35487W        W 3705  34.939  30.185   4.334
35488W        W 3706  42.207  12.341  12.075
35489W        W 3707  30.628  12.056  11.051
35490W        W 3708   1.026  23.164  11.559
35491W        W 3709   6.804  25.693  12.786
35492W        W 3710  20.691  14.309  11.991
35493W        W 3711  11.540  15.740   1.991
35494W        W 3712  39.427  24.265  14.316
35495W        W 3713   6.734  11.634   3.163
35496W        W 3714  22.207  27.204  14.383
35497W        W 3715  17.729   3.278  12.623
35498W        W 3716  14.493  28.980   1.895
35499W        W 3717  38.732  32.944   4.549
35500W        W 3718  35.492  43.301  13.977
35501W        W 3719  22.942  26.166   2.759
35502W        W 3720  10.316  10.336   3.133
35503W        W 3721  34.590  13.214   2.750
35504W        W 3722   1.945  21.244   9.819
35505W        W 3723  17.039   9.275   2.315
35506W        W 3724  21.811  29.082  12.935
35507W        W 3725  10.408  20.627  10.608
35508W        W 3726  38.454  22.015   1.863
35509W        W 3727   4.157   8.959  14.569
35510W        W 3728   7.412  30.934  14.801
35511W        W 3729  13.309  12.123  11.571
35512W        W 3730   9.393  21.294  12.310
35513W        W 3731  33.028  24.065  13.126
35514W        W 3732  20.040  44.488  12.061
35515W        W 3733  39.835  10.160   1.460
35516W        W 3734  40.473  43.301  11.704
35517W        W 3735  12.094  40.083   1.708
35518W        W 3736   0.040  12.019  11.141
35519W        W 3737   9.258  44.970  14.523
35520W        W 3738  12.666  35.598  12.543
35521W        W 3739  24.062  11.844   2.215
35522W        W 3740   3.329  26.192   3.922
35523W        W 3741   8.757   6.311  13.082
35524W        W 3742  14.743  19.316  13.349
35525W        W 3743   7.300  14.224  12.945
35526W        W 3744  12.345   9.677   0.461
35527W        W 3745  24.968  41.789   0.597
35528W        W 3746  15.830  13.148   3.377
35529W        W 3747   3.797  27.058  14.107
35530W        W 3748  29.575   4.775   3.611
35531W        W 3749  12.114   0.120   3.172
35532W        W 3750  44.943  27.916  13.481
35533W        W 3751  36.594  29.447   2.366
35534W        W 3752  39.073  26.647   2.923
35535W        W 3753   3.346  41.565   4.612
35536W        W 3754  10.562  23.500  11.149
35537W        W 3755  24.628   9.229   1.466
35538W        W 3756  34.857   6.472   1.877
35539W        W 3757  41.168   9.326   2.360
35540W        W 3758   0.462  22.941  14.526
35541W        W 3759   9.746  30.165  12.824
35542W        W 3760  39.330  19.250  14.830
35543W        W 3761  37.793  10.847  12.844
35544W        W 3762  27.093   5.497  10.864
35545W        W 3763  41.129  35.596  12.844
35546W        W 3764  44.017  33.888   4.347
35547W        W 3765   7.894   5.746  12.289
35548W        W 3766  35.919  43.988  14.229
35549W        W 3767  23.086  23.149  11.249
35550W        W 3768  10.559   2.294   2.773
35551W        W 3769   9.881  20.840   3.154
35552W        W 3770  11.177  32.016   1.799
35553W        W 3771  28.859  37.330  12.486
35554W        W 3772  40.629   2.670  13.742
35555W        W 3773  39.922  22.570   3.682
35556W        W 3774   3.968   4.988   2.547
35557W        W 3775   2.025   4.135  11.210
35558W        W 3776  23.622  30.489  10.986
35559W        W 3777  43.974  41.307  13.429
35560W        W 3778  37.207  22.596  13.267
35561W        W 3779  41.366  18.222  10.659
35562W        W 3780  36.313  40.596   4.371
35563W        W 3781  25.575  34.223  12.544
35564W        W 3782  19.048  31.125  14.308
35565W        W 3783  15.124  27.711   1.223
35566W        W 3784  32.092  15.977  10.262
35567W        W 3785  32.964  21.777  11.236
35568W        W 3786  38.793  12.607  13.879
35569W        W 3787  36.405  20.589  14.338
35570W        W 3788  41.330  39.589   0.345
35571W        W 3789  19.203  33.111   2.357
35572W        W 3790   5.250  11.802   0.980
35573W        W 3791   3.855   3.018   1.120
35574W        W 3792   7.972  27.659  12.592
35575W        W 3793   1.818  31.846   1.012
35576W        W 3794  25.118  24.722   0.731
35577W        W 3795  14.693  14.846   4.385
35578W        W 3796  37.530  11.153  11.597
35579W        W 3797  39.639  22.578  14.285
35580W        W 3798  39.824   8.169   4.813
35581W        W 3799   5.851  16.854  13.024
35582W        W 3800  27.886  36.773   1.719
35583W        W 3801  17.809  36.859  14.931
35584W        W 3802  16.626   2.925   4.703
35585W        W 3803  21.768   2.263   3.822
35586W        W 3804  12.671  19.783   2.829
35587W        W 3805   0.774   0.214  10.734
35588W        W 3806  42.798  36.857   1.786
35589W        W 3807  43.598   7.271  14.764
35590W        W 3808  24.560  24.509   4.225
35591W        W 3809  16.183  10.794  12.879
35592W        W 3810  40.440   7.602  13.316
35593W        W 3811  23.562  17.192   1.199
35594W        W 3812  38.343  20.190  12.140
35595W        W 3813  40.385  15.101  12.646
35596W        W 3814  41.733  35.137   0.288
35597W        W 3815  44.431   8.362   2.807
35598W        W 3816  44.195  32.873   0.458
35599W        W 3817  11.737  42.314  10.403
35600W        W 3818  37.369  44.836   0.243
35601W        W 3819  36.764  21.095   1.640
35602W        W 3820   6.146   4.873   1.288
35603W        W 3821  22.869  12.184   4.466
35604W        W 3822  38.913  38.111   2.314
35605W        W 3823   7.215   6.751  10.753
35606W        W 3824  40.358  26.161   4.521
35607W        W 3825  21.367  19.907   3.671
35608W        W 3826  16.077   7.358   3.750
35609W        W 3827  16.713  18.361  12.148
35610W        W 3828  43.382  18.296  14.990
35611W        W 3829  36.031  41.536   1.809
35612W        W 3830  44.986  39.178   4.677
35613W        W 3831  24.775  22.542  11.567
35614W        W 3832  11.730  21.706   1.742
35615W        W 3833  20.018  21.211   3.865
35616W        W 3834  20.977  31.013  14.417
35617W        W 3835   6.496  13.182  14.503
35618W        W 3836  10.379  43.308  12.406
35619W        W 3837   5.153  33.236  14.364
35620W        W 3838  39.039  37.935  10.830
35621W        W 3839  29.070  21.006  12.370
35622W        W 3840   5.184  38.067   4.618
35623W        W 3841  44.675   0.732  13.367
35624W        W 3842  41.799  30.414  12.107
35625W        W 3843  12.619  23.676  14.708
35626W        W 3844   6.266  16.947  13.305
35627W        W 3845  16.114  12.778  12.368
35628W        W 3846  14.289  27.211   4.121
35629W        W 3847  27.388  31.876  12.761
35630W        W 3848  29.633  19.200  10.514
35631W        W 3849  26.496   8.812  14.912
35632W        W 3850  27.876  38.934   4.698
35633W        W 3851  40.332  11.321  13.734
35634W        W 3852  15.228   9.027   4.880
35635W        W 3853  34.622  33.641   3.249
35636W        W 3854  39.933  21.794   0.220
35637W        W 3855  40.342  24.958  13.791
35638W        W 3856  33.463   8.842   3.021
35639W        W 3857  29.012  38.864  14.527
35640W        W 3858   7.212  11.690  11.182
35641W        W 3859   4.928  30.675  10.092
35642W        W 3860  27.558  38.428   2.973
35643W        W 3861  10.182  39.553   1.328
35644W        W 3862  39.155  23.806  11.185
35645W        W 3863  18.069  20.252   1.407
35646W        W 3864  11.192  25.715  13.355
35647W        W 3865  34.472  27.091   5.829
35648W        W 3866  19.702   4.468  11.903
35649W        W 3867  28.960  42.752   3.259
35650W        W 3868  25.305   8.656  12.443
35651W        W 3869  25.719  28.460  14.984
35652W        W 3870   6.677   9.258   1.958
35653W        W 3871  22.742  26.971  10.681
35654W        W 3872   5.622  28.235   0.254
35655W        W 3873  13.250  28.194  14.038
35656W        W 3874  30.147   6.968   0.559
35657W        W 3875  14.363  10.419  12.089
35658W        W 3876   8.692  36.395  11.185
35659W        W 3877  36.058   3.423  12.692
35660W        W 3878  32.481  27.430  12.581
35661W        W 3879  17.203  38.528  10.942
35662W        W 3880  27.650  28.001   0.411
35663W        W 3881  30.420  41.444  11.528
35664W        W 3882  29.102  35.600   3.300
35665W        W 3883  29.117  18.240   4.248
35666W        W 3884  27.409  43.187  14.952
35667W        W 3885  10.622  26.907  10.705
35668W        W 3886   4.883  40.312   4.651
35669W        W 3887  31.420  21.075  13.931
35670W        W 3888   1.580  16.337  14.700
35671W        W 3889  20.226  32.609  11.561
35672W        W 3890  42.149  32.063  11.163
35673W        W 3891   1.439  30.245  13.899
35674W        W 3892  17.646  24.743  11.960
35675W        W 3893   5.536  25.504  14.309
35676W        W 3894  26.955   0.572   3.365
35677W        W 3895   8.009   4.867  11.952
35678W        W 3896   2.970  16.705   0.118
35679W        W 3897  44.474   2.463   3.137
35680W        W 3898  34.655  10.276   0.832
35681W        W 3899   0.425   2.507   4.401
35682W        W 3900  36.056   2.376  14.655
35683W        W 3901  42.017  39.535   3.575
35684W        W 3902  37.118  26.185   3.701
35685W        W 3903   2.972  19.897   0.902
35686W        W 3904   8.264   4.750   2.640
35687W        W 3905  24.198  10.285   1.729
35688W        W 3906   5.588  17.400   2.453
35689W        W 3907  34.878  25.304   2.821
35690W        W 3908  26.663  26.058  14.240
35691W        W 3909  44.513   6.341   1.808
35692W        W 3910  17.208   1.357  10.202
35693W        W 3911  42.408  23.588  11.879
35694W        W 3912  24.980   2.345   4.020
35695W        W 3913  20.551   4.266   2.842
35696W        W 3914  29.428  38.530   3.274
35697W        W 3915  29.453  34.480  14.816
35698W        W 3916  12.196  21.116  13.086
35699W        W 3917  15.432  26.012  12.477
35700W        W 3918  14.611  22.191   3.793
35701W        W 3919  22.579  24.955   2.319
35702W        W 3920  23.037  11.077   2.785
35703W        W 3921  30.107  43.435  13.085
35704W        W 3922  28.935  41.551   3.611
35705W        W 3923  14.105  18.054  13.494
35706W        W 3924   7.571  36.600   4.205
35707W        W 3925  17.955  11.335   5.014
35708W        W 3926  25.005  18.088  13.470
35709W        W 3927  25.965  20.979   4.094
35710W        W 3928  34.659  28.065  12.442
35711W        W 3929  34.370  14.409  11.702
35712W        W 3930  26.532  15.602   3.841
35713W        W 3931  17.751  32.455  13.904
35714W        W 3932  41.053   2.674  10.232
35715W        W 3933  13.408   1.255   1.869
35716W        W 3934  21.478  20.860   1.511
35717W        W 3935  42.724  29.192  14.308
35718W        W 3936  44.756  38.305  13.314
35719W        W 3937  20.948  39.420  14.059
35720W        W 3938   2.939   9.412  14.702
35721W        W 3939  38.865  13.268  11.958
35722W        W 3940  17.164   0.196  11.075
35723W        W 3941  43.281  28.082   2.888
35724W        W 3942  29.601  37.272  10.633
35725W        W 3943  36.013  29.145   0.779
35726W        W 3944   6.328  33.713   4.996
35727W        W 3945  36.825   5.328   2.397
35728W        W 3946  26.906  22.606   2.286
35729W        W 3947  21.574   7.199  10.560
35730W        W 3948  43.515  19.548  14.328
35731W        W 3949   3.827  44.333   0.286
35732W        W 3950  26.589   9.344   1.401
35733W        W 3951   4.234  43.975   4.552
35734W        W 3952  10.602   3.660   4.717
35735W        W 3953  12.297  37.871   0.762
35736W        W 3954  15.738  28.781   3.609
35737W        W 3955  24.194   1.948  10.009
35738W        W 3956  15.725   9.599  12.052
35739W        W 3957   1.986  31.083   3.858
35740W        W 3958  35.219  22.055   4.553
35741W        W 3959   3.496   3.268   3.817
35742W        W 3960  18.292  24.652  14.695
35743W        W 3961  29.454  22.917   1.252
35744W        W 3962  11.686  30.703  12.337
35745W        W 3963  28.371   4.794   1.846
35746W        W 3964  18.198  15.820   0.306
35747W        W 3965  23.824  14.471   4.196
35748W        W 3966  44.323  27.624   2.314
35749W        W 3967  30.995  13.680   4.889
35750W        W 3968  13.156  20.066   3.253
35751W        W 3969  40.529  29.365   3.909
35752W        W 3970  29.252  20.091  10.894
35753W        W 3971  44.260  11.153  11.645
35754W        W 3972   1.882   6.407   4.543
35755W        W 3973  17.401  37.899   3.341
35756W        W 3974   3.647  18.482   5.060
35757W        W 3975  24.749  38.921   3.624
35758W        W 3976   0.845  12.397   0.029
35759W        W 3977  20.140  39.500  12.310
35760W        W 3978  43.277   4.413  11.970
35761W        W 3979  34.789  39.496   3.430
35762W        W 3980  35.910  21.752  12.585
35763W        W 3981  29.603  26.989  14.424
35764W        W 3982  24.415  11.169   3.627
35765W        W 3983  38.551  16.782   3.702
35766W        W 3984  25.971  16.370  12.931
35767W        W 3985  24.839  13.709   1.817
35768W        W 3986  30.014  41.487  11.109
35769W        W 3987  41.389  25.695   4.059
35770W        W 3988  23.596   3.976   3.661
35771W        W 3989  35.513  29.714   1.352
35772W        W 3990  25.598  20.789  10.511
35773W        W 3991  34.011   9.897   3.240
35774W        W 3992  25.311  11.367   4.186
35775W        W 3993  44.928  41.473   1.919
35776W        W 3994  44.494  18.848  10.770
35777W        W 3995  29.055  18.902   2.296
35778W        W 3996  38.562  41.976   3.711
35779W        W 3997  43.910  29.644  10.930
35780W        W 3998  27.425  42.919  11.940
35781W        W 3999  15.833  32.638   1.371
35782W        W 4000  44.288   9.781   2.783
35783W        W 4001  18.307  27.441   2.542
35784W        W 4002  32.971   0.620   2.567
35785W        W 4003   9.756  29.672  13.121
35786W        W 4004  38.501  24.546   3.257
35787W        W 4005  20.400   5.250  11.859
35788W        W 4006   0.836   3.398   4.641
35789W        W 4007  17.127  35.913  12.625
35790W        W 4008  13.767  33.820  11.122
35791W        W 4009  28.391  10.339  12.530
35792W        W 4010  30.445  23.248   2.692
35793W        W 4011  25.178  18.819   4.194
35794W        W 4012  43.490   0.233   3.790
35795W        W 4013  17.394  11.761  10.159
35796W        W 4014   3.557  26.404   9.692
35797W        W 4015  25.661   0.673   2.754
35798W        W 4016  37.785  22.929  13.761
35799W        W 4017  10.921  29.914   3.755
35800W        W 4018  25.668  25.890  13.364
35801W        W 4019  15.661  26.083  11.198
35802W        W 4020   6.148  33.443  14.352
35803W        W 4021  24.919  25.465   2.722
35804W        W 4022   8.117  24.467  11.582
35805W        W 4023  33.691   4.732  10.718
35806W        W 4024  12.112  31.244  13.517
35807W        W 4025  29.644  13.845   3.190
35808W        W 4026  25.295  17.793   2.827
35809W        W 4027  44.383  35.492   4.860
35810W        W 4028  25.040  35.494  14.229
35811W        W 4029  37.410  37.355  14.307
35812W        W 4030  31.775  26.977   3.577
35813W        W 4031  43.469  17.412   9.718
35814W        W 4032  43.343  23.975  10.843
35815W        W 4033  16.336  25.756  11.572
35816W        W 4034   1.400  39.570  11.565
35817W        W 4035  29.629  23.609   3.706
35818W        W 4036   3.433   2.080   5.092
35819W        W 4037  10.245   2.921   0.177
35820W        W 4038  32.016  34.652  14.671
35821W        W 4039  40.345  15.727  12.913
35822W        W 4040   3.451  40.969  10.629
35823W        W 4041   6.758  43.580   1.051
35824W        W 4042  13.239  13.821   3.341
35825W        W 4043  10.658  12.668   2.298
35826W        W 4044  39.693   2.757   1.839
35827W        W 4045  16.631  17.179  13.494
35828W        W 4046  16.171  32.150   4.527
35829W        W 4047  38.921   4.796  12.334
35830W        W 4048  22.052  44.739   3.174
35831W        W 4049  36.415  27.350  11.401
35832W        W 4050  32.658   6.979  14.551
35833W        W 4051   9.377   1.640  11.529
35834W        W 4052  30.541  13.604   4.538
35835W        W 4053  33.982  44.703  11.564
35836W        W 4054  21.086  22.382   1.078
35837W        W 4055  29.514   6.388   1.569
35838W        W 4056  14.136  37.379   3.640
35839W        W 4057  32.052  42.378  12.509
35840W        W 4058  23.048  32.896  14.310
35841W        W 4059   0.013  14.157   0.246
35842W        W 4060   2.289  14.529   0.508
35843W        W 4061  28.462  12.064  10.656
35844W        W 4062   2.676  22.138   4.812
35845W        W 4063   0.463  37.606   1.833
35846W        W 4064  23.691   7.170   2.828
35847W        W 4065  32.034  19.072  11.942
35848W        W 4066   0.734  33.919   0.423
35849W        W 4067  26.164  10.926  14.342
35850W        W 4068   4.518  12.751   0.360
35851W        W 4069  28.490   6.700   3.223
35852W        W 4070   7.736  38.466  10.950
35853W        W 4071  39.057   6.870  11.522
35854W        W 4072  33.065  34.294  12.965
35855W        W 4073  40.844  30.520  14.925
35856W        W 4074  13.807   3.776   2.797
35857W        W 4075  19.196  11.225  14.471
35858W        W 4076  26.826  33.686  14.451
35859W        W 4077  37.956  12.946  13.482
35860W        W 4078  27.423  19.398  14.453
35861W        W 4079  33.748   9.091  14.820
35862W        W 4080  24.251  39.924   3.158
35863W        W 4081   6.840  22.485   1.355
35864W        W 4082   2.624  17.529  13.002
35865W        W 4083  24.527   4.296  11.551
35866W        W 4084  15.673  26.431   4.045
35867W        W 4085   9.262  13.613   4.521
35868W        W 4086  27.569  15.915  11.578
35869W        W 4087   9.792  27.613   0.964
35870W        W 4088   8.400  37.116  11.487
35871W        W 4089  43.196   0.849   0.824
35872W        W 4090  12.869  32.000   3.644
35873W        W 4091  39.735  30.445  12.351
35874W        W 4092   0.742  18.562   2.366
35875W        W 4093  20.893   9.260   0.935
35876W        W 4094   7.204   7.873   2.644
35877W        W 4095  21.709  22.079   4.855
35878W        W 4096  24.128   5.456   2.323
35879W        W 4097  17.744   2.029  12.035
35880W        W 4098  36.362   0.394  11.567
35881W        W 4099  36.841  18.209   1.252
35882W        W 4100  40.832  44.270   4.176
35883W        W 4101  37.400  37.886  11.602
35884W        W 4102  12.821   4.326  10.711
35885W        W 4103   7.799  40.055  12.363
35886W        W 4104  14.344   1.013   0.030
35887W        W 4105  27.482  41.388   4.680
35888W        W 4106  20.083  20.592  14.737
35889W        W 4107   2.773   8.728   1.985
35890W        W 4108  22.697  24.093   4.118
35891W        W 4109  32.831  19.207  13.505
35892W        W 4110  23.017  17.088   1.282
35893W        W 4111   2.002  29.990   0.861
35894W        W 4112   4.942  37.430  13.813
35895W        W 4113  12.221  28.173  14.317
35896W        W 4114  12.870  42.005   0.882
35897W        W 4115   9.901  37.883  13.160
35898W        W 4116  11.878   7.913   4.083
35899W        W 4117  12.354  20.968  14.401
35900W        W 4118  26.799  12.989   0.226
35901W        W 4119  13.855  39.287   2.584
35902W        W 4120   7.055  15.349   4.477
35903W        W 4121  10.295  14.507   4.204
35904W        W 4122  14.200  42.041   0.381
35905W        W 4123  40.395  10.198   3.279
35906W        W 4124  28.472  27.986  10.986
35907W        W 4125  33.862  24.568   0.557
35908W        W 4126  34.997  12.003  14.521
35909W        W 4127  32.932  30.437   9.569
35910W        W 4128  43.755  44.940   0.048
35911W        W 4129  11.863  38.402  10.375
35912W        W 4130  24.332  23.286  11.992
35913W        W 4131  44.990  12.889  14.811
35914W        W 4132  40.624  33.694  11.301
35915W        W 4133   6.779  21.992   2.312
35916W        W 4134  19.112  16.107   1.470
35917W        W 4135  35.841   4.940   1.650
35918W        W 4136  27.179  41.415   2.261
35919W        W 4137  25.050  33.376  11.915
35920W        W 4138  29.934  10.753  13.160
35921W        W 4139  37.756  11.713   1.708
35922W        W 4140  32.977  23.516   1.690
35923W        W 4141  27.017  12.296  11.993
35924W        W 4142  33.052  40.656   2.629
35925W        W 4143   0.973  36.006   2.174
35926W        W 4144   6.905  32.136   4.643
35927W        W 4145  14.350  29.660  10.288
35928W        W 4146  34.527  11.112   4.519
35929W        W 4147  12.721  24.548  11.045
35930W        W 4148  17.035  15.706  14.334
35931W        W 4149   0.772  41.922   1.490
35932W        W 4150  29.230  22.235   9.788
35933W        W 4151  29.744   7.952   0.868
35934W        W 4152   8.594  39.408   4.860
35935W        W 4153   9.112   5.838   3.150
35936W        W 4154  41.731   2.579  14.039
35937W        W 4155  22.742  12.269   1.034
35938W        W 4156  26.747  37.324  10.717
35939W        W 4157  25.059  27.474   2.208
35940W        W 4158  31.635  26.579   4.590
35941W        W 4159  22.090  35.406   1.176
35942W        W 4160  21.066   3.714   3.681
35943W        W 4161  30.204  35.340  10.760
35944W        W 4162   4.394  39.399   2.245
35945W        W 4163  11.710  39.846   3.334
35946W        W 4164  37.994   5.292  14.422
35947W        W 4165  15.371  22.327   2.808
35948W        W 4166   5.431  11.597  14.562
35949W        W 4167  44.366  30.472  10.320
35950W        W 4168  28.859  22.698  11.114
35951W        W 4169  18.615  17.196   4.387
35952W        W 4170  42.758  18.274  13.292
35953W        W 4171  42.708  11.854   1.472
35954W        W 4172  12.855  14.599  12.026
35955W        W 4173  43.798   4.375   1.239
35956W        W 4174  39.483  37.608   3.639
35957W        W 4175  21.717  12.696   2.134
35958W        W 4176  18.735  37.655   2.742
35959W        W 4177  26.774  13.744  11.863
35960W        W 4178  22.132   7.389  10.667
35961W        W 4179  15.278  28.414   0.756
35962W        W 4180  12.200  44.889  14.383
35963W        W 4181  41.514  22.582  12.963
35964W        W 4182  31.331  12.052  12.441
35965W        W 4183   9.373  12.801   0.823
35966W        W 4184  27.830  21.898  12.965
35967W        W 4185  37.611  36.836   0.870
35968W        W 4186   7.953  43.288  13.376
35969W        W 4187  15.923  24.798  11.736
35970W        W 4188  43.982   6.060   0.041
35971W        W 4189  39.445   8.708   2.234
35972W        W 4190  12.649  13.178  11.838
35973W        W 4191  27.571  16.582  14.363
35974W        W 4192  43.791  18.695   4.490
35975W        W 4193  35.863  25.486   1.727
35976W        W 4194  14.320   1.934  13.459
35977W        W 4195  17.186  44.378   1.898
35978W        W 4196  19.688   3.200  12.576
35979W        W 4197  29.401   1.034  11.063
35980W        W 4198   2.813  12.305  14.494
35981W        W 4199  34.968  31.664   2.710
35982W        W 4200  33.881  31.514   3.654
35983W        W 4201  16.334  31.630   0.284
35984W        W 4202  39.766  44.032  13.427
35985W        W 4203  29.038   5.203  11.410
35986W        W 4204  20.228  11.952   4.987
35987W        W 4205  36.597  31.083   4.794
35988W        W 4206  30.444   0.858   1.075
35989W        W 4207  15.233   0.703  12.410
35990W        W 4208   2.207  10.402   2.827
35991W        W 4209  16.557   4.776  11.439
35992W        W 4210  42.217   9.668   0.408
35993W        W 4211  30.495  31.157   3.852
35994W        W 4212  26.160  33.187   4.218
35995W        W 4213  34.812   7.645  12.386
35996W        W 4214  18.380  37.620   2.328
35997W        W 4215  39.473  40.270   0.325
35998W        W 4216  25.111  21.811  14.864
35999W        W 4217  17.345  10.589  14.000
36000W        W 4218  14.090  37.296   2.134
36001W        W 4219   8.667   1.726   4.361
36002W        W 4220  11.718  25.534  13.134
36003W        W 4221   5.482   2.332   1.841
36004W        W 4222  32.811  38.404  12.949
36005W        W 4223  41.447  20.497  11.152
36006W        W 4224   1.822   5.379   4.557
36007W        W 4225   0.962  13.209   4.126
36008W        W 4226  23.769   0.073  13.028
36009W        W 4227  11.456   5.351  10.788
36010W        W 4228   1.509   8.404  10.502
36011W        W 4229  36.498   2.339  11.653
36012W        W 4230  42.088   5.758  13.861
36013W        W 4231  28.671   9.051   4.867
36014W        W 4232  17.127   6.944  14.887
36015W        W 4233   0.085  30.564   3.736
36016W        W 4234   6.420  12.639  12.901
36017W        W 4235  40.179  25.085  10.204
36018W        W 4236  25.016  30.478  13.291
36019W        W 4237  15.336  27.508   3.303
36020W        W 4238  30.542   3.738   3.892
36021W        W 4239   1.195  26.359  12.093
36022W        W 4240  35.519  13.067  12.906
36023W        W 4241   1.662  20.637  11.799
36024W        W 4242  39.814  32.312  12.981
36025W        W 4243  19.947  18.198  14.830
36026W        W 4244   7.898  18.587  11.837
36027W        W 4245  19.711  33.307  12.037
36028W        W 4246  34.065  40.072  12.951
36029W        W 4247   0.290  14.052  13.472
36030W        W 4248  27.027  35.335  11.354
36031W        W 4249  29.652  24.760  12.580
36032W        W 4250   0.904   5.732   3.275
36033W        W 4251  31.093  44.855   3.551
36034W        W 4252  18.548  24.230   3.795
36035W        W 4253  18.043  21.201   1.985
36036W        W 4254  17.572  41.966   0.834
36037W        W 4255  21.086   2.706  12.953
36038W        W 4256  24.073   4.148   3.644
36039W        W 4257  14.827  10.563  14.684
36040W        W 4258  34.361  42.881  11.087
36041W        W 4259   6.626  21.017   2.248
36042W        W 4260  23.084  23.075   1.241
36043W        W 4261  15.534   2.304   2.296
36044W        W 4262  36.807  23.058  13.398
36045W        W 4263  32.555  14.576  12.677
36046W        W 4264  42.206  28.732   0.313
36047W        W 4265  31.132  25.151  13.444
36048W        W 4266  36.954  44.783  14.324
36049W        W 4267   4.313  13.112   4.616
36050W        W 4268  12.017  35.142  13.952
36051W        W 4269   2.960  21.381  11.698
36052W        W 4270   6.286  12.568   4.146
36053W        W 4271   0.069  28.180   2.183
36054W        W 4272  39.889  32.244   2.205
36055W        W 4273  15.686   5.408   4.155
36056W        W 4274   6.331  41.163  11.670
36057W        W 4275  27.560   5.466  11.065
36058W        W 4276   6.535  10.299   1.995
36059W        W 4277  27.525  19.487   1.669
36060W        W 4278  13.495   9.252  12.644
36061W        W 4279   5.535  26.689   1.928
36062W        W 4280  23.790   0.514   2.173
36063W        W 4281  39.414  43.812   1.181
36064W        W 4282  33.427  42.893   1.654
36065W        W 4283  11.386   7.864  12.011
36066W        W 4284   6.023   5.795  12.092
36067W        W 4285   4.272   3.462   4.588
36068W        W 4286  33.871  31.866  10.888
36069W        W 4287  19.734  31.349   2.220
36070W        W 4288  16.158  34.429   2.391
36071W        W 4289  43.960  27.648   1.467
36072W        W 4290  14.839  22.935   0.380
36073W        W 4291   6.467  14.821   0.904
36074W        W 4292  13.156   6.639   0.741
36075W        W 4293  29.684  11.854  11.904
36076W        W 4294   8.948  41.050   0.833
36077W        W 4295  19.503  11.773   2.311
36078W        W 4296   6.238  17.120   0.792
36079W        W 4297  11.881  43.642  13.447
36080W        W 4298  17.265  15.682   4.709
36081W        W 4299  20.348  37.550   4.394
36082W        W 4300   7.301  36.363  11.124
36083W        W 4301  22.690  27.352   3.662
36084W        W 4302  41.397  33.083   3.429
36085W        W 4303  13.738  24.185  10.905
36086W        W 4304  37.582  42.900   4.717
36087W        W 4305  38.431  33.923   4.650
36088W        W 4306  25.670  37.353   0.165
36089W        W 4307  43.899  22.968   3.230
36090W        W 4308  16.797  43.919   3.538
36091W        W 4309  19.613  31.688  12.405
36092W        W 4310  21.311   6.426  14.437
36093W        W 4311  21.761  13.171   3.260
36094W        W 4312  28.068  23.475  14.358
36095W        W 4313   1.440  17.959   3.870
36096W        W 4314  17.651  12.744   1.699
36097W        W 4315  29.294  31.900   2.154
36098W        W 4316  37.965  16.894  11.596
36099W        W 4317  25.624  10.967   4.062
36100W        W 4318  15.636  38.464   4.086
36101W        W 4319   5.162  31.230   4.746
36102W        W 4320  19.675  17.214   5.322
36103W        W 4321  41.560  34.054   0.346
36104W        W 4322  44.298  11.502   0.772
36105W        W 4323  43.300  12.246  13.448
36106W        W 4324  25.114  41.853  13.337
36107W        W 4325  20.188   0.093   1.990
36108W        W 4326  17.954  26.665  11.695
36109W        W 4327  15.272  16.846  12.318
36110W        W 4328  44.510  41.987   4.289
36111W        W 4329  41.676  38.297   0.384
36112W        W 4330  26.468   3.500  11.605
36113W        W 4331  17.447  38.613  13.045
36114W        W 4332  15.705  35.426   1.654
36115W        W 4333  37.487   9.184   0.845
36116W        W 4334  35.934  34.642  10.760
36117W        W 4335  29.354  36.710   2.273
36118W        W 4336  22.933  29.051   3.250
36119W        W 4337   7.836   3.790   0.345
36120W        W 4338  33.975   5.515  13.002
36121W        W 4339  12.880  22.534  10.675
36122W        W 4340  33.048   9.478  14.569
36123W        W 4341  43.498  11.671  10.971
36124W        W 4342  21.648  25.112  11.081
36125W        W 4343  31.858  24.516   2.205
36126W        W 4344  27.643  16.795  12.995
36127W        W 4345  11.285  23.177  13.848
36128W        W 4346  30.946   2.052   0.744
36129W        W 4347  30.627  19.743  13.896
36130W        W 4348  35.490   2.943   0.941
36131W        W 4349  32.519  31.081  11.600
36132W        W 4350  29.620  42.286  11.219
36133W        W 4351  41.941  36.924  10.776
36134W        W 4352  11.588  10.736   2.012
36135W        W 4353   1.764   4.899   0.459
36136W        W 4354  21.116   8.198   1.891
36137W        W 4355  17.211   6.871  12.897
36138W        W 4356  16.573  42.897   1.587
36139W        W 4357  40.674  32.407  12.547
36140W        W 4358  19.863  21.468   1.883
36141W        W 4359  38.566   6.795  11.357
36142W        W 4360  35.929  42.860  10.975
36143W        W 4361  35.518   8.359   0.207
36144W        W 4362  21.118   1.712  12.886
36145W        W 4363  25.452   0.371  14.919
36146W        W 4364   4.467  44.082  11.514
36147W        W 4365   4.169  36.540  10.368
36148W        W 4366  11.830  39.115  13.023
36149W        W 4367  42.030   6.794  14.751
36150W        W 4368   2.530   7.485  12.475
36151W        W 4369  25.108  35.416   4.139
36152W        W 4370  18.752  33.946   1.133
36153W        W 4371  18.690  41.011  14.676
36154W        W 4372   7.769   5.292  12.098
36155W        W 4373  18.509  42.574   3.393
36156W        W 4374  15.452   0.802  13.142
36157W        W 4375   7.641   4.254   1.969
36158W        W 4376  34.658  18.752  13.504
36159W        W 4377  34.411  22.301  10.689
36160W        W 4378  41.746  13.623  12.541
36161W        W 4379  18.561   7.275   2.207
36162W        W 4380  13.411   8.210  14.430
36163W        W 4381   9.940  24.013   0.021
36164W        W 4382  41.580   2.989   3.249
36165W        W 4383  44.068  28.714   1.007
36166W        W 4384  40.290   7.762   2.359
36167W        W 4385  13.166  35.568   3.385
36168W        W 4386  34.420  43.446   2.341
36169W        W 4387  33.636  38.854  11.155
36170W        W 4388  27.827  43.341   4.747
36171W        W 4389   5.879   9.385   4.774
36172W        W 4390   8.435  43.463  13.456
36173W        W 4391  19.607  13.912   3.584
36174W        W 4392  42.485  43.779   4.276
36175W        W 4393  36.747  31.590   3.592
36176W        W 4394  39.803   4.137  13.798
36177W        W 4395  20.642  28.947   0.239
36178W        W 4396  26.170   8.332  12.402
36179W        W 4397  12.846  32.127   0.330
36180W        W 4398   3.285  14.324  12.466
36181W        W 4399  30.445  15.693   4.589
36182W        W 4400  27.850  42.284  11.907
36183W        W 4401  41.246  35.031   1.064
36184W        W 4402  33.011  24.240   1.858
36185W        W 4403  43.644  11.796   0.290
36186W        W 4404  36.337  28.049  11.041
36187W        W 4405   9.793  29.435   2.822
36188W        W 4406  23.530  25.363  14.469
36189W        W 4407  41.886   8.898  14.356
36190W        W 4408  11.816  33.048   1.765
36191W        W 4409  26.222  17.214  12.027
36192W        W 4410  30.200   3.417   3.620
36193W        W 4411   6.141   9.122  13.302
36194W        W 4412  18.967   4.325   0.684
36195W        W 4413  40.831  31.422   2.808
36196W        W 4414  33.469  12.892  14.601
36197W        W 4415  17.274  36.996  11.217
36198W        W 4416  36.103  30.202  10.470
36199W        W 4417   5.615  30.968  13.915
36200W        W 4418  12.945  12.849  11.137
36201W        W 4419  21.595  25.988  11.468
36202W        W 4420  11.211  38.600  11.533
36203W        W 4421   0.703  44.487   0.838
36204W        W 4422   7.181   1.420   2.616
36205W        W 4423  37.951   0.898  14.435
36206W        W 4424  31.065   0.656  11.058
36207W        W 4425  33.510  14.109  12.521
36208W        W 4426  37.475  40.067   3.381
36209W        W 4427  28.671  43.836  11.510
36210W        W 4428   2.596  35.740  11.254
36211W        W 4429  33.540   2.661   3.185
36212W        W 4430  31.886  33.677   4.628
36213W        W 4431  13.325  23.287  14.174
36214W        W 4432  28.222  20.582   3.221
36215W        W 4433  36.969  10.934  11.614
36216W        W 4434  34.998   8.562   2.889
36217W        W 4435  30.443  41.278  13.741
36218W        W 4436  34.027   9.104   0.408
36219W        W 4437  44.804  33.242   4.694
36220W        W 4438  37.395  31.759  12.886
36221W        W 4439  35.895  41.955  11.344
36222W        W 4440  11.894  22.275   3.162
36223W        W 4441   6.165  44.368   4.573
36224W        W 4442   9.285  10.269   3.875
36225W        W 4443   6.349  41.193   3.120
36226W        W 4444  32.099   5.738  14.326
36227W        W 4445   7.912  40.842  10.163
36228W        W 4446  12.170  38.014  11.922
36229W        W 4447  38.468  41.670   2.329
36230W        W 4448  38.022  24.299   0.791
36231W        W 4449  40.553   6.970  10.769
36232W        W 4450  37.990   5.450  11.547
36233W        W 4451  27.853  36.034  11.401
36234W        W 4452  15.607  14.257  13.358
36235W        W 4453  13.555  11.065  13.355
36236W        W 4454  15.165   8.545  11.071
36237W        W 4455   0.453  13.131  14.659
36238W        W 4456  20.132  43.309   2.328
36239W        W 4457  20.668  39.250  11.169
36240W        W 4458  35.622  26.992   2.795
36241W        W 4459   0.902   1.929  12.995
36242W        W 4460  22.333  43.558   3.753
36243W        W 4461  44.768  29.165   1.235
36244W        W 4462  43.482  27.927   0.289
36245W        W 4463  29.026  17.268  10.286
36246W        W 4464  29.687  44.090  10.655
36247W        W 4465  32.385  41.985  11.591
36248W        W 4466   8.643   4.728  11.148
36249W        W 4467   1.832  37.357  12.629
36250W        W 4468   4.897  15.285  14.407
36251W        W 4469  14.285   4.639  10.365
36252W        W 4470  20.515  38.860  10.189
36253W        W 4471   5.292   2.765   0.260
36254W        W 4472  26.545  23.256   3.675
36255W        W 4473  16.334  29.882  12.914
36256W        W 4474   6.989  21.348   5.032
36257W        W 4475  10.140  35.442   4.585
36258W        W 4476  25.762  30.714   0.999
36259W        W 4477  38.680  20.816  10.504
36260W        W 4478  18.731  11.153   2.741
36261W        W 4479  27.378   4.524   4.057
36262W        W 4480  16.195   9.551  10.971
36263W        W 4481  39.151  36.914  14.359
36264W        W 4482   0.285   6.922   2.247
36265W        W 4483  39.462   5.019  13.514
36266W        W 4484  17.811  39.488   1.052
36267W        W 4485  26.072  18.895   1.423
36268W        W 4486  29.607   3.011  12.004
36269W        W 4487   5.816  26.040  14.774
36270W        W 4488  10.178  34.974   4.854
36271W        W 4489  14.176  22.312  14.555
36272W        W 4490   0.022  42.264   1.213
36273W        W 4491  29.576  20.791  13.855
36274W        W 4492   9.236   9.732   1.627
36275W        W 4493  31.046   7.081  12.972
36276W        W 4494  12.814   0.743   2.245
36277W        W 4495  44.347  18.154   4.107
36278W        W 4496  41.294  34.378  14.752
36279W        W 4497  43.100  29.408  13.990
36280W        W 4498  19.035   5.492   1.653
36281W        W 4499  44.018  33.361  13.558
36282W        W 4500   2.715  44.494   2.640
36283W        W 4501  29.781  33.961  10.719
36284W        W 4502  44.852  17.018   3.700
36285W        W 4503  38.003  10.966   0.108
36286W        W 4504  42.211  23.666   1.712
36287W        W 4505   5.185  28.417   3.234
36288W        W 4506   3.994  28.619   4.217
36289W        W 4507  38.992  20.611  11.120
36290W        W 4508  37.513  10.920  13.433
36291W        W 4509   7.175   9.479   3.160
36292W        W 4510   6.348   3.315  13.010
36293W        W 4511  38.462  16.182   0.058
36294W        W 4512  40.783  13.308   2.367
36295W        W 4513  35.935  11.641  11.151
36296W        W 4514   7.107  35.432   0.663
36297W        W 4515   9.820  39.930   1.259
36298W        W 4516  23.325  11.707   1.693
36299W        W 4517  12.289  17.640  14.349
36300W        W 4518  41.269  31.168   4.555
36301W        W 4519   0.989  36.389  14.998
36302W        W 4520   9.753  33.048   1.766
36303W        W 4521  22.781   5.767  10.695
36304W        W 4522  21.726  19.588   5.022
36305W        W 4523  32.411   1.871   0.943
36306W        W 4524  23.632   7.806   3.475
36307W        W 4525  39.129   4.264   1.277
36308W        W 4526  38.734  44.837  14.947
36309W        W 4527  31.575  40.466  13.746
36310W        W 4528  19.550  43.603   2.687
36311W        W 4529  34.864  21.033   0.137
36312W        W 4530  12.746   8.925   4.626
36313W        W 4531   6.625  25.237   3.372
36314W        W 4532  17.124   4.879  11.993
36315W        W 4533  43.093  18.222   3.706
36316W        W 4534   2.467  17.262  11.177
36317W        W 4535  41.112  16.632  14.918
36318W        W 4536  29.904   8.336  12.060
36319W        W 4537  26.473  17.895   1.311
36320W        W 4538   7.593  29.607  14.562
36321W        W 4539  19.045   7.099   0.015
36322W        W 4540  24.198   4.858  10.325
36323W        W 4541   2.500  25.953  11.171
36324W        W 4542  44.831  42.966  10.607
36325W        W 4543  30.510   2.931  12.113
36326W        W 4544  13.152  21.723  13.380
36327W        W 4545  24.073  34.913  14.932
36328W        W 4546  34.944  27.865   3.529
36329W        W 4547  40.983   4.229   1.323
36330W        W 4548  26.722  24.466  14.758
36331W        W 4549  23.747  27.270   3.754
36332W        W 4550  22.526  24.592   4.274
36333W        W 4551  40.512  12.838  13.882
36334W        W 4552  17.979  40.864  12.805
36335W        W 4553   4.375  20.541  14.467
36336W        W 4554  43.270  18.228  10.671
36337W        W 4555  28.280  39.417  14.754
36338W        W 4556  42.979   6.685   3.182
36339W        W 4557   3.416  42.972   2.170
36340W        W 4558  39.845  27.234  14.898
36341W        W 4559  34.588  21.841  13.987
36342W        W 4560  12.196  21.604   4.558
36343W        W 4561  41.507  42.756   2.711
36344W        W 4562  26.571   0.286  11.889
36345W        W 4563   5.291  17.925   0.296
36346W        W 4564  21.252  13.770  13.009
36347W        W 4565   6.215  14.255  11.252
36348W        W 4566  10.863  24.865   4.330
36349W        W 4567   7.342  12.825   1.388
36350W        W 4568  17.510  28.236   2.746
36351W        W 4569  14.219  31.479  13.376
36352W        W 4570  37.527  17.220   1.688
36353W        W 4571  40.131   4.795   2.595
36354W        W 4572  43.007  40.449   0.486
36355W        W 4573   2.450  13.382   2.614
36356W        W 4574  13.159  29.182  13.512
36357W        W 4575   8.263  11.978   4.181
36358W        W 4576  36.434  19.140  11.998
36359W        W 4577   9.896   3.684  11.008
36360W        W 4578  16.310  19.759   1.672
36361W        W 4579  39.927  35.579   1.668
36362W        W 4580  30.868   9.898   2.827
36363W        W 4581   1.127  18.577   0.479
36364W        W 4582  38.393   2.639   2.314
36365W        W 4583   3.689  28.985   1.738
36366W        W 4584  27.937   9.136   2.266
36367W        W 4585   0.419  10.266   1.300
36368W        W 4586   6.273   8.033   1.778
36369W        W 4587   0.230  30.502   1.803
36370W        W 4588  43.028  39.546   0.918
36371W        W 4589  41.628  42.721  11.587
36372W        W 4590  35.392  34.603  10.927
36373W        W 4591  38.894   1.697  10.961
36374W        W 4592  38.954  23.284   1.706
36375W        W 4593  13.813  32.121   0.320
36376W        W 4594  29.191  39.889  12.067
36377W        W 4595   6.407  30.661   4.213
36378W        W 4596  37.966  32.617  14.420
36379W        W 4597  21.331  18.414   3.576
36380W        W 4598  27.521  28.480  14.330
36381W        W 4599  21.014  10.738  13.563
36382W        W 4600  23.044  12.699  12.003
36383W        W 4601   4.970  39.566   3.643
36384W        W 4602  17.336  42.277  11.894
36385W        W 4603  34.906  30.350  11.640
36386W        W 4604  26.984  24.009  14.909
36387W        W 4605  35.564   5.758  12.320
36388W        W 4606   5.477   9.305   3.711
36389W        W 4607  17.804  39.972  11.128
36390W        W 4608  32.016  27.977  13.529
36391W        W 4609  16.650  16.834   2.225
36392W        W 4610  40.617   0.620   1.783
36393W        W 4611  11.651  37.998  10.678
36394W        W 4612  40.749   7.707   5.110
36395W        W 4613  37.812  37.075  11.084
36396W        W 4614   7.440  20.365  14.835
36397W        W 4615  31.109  15.171   0.777
36398W        W 4616   1.738  43.260  14.275
36399W        W 4617   0.542  24.080   2.319
36400W        W 4618  20.757  35.841   3.288
36401W        W 4619  40.945   8.220   2.691
36402W        W 4620  16.769  26.843   2.239
36403W        W 4621   9.619  43.830  11.520
36404W        W 4622  36.339  41.545  13.970
36405W        W 4623  41.768  32.923   0.954
36406W        W 4624  43.738   6.215  12.014
36407W        W 4625  14.050   7.016   0.775
36408W        W 4626   0.266  38.471   0.450
36409W        W 4627  17.690  21.311  13.109
36410W        W 4628  19.648  36.535   5.094
36411W        W 4629  32.795  34.990  14.682
36412W        W 4630  17.842   0.505  13.365
36413W        W 4631  38.967  42.564   0.936
36414W        W 4632  35.075  37.038   3.878
36415W        W 4633  36.201   8.756  12.963
36416W        W 4634   0.519  31.171   3.351
36417W        W 4635   5.574  22.585   0.984
36418W        W 4636   4.385   1.507   4.790
36419W        W 4637   1.815  21.032   2.319
36420W        W 4638   4.429  19.250  10.684
36421W        W 4639  18.528  42.323  14.207
36422W        W 4640  23.120  23.478  14.909
36423W        W 4641  37.921  41.250  13.550
36424W        W 4642  19.457   4.924  11.834
36425W        W 4643  22.706   8.484  11.178
36426W        W 4644   4.150   8.766  11.702
36427W        W 4645  37.832  37.417   1.402
36428W        W 4646   6.342   3.132   0.952
36429W        W 4647  44.291  37.867  10.523
36430W        W 4648  22.206  27.138  12.864
36431W        W 4649  25.248   8.372   4.525
36432W        W 4650   8.188  10.208   4.691
36433W        W 4651   7.991  31.933  12.406
36434W        W 4652  10.909  11.360   0.626
36435W        W 4653  11.481  42.870  11.971
36436W        W 4654  11.194   9.162   0.898
36437W        W 4655  32.620  23.860   1.844
36438W        W 4656  10.127  32.424  14.503
36439W        W 4657  28.073  34.338  11.922
36440W        W 4658  18.579   8.621  10.664
36441W        W 4659  44.630  33.988  10.863
36442W        W 4660  19.292  17.546   4.024
36443W        W 4661  43.346  10.906   0.674
36444W        W 4662  16.722  22.560  12.306
36445W        W 4663   4.959  37.882   4.210
36446W        W 4664   4.483  44.854  10.768
36447W        W 4665  37.827   4.781  12.281
36448W        W 4666  22.740   8.763  13.802
36449W        W 4667  28.504  26.802   1.789
36450W        W 4668  16.684   4.254   3.606
36451W        W 4669  39.740  34.530  11.036
36452W        W 4670  23.640  42.775   1.339
36453W        W 4671   2.338  32.553   3.234
36454W        W 4672  10.820  32.362  12.590
36455W        W 4673  31.195   0.060  14.975
36456W        W 4674  14.677  16.553  14.504
36457W        W 4675   8.796   6.949   2.769
36458W        W 4676   7.490  10.208  12.549
36459W        W 4677  36.096  34.533   0.052
36460W        W 4678  13.811   5.769  14.961
36461W        W 4679  38.465  21.558   0.571
36462W        W 4680  27.035  24.842   3.071
36463W        W 4681  16.073  44.992   3.698
36464W        W 4682   4.839  16.690  10.948
36465W        W 4683  27.693   0.579   4.593
36466W        W 4684  14.577  15.260   4.683
36467W        W 4685  19.079  14.488  14.983
36468W        W 4686   8.974  44.460   3.277
36469W        W 4687  41.452  12.045   3.085
36470W        W 4688  17.259  37.439   1.786
36471W        W 4689  14.826   9.945  13.313
36472W        W 4690  41.227  15.663  11.074
36473W        W 4691  39.317  42.408  13.262
36474W        W 4692  17.775  13.192   2.907
36475W        W 4693  25.500  43.778  12.262
36476W        W 4694   9.310  44.317  10.250
36477W        W 4695  29.053  22.732   3.394
36478W        W 4696  36.848  35.112  11.911
36479W        W 4697  44.445  20.583   2.833
36480W        W 4698  35.586   7.900  13.029
36481W        W 4699  39.788   0.051  11.633
36482W        W 4700   1.703  26.454  11.030
36483W        W 4701  37.387  26.541   3.266
36484W        W 4702  27.394  18.645  13.026
36485W        W 4703   4.890  21.978   2.815
36486W        W 4704  31.647  39.366   1.799
36487W        W 4705  15.365  38.940  13.497
36488W        W 4706  19.208  16.607  12.922
36489W        W 4707  25.170   8.209   3.238
36490W        W 4708  10.367  34.460  11.739
36491W        W 4709   3.431  22.416  10.668
36492W        W 4710  20.497  23.465   3.942
36493W        W 4711  34.473  15.652   3.594
36494W        W 4712  22.553  31.350   3.167
36495W        W 4713  12.313  41.568   0.876
36496W        W 4714  26.188  28.658  11.992
36497W        W 4715  19.951  43.259   3.309
36498W        W 4716  37.440   5.921  14.341
36499W        W 4717  18.949  14.737  13.371
36500W        W 4718  27.728  14.621  12.047
36501W        W 4719  11.388  11.026  14.033
36502W        W 4720  19.157  41.908  11.029
36503W        W 4721  20.802  10.080   1.877
36504W        W 4722   6.166   5.691   0.829
36505W        W 4723  16.786  29.757   2.379
36506W        W 4724   0.964  35.002   4.874
36507W        W 4725  30.550   5.372  13.620
36508W        W 4726  44.891   2.255   3.360
36509W        W 4727  42.731  25.485   5.154
36510W        W 4728  39.469   1.936   0.490
36511W        W 4729  27.875  28.872  14.361
36512W        W 4730  33.495  34.317  10.718
36513W        W 4731   5.357  22.299  11.992
36514W        W 4732  31.723  38.421   1.911
36515W        W 4733  42.464  17.338  11.402
36516W        W 4734   6.707  14.634   3.516
36517W        W 4735  40.987  25.078   2.944
36518W        W 4736  11.638   5.897  14.808
36519W        W 4737  13.198   3.337  12.443
36520W        W 4738  11.727  24.967   3.077
36521W        W 4739  10.489  40.956   2.766
36522W        W 4740  21.061  11.589   1.821
36523W        W 4741  16.003  15.034  12.995
36524W        W 4742  19.448  17.216   4.827
36525W        W 4743  41.928  22.986  10.437
36526W        W 4744  15.423  15.680   4.571
36527W        W 4745  44.746   9.300   3.284
36528W        W 4746  30.732  13.225   3.210
36529W        W 4747   0.338  27.764   2.382
36530W        W 4748  29.499  36.497   0.060
36531W        W 4749  44.378  15.293  13.971
36532W        W 4750  43.201  11.095  12.585
36533W        W 4751  40.961  21.560  13.476
36534W        W 4752  15.269  30.498   2.941
36535W        W 4753   0.388  21.013  11.827
36536W        W 4754  17.661  33.054  10.524
36537W        W 4755  42.243  44.409  12.411
36538W        W 4756  29.539  39.518  12.531
36539W        W 4757  42.821  15.524   4.170
36540W        W 4758  40.809   9.670  11.751
36541W        W 4759  22.102  26.626   3.820
36542W        W 4760  23.993   8.243   3.862
36543W        W 4761  36.419  23.263  10.663
36544W        W 4762  26.069  43.383  11.104
36545W        W 4763  26.467  31.028   1.619
36546W        W 4764  42.752  37.996  12.550
36547W        W 4765  35.119  22.343   3.036
36548W        W 4766   4.501   7.926  14.351
36549W        W 4767   5.532  34.886   2.323
36550W        W 4768  33.003   9.073   3.045
36551W        W 4769  39.598  26.645   2.799
36552W        W 4770  39.608  10.208  13.006
36553W        W 4771  31.668  39.481  14.558
36554W        W 4772  29.668   0.330  12.928
36555W        W 4773   7.781  15.337  11.720
36556W        W 4774  41.333   1.017  11.590
36557W        W 4775  28.963  16.887  14.403
36558W        W 4776  30.194  39.521   1.919
36559W        W 4777   8.394  44.784   1.991
36560W        W 4778  16.405   0.408  11.067
36561W        W 4779  44.839  16.347  10.692
36562W        W 4780  21.517  12.541  13.130
36563W        W 4781  27.078  34.294  11.166
36564W        W 4782  14.281  26.720   0.998
36565W        W 4783  26.418   5.390   0.312
36566W        W 4784   8.770  34.061  12.846
36567W        W 4785  29.713  10.372  12.830
36568W        W 4786   8.956  13.295   3.319
36569W        W 4787  44.837   7.744  14.152
36570W        W 4788  22.685  22.177  11.561
36571W        W 4789  29.897  13.722  12.945
36572W        W 4790  11.584  12.154  12.468
36573W        W 4791  35.815  10.792   4.803
36574W        W 4792  42.187  12.928  14.350
36575W        W 4793  11.899  37.255  14.498
36576W        W 4794  16.981   3.325  10.637
36577W        W 4795   3.411   3.466  13.959
36578W        W 4796   3.425  16.181   3.658
36579W        W 4797   5.039   2.008  14.433
36580W        W 4798   7.299  14.054   4.110
36581W        W 4799  41.867   8.237   3.590
36582W        W 4800   4.632  21.181   3.119
36583W        W 4801   2.494  44.436   4.255
36584W        W 4802  24.709  13.852  11.993
36585W        W 4803  12.926   9.443   0.912
36586W        W 4804   2.270  23.131  12.602
36587W        W 4805  18.789  20.588   0.854
36588W        W 4806  15.843  16.841  10.594
36589W        W 4807  21.586  38.122  13.409
36590W        W 4808  14.299  27.739  10.614
36591W        W 4809  29.598   3.406  11.099
36592W        W 4810  35.142  42.086   4.069
36593W        W 4811  36.902   6.730  10.902
36594W        W 4812   7.889  42.425  14.296
36595W        W 4813   5.842  33.374  10.763
36596W        W 4814   7.706  37.858   2.849
36597W        W 4815  34.876  11.116   3.663
36598W        W 4816  35.395   2.727  11.686
36599W        W 4817  32.886   0.897  14.686
36600W        W 4818  14.333  17.672  12.054
36601W        W 4819  29.697  37.816  13.936
36602W        W 4820  14.421  12.791   1.224
36603W        W 4821  34.015  23.021   4.565
36604W        W 4822  44.284  35.456   1.142
36605W        W 4823  44.209   1.755  14.518
36606W        W 4824  13.683   3.186  13.887
36607W        W 4825  31.636   9.674  12.481
36608W        W 4826  43.556   3.463  10.896
36609W        W 4827  18.366  14.182  14.081
36610W        W 4828  31.392   8.096  12.180
36611W        W 4829  29.924  41.264   0.746
36612W        W 4830  32.383   8.393   4.004
36613W        W 4831  15.183  27.531  10.909
36614W        W 4832  23.087  11.008  14.362
36615W        W 4833  34.913   9.459   3.110
36616W        W 4834   2.616   6.110   2.765
36617W        W 4835  43.328  42.542   4.784
36618W        W 4836   9.389   5.843   4.031
36619W        W 4837   2.862  25.435   4.208
36620W        W 4838  39.022  26.013   1.929
36621W        W 4839  27.798  31.730  10.137
36622W        W 4840  22.324  27.659   2.925
36623W        W 4841   7.593   8.528   3.167
36624W        W 4842  31.054  19.632  12.955
36625W        W 4843  34.997  26.342   1.696
36626W        W 4844  15.534  24.761  13.067
36627W        W 4845  23.949  43.046  12.088
36628W        W 4846  38.154  37.893   0.366
36629W        W 4847   4.011   1.876   5.040
36630W        W 4848  17.171  28.216  13.237
36631W        W 4849  20.190   5.254   1.862
36632W        W 4850  36.841  30.430   1.632
36633W        W 4851  34.374  15.793  11.701
36634W        W 4852  18.265  21.214   0.989
36635W        W 4853  12.545  40.392  12.052
36636W        W 4854  14.361  16.399  14.101
36637W        W 4855  27.517   5.725   2.323
36638W        W 4856  19.078  40.918  14.334
36639W        W 4857  21.696  23.943   2.199
36640W        W 4858  43.522  14.136   1.103
36641W        W 4859  38.389  24.633  12.653
36642W        W 4860  33.101  10.116   4.568
36643W        W 4861  35.259  33.184  14.417
36644W        W 4862  33.865  34.048  13.881
36645W        W 4863  39.208  28.045  13.417
36646W        W 4864  43.743  22.522   2.676
36647W        W 4865   6.380  27.913  10.584
36648W        W 4866  36.049  19.026   5.101
36649W        W 4867  24.080  29.093   4.604
36650W        W 4868   4.827  23.723  10.235
36651W        W 4869  20.203  16.343   2.236
36652W        W 4870   6.761  40.945   3.627
36653W        W 4871  38.851  31.047   1.973
36654W        W 4872   8.384   8.486  14.239
36655W        W 4873  28.020  33.631  10.797
36656W        W 4874  26.781  43.303   3.680
36657W        W 4875  38.061   0.927   1.678
36658W        W 4876  21.303  29.646   4.791
36659W        W 4877  26.980  28.124  14.946
36660W        W 4878   5.481  13.555   1.476
36661W        W 4879  17.691  36.025  14.579
36662W        W 4880   1.259   1.586  10.453
36663W        W 4881  26.703  20.100   4.226
36664W        W 4882  21.796   6.735   2.758
36665W        W 4883  29.509   7.444  14.509
36666W        W 4884   9.326  40.867   3.657
36667W        W 4885  40.738  10.870  12.184
36668W        W 4886  30.495  15.729  12.530
36669W        W 4887  13.281   5.005  10.577
36670W        W 4888  36.466  42.968   2.794
36671W        W 4889  35.089  24.060  14.024
36672W        W 4890  27.955  26.884   1.818
36673W        W 4891   5.891   4.945   0.038
36674W        W 4892  13.439  27.575  11.261
36675W        W 4893  36.455   8.780  13.414
36676W        W 4894  39.081  44.536  11.584
36677W        W 4895  36.975  23.478   0.491
36678W        W 4896  33.140  36.020   4.508
36679W        W 4897  10.642  20.542   4.387
36680W        W 4898   6.770  17.932  11.967
36681W        W 4899   2.762  40.407  12.316
36682W        W 4900  14.864  22.710   4.585
36683W        W 4901  43.710  27.898  13.695
36684W        W 4902  28.467  11.477  11.502
36685W        W 4903  36.072  40.452  10.893
36686W        W 4904  10.829  29.572   0.046
36687W        W 4905  28.523   3.796   4.265
36688W        W 4906  23.902  37.378   3.809
36689W        W 4907   6.210  36.547   0.434
36690W        W 4908  18.109  11.391  12.931
36691W        W 4909  39.779  22.689   4.192
36692W        W 4910  20.819  25.708  14.744
36693W        W 4911   8.151  31.544   4.826
36694W        W 4912  34.073  13.526  11.908
36695W        W 4913  29.129  21.553  12.928
36696W        W 4914   4.190  17.039  11.207
36697W        W 4915  23.164  22.425   1.696
36698W        W 4916   1.786  39.086  14.264
36699W        W 4917  18.123  12.831   2.727
36700W        W 4918   4.953  27.703   0.789
36701W        W 4919  26.839  10.197  11.545
36702W        W 4920  17.341  37.225  10.351
36703W        W 4921  17.321   6.807   0.336
36704W        W 4922  19.242  31.370   0.706
36705W        W 4923  42.047  20.872   2.263
36706W        W 4924  40.615  19.626  14.600
36707W        W 4925   2.010  25.661  11.619
36708W        W 4926  41.809  41.646  14.460
36709W        W 4927  14.503   0.464  13.582
36710W        W 4928  23.307  40.501  14.785
36711W        W 4929  44.458  25.613  10.759
36712W        W 4930  44.094   1.687   2.990
36713W        W 4931  15.754   6.188  12.420
36714W        W 4932  37.311  21.239  13.041
36715W        W 4933   2.520  40.521  10.739
36716W        W 4934  32.200  27.887  12.459
36717W        W 4935  26.733   6.934   0.490
36718W        W 4936  40.566  24.939   0.392
36719W        W 4937  43.934  42.754   0.648
36720W        W 4938  30.219  13.293  13.615
36721W        W 4939  34.659  28.079   3.907
36722W        W 4940  37.927   7.136   4.136
36723W        W 4941   4.400   3.960   3.345
36724W        W 4942  41.855  33.561   3.555
36725W        W 4943  33.497   2.129   0.361
36726W        W 4944  28.145  39.512  12.469
36727W        W 4945  21.093  28.162   2.197
36728W        W 4946  40.875  34.174  11.916
36729W        W 4947  25.211   8.802   3.750
36730W        W 4948   4.434  17.342   0.423
36731W        W 4949  19.590  16.774   2.773
36732W        W 4950  36.502  38.972   2.418
36733W        W 4951  38.821  34.479   3.188
36734W        W 4952  15.213  19.995  12.063
36735W        W 4953   3.777  17.478  14.221
36736W        W 4954  22.541  29.811   0.754
36737W        W 4955  31.173  30.975  13.936
36738W        W 4956  21.770  28.631   3.251
36739W        W 4957  23.532  14.291   1.712
36740W        W 4958  11.911  10.793  13.128
36741W        W 4959  34.091  35.406  14.096
36742W        W 4960  36.844  21.238   0.324
36743W        W 4961  25.131   2.623   1.304
36744W        W 4962  21.588   3.959  12.122
36745W        W 4963  26.969  32.375  13.439
36746W        W 4964  14.389  37.658  11.346
36747W        W 4965  27.020  17.747   0.711
36748W        W 4966  44.369  30.168  12.467
36749W        W 4967  25.942  26.987  13.926
36750W        W 4968  13.263  42.740  11.453
36751W        W 4969  31.590  30.143   2.898
36752W        W 4970  13.867   0.153  12.826
36753W        W 4971  29.756  36.780  14.071
36754W        W 4972  36.342   1.503   1.749
36755W        W 4973  41.910  38.277   3.756
36756W        W 4974  31.344   4.912   4.144
36757W        W 4975   2.210  16.149   1.237
36758W        W 4976  28.561  42.064   0.889
36759W        W 4977  37.963   1.404   4.134
36760W        W 4978   8.362  11.121   3.899
36761W        W 4979   1.867   8.704   0.900
36762W        W 4980  30.021  36.808   2.309
36763W        W 4981  11.717  14.687   3.666
36764W        W 4982  28.735   6.044  14.980
36765W        W 4983  16.003  37.566   2.225
36766W        W 4984  33.943  39.307   3.286
36767W        W 4985  24.688  42.876  14.520
36768W        W 4986  29.989  38.002   3.673
36769W        W 4987  39.032  10.315   1.890
36770W        W 4988  20.829  38.075   2.405
36771W        W 4989   8.596  10.360  11.169
36772W        W 4990  14.979   5.509   4.346
36773W        W 4991   4.651  17.319  10.357
36774W        W 4992  12.041   9.909   0.876
36775W        W 4993  31.151   2.486   0.921
36776W        W 4994  20.047  37.558  11.939
36777W        W 4995  40.476  31.613  11.550
36778W        W 4996  17.985  34.678   1.931
36779W        W 4997  39.965  21.910  13.371
36780W        W 4998   8.702  18.333   1.850
36781W        W 4999  35.506  40.259  13.019
36782W        W 5000  29.683  31.406  14.504
36783W        W 5001   7.443   1.065  11.134
36784W        W 5002   6.201   3.390   3.666
36785W        W 5003  31.076  17.849  10.864
36786W        W 5004   7.308  43.564  14.898
36787W        W 5005  25.572  19.032  14.580
36788W        W 5006  22.222  20.312  12.475
36789W        W 5007  32.617  13.838   4.119
36790W        W 5008  41.392  25.940  12.325
36791W        W 5009  34.905  11.299  11.718
36792W        W 5010   2.517  37.870   1.227
36793W        W 5011  27.222  11.608  11.563
36794W        W 5012   5.305  41.856   2.159
36795W        W 5013  42.613  19.458   0.978
36796W        W 5014   9.843  31.385  14.960
36797W        W 5015  37.856  29.059   0.841
36798W        W 5016   3.365   8.184   1.318
36799W        W 5017  12.615  37.044   4.610
36800W        W 5018  19.009  11.831   3.336
36801W        W 5019   0.018  18.887  10.781
36802W        W 5020   7.269  28.604   2.605
36803W        W 5021  18.286  12.033   1.606
36804W        W 5022  42.805  44.792  13.980
36805W        W 5023   1.087   4.673  13.108
36806W        W 5024  29.441  18.956  11.499
36807W        W 5025   3.434  32.711   3.241
36808W        W 5026  32.138  41.000   4.129
36809W        W 5027  10.709   6.854  14.336
36810W        W 5028  17.635  23.635   2.873
36811W        W 5029  18.637  36.420   2.253
36812W        W 5030  23.155  14.992  12.892
36813W        W 5031  35.675  20.712   2.270
36814W        W 5032  11.813  29.143  13.665
36815W        W 5033  36.908   7.574  10.526
36816W        W 5034   3.590  21.895   1.853
36817W        W 5035  17.607  21.046  11.740
36818W        W 5036   4.124   8.135  12.561
36819W        W 5037  31.895  39.744  12.161
36820W        W 5038  33.118  33.840   0.487
36821W        W 5039  44.729  27.413  12.468
36822W        W 5040  33.760   0.165   4.818
36823W        W 5041  10.436  31.122   4.134
36824W        W 5042  16.676  10.609   2.680
36825W        W 5043  23.523   1.261   1.740
36826W        W 5044  16.682  16.543  12.433
36827W        W 5045  14.331  13.851  11.093
36828W        W 5046  21.662  30.943   2.787
36829W        W 5047  14.189  13.642   2.396
36830W        W 5048  42.727  23.095   2.212
36831W        W 5049   7.181  15.847   4.592
36832W        W 5050   9.249  22.560  14.298
36833W        W 5051  28.572  14.781   0.769
36834W        W 5052   6.446  18.422   0.300
36835W        W 5053   1.992   8.421   2.715
36836W        W 5054  24.785  10.268  10.754
36837W        W 5055  40.546  12.131  13.382
36838W        W 5056  14.162  16.371  11.774
36839W        W 5057   5.989   8.800  11.761
36840W        W 5058  37.667   5.898   2.633
36841W        W 5059  34.274  34.613   0.242
36842W        W 5060  30.543  34.458  13.103
36843W        W 5061   1.552   7.423   1.482
36844W        W 5062  40.099  43.000   2.436
36845W        W 5063  12.097  10.230  12.605
36846W        W 5064  19.108  36.381  14.342
36847W        W 5065  39.754  31.669  11.133
36848W        W 5066  18.490  14.346   3.475
36849W        W 5067  35.570  29.992  10.639
36850W        W 5068   6.815  29.178   3.699
36851W        W 5069  18.138  35.204   1.222
36852W        W 5070  21.531  33.939  13.514
36853W        W 5071  15.131   6.848   4.604
36854W        W 5072  20.493  22.285  12.075
36855W        W 5073  29.601  13.852  11.256
36856W        W 5074  16.651  30.209   3.279
36857W        W 5075  41.794  12.370  13.533
36858W        W 5076  31.301  25.569  12.033
36859W        W 5077  39.885  13.862  11.170
36860W        W 5078   0.008  11.692   3.758
36861W        W 5079  27.157  15.276   2.191
36862W        W 5080  12.052  32.994   9.883
36863W        W 5081  16.101  27.559   4.498
36864W        W 5082  25.526  43.922  11.768
36865W        W 5083  44.757   7.471   4.110
36866W        W 5084  19.089   7.841   0.320
36867W        W 5085   2.300  33.398  10.688
36868W        W 5086  27.093   6.897   4.347
36869W        W 5087  44.445   8.760   1.185
36870W        W 5088  44.463   2.703  11.579
36871W        W 5089  35.399  37.363   0.732
36872W        W 5090  38.331  31.471  11.647
36873W        W 5091  15.581   6.391  11.198
36874W        W 5092  34.524  35.464   4.590
36875W        W 5093  30.185  18.326  11.879
36876W        W 5094  42.203   9.715   1.696
36877W        W 5095  30.453  27.084  14.736
36878W        W 5096  38.412  43.369   4.787
36879W        W 5097  14.596  16.288  13.593
36880W        W 5098  10.675  17.864   4.707
36881W        W 5099  36.830   5.498   3.802
36882W        W 5100  11.080  11.252  14.402
36883W        W 5101  29.021  24.146   1.952
36884W        W 5102   7.736  27.488   0.920
36885W        W 5103  30.106  25.924  14.737
36886W        W 5104   0.355  19.740   3.204
36887W        W 5105  29.794  26.676   2.596
36888W        W 5106  24.317   5.285  12.068
36889W        W 5107   8.322  19.113   0.893
36890W        W 5108   1.956  28.373   0.522
36891W        W 5109  24.511  11.654  12.013
36892W        W 5110  32.888  37.377  10.662
36893W        W 5111  37.307  34.056  10.717
36894W        W 5112   0.537  21.072  10.547
36895W        W 5113  27.497  36.815  14.936
36896W        W 5114   4.884  33.537   1.067
36897W        W 5115  15.684  16.338   0.385
36898W        W 5116  24.788   6.318   0.105
36899W        W 5117  11.566  41.746   0.423
36900W        W 5118  10.602  43.949   1.386
36901W        W 5119  12.081  23.611  12.767
36902W        W 5120   9.332  37.634  13.485
36903W        W 5121   4.141   3.838   2.677
36904W        W 5122  43.294  19.044  13.070
36905W        W 5123  23.163  40.731   4.886
36906W        W 5124  33.979  17.821   1.213
36907W        W 5125  42.756   0.676  10.713
36908W        W 5126  11.639  29.926   2.228
36909W        W 5127   3.180   6.782   3.677
36910W        W 5128   4.178  29.119   1.623
36911W        W 5129  24.109   4.240  12.977
36912W        W 5130  42.103  19.062   3.261
36913W        W 5131  14.882  26.492   2.186
36914W        W 5132  41.398  21.210  13.581
36915W        W 5133  30.229  27.251   3.915
36916W        W 5134   1.689  27.522   4.146
36917W        W 5135  24.988  12.144   3.427
36918W        W 5136  36.545  24.988  10.359
36919W        W 5137  11.908  20.700   3.237
36920W        W 5138  42.818  31.661  11.603
36921W        W 5139  23.601  16.510   4.232
36922W        W 5140  14.973  16.040   9.675
36923W        W 5141  40.012  44.877   4.636
36924W        W 5142  13.061   6.466  11.549
36925W        W 5143  41.811  17.842  12.962
36926W        W 5144  15.635  10.371   5.034
36927W        W 5145  13.171  41.133   2.088
36928W        W 5146   3.196  41.785   4.122
36929W        W 5147  36.284  29.579  14.327
36930W        W 5148  32.759  33.557  13.508
36931W        W 5149  19.498  37.324  10.153
36932W        W 5150   5.385   9.890   0.337
36933W        W 5151  27.373  14.788   2.977
36934W        W 5152  25.028  28.500  13.920
36935W        W 5153  10.447  13.114   2.147
36936W        W 5154   4.801  13.346  12.287
36937W        W 5155  21.689  21.486  12.821
36938W        W 5156  14.734  42.202   4.868
36939W        W 5157  33.990  15.400  11.640
36940W        W 5158  42.033   2.458   1.764
36941W        W 5159  11.256   3.522  10.761
36942W        W 5160   7.134  21.054  12.586
36943W        W 5161  30.668  31.835  13.801
36944W        W 5162  31.005   3.801  12.907
36945W        W 5163  29.866  40.869   4.132
36946W        W 5164   4.397  32.023  10.422
36947W        W 5165  24.291   6.418   5.170
36948W        W 5166  13.539   1.212   2.826
36949W        W 5167  38.466  30.653   2.906
36950W        W 5168  19.347  20.419   2.710
36951W        W 5169   0.596  42.960   4.604
36952W        W 5170  12.897  34.002   0.856
36953W        W 5171  27.011   9.205  14.074
36954W        W 5172  15.316  39.098  14.451
36955W        W 5173  35.950  25.479   4.284
36956W        W 5174  13.355  36.013   4.134
36957W        W 5175  13.268   4.290   3.310
36958W        W 5176   7.697   2.260   4.528
36959W        W 5177   0.780   6.850  10.478
36960W        W 5178   6.223  11.387  12.611
36961W        W 5179   6.701   5.380   1.724
36962W        W 5180   4.196  25.651   1.881
36963W        W 5181  41.142  19.677  13.446
36964W        W 5182  10.674   8.779   3.826
36965W        W 5183  15.052  44.903  14.443
36966W        W 5184  40.005   3.550  12.879
36967W        W 5185  30.136   5.579  10.310
36968W        W 5186  22.252  34.550  13.413
36969W        W 5187   3.556  25.080  11.164
36970W        W 5188  34.165  37.548   0.206
36971W        W 5189  21.074  12.704  13.383
36972W        W 5190  39.041  36.172  12.944
36973W        W 5191  41.935  20.174  13.060
36974W        W 5192  24.249  27.954  10.922
36975W        W 5193  12.668  33.635  14.085
36976W        W 5194  21.299   0.334  12.895
36977W        W 5195   8.866  17.684  11.999
36978W        W 5196   3.811  18.506  11.578
36979W        W 5197   8.123  25.363   0.821
36980W        W 5198   6.768  18.747  14.497
36981W        W 5199  19.261  13.692  13.102
36982W        W 5200  13.543  19.271  12.099
36983W        W 5201   5.979   7.241  11.183
36984W        W 5202   1.509   7.423  11.135
36985W        W 5203   4.426  27.006   1.835
36986W        W 5204  11.185  12.833  11.512
36987W        W 5205  14.924  20.877   2.093
36988W        W 5206  22.615  25.136  14.847
36989W        W 5207  15.111  36.597   0.082
36990W        W 5208   2.375  31.296   2.607
36991W        W 5209  26.095   2.166  10.520
36992W        W 5210  21.094  29.041   0.474
36993W        W 5211  33.025  42.360   3.139
36994W        W 5212  28.642  15.651  12.125
36995W        W 5213  19.624   4.956   4.203
36996W        W 5214  14.471  32.232  13.099
36997W        W 5215  11.716  12.846   3.181
36998W        W 5216  18.001  35.761  10.312
36999W        W 5217  25.876  32.075   0.288
37000W        W 5218  38.872  11.853   0.418
37001W        W 5219  20.964  31.376  14.811
37002W        W 5220  40.254   2.411   3.898
37003W        W 5221  18.077   3.095   3.329
37004W        W 5222  29.197  40.099   4.006
37005W        W 5223  43.820  13.313  10.422
37006W        W 5224   2.970  18.631  13.740
37007W        W 5225  44.414  21.494   4.588
37008W        W 5226   2.783  26.118   0.708
37009W        W 5227  15.587  30.594  13.276
37010W        W 5228  30.457  19.984  14.351
37011W        W 5229   1.818  34.850   2.675
37012W        W 5230  37.108  11.634   2.379
37013W        W 5231  44.963  14.011   1.808
37014W        W 5232  34.520  21.775  14.917
37015W        W 5233   9.810  19.773   3.244
37016W        W 5234  20.480  40.291  11.916
37017W        W 5235  30.590  16.759  14.784
37018W        W 5236  27.114  14.593  12.368
37019W        W 5237  23.713  13.331  13.284
37020W        W 5238   1.476  38.079  10.559
37021W        W 5239  18.732  20.720  13.257
37022W        W 5240  43.978   9.330   2.837
37023W        W 5241  24.732  34.856   0.331
37024W        W 5242  33.652  32.248  13.431
37025W        W 5243   5.549  20.045  14.352
37026W        W 5244   7.823  34.778   0.310
37027W        W 5245  25.836   9.642   2.816
37028W        W 5246   7.153  43.256   1.936
37029W        W 5247  27.621  10.396   3.621
37030W        W 5248   4.915  33.400   2.707
37031W        W 5249  16.485   8.288   1.305
37032W        W 5250  26.748   4.746  14.553
37033W        W 5251  29.039  34.056  13.799
37034W        W 5252  12.837  43.990   3.631
37035W        W 5253   9.395  42.416   0.987
37036W        W 5254  40.404  30.720  13.334
37037W        W 5255   7.918  26.692  12.323
37038W        W 5256   5.773  26.336   2.247
37039W        W 5257  10.832   1.329  11.564
37040W        W 5258  44.524   0.966  11.106
37041W        W 5259   8.709   5.003   2.770
37042W        W 5260  18.228  43.366   0.674
37043W        W 5261  33.810  28.476   2.773
37044W        W 5262  20.638   2.856   0.545
37045W        W 5263  32.022  18.651   1.541
37046W        W 5264  13.297  27.988   3.732
37047W        W 5265  19.704  37.807   3.435
37048W        W 5266  33.241  29.692   4.938
37049W        W 5267  25.173  26.191   0.890
37050W        W 5268   9.084  14.533   3.649
37051W        W 5269  35.803  14.805  12.089
37052W        W 5270  10.961  28.996  12.906
37053W        W 5271  13.187  43.383  14.286
37054W        W 5272   0.302  34.602  13.918
37055W        W 5273  11.241  18.287   0.786
37056W        W 5274   3.844   3.937   4.076
37057W        W 5275  19.543   5.268  12.993
37058W        W 5276  27.125   7.590   2.884
37059W        W 5277  29.854  34.646   2.777
37060W        W 5278   2.264  31.459   2.136
37061W        W 5279  44.828  30.957   0.750
37062W        W 5280  43.762  17.172   1.349
37063W        W 5281  13.140  24.634  12.939
37064W        W 5282  21.008  32.902   0.432
37065W        W 5283   8.242  29.958   4.356
37066W        W 5284   6.992  28.714  13.048
37067W        W 5285  13.556  29.635   1.875
37068W        W 5286   4.774  19.605  14.252
37069W        W 5287   0.014  40.575  14.787
37070W        W 5288  38.974  15.329   4.718
37071W        W 5289  30.509   7.370   2.932
37072W        W 5290  39.514  30.108  13.062
37073W        W 5291  38.122  38.517  11.423
37074W        W 5292  28.754  42.403  12.125
37075W        W 5293   7.775  26.596   2.292
37076W        W 5294  11.971   2.402  13.580
37077W        W 5295  22.901   0.819   3.602
37078W        W 5296  17.025  21.268   0.257
37079W        W 5297   2.842  24.420   4.177
37080W        W 5298  42.019  18.775   0.512
37081W        W 5299  10.412  39.618  13.780
37082W        W 5300  22.049  30.871  12.970
37083W        W 5301   1.549   7.985  11.972
37084W        W 5302  20.338  42.343  14.453
37085W        W 5303  18.918  42.285   3.293
37086W        W 5304  41.366   9.066  12.017
37087W        W 5305  24.169  20.727  14.845
37088W        W 5306  28.214   2.713   3.622
37089W        W 5307  32.420  12.756  12.080
37090W        W 5308  31.607  18.576  13.483
37091W        W 5309  21.630  29.396  11.136
37092W        W 5310   4.719  31.683  14.739
37093W        W 5311   1.854  14.790   1.292
37094W        W 5312  33.364  44.357  14.148
37095W        W 5313  35.970  20.276   2.367
37096W        W 5314  29.940  38.484   4.563
37097W        W 5315  22.747  43.236   1.557
37098W        W 5316   4.042  24.858  14.418
37099W        W 5317  44.428  13.979  11.667
37100W        W 5318  23.382  26.995   3.278
37101W        W 5319  28.118   6.864  13.032
37102W        W 5320  24.195  14.967  13.591
37103W        W 5321  16.772   7.441  12.471
37104W        W 5322  37.560  43.545   3.092
37105W        W 5323  13.705   2.040  11.708
37106W        W 5324  22.333   2.170   4.514
37107W        W 5325  14.658   4.850   2.372
37108W        W 5326   4.249  26.862   3.643
37109W        W 5327  40.944  39.543  13.694
37110W        W 5328  13.310   4.423  11.817
37111W        W 5329  32.745   0.205   2.795
37112W        W 5330  26.948  29.062   0.963
37113W        W 5331  29.479  11.228   3.122
37114W        W 5332  39.585   8.205   2.245
37115W        W 5333  33.670  41.031  10.594
37116W        W 5334  42.696   3.366   4.810
37117W        W 5335   9.755   5.440  13.539
37118W        W 5336  31.647  43.223  14.766
37119W        W 5337  17.144   6.964   0.798
37120W        W 5338  24.090  44.046  13.452
37121W        W 5339  28.687  31.101   3.241
37122W        W 5340  17.830  22.684   2.690
37123W        W 5341  44.158  12.357   4.863
37124W        W 5342   6.952   3.185  14.401
37125W        W 5343  14.183   7.670  10.791
37126W        W 5344  21.286  26.179  14.591
37127W        W 5345  28.676  20.200  12.404
37128W        W 5346  21.147  35.622   4.963
37129W        W 5347  29.448  10.820  12.966
37130W        W 5348  42.428   8.617  12.154
37131W        W 5349  18.572  30.686   4.271
37132W        W 5350  41.843  42.825  13.783
37133W        W 5351  23.090  31.172   3.621
37134W        W 5352  25.554  39.671   1.685
37135W        W 5353  33.708  19.930  14.884
37136W        W 5354  29.497  32.369   4.796
37137W        W 5355  19.719   8.349   2.158
37138W        W 5356  25.471   3.185  14.138
37139W        W 5357  39.869  43.792   0.408
37140W        W 5358  10.791  19.830   3.106
37141W        W 5359  43.497   7.759  13.553
37142W        W 5360  31.171   6.663  11.144
37143W        W 5361  42.008  23.011   3.049
37144W        W 5362  10.321   7.083   0.182
37145W        W 5363  13.876  40.750  14.360
37146W        W 5364  15.659  13.291  12.690
37147W        W 5365  16.824   8.231  12.870
37148W        W 5366  11.667   6.661  12.407
37149W        W 5367  35.645   0.383   0.290
37150W        W 5368   2.187   7.028   9.862
37151W        W 5369  42.717  29.928  11.929
37152W        W 5370  35.859  30.156   4.367
37153W        W 5371  13.485  22.444  12.384
37154W        W 5372  15.750  26.745  10.599
37155W        W 5373  29.563  10.442   4.127
37156W        W 5374  26.943   4.945  13.591
37157W        W 5375  26.695  44.249   0.336
37158W        W 5376  42.815  24.391  12.602
37159W        W 5377  19.635  14.104  13.717
37160W        W 5378  22.213  30.127  12.323
37161W        W 5379  41.102  25.242   4.189
37162W        W 5380  10.095  27.945  13.401
37163W        W 5381  29.864  12.170  11.563
37164W        W 5382  39.817  27.228  11.628
37165W        W 5383  44.502   8.144   3.790
37166W        W 5384  43.303  33.913  11.991
37167W        W 5385  43.466   7.694  14.535
37168W        W 5386  31.481   4.560   1.661
37169W        W 5387  24.197  28.686   3.347
37170W        W 5388   9.789   1.720   2.774
37171W        W 5389  42.886  42.508   5.063
37172W        W 5390  12.593  29.387   0.705
37173W        W 5391  19.102  38.594   3.946
37174W        W 5392  31.568  40.082  12.400
37175W        W 5393  19.327  13.931   4.011
37176W        W 5394   2.893  11.332  12.661
37177W        W 5395  34.912  44.071   9.614
37178W        W 5396  19.076  40.917   4.198
37179W        W 5397  15.313   7.503  11.161
37180W        W 5398  10.303  41.901  14.741
37181W        W 5399  24.202  30.863  14.519
37182W        W 5400  36.805   2.898  14.606
37183W        W 5401  18.205  22.102   2.000
37184W        W 5402   8.271  33.514   2.268
37185W        W 5403  20.111  26.996   0.443
37186W        W 5404  15.275  18.450   4.582
37187W        W 5405   1.610  27.953   3.187
37188W        W 5406  36.601   2.676   0.878
37189W        W 5407   5.854  43.810   0.702
37190W        W 5408  18.005   8.643  14.959
37191W        W 5409   4.689  42.997  12.400
37192W        W 5410  30.811  26.688   4.995
37193W        W 5411  23.192   8.559  13.603
37194W        W 5412  28.912  44.840   3.220
37195W        W 5413   2.520  36.587   0.740
37196W        W 5414  32.010  22.081  13.328
37197W        W 5415   2.281   1.741   4.562
37198W        W 5416   6.629  21.442   1.246
37199W        W 5417  13.852  13.365   4.974
37200W        W 5418  40.857  42.357   3.655
37201W        W 5419  41.293  12.559  13.530
37202W        W 5420  32.570  30.581  11.399
37203W        W 5421  13.715  13.754   2.157
37204W        W 5422  24.744  27.626  14.844
37205W        W 5423  30.909  33.099  12.992
37206W        W 5424  14.740   4.013  12.464
37207W        W 5425  20.800  10.940  11.372
37208W        W 5426  36.572  40.313   3.326
37209W        W 5427  25.487   5.906  11.739
37210W        W 5428  16.341  18.099  14.498
37211W        W 5429  11.284  41.169   1.379
37212W        W 5430  18.059  28.869  11.111
37213W        W 5431  33.069   7.693  12.329
37214W        W 5432  26.495   2.419  14.509
37215W        W 5433  41.258  35.518  10.570
37216W        W 5434  37.032  10.613  11.214
37217W        W 5435  23.269  42.816   0.972
37218W        W 5436  18.263  39.860  13.402
37219W        W 5437   6.018  32.152   0.714
37220W        W 5438   0.496   0.718   3.205
37221W        W 5439  11.714  18.500   0.919
37222W        W 5440  26.607  33.155  10.484
37223W        W 5441  15.179  20.581  14.441
37224W        W 5442  40.340  16.005   2.369
37225W        W 5443  30.555  43.139  13.018
37226W        W 5444   7.139  20.139   3.336
37227W        W 5445  31.736  14.624  11.123
37228W        W 5446  18.073  40.366   0.267
37229W        W 5447  41.452   7.701   1.172
37230W        W 5448  41.920  36.374   0.396
37231W        W 5449  23.254  12.207   3.166
37232W        W 5450  14.106  23.661  12.983
37233W        W 5451   3.685  13.747  14.296
37234W        W 5452   4.936   8.429   1.917
37235W        W 5453  20.126  37.275  14.118
37236W        W 5454  16.934  28.876   3.252
37237W        W 5455   0.239  38.331  11.627
37238W        W 5456   0.920   7.979  13.418
37239W        W 5457  33.817   5.279  13.891
37240W        W 5458  26.383  11.831  11.653
37241W        W 5459  15.742   1.886   1.223
37242W        W 5460   1.583  31.917  10.513
37243W        W 5461   0.717   3.910   2.784
37244W        W 5462  29.399  29.550  13.027
37245W        W 5463  23.842  32.365   4.167
37246W        W 5464  39.775  39.664   1.327
37247W        W 5465  16.627   8.534   0.876
37248W        W 5466   5.222   0.190  13.828
37249W        W 5467  20.829  17.924  11.748
37250W        W 5468  31.128  26.532  13.854
37251W        W 5469  15.849  36.723  13.752
37252W        W 5470  18.661  29.385  13.360
37253W        W 5471  34.673  17.223  14.464
37254W        W 5472   3.502  42.567   4.375
37255W        W 5473  29.528   2.804  13.606
37256W        W 5474  28.596  43.558   1.763
37257W        W 5475  26.487  11.579   0.840
37258W        W 5476  17.081  23.104   2.479
37259W        W 5477  42.971  36.849  13.448
37260W        W 5478  20.607  36.843   4.603
37261W        W 5479  42.047  29.580  14.831
37262W        W 5480  16.094  29.605  13.920
37263W        W 5481   4.418  21.142   2.670
37264W        W 5482  10.603  21.439   2.228
37265W        W 5483  29.100  34.558  13.890
37266W        W 5484  28.145   4.223  10.792
37267W        W 5485  10.787  20.169   4.714
37268W        W 5486  27.733  30.970   3.576
37269W        W 5487   5.270  37.499  14.473
37270W        W 5488   3.289  23.186  12.012
37271W        W 5489   0.903  20.594   1.282
37272W        W 5490  10.142   0.201  12.443
37273W        W 5491   1.648   0.451  10.644
37274W        W 5492  25.637  28.039  13.443
37275W        W 5493  34.872   0.395   3.052
37276W        W 5494  41.040  41.364   2.748
37277W        W 5495  39.328  25.298   0.827
37278W        W 5496  36.216  23.573  12.388
37279W        W 5497  25.310  36.149   0.222
37280W        W 5498  36.575  24.685   1.113
37281W        W 5499  15.985   9.673   3.718
37282W        W 5500  32.611  25.535  14.281
37283W        W 5501  39.981  21.879   4.688
37284W        W 5502  40.412  14.677   4.609
37285W        W 5503  32.142   4.045   1.738
37286W        W 5504   4.333  39.882  11.112
37287W        W 5505  14.699  13.969   1.126
37288W        W 5506  44.753  42.409   0.773
37289W        W 5507  18.161  17.182  11.580
37290W        W 5508  22.326  36.466   3.749
37291W        W 5509  29.504  35.555  11.565
37292W        W 5510  22.041  11.412  12.036
37293W        W 5511  27.452  29.922   0.782
37294W        W 5512  42.297  13.422   2.268
37295W        W 5513   3.074  20.292  10.741
37296W        W 5514  33.314  18.224  11.114
37297W        W 5515  29.475   1.438   0.376
37298W        W 5516  22.174  37.482   4.162
37299W        W 5517   7.795  43.314   2.638
37300W        W 5518  12.290  14.289  13.406
37301W        W 5519   7.842  19.146   5.518
37302W        W 5520  32.922   0.857   1.005
37303W        W 5521  25.949  18.463   0.249
37304W        W 5522  36.384  37.105  12.090
37305W        W 5523  13.686  30.392  13.504
37306W        W 5524  43.617  13.005  11.136
37307W        W 5525  36.026  17.227   0.552
37308W        W 5526  37.962  42.209  13.584
37309W        W 5527  18.786  42.842  11.106
37310W        W 5528  18.815  27.501  10.435
37311W        W 5529  33.266   9.415   0.667
37312W        W 5530  17.790  16.912   4.373
37313W        W 5531  38.669   5.334  10.522
37314W        W 5532  36.312  11.614  13.748
37315W        W 5533  42.468  31.842  14.750
37316W        W 5534   1.969  35.278  11.734
37317W        W 5535  23.965  21.634   2.741
37318W        W 5536  30.543  19.719  11.783
37319W        W 5537   8.428  10.445  12.385
37320W        W 5538  44.542  28.114   2.153
37321W        W 5539  29.650  13.375   4.115
37322W        W 5540   6.924  20.326   4.790
37323W        W 5541  39.559  38.896  10.890
37324W        W 5542  11.158   4.430   0.900
37325W        W 5543  24.017  20.981   0.266
37326W        W 5544  37.625  17.676   1.389
37327W        W 5545  42.911  27.652  13.821
37328W        W 5546  43.761  22.614   0.853
37329W        W 5547  11.039  35.289   0.387
37330W        W 5548  18.826   3.011  13.764
37331W        W 5549  29.381  38.268  11.556
37332W        W 5550  40.087  44.213   1.607
37333W        W 5551  30.502   6.958   3.309
37334W        W 5552  32.658  23.058   3.831
37335W        W 5553  16.217  24.144  12.444
37336W        W 5554  12.419  11.537  12.614
37337W        W 5555   6.934   8.778  14.446
37338W        W 5556  25.182  10.553   0.263
37339W        W 5557  39.952   7.738   3.638
37340W        W 5558  32.949  42.140  12.879
37341W        W 5559  36.322   8.777  11.779
37342W        W 5560  40.566  14.291  11.040
37343W        W 5561  20.184  28.595   4.274
37344W        W 5562   6.934  38.914  10.757
37345W        W 5563  40.359  21.501  12.522
37346W        W 5564  32.931  14.169   1.208
37347W        W 5565  31.567  42.097  10.746
37348W        W 5566  39.397  22.842   2.400
37349W        W 5567  30.570  26.654  14.988
37350W        W 5568  11.216  29.751  14.371
37351W        W 5569   5.363   1.732  14.101
37352W        W 5570  16.763  36.990   2.242
37353W        W 5571  12.855  40.494   4.375
37354W        W 5572  21.703  26.264  13.063
37355W        W 5573   8.905   4.846  13.508
37356W        W 5574  24.951  26.428   4.117
37357W        W 5575  37.803   1.148  13.399
37358W        W 5576  14.486  30.468   1.279
37359W        W 5577   2.578  11.241  10.754
37360W        W 5578   9.414   4.388  14.924
37361W        W 5579  41.825  33.618   0.016
37362W        W 5580  10.598  41.545  12.052
37363W        W 5581  38.500  42.715   0.738
37364W        W 5582  35.550  17.210   4.753
37365W        W 5583  33.816  39.892  14.902
37366W        W 5584  30.131  13.348  14.948
37367W        W 5585  17.014  21.664   3.703
37368W        W 5586  33.048   9.240  11.591
37369W        W 5587  30.932  37.911  11.783
37370W        W 5588  41.905  32.677   1.402
37371W        W 5589  26.028  30.673   4.269
37372W        W 5590  25.841  13.089   4.670
37373W        W 5591   0.757  36.007  13.892
37374W        W 5592  30.150  40.429   0.343
37375W        W 5593   9.881  27.299  12.078
37376W        W 5594   5.997  21.486  10.536
37377W        W 5595  39.226  36.794   1.481
37378W        W 5596  18.910  24.626  12.471
37379W        W 5597  26.933  29.418  13.016
37380W        W 5598  20.048  35.443   2.738
37381W        W 5599   3.419  30.558  12.857
37382W        W 5600   6.615  28.123   0.370
37383W        W 5601  32.981  18.546   2.411
37384W        W 5602  20.294  42.531  13.382
37385W        W 5603  20.228  39.345   1.328
37386W        W 5604   5.852  30.515   1.216
37387W        W 5605  29.491  36.093   1.732
37388W        W 5606  13.594  25.631   3.750
37389W        W 5607  21.142  43.980  14.262
37390W        W 5608  36.540  42.427  10.885
37391W        W 5609   2.798  28.888  13.035
37392W        W 5610   0.798  25.027  10.019
37393W        W 5611  24.652  25.568   3.152
37394W        W 5612  44.351  33.036  13.957
37395W        W 5613  27.934  26.663  13.445
37396W        W 5614  17.209  41.250   2.129
37397W        W 5615  40.467  21.560  14.390
37398W        W 5616   0.780  41.971  12.329
37399W        W 5617  29.077   6.158  11.129
37400W        W 5618  32.918   1.760   3.257
37401W        W 5619  42.429  34.488   1.282
37402W        W 5620   4.297  26.676  14.955
37403W        W 5621  21.792  42.461   4.958
37404W        W 5622  24.946  26.109   0.428
37405W        W 5623  39.935  31.373   1.313
37406W        W 5624   5.149  23.072   2.846
37407W        W 5625  22.549  43.226  14.263
37408W        W 5626  44.472  33.094  13.457
37409W        W 5627   5.591   4.315  13.560
37410W        W 5628  25.526  10.217   0.422
37411W        W 5629  26.492  42.290  12.596
37412W        W 5630  21.734  20.526  11.154
37413W        W 5631  15.637  15.867   5.032
37414W        W 5632  18.949   8.675   3.325
37415W        W 5633  34.001  39.804   2.458
37416W        W 5634   1.984  18.564  14.445
37417W        W 5635  39.435  18.285   2.634
37418W        W 5636   7.700  38.106   2.391
37419W        W 5637  13.478  33.755  13.933
37420W        W 5638   3.890  11.648   2.735
37421W        W 5639  20.310   4.331  10.673
37422W        W 5640   1.510  32.632   2.329
37423W        W 5641   2.782  32.928  14.356
37424W        W 5642   3.453  16.756  13.960
37425W        W 5643  12.392   2.408  14.557
37426W        W 5644   7.700  33.342   1.572
37427W        W 5645  11.070   9.780   3.710
37428W        W 5646   5.812  17.749  12.166
37429W        W 5647   0.452  13.795  14.322
37430W        W 5648  15.906   7.494   4.224
37431W        W 5649  34.550  25.806  12.603
37432W        W 5650  28.114   6.679  12.056
37433W        W 5651  14.691  18.498   0.922
37434W        W 5652  16.763   0.244   4.109
37435W        W 5653  44.592  23.345   0.311
37436W        W 5654  15.169  39.478  14.793
37437W        W 5655  24.406  37.307   3.841
37438W        W 5656  18.461  21.397   1.787
37439W        W 5657  15.078  34.814   1.115
37440W        W 5658  15.892  30.497   0.924
37441W        W 5659   4.667  26.349   5.064
37442W        W 5660  20.737   0.382  13.370
37443W        W 5661  11.856  36.633  12.083
37444W        W 5662  14.260  36.066  13.146
37445W        W 5663  15.586  42.758  10.994
37446W        W 5664  44.807  18.312   4.323
37447W        W 5665   5.557  15.496  11.489
37448W        W 5666  43.337  24.967   4.117
37449W        W 5667   4.318  24.884   0.430
37450W        W 5668   6.621  36.046  10.692
37451W        W 5669   0.780  29.511  10.743
37452W        W 5670  34.596  18.756   3.422
37453W        W 5671  24.915   2.299  13.462
37454W        W 5672   5.825   9.417  13.631
37455W        W 5673  32.155  17.901  13.963
37456W        W 5674  30.584  33.328  13.996
37457W        W 5675  38.765  35.457   2.698
37458W        W 5676  13.714   9.704  12.558
37459W        W 5677   8.490   3.642   4.182
37460W        W 5678  14.353  33.939   4.604
37461W        W 5679  24.220  43.786   1.677
37462W        W 5680  39.440  43.990   0.169
37463W        W 5681  38.963   0.528  12.920
37464W        W 5682  21.151   1.948   0.931
37465W        W 5683  35.045   6.919   1.309
37466W        W 5684  37.965   4.239   3.574
37467W        W 5685  23.069   4.481   0.670
37468W        W 5686  12.865  23.745   2.798
37469W        W 5687   1.633  34.928   1.651
37470W        W 5688   2.848  39.245   0.157
37471W        W 5689  38.804  23.760   1.704
37472W        W 5690  41.553  29.045  11.892
37473W        W 5691  13.676  16.440   0.843
37474W        W 5692  12.379   8.417  14.096
37475W        W 5693   0.397  40.270  12.587
37476W        W 5694  21.082   9.831  10.661
37477W        W 5695  10.765  19.745  10.445
37478W        W 5696  34.572  42.176  10.759
37479W        W 5697   6.875  14.796   3.979
37480W        W 5698  16.663  11.391  11.942
37481W        W 5699   5.758  13.624   4.595
37482W        W 5700   8.502  31.076   0.284
37483W        W 5701  27.617   0.730  13.793
37484W        W 5702   1.383   7.170   4.206
37485W        W 5703   0.914  21.035  11.125
37486W        W 5704  11.878  34.058  14.727
37487W        W 5705  18.901  15.291   5.027
37488W        W 5706   3.024  14.585   3.661
37489W        W 5707  26.083  17.535   1.272
37490W        W 5708   3.238  30.263   2.321
37491W        W 5709  27.904  42.890   0.039
37492W        W 5710  23.720   1.004  11.952
37493W        W 5711   6.259  18.586  10.686
37494W        W 5712  29.350  27.507  10.597
37495W        W 5713  18.076  39.087   0.727
37496W        W 5714  22.305  44.434  13.844
37497W        W 5715  36.104  39.789   4.049
37498W        W 5716  24.240  44.310   1.644
37499W        W 5717  22.194   8.985  13.391
37500W        W 5718   3.701  40.764   1.840
37501W        W 5719  21.899   1.226  14.499
37502W        W 5720  26.801   6.126   3.162
37503W        W 5721  38.037  32.477  11.160
37504W        W 5722  35.623   3.192  13.896
37505W        W 5723  12.374  30.713   2.387
37506W        W 5724  11.586   0.796   0.233
37507W        W 5725   4.762  33.833  13.350
37508W        W 5726  15.740  39.879  11.539
37509W        W 5727  44.936  31.018   4.049
37510W        W 5728  38.363  36.586   3.525
37511W        W 5729  10.346  17.866   2.924
37512W        W 5730  27.687  17.383   0.854
37513W        W 5731   0.267   7.285   0.222
37514W        W 5732  22.036  44.415   3.744
37515W        W 5733  43.037  35.825  13.145
37516W        W 5734  26.984  43.434  11.652
37517W        W 5735  32.675  16.780   1.925
37518W        W 5736  14.075  27.505  13.381
37519W        W 5737  41.856  35.894  12.246
37520W        W 5738  23.211  38.030  13.406
37521W        W 5739   4.303  33.090   2.683
37522W        W 5740  25.113  36.376   2.394
37523W        W 5741  20.061   5.345   3.788
37524W        W 5742  34.678   2.353   2.943
37525W        W 5743  18.633  26.603   0.027
37526W        W 5744  44.520   5.830   4.197
37527W        W 5745  15.616  23.961   2.208
37528W        W 5746  18.084  14.472   3.790
37529W        W 5747  11.059  34.492  14.473
37530W        W 5748  24.554   1.654  12.388
37531W        W 5749  31.938  12.333   3.619
37532W        W 5750   4.432  32.951   0.791
37533W        W 5751  33.724  31.211   0.828
37534W        W 5752   8.759  33.818  13.752
37535W        W 5753   6.401  44.855   2.693
37536W        W 5754  29.905   7.940   4.498
37537W        W 5755  21.090  14.607  11.096
37538W        W 5756   9.666  25.892  14.421
37539W        W 5757  41.564   1.674   2.249
37540W        W 5758  16.175  28.664  11.135
37541W        W 5759  38.480  25.573   1.236
37542W        W 5760  17.799  44.115  14.369
37543W        W 5761  19.032  20.490  12.871
37544W        W 5762  14.826  14.237   0.718
37545W        W 5763  27.713  23.373   4.060
37546W        W 5764  19.202  28.975   2.380
37547W        W 5765  37.286   8.422  11.627
37548W        W 5766  31.844  28.467   3.685
37549W        W 5767  34.896   8.844  12.198
37550W        W 5768  12.313  24.219   2.119
37551W        W 5769  44.952  20.575   2.681
37552W        W 5770   9.597  14.701  14.346
37553W        W 5771  19.130  19.165  10.663
37554W        W 5772  15.249  28.933   0.692
37555W        W 5773  10.349  16.330  13.952
37556W        W 5774  22.640  38.297  11.449
37557W        W 5775  26.258  40.352  13.817
37558W        W 5776  13.089  22.705  11.120
37559W        W 5777  25.607  16.233   3.128
37560W        W 5778  24.575  43.788  14.785
37561W        W 5779  41.847  12.841   0.569
37562W        W 5780  15.088  32.936  12.581
37563W        W 5781  19.983   7.466   2.362
37564W        W 5782  15.656  15.625   0.948
37565W        W 5783  40.506  38.298   2.772
37566W        W 5784  18.378   3.274   0.480
37567W        W 5785  22.735  33.662  13.433
37568W        W 5786  26.601  25.678  12.292
37569W        W 5787  14.301  37.556   1.735
37570W        W 5788   3.198   6.018  11.435
37571W        W 5789   9.630  34.600  13.880
37572W        W 5790  14.336  26.656   3.268
37573W        W 5791   8.290  43.243  12.398
37574W        W 5792  25.466  41.792   2.699
37575W        W 5793  13.343  11.814   1.867
37576W        W 5794   1.220  43.900   4.054
37577W        W 5795  40.247  12.293   4.609
37578W        W 5796  25.851  37.798  11.144
37579W        W 5797   7.378  21.471  12.380
37580W        W 5798  19.078  44.011   1.286
37581W        W 5799  11.921   1.520   5.035
37582W        W 5800   7.202  30.606   3.673
37583W        W 5801  26.393  16.100   3.879
37584W        W 5802  43.999  16.717   1.334
37585W        W 5803  21.107  26.311   1.789
37586W        W 5804  20.594  42.008  12.692
37587W        W 5805  16.798  38.242  11.044
37588W        W 5806  31.067  22.584   3.672
37589W        W 5807  15.569  10.758  12.163
37590W        W 5808  43.378  22.977   4.808
37591W        W 5809  25.426  15.273   0.170
37592W        W 5810  39.872   0.371  11.222
37593W        W 5811  31.044  32.072   3.908
37594W        W 5812  35.648   1.261  11.012
37595W        W 5813  21.740   5.693  14.822
37596W        W 5814  11.448  44.158  12.957
37597W        W 5815  21.845  12.629  10.762
37598W        W 5816  12.717  39.825  10.926
37599W        W 5817  44.635  12.371  11.914
37600W        W 5818  19.211  26.461   4.924
37601W        W 5819  25.675  29.122   4.980
37602W        W 5820   2.985  22.529   0.372
37603W        W 5821  41.472  27.389  12.500
37604W        W 5822  11.859  13.777  11.231
37605W        W 5823  17.148  25.390   1.257
37606W        W 5824  34.467  39.734   1.367
37607W        W 5825  40.926   6.391  12.391
37608W        W 5826  21.242  23.108   0.531
37609W        W 5827   2.337  31.733   1.695
37610W        W 5828  14.666  35.405   0.324
37611W        W 5829  44.195  37.983   1.865
37612W        W 5830  27.547  42.830  12.456
37613W        W 5831  24.745  39.219   0.449
37614W        W 5832  27.263   8.869   5.093
37615W        W 5833   3.687  32.400   1.770
37616W        W 5834  28.256  28.277  12.870
37617W        W 5835  38.566   0.782   0.170
37618W        W 5836  42.739  40.930  11.230
37619W        W 5837  18.590  12.417   2.748
37620W        W 5838  27.773  39.442  14.764
37621W        W 5839  10.676  37.406   5.076
37622W        W 5840  31.031  37.107  14.012
37623W        W 5841  24.697  38.932  14.342
37624W        W 5842  28.044   8.312   2.777
37625W        W 5843  14.066  41.807  12.926
37626W        W 5844   6.373  44.469   2.319
37627W        W 5845   0.271   0.929  14.159
37628W        W 5846  37.535  39.096  12.456
37629W        W 5847   7.048  28.099   4.774
37630W        W 5848  15.682   4.713   0.018
37631W        W 5849  33.104  43.863   4.502
37632W        W 5850  17.480  41.394   2.576
37633W        W 5851  29.272  36.901  11.639
37634W        W 5852   2.568  39.854   0.466
37635W        W 5853  30.464   7.214   1.413
37636W        W 5854   0.940  36.677   3.328
37637W        W 5855  27.987  41.939  14.477
37638W        W 5856  23.148   3.838  10.600
37639W        W 5857  43.024  30.134  14.446
37640W        W 5858  25.151   7.404   0.836
37641W        W 5859  16.587  38.932   4.953
37642W        W 5860  15.978  41.968  14.054
37643W        W 5861  10.270  11.602  11.542
37644W        W 5862  11.848  43.445  12.436
37645W        W 5863   6.901  25.098  14.309
37646W        W 5864  40.860  26.044   3.800
37647W        W 5865  34.698  27.553  14.199
37648W        W 5866  10.640   2.215   3.815
37649W        W 5867  17.560  19.812   4.536
37650W        W 5868   1.736  44.952  10.753
37651W        W 5869  17.255  40.379  12.412
37652W        W 5870  25.553   9.706   0.506
37653W        W 5871  19.318  16.078  13.812
37654W        W 5872  31.624  27.133  14.032
37655W        W 5873  35.406  36.914  14.997
37656W        W 5874  33.619  30.043   9.896
37657W        W 5875  11.921  40.495  12.945
37658W        W 5876   5.671  21.725  10.859
37659W        W 5877   6.345  36.118   1.382
37660W        W 5878   0.229  34.624   3.773
37661W        W 5879  21.159  11.870   4.716
37662W        W 5880  20.007  26.067   3.149
37663W        W 5881  34.163  44.408  11.984
37664W        W 5882   9.779   1.279   4.610
37665W        W 5883  24.906  32.208   4.261
37666W        W 5884  26.562  13.940   3.268
37667W        W 5885  32.969  36.967  12.074
37668W        W 5886  28.496  39.526  14.303
37669W        W 5887  31.632   5.885   0.008
37670W        W 5888   9.302   8.439   0.715
37671W        W 5889   0.443  19.506  14.834
37672W        W 5890  30.903  18.512  14.702
37673W        W 5891  23.992  39.341  13.985
37674W        W 5892   3.787  36.934  13.532
37675W        W 5893   4.341  13.480  12.065
37676W        W 5894  41.491  22.889  14.901
37677W        W 5895   4.115  18.997   4.559
37678W        W 5896   5.947  31.895   2.770
37679W        W 5897  13.670  34.558   0.450
37680W        W 5898  35.287  37.503  11.058
37681W        W 5899  33.066  19.071   4.111
37682W        W 5900  32.893   5.324   2.909
37683W        W 5901  25.952  11.256   0.510
37684W        W 5902  29.694  40.758  12.086
37685W        W 5903   7.242  24.006  13.207
37686W        W 5904  31.837  13.039  14.100
37687W        W 5905  18.567  33.835   4.570
37688W        W 5906  27.795  31.671   0.201
37689W        W 5907   8.401  17.108   1.010
37690W        W 5908  20.515  17.235  10.611
37691W        W 5909  41.615  34.481   1.873
37692W        W 5910  33.828  37.541   0.632
37693W        W 5911  24.346   0.422   0.326
37694W        W 5912  42.598  13.392   3.862
37695W        W 5913  27.557  30.915  14.004
37696W        W 5914  19.587  10.274   3.717
37697W        W 5915  14.237  26.423   2.314
37698W        W 5916  11.684  44.860  12.903
37699W        W 5917  19.612  10.894  14.408
37700W        W 5918   1.903   0.715   3.622
37701W        W 5919   6.394  43.624   3.657
37702W        W 5920   3.998  20.958  12.936
37703W        W 5921  40.116  34.533  13.412
37704W        W 5922  23.523  18.208  13.022
37705W        W 5923  36.280  37.953  13.148
37706W        W 5924  22.184  26.236  10.592
37707W        W 5925   8.875  17.310  14.014
37708W        W 5926   7.173   2.459   0.346
37709W        W 5927  11.297   2.756   1.755
37710W        W 5928  27.600  10.819  12.518
37711W        W 5929  17.539  24.655   2.237
37712W        W 5930   8.686   0.174   0.403
37713W        W 5931   5.980   4.860   4.346
37714W        W 5932  18.321   5.377   4.782
37715W        W 5933  26.070  18.747   1.922
37716W        W 5934  13.247  24.077   3.031
37717W        W 5935  10.604   5.101  11.096
37718W        W 5936  16.954  27.286  11.697
37719W        W 5937  43.029  15.228  11.553
37720W        W 5938  10.405  28.844  11.483
37721W        W 5939  20.233  17.387   3.611
37722W        W 5940  33.666  37.137   2.347
37723W        W 5941   5.456  26.963   3.091
37724W        W 5942  27.165  22.953   1.413
37725W        W 5943  31.172  40.791  13.529
37726W        W 5944  23.043  41.378   0.221
37727W        W 5945  42.014  35.048  14.857
37728W        W 5946  36.230   1.805   5.506
37729W        W 5947  28.616  28.656  12.904
37730W        W 5948  17.331  15.053   2.794
37731W        W 5949  30.377  38.968  12.332
37732W        W 5950   4.726  24.969   2.239
37733W        W 5951  21.681   2.001  14.834
37734W        W 5952  35.101  22.538   1.708
37735W        W 5953  40.325  25.929   2.773
37736W        W 5954  17.615  16.758  13.641
37737W        W 5955  39.844  27.592   3.605
37738W        W 5956  36.620  14.700   1.432
37739W        W 5957  19.956  40.946  13.834
37740W        W 5958  33.313  13.494  13.934
37741W        W 5959  15.194   1.042  11.924
37742W        W 5960  38.987  13.330   2.858
37743W        W 5961  19.769  12.151  10.132
37744W        W 5962   4.176  33.275   3.260
37745W        W 5963   4.724  32.828  11.480
37746W        W 5964  38.956  42.097  13.068
37747W        W 5965   6.434   3.956   1.956
37748W        W 5966   0.619  12.217  12.796
37749W        W 5967  33.322   0.489  13.515
37750W        W 5968  22.791  36.269   3.637
37751W        W 5969  22.239   0.418   4.571
37752W        W 5970  19.748   5.884   1.461
37753W        W 5971  34.072  14.831  11.562
37754W        W 5972  23.999  42.356   4.717
37755W        W 5973  41.446  24.524  12.538
37756W        W 5974  15.590  37.032  10.711
37757W        W 5975   9.090   5.378  12.753
37758W        W 5976   7.252   8.710  10.948
37759W        W 5977  33.355  29.863  10.308
37760W        W 5978  24.789  16.157   5.211
37761W        W 5979  29.022  19.265  11.127
37762W        W 5980   6.904  16.921  12.038
37763W        W 5981  11.220  25.017  11.145
37764W        W 5982   4.913  22.008  10.623
37765W        W 5983  21.719  44.058  14.863
37766W        W 5984  25.225  42.412  11.454
37767W        W 5985   5.191  21.898   4.527
37768W        W 5986  11.999   4.295  11.714
37769W        W 5987  35.373   6.337   2.689
37770W        W 5988  40.325  32.499  11.030
37771W        W 5989   5.222   3.960   0.908
37772W        W 5990  31.538  33.917   2.817
37773W        W 5991  12.835  20.722  14.436
37774W        W 5992   1.444  35.372  13.883
37775W        W 5993  25.200  40.019   4.072
37776W        W 5994  18.509  17.701   3.286
37777W        W 5995  36.458  19.071   3.790
37778W        W 5996  11.587   1.255  14.408
37779W        W 5997   8.123  24.242  13.910
37780W        W 5998  23.016  28.414   1.961
37781W        W 5999  36.761  44.196  13.009
37782W        W 6000  34.877  17.212   3.663
37783W        W 6001  23.150   7.188  12.045
37784W        W 6002  10.572  36.423   2.255
37785W        W 6003  41.076  38.940  13.884
37786W        W 6004  25.644  34.730  12.529
37787W        W 6005  32.053   9.249   4.622
37788W        W 6006   7.547  30.256   2.082
37789W        W 6007  17.814  37.413  12.959
37790W        W 6008  22.058  17.711  10.768
37791W        W 6009  27.666  19.017  10.670
37792W        W 6010  24.199  13.666  12.989
37793W        W 6011   6.578  42.641  14.499
37794W        W 6012  10.333  26.149  13.560
37795W        W 6013   8.873  42.450  12.615
37796W        W 6014   3.793  44.639   4.180
37797W        W 6015  14.546  26.516  11.461
37798W        W 6016  29.673  31.824   3.783
37799W        W 6017   6.461  17.548  14.093
37800W        W 6018  10.543  14.903   2.749
37801W        W 6019  44.534   5.158   1.640
37802W        W 6020   3.293  18.653   4.714
37803W        W 6021  33.488   6.986  11.179
37804W        W 6022  40.028  26.417  10.351
37805W        W 6023   3.642  33.559  11.267
37806W        W 6024  31.909   9.282   0.689
37807W        W 6025  31.080  41.396   4.523
37808W        W 6026  44.473   9.777   3.286
37809W        W 6027  41.939  44.628  10.998
37810W        W 6028  42.457  41.888  11.433
37811W        W 6029   2.505  29.624  14.353
37812W        W 6030  10.228   7.628  13.402
37813W        W 6031  35.097  35.047   1.712
37814W        W 6032  26.116  37.117  11.627
37815W        W 6033  24.081  41.786   0.712
37816W        W 6034  44.573  34.490   2.888
37817W        W 6035  41.984  20.695  14.544
37818W        W 6036  43.618  18.079   4.481
37819W        W 6037  24.220  34.025   3.767
37820W        W 6038  23.226  37.541   0.660
37821W        W 6039   7.114   7.192   2.118
37822W        W 6040  24.688  25.096   1.389
37823W        W 6041  12.777   5.431   3.744
37824W        W 6042  13.257  43.747  11.210
37825W        W 6043  37.653   5.858  13.846
37826W        W 6044   1.401  16.608  11.904
37827W        W 6045  37.958  28.393  12.157
37828W        W 6046  28.856  19.766  11.654
37829W        W 6047   2.255  14.621   2.470
37830W        W 6048  38.604  19.475  10.597
37831W        W 6049  44.475   1.971  13.437
37832W        W 6050  42.000  21.287  10.291
37833W        W 6051  25.754  25.299   3.790
37834W        W 6052   0.950  42.246  13.475
37835W        W 6053  17.115  43.998   0.763
37836W        W 6054  20.717  17.752  14.748
37837W        W 6055  29.483  21.283  13.998
37838W        W 6056   4.871  16.986   3.872
37839W        W 6057  21.250  21.691   2.431
37840W        W 6058   1.776  37.791   4.285
37841W        W 6059  16.685   4.244   2.724
37842W        W 6060   5.821  20.315   1.313
37843W        W 6061  10.217   2.103   0.757
37844W        W 6062  39.550  28.626   1.177
37845W        W 6063   0.368  35.779   4.628
37846W        W 6064  43.352  35.034   2.900
37847W        W 6065  28.171  14.751  12.857
37848W        W 6066   9.878  35.237   2.392
37849W        W 6067  33.921  25.485   1.982
37850W        W 6068  39.849   7.419  14.752
37851W        W 6069   8.445  36.629  14.356
37852W        W 6070  40.351   0.581  14.083
37853W        W 6071  44.452  14.108   1.723
37854W        W 6072   0.845  26.866   1.124
37855W        W 6073  34.097  19.885  11.160
37856W        W 6074  21.059   0.314  11.564
37857W        W 6075  21.011   5.761  12.299
37858W        W 6076  10.835   3.493  11.949
37859W        W 6077   3.211  25.644   4.534
37860W        W 6078  21.213  37.977  10.590
37861W        W 6079  42.582  24.251  13.524
37862W        W 6080  30.904  27.874   3.714
37863W        W 6081  22.618  32.802   4.494
37864W        W 6082  23.642  43.931  14.891
37865W        W 6083   2.374  20.325  13.008
37866W        W 6084   7.249  26.441  12.887
37867W        W 6085  32.042  31.040  11.461
37868W        W 6086  18.784  41.800  13.558
37869W        W 6087  34.407  44.268   4.151
37870W        W 6088  34.024  22.748  11.925
37871W        W 6089  26.058  23.106  11.355
37872W        W 6090   2.449  30.396  12.017
37873W        W 6091  32.398  19.099  11.572
37874W        W 6092   6.940  40.942  12.943
37875W        W 6093  16.136  20.303  14.174
37876W        W 6094  18.620  15.575   2.224
37877W        W 6095  10.368  29.897  14.861
37878W        W 6096   8.769  23.208  11.822
37879W        W 6097   7.246  28.625  14.822
37880W        W 6098  34.484  27.643   1.382
37881W        W 6099  37.039  23.226  13.830
37882W        W 6100  10.819  19.003   4.052
37883W        W 6101  20.701  33.321   2.670
37884W        W 6102  17.554  15.844  10.056
37885W        W 6103  14.294  10.889  11.131
37886W        W 6104  10.501  19.244   4.636
37887W        W 6105  41.930   7.848  13.430
37888W        W 6106  11.409  31.558   0.227
37889W        W 6107  40.266   4.920  10.319
37890W        W 6108  15.035  13.962   1.513
37891W        W 6109   1.488  13.424  10.717
37892W        W 6110  10.670  22.572  12.662
37893W        W 6111  12.819  33.194   0.215
37894W        W 6112  13.105   5.906  10.471
37895W        W 6113   1.180  33.011   1.311
37896W        W 6114  18.140  25.926  12.240
37897W        W 6115  20.688  30.417  11.105
37898W        W 6116  25.908  12.589   0.171
37899W        W 6117   0.427  34.607   2.878
37900W        W 6118   2.235  11.110  13.427
37901W        W 6119  27.446  43.252   2.372
37902W        W 6120  20.171   8.385  11.420
37903W        W 6121  44.463   1.186   3.660
37904W        W 6122   2.739  32.639   1.901
37905W        W 6123  24.043  44.177   0.753
37906W        W 6124  26.749  29.915  11.090
37907W        W 6125   2.664   0.629   4.166
37908W        W 6126  20.282  10.339   0.821
37909W        W 6127  32.574   5.012   0.174
37910W        W 6128   2.381   5.440  13.850
37911W        W 6129  30.522  17.039  13.055
37912W        W 6130  23.521  12.718   0.936
37913W        W 6131  28.987  10.534   3.298
37914W        W 6132  27.003  39.914  14.744
37915W        W 6133  35.484   2.562   4.501
37916W        W 6134  31.907  28.463  14.408
37917W        W 6135  19.076   9.185  11.236
37918W        W 6136  11.697  38.082  12.143
37919W        W 6137   1.878   7.074  14.255
37920W        W 6138  38.289   4.928   3.725
37921W        W 6139  14.855  32.954  14.969
37922W        W 6140  18.085  36.991  13.858
37923W        W 6141  16.759  37.981   4.652
37924W        W 6142  14.729  36.096  14.935
37925W        W 6143  28.174   9.953  11.056
37926W        W 6144  22.016  44.316  12.601
37927W        W 6145  32.571  32.924   1.167
37928W        W 6146   0.261  34.501   2.402
37929W        W 6147  37.784  21.149  10.419
37930W        W 6148  37.995   5.138   4.132
37931W        W 6149  42.516  35.294  11.223
37932W        W 6150  41.224  17.376  11.540
37933W        W 6151  28.077  16.868   1.390
37934W        W 6152  22.643  22.942  11.106
37935W        W 6153  33.439  18.596   4.678
37936W        W 6154  36.257  19.903  11.583
37937W        W 6155  36.597  28.034  12.479
37938W        W 6156  34.039  28.439  12.937
37939W        W 6157  19.473  43.804  11.916
37940W        W 6158  16.353   9.520   1.085
37941W        W 6159  35.933  15.166  14.411
37942W        W 6160  11.572   5.254  11.681
37943W        W 6161  11.414  18.193  10.277
37944W        W 6162  34.714  34.385  12.023
37945W        W 6163  30.076  21.499   1.239
37946W        W 6164  12.597  23.996  12.524
37947W        W 6165  22.755  15.118   1.003
37948W        W 6166   0.870  21.105   1.379
37949W        W 6167   9.728  30.496  13.354
37950W        W 6168  15.157  44.865  11.467
37951W        W 6169   1.272   6.020   1.307
37952W        W 6170  20.041  20.046   3.716
37953W        W 6171  40.907  37.013  12.086
37954W        W 6172  24.486   4.250  11.018
37955W        W 6173  21.957  44.359  10.343
37956W        W 6174  30.136  36.498   4.694
37957W        W 6175  36.969   2.409  14.789
37958W        W 6176  38.101  22.466  11.018
37959W        W 6177  25.692  22.271   3.626
37960W        W 6178   7.686  44.494  12.083
37961W        W 6179   4.896  34.306  13.029
37962W        W 6180   8.071  37.763  11.049
37963W        W 6181  20.568  13.591  12.465
37964W        W 6182   5.319  28.561  10.692
37965W        W 6183  26.477  18.307  14.433
37966W        W 6184  37.116  16.740   1.374
37967W        W 6185  22.613  31.923   2.770
37968W        W 6186  30.830   7.231   4.862
37969W        W 6187   1.323  32.083   3.744
37970W        W 6188  16.368  30.615  11.079
37971W        W 6189  37.385  17.635   3.201
37972W        W 6190  22.550  30.513  14.964
37973W        W 6191  38.065  39.846   4.160
37974W        W 6192  26.551  23.052  14.304
37975W        W 6193  23.910   3.751   0.820
37976W        W 6194   3.884  17.945  11.553
37977W        W 6195  16.175   1.489   3.843
37978W        W 6196  35.081  24.870   1.967
37979W        W 6197  14.804  22.025  12.867
37980W        W 6198  23.518  13.737   4.510
37981W        W 6199  23.198   4.049   1.961
37982W        W 6200  28.690  17.705   2.839
37983W        W 6201   1.371   5.846   3.856
37984W        W 6202  25.238   0.933   3.094
37985W        W 6203  19.537  11.242  11.734
37986W        W 6204  32.836  41.985  14.731
37987W        W 6205   9.395  22.217  12.407
37988W        W 6206  40.926  18.075   3.780
37989W        W 6207   2.651  43.242   2.291
37990W        W 6208  19.656  26.481   5.167
37991W        W 6209  33.128  14.656   1.242
37992W        W 6210  31.849  21.830   4.095
37993W        W 6211  26.216  21.879   4.035
37994W        W 6212  13.082  43.916   0.969
37995W        W 6213  15.621  42.323  10.145
37996W        W 6214  15.094  31.582  11.533
37997W        W 6215  11.148   2.083   3.724
37998W        W 6216  12.772  28.878   2.614
37999W        W 6217  40.062  19.169   4.505
38000W        W 6218  26.888   4.428   3.945
38001W        W 6219  11.556  38.490  10.783
38002W        W 6220  35.370  39.146   2.814
38003W        W 6221  35.463  22.128  10.420
38004W        W 6222  34.435  13.050  10.670
38005W        W 6223  16.787   9.823   1.161
38006W        W 6224  23.190  20.768   2.704
38007W        W 6225  41.750  22.633   0.849
38008W        W 6226   3.890  13.562   4.284
38009W        W 6227  19.494  24.274  13.941
38010W        W 6228  32.463  16.836   3.017
38011W        W 6229  36.238  34.189  11.085
38012W        W 6230  19.096  43.958  13.916
38013W        W 6231   0.840  42.074  10.512
38014W        W 6232  40.759  28.091   4.575
38015W        W 6233  10.125   7.910   3.644
38016W        W 6234  32.357  23.427  14.776
38017W        W 6235  43.366  14.685  13.490
38018W        W 6236  18.138  30.924  14.940
38019W        W 6237   2.721  31.134  10.420
38020W        W 6238   5.407  44.543   2.750
38021W        W 6239  30.945  11.279   1.397
38022W        W 6240   2.502  37.902   4.914
38023W        W 6241  15.482  17.858   3.717
38024W        W 6242  20.994  41.908   1.746
38025W        W 6243  16.624  27.444  14.373
38026W        W 6244  10.678   3.480   0.971
38027W        W 6245  26.637  11.353  13.431
38028W        W 6246  17.352  25.159  12.116
38029W        W 6247  28.868   2.152  10.088
38030W        W 6248   2.174  17.070   1.448
38031W        W 6249  35.882  22.231  11.666
38032W        W 6250  15.946  23.737  12.258
38033W        W 6251  14.166  41.939   2.444
38034W        W 6252   3.353  20.988  11.233
38035W        W 6253  34.577  15.522  14.921
38036W        W 6254  36.083  21.511  14.413
38037W        W 6255  43.434   1.504  14.559
38038W        W 6256   5.441  19.971   4.104
38039W        W 6257   8.656  40.562  11.172
38040W        W 6258  44.916  33.837  12.273
38041W        W 6259   7.704  42.971   2.258
38042W        W 6260  12.167  40.367  14.950
38043W        W 6261  20.122  13.434   5.109
38044W        W 6262  27.728  33.767   4.894
38045W        W 6263  19.631  44.186  14.078
38046W        W 6264   3.859  12.805  12.893
38047W        W 6265   4.826  28.725  10.498
38048W        W 6266   4.190  20.031   3.414
38049W        W 6267   3.794  27.460   1.335
38050W        W 6268  34.016  14.605   3.182
38051W        W 6269  32.841  38.163  13.826
38052W        W 6270  31.883  15.631   1.217
38053W        W 6271  33.942   5.500   0.503
38054W        W 6272  43.772  37.121   3.953
38055W        W 6273  18.101   6.082   3.100
38056W        W 6274   7.606  40.455  14.329
38057W        W 6275   3.865  40.149   4.209
38058W        W 6276  20.545   4.537   1.401
38059W        W 6277   1.995   9.774  14.456
38060W        W 6278   3.201  31.884   3.552
38061W        W 6279  14.384   5.206   1.285
38062W        W 6280  43.437   5.400  11.599
38063W        W 6281  42.758   9.751   0.487
38064W        W 6282  30.952  32.033  14.288
38065W        W 6283  15.023  22.973  12.049
38066W        W 6284   0.759  26.612  12.094
38067W        W 6285  31.213  41.304   0.378
38068W        W 6286  27.006  12.272   3.289
38069W        W 6287  40.877  15.365  14.319
38070W        W 6288   8.315  31.905   2.100
38071W        W 6289  28.664  24.060   0.521
38072W        W 6290  32.587   1.443  12.933
38073W        W 6291  15.753  15.828   1.862
38074W        W 6292  19.158   0.710  14.749
38075W        W 6293  22.227  11.073  12.549
38076W        W 6294  25.416  24.546   4.429
38077W        W 6295   5.720   6.801  11.173
38078W        W 6296  18.305  17.770  14.332
38079W        W 6297  38.615  30.184   2.737
38080W        W 6298  31.461  16.475   5.424
38081W        W 6299  25.652  43.408  14.983
38082W        W 6300   1.796  33.441  10.835
38083W        W 6301  28.632  28.477   2.832
38084W        W 6302  36.297  34.693  11.137
38085W        W 6303  36.661  33.092  12.861
38086W        W 6304  33.912   1.974   4.620
38087W        W 6305  38.300  22.030   0.347
38088W        W 6306  42.968   4.341   4.324
38089W        W 6307   5.066  24.067  10.760
38090W        W 6308  17.671  10.135   4.688
38091W        W 6309  32.247  23.550   4.688
38092W        W 6310   0.917  16.455   1.408
38093W        W 6311  43.833  23.975   1.939
38094W        W 6312   4.696  31.669  10.188
38095W        W 6313  40.715  30.899  11.089
38096W        W 6314  38.532  25.689   3.728
38097W        W 6315   4.216   1.853   1.815
38098W        W 6316  17.267  30.893  12.829
38099W        W 6317  36.466  41.478   2.932
38100W        W 6318  39.007  24.720   3.303
38101W        W 6319  31.530   4.472  12.556
38102W        W 6320  23.019  24.658  12.842
38103W        W 6321  32.444  44.750   3.878
38104W        W 6322  15.500   0.842  11.539
38105W        W 6323  44.959  24.563  13.669
38106W        W 6324  37.763  33.667   1.700
38107W        W 6325  15.761  43.313  14.612
38108W        W 6326  25.220  27.068   0.883
38109W        W 6327  37.920  13.518  11.244
38110W        W 6328  16.210  34.512   2.919
38111W        W 6329  21.715  30.155  11.591
38112W        W 6330  28.451  24.731  14.441
38113W        W 6331  33.585  39.314  13.321
38114W        W 6332   5.288  16.656   3.686
38115W        W 6333  41.205  40.388   1.215
38116W        W 6334  27.464  41.877   3.478
38117W        W 6335  24.351   3.274   5.088
38118W        W 6336  44.032  33.279   4.299
38119W        W 6337  19.995  24.648   1.240
38120W        W 6338  25.575  33.087  11.905
38121W        W 6339   9.419   8.747  12.232
38122W        W 6340  42.283  28.386  14.448
38123W        W 6341  10.555   5.112  12.459
38124W        W 6342  26.500  16.071  14.554
38125W        W 6343  10.793  17.176  12.167
38126W        W 6344  24.744  27.543   1.245
38127W        W 6345  34.536  25.722   4.096
38128W        W 6346   2.833  15.255   4.220
38129W        W 6347  36.080  19.281   2.058
38130W        W 6348  23.253  33.716  11.516
38131W        W 6349   5.439  19.408  14.934
38132W        W 6350  24.013  21.158   3.277
38133W        W 6351   3.693  19.164  13.955
38134W        W 6352  21.086   7.560  12.359
38135W        W 6353  21.340  37.637  13.533
38136W        W 6354  27.176  12.118   4.063
38137W        W 6355  24.791  23.033   2.436
38138W        W 6356  44.519  25.781  13.005
38139W        W 6357  22.053  10.877  13.408
38140W        W 6358  27.049  29.917  14.930
38141W        W 6359  10.147  33.581   4.818
38142W        W 6360  39.074  36.657  14.793
38143W        W 6361  38.202  24.481  13.113
38144W        W 6362   6.158   0.383   3.951
38145W        W 6363  29.814  37.360  12.093
38146W        W 6364  15.339  12.540  10.748
38147W        W 6365   3.943  42.217   0.034
38148W        W 6366  14.917  14.351  11.332
38149W        W 6367   9.267  41.939   1.199
38150W        W 6368  44.507  21.455   3.661
38151W        W 6369   3.312  30.502   3.355
38152W        W 6370  24.204  27.192  14.497
38153W        W 6371  27.077  21.277   2.884
38154W        W 6372   4.369  37.911   2.207
38155W        W 6373  19.916  11.498   2.302
38156W        W 6374  14.450  43.857   3.424
38157W        W 6375  23.332  10.895  11.054
38158W        W 6376  15.721   8.474   2.288
38159W        W 6377  39.260   7.720  12.892
38160W        W 6378  26.638  32.102  10.695
38161W        W 6379  20.683  34.978  13.581
38162W        W 6380  11.186  30.176   2.141
38163W        W 6381   9.350  24.652  14.877
38164W        W 6382  33.534  27.116  11.323
38165W        W 6383  28.266  35.563  10.151
38166W        W 6384  14.331  25.882   0.438
38167W        W 6385  31.076   2.274  10.272
38168W        W 6386  26.601  18.107   4.248
38169W        W 6387  33.345   5.837   1.886
38170W        W 6388   8.423  33.952   4.117
38171W        W 6389  21.694  32.675   0.250
38172W        W 6390  14.033  31.799  14.322
38173W        W 6391  11.064  14.793  11.863
38174W        W 6392  35.711  23.694  12.468
38175W        W 6393  44.511   5.891   3.232
38176W        W 6394  44.889  22.036   0.430
38177W        W 6395   4.428  26.751  13.636
38178W        W 6396   2.026  27.366  11.141
38179W        W 6397  42.211  43.735  12.828
38180W        W 6398  16.652  12.662   3.706
38181W        W 6399  38.773  20.576   4.509
38182W        W 6400  22.240  22.554   2.330
38183W        W 6401  27.434  17.599  13.543
38184W        W 6402  23.051  43.041   1.990
38185W        W 6403  11.330  26.261   4.699
38186W        W 6404  22.877  29.652   2.361
38187W        W 6405  16.969   8.336  12.395
38188W        W 6406  44.156  25.321   2.327
38189W        W 6407   6.294  44.466   1.380
38190W        W 6408  30.173  34.770  10.776
38191W        W 6409   5.988  20.906   1.459
38192W        W 6410  32.020   6.443   5.364
38193W        W 6411  11.039   2.627  11.053
38194W        W 6412   2.460  25.164   0.772
38195W        W 6413  18.221  41.626  10.681
38196W        W 6414  39.016  26.018  11.561
38197W        W 6415  25.512  27.852  11.117
38198W        W 6416  23.623  44.186   0.419
38199W        W 6417  27.158  15.100  12.539
38200W        W 6418  11.308   3.731  11.977
38201W        W 6419  19.037   8.725  11.426
38202W        W 6420  17.578  13.202   1.939
38203W        W 6421   5.623   6.931  12.212
38204W        W 6422  25.624   3.507   2.503
38205W        W 6423  21.533  37.129  13.046
38206W        W 6424  12.236  17.313  11.071
38207W        W 6425  44.970  35.408   2.231
38208W        W 6426  20.420  12.895   3.254
38209W        W 6427  27.729   7.746  11.637
38210W        W 6428  34.606  12.572   1.284
38211W        W 6429  30.932  10.230   5.032
38212W        W 6430  23.139  27.444  12.789
38213W        W 6431  14.854  20.199  13.019
38214W        W 6432   5.240  27.019  12.393
38215W        W 6433  33.673  21.092  14.315
38216W        W 6434  16.057  27.439  12.442
38217W        W 6435  39.823  19.621   3.744
38218W        W 6436  27.434  22.797  13.152
38219W        W 6437   9.178   7.396   0.745
38220W        W 6438  25.579  40.369  10.709
38221W        W 6439  38.058  23.524  11.048
38222W        W 6440   4.878  38.474   2.889
38223W        W 6441   5.881  16.863   3.252
38224W        W 6442  23.526  35.658  13.482
38225W        W 6443  17.229   0.520  14.825
38226W        W 6444  15.484  17.200  14.766
38227W        W 6445   8.849  12.845   2.723
38228W        W 6446  22.741  33.364  11.321
38229W        W 6447  38.262  17.712   2.429
38230W        W 6448   9.913   2.477  11.661
38231W        W 6449   8.248  21.506   0.977
38232W        W 6450  24.907  39.385  14.978
38233W        W 6451  25.541  12.329   1.671
38234W        W 6452  43.862  32.732  12.354
38235W        W 6453  20.661  19.655   0.943
38236W        W 6454  11.281  24.157  12.002
38237W        W 6455  10.155  18.059  14.520
38238W        W 6456  10.007  30.092   1.211
38239W        W 6457  28.278  39.759   3.642
38240W        W 6458  38.472   2.128   4.240
38241W        W 6459   6.428  25.062   0.230
38242W        W 6460  19.735  39.086  12.086
38243W        W 6461  36.580  21.159  11.147
38244W        W 6462   7.893  22.643   9.684
38245W        W 6463   7.647   8.205   1.407
38246W        W 6464  39.957   3.686   0.235
38247W        W 6465   5.655  30.612  12.412
38248W        W 6466  43.569   4.418   3.183
38249W        W 6467   9.311  17.589   0.888
38250W        W 6468  28.485  32.419  10.641
38251W        W 6469   7.334   4.185  12.485
38252W        W 6470  23.932  25.165   5.042
38253W        W 6471   2.830  30.725  10.750
38254W        W 6472  12.299  33.272   3.732
38255W        W 6473  29.368  43.450  14.860
38256W        W 6474  26.109  17.700  12.855
38257W        W 6475  19.030  38.034   0.385
38258W        W 6476   9.761  29.109  11.950
38259W        W 6477  13.318   0.863  12.066
38260W        W 6478   6.648  12.373   3.576
38261W        W 6479  34.951   7.824   2.278
38262W        W 6480   9.253   7.337  14.875
38263W        W 6481  22.633   3.692   1.236
38264W        W 6482  10.872  43.493  11.542
38265W        W 6483   1.047  25.900  11.491
38266W        W 6484  40.362  12.803   3.143
38267W        W 6485   3.361   3.477   3.338
38268W        W 6486  13.106   9.122  10.615
38269W        W 6487  25.062   5.661  12.984
38270W        W 6488   0.390  35.644  13.187
38271W        W 6489  35.496  34.611  12.679
38272W        W 6490   1.925  28.082   1.707
38273W        W 6491  14.553  35.603   3.758
38274W        W 6492  31.704  14.099   3.926
38275W        W 6493  25.225   0.761   3.573
38276W        W 6494  42.923   2.975   4.310
38277W        W 6495   5.270  24.050  14.068
38278W        W 6496  21.208   8.522   0.133
38279W        W 6497  41.748  12.076   4.723
38280W        W 6498  28.833  12.446  12.381
38281W        W 6499  26.189   6.996  13.882
38282W        W 6500  23.098  14.917   1.363
38283W        W 6501  44.575   8.889  14.756
38284W        W 6502  23.177  18.628   0.222
38285W        W 6503  25.912  32.208   4.268
38286W        W 6504   2.881  33.834   0.196
38287W        W 6505  36.026  16.305   2.919
38288W        W 6506  43.348   2.742  12.121
38289W        W 6507  13.579  14.653   3.222
38290W        W 6508  14.321  10.045  13.466
38291W        W 6509  25.965  38.206   3.684
38292W        W 6510  29.705  11.178   0.880
38293W        W 6511  30.513   5.500   4.041
38294W        W 6512  31.822  38.949  13.440
38295W        W 6513  41.110  36.015   3.266
38296W        W 6514  10.615  11.708  11.168
38297W        W 6515  36.879  18.769  11.028
38298W        W 6516   7.647  30.160  11.195
38299W        W 6517  22.502   1.320   2.801
38300W        W 6518  35.549  28.829  10.668
38301W        W 6519  17.944  29.714   1.076
38302W        W 6520  15.988  30.531   5.086
38303W        W 6521  37.047  39.782   2.656
38304W        W 6522  15.384  14.632   0.356
38305W        W 6523   9.842  30.078  11.793
38306W        W 6524  13.434  33.810  10.231
38307W        W 6525   6.306  40.733   4.884
38308W        W 6526  39.324  16.199  12.095
38309W        W 6527  16.780  35.887  12.096
38310W        W 6528  43.283  33.297   2.219
38311W        W 6529   6.845   2.177  11.927
38312W        W 6530  28.002  16.151  13.348
38313W        W 6531  10.629  14.901  12.135
38314W        W 6532  34.797   6.730  13.485
38315W        W 6533   3.080  31.897   3.054
38316W        W 6534  44.494  15.504   1.381
38317W        W 6535  22.080  30.702   3.224
38318W        W 6536  29.765   1.016   0.236
38319W        W 6537  23.295  27.525  12.280
38320W        W 6538  29.976   3.389   1.842
38321W        W 6539   9.160  42.841  14.549
38322W        W 6540  28.083  25.219  11.434
38323W        W 6541  44.346  43.470   0.430
38324W        W 6542  42.401  12.139   4.128
38325W        W 6543   4.395   5.917  14.497
38326W        W 6544   6.808  23.971  13.483
38327W        W 6545  33.008  41.179   2.706
38328W        W 6546  16.521  15.122  10.642
38329W        W 6547  33.021  36.640  14.345
38330W        W 6548  18.286  17.774   1.842
38331W        W 6549  19.059  10.141   3.702
38332W        W 6550  25.457  43.437   2.436
38333W        W 6551   0.826  37.092  10.868
38334W        W 6552  44.009  11.195  14.254
38335W        W 6553   9.847   8.053  12.381
38336W        W 6554  13.647  29.377  13.514
38337W        W 6555  35.108  11.280  10.830
38338W        W 6556  14.082   3.585  13.889
38339W        W 6557  12.579  13.158  10.483
38340W        W 6558   2.411  23.732  10.911
38341W        W 6559  43.731  30.536   0.610
38342W        W 6560   1.633  43.208  12.591
38343W        W 6561  16.382  26.545   2.425
38344W        W 6562  10.296   3.412   0.355
38345W        W 6563  27.348  21.635  14.430
38346W        W 6564   3.327  20.360  12.085
38347W        W 6565  20.779  23.229   0.210
38348W        W 6566   9.890  43.796  13.830
38349W        W 6567   5.649  43.518   0.287
38350W        W 6568   9.189  25.661  13.274
38351W        W 6569   9.061  27.416  13.007
38352W        W 6570  11.965   8.864   4.150
38353W        W 6571  29.014   9.225  12.850
38354W        W 6572  44.333  44.701  10.415
38355W        W 6573   8.680  11.642   0.541
38356W        W 6574  37.462  17.519   0.368
38357W        W 6575  13.600   2.542  11.873
38358W        W 6576  29.403  34.571   1.898
38359W        W 6577  18.645  15.534  13.784
38360W        W 6578   4.663  14.335   5.060
38361W        W 6579  19.002  17.002  13.756
38362W        W 6580   7.926  29.996   1.827
38363W        W 6581   3.964  12.698   2.102
38364W        W 6582  11.613  43.544  12.937
38365W        W 6583  16.129  19.100  11.772
38366W        W 6584  13.064   6.343  13.540
38367W        W 6585   3.214   7.234  11.609
38368W        W 6586  25.144  41.796  10.639
38369W        W 6587  17.346  11.591   4.733
38370W        W 6588  37.028  43.268  13.033
38371W        W 6589  42.335  29.158  12.281
38372W        W 6590  14.059  38.318   0.219
38373W        W 6591  10.720  17.651   4.252
38374W        W 6592  20.728   0.781   1.776
38375W        W 6593  42.075   4.419  12.834
38376W        W 6594  44.316  19.549   4.192
38377W        W 6595  19.811  22.671   3.135
38378W        W 6596  12.392   9.442   0.933
38379W        W 6597  33.625  36.080   0.306
38380W        W 6598  25.126  34.072   4.553
38381W        W 6599  32.887  25.195   1.026
38382W        W 6600  26.469   8.845  11.443
38383W        W 6601  20.453  30.992  14.460
38384W        W 6602  21.470  38.031  11.055
38385W        W 6603  25.667  24.594  11.667
38386W        W 6604   0.721  12.622   0.484
38387W        W 6605  17.151  39.556   3.865
38388W        W 6606   6.858   8.334   1.774
38389W        W 6607   8.785  31.635  10.391
38390W        W 6608   6.946   7.219  10.653
38391W        W 6609  40.745   4.442  10.448
38392W        W 6610  29.202  44.213  13.772
38393W        W 6611   9.680  15.071   0.375
38394W        W 6612  22.007  38.460  14.896
38395W        W 6613  15.242  42.872   0.237
38396W        W 6614  40.984   5.855  13.848
38397W        W 6615  40.318  31.417  14.875
38398W        W 6616  37.067  27.990  12.834
38399W        W 6617  42.825  21.480  13.729
38400W        W 6618  39.094  23.067  12.416
38401W        W 6619  20.261  32.914  11.102
38402W        W 6620  20.963  10.096  12.987
38403W        W 6621  36.864  43.486  14.091
38404W        W 6622  16.261   3.861  14.792
38405W        W 6623  11.946  22.557  14.970
38406W        W 6624  24.050  28.941  12.113
38407W        W 6625  16.412   8.088  10.712
38408W        W 6626  41.353  44.929   3.265
38409W        W 6627   5.117  42.499   1.824
38410W        W 6628  15.288  42.897   3.330
38411W        W 6629   3.113  23.637  13.463
38412W        W 6630  15.738  24.704  11.075
38413W        W 6631  30.735   5.649   1.329
38414W        W 6632  39.088  21.429  12.566
38415W        W 6633  32.367   7.525  11.167
38416W        W 6634  10.837  11.872   0.760
38417W        W 6635  29.984  15.957   4.534
38418W        W 6636  33.901   2.976   0.882
38419W        W 6637  21.743  41.236  12.084
38420W        W 6638  38.181  27.259   1.783
38421W        W 6639  33.351  43.418  14.079
38422W        W 6640  20.230  39.565  11.065
38423W        W 6641  41.722  16.279   1.330
38424W        W 6642  10.094  23.301  11.130
38425W        W 6643  20.812  25.990   3.282
38426W        W 6644  43.403  42.725  13.323
38427W        W 6645  17.844  41.948  11.464
38428W        W 6646  28.347  15.589   1.343
38429W        W 6647  16.497  19.967  12.189
38430W        W 6648  19.292  12.743  10.622
38431W        W 6649  22.025  14.051   2.005
38432W        W 6650  41.325   8.632  13.441
38433W        W 6651   2.493  32.453   1.080
38434W        W 6652  27.648  40.843  11.981
38435W        W 6653  24.697  20.582   2.370
38436W        W 6654  20.959  26.985   2.387
38437W        W 6655  39.923  17.680   0.323
38438W        W 6656  12.199  25.477  12.942
38439W        W 6657  41.853   1.365   0.792
38440W        W 6658  42.087  17.237  11.725
38441W        W 6659  32.665  30.160  11.698
38442W        W 6660  12.273  21.484  14.389
38443W        W 6661  23.388   6.208   4.147
38444W        W 6662  22.453  42.272  10.856
38445W        W 6663  17.196  24.896   4.569
38446W        W 6664  20.825  41.583  11.950
38447W        W 6665  28.465  40.269   3.614
38448W        W 6666  28.859  34.840   2.866
38449W        W 6667   4.370  31.577   4.779
38450W        W 6668  40.639  44.790  11.410
38451W        W 6669  32.997  34.743  14.276
38452W        W 6670  14.207  41.002   1.474
38453W        W 6671  17.287  40.485  14.794
38454W        W 6672  36.432  15.541  10.731
38455W        W 6673  40.829  11.449   0.469
38456W        W 6674  10.112   0.824   0.435
38457W        W 6675  37.641  43.426  12.428
38458W        W 6676  25.473  11.847   3.936
38459W        W 6677  36.462  43.266  14.349
38460W        W 6678  36.325   1.450  13.536
38461W        W 6679   3.155   7.776  11.878
38462W        W 6680  12.715  26.961  14.554
38463W        W 6681   0.867  23.776  13.000
38464W        W 6682  36.810   6.510   3.688
38465W        W 6683  29.435  18.039   3.908
38466W        W 6684   9.366   7.733   4.262
38467W        W 6685  13.601  28.113   0.317
38468W        W 6686   0.389  41.661   1.753
38469W        W 6687  31.623  14.802  14.335
38470W        W 6688   7.694  28.093   4.111
38471W        W 6689  31.090  41.505  12.008
38472W        W 6690  33.080  10.616   0.493
38473W        W 6691  38.930  23.867   0.526
38474W        W 6692  36.420  31.719   2.730
38475W        W 6693   3.312  36.445  10.920
38476W        W 6694  41.031   8.407  11.648
38477W        W 6695  12.375  22.969  13.979
38478W        W 6696  15.295  37.870  13.564
38479W        W 6697   7.111  15.123   3.610
38480W        W 6698  31.953  17.539   1.315
38481W        W 6699  41.918  40.987   0.978
38482W        W 6700  19.953  39.495   1.752
38483W        W 6701  30.932  27.142  12.034
38484W        W 6702  27.173  17.129   3.196
38485W        W 6703  27.656  13.700   9.940
38486W        W 6704  26.097  44.545   1.148
38487W        W 6705  33.984  26.149  14.737
38488W        W 6706  36.831  26.149   0.043
38489W        W 6707  42.203  29.056  12.802
38490W        W 6708  30.268  10.562   3.469
38491W        W 6709  37.443  34.638   2.758
38492W        W 6710  43.325   7.698  14.042
38493W        W 6711  15.384  36.491  13.695
38494W        W 6712  42.036  40.466  12.001
38495W        W 6713  11.210  24.477  11.209
38496W        W 6714  31.196  15.316  12.542
38497W        W 6715  43.214  28.138  11.477
38498W        W 6716  13.775  33.411   0.785
38499W        W 6717  37.192   3.968   4.101
38500W        W 6718   3.278  37.057   1.855
38501W        W 6719  15.206  24.043  11.039
38502W        W 6720  36.647  25.279   3.098
38503W        W 6721  22.155  11.818   4.587
38504W        W 6722  38.524  32.909   3.129
38505W        W 6723  38.485  38.608   1.521
38506W        W 6724  11.143  16.535   3.510
38507W        W 6725   3.823  25.116  11.589
38508W        W 6726  18.586  38.408   2.294
38509W        W 6727  32.682   9.241  13.915
38510W        W 6728  20.222  12.281   4.522
38511W        W 6729  17.838  33.406  14.876
38512W        W 6730  39.480   5.036   2.205
38513W        W 6731  30.384  18.866  11.139
38514W        W 6732  20.575   5.641   1.760
38515W        W 6733  18.092  32.393  14.990
38516W        W 6734  42.848  33.932   4.361
38517W        W 6735  11.667  30.438   3.609
38518W        W 6736  39.964  40.787  11.483
38519W        W 6737  15.301  41.506   2.830
38520W        W 6738  29.432   3.761  13.514
38521W        W 6739   3.432  32.621   1.310
38522W        W 6740   6.931   3.702  11.810
38523W        W 6741  26.756  10.935  11.965
38524W        W 6742  39.833   2.357  12.500
38525W        W 6743  26.868   3.897   0.808
38526W        W 6744  28.728  35.317   3.762
38527W        W 6745   0.434  42.283  14.623
38528W        W 6746  14.797  36.615  11.516
38529W        W 6747  44.054   5.354   1.572
38530W        W 6748   7.274  42.799  12.689
38531W        W 6749  22.124  28.658  11.264
38532W        W 6750  38.413   8.923   1.826
38533W        W 6751   8.397  32.165  11.556
38534W        W 6752  21.716  25.493  14.353
38535W        W 6753  33.103   6.866   0.294
38536W        W 6754  29.539  18.169   3.083
38537W        W 6755  39.743  10.722   3.164
38538W        W 6756  26.537  34.306   2.665
38539W        W 6757  21.043  19.446  13.334
38540W        W 6758  13.262  37.873  13.816
38541W        W 6759   8.740  33.069   1.918
38542W        W 6760  44.251  21.973  10.253
38543W        W 6761  19.431  25.722  14.093
38544W        W 6762  23.370   7.115  14.036
38545W        W 6763  30.631  36.060   3.339
38546W        W 6764  27.754  18.684   4.055
38547W        W 6765  10.541   0.403  14.446
38548W        W 6766  42.972  23.027   2.674
38549W        W 6767  14.417  27.438   2.841
38550W        W 6768  20.530  17.133  12.308
38551W        W 6769   7.734  37.108  10.812
38552W        W 6770  41.428   7.587   0.308
38553W        W 6771  41.143  39.542  11.915
38554W        W 6772  18.260  36.365  10.686
38555W        W 6773  40.565  11.905   1.929
38556W        W 6774  23.708  24.738   1.664
38557W        W 6775  19.511  32.799   4.689
38558W        W 6776   8.965  17.492   3.641
38559W        W 6777  23.705  40.997   0.894
38560W        W 6778  25.693  39.083   0.528
38561W        W 6779  36.989  37.104  13.354
38562W        W 6780  42.863  32.389   4.245
38563W        W 6781  43.300  40.053  13.249
38564W        W 6782  22.541  28.566  13.030
38565W        W 6783  33.578  22.639   0.256
38566W        W 6784  37.561  13.327   1.253
38567W        W 6785   8.840  33.333   5.325
38568W        W 6786  44.471  28.195   0.346
38569W        W 6787  16.651  27.501   4.869
38570W        W 6788  13.388  23.239   0.336
38571W        W 6789   9.418  20.112  11.480
38572W        W 6790  40.522  37.475  11.602
38573W        W 6791   1.027   1.686   1.382
38574W        W 6792   0.883  21.150  10.149
38575W        W 6793  44.028  10.478   0.394
38576W        W 6794  26.459   3.153  11.212
38577W        W 6795  23.934  22.264   4.160
38578W        W 6796  23.520   7.363  14.870
38579W        W 6797   0.969  44.158   1.138
38580W        W 6798  35.810  34.036   4.630
38581W        W 6799  35.018  44.828   3.873
38582W        W 6800   7.716  11.216   0.459
38583W        W 6801   0.408  14.532   4.987
38584W        W 6802  38.518  18.318  11.726
38585W        W 6803  31.100  19.185  10.610
38586W        W 6804  15.515  36.483   4.017
38587W        W 6805  17.330  32.569   2.174
38588W        W 6806  27.159  21.211  12.588
38589W        W 6807  10.700  14.024   2.472
38590W        W 6808  18.383  31.576  13.087
38591W        W 6809  42.967  25.886   2.283
38592W        W 6810  16.971  15.354  10.878
38593W        W 6811  29.837  11.901   5.357
38594W        W 6812  44.065   9.187   4.591
38595W        W 6813  31.179  44.939  11.450
38596W        W 6814  10.882  43.464  10.689
38597W        W 6815  16.259  41.847   3.753
38598W        W 6816   4.400  40.786   3.197
38599W        W 6817  25.593  26.316   2.250
38600W        W 6818  39.128  25.043   0.420
38601W        W 6819  21.036  39.034   5.063
38602W        W 6820   6.050  30.972  12.023
38603W        W 6821  21.526  42.466   2.183
38604W        W 6822  14.172  19.714   4.103
38605W        W 6823   9.815  12.070  12.348
38606W        W 6824  28.190  38.581   1.370
38607W        W 6825  30.407  16.524   2.203
38608W        W 6826  34.351  31.537  13.849
38609W        W 6827  10.219  16.237  11.365
38610W        W 6828  34.346  43.884   2.726
38611W        W 6829  12.814  41.466   2.875
38612W        W 6830   4.243  37.956  14.136
38613W        W 6831  26.696  24.027  14.043
38614W        W 6832   8.889  30.587   1.068
38615W        W 6833  36.612  42.295  11.375
38616W        W 6834   9.334  28.884   1.850
38617W        W 6835  33.644   5.275  10.444
38618W        W 6836  34.899  12.139   3.692
38619W        W 6837  17.678  16.771   3.885
38620W        W 6838  23.475  29.068   4.072
38621W        W 6839  30.463  42.209   2.566
38622W        W 6840  37.893  24.789  12.812
38623W        W 6841  10.067  42.437   2.906
38624W        W 6842  37.911  18.819  14.651
38625W        W 6843  14.650  16.268   1.225
38626W        W 6844  43.699  36.664   2.065
38627W        W 6845   4.766  33.937   2.303
38628W        W 6846  34.523   4.277  10.873
38629W        W 6847  28.261  24.592  14.929
38630W        W 6848  41.062  14.876   0.878
38631W        W 6849  12.345  42.085   0.883
38632W        W 6850  35.276  10.090   1.276
38633W        W 6851  21.290  21.298  12.550
38634W        W 6852   7.981  32.111  11.210
38635W        W 6853   5.459   9.185  13.998
38636W        W 6854  26.791  23.825  10.719
38637W        W 6855  29.562   1.947   4.583
38638W        W 6856  38.057  34.666  13.926
38639W        W 6857  19.249  44.938   1.646
38640W        W 6858   3.010   2.448   3.722
38641W        W 6859  25.639  33.449  10.694
38642W        W 6860  29.505  23.133   4.578
38643W        W 6861   0.637  37.671  12.089
38644W        W 6862  20.237   6.481   1.834
38645W        W 6863  12.087  16.603  10.454
38646W        W 6864  20.540  23.044  13.425
38647W        W 6865  43.696  37.228   0.278
38648W        W 6866  19.214   9.790  10.705
38649W        W 6867  21.261  22.520   3.326
38650W        W 6868  38.567  21.326   4.487
38651W        W 6869  29.152  21.153  14.395
38652W        W 6870  21.682  40.569  13.878
38653W        W 6871   0.423  12.350   0.849
38654W        W 6872  41.905  13.717   3.203
38655W        W 6873  13.399  38.611   4.795
38656W        W 6874   0.732  36.272   0.436
38657W        W 6875  13.341  32.454  14.347
38658W        W 6876  30.511  18.835  12.015
38659W        W 6877  42.432  20.568  14.298
38660W        W 6878  35.441  12.101   2.577
38661W        W 6879  11.765  24.006   3.981
38662W        W 6880   8.872  19.878  11.482
38663W        W 6881  29.002  13.879  12.490
38664W        W 6882  13.223  13.906  13.358
38665W        W 6883  23.062  34.207  14.691
38666W        W 6884   0.037  21.287   0.758
38667W        W 6885  38.549  14.858  11.894
38668W        W 6886   0.722  11.528  13.918
38669W        W 6887   3.976  25.884   0.771
38670W        W 6888   6.568  25.985  12.415
38671W        W 6889  26.548  16.612  13.863
38672W        W 6890  21.162  28.505  11.977
38673W        W 6891  30.697  43.378   1.700
38674W        W 6892   4.019   3.972   1.408
38675W        W 6893  29.464  42.779   3.277
38676W        W 6894   7.502   4.863  11.944
38677W        W 6895   2.492  18.737   3.889
38678W        W 6896  34.494  24.831  12.501
38679W        W 6897  24.238  42.064  12.322
38680W        W 6898  29.427   1.527  11.178
38681W        W 6899  28.504   8.969   1.445
38682W        W 6900  26.504  10.500  11.844
38683W        W 6901  41.761  31.040   4.360
38684W        W 6902   9.454  15.737  13.364
38685W        W 6903   2.726   8.897   5.085
38686W        W 6904  20.216  22.607  13.610
38687W        W 6905  11.712  24.945  14.518
38688W        W 6906  44.440  22.009   2.342
38689W        W 6907  11.275  29.241   0.769
38690W        W 6908  40.515  44.519   0.355
38691W        W 6909  21.075  14.244  13.122
38692W        W 6910  11.855  29.501  10.703
38693W        W 6911  24.582  19.709   3.426
38694W        W 6912  13.071  22.060   4.928
38695W        W 6913   6.258  21.633   2.196
38696W        W 6914  34.874  20.093  13.449
38697W        W 6915  42.710  40.549   4.146
38698W        W 6916  40.310  18.148  12.500
38699W        W 6917  36.933  41.915   0.820
38700W        W 6918  32.541  34.553  14.466
38701W        W 6919  36.363  33.362   3.285
38702W        W 6920  29.080  14.045   1.235
38703W        W 6921  32.560  14.163   0.245
38704W        W 6922   6.362  18.750   0.867
38705W        W 6923   6.923  27.829  10.629
38706W        W 6924  28.551  42.207  14.025
38707W        W 6925  41.385  36.777  13.904
38708W        W 6926  27.137   1.257   3.701
38709W        W 6927  22.182   0.785  10.676
38710W        W 6928   5.118  36.867  12.389
38711W        W 6929  15.793  44.973   3.219
38712W        W 6930   7.189   1.918   3.344
38713W        W 6931  38.434  24.238   2.666
38714W        W 6932  29.046  22.584   4.852
38715W        W 6933   7.837  24.187   0.678
38716W        W 6934   8.590   1.929   1.455
38717W        W 6935  17.745  31.176   1.483
38718W        W 6936   3.848  23.399   1.606
38719W        W 6937  18.640  35.299   2.060
38720W        W 6938  27.085  25.795  14.086
38721W        W 6939   4.132  27.121   2.829
38722W        W 6940   0.599   2.369  10.351
38723W        W 6941   1.473  27.198   1.450
38724W        W 6942  16.673  33.108  14.383
38725W        W 6943  43.791  41.850  14.685
38726W        W 6944  33.969  20.970  11.237
38727W        W 6945  31.891  40.043   2.761
38728W        W 6946  41.213   5.806  14.321
38729W        W 6947   9.857  21.771  11.217
38730W        W 6948   3.894  15.808  13.394
38731W        W 6949  31.977  26.141  13.007
38732W        W 6950   2.171  12.706   4.189
38733W        W 6951  17.505  36.501   4.032
38734W        W 6952  35.490  21.979  12.789
38735W        W 6953  20.157  15.074  11.978
38736W        W 6954  27.196  12.811   1.101
38737W        W 6955  12.198   7.244   0.932
38738W        W 6956   1.073  18.540  11.612
38739W        W 6957  42.965   2.293   5.056
38740W        W 6958  21.988  14.078  14.297
38741W        W 6959   9.936  19.157  12.477
38742W        W 6960  30.620  40.364   2.221
38743W        W 6961  10.040   2.833  14.711
38744W        W 6962  13.056  10.257  14.474
38745W        W 6963  25.636  16.803  10.712
38746W        W 6964  41.997   9.605  14.928
38747W        W 6965   0.572  11.694   0.698
38748W        W 6966   5.757  44.085  12.927
38749W        W 6967  25.816   8.719  12.502
38750W        W 6968  30.948   1.173  11.089
38751W        W 6969  26.809   9.106   2.742
38752W        W 6970  34.876  16.097  10.661
38753W        W 6971  15.383  23.176   0.365
38754W        W 6972  14.786   5.454  10.397
38755W        W 6973  44.368   3.676   2.744
38756W        W 6974  42.404  32.915   1.423
38757W        W 6975  30.567  11.846   2.546
38758W        W 6976  25.000  39.994   2.711
38759W        W 6977  30.462  35.157   4.178
38760W        W 6978  23.783  28.784  10.452
38761W        W 6979  35.730  17.230  13.292
38762W        W 6980  35.275  20.965  13.851
38763W        W 6981  36.751   9.131   2.741
38764W        W 6982  16.739  37.960   0.760
38765W        W 6983  20.918  18.469   3.263
38766W        W 6984   1.339   8.765   3.641
38767W        W 6985  24.243  21.495  11.632
38768W        W 6986   7.688   6.725   0.452
38769W        W 6987  27.526  12.282  10.338
38770W        W 6988  16.134   2.694   0.326
38771W        W 6989  29.566   9.722   1.912
38772W        W 6990  36.534  41.699   1.726
38773W        W 6991  24.703  35.065   0.787
38774W        W 6992   7.863  43.268   4.034
38775W        W 6993  42.220  37.806  13.403
38776W        W 6994  30.724  35.184   3.716
38777W        W 6995  25.158  30.487   2.790
38778W        W 6996  13.693   2.069   1.711
38779W        W 6997  42.881  26.851   1.254
38780W        W 6998  30.987  10.117  11.129
38781W        W 6999  44.827  38.665   1.215
38782W        W 7000  36.594   1.008  11.501
38783W        W 7001  26.923   0.560   1.568
38784W        W 7002  33.154  40.027   4.439
38785W        W 7003  34.977  35.587   0.939
38786W        W 7004  20.687  10.205  11.932
38787W        W 7005   1.183  12.932  12.441
38788W        W 7006  42.002   8.261   3.107
38789W        W 7007  12.897   2.247   3.864
38790W        W 7008   8.472  34.863  12.965
38791W        W 7009  21.587   8.372  14.667
38792W        W 7010  31.387  12.633   4.964
38793W        W 7011  32.289  41.063   1.259
38794W        W 7012   7.421  44.474  10.291
38795W        W 7013  34.227  20.498  11.174
38796W        W 7014   0.064  18.664  11.646
38797W        W 7015  36.128  15.065   2.814
38798W        W 7016  44.516  11.729   0.014
38799W        W 7017   2.556  32.770   2.367
38800W        W 7018  13.391  41.509  11.203
38801W        W 7019  32.149  40.609  12.680
38802W        W 7020   7.007  23.034  10.863
38803W        W 7021   0.399  34.973  14.287
38804W        W 7022   3.353  36.837  13.293
38805W        W 7023  10.411   1.424   2.209
38806W        W 7024  30.141  30.636   1.462
38807W        W 7025  13.640  43.405  13.857
38808W        W 7026  27.619  26.957   2.723
38809W        W 7027   7.798  44.064   2.162
38810W        W 7028  18.087  43.887   2.906
38811W        W 7029  18.858  21.239  12.149
38812W        W 7030  25.654   1.821  11.191
38813W        W 7031  13.590   8.306  11.545
38814W        W 7032  27.176   3.585  14.541
38815W        W 7033  11.010  15.172  10.193
38816W        W 7034  43.404  10.368  11.263
38817W        W 7035  23.682  18.403   2.259
38818W        W 7036  26.610  31.680   2.764
38819W        W 7037   5.493  27.917  13.523
38820W        W 7038  22.291  13.451   1.362
38821W        W 7039  32.219   2.798  14.451
38822W        W 7040  23.567  22.069  14.303
38823W        W 7041  29.199  25.957  10.689
38824W        W 7042  17.764  43.000   0.203
38825W        W 7043  39.488   5.912  10.435
38826W        W 7044  39.379  28.509  10.089
38827W        W 7045  29.100   0.382   1.853
38828W        W 7046  21.508  11.883  11.670
38829W        W 7047   9.149   8.779   3.213
38830W        W 7048   1.961  11.454   1.238
38831W        W 7049  37.412  21.478   0.771
38832W        W 7050  42.864  30.399  14.877
38833W        W 7051  37.808  26.511  12.064
38834W        W 7052   2.914   1.457   2.323
38835W        W 7053  26.527   1.743  11.187
38836W        W 7054  31.942  13.120   2.155
38837W        W 7055  32.151  40.886  11.595
38838W        W 7056   7.877  30.519   1.765
38839W        W 7057  31.895  26.538   0.867
38840W        W 7058   2.865  32.779   3.271
38841W        W 7059  23.035  30.141   4.918
38842W        W 7060  23.732  19.170  14.035
38843W        W 7061  39.553   5.757  14.277
38844W        W 7062   2.580  30.164  12.491
38845W        W 7063   9.283  34.792  14.376
38846W        W 7064  39.768  33.122   1.669
38847W        W 7065  37.130  19.172   0.270
38848W        W 7066   8.984  36.816   0.834
38849W        W 7067  19.563  10.179  10.650
38850W        W 7068  13.401   3.546  12.893
38851W        W 7069  35.080  21.507   0.251
38852W        W 7070   8.713  35.914  12.600
38853W        W 7071  28.930  38.888   4.560
38854W        W 7072  36.438   5.035   4.593
38855W        W 7073  39.540  35.367  14.794
38856W        W 7074  27.046  28.122  10.271
38857W        W 7075  41.983  37.006   2.315
38858W        W 7076   5.981  27.009   0.837
38859W        W 7077   0.474  14.689   1.943
38860W        W 7078  10.423  21.027  14.229
38861W        W 7079   1.842  30.371   2.439
38862W        W 7080  13.152  22.376   1.953
38863W        W 7081   7.225  32.946  13.846
38864W        W 7082   8.320  22.591  11.288
38865W        W 7083  27.073   5.389  13.382
38866W        W 7084  16.748  14.366   2.233
38867W        W 7085  28.980  28.276  11.472
38868W        W 7086  39.220  42.787  12.219
38869W        W 7087  13.313   0.032   2.788
38870W        W 7088  31.216  21.051  11.660
38871W        W 7089  26.760   7.439   4.233
38872W        W 7090  40.934   4.456   3.378
38873W        W 7091  13.333   5.238   4.610
38874W        W 7092  13.584  23.775   3.289
38875W        W 7093  39.894  12.106  10.717
38876W        W 7094  29.185   6.800   1.682
38877W        W 7095  42.263  11.853   4.808
38878W        W 7096  30.651   8.264   3.938
38879W        W 7097   1.169  20.705  11.951
38880W        W 7098  32.846  20.053  13.046
38881W        W 7099   8.406   3.678   1.689
38882W        W 7100  16.018   5.817   2.687
38883W        W 7101   0.295  17.281   3.448
38884W        W 7102   8.988  25.629   0.897
38885W        W 7103   2.408  27.186   1.733
38886W        W 7104  11.585  27.516   3.754
38887W        W 7105   7.869  15.114   9.717
38888W        W 7106  43.490   9.162   1.425
38889W        W 7107  23.122   1.995  12.420
38890W        W 7108   9.867  25.583  14.072
38891W        W 7109  16.838  33.884   0.674
38892W        W 7110  40.538  35.631   4.184
38893W        W 7111  18.724  26.715  13.042
38894W        W 7112  13.432  11.315   3.015
38895W        W 7113  28.939  16.825  13.453
38896W        W 7114  26.443  10.376   0.325
38897W        W 7115   7.178   2.438   3.174
38898W        W 7116   6.239  13.428  14.141
38899W        W 7117  32.485  30.600  13.003
38900W        W 7118  19.722  43.829   3.699
38901W        W 7119  30.460  35.094  14.225
38902W        W 7120   8.702  30.374  14.854
38903W        W 7121  27.988  16.340   0.281
38904W        W 7122  11.728   4.474  13.029
38905W        W 7123  20.386   3.516  14.947
38906W        W 7124  29.791  37.062   2.733
38907W        W 7125  20.181  13.240  13.440
38908W        W 7126  32.457  18.521   2.641
38909W        W 7127  36.524  26.581   0.135
38910W        W 7128  34.000  12.242   3.578
38911W        W 7129   7.227  40.280   2.649
38912W        W 7130  12.347  36.577  12.879
38913W        W 7131  18.798  14.915   4.138
38914W        W 7132  32.896  17.577  12.111
38915W        W 7133  11.650  20.260   3.251
38916W        W 7134  19.425   8.393  14.386
38917W        W 7135  22.547  32.826  14.289
38918W        W 7136  18.699  18.833   3.178
38919W        W 7137  37.368   7.193  12.661
38920W        W 7138  28.522  35.300   0.300
38921W        W 7139  14.037  10.829  12.009
38922W        W 7140  10.096  30.039   4.266
38923W        W 7141  18.062  25.771   4.634
38924W        W 7142   6.389  19.100  14.540
38925W        W 7143  31.611   5.365  13.466
38926W        W 7144  15.129   3.687   1.949
38927W        W 7145  30.342  37.551  12.560
38928W        W 7146   0.354  26.433  10.328
38929W        W 7147  32.583  44.195  12.611
38930W        W 7148  36.111  25.533  14.312
38931W        W 7149  13.805  21.700   3.571
38932W        W 7150  21.634   1.712  12.741
38933W        W 7151   8.151  17.198  13.063
38934W        W 7152  28.331  44.251  14.772
38935W        W 7153  26.156  31.096  12.995
38936W        W 7154  37.977  44.050  14.096
38937W        W 7155  22.717   3.853   2.882
38938W        W 7156  18.455  15.989  13.924
38939W        W 7157   8.038  30.633  12.134
38940W        W 7158   9.655  33.589  11.176
38941W        W 7159  39.872  32.107   0.775
38942W        W 7160   1.724  24.236  11.626
38943W        W 7161  35.026  12.840   2.002
38944W        W 7162  26.693   5.001   9.971
38945W        W 7163  29.924   9.127  12.964
38946W        W 7164  39.519  33.575  13.510
38947W        W 7165   8.212  35.637   1.353
38948W        W 7166  15.847  28.570  10.756
38949W        W 7167  35.670  27.389  10.152
38950W        W 7168   2.830   9.702   0.604
38951W        W 7169  20.102   0.866  14.309
38952W        W 7170  31.403  22.511  12.525
38953W        W 7171  24.776  33.208   2.742
38954W        W 7172   3.976  36.676   1.442
38955W        W 7173  36.514  33.247   4.208
38956W        W 7174  10.461   0.799  10.774
38957W        W 7175  21.686  26.610   1.833
38958W        W 7176  15.678   3.675  10.735
38959W        W 7177   2.726  33.516  11.721
38960W        W 7178   8.304  13.575   0.659
38961W        W 7179  12.267  39.975  11.160
38962W        W 7180   8.806   8.209   0.678
38963W        W 7181   7.644  20.268   2.394
38964W        W 7182  15.189  34.137  13.940
38965W        W 7183  19.830   3.173  11.173
38966W        W 7184   3.873  33.177  12.875
38967W        W 7185  25.896  10.603   1.771
38968W        W 7186  32.879  43.109   4.135
38969W        W 7187   5.733   8.698   2.326
38970W        W 7188   4.905  28.613  12.018
38971W        W 7189  32.344  22.934   1.591
38972W        W 7190   1.374  25.319   0.301
38973W        W 7191   8.872  32.313  12.387
38974W        W 7192  33.644  29.053   1.085
38975W        W 7193   5.492  44.868  14.143
38976W        W 7194  17.331   2.477   4.572
38977W        W 7195  19.637   6.193   0.187
38978W        W 7196   9.841  20.011   1.551
38979W        W 7197   5.185  11.691   3.219
38980W        W 7198   5.664  33.558   0.354
38981W        W 7199   7.249  42.526  11.817
38982W        W 7200  41.552   4.349   1.859
38983W        W 7201  30.506  26.175  10.965
38984W        W 7202  37.535  13.686   3.304
38985W        W 7203  43.326   3.032   0.336
38986W        W 7204   1.793  34.885   4.361
38987W        W 7205  17.332  28.607  10.620
38988W        W 7206   2.003  39.952   4.083
38989W        W 7207  38.507  26.567  14.821
38990W        W 7208  27.908  18.093   5.029
38991W        W 7209  26.612  20.205   5.165
38992W        W 7210  10.752  14.463   1.906
38993W        W 7211   9.369   2.296   3.799
38994W        W 7212   7.187  22.973  14.039
38995W        W 7213  42.854  43.207   2.268
38996W        W 7214  23.162  11.858   3.653
38997W        W 7215  10.207  24.553  14.445
38998W        W 7216  25.878   7.656  10.469
38999W        W 7217   0.929  17.281   3.628
39000W        W 7218  19.139  17.918  11.293
39001W        W 7219  11.360  29.021   4.523
39002W        W 7220   5.947  15.056  13.552
39003W        W 7221   2.992  13.398   1.104
39004W        W 7222  25.473  36.456   1.796
39005W        W 7223  39.947  12.534   3.272
39006W        W 7224   3.276  15.788   3.164
39007W        W 7225   2.069  34.350   2.669
39008W        W 7226  30.418  15.156   2.204
39009W        W 7227  24.022   7.630  11.576
39010W        W 7228  29.508  28.053   5.221
39011W        W 7229  23.745  44.402   4.974
39012W        W 7230  31.235  10.801   3.750
39013W        W 7231  32.005   0.055   2.206
39014W        W 7232  13.636  14.064   1.375
39015W        W 7233  36.038   2.317  11.889
39016W        W 7234   9.088   8.804  11.260
39017W        W 7235  40.800  37.785   3.667
39018W        W 7236  10.684  27.096   1.940
39019W        W 7237  17.717  15.447  10.344
39020W        W 7238   7.923  24.277  14.818
39021W        W 7239  13.914   5.361   1.746
39022W        W 7240  25.067  16.166  14.517
39023W        W 7241   9.684  26.861   3.748
39024W        W 7242  38.854  23.213  10.492
39025W        W 7243  17.623  44.854   2.205
39026W        W 7244  14.862  11.363  13.005
39027W        W 7245  43.872  18.152  14.966
39028W        W 7246  20.551  36.002   2.172
39029W        W 7247  26.658  14.363  12.502
39030W        W 7248  15.974  42.791   3.717
39031W        W 7249  32.374  11.235  14.060
39032W        W 7250  36.386  28.845  10.801
39033W        W 7251   6.932  22.486  14.583
39034W        W 7252   2.509  38.570  11.142
39035W        W 7253  34.103  28.237  14.902
39036W        W 7254  21.947  19.568   2.218
39037W        W 7255  42.690  14.267  12.364
39038W        W 7256   4.871  12.582   3.214
39039W        W 7257  44.977  19.626   3.608
39040W        W 7258  17.591  11.562   3.103
39041W        W 7259   0.365  24.761   3.429
39042W        W 7260  21.851  30.637   3.783
39043W        W 7261  35.512  29.890   0.468
39044W        W 7262  32.432  19.518   2.845
39045W        W 7263  19.013  16.379  12.488
39046W        W 7264   6.899  32.836  12.587
39047W        W 7265  24.854  27.351  12.093
39048W        W 7266  12.270   8.852   2.272
39049W        W 7267  17.065  44.530  13.789
39050W        W 7268  12.688   6.920   0.692
39051W        W 7269  25.643  39.961  11.068
39052W        W 7270  42.040  32.559  10.965
39053W        W 7271   2.916   4.747  10.664
39054W        W 7272   1.834  23.133  11.139
39055W        W 7273   1.936  26.470  13.298
39056W        W 7274   8.781   8.274   2.273
39057W        W 7275   6.231  38.390   0.873
39058W        W 7276  34.040  38.496  13.457
39059W        W 7277  10.786  33.579   2.856
39060W        W 7278  15.178  43.780   4.195
39061W        W 7279  35.626   4.851  13.385
39062W        W 7280  38.506  37.779  13.841
39063W        W 7281   3.762  19.806   0.452
39064W        W 7282  37.869   1.137   1.242
39065W        W 7283  16.801  39.921   4.068
39066W        W 7284  44.413  17.291  14.971
39067W        W 7285  30.383  14.336  14.820
39068W        W 7286  30.549  12.973  11.165
39069W        W 7287  14.678  13.959   5.101
39070W        W 7288  28.922  37.311  14.383
39071W        W 7289  32.636  40.220   4.097
39072W        W 7290  44.978  40.505   4.626
39073W        W 7291  41.014  25.715  12.601
39074W        W 7292  12.323  15.388  11.625
39075W        W 7293  35.062   7.963   3.135
39076W        W 7294  28.641  26.028   0.357
39077W        W 7295   9.181   4.501   0.375
39078W        W 7296  11.280  23.481   1.706
39079W        W 7297   6.857  39.777   3.196
39080W        W 7298  14.647   4.980  10.241
39081W        W 7299  35.973   4.753  12.396
39082W        W 7300  36.502  34.021   1.181
39083W        W 7301  24.090  14.773  11.214
39084W        W 7302  17.305  33.392  14.913
39085W        W 7303  25.935  24.174   1.801
39086W        W 7304  27.101  17.410   3.634
39087W        W 7305  24.569  23.688   2.576
39088W        W 7306  19.662   7.347   1.295
39089W        W 7307  21.525  39.488   0.838
39090W        W 7308  22.727  16.048  10.445
39091W        W 7309  28.624  38.525  14.015
39092W        W 7310  13.611  36.900  11.092
39093W        W 7311  16.238  28.613   2.720
39094W        W 7312  13.183  14.570   2.808
39095W        W 7313   1.874  12.302  14.850
39096W        W 7314   0.499  24.018  13.612
39097W        W 7315  43.523  23.104   4.289
39098W        W 7316  19.359  26.620   1.862
39099W        W 7317  36.417  19.828  12.417
39100W        W 7318  11.396  39.632  14.078
39101W        W 7319  20.531   7.853   0.306
39102W        W 7320  38.502  32.236  12.829
39103W        W 7321  25.078  40.961  14.930
39104W        W 7322   2.141  39.469  14.961
39105W        W 7323   3.200  40.434  11.199
39106W        W 7324  18.336  25.946   3.682
39107W        W 7325  41.331   2.148   2.337
39108W        W 7326  24.649  44.582   4.107
39109W        W 7327  16.180  17.480   1.383
39110W        W 7328  32.404  26.664   3.177
39111W        W 7329  33.004   6.192  11.662
39112W        W 7330  44.243  23.963   2.786
39113W        W 7331  16.119  25.497  12.947
39114W        W 7332  41.231  29.023   3.085
39115W        W 7333   1.016  19.433  11.669
39116W        W 7334  43.503  20.199   4.569
39117W        W 7335  16.615  33.526   1.000
39118W        W 7336  43.966  28.013   2.253
39119W        W 7337  42.300  23.836  13.382
39120W        W 7338  18.261   5.436   4.255
39121W        W 7339   6.642  28.178  11.837
39122W        W 7340  15.327  14.241  11.630
39123W        W 7341   3.370  44.153  14.536
39124W        W 7342   8.400   1.130   1.262
39125W        W 7343  37.896  37.130  14.919
39126W        W 7344  20.170  36.464   2.917
39127W        W 7345  42.019  38.799   3.803
39128W        W 7346   8.685  36.403  13.956
39129W        W 7347   0.855  29.225  11.165
39130W        W 7348  18.022  10.183  13.392
39131W        W 7349  33.943  35.455  13.613
39132W        W 7350  20.560  31.468  11.187
39133W        W 7351  41.207  30.988  12.505
39134W        W 7352   3.677   9.340   3.323
39135W        W 7353  30.980  33.927   0.395
39136W        W 7354   1.416   0.937  11.182
39137W        W 7355  40.498  38.298  13.526
39138W        W 7356  17.550  30.147  13.809
39139W        W 7357  41.698  38.548   0.911
39140W        W 7358  39.966  21.274  10.618
39141W        W 7359  12.278   7.181   4.216
39142W        W 7360   7.255  36.874   3.481
39143W        W 7361  36.312  16.556  11.738
39144W        W 7362   2.746  19.697   4.219
39145W        W 7363  15.618   4.549   1.676
39146W        W 7364   9.921  41.307  13.316
39147W        W 7365  28.681  29.450   1.332
39148W        W 7366  30.464  35.493   0.533
39149W        W 7367  36.941  42.769  11.996
39150W        W 7368  34.942  44.909   2.888
39151W        W 7369  43.051  19.734   3.072
39152W        W 7370  36.005  12.154  11.066
39153W        W 7371  29.510  26.428   0.694
39154W        W 7372  20.456   6.906   1.633
39155W        W 7373  27.542  27.999   2.653
39156W        W 7374  36.559  42.382   4.324
39157W        W 7375  43.443  15.437   3.627
39158W        W 7376  32.002  28.602   2.218
39159W        W 7377  16.516   5.263  11.962
39160W        W 7378   9.332  20.930  12.672
39161W        W 7379   4.812  18.702  14.506
39162W        W 7380   0.825  33.548  12.937
39163W        W 7381  20.007  10.287   2.955
39164W        W 7382  39.095  20.950   1.764
39165W        W 7383  40.923  30.150  10.663
39166W        W 7384  43.941  15.643  14.234
39167W        W 7385   2.917  34.706  14.023
39168W        W 7386  39.318  40.889  14.751
39169W        W 7387  41.842   3.359  13.475
39170W        W 7388  36.852  33.604  13.012
39171W        W 7389   9.162  12.337   0.860
39172W        W 7390  34.623  12.486   2.700
39173W        W 7391  28.885  40.384  10.785
39174W        W 7392   4.144  30.437  14.526
39175W        W 7393  42.804  29.563  13.037
39176W        W 7394  33.539  16.659   9.680
39177W        W 7395  20.917   6.865   5.304
39178W        W 7396  19.169   5.165  12.665
39179W        W 7397  24.538  23.061   2.898
39180W        W 7398  32.085  15.403  12.433
39181W        W 7399  18.277  41.336  13.989
39182W        W 7400  16.506  17.784   3.825
39183W        W 7401   3.256  21.725  14.351
39184W        W 7402  44.326   5.763   3.718
39185W        W 7403  30.430  27.474  11.552
39186W        W 7404  31.900  17.451   2.708
39187W        W 7405  23.303  25.572  12.802
39188W        W 7406   3.387   4.095   4.580
39189W        W 7407  40.256   3.859   5.114
39190W        W 7408  42.571   7.124  14.718
39191W        W 7409   1.644  11.786   2.118
39192W        W 7410  31.648  20.662   0.894
39193W        W 7411  24.486  15.140  12.175
39194W        W 7412  38.630   0.294  11.667
39195W        W 7413  39.044   9.236   0.388
39196W        W 7414  19.834  18.300   3.599
39197W        W 7415  21.852  14.666  10.769
39198W        W 7416  35.334   8.835  14.428
39199W        W 7417  17.466  12.572  12.623
39200W        W 7418   6.383  36.976  14.831
39201W        W 7419   8.340   4.212   3.652
39202W        W 7420  24.523  12.882   1.883
39203W        W 7421  13.097   6.261  12.852
39204W        W 7422  15.779  37.775   0.815
39205W        W 7423  18.733  42.090  13.130
39206W        W 7424  32.107  27.047   9.803
39207W        W 7425  40.477   8.361  11.629
39208W        W 7426   1.941  20.536   2.395
39209W        W 7427  22.697  23.640   3.561
39210W        W 7428   8.263  16.844   3.200
39211W        W 7429   9.138  24.380   3.179
39212W        W 7430  11.253  40.928  12.562
39213W        W 7431  16.349  40.126  11.999
39214W        W 7432  13.183  29.733  12.586
39215W        W 7433  40.857  29.017  14.897
39216W        W 7434   9.297  29.391  11.955
39217W        W 7435  18.216   5.025  11.617
39218W        W 7436  39.607  35.626  14.343
39219W        W 7437  34.615   2.003  14.877
39220W        W 7438  12.706   2.937  11.693
39221W        W 7439  26.832  20.632  11.433
39222W        W 7440  29.514  34.970  12.755
39223W        W 7441  40.535   1.484   3.598
39224W        W 7442  44.220  26.747   0.407
39225W        W 7443  38.108   1.904   0.696
39226W        W 7444  42.903  38.402  13.550
39227W        W 7445  27.557  26.171   4.100
39228W        W 7446  42.953  35.001   4.595
39229W        W 7447  24.572  26.551   3.329
39230W        W 7448   5.755  21.175  12.335
39231W        W 7449  20.653  10.397  11.442
39232W        W 7450  26.409   4.850   3.817
39233W        W 7451  15.338  21.072  13.434
39234W        W 7452  15.552   9.670   1.689
39235W        W 7453  21.649   7.327   2.653
39236W        W 7454  39.049  36.963   1.031
39237W        W 7455   8.980  28.994   4.635
39238W        W 7456  15.157  31.846  14.359
39239W        W 7457  14.573  22.619  11.999
39240W        W 7458  14.854   3.486  10.345
39241W        W 7459  18.550  15.518   1.310
39242W        W 7460  29.607  36.500   4.643
39243W        W 7461  40.050  32.088  10.765
39244W        W 7462  11.435  42.058   3.654
39245W        W 7463  23.900   0.570  13.231
39246W        W 7464   8.399  13.390   0.184
39247W        W 7465  21.088  39.347   3.050
39248W        W 7466  27.068   5.695   0.907
39249W        W 7467   0.484  33.879   0.872
39250W        W 7468  30.107  16.740  13.996
39251W        W 7469  44.707  10.587   0.781
39252W        W 7470  23.859  29.912  12.989
39253W        W 7471  38.462   1.683   5.255
39254W        W 7472  42.120   2.059  11.570
39255W        W 7473   8.344  35.826  14.770
39256W        W 7474  15.333  44.143  14.607
39257W        W 7475  28.972   0.445   3.164
39258W        W 7476  26.562  44.236   3.616
39259W        W 7477  27.928   0.745   0.833
39260W        W 7478   0.925  20.214  11.983
39261W        W 7479  22.013  41.107  14.506
39262W        W 7480   9.704   3.777  10.551
39263W        W 7481   7.880   1.769   2.848
39264W        W 7482  31.575  37.963   1.716
39265W        W 7483  31.500  43.009   4.311
39266W        W 7484  15.796   2.640  10.388
39267W        W 7485  33.989   9.367   3.278
39268W        W 7486   3.738  10.254  12.129
39269W        W 7487  23.320  37.516  13.418
39270W        W 7488  31.459  38.492   1.475
39271W        W 7489  37.617  16.122   2.884
39272W        W 7490  29.838  23.835  11.756
39273W        W 7491  21.263  44.303   2.407
39274W        W 7492  17.592  23.144   4.743
39275W        W 7493  28.663  31.084   2.266
39276W        W 7494  10.375  32.907  11.065
39277W        W 7495  39.061   2.474  11.299
39278W        W 7496  18.751  31.718   4.449
39279W        W 7497  17.722   2.704   3.330
39280W        W 7498   8.844   2.207  11.023
39281W        W 7499  36.314  29.500  13.359
39282W        W 7500  21.777  44.811  11.741
39283W        W 7501  12.247  36.533  10.658
39284W        W 7502  30.434  31.116   4.767
39285W        W 7503  13.648  42.875  10.125
39286W        W 7504  16.267  35.408   1.535
39287W        W 7505  43.737  27.064   1.106
39288W        W 7506  34.870   3.217  13.547
39289W        W 7507  22.759  38.453   0.717
39290W        W 7508  22.303  25.728   0.406
39291W        W 7509  24.253   8.214  10.725
39292W        W 7510   7.471  25.060   2.928
39293W        W 7511   5.587   4.752   1.443
39294W        W 7512   0.686  17.532   4.005
39295W        W 7513  25.110  21.191  12.849
39296W        W 7514  13.919   2.197  14.344
39297W        W 7515   6.201  17.034   9.813
39298W        W 7516  17.928  24.752  14.321
39299W        W 7517  23.446  26.193  14.070
39300W        W 7518  12.780  26.467  12.322
39301W        W 7519  40.904  14.639   1.338
39302W        W 7520  16.755  37.500   1.794
39303W        W 7521  12.289   4.537  10.901
39304W        W 7522  40.828   3.442   2.611
39305W        W 7523   7.827  15.226  13.631
39306W        W 7524  14.209   0.861  10.312
39307W        W 7525  31.471   6.222  10.543
39308W        W 7526  26.205  14.819   4.216
39309W        W 7527  33.227   5.832  13.408
39310W        W 7528  27.854   5.894  11.158
39311W        W 7529  30.424  34.364  12.616
39312W        W 7530  37.885  31.037  14.522
39313W        W 7531  18.018  12.945   3.650
39314W        W 7532  37.603  30.156  13.481
39315W        W 7533   7.907  36.080   2.078
39316W        W 7534  11.415   5.801   0.304
39317W        W 7535  36.576   5.805   4.206
39318W        W 7536  29.864  32.379   4.414
39319W        W 7537  20.106  25.743  13.513
39320W        W 7538  43.665   7.859   4.745
39321W        W 7539  34.437   2.883   0.912
39322W        W 7540   4.954  30.066  11.181
39323W        W 7541  19.759  39.515  12.671
39324W        W 7542  22.079   8.304   4.520
39325W        W 7543   1.729  38.182   0.786
39326W        W 7544   8.125  23.205  14.045
39327W        W 7545   2.986  31.596  10.680
39328W        W 7546  39.314  40.400   4.287
39329W        W 7547  41.273  32.074  12.443
39330W        W 7548  18.358  44.797   2.485
39331W        W 7549  33.460  19.231   1.912
39332W        W 7550  22.641  10.424   4.398
39333W        W 7551  13.411   4.645  11.358
39334W        W 7552   0.144  12.283  12.995
39335W        W 7553  43.925  44.116   4.860
39336W        W 7554   4.489   6.433   1.764
39337W        W 7555  32.950  22.031  13.105
39338W        W 7556  42.463   7.691   0.427
39339W        W 7557  31.661  37.779  11.284
39340W        W 7558  26.477   1.365   4.246
39341W        W 7559  12.109  22.096  14.801
39342W        W 7560  40.115  30.474   0.422
39343W        W 7561  23.444  17.458  10.702
39344W        W 7562  28.013  15.019   2.862
39345W        W 7563  10.351  23.967  12.998
39346W        W 7564  23.294  35.331   3.755
39347W        W 7565  10.339  21.090   3.090
39348W        W 7566  27.471  22.896   0.753
39349W        W 7567   9.669  43.587   3.169
39350W        W 7568   6.303   3.293   4.562
39351W        W 7569   2.897  18.300   0.201
39352W        W 7570  33.174   0.021  14.666
39353W        W 7571  31.148  44.806  14.516
39354W        W 7572  13.292  10.642  11.531
39355W        W 7573  12.737   4.847  12.963
39356W        W 7574  40.366  35.002  12.145
39357W        W 7575  18.340   1.324  14.089
39358W        W 7576  17.793  39.176  13.640
39359W        W 7577   3.807  34.139   3.610
39360W        W 7578  36.081   7.943  11.934
39361W        W 7579  38.827  11.740   4.549
39362W        W 7580  34.836  10.635   4.519
39363W        W 7581   6.325  24.073  12.721
39364W        W 7582  42.789   8.866   3.140
39365W        W 7583   8.721  35.224  13.283
39366W        W 7584  30.007  18.495  10.944
39367W        W 7585  30.092  44.323  12.186
39368W        W 7586  24.352   3.770  13.098
39369W        W 7587  18.573  42.465   2.879
39370W        W 7588  11.381   5.887  10.750
39371W        W 7589  28.681  14.521   2.584
39372W        W 7590   2.353  44.409   1.646
39373W        W 7591   3.795  25.316  13.531
39374W        W 7592  19.833  29.577  11.091
39375W        W 7593  28.170  37.349   2.803
39376W        W 7594   8.172   2.854  13.950
39377W        W 7595   0.067  42.037  11.118
39378W        W 7596  18.759   9.076   0.576
39379W        W 7597  25.053  18.594   0.110
39380W        W 7598  31.472   2.417   1.330
39381W        W 7599  20.051  40.591  12.129
39382W        W 7600   4.317  16.184  13.989
39383W        W 7601   6.894  19.984  10.589
39384W        W 7602  39.398  14.640  14.468
39385W        W 7603  21.061   0.335  12.425
39386W        W 7604  29.478  17.466  14.958
39387W        W 7605  38.108   9.312   3.491
39388W        W 7606  10.361  14.391  13.394
39389W        W 7607   7.593   3.205  11.633
39390W        W 7608  25.554   7.744   2.511
39391W        W 7609  22.119  12.936  14.809
39392W        W 7610  11.704  18.684   4.689
39393W        W 7611  32.182  30.158  11.513
39394W        W 7612  26.277  26.521  10.753
39395W        W 7613  38.564  44.320   3.740
39396W        W 7614  33.417  42.445  13.968
39397W        W 7615  29.190   3.325   2.804
39398W        W 7616  33.615  19.030  14.924
39399W        W 7617   5.373   1.195  12.465
39400W        W 7618  36.354  24.923  12.833
39401W        W 7619  31.317  16.594   4.194
39402W        W 7620  34.886   0.738  11.517
39403W        W 7621   4.281  14.847   4.113
39404W        W 7622  22.882  24.152  11.567
39405W        W 7623   7.200  33.424  11.181
39406W        W 7624  23.717  29.757  12.054
39407W        W 7625  39.968  29.643   2.111
39408W        W 7626  19.181  40.353  14.836
39409W        W 7627  27.227  19.125  12.000
39410W        W 7628   6.638   2.295  12.363
39411W        W 7629  11.410   2.515   3.632
39412W        W 7630  30.933  25.750  12.789
39413W        W 7631   8.139  19.756  11.267
39414W        W 7632  40.778  44.984  13.128
39415W        W 7633  38.571   0.753   1.701
39416W        W 7634   2.285  19.745  14.494
39417W        W 7635  11.816   0.964  13.769
39418W        W 7636   4.730  39.859   0.894
39419W        W 7637  43.535  37.463  14.531
39420W        W 7638  44.443  34.884   4.168
39421W        W 7639  10.287   5.641  12.355
39422W        W 7640   9.378  15.837  14.350
39423W        W 7641   8.096  39.384   2.193
39424W        W 7642   7.472  27.176   4.802
39425W        W 7643  33.524  41.878  10.110
39426W        W 7644  43.447  33.818  14.018
39427W        W 7645  17.242  37.901   4.863
39428W        W 7646  40.010  25.000  10.694
39429W        W 7647   3.667  26.247  12.082
39430W        W 7648  28.032  31.145  10.415
39431W        W 7649  31.197  29.553  13.563
39432W        W 7650   4.467  27.516   0.814
39433W        W 7651   9.595  35.065   3.327
39434W        W 7652  35.432  10.324   3.226
39435W        W 7653  33.933  34.397   4.568
39436W        W 7654  42.453  18.530  12.850
39437W        W 7655  42.740  44.387   0.642
39438W        W 7656  27.702  14.131  10.224
39439W        W 7657   2.297   5.321  14.378
39440W        W 7658  30.401   9.797  11.993
39441W        W 7659  41.877  34.566   2.313
39442W        W 7660   7.954  40.456   0.194
39443W        W 7661  40.252  26.286  10.856
39444W        W 7662  35.340  26.899  13.509
39445W        W 7663  17.019  11.543   4.332
39446W        W 7664   5.310  22.507  14.337
39447W        W 7665  35.938  41.596  10.512
39448W        W 7666   2.892  41.300   1.315
39449W        W 7667   5.858  27.225  14.894
39450W        W 7668  36.393  18.138  13.856
39451W        W 7669  34.605  31.379   0.406
39452W        W 7670  39.127  34.581  12.132
39453W        W 7671  24.185  43.817   4.166
39454W        W 7672   7.422  19.296   3.650
39455W        W 7673  27.429  15.052  12.066
39456W        W 7674  42.305  24.046   0.878
39457W        W 7675  32.549   0.798  12.464
39458W        W 7676  24.610  43.085  14.035
39459W        W 7677   9.276  19.768   2.144
39460W        W 7678  15.053  19.635   0.201
39461W        W 7679   0.913  43.992   2.104
39462W        W 7680  39.957  30.339  10.763
39463W        W 7681   2.587   8.273  13.423
39464W        W 7682  42.965  34.502   0.087
39465W        W 7683  10.507  37.123  11.098
39466W        W 7684  44.305   8.570   4.683
39467W        W 7685  31.876  35.589  11.964
39468W        W 7686  44.467  11.672   3.653
39469W        W 7687  12.129  40.605  12.246
39470W        W 7688  18.050  19.213  14.907
39471W        W 7689  20.776  10.284   0.794
39472W        W 7690   8.049  43.920  13.654
39473W        W 7691   2.318  30.778  10.958
39474W        W 7692  12.114   2.553  12.131
39475W        W 7693  42.708  24.484  11.913
39476W        W 7694  38.421  34.992  13.729
39477W        W 7695   0.216   5.581  12.844
39478W        W 7696  24.519  34.598  10.578
39479W        W 7697  28.354  13.302   3.451
39480W        W 7698  38.082  22.257  12.987
39481W        W 7699  37.092  12.466  12.515
39482W        W 7700  31.622  18.344   2.631
39483W        W 7701   4.468  30.525  10.543
39484W        W 7702  22.678  41.482  12.902
39485W        W 7703  19.248  10.810  13.067
39486W        W 7704  17.119  15.855  13.842
39487W        W 7705  44.506   0.366   4.071
39488W        W 7706  14.638  35.816   1.262
39489W        W 7707  24.453  22.733   1.690
39490W        W 7708   1.296  11.318   3.893
39491W        W 7709  29.895   5.979   0.519
39492W        W 7710   3.136  42.319   4.135
39493W        W 7711   7.262  15.862  13.969
39494W        W 7712  21.414   3.893  11.601
39495W        W 7713  44.052  40.380  10.845
39496W        W 7714   4.298  29.519  13.392
39497W        W 7715   2.216  34.110   3.362
39498W        W 7716  14.670  20.538   0.657
39499W        W 7717  18.057  17.570   3.550
39500W        W 7718  16.123  10.318  12.607
39501W        W 7719  30.696  27.425   4.609
39502W        W 7720  24.140   1.263   2.241
39503W        W 7721   5.212  31.155  14.199
39504W        W 7722  13.493   8.845   0.490
39505W        W 7723   7.809  19.637   1.167
39506W        W 7724  37.044  37.012  10.715
39507W        W 7725  13.103  18.340   3.693
39508W        W 7726  28.586  11.377   3.216
39509W        W 7727   9.556  19.964  11.014
39510W        W 7728   7.920  28.058  11.506
39511W        W 7729   4.816  13.778  12.008
39512W        W 7730  40.939  18.869  11.611
39513W        W 7731  21.533  17.920   3.741
39514W        W 7732  39.607   8.719  12.903
39515W        W 7733  27.419  41.904  12.441
39516W        W 7734  33.482  27.202   0.426
39517W        W 7735   0.311  41.624  14.018
39518W        W 7736  13.179  12.374  11.111
39519W        W 7737  38.722   6.533  10.899
39520W        W 7738  13.083  17.269   5.038
39521W        W 7739  23.977   4.278   0.811
39522W        W 7740   5.304  20.157  14.822
39523W        W 7741  18.974  26.168  12.587
39524W        W 7742  32.224  44.859  11.581
39525W        W 7743  18.383  32.218   1.873
39526W        W 7744  43.411  14.755  11.173
39527W        W 7745  23.954  44.768   3.385
39528W        W 7746  12.752  38.073   2.978
39529W        W 7747  26.530  17.004  14.990
39530W        W 7748  19.851  37.486   4.289
39531W        W 7749  26.977  43.377   2.179
39532W        W 7750  38.923   2.853   3.449
39533W        W 7751  31.390  27.005   3.161
39534W        W 7752  37.434  20.161  12.813
39535W        W 7753  37.330  11.884  10.539
39536W        W 7754  25.675  22.524   0.970
39537W        W 7755   6.310   1.197   1.794
39538W        W 7756   1.943   4.002   0.964
39539W        W 7757  11.026  12.846   3.886
39540W        W 7758  41.481  29.533  11.085
39541W        W 7759  37.794  18.030   3.187
39542W        W 7760  25.556  18.348  11.592
39543W        W 7761   5.950  44.556  12.822
39544W        W 7762  17.841  19.362  14.071
39545W        W 7763   3.434   5.852  14.849
39546W        W 7764  44.930  34.105   4.540
39547W        W 7765  17.055  15.270   4.438
39548W        W 7766  29.277  19.649  11.912
39549W        W 7767  35.312  33.997   4.881
39550W        W 7768  39.375   7.899   1.807
39551W        W 7769  18.323  26.651  14.011
39552W        W 7770  19.516  14.389   3.794
39553W        W 7771  41.634  21.590  12.568
39554W        W 7772  27.955   8.646  13.764
39555W        W 7773  40.916  27.460  13.561
39556W        W 7774  23.237  36.189  11.465
39557W        W 7775   0.904  10.903   1.228
39558W        W 7776  25.489  36.057  12.357
39559W        W 7777   1.825  42.202   0.280
39560W        W 7778  29.398  37.305   4.051
39561W        W 7779   5.045  26.989   0.335
39562W        W 7780   2.385  23.745   2.406
39563W        W 7781  38.846  22.973  11.398
39564W        W 7782  19.788  22.003  10.740
39565W        W 7783   8.248  23.923  10.677
39566W        W 7784   6.640  41.496  14.464
39567W        W 7785   4.895  42.029   1.874
39568W        W 7786  38.394  20.244   0.443
39569W        W 7787   0.673  26.713   4.132
39570W        W 7788  40.203  13.545   2.734
39571W        W 7789  35.586  14.572   1.388
39572W        W 7790  16.539  29.006  14.724
39573W        W 7791  12.662  28.463   0.157
39574W        W 7792   5.783  37.091  13.841
39575W        W 7793  32.957  28.650   1.727
39576W        W 7794   9.689  28.468  10.804
39577W        W 7795  14.839   5.203   1.585
39578W        W 7796  27.945   1.703   3.263
39579W        W 7797   5.717  37.917  13.405
39580W        W 7798  24.613   4.132  12.760
39581W        W 7799  14.586  34.388  11.253
39582W        W 7800  19.729  14.475  14.295
39583W        W 7801  28.570  30.001  13.901
39584W        W 7802  36.522  40.718   1.896
39585W        W 7803  16.657  33.066  13.440
39586W        W 7804  22.593   5.537   3.756
39587W        W 7805  37.915  13.018   2.797
39588W        W 7806  35.200  13.866  11.181
39589W        W 7807  43.767  27.192   1.628
39590W        W 7808   1.264   5.121  10.159
39591W        W 7809  10.348  44.167   3.375
39592W        W 7810  33.855  41.906  13.081
39593W        W 7811  40.063  35.645   4.452
39594W        W 7812   6.273  14.563   1.900
39595W        W 7813   4.271  28.973   2.935
39596W        W 7814  21.552  42.791   4.231
39597W        W 7815  17.479   4.463  12.973
39598W        W 7816  28.874  39.478   2.369
39599W        W 7817   4.359  26.025  12.471
39600W        W 7818  27.836   1.849   1.164
39601W        W 7819  21.645  23.101   1.766
39602W        W 7820  13.173   7.555  10.765
39603W        W 7821   2.369  35.034  13.445
39604W        W 7822  20.382   1.278  11.930
39605W        W 7823  29.625  31.098   1.883
39606W        W 7824   3.752  41.815  10.531
39607W        W 7825  23.172  39.638   2.632
39608W        W 7826  25.011   6.979   0.580
39609W        W 7827  17.520  24.157  11.155
39610W        W 7828  20.030  10.562   3.727
39611W        W 7829  11.949  41.862   2.664
39612W        W 7830  31.574   9.177  11.529
39613W        W 7831  36.508  42.406  10.368
39614W        W 7832   7.785  22.007  11.664
39615W        W 7833  44.354  12.201   1.400
39616W        W 7834  27.922  16.232  12.848
39617W        W 7835  12.372  44.491  10.611
39618W        W 7836  43.283  30.564   2.397
39619W        W 7837  25.104  38.031  11.629
39620W        W 7838  40.920  12.532   1.975
39621W        W 7839  25.067  24.192  13.257
39622W        W 7840  14.176  14.612   4.543
39623W        W 7841  38.784  42.576  11.994
39624W        W 7842  29.157  40.015  11.242
39625W        W 7843  35.656  19.074   2.347
39626W        W 7844  38.249   2.716  14.802
39627W        W 7845  40.776  24.293   2.745
39628W        W 7846  10.657  15.364   2.566
39629W        W 7847  11.877  27.424   1.004
39630W        W 7848  11.487  13.603  13.324
39631W        W 7849  21.481  41.416  11.228
39632W        W 7850   0.625   7.254  14.264
39633W        W 7851  29.205  13.658   1.726
39634W        W 7852  25.992  36.334  14.369
39635W        W 7853   2.437  33.787   3.685
39636W        W 7854   6.256  12.753  13.385
39637W        W 7855   0.959   5.249   0.921
39638W        W 7856  17.515  15.472  10.820
39639W        W 7857  26.936  44.791  14.533
39640W        W 7858  43.060  14.959   4.281
39641W        W 7859  28.743  21.080   2.722
39642W        W 7860   1.913  29.141   1.056
39643W        W 7861   3.961  31.870   0.270
39644W        W 7862  19.361   4.210   3.643
39645W        W 7863  34.946  11.729  11.071
39646W        W 7864   9.813   3.640   0.418
39647W        W 7865  43.740  18.079   1.400
39648W        W 7866  32.634  28.053  13.809
39649W        W 7867  41.069  37.948   1.787
39650W        W 7868  32.583  23.564  13.364
39651W        W 7869  39.515  21.136   1.515
39652W        W 7870  36.365  26.424   1.411
39653W        W 7871  23.670  16.346   2.203
39654W        W 7872   3.562  10.642  13.415
39655W        W 7873  15.790  15.429  13.437
39656W        W 7874  22.476  34.091  13.336
39657W        W 7875  34.725  23.603  11.631
39658W        W 7876  35.725   1.272   9.973
39659W        W 7877  24.267  26.462   1.756
39660W        W 7878  13.569  18.631  13.920
39661W        W 7879  32.162  12.289  12.202
39662W        W 7880   6.815  36.818   0.879
39663W        W 7881  30.233  41.887  13.338
39664W        W 7882  30.958  42.316  13.260
39665W        W 7883  16.265  37.039  13.889
39666W        W 7884  18.380  12.584   3.681
39667W        W 7885  17.339  33.979  10.346
39668W        W 7886  16.264   0.552   4.816
39669W        W 7887  27.510  40.616  13.362
39670W        W 7888  12.385   4.334  10.435
39671W        W 7889  30.949  12.193  14.790
39672W        W 7890   9.286  31.944   4.676
39673W        W 7891  27.040   4.398   4.432
39674W        W 7892  31.590  43.863  10.829
39675W        W 7893   2.234  31.628   0.813
39676W        W 7894  18.403  10.103   0.693
39677W        W 7895  23.051  16.240  11.278
39678W        W 7896  15.222  13.397   1.272
39679W        W 7897  11.142  39.726   1.007
39680W        W 7898  14.523  10.645   0.175
39681W        W 7899   2.209  28.664  12.393
39682W        W 7900  12.051  33.991   3.934
39683W        W 7901  26.219   8.481  11.114
39684W        W 7902  16.916  19.607   3.878
39685W        W 7903  38.259  11.209   4.652
39686W        W 7904  13.074   1.772   0.273
39687W        W 7905  37.065  42.838   3.244
39688W        W 7906  41.701  33.577   0.507
39689W        W 7907  31.220  35.364   0.992
39690W        W 7908   7.218  25.938  12.951
39691W        W 7909   3.161  10.495   1.854
39692W        W 7910  11.660  22.527   4.715
39693W        W 7911  16.501  43.725   2.034
39694W        W 7912  11.551  41.467   4.967
39695W        W 7913  18.514  13.608   4.126
39696W        W 7914  37.429  18.048  13.525
39697W        W 7915  17.751   4.296  10.697
39698W        W 7916  27.364   3.296  11.125
39699W        W 7917  40.058  25.542   3.974
39700W        W 7918  24.000  30.823   3.167
39701W        W 7919  40.382  13.611   4.720
39702W        W 7920  38.885   5.447   1.748
39703W        W 7921  24.534  28.896   4.769
39704W        W 7922   9.313  27.965   2.513
39705W        W 7923  35.023  26.938   3.762
39706W        W 7924   9.009  34.956  14.789
39707W        W 7925  12.873  32.407   3.313
39708W        W 7926  23.733  39.127  13.602
39709W        W 7927  42.800  19.742  12.050
39710W        W 7928  31.121  16.784  14.001
39711W        W 7929  39.879  24.857  11.171
39712W        W 7930   0.001  24.428   3.219
39713W        W 7931  40.846  24.063  11.466
39714W        W 7932  26.534  22.131   4.511
39715W        W 7933  35.571  37.485  10.582
39716W        W 7934  29.488   6.510  14.993
39717W        W 7935  29.446   1.402   1.368
39718W        W 7936   1.569  36.041   4.050
39719W        W 7937  11.780  28.953  10.238
39720W        W 7938  42.830  20.273  12.073
39721W        W 7939  13.873  28.288   1.584
39722W        W 7940   0.812  10.172   2.347
39723W        W 7941   5.136  33.684   4.908
39724W        W 7942  40.806  44.979   3.300
39725W        W 7943  27.209  30.593   1.371
39726W        W 7944  41.308   6.237  14.013
39727W        W 7945  44.041   9.780  11.150
39728W        W 7946   7.693  17.649   1.395
39729W        W 7947   4.013  14.849   2.280
39730W        W 7948  30.366   1.317   4.220
39731W        W 7949  34.808  18.787   2.884
39732W        W 7950  22.012  40.260   1.184
39733W        W 7951  29.897  10.930   1.858
39734W        W 7952  20.614  37.748   3.665
39735W        W 7953  44.864  15.319  11.609
39736W        W 7954  35.159  16.613   1.181
39737W        W 7955  42.819  30.536  13.443
39738W        W 7956  23.974   2.526   1.832
39739W        W 7957  34.679  12.240   4.152
39740W        W 7958  26.658  38.311  12.508
39741W        W 7959  34.031  33.417   3.317
39742W        W 7960  38.196  33.917  10.462
39743W        W 7961  31.569  30.149   3.995
39744W        W 7962  32.068  44.367  11.389
39745W        W 7963  21.006  30.428  10.105
39746W        W 7964  16.215  44.902  11.315
39747W        W 7965  19.201  29.904   4.152
39748W        W 7966  12.390   2.300  10.680
39749W        W 7967  26.662  21.027   3.127
39750W        W 7968  29.947  24.222   0.944
39751W        W 7969  15.230  10.857   3.584
39752W        W 7970  24.529  16.306   4.147
39753W        W 7971  41.454  39.446   2.661
39754W        W 7972  10.870  30.194   3.300
39755W        W 7973  28.869  38.548   2.313
39756W        W 7974  38.873  40.308  13.420
39757W        W 7975   0.762  22.364   4.251
39758W        W 7976  44.071  31.603  13.062
39759W        W 7977  27.461   0.115   4.482
39760W        W 7978  32.927   5.801  10.390
39761W        W 7979   0.399  28.391   0.684
39762W        W 7980  40.937  19.607  12.994
39763W        W 7981   9.783   3.576   1.762
39764W        W 7982  13.828   4.395  11.939
39765W        W 7983  21.139   1.247  14.273
39766W        W 7984  15.359  19.840  11.034
39767W        W 7985   3.936  33.916  11.026
39768W        W 7986  21.269  33.040   4.185
39769W        W 7987  18.621  26.162  13.339
39770W        W 7988  11.458   0.471   5.340
39771W        W 7989  22.048   1.004   3.256
39772W        W 7990  23.036  29.678   2.841
39773W        W 7991  16.345  31.372   0.761
39774W        W 7992  44.131  39.035  12.068
39775W        W 7993  12.216   7.231  10.701
39776W        W 7994  31.998   9.372  10.676
39777W        W 7995   7.777  39.742  13.861
39778W        W 7996  10.953  33.157   1.343
39779W        W 7997  19.806  38.694   4.163
39780W        W 7998   8.945  37.686  10.726
39781W        W 7999   7.781   5.347  14.015
39782W        W 8000  18.478  15.196  14.501
39783W        W 8001  20.085   4.738   3.100
39784W        W 8002  43.283  20.733  12.588
39785W        W 8003  34.583  32.414   2.785
39786W        W 8004   9.878   6.647   3.591
39787W        W 8005  15.234  37.109   0.785
39788W        W 8006  18.142   4.487  11.587
39789W        W 8007   3.642  42.151  13.638
39790W        W 8008  37.986  22.749  12.929
39791W        W 8009  24.706  13.682   0.381
39792W        W 8010  21.800  31.570   4.694
39793W        W 8011   3.378  40.002  10.172
39794W        W 8012  28.192  44.680  14.521
39795W        W 8013   1.474  40.656  10.872
39796W        W 8014  13.693   5.986   2.707
39797W        W 8015  12.094   3.641   2.228
39798W        W 8016  28.167  31.914   4.505
39799W        W 8017  10.331   0.429   4.746
39800W        W 8018  12.259  44.998  10.572
39801W        W 8019   9.116   6.072   4.812
39802W        W 8020  24.217  40.061   0.768
39803W        W 8021  18.830  36.406   0.352
39804W        W 8022   2.748  15.096   1.389
39805W        W 8023   8.921  34.869  11.137
39806W        W 8024  43.867   7.679   2.992
39807W        W 8025  18.596  43.611  13.243
39808W        W 8026  34.404  29.282  13.046
39809W        W 8027  24.245  41.054   3.954
39810W        W 8028  42.784  12.208  13.428
39811W        W 8029  12.775   1.510  14.866
39812W        W 8030   1.026  12.997   2.817
39813W        W 8031   6.789  39.098  12.488
39814W        W 8032   4.264   0.997  12.397
39815W        W 8033  28.030  35.862   2.050
39816W        W 8034  33.852   5.122   1.973
39817W        W 8035   5.344  29.019   0.949
39818W        W 8036  24.445  22.211   4.059
39819W        W 8037  24.908  17.152   0.096
39820W        W 8038  38.414  10.615  11.644
39821W        W 8039   3.190  17.301  12.337
39822W        W 8040  21.720  17.045  14.341
39823W        W 8041   1.556   4.872   0.940
39824W        W 8042  27.825  21.154  10.507
39825W        W 8043  13.124  33.899  10.647
39826W        W 8044  33.253   4.771   0.713
39827W        W 8045  34.638  12.076   2.174
39828W        W 8046  35.983  29.707   0.416
39829W        W 8047  18.260  16.776   4.198
39830W        W 8048  16.133  33.384   2.176
39831W        W 8049  15.747  16.742   1.400
39832W        W 8050  24.784  38.273   0.683
39833W        W 8051  24.925  42.752  12.036
39834W        W 8052  30.358   8.351  13.415
39835W        W 8053  38.691   2.743   1.877
39836W        W 8054  42.541  41.463   1.247
39837W        W 8055  11.796   6.085   1.323
39838W        W 8056  40.834   0.817  12.361
39839W        W 8057  23.633  38.439   1.822
39840W        W 8058  41.448  32.508   1.112
39841W        W 8059  33.073  15.765   0.706
39842W        W 8060  31.127  33.907  14.541
39843W        W 8061  12.796   3.024  12.553
39844W        W 8062  37.537  31.398   3.899
39845W        W 8063  14.771  30.869  14.930
39846W        W 8064  13.295  42.880   3.714
39847W        W 8065  32.161  14.255   3.572
39848W        W 8066  25.092  40.976   2.321
39849W        W 8067  20.659  42.115  12.202
39850W        W 8068  33.317  41.008   1.369
39851W        W 8069  22.062  21.024   3.597
39852W        W 8070  38.509  21.558  11.903
39853W        W 8071  21.774   6.941   0.223
39854W        W 8072  37.975   9.617  13.277
39855W        W 8073   5.838   1.865   2.781
39856W        W 8074  19.268  21.590   2.321
39857W        W 8075   7.888  22.225   4.174
39858W        W 8076  27.057   8.286  14.433
39859W        W 8077  22.524  12.243  12.946
39860W        W 8078  42.895   3.064  11.682
39861W        W 8079  40.448  31.103   3.591
39862W        W 8080  21.604  39.416  10.814
39863W        W 8081  38.971   3.322  14.265
39864W        W 8082  26.471  33.458   2.267
39865W        W 8083  24.702  29.692  12.905
39866W        W 8084  34.944  16.353  13.492
39867W        W 8085  21.168  14.672   3.303
39868W        W 8086  42.306  25.022  14.754
39869W        W 8087  34.541  39.227   0.115
39870W        W 8088  41.521  31.971  13.745
39871W        W 8089   8.352  23.390  12.595
39872W        W 8090  34.978  20.136   1.776
39873W        W 8091   4.660  42.923   4.236
39874W        W 8092  28.441   1.933   4.734
39875W        W 8093   7.752   7.785   3.665
39876W        W 8094  36.534  36.911   2.637
39877W        W 8095  27.149  18.712   1.767
39878W        W 8096  20.621  30.563   3.282
39879W        W 8097  30.432  23.583  10.774
39880W        W 8098  24.577  33.371  11.064
39881W        W 8099  41.008  28.084   0.795
39882W        W 8100  16.602  27.933  10.898
39883W        W 8101  25.246  10.739  13.038
39884W        W 8102  41.655  41.314   0.236
39885W        W 8103  13.350  33.140   3.221
39886W        W 8104   6.752  22.500   2.298
39887W        W 8105  17.192   6.144   3.624
39888W        W 8106  39.266  43.111   1.809
39889W        W 8107  41.830  10.160   1.279
39890W        W 8108  24.543  22.788   0.361
39891W        W 8109   2.758  44.028  10.921
39892W        W 8110  15.206  26.959   0.507
39893W        W 8111  36.606  36.061   2.363
39894W        W 8112  30.463  40.332   3.648
39895W        W 8113  16.731  11.077   2.853
39896W        W 8114  29.963   1.719   2.501
39897W        W 8115  13.552  37.155  10.648
39898W        W 8116  28.688  17.077  11.534
39899W        W 8117  27.420  41.603  11.557
39900W        W 8118  34.234  15.747  13.930
39901W        W 8119   8.853  24.441  13.322
39902W        W 8120   1.506  11.363  14.124
39903W        W 8121  27.968  27.497  11.567
39904W        W 8122  44.986   8.850   4.238
39905W        W 8123  38.334  10.275  10.036
39906W        W 8124  43.854  11.108   0.844
39907W        W 8125  12.177  41.058   4.580
39908W        W 8126  26.535  16.703   4.554
39909W        W 8127  36.315  40.867  12.635
39910W        W 8128  41.359  15.775   1.891
39911W        W 8129  14.589  20.076   1.826
39912W        W 8130  25.670  14.864   1.245
39913W        W 8131  15.731  11.397  11.010
39914W        W 8132  16.674  25.423   4.323
39915W        W 8133  18.633  22.798  10.249
39916W        W 8134  38.408  35.431  10.724
39917W        W 8135  35.554  18.567  14.061
39918W        W 8136  38.923  17.134   5.122
39919W        W 8137   1.487  41.017   2.156
39920W        W 8138  19.541  34.022   0.316
39921W        W 8139  34.378   8.771  12.128
39922W        W 8140  17.119  29.154  14.383
39923W        W 8141  21.992  26.082  13.832
39924W        W 8142   5.467  11.339   1.238
39925W        W 8143  19.772  10.757  11.892
39926W        W 8144  32.893   9.933  14.785
39927W        W 8145   2.368  36.408  10.502
39928W        W 8146  41.624  31.914  12.100
39929W        W 8147  22.988  28.851   4.276
39930W        W 8148  31.975  32.914  14.361
39931W        W 8149   5.743  34.873   0.015
39932W        W 8150  18.534  40.027  12.974
39933W        W 8151   5.007   2.850   1.923
39934W        W 8152   4.232  20.750   3.996
39935W        W 8153  32.745  10.195  11.022
39936W        W 8154  34.879  21.971  12.436
39937W        W 8155  42.502  42.971   3.519
39938W        W 8156  19.467   5.773   0.700
39939W        W 8157   8.383   4.434  10.791
39940W        W 8158   2.388  13.472  11.138
39941W        W 8159  27.764   9.317   1.762
39942W        W 8160  41.524  16.829  12.440
39943W        W 8161  22.758  36.824   1.765
39944W        W 8162   9.131   8.330   2.668
39945W        W 8163  14.198  33.509   0.519
39946W        W 8164  28.418  42.832  12.018
39947W        W 8165   2.435  29.271  11.057
39948W        W 8166   5.926  44.847   9.821
39949W        W 8167  30.318  14.619  13.412
39950W        W 8168  19.919  19.049   2.751
39951W        W 8169  12.009  27.240  11.289
39952W        W 8170  14.766  13.244  13.585
39953W        W 8171   9.258  13.678   0.318
39954W        W 8172  13.486  13.302   4.585
39955W        W 8173   0.635   3.863  12.022
39956W        W 8174   2.447  14.819   2.044
39957W        W 8175  23.327  19.967   4.872
39958W        W 8176  23.178  43.993  11.469
39959W        W 8177  10.562  12.770   0.076
39960W        W 8178  18.231  43.364   4.249
39961W        W 8179   1.393  17.044   0.901
39962W        W 8180  26.873   0.839  11.183
39963W        W 8181  13.088  10.776  14.634
39964W        W 8182  37.285   1.670   1.742
39965W        W 8183  42.085  20.619   0.430
39966W        W 8184  18.299  14.785  11.975
39967W        W 8185   5.969  38.286   4.184
39968W        W 8186  39.342  27.284   4.721
39969W        W 8187  39.109  13.634  10.721
39970W        W 8188  31.096  19.992  14.824
39971W        W 8189  20.947  18.101  13.991
39972W        W 8190  34.185  33.144  13.217
39973W        W 8191  35.519  13.284  11.994
39974W        W 8192   0.230  27.971   0.935
39975W        W 8193  30.568  32.524   3.204
39976W        W 8194  44.111  21.259   4.928
39977W        W 8195  44.872  24.103   4.222
39978W        W 8196  21.059   1.698  11.059
39979W        W 8197   7.158  22.607   0.740
39980W        W 8198  28.332  39.767   2.767
39981W        W 8199  33.412  11.745   4.088
39982W        W 8200  44.460   4.234  14.061
39983W        W 8201  14.358  19.626   3.097
39984W        W 8202  38.989  41.432   3.910
39985W        W 8203  39.877  25.575   2.964
39986W        W 8204  18.064  37.419  12.490
39987W        W 8205  11.433   3.241   2.319
39988W        W 8206  26.705  23.198  11.938
39989W        W 8207  37.338  18.474  11.185
39990W        W 8208  14.747  44.440  13.989
39991W        W 8209  22.583   8.837   2.725
39992W        W 8210  27.264  40.348   4.699
39993W        W 8211  44.288  24.780   0.325
39994W        W 8212  42.336   3.261  13.512
39995W        W 8213  17.782  43.988  11.116
39996W        W 8214  11.275  17.348   9.867
39997W        W 8215   9.870   4.047  11.357
39998W        W 8216  39.116  10.174  13.833
39999W        W 8217   0.494  33.063   4.131
40000W        W 8218  38.520  34.986   0.614
40001W        W 8219  18.269  11.983   4.472
40002W        W 8220  44.172  20.111   2.907
40003W        W 8221   4.696  38.225   3.491
40004W        W 8222  28.405  21.504  13.458
40005W        W 8223  21.991   5.813  11.623
40006W        W 8224  35.656  21.042   2.914
40007W        W 8225  25.549   7.117   4.582
40008W        W 8226  37.523  26.643  11.100
40009W        W 8227  25.494  13.889  10.729
40010W        W 8228  35.103  33.195   2.810
40011W        W 8229  13.561  38.050   0.055
40012W        W 8230   3.200  22.771  13.538
40013W        W 8231   0.985  26.568  14.071
40014W        W 8232  36.144  35.821   2.339
40015W        W 8233  18.689  38.495  12.358
40016W        W 8234  15.467  28.012   9.959
40017W        W 8235  10.617  38.916  10.650
40018W        W 8236  22.218   5.372   4.508
40019W        W 8237  35.580  38.580  12.435
40020W        W 8238   5.134  27.440  11.431
40021W        W 8239  29.836  24.702  14.480
40022W        W 8240  33.841  33.359   0.269
40023W        W 8241  31.930  27.485  14.267
40024W        W 8242  17.755  31.146  14.091
40025W        W 8243  43.229  40.306   4.185
40026W        W 8244   5.396  10.155  14.869
40027W        W 8245  28.417  30.403   2.785
40028W        W 8246  40.313  15.272   1.942
40029W        W 8247  35.022  30.690  13.628
40030W        W 8248   1.327   1.384  10.912
40031W        W 8249   6.333  13.652   1.864
40032W        W 8250  26.112  19.823   1.887
40033W        W 8251  18.782  18.986  14.081
40034W        W 8252  23.771  10.151   0.001
40035W        W 8253  36.625  17.258  14.325
40036W        W 8254  23.725  26.930  14.576
40037W        W 8255  30.209  19.259   0.644
40038W        W 8256   4.693  28.069  14.262
40039W        W 8257   5.383  39.802  12.884
40040W        W 8258  31.622  37.356   2.758
40041W        W 8259  20.667  43.660  12.896
40042W        W 8260  16.276  17.605   0.868
40043W        W 8261  18.101  24.861  11.699
40044W        W 8262   8.839  16.897  12.950
40045W        W 8263   7.773  30.409  10.107
40046W        W 8264  11.162   7.144  11.512
40047W        W 8265  40.965  20.110   2.821
40048W        W 8266  23.029   8.749   2.433
40049W        W 8267  28.670  40.568  12.984
40050W        W 8268   1.451   9.201  14.800
40051W        W 8269  36.371  21.496   3.246
40052W        W 8270  15.256  24.291   0.825
40053W        W 8271  39.975  28.694  14.775
40054W        W 8272  29.524  15.927  11.022
40055W        W 8273  38.545  27.502  13.788
40056W        W 8274  16.696  17.637   3.349
40057W        W 8275  38.949  33.093   9.886
40058W        W 8276   9.382  28.690  12.566
40059W        W 8277   0.128   7.311  12.440
40060W        W 8278  22.664  40.454  12.391
40061W        W 8279  33.940  23.767   1.703
40062W        W 8280  40.046  33.848  10.505
40063W        W 8281  31.056  15.900  10.658
40064W        W 8282  19.785  37.598  12.400
40065W        W 8283  26.158  18.131  13.094
40066W        W 8284  40.036  16.164   0.385
40067W        W 8285  13.563  22.043   1.949
40068W        W 8286  38.405  16.533  14.323
40069W        W 8287  26.927  34.922   2.157
40070W        W 8288  17.885   6.699   1.908
40071W        W 8289  27.597   1.448   3.583
40072W        W 8290  13.867  16.586   2.220
40073W        W 8291  18.592  27.046  11.678
40074W        W 8292  39.045  43.850   4.568
40075W        W 8293  39.326  44.040   4.176
40076W        W 8294  36.784  40.551  13.936
40077W        W 8295  21.547  19.892  12.117
40078W        W 8296  35.166  18.833  12.285
40079W        W 8297  35.914  39.920  13.550
40080W        W 8298  29.973  40.937   1.131
40081W        W 8299  35.093  40.256   4.123
40082W        W 8300  41.442  29.681  12.021
40083W        W 8301  20.708  31.766  10.796
40084W        W 8302   1.232  30.300  14.381
40085W        W 8303   3.675   7.163  10.758
40086W        W 8304  15.454  29.240   2.263
40087W        W 8305  24.298  36.896  14.139
40088W        W 8306  13.192   4.801   3.246
40089W        W 8307  17.696  21.695  10.873
40090W        W 8308  16.990  22.928   3.338
40091W        W 8309  35.970  36.879   3.852
40092W        W 8310  20.222  38.704  10.758
40093W        W 8311  22.431   9.710  11.680
40094W        W 8312   8.444  28.584   0.719
40095W        W 8313  38.367  28.213  12.481
40096W        W 8314  17.090   2.952   3.633
40097W        W 8315  33.354   7.367  12.631
40098W        W 8316  16.151   3.793   4.064
40099W        W 8317  44.402   9.609  14.394
40100W        W 8318  11.286  44.519   0.959
40101W        W 8319  40.841  11.805  14.264
40102W        W 8320  21.805  13.217   1.354
40103W        W 8321  41.378   3.459  12.926
40104W        W 8322  16.299   0.086  14.933
40105W        W 8323  23.773  18.212   4.182
40106W        W 8324  13.752  19.164   2.329
40107W        W 8325  33.292  32.539   3.723
40108W        W 8326  12.006   2.726   0.708
40109W        W 8327   4.805  13.457  14.902
40110W        W 8328   3.722  44.853   3.725
40111W        W 8329  23.208  15.176  13.759
40112W        W 8330  18.904  44.472   4.471
40113W        W 8331   1.113  10.232   5.088
40114W        W 8332  31.241  41.786  13.310
40115W        W 8333  21.508  35.200   3.224
40116W        W 8334  30.954  21.206  12.091
40117W        W 8335  18.701  43.976  14.265
40118W        W 8336  25.820   0.694   4.862
40119W        W 8337   5.949  13.702   0.693
40120W        W 8338  18.046  30.387   1.445
40121W        W 8339  18.754  40.802  13.263
40122W        W 8340  17.821  28.634  14.898
40123W        W 8341  28.848   4.278  12.519
40124W        W 8342  17.214  19.524  14.850
40125W        W 8343  39.442   0.966  11.803
40126W        W 8344  30.968   7.260  14.454
40127W        W 8345  25.129  13.213   4.550
40128W        W 8346  43.855  21.346  12.882
40129W        W 8347  31.787   6.070  10.180
40130W        W 8348  22.082  29.538  12.987
40131W        W 8349  20.144   3.826   1.945
40132W        W 8350   4.492  43.883   0.386
40133W        W 8351   3.664  18.199  11.178
40134W        W 8352  38.454  39.791  12.982
40135W        W 8353  13.540  29.565   4.290
40136W        W 8354   6.340  12.906  11.477
40137W        W 8355  41.431  41.287   4.671
40138W        W 8356  12.851  24.662  12.429
40139W        W 8357  23.553  26.300   9.990
40140W        W 8358  27.940  33.778   2.439
40141W        W 8359   5.233  34.481  12.281
40142W        W 8360  27.544   4.165  12.519
40143W        W 8361  15.410  36.893  14.791
40144W        W 8362  10.563  35.581   1.273
40145W        W 8363   1.325  23.436  11.977
40146W        W 8364  22.610   5.476   1.917
40147W        W 8365  33.535  13.771  12.955
40148W        W 8366  29.147  11.663  13.553
40149W        W 8367  29.578   6.364  12.900
40150W        W 8368  44.860  29.110   0.621
40151W        W 8369  21.528   1.633  14.474
40152W        W 8370  18.119  18.888   0.297
40153W        W 8371  30.501  13.352  14.048
40154W        W 8372   3.864  28.101   0.702
40155W        W 8373  36.472   1.420   5.238
40156W        W 8374  39.577   1.308  13.928
40157W        W 8375  10.248  31.896  10.280
40158W        W 8376  21.961  25.317   2.197
40159W        W 8377   6.832  19.661  14.227
40160W        W 8378   2.595  16.187   4.228
40161W        W 8379   5.389   2.826  11.433
40162W        W 8380  12.732  29.146   2.160
40163W        W 8381  15.059   7.970   2.629
40164W        W 8382  26.006   4.164   1.806
40165W        W 8383  40.770  21.699   4.180
40166W        W 8384  30.424  12.829  11.657
40167W        W 8385  15.706  11.902  12.034
40168W        W 8386  33.399  35.479  13.896
40169W        W 8387   3.311  34.387  14.015
40170W        W 8388   0.435  43.591   0.865
40171W        W 8389  18.631   1.808   1.831
40172W        W 8390  23.816   5.288  12.170
40173W        W 8391  19.525  44.535   5.162
40174W        W 8392  25.579   6.249  13.567
40175W        W 8393  12.318  31.680   1.248
40176W        W 8394  11.666  34.943   0.830
40177W        W 8395  30.580  40.891   4.877
40178W        W 8396  16.497  37.061   1.811
40179W        W 8397  14.055  14.361  11.697
40180W        W 8398  20.017   8.151   3.672
40181W        W 8399  36.723  42.289  14.314
40182W        W 8400  36.759   4.305  11.182
40183W        W 8401  36.906  25.106  14.339
40184W        W 8402  40.311   1.326  13.416
40185W        W 8403  43.464  15.741  14.463
40186W        W 8404  26.724   7.774   4.637
40187W        W 8405  33.963  24.344  13.978
40188W        W 8406  21.047  22.272   0.243
40189W        W 8407   8.268   5.253   3.547
40190W        W 8408  24.936  20.904   0.211
40191W        W 8409  27.308   1.424  13.091
40192W        W 8410  27.003  43.912   4.619
40193W        W 8411  34.503  15.192   3.377
40194W        W 8412  37.397  28.446  11.492
40195W        W 8413  19.210   5.242  12.164
40196W        W 8414  15.298   9.592   1.244
40197W        W 8415  11.171  19.537  10.726
40198W        W 8416   6.370  33.639   2.002
40199W        W 8417  11.971  32.155   2.166
40200W        W 8418   3.044  13.782  13.053
40201W        W 8419  24.551  29.121  11.283
40202W        W 8420  38.996  37.145  11.932
40203W        W 8421   5.094   4.788   4.049
40204W        W 8422  29.560  15.874   3.076
40205W        W 8423  27.462  21.566  10.450
40206W        W 8424  28.586  29.087  13.262
40207W        W 8425  42.540   5.385   2.471
40208W        W 8426  12.246   9.718  11.865
40209W        W 8427  42.075  26.740   3.311
40210W        W 8428  27.645  34.725   3.309
40211W        W 8429  33.594  26.428   4.475
40212W        W 8430  39.757  15.732   4.428
40213W        W 8431  14.538  41.393  12.090
40214W        W 8432  39.404  43.250   4.705
40215W        W 8433  33.662  36.854  12.560
40216W        W 8434   9.499  42.069   5.177
40217W        W 8435  39.962   2.019   2.902
40218W        W 8436  23.275   8.688   3.858
40219W        W 8437   4.618   1.355  13.481
40220W        W 8438  37.901  18.519   2.361
40221W        W 8439   7.097  21.128   2.106
40222W        W 8440  23.164  34.898  12.669
40223W        W 8441  37.623  42.436   2.772
40224W        W 8442  31.119  14.862   3.774
40225W        W 8443   8.343   1.471   3.551
40226W        W 8444   1.737  14.698  10.901
40227W        W 8445  13.685  33.948   3.251
40228W        W 8446   2.919   9.714  12.438
40229W        W 8447  26.671  41.337   2.180
40230W        W 8448  42.043  31.389   4.098
40231W        W 8449  30.100  21.621   4.866
40232W        W 8450  44.876  23.104  13.355
40233W        W 8451  15.180  42.487  10.325
40234W        W 8452  17.806  40.456  14.827
40235W        W 8453   6.325  12.145   4.402
40236W        W 8454  31.034  17.035   1.200
40237W        W 8455  19.068  35.054   2.648
40238W        W 8456  19.428  43.289   4.520
40239W        W 8457  38.509   8.113  14.727
40240W        W 8458  11.835  33.535   3.784
40241W        W 8459  27.377  25.587   2.812
40242W        W 8460  43.864   9.318   3.725
40243W        W 8461  36.831  11.793   2.821
40244W        W 8462  37.622  41.233  11.650
40245W        W 8463  16.322  36.557   2.586
40246W        W 8464  17.632  35.918   3.299
40247W        W 8465   0.451   9.742  10.666
40248W        W 8466  33.928   8.861   3.242
40249W        W 8467  11.803   2.972  12.903
40250W        W 8468  27.425  27.909  13.793
40251W        W 8469  13.911  25.777   0.692
40252W        W 8470   5.376  16.766  11.122
40253W        W 8471   6.360  20.473   2.808
40254W        W 8472  11.641  26.979   3.808
40255W        W 8473  23.647  15.312   1.908
40256W        W 8474   9.679  12.352   0.843
40257W        W 8475  24.138  43.900  13.939
40258W        W 8476  15.715   0.993   0.939
40259W        W 8477  17.089  12.237   2.753
40260W        W 8478  40.452  12.350   2.185
40261W        W 8479   8.798   1.080  11.842
40262W        W 8480   4.900  15.877  11.725
40263W        W 8481  13.624  29.119   4.083
40264W        W 8482  19.254  22.290   2.869
40265W        W 8483  33.436  14.687   4.787
40266W        W 8484  35.343  21.610   4.212
40267W        W 8485  14.254   3.966   4.609
40268W        W 8486   9.659  30.894   2.154
40269W        W 8487  24.177   0.882  10.552
40270W        W 8488  31.863  16.443  10.337
40271W        W 8489  23.443  31.154   0.539
40272W        W 8490  16.562  40.245   0.421
40273W        W 8491   7.201   0.392   1.411
40274W        W 8492  43.585  13.870  14.029
40275W        W 8493  21.003   4.654   4.099
40276W        W 8494  38.374  43.497   1.736
40277W        W 8495  35.648  28.512   4.667
40278W        W 8496  44.418  11.647   1.271
40279W        W 8497  28.166  40.354   0.976
40280W        W 8498  42.315  24.094   4.135
40281W        W 8499  41.993  38.580   3.320
40282W        W 8500  12.891   1.341  11.063
40283W        W 8501  22.304  18.596   0.813
40284W        W 8502  40.601  31.528  13.042
40285W        W 8503   0.518   2.711  11.656
40286W        W 8504  28.626  21.497  12.988
40287W        W 8505  11.218  23.693  12.951
40288W        W 8506   8.181  37.273  11.060
40289W        W 8507  21.222  33.591   1.780
40290W        W 8508  20.006  11.353  14.075
40291W        W 8509  41.472  43.027  13.445
40292W        W 8510   3.007  10.398  10.889
40293W        W 8511  29.607   6.297   1.026
40294W        W 8512   7.819  19.843  12.381
40295W        W 8513  43.476  40.422  12.327
40296W        W 8514  38.233  14.001   1.263
40297W        W 8515   2.247   8.857   0.599
40298W        W 8516  29.232  18.996  12.433
40299W        W 8517  30.887  35.176   4.582
40300W        W 8518  31.563  31.925  10.725
40301W        W 8519  32.992  20.940  14.851
40302W        W 8520  41.752   0.461  13.312
40303W        W 8521  12.339  44.075  10.907
40304W        W 8522  44.030  21.427  14.043
40305W        W 8523  30.836   3.313   4.037
40306W        W 8524  27.417  21.009   2.635
40307W        W 8525  14.199   5.002   4.746
40308W        W 8526   2.097  42.892  12.497
40309W        W 8527  29.231   0.857   3.337
40310W        W 8528  11.871   0.362   5.050
40311W        W 8529  20.917   1.021   1.356
40312W        W 8530  43.836  32.536   2.492
40313W        W 8531   1.198  14.592  12.072
40314W        W 8532  33.716   0.662   0.793
40315W        W 8533  12.776   5.798   2.637
40316W        W 8534   3.034  34.574  13.009
40317W        W 8535  12.279  29.437  12.970
40318W        W 8536  39.775  10.248   4.454
40319W        W 8537   0.502  22.247  11.278
40320W        W 8538  14.119   3.928   2.409
40321W        W 8539   4.222  21.555   3.194
40322W        W 8540  17.030  31.465  12.590
40323W        W 8541  11.387  10.606   3.259
40324W        W 8542  19.987  28.835  10.659
40325W        W 8543  32.620  23.136   2.474
40326W        W 8544   3.281  32.112  13.569
40327W        W 8545  40.239  21.199  12.959
40328W        W 8546  16.783   8.501   4.104
40329W        W 8547  15.670  31.550  12.855
40330W        W 8548   3.644  31.792  11.547
40331W        W 8549  11.577  13.686   5.008
40332W        W 8550  37.084  22.698   0.289
40333W        W 8551  38.123  36.211  14.868
40334W        W 8552  41.517  22.168  11.572
40335W        W 8553  18.523  40.329   1.408
40336W        W 8554  20.799  34.668   4.459
40337W        W 8555   8.375  34.405   2.238
40338W        W 8556  38.758   7.631  14.844
40339W        W 8557   1.218  31.354   0.350
40340W        W 8558  44.672  15.103  12.958
40341W        W 8559  40.087  27.573  10.730
40342W        W 8560  17.108  13.628   3.226
40343W        W 8561  13.094   0.832   1.764
40344W        W 8562  15.771  11.823   4.115
40345W        W 8563  30.490  31.386  10.603
40346W        W 8564  37.525  13.420  11.560
40347W        W 8565  10.098  38.683  13.764
40348W        W 8566  39.533   6.181   5.074
40349W        W 8567  41.079  11.843  12.933
40350W        W 8568   4.362   6.246   3.744
40351W        W 8569   5.097   3.960   2.733
40352W        W 8570  22.057  14.046   3.453
40353W        W 8571  30.487  14.607   0.254
40354W        W 8572  18.972  10.996  10.683
40355W        W 8573  30.425  11.368  11.621
40356W        W 8574  30.576   0.676  11.224
40357W        W 8575   8.273  29.881   2.872
40358W        W 8576  30.851  17.792  13.592
40359W        W 8577  20.710   9.816   3.833
40360W        W 8578  11.760  19.885  12.522
40361W        W 8579  10.411  43.792   4.222
40362W        W 8580  21.348  14.727  10.677
40363W        W 8581   5.662  14.149  10.712
40364W        W 8582  37.130  28.073   4.973
40365W        W 8583   5.452  30.836   4.210
40366W        W 8584  38.027  32.014   0.247
40367W        W 8585  39.608  13.213   3.715
40368W        W 8586  21.456  17.777   1.942
40369W        W 8587  37.194  34.441  13.998
40370W        W 8588  35.640   1.699  14.716
40371W        W 8589   2.669  35.445  13.441
40372W        W 8590  31.114  17.198  11.665
40373W        W 8591  42.827  21.954   2.771
40374W        W 8592   1.811  43.829  12.018
40375W        W 8593   8.854  18.817   1.967
40376W        W 8594  44.436  17.591   0.423
40377W        W 8595   4.629  34.220  10.109
40378W        W 8596  24.116  33.989   5.115
40379W        W 8597  16.864  32.682   1.338
40380W        W 8598  26.141  19.722  14.372
40381W        W 8599  18.228  39.452   1.348
40382W        W 8600  39.395   0.259  10.589
40383W        W 8601  22.580  42.425  14.984
40384W        W 8602  15.731  34.856   2.883
40385W        W 8603  15.943  19.690  12.428
40386W        W 8604   0.297  35.331   4.351
40387W        W 8605  17.120  37.065   0.865
40388W        W 8606  27.483  10.760  13.518
40389W        W 8607  13.276  22.051  12.052
40390W        W 8608  38.518   9.290   1.218
40391W        W 8609  37.762  15.326   0.222
40392W        W 8610   1.945  15.223   4.535
40393W        W 8611  10.117  42.401  13.851
40394W        W 8612  14.198  10.468   2.747
40395W        W 8613  23.579  28.322  10.513
40396W        W 8614  32.559  39.920   1.015
40397W        W 8615  29.499  36.180   2.278
40398W        W 8616   5.714  19.111  12.414
40399W        W 8617   2.702  34.405   3.326
40400W        W 8618  18.638  16.321  14.962
40401W        W 8619   6.708  40.912  11.351
40402W        W 8620  34.915  15.756   2.834
40403W        W 8621   7.963  15.670  10.874
40404W        W 8622  16.216  12.185   2.479
40405W        W 8623  11.315  28.158  10.707
40406W        W 8624  18.212  29.224   1.840
40407W        W 8625   3.775  25.630  14.012
40408W        W 8626   7.363  26.261   0.001
40409W        W 8627  16.430  14.755   0.564
40410W        W 8628   8.588   6.914   0.260
40411W        W 8629  36.200  38.503   0.466
40412W        W 8630   0.896  40.898   4.503
40413W        W 8631  24.020  23.013   3.679
40414W        W 8632  41.169  33.685  11.065
40415W        W 8633   2.729   6.779  13.629
40416W        W 8634   2.200  26.885  11.141
40417W        W 8635  44.819  36.058  14.088
40418W        W 8636  30.585   3.183   0.323
40419W        W 8637  40.373   8.611  13.565
40420W        W 8638  24.494  31.530  11.397
40421W        W 8639   2.574   4.873  14.481
40422W        W 8640   0.727  37.069  12.964
40423W        W 8641   3.414  32.599  14.504
40424W        W 8642  14.260  19.496  14.669
40425W        W 8643  19.921   1.738   1.461
40426W        W 8644  13.752  11.087  14.909
40427W        W 8645   5.321   0.543  14.745
40428W        W 8646  23.043  34.670  14.953
40429W        W 8647  16.783  41.423  12.157
40430W        W 8648  28.537   2.449   4.863
40431W        W 8649  26.366  11.375  12.150
40432W        W 8650  44.267   7.317   3.216
40433W        W 8651   4.788  39.942   4.299
40434W        W 8652  22.730   4.938   1.801
40435W        W 8653   2.730  27.534  14.493
40436W        W 8654  30.063   7.175  10.698
40437W        W 8655  21.670   4.940   1.689
40438W        W 8656  23.555  44.836  13.475
40439W        W 8657  16.200  11.073  14.508
40440W        W 8658  15.682  25.574   3.552
40441W        W 8659  36.633  34.757  13.165
40442W        W 8660  39.532  18.336   3.620
40443W        W 8661  21.023  44.984  14.175
40444W        W 8662   0.733  17.004   1.654
40445W        W 8663  15.539  16.632   3.574
40446W        W 8664  32.965  21.312   0.524
40447W        W 8665  26.326   4.853   0.388
40448W        W 8666   3.340   3.369   2.398
40449W        W 8667  27.593  11.738  13.597
40450W        W 8668  23.654  18.809  14.996
40451W        W 8669  28.407  38.882  12.416
40452W        W 8670  25.408  27.912  13.884
40453W        W 8671  14.361  34.986   4.247
40454W        W 8672  23.133  32.633  11.965
40455W        W 8673  33.118   4.070   3.659
40456W        W 8674  33.466  37.790   0.939
40457W        W 8675  25.382  39.593  14.920
40458W        W 8676   1.354  32.872  14.380
40459W        W 8677  31.568   6.708   0.950
40460W        W 8678  21.351  35.391  12.565
40461W        W 8679  42.515   4.444  12.509
40462W        W 8680  27.719   2.147   4.299
40463W        W 8681  38.964  19.227  10.941
40464W        W 8682  36.682  32.419   0.833
40465W        W 8683  31.113  32.896  12.565
40466W        W 8684  26.096  26.994  14.795
40467W        W 8685  15.537  37.926  12.093
40468W        W 8686  32.515  18.147   0.665
40469W        W 8687  16.088  20.208  13.657
40470W        W 8688  37.472  38.398  12.420
40471W        W 8689  27.694  29.145  12.620
40472W        W 8690  17.206  19.987  13.929
40473W        W 8691  16.021  30.597   4.109
40474W        W 8692  42.088  15.846   2.948
40475W        W 8693  21.234   8.593   2.228
40476W        W 8694  42.602  34.300   4.901
40477W        W 8695  10.406   4.965  10.589
40478W        W 8696  20.739  41.455   1.748
40479W        W 8697  10.786   6.179   1.039
40480W        W 8698  21.737  33.855  14.870
40481W        W 8699  13.409   2.481   1.269
40482W        W 8700   6.923  13.150  10.639
40483W        W 8701   0.947  22.092   2.115
40484W        W 8702   5.230  42.023   2.695
40485W        W 8703   1.185  40.984   1.734
40486W        W 8704  17.608  40.709   0.250
40487W        W 8705  16.773  11.916   0.469
40488W        W 8706  30.896  18.850  11.066
40489W        W 8707  21.573  35.491   1.434
40490W        W 8708  29.838   4.577  11.740
40491W        W 8709   8.870  35.625   0.805
40492W        W 8710  35.909  15.114  13.510
40493W        W 8711  43.708  16.217  14.515
40494W        W 8712  21.904  43.409   0.351
40495W        W 8713  17.330  43.702   4.177
40496W        W 8714  34.930  11.434  13.601
40497W        W 8715  23.688  19.519   2.856
40498W        W 8716  22.761  14.261   4.677
40499W        W 8717   6.617  17.483  10.694
40500W        W 8718  13.604  29.110   1.941
40501W        W 8719  38.412  35.408   0.885
40502W        W 8720  42.852  38.098  10.416
40503W        W 8721  16.018  20.056   1.967
40504W        W 8722  18.196  21.679   1.237
40505W        W 8723  14.690  13.858   4.599
40506W        W 8724  38.614   3.328  14.875
40507W        W 8725   3.322  21.204  13.491
40508W        W 8726   8.723  30.426   3.800
40509W        W 8727  15.062  11.524  12.497
40510W        W 8728  44.916  16.492   3.835
40511W        W 8729  11.337   8.072   2.897
40512W        W 8730  18.974   4.022  13.843
40513W        W 8731   4.842  27.161   0.819
40514W        W 8732   5.115  20.268   3.149
40515W        W 8733  25.419  34.821  14.773
40516W        W 8734  38.525  16.229  11.597
40517W        W 8735  32.550  12.790  12.579
40518W        W 8736  16.010  23.619   2.236
40519W        W 8737  26.219  25.767   4.492
40520W        W 8738  23.069  30.843   1.296
40521W        W 8739  36.514  16.383   0.575
40522W        W 8740   2.223  20.305   3.641
40523W        W 8741  20.243  41.216  10.658
40524W        W 8742   7.059  12.176   0.911
40525W        W 8743  29.504  41.114  14.263
40526W        W 8744  24.258  35.197   4.659
40527W        W 8745  19.449   1.666   1.244
40528W        W 8746  30.957  40.160   3.541
40529W        W 8747  16.613  34.613   2.596
40530W        W 8748  38.513  39.100  14.204
40531W        W 8749  13.272  28.173  12.603
40532W        W 8750  35.293  18.475  11.908
40533W        W 8751  22.526  44.301   4.159
40534W        W 8752  10.419  24.219  11.016
40535W        W 8753  25.233  11.231  13.874
40536W        W 8754   9.107  21.944   3.199
40537W        W 8755  21.151   8.457  12.544
40538W        W 8756   0.951   7.227  11.137
40539W        W 8757  43.248  22.621   2.897
40540W        W 8758   3.918  36.120   0.171
40541W        W 8759  15.190   2.506   3.057
40542W        W 8760   1.483  43.227  10.504
40543W        W 8761  26.205  30.684  11.064
40544W        W 8762  17.582  23.123   2.740
40545W        W 8763  10.162  23.770   0.535
40546W        W 8764  33.931  19.626  12.629
40547W        W 8765  38.559  32.401   4.544
40548W        W 8766  38.671  32.333  13.325
40549W        W 8767  17.677   7.615   2.857
40550W        W 8768   6.792  44.700   4.278
40551W        W 8769  36.458  25.812  12.946
40552W        W 8770  22.277  27.022  11.603
40553W        W 8771  41.515  33.001  14.309
40554W        W 8772  20.551  13.353  12.969
40555W        W 8773  35.281  34.900   2.166
40556W        W 8774  41.785  40.101  13.579
40557W        W 8775  32.484  44.615  12.148
40558W        W 8776  12.328   1.764  13.903
40559W        W 8777  40.045  13.620   1.404
40560W        W 8778   6.909   4.572  11.477
40561W        W 8779  33.397  16.229  14.933
40562W        W 8780  44.999  17.796   1.815
40563W        W 8781  25.678  10.194   2.796
40564W        W 8782  38.263  13.897  11.412
40565W        W 8783  21.021   8.097   0.384
40566W        W 8784  26.635  12.538  11.182
40567W        W 8785  10.172   2.428  14.993
40568W        W 8786  20.623  18.631  10.738
40569W        W 8787  12.943  42.005   2.619
40570W        W 8788   7.704  43.718   4.203
40571W        W 8789   6.244  22.607   2.186
40572W        W 8790  43.983  26.732   5.027
40573W        W 8791   1.520  34.695   4.863
40574W        W 8792  31.702  33.301   4.281
40575W        W 8793  25.399  28.684   2.190
40576W        W 8794  12.102  30.671   3.788
40577W        W 8795   1.220  23.772  10.794
40578W        W 8796  34.587  12.808   1.741
40579W        W 8797  25.689  43.365   1.960
40580W        W 8798  13.509  18.116   0.931
40581W        W 8799  31.735  29.763   3.187
40582W        W 8800  12.746   3.164  13.355
40583W        W 8801  22.628  15.799   4.147
40584W        W 8802  42.106  36.873   3.844
40585W        W 8803  18.104   6.374   0.909
40586W        W 8804  20.726  23.091   0.695
40587W        W 8805  26.452  36.148   3.272
40588W        W 8806  32.918  31.136  10.754
40589W        W 8807  14.058   9.593  13.514
40590W        W 8808  13.931  29.188  13.899
40591W        W 8809  32.494  13.367   3.257
40592W        W 8810  44.064  39.874  12.093
40593W        W 8811  23.805   4.689  13.087
40594W        W 8812  40.668  24.962   4.256
40595W        W 8813  43.779  17.162  11.964
40596W        W 8814   4.973  28.647   1.771
40597W        W 8815   3.157   6.002   0.751
40598W        W 8816  35.327  24.975   0.754
40599W        W 8817  15.747  23.761  13.119
40600W        W 8818   4.429   5.827   2.891
40601W        W 8819  14.075  10.181   3.141
40602W        W 8820  37.760  27.084  10.390
40603W        W 8821  32.638  33.031   3.862
40604W        W 8822  25.354  12.678   4.005
40605W        W 8823  14.786  19.143   3.709
40606W        W 8824  40.894  23.902  13.343
40607W        W 8825  13.543  12.157  12.035
40608W        W 8826   0.356  27.058   1.194
40609W        W 8827  30.689  27.928  12.389
40610W        W 8828  20.227  27.238  11.974
40611W        W 8829  39.824   2.964   3.876
40612W        W 8830  19.149   6.584   0.154
40613W        W 8831  15.556  26.502  12.511
40614W        W 8832   4.227  38.253   0.174
40615W        W 8833  13.730  10.705   4.605
40616W        W 8834  22.654  22.740  12.390
40617W        W 8835  44.744  10.089   2.797
40618W        W 8836  18.671  42.933  12.403
40619W        W 8837  14.802  15.318   9.939
40620W        W 8838   8.184  36.911  11.887
40621W        W 8839  26.735  12.372   4.153
40622W        W 8840  34.979  26.844   1.510
40623W        W 8841   0.903  18.289   1.457
40624W        W 8842  22.836  17.513  11.998
40625W        W 8843  15.361  26.244  13.974
40626W        W 8844   0.442  31.339  12.572
40627W        W 8845  41.491  21.984   2.704
40628W        W 8846   1.940   7.669   0.024
40629W        W 8847   1.038   8.905   3.186
40630W        W 8848   8.830   0.548  14.923
40631W        W 8849   6.948  15.700   2.679
40632W        W 8850  11.373  18.666  11.127
40633W        W 8851  41.725  27.637   3.294
40634W        W 8852   9.058   6.740  11.536
40635W        W 8853  11.616  18.277   0.379
40636W        W 8854  25.522  16.899   0.897
40637W        W 8855  24.726  38.388   4.105
40638W        W 8856  14.246  23.992  12.102
40639W        W 8857  28.627  35.418   3.257
40640W        W 8858  24.131  28.436  10.673
40641W        W 8859  42.808   3.696  12.992
40642W        W 8860  43.398  27.562   1.689
40643W        W 8861  20.879  14.321   2.394
40644W        W 8862  36.053   7.300   0.965
40645W        W 8863   6.293   3.062   1.477
40646W        W 8864  32.296  14.857  13.085
40647W        W 8865  36.116  16.675   0.419
40648W        W 8866  34.388  42.309  14.778
40649W        W 8867  38.356  27.153  11.574
40650W        W 8868  35.519  16.326  13.705
40651W        W 8869  43.304  18.460   4.139
40652W        W 8870  40.444  25.753   3.604
40653W        W 8871   7.133  17.091   1.886
40654W        W 8872  29.500   9.421  12.958
40655W        W 8873  16.298  44.938   2.600
40656W        W 8874  11.625  44.378   3.260
40657W        W 8875   2.675  41.995  13.823
40658W        W 8876  14.164  12.328   0.714
40659W        W 8877  24.557  20.267   3.100
40660W        W 8878  10.878  44.041   1.812
40661W        W 8879   1.026  40.809   2.208
40662W        W 8880   2.347  11.896   2.773
40663W        W 8881  12.575  36.424  13.362
40664W        W 8882  24.458  12.112   2.032
40665W        W 8883  27.693  13.715   2.592
40666W        W 8884  12.178  11.859  14.904
40667W        W 8885  36.947  38.842   3.066
40668W        W 8886  44.204   5.875  10.410
40669W        W 8887   7.432  36.536   0.931
40670W        W 8888   6.836  39.405  10.655
40671W        W 8889  25.601  39.839   1.195
40672W        W 8890  36.872  41.464   2.128
40673W        W 8891   6.565   6.173  12.639
40674W        W 8892  29.176  24.617  10.888
40675W        W 8893  35.558   6.856  11.658
40676W        W 8894   7.799  39.023   3.767
40677W        W 8895  32.778  42.888  12.459
40678W        W 8896  29.005  26.476   1.504
40679W        W 8897   6.337  11.117  11.033
40680W        W 8898  21.920  20.629   1.429
40681W        W 8899  18.018  32.814   4.580
40682W        W 8900   6.717  28.548   3.334
40683W        W 8901   5.081  33.738   3.306
40684W        W 8902  11.308  40.668   0.446
40685W        W 8903  17.098  13.409   1.734
40686W        W 8904  41.985  28.538  14.866
40687W        W 8905  22.302  13.919  11.335
40688W        W 8906   8.758  11.395  14.276
40689W        W 8907  37.840  30.076  10.849
40690W        W 8908   3.992  11.161   0.839
40691W        W 8909  16.731  11.603   2.893
40692W        W 8910  30.939  17.336   0.775
40693W        W 8911  30.687  42.399  14.380
40694W        W 8912  20.777  30.534   1.957
40695W        W 8913   2.890  39.450   0.639
40696W        W 8914  26.953   9.598  10.306
40697W        W 8915  34.177   9.229   1.829
40698W        W 8916  36.408  39.915   0.006
40699W        W 8917  28.158   2.879  10.200
40700W        W 8918  10.673  34.980  10.709
40701W        W 8919  10.924  39.850  12.634
40702W        W 8920   0.301  42.424   0.335
40703W        W 8921  15.418  23.727   3.382
40704W        W 8922  42.042  13.930  14.302
40705W        W 8923  13.113  42.012   0.425
40706W        W 8924  28.213  18.874  11.163
40707W        W 8925   1.932  22.325  14.455
40708W        W 8926  12.720  29.193  11.967
40709W        W 8927   3.460  44.564   3.365
40710W        W 8928  42.516   1.468  14.524
40711W        W 8929  33.453   3.892   1.231
40712W        W 8930  26.057  35.605   2.995
40713W        W 8931  14.875   4.672   0.908
40714W        W 8932  31.136   4.835  14.260
40715W        W 8933  13.864   7.377  14.907
40716W        W 8934  37.679   0.496  10.346
40717W        W 8935  22.274   8.441   2.669
40718W        W 8936  44.822   3.224   3.299
40719W        W 8937  27.476  19.008   1.391
40720W        W 8938  13.125  19.540  14.847
40721W        W 8939  32.083  34.476   1.182
40722W        W 8940  39.209   1.727  13.919
40723W        W 8941  41.951  23.051  11.496
40724W        W 8942  17.824  21.771  12.410
40725W        W 8943  35.897  12.305  10.568
40726W        W 8944  26.360   4.754   4.732
40727W        W 8945   8.455  14.044   2.902
40728W        W 8946  19.163  33.714   0.954
40729W        W 8947  37.920  30.610   0.280
40730W        W 8948   9.721  24.154  13.318
40731W        W 8949  28.166   1.978   2.603
40732W        W 8950  13.601  12.190   4.097
40733W        W 8951  15.412  12.770   0.275
40734W        W 8952   9.569  18.704  10.722
40735W        W 8953   0.530   6.138   3.268
40736W        W 8954   2.716  43.479  12.330
40737W        W 8955  33.566  20.985  13.015
40738W        W 8956  20.805   4.271   4.655
40739W        W 8957  16.203  39.300   1.492
40740W        W 8958  25.276  13.144  10.444
40741W        W 8959  23.269  16.652   1.122
40742W        W 8960  16.955  17.675  14.818
40743W        W 8961   9.858  37.606   4.031
40744W        W 8962  29.204  44.412   9.939
40745W        W 8963  40.221  26.495   3.181
40746W        W 8964  21.432   0.078   4.245
40747W        W 8965  29.013   1.160  11.821
40748W        W 8966  22.134  26.693   0.192
40749W        W 8967  23.425  22.098  12.821
40750W        W 8968   8.764   6.439  10.927
40751W        W 8969  19.846  20.092  13.987
40752W        W 8970  40.953  15.291  14.834
40753W        W 8971  27.324  13.743   5.098
40754W        W 8972  15.839   6.762   1.149
40755W        W 8973  11.454  35.461   2.192
40756W        W 8974   6.909  42.407  14.191
40757W        W 8975  40.810   0.793   1.287
40758W        W 8976   5.189  24.686   1.810
40759W        W 8977  31.956  25.127   1.005
40760W        W 8978   9.612  21.034   1.759
40761W        W 8979   0.847   8.106  13.926
40762W        W 8980  16.697  31.928   4.643
40763W        W 8981  22.408  24.495  14.511
40764W        W 8982   4.649  28.282  11.263
40765W        W 8983  29.105  12.246   1.289
40766W        W 8984  12.580  16.473  10.635
40767W        W 8985  28.404   1.893  14.443
40768W        W 8986  39.366  10.221  10.235
40769W        W 8987   6.255  43.079  14.523
40770W        W 8988  29.051  34.757  12.595
40771W        W 8989  29.133  42.703  13.875
40772W        W 8990  41.294  28.555  12.950
40773W        W 8991   3.346  11.674  11.610
40774W        W 8992  31.371  35.528  11.931
40775W        W 8993  29.293  28.112   0.163
40776W        W 8994  13.434   5.782  13.082
40777W        W 8995   4.160  19.838   2.930
40778W        W 8996  16.854  41.776   3.045
40779W        W 8997  12.365  25.614   3.229
40780W        W 8998  10.386  24.582   0.764
40781W        W 8999  13.052  37.359  13.883
40782W        W 9000  35.927  27.892   3.659
40783W        W 9001  32.588  19.023   3.240
40784W        W 9002  33.839   3.669   3.210
40785W        W 9003  28.837   6.454  13.358
40786W        W 9004  21.459  19.214  11.610
40787W        W 9005  16.521  43.818  13.024
40788W        W 9006  24.484  18.206  14.353
40789W        W 9007  40.510   1.267   4.075
40790W        W 9008  15.214  42.361   0.140
40791W        W 9009  41.995   9.676   1.161
40792W        W 9010  11.419  15.306  10.627
40793W        W 9011   6.751   5.992  10.875
40794W        W 9012  26.293  32.471  12.144
40795W        W 9013  25.833  29.616  12.086
40796W        W 9014  21.573  42.037   2.896
40797W        W 9015  23.899  17.244   2.900
40798W        W 9016  28.526  22.798  13.009
40799W        W 9017   0.300  37.844   3.123
40800W        W 9018  22.079   8.887   2.962
40801W        W 9019  37.956   8.602  11.460
40802W        W 9020   4.337  29.938   0.402
40803W        W 9021  36.616   3.522   1.967
40804W        W 9022  42.536   2.251   2.841
40805W        W 9023   5.605  26.908   4.060
40806W        W 9024   1.504  22.111  14.266
40807W        W 9025  33.513  10.090  14.055
40808W        W 9026  19.718  32.556  11.571
40809W        W 9027   6.314  37.680   9.945
40810W        W 9028  23.687  34.539   0.440
40811W        W 9029  29.175   6.936   2.665
40812W        W 9030  18.977  17.857   3.093
40813W        W 9031  36.030  24.281  11.690
40814W        W 9032  33.592  43.040   3.574
40815W        W 9033  15.070  13.172   0.281
40816W        W 9034   8.752  42.402  10.652
40817W        W 9035  40.164  36.798  11.759
40818W        W 9036  19.192   1.925  13.878
40819W        W 9037  18.865  31.582   3.963
40820W        W 9038  25.535  44.644   3.254
40821W        W 9039  26.004   5.247   1.605
40822W        W 9040  14.208  34.648  14.603
40823W        W 9041  34.929  23.725   3.406
40824W        W 9042  15.164   5.121   0.876
40825W        W 9043  10.941  26.817   1.185
40826W        W 9044  16.633  35.617  12.516
40827W        W 9045   9.852   9.342  11.585
40828W        W 9046  30.091  11.358   4.141
40829W        W 9047   9.728  12.181  13.880
40830W        W 9048  31.621  28.427  12.277
40831W        W 9049  27.146   7.293  11.243
40832W        W 9050  14.366  42.935   3.583
40833W        W 9051  38.849  36.212  10.323
40834W        W 9052   1.786   3.013  14.926
40835W        W 9053  22.442  29.319   0.824
40836W        W 9054  21.217  20.970  12.068
40837W        W 9055  17.640   7.848  11.445
40838W        W 9056  28.012   3.903  12.480
40839W        W 9057  39.992   0.210   1.968
40840W        W 9058  39.934  29.877   2.985
40841W        W 9059  18.552  38.948  11.057
40842W        W 9060  21.846  36.570   2.463
40843W        W 9061  12.317  14.591   2.608
40844W        W 9062  20.249   9.690  14.297
40845W        W 9063  26.766   9.453  12.004
40846W        W 9064  31.962  39.370  12.550
40847W        W 9065  14.499   7.581   1.925
40848W        W 9066  18.676  26.158  11.451
40849W        W 9067  43.786  14.328  14.552
40850W        W 9068  13.600  30.920  14.404
40851W        W 9069  19.556  18.339  13.164
40852W        W 9070  23.180  43.518  13.512
40853W        W 9071  11.983  25.974  12.965
40854W        W 9072   2.665  43.642   1.358
40855W        W 9073  11.708  12.006   1.457
40856W        W 9074   1.971  37.405  13.605
40857W        W 9075  28.465  17.247  10.050
40858W        W 9076  24.288  10.076   0.015
40859W        W 9077  21.799  21.616  14.928
40860W        W 9078  39.849  19.655   4.610
40861W        W 9079  34.381   6.980  11.140
40862W        W 9080  15.742  43.080   2.337
40863W        W 9081  28.824  28.470  14.386
40864W        W 9082  30.936   4.953   2.745
40865W        W 9083  28.496   1.024   0.285
40866W        W 9084  40.057   8.813  14.301
40867W        W 9085  25.224  34.657   0.280
40868W        W 9086  44.719  43.224   1.299
40869W        W 9087  40.931  27.726  14.473
40870W        W 9088  15.831  13.077  10.257
40871W        W 9089   9.110  43.954  13.228
40872W        W 9090  28.995  16.645  13.941
40873W        W 9091   1.182   5.456   3.584
40874W        W 9092  41.399  31.443   1.892
40875W        W 9093   1.422   7.646  11.587
40876W        W 9094  13.881  35.931  12.470
40877W        W 9095  40.848  25.250  12.362
40878W        W 9096  44.477  27.433   0.948
40879W        W 9097  32.867  38.940  10.359
40880W        W 9098   0.974  14.983  13.989
40881W        W 9099  13.658   2.389  10.360
40882W        W 9100  34.814  20.949  10.696
40883W        W 9101  29.364  42.421   0.511
40884W        W 9102   4.646  12.811  14.089
40885W        W 9103   4.197   9.353   3.324
40886W        W 9104  32.230  42.917   3.643
40887W        W 9105  28.533  34.522   4.215
40888W        W 9106  18.009  27.981   1.307
40889W        W 9107  15.377  18.554   2.733
40890W        W 9108  24.476   5.582  10.663
40891W        W 9109  19.642  24.454  10.919
40892W        W 9110  40.390  32.166   2.586
40893W        W 9111  42.852  22.697  11.714
40894W        W 9112   3.593  39.072  13.039
40895W        W 9113  35.791  29.150  14.754
40896W        W 9114   2.065   8.862  11.097
40897W        W 9115  12.271  44.089   1.663
40898W        W 9116  27.960  44.741   4.148
40899W        W 9117   2.287  22.703  12.916
40900W        W 9118   5.577  33.875   5.182
40901W        W 9119  17.273  41.078  14.363
40902W        W 9120  20.448   1.824   1.496
40903W        W 9121  33.551  33.550  11.902
40904W        W 9122  25.632  13.702  13.325
40905W        W 9123   3.187  44.865  14.084
40906W        W 9124  14.483  12.334   4.350
40907W        W 9125  40.220  27.600  14.035
40908W        W 9126  36.025   3.391   2.716
40909W        W 9127  41.418  19.821   4.542
40910W        W 9128   9.478   0.424   2.600
40911W        W 9129  41.374  27.085   1.284
40912W        W 9130   8.079  22.046  13.906
40913W        W 9131   4.779   7.595  11.522
40914W        W 9132  15.003   1.895  11.386
40915W        W 9133  30.499   4.429   1.861
40916W        W 9134  16.189  17.842  14.943
40917W        W 9135   2.456  42.992   9.540
40918W        W 9136  20.118  37.791   1.303
40919W        W 9137  20.295  27.609  12.337
40920W        W 9138  33.220  15.183  14.543
40921W        W 9139  10.654  37.204   0.049
40922W        W 9140  23.281  34.817   4.554
40923W        W 9141  24.543  43.768  13.387
40924W        W 9142  23.654  39.225   4.567
40925W        W 9143  31.160  11.618  14.948
40926W        W 9144  28.518  25.810   0.807
40927W        W 9145  27.085  15.577  14.946
40928W        W 9146   6.053  34.097   3.154
40929W        W 9147  18.683  38.155   2.757
40930W        W 9148   5.493  15.736  13.967
40931W        W 9149  30.492  38.805   3.727
40932W        W 9150  39.919  16.573  13.358
40933W        W 9151  17.605  23.191   1.298
40934W        W 9152  16.205   2.943  14.251
40935W        W 9153  10.113  32.185  13.296
40936W        W 9154  28.664  21.495   4.081
40937W        W 9155  17.196  39.961   2.701
40938W        W 9156  30.349  33.361   3.283
40939W        W 9157  37.402  37.973   3.908
40940W        W 9158  17.518  22.995   2.240
40941W        W 9159  12.944  14.605   4.559
40942W        W 9160  22.302  42.822  11.056
40943W        W 9161  44.020  40.593  13.842
40944W        W 9162  33.892   1.741   0.457
40945W        W 9163  30.102  37.956  12.325
40946W        W 9164  34.905  41.059  14.327
40947W        W 9165  15.298  19.759  14.764
40948W        W 9166  44.252  12.050  11.824
40949W        W 9167  32.519  24.439  11.606
40950W        W 9168  36.950  40.974   2.039
40951W        W 9169  43.005  31.177  13.345
40952W        W 9170   9.182  38.090   1.827
40953W        W 9171  13.625  20.858   2.925
40954W        W 9172  13.837  42.840   5.001
40955W        W 9173  39.591  27.463  10.639
40956W        W 9174  18.555   1.230   3.889
40957W        W 9175  27.142  27.963   2.317
40958W        W 9176  16.991   3.959   3.078
40959W        W 9177  11.828  11.180   2.178
40960W        W 9178  11.139  23.939  12.481
40961W        W 9179   0.782  10.624  12.360
40962W        W 9180   0.303  14.313   0.961
40963W        W 9181   9.347  40.135   0.897
40964W        W 9182  27.952  19.698   3.233
40965W        W 9183  15.301  43.984   0.944
40966W        W 9184  17.320   4.972   0.747
40967W        W 9185  39.007   5.016   3.319
40968W        W 9186  21.777  34.858  12.587
40969W        W 9187  11.727  13.365   3.217
40970W        W 9188  19.574   5.337   2.866
40971W        W 9189   0.884   8.214  11.121
40972W        W 9190  30.532  29.621   2.337
40973W        W 9191   3.226   0.173  14.546
40974W        W 9192  42.028  34.168   1.168
40975W        W 9193  34.451  19.801   3.873
40976W        W 9194  23.258  14.391  14.084
40977W        W 9195  32.600  14.615  11.651
40978W        W 9196  11.806  44.395  12.654
40979W        W 9197  35.443  16.733  14.404
40980W        W 9198   6.286  44.749   0.919
40981W        W 9199  17.706  15.579   1.624
40982W        W 9200   1.872  28.882   2.493
40983W        W 9201  33.661  29.148   1.582
40984W        W 9202  28.148  21.966   0.761
40985W        W 9203   7.265  11.367   3.637
40986W        W 9204  42.552  13.198   0.260
40987W        W 9205  25.692  13.236   2.835
40988W        W 9206  32.677   0.063  11.928
40989W        W 9207  14.771  42.872   3.263
40990W        W 9208  29.229  23.819   2.316
40991W        W 9209  12.656   6.550  12.550
40992W        W 9210  20.283  44.437  10.515
40993W        W 9211  18.674  39.795   0.266
40994W        W 9212  16.724  32.665  13.101
40995W        W 9213  18.299  16.214   4.122
40996W        W 9214   1.367  40.470  12.323
40997W        W 9215  25.428   4.230  12.187
40998W        W 9216   9.521  38.175   4.155
40999W        W 9217  12.457   5.854  13.247
41000W        W 9218  30.846  42.517   2.786
41001W        W 9219  14.538  26.738   4.086
41002W        W 9220  33.197  12.717   0.006
41003W        W 9221  42.891  42.725   4.088
41004W        W 9222  37.871   1.975  13.866
41005W        W 9223   5.202  43.574   4.620
41006W        W 9224  17.052  24.504   2.356
41007W        W 9225  20.616  38.591   2.495
41008W        W 9226   2.372  44.473   2.240
41009W        W 9227  14.656   2.382  14.395
41010W        W 9228   4.400  42.620   3.691
41011W        W 9229  15.760  43.680  10.993
41012W        W 9230  14.804  25.609   2.181
41013W        W 9231  26.869   2.152   3.865
41014W        W 9232  22.503   2.865  12.392
41015W        W 9233  16.304   6.274   3.417
41016W        W 9234  32.134   0.991  13.347
41017W        W 9235  13.344  36.966   4.109
41018W        W 9236  18.082  13.340   1.356
41019W        W 9237  39.017  23.118   4.194
41020W        W 9238  37.175  35.544  12.060
41021W        W 9239  17.692  38.447  10.820
41022W        W 9240   7.224  14.634   3.583
41023W        W 9241  41.483  36.059   2.237
41024W        W 9242  33.119  14.137   2.362
41025W        W 9243  41.312  24.295   0.473
41026W        W 9244  24.713  19.811   4.723
41027W        W 9245  16.389  34.430  11.450
41028W        W 9246  32.398  36.923  13.334
41029W        W 9247  29.055   1.498   2.603
41030W        W 9248  28.017  27.158  13.404
41031W        W 9249  34.183  37.421   1.651
41032W        W 9250  26.254  11.695   4.522
41033W        W 9251  10.179   5.363  11.361
41034W        W 9252  35.866  39.452  13.965
41035W        W 9253   8.238   2.118  12.134
41036W        W 9254  18.642  11.197   0.934
41037W        W 9255  42.458  17.861   0.375
41038W        W 9256  40.912  38.014  14.890
41039W        W 9257  11.798   0.889  11.915
41040W        W 9258  44.807  42.677   3.198
41041W        W 9259   8.784  14.368   2.625
41042W        W 9260  31.088  22.139   0.229
41043W        W 9261  27.935   2.265  11.605
41044W        W 9262  25.735  21.367   3.254
41045W        W 9263  24.982   2.263  12.108
41046W        W 9264  35.142  21.748  10.614
41047W        W 9265  32.006  14.294  10.692
41048W        W 9266  32.684  31.430   1.566
41049W        W 9267  42.013   9.278  11.942
41050W        W 9268  17.750   5.667  14.398
41051W        W 9269   2.859  26.197   3.720
41052W        W 9270  34.284  35.354   4.144
41053W        W 9271  33.211   2.295  14.409
41054W        W 9272  24.251  23.008   1.060
41055W        W 9273  40.876  15.800   0.748
41056W        W 9274  27.035  39.434  11.147
41057W        W 9275  40.132  10.089  13.808
41058W        W 9276  15.769  18.586  13.785
41059W        W 9277  44.223  31.803  10.769
41060W        W 9278  22.622  29.513  12.970
41061W        W 9279  31.197  15.213  13.803
41062W        W 9280   8.721  23.719   2.428
41063W        W 9281  18.757  38.056   4.622
41064W        W 9282  24.650  33.843   0.439
41065W        W 9283  43.951  21.640  14.935
41066W        W 9284  23.153  43.060  11.578
41067W        W 9285  38.784  19.549  10.114
41068W        W 9286  14.192  31.135   2.503
41069W        W 9287  11.093  37.453  11.439
41070W        W 9288   3.445  11.259  11.922
41071W        W 9289  14.149   9.391   1.847
41072W        W 9290   3.906  12.219   2.297
41073W        W 9291  38.949  30.198  11.855
41074W        W 9292   2.220  44.515   2.741
41075W        W 9293  38.960  11.840   0.943
41076W        W 9294   5.784  37.454  12.299
41077W        W 9295   5.061   6.811  12.421
41078W        W 9296   3.021   4.992  12.771
41079W        W 9297   1.311  38.682   1.733
41080W        W 9298  39.563  31.110   2.518
41081W        W 9299   4.719  33.591  12.052
41082W        W 9300  29.487  31.722   3.315
41083W        W 9301  24.067  15.205  14.466
41084W        W 9302  33.190  12.718  11.669
41085W        W 9303   5.364  44.210  13.322
41086W        W 9304  32.403  18.223   4.247
41087W        W 9305  37.884  20.680  10.762
41088W        W 9306   8.927  21.150   3.781
41089W        W 9307   9.190  42.811   0.068
41090W        W 9308  26.866  38.021   2.659
41091W        W 9309  43.716   0.354   3.125
41092W        W 9310  35.567  22.078   3.285
41093W        W 9311  18.225  29.259   0.906
41094W        W 9312  32.942  25.235  14.539
41095W        W 9313  39.519  18.282   4.134
41096W        W 9314   8.088  37.490  10.590
41097W        W 9315  19.536   6.992   0.887
41098W        W 9316   9.651  13.983   1.247
41099W        W 9317  28.388  43.903  13.184
41100W        W 9318  11.701   7.105   2.769
41101W        W 9319  44.246  43.733  14.985
41102W        W 9320  17.666   2.719   4.246
41103W        W 9321  42.771   6.030   5.168
41104W        W 9322  14.805  34.120  13.113
41105W        W 9323  17.830  19.578  11.816
41106W        W 9324  30.739   7.719  14.517
41107W        W 9325  10.872   3.306   1.436
41108W        W 9326  34.139   8.916  10.693
41109W        W 9327   4.887  11.122  12.031
41110W        W 9328  19.963   6.920   1.774
41111W        W 9329  18.883  16.302   5.027
41112W        W 9330  25.467  38.511   1.654
41113W        W 9331  41.548  15.694  10.637
41114W        W 9332  34.214  35.932   5.262
41115W        W 9333  27.759   7.273  10.478
41116W        W 9334  42.936  15.181   1.332
41117W        W 9335   7.407   9.807  12.230
41118W        W 9336  31.660  14.521  12.454
41119W        W 9337  21.719  37.541  12.687
41120W        W 9338  37.486  42.245  11.598
41121W        W 9339  42.414  28.152   0.646
41122W        W 9340  24.263  35.975  14.045
41123W        W 9341   7.523   8.360  13.141
41124W        W 9342  10.452  27.335   4.095
41125W        W 9343   4.009   1.271  10.679
41126W        W 9344  34.845  13.829  12.405
41127W        W 9345  10.919   9.654   4.208
41128W        W 9346   6.833  23.827  13.974
41129W        W 9347  28.918  37.832  14.490
41130W        W 9348  19.146  33.487  10.247
41131W        W 9349  10.053  41.611   3.672
41132W        W 9350  13.864   9.204  14.479
41133W        W 9351  35.531  32.409   2.745
41134W        W 9352  34.729  15.716  14.088
41135W        W 9353  31.860  20.032   2.234
41136W        W 9354  11.720  29.225  11.173
41137W        W 9355   7.682   2.625   3.265
41138W        W 9356  15.643   7.327   0.685
41139W        W 9357   7.385  26.678   4.961
41140W        W 9358   2.523  39.875  12.225
41141W        W 9359  20.412  39.455   4.159
41142W        W 9360  20.184  14.360   4.963
41143W        W 9361   3.504   8.966  11.545
41144W        W 9362  21.165  18.626   1.461
41145W        W 9363   9.406   5.746   4.539
41146W        W 9364   8.912  42.856   9.730
41147W        W 9365   5.825   2.327  11.944
41148W        W 9366  26.549   1.455   2.448
41149W        W 9367  14.732  32.154   4.788
41150W        W 9368  40.963  25.794   3.356
41151W        W 9369  30.398   5.280  13.040
41152W        W 9370  18.838  26.600  11.674
41153W        W 9371  30.055  39.800  14.512
41154W        W 9372  28.782  19.013   3.281
41155W        W 9373  42.881  23.401   3.044
41156W        W 9374  10.332   8.538   0.235
41157W        W 9375  34.447  36.551   1.439
41158W        W 9376  40.981  37.298   4.632
41159W        W 9377   2.055   8.940  14.371
41160W        W 9378  11.413   7.275   3.578
41161W        W 9379   0.878  12.336  14.522
41162W        W 9380  14.234   8.080   4.460
41163W        W 9381  14.487  11.622   2.181
41164W        W 9382  40.727  35.507  11.317
41165W        W 9383  17.564  34.802   4.174
41166W        W 9384  26.440  25.896   2.575
41167W        W 9385  15.025  29.500  14.005
41168W        W 9386   4.271  16.283   2.984
41169W        W 9387  41.516   1.258  11.171
41170W        W 9388  25.894  23.650   2.483
41171W        W 9389  14.886   4.113   2.162
41172W        W 9390   2.984  12.580  11.898
41173W        W 9391  40.365  19.122   4.064
41174W        W 9392  15.754   7.391   9.956
41175W        W 9393  19.541  11.806  13.585
41176W        W 9394  43.022  14.699   2.012
41177W        W 9395  40.458  24.786  10.532
41178W        W 9396  35.172  28.326  12.178
41179W        W 9397  11.773  28.634  13.735
41180W        W 9398   0.575   9.081   3.031
41181W        W 9399  14.080   6.624   3.180
41182W        W 9400  14.117  14.125   2.753
41183W        W 9401  17.614  12.931   0.564
41184W        W 9402   8.287  26.466  12.908
41185W        W 9403  18.613  17.138  10.292
41186W        W 9404   3.278  44.206   4.875
41187W        W 9405  12.585  35.407   0.390
41188W        W 9406  32.868  43.713   1.372
41189W        W 9407  19.488  42.786  12.022
41190W        W 9408  26.604  15.327   0.923
41191W        W 9409   3.181  42.452  10.962
41192W        W 9410   8.135   7.474   2.637
41193W        W 9411   4.921  28.314   0.040
41194W        W 9412  22.544  16.247  13.039
41195W        W 9413  40.821  24.751  14.971
41196W        W 9414   6.800   3.987  12.692
41197W        W 9415  10.463   1.053   4.618
41198W        W 9416  44.191  13.163   2.919
41199W        W 9417  31.525  41.161  12.790
41200W        W 9418  27.781   9.067   0.292
41201W        W 9419  30.096  41.242  14.919
41202W        W 9420  28.153  38.059   1.497
41203W        W 9421   8.853  42.370   0.234
41204W        W 9422  33.501  19.707  12.367
41205W        W 9423  27.542  41.484  13.669
41206W        W 9424   6.054  28.453  11.689
41207W        W 9425  25.591  33.959   4.304
41208W        W 9426   7.125   4.143  14.727
41209W        W 9427  18.262   2.146   1.998
41210W        W 9428  25.750  17.643   2.607
41211W        W 9429  26.903  42.742   0.801
41212W        W 9430  31.830   3.608   0.249
41213W        W 9431   0.331  38.822   2.884
41214W        W 9432  24.123  16.605   4.038
41215W        W 9433  36.936   5.125  11.160
41216W        W 9434  37.468  10.424  13.300
41217W        W 9435  31.946   6.974   3.904
41218W        W 9436  20.771  26.062  13.524
41219W        W 9437  31.068   6.953   4.525
41220W        W 9438   7.083  21.596   1.428
41221W        W 9439  17.500  14.171  11.678
41222W        W 9440  22.155   0.711  11.491
41223W        W 9441   1.239  16.712   4.252
41224W        W 9442   3.603  12.091  13.988
41225W        W 9443  38.414  20.960   2.086
41226W        W 9444   2.694   8.494   4.323
41227W        W 9445  32.023  41.103  12.547
41228W        W 9446  23.555  33.035  14.510
41229W        W 9447  29.568  42.546  11.662
41230W        W 9448  31.853  30.280  14.522
41231W        W 9449  27.420  27.565   3.576
41232W        W 9450   9.307  25.205   3.762
41233W        W 9451  10.739  21.026   0.265
41234W        W 9452  11.658  33.170   0.793
41235W        W 9453  34.718  38.244   2.555
41236W        W 9454  19.642  16.359  13.091
41237W        W 9455  43.819  35.316  13.591
41238W        W 9456  30.479  35.635   3.055
41239W        W 9457   7.451   6.440  12.491
41240W        W 9458  15.375   2.497  10.646
41241W        W 9459  35.190   3.968   0.334
41242W        W 9460  39.293   0.322   0.452
41243W        W 9461  35.889  24.543   3.830
41244W        W 9462   7.393   8.470  14.450
41245W        W 9463  17.594  13.859  11.257
41246W        W 9464  33.465  25.693  10.247
41247W        W 9465  11.551  23.173  12.147
41248W        W 9466  42.687  16.428   1.967
41249W        W 9467  18.546  24.181   1.289
41250W        W 9468  16.446   0.310  13.585
41251W        W 9469  30.619  30.528   1.656
41252W        W 9470  39.796  40.348   4.099
41253W        W 9471  30.825  14.377  11.203
41254W        W 9472  10.182  35.893  12.627
41255W        W 9473  19.779  14.717  11.952
41256W        W 9474  10.877  18.327  11.557
41257W        W 9475  39.820  36.917  11.421
41258W        W 9476  15.666   0.463  12.604
41259W        W 9477  19.006  24.414   1.414
41260W        W 9478   1.220  29.766  10.553
41261W        W 9479  13.631  23.724   1.643
41262W        W 9480  17.135  31.927  10.089
41263W        W 9481  21.545  41.560  13.418
41264W        W 9482  39.855  20.258  12.805
41265W        W 9483  22.258  27.079  13.381
41266W        W 9484  20.360   6.229   3.727
41267W        W 9485   6.830  17.793   1.771
41268W        W 9486  18.540   8.165  14.497
41269W        W 9487   6.078  22.621   0.877
41270W        W 9488  18.273  30.750  13.126
41271W        W 9489  23.064   2.859  14.307
41272W        W 9490  17.913  13.661   2.651
41273W        W 9491  38.609  20.284   0.935
41274W        W 9492  44.320  37.069  13.398
41275W        W 9493  35.097  23.297   4.720
41276W        W 9494  14.686  28.131  14.306
41277W        W 9495  11.987  37.916  14.833
41278W        W 9496  44.852  10.094  13.605
41279W        W 9497  12.693  35.168   2.726
41280W        W 9498   3.927  31.057  14.978
41281W        W 9499  38.300  41.045   4.995
41282W        W 9500   2.364  13.783  13.604
41283W        W 9501  17.026  27.755  11.551
41284W        W 9502   7.231  22.601  11.048
41285W        W 9503  29.711   8.122   0.352
41286W        W 9504  14.352  18.385  11.122
41287W        W 9505  26.727  35.381  12.640
41288W        W 9506  36.768  23.553   3.327
41289W        W 9507  12.373  34.067   2.238
41290W        W 9508  13.332  20.322  13.287
41291W        W 9509  36.331  20.541  13.358
41292W        W 9510  13.793   7.782  13.572
41293W        W 9511  14.238  18.205   2.680
41294W        W 9512   0.401  26.880   2.202
41295W        W 9513  24.149   2.296   2.243
41296W        W 9514   4.918  15.364  11.633
41297W        W 9515   5.411  16.424   1.613
41298W        W 9516   9.166  39.131  13.515
41299W        W 9517   1.938  14.369  14.835
41300W        W 9518  33.313  16.258   4.596
41301W        W 9519  18.703   3.503  14.688
41302W        W 9520  24.636  44.854   2.086
41303W        W 9521  16.863  39.879   3.548
41304W        W 9522  22.683  16.204   4.646
41305W        W 9523  41.935  32.102   0.061
41306W        W 9524  10.076  38.790   3.152
41307W        W 9525  33.379  22.112  10.701
41308W        W 9526  25.514  26.800   2.369
41309W        W 9527  23.220  13.998  11.471
41310W        W 9528  32.387  17.620  11.975
41311W        W 9529  43.586  23.528  14.459
41312W        W 9530  44.231  26.964   0.875
41313W        W 9531  23.221  38.536   4.150
41314W        W 9532   7.457  37.997   0.069
41315W        W 9533   2.290   6.415  11.633
41316W        W 9534  13.631  16.129   1.330
41317W        W 9535  11.860   1.004  11.015
41318W        W 9536  29.916  27.270   4.886
41319W        W 9537  27.044  17.260  13.400
41320W        W 9538   8.130  43.778  12.614
41321W        W 9539  19.650  34.354   2.249
41322W        W 9540   7.285   5.150  13.903
41323W        W 9541  30.565  21.844  14.137
41324W        W 9542  36.481  28.450   0.020
41325W        W 9543  19.493  26.122   3.159
41326W        W 9544  16.240  27.501  12.938
41327W        W 9545  34.367  39.565   3.128
41328W        W 9546   4.874  31.051   2.383
41329W        W 9547  30.164  23.611   2.073
41330W        W 9548  22.511   5.529   0.975
41331W        W 9549  33.651  41.505  11.053
41332W        W 9550   3.227   5.148   0.396
41333W        W 9551  33.243  12.225  14.398
41334W        W 9552  31.589   4.793   3.705
41335W        W 9553  35.835  27.049  14.306
41336W        W 9554  26.534  38.692  10.264
41337W        W 9555  15.364   5.886   1.968
41338W        W 9556  36.574  18.323   1.989
41339W        W 9557  43.390  13.590  14.438
41340W        W 9558  19.748  18.625  11.102
41341W        W 9559  39.043  15.526   2.243
41342W        W 9560   3.786  23.066  14.245
41343W        W 9561  44.562  44.899  11.022
41344W        W 9562   6.088   3.706   2.867
41345W        W 9563  42.730  17.652   1.675
41346W        W 9564   6.354   8.022   3.717
41347W        W 9565  30.674   4.247   3.724
41348W        W 9566  43.814  23.409  10.861
41349W        W 9567  44.044  22.165   0.721
41350W        W 9568  16.894   1.030   2.226
41351W        W 9569  44.875  44.236   0.382
41352W        W 9570  22.089  42.995   3.129
41353W        W 9571  43.182   2.439   2.235
41354W        W 9572  32.596  34.458  12.886
41355W        W 9573   2.819  25.988  14.170
41356W        W 9574  28.406   3.148   3.169
41357W        W 9575  20.114   2.054   1.825
41358W        W 9576   3.209  14.776  13.348
41359W        W 9577  42.325  32.628  14.333
41360W        W 9578   6.872   1.197   2.157
41361W        W 9579   6.782   6.800   0.274
41362W        W 9580  28.567  17.311   3.163
41363W        W 9581  27.167  21.638   2.081
41364W        W 9582  21.832   3.458   1.657
41365W        W 9583   0.935  19.360  14.547
41366W        W 9584   7.980  21.664   2.952
41367W        W 9585  37.895  18.040   2.622
41368W        W 9586  19.120  15.541   3.449
41369W        W 9587   1.686  35.294  11.316
41370W        W 9588  30.004  35.167  12.907
41371W        W 9589  10.069  41.887  12.491
41372W        W 9590  25.223   9.412  14.376
41373W        W 9591  19.776  14.831   3.009
41374W        W 9592  34.022  36.489  14.326
41375W        W 9593  42.745  44.029  10.738
41376W        W 9594   8.420   3.322  14.204
41377W        W 9595  42.391   8.461  11.445
41378W        W 9596  25.831  40.103  11.509
41379W        W 9597  20.158  28.530   0.289
41380W        W 9598  28.155  36.921   3.600
41381W        W 9599  30.978   1.280   3.777
41382W        W 9600   1.201   7.607   0.489
41383W        W 9601  43.245  20.208   0.260
41384W        W 9602  13.674  36.282   3.823
41385W        W 9603  25.699  22.024   0.855
41386W        W 9604  27.051   0.395   2.890
41387W        W 9605  25.458  37.021   4.215
41388W        W 9606  41.780  19.076  13.855
41389W        W 9607   1.381  20.490  10.758
41390W        W 9608  20.013   3.897  10.682
41391W        W 9609  42.013  26.476  12.630
41392W        W 9610   0.047  20.710  12.325
41393W        W 9611  35.293   5.622   4.083
41394W        W 9612  19.455  12.449  14.880
41395W        W 9613  31.355  24.891   5.006
41396W        W 9614  17.835  42.998   3.646
41397W        W 9615   1.928  18.367   1.036
41398W        W 9616  11.272  20.911   1.890
41399W        W 9617  10.721   3.597  13.631
41400W        W 9618  37.447  11.243   1.344
41401W        W 9619  23.045  34.583   2.876
41402W        W 9620   5.116  38.003   1.437
41403W        W 9621  41.110   7.359   1.390
41404W        W 9622  12.903   2.458   1.329
41405W        W 9623  12.696  20.288  12.438
41406W        W 9624  10.624  13.303   0.852
41407W        W 9625  42.516  34.751  11.128
41408W        W 9626   8.649  33.083   0.124
41409W        W 9627  38.285  22.725   0.854
41410W        W 9628  22.514  16.749  12.952
41411W        W 9629  17.358  34.693  13.510
41412W        W 9630  40.921  24.483  14.528
41413W        W 9631   6.631  28.168  14.447
41414W        W 9632   4.500  40.020   0.193
41415W        W 9633  27.715  34.951   1.326
41416W        W 9634  28.572  21.184   1.865
41417W        W 9635  15.522  28.990   0.060
41418W        W 9636  29.471  24.434   3.167
41419W        W 9637  28.292   2.549  13.749
41420W        W 9638  35.112  28.159   0.443
41421W        W 9639  25.138  34.598   1.907
41422W        W 9640   5.838  43.063   4.566
41423W        W 9641   8.705  13.825   0.385
41424W        W 9642  30.013   1.789  14.994
41425W        W 9643   0.683   1.301   1.309
41426W        W 9644  35.606   2.432   1.412
41427W        W 9645  39.519  44.995  13.310
41428W        W 9646  20.358  25.075   3.396
41429W        W 9647   7.302  15.438   3.260
41430W        W 9648  10.415  12.101   2.698
41431W        W 9649  31.010  18.048  10.085
41432W        W 9650  28.513   8.816   3.231
41433W        W 9651  17.567  19.291  14.505
41434W        W 9652   2.456  35.626  14.184
41435W        W 9653  24.489   7.963   3.249
41436W        W 9654  17.957  31.105   1.980
41437W        W 9655  10.858  39.473   3.248
41438W        W 9656  26.800  35.757   3.307
41439W        W 9657  41.290  30.632   1.276
41440W        W 9658  17.609   1.462   3.650
41441W        W 9659  33.015  35.638  13.441
41442W        W 9660  16.373   5.532  12.606
41443W        W 9661  33.656  13.133  14.119
41444W        W 9662  21.980  42.415  13.051
41445W        W 9663  14.255   0.462   3.763
41446W        W 9664   0.968  36.428   1.857
41447W        W 9665  17.826  29.583  13.786
41448W        W 9666  31.394  31.403  10.609
41449W        W 9667   5.795  28.699   0.083
41450W        W 9668   8.397  10.772   2.164
41451W        W 9669  21.267  18.199   1.160
41452W        W 9670  16.637  12.253  10.525
41453W        W 9671   7.422  12.273   3.271
41454W        W 9672  28.152  19.854   2.786
41455W        W 9673  28.703  10.249   1.328
41456W        W 9674   7.305   8.912   2.609
41457W        W 9675   4.768  33.965   1.301
41458W        W 9676  20.612  24.594  10.805
41459W        W 9677  33.487  34.614  14.425
41460W        W 9678  12.160   6.336  14.300
41461W        W 9679   4.351  25.594   3.667
41462W        W 9680  28.202  22.868  10.248
41463W        W 9681  30.338  12.266  11.715
41464W        W 9682   6.262   5.443   0.373
41465W        W 9683  12.324   1.246  14.993
41466W        W 9684  20.136  12.896  14.965
41467W        W 9685   2.017  42.769  14.339
41468W        W 9686   5.836  24.132  12.904
41469W        W 9687   1.884  25.527  14.044
41470W        W 9688  26.046   4.810   2.326
41471W        W 9689   4.237  10.845   2.420
41472W        W 9690  15.275  38.158   0.979
41473W        W 9691   2.092   0.306  10.432
41474W        W 9692   0.262  12.787  12.872
41475W        W 9693   0.797  14.596   4.190
41476W        W 9694  24.598   6.100   3.850
41477W        W 9695   6.212   2.687  11.493
41478W        W 9696  18.092  37.117   0.812
41479W        W 9697  28.020  10.574  13.837
41480W        W 9698   4.715  17.343  13.470
41481W        W 9699  17.642  44.158   4.094
41482W        W 9700  28.453  13.224  10.644
41483W        W 9701  37.503  36.442   1.395
41484W        W 9702  29.581  23.211  10.541
41485W        W 9703  42.830  40.029  14.894
41486W        W 9704   3.929  25.219   1.874
41487W        W 9705  23.952  39.486  12.015
41488W        W 9706   6.091  30.498  14.893
41489W        W 9707  39.871   0.739  14.295
41490W        W 9708   0.967  37.909   2.335
41491W        W 9709   3.381  28.168   4.458
41492W        W 9710   3.918   6.207  12.509
41493W        W 9711  42.193  14.022   0.463
41494W        W 9712  21.965  38.313   1.267
41495W        W 9713   4.304  10.656  13.141
41496W        W 9714  11.421   9.733   3.321
41497W        W 9715   1.042  35.198  12.676
41498W        W 9716  34.944  40.765   4.129
41499W        W 9717   7.453  15.576  14.353
41500W        W 9718  20.512  40.070  10.639
41501W        W 9719  29.959  10.141  11.496
41502W        W 9720  31.135  17.772   1.737
41503W        W 9721  22.995  11.242   1.926
41504W        W 9722  15.056  19.357   2.748
41505W        W 9723   8.824  30.876   5.046
41506W        W 9724   4.437  43.928  12.412
41507W        W 9725  20.836  13.610  10.234
41508W        W 9726   5.378   6.843   4.674
41509W        W 9727  35.754  36.014  14.862
41510W        W 9728  42.279  29.982  11.012
41511W        W 9729  19.777  27.674   2.296
41512W        W 9730  33.888  40.508   2.249
41513W        W 9731  17.538  42.853   4.632
41514W        W 9732   4.380   1.876   0.525
41515W        W 9733  29.644  41.797   1.302
41516W        W 9734  33.605  40.354   1.808
41517W        W 9735  15.233  20.589  12.988
41518W        W 9736   9.666  33.650  13.849
41519W        W 9737  11.242  25.589  12.849
41520W        W 9738  15.585  14.193  14.801
41521W        W 9739  23.857  19.281  12.573
41522W        W 9740  36.155   4.326  12.600
41523W        W 9741  13.315   4.313  13.309
41524W        W 9742  26.947  18.196   1.709
41525W        W 9743   9.187   1.159  12.555
41526W        W 9744  43.716  44.441  10.695
41527W        W 9745  18.156  15.009   3.752
41528W        W 9746  35.256  34.788   0.397
41529W        W 9747  15.186  13.849   1.027
41530W        W 9748  10.457   9.330   3.214
41531W        W 9749  39.375  40.371  13.957
41532W        W 9750  24.323   5.963  14.304
41533W        W 9751  19.600  14.421   4.308
41534W        W 9752  20.551  35.701  12.948
41535W        W 9753  37.081  10.355   4.928
41536W        W 9754  42.739   0.335   3.259
41537W        W 9755  35.329   3.805   4.560
41538W        W 9756  35.269   2.760  14.739
41539W        W 9757  24.764  40.081   4.362
41540W        W 9758  12.762  34.109   1.903
41541W        W 9759  21.465  14.610  12.377
41542W        W 9760  26.606  15.131  14.549
41543W        W 9761  31.661  19.742   3.338
41544W        W 9762   0.876  35.233  10.722
41545W        W 9763  13.206   1.083   2.325
41546W        W 9764  13.109  40.364  10.828
41547W        W 9765  10.111  32.925  11.506
41548W        W 9766  43.792  33.467   3.453
41549W        W 9767  35.598  33.531   1.653
41550W        W 9768  44.784  10.561   2.576
41551W        W 9769  21.161  18.477  12.037
41552W        W 9770  37.637  12.754   1.659
41553W        W 9771  40.085  29.036   1.381
41554W        W 9772  42.313  21.798  14.859
41555W        W 9773  38.146   3.265   3.689
41556W        W 9774  21.121   5.421   0.890
41557W        W 9775  27.782  38.965   3.660
41558W        W 9776  21.504  37.456  14.024
41559W        W 9777  18.294  41.121  10.550
41560W        W 9778  32.964   5.475   3.413
41561W        W 9779  39.220  33.622   3.579
41562W        W 9780   2.741  23.642   4.191
41563W        W 9781  22.222  32.715   4.186
41564W        W 9782  22.224   6.848  11.559
41565W        W 9783  27.404  25.924  13.098
41566W        W 9784  42.253  27.561  12.058
41567W        W 9785  20.658  18.868   4.128
41568W        W 9786  15.678  30.934   0.078
41569W        W 9787   3.199  15.298  14.084
41570W        W 9788  25.557  26.004   2.697
41571W        W 9789  22.815  40.620  14.881
41572W        W 9790   4.280  38.887  11.999
41573W        W 9791  10.429  25.284  13.478
41574W        W 9792  19.177  31.368  10.899
41575W        W 9793  20.832  37.837  12.174
41576W        W 9794   4.018  31.556  10.623
41577W        W 9795   6.477  38.429  11.908
41578W        W 9796   8.535  14.769   4.974
41579W        W 9797  30.156  34.354   3.148
41580W        W 9798  36.016  26.082  13.450
41581W        W 9799  11.738  40.978   0.182
41582W        W 9800   1.992  20.937   0.117
41583W        W 9801  39.297   8.842   3.741
41584W        W 9802  23.278   2.455  12.589
41585W        W 9803  41.066  11.682  13.801
41586W        W 9804  34.807   5.876   0.054
41587W        W 9805  23.674  33.594   1.832
41588W        W 9806  19.281  38.110   3.285
41589W        W 9807   7.666  37.540  14.966
41590W        W 9808  43.916  23.459   4.163
41591W        W 9809  20.420  40.928   3.284
41592W        W 9810   2.428  35.585   0.216
41593W        W 9811  26.990   9.749   0.193
41594W        W 9812  43.459  13.449  10.782
41595W        W 9813  23.466  42.010   2.743
41596W        W 9814  25.124  24.597  12.029
41597W        W 9815  31.776  41.549   2.116
41598W        W 9816  17.774   0.962   3.589
41599W        W 9817  26.540  43.382  10.863
41600W        W 9818  34.625  32.647  12.018
41601W        W 9819  27.652  12.372  14.810
41602W        W 9820  43.285  29.040  12.927
41603W        W 9821   4.768  42.015  12.366
41604W        W 9822  21.330  43.527   3.668
41605W        W 9823   2.262  21.748   2.412
41606W        W 9824  16.604   4.692  13.686
41607W        W 9825   5.241  25.691   1.897
41608W        W 9826  36.825  33.043   4.619
41609W        W 9827  37.968  10.903  11.690
41610W        W 9828   1.171  36.921   4.259
41611W        W 9829   8.290  25.258   3.593
41612W        W 9830  39.883   5.793  10.840
41613W        W 9831  15.264  23.285  12.634
41614W        W 9832  18.739  42.521  11.489
41615W        W 9833   6.747   6.309  12.133
41616W        W 9834  32.646  42.246   1.938
41617W        W 9835  14.250  43.479   5.593
41618W        W 9836  35.552   0.931  12.641
41619W        W 9837  23.450  40.330   3.557
41620W        W 9838  36.400  27.702  13.422
41621W        W 9839  15.484  30.613  11.893
41622W        W 9840  11.751  17.263   0.241
41623W        W 9841  16.730  30.595   2.756
41624W        W 9842   0.818  27.633  12.001
41625W        W 9843  14.949  34.394   4.039
41626W        W 9844  26.715  36.051  12.058
41627W        W 9845  19.452  37.007  13.804
41628W        W 9846  27.615   7.676   0.037
41629W        W 9847   4.679  23.068   4.033
41630W        W 9848  22.162   2.580   1.777
41631W        W 9849  37.490  19.988   4.584
41632W        W 9850  23.246  33.245  11.320
41633W        W 9851  17.273   1.012  13.886
41634W        W 9852  27.962  18.228   2.896
41635W        W 9853  35.491   6.496  13.056
41636W        W 9854  19.192  41.066  13.298
41637W        W 9855   4.534  20.639  14.983
41638W        W 9856  17.023   1.304  12.550
41639W        W 9857   6.375  11.564  14.359
41640W        W 9858  35.401  33.742   3.866
41641W        W 9859  15.008  17.612   0.324
41642W        W 9860   6.384  43.732  12.713
41643W        W 9861  37.298  39.326  14.758
41644W        W 9862  37.275  41.861  14.865
41645W        W 9863  40.363   3.343  13.963
41646W        W 9864   2.324   9.693   0.901
41647W        W 9865   9.422   3.290  11.888
41648W        W 9866   0.104   7.219  10.724
41649W        W 9867  37.032  12.363   3.299
41650W        W 9868  42.280  27.663   4.102
41651W        W 9869  38.558  40.371   1.908
41652W        W 9870   9.026  13.700   0.812
41653W        W 9871   6.221  23.376   1.272
41654W        W 9872  10.421   1.144   0.706
41655W        W 9873  44.341  35.438   1.646
41656W        W 9874  42.925  29.484   0.538
41657W        W 9875   8.375  44.247   0.320
41658W        W 9876  11.169  42.086   0.346
41659W        W 9877  40.033  44.436  13.225
41660W        W 9878  39.994  11.176  10.699
41661W        W 9879  33.500  14.048  11.690
41662W        W 9880  37.097  12.061   4.180
41663W        W 9881   7.741   7.360   0.816
41664W        W 9882  27.906  22.526  14.392
41665W        W 9883  41.995  22.002   2.565
41666W        W 9884  15.113  12.548   2.689
41667W        W 9885  43.273  41.848   3.703
41668W        W 9886  38.597  42.481   2.678
41669W        W 9887  26.520  32.238  12.800
41670W        W 9888  17.126  26.304  11.456
41671W        W 9889  16.193  38.586  11.777
41672W        W 9890  34.574   2.629   4.594
41673W        W 9891  21.996  43.338  11.709
41674W        W 9892  38.771  32.812   4.049
41675W        W 9893   2.170   4.677   3.358
41676W        W 9894   2.633  24.765  13.111
41677W        W 9895  41.949  11.039   4.416
41678W        W 9896  41.406  43.191   0.316
41679W        W 9897  22.591  34.605   0.248
41680W        W 9898  30.854  18.492   0.228
41681W        W 9899  13.768  42.808  13.470
41682W        W 9900   5.867  43.594  10.325
41683W        W 9901  14.944  10.152   2.740
41684W        W 9902   6.897  27.248   1.753
41685W        W 9903  42.719   1.420  11.727
41686W        W 9904   8.717  12.809   4.166
41687W        W 9905  12.207  31.192   3.680
41688W        W 9906  29.582   6.714   3.782
41689W        W 9907  22.327  40.023   0.847
41690W        W 9908  21.478  34.306  13.120
41691W        W 9909  28.186  35.024   1.514
41692W        W 9910  31.065   6.951  10.746
41693W        W 9911  34.996   8.185  14.282
41694W        W 9912  40.067  16.123   4.332
41695W        W 9913  32.660  10.680  11.994
41696W        W 9914  23.796  30.164   1.400
41697W        W 9915   4.641  40.783  12.483
41698W        W 9916  10.770  33.778   0.959
41699W        W 9917  38.027  27.391  14.956
41700W        W 9918   1.432   0.415  14.471
41701W        W 9919  12.951  35.253   4.994
41702W        W 9920   3.715  25.073   3.153
41703W        W 9921  30.232  33.837  11.150
41704W        W 9922  10.193  27.759  10.252
41705W        W 9923   9.958  42.364   4.336
41706W        W 9924  35.586  39.790   0.733
41707W        W 9925  35.341  22.126   1.937
41708W        W 9926   2.728  15.573  10.895
41709W        W 9927  33.027  39.500  11.658
41710W        W 9928  37.202  19.292  14.008
41711W        W 9929  42.750  30.425   4.109
41712W        W 9930  24.104  14.784  12.219
41713W        W 9931   6.543  23.995  11.711
41714W        W 9932  15.186   6.288   3.838
41715W        W 9933  42.285  25.441  14.108
41716W        W 9934  35.106  21.015   1.545
41717W        W 9935  44.745  43.492  10.656
41718W        W 9936   5.596   3.826   2.717
41719W        W 9937   3.196  38.140  11.007
41720W        W 9938   1.537  30.684  13.043
41721W        W 9939  38.478  31.955   1.018
41722W        W 9940  38.470  27.000  13.829
41723W        W 9941  25.594   7.250   2.274
41724W        W 9942   1.912   8.443  14.491
41725W        W 9943   8.705  14.270  10.220
41726W        W 9944  33.341  36.475   0.515
41727W        W 9945  43.755  22.784  11.424
41728W        W 9946  10.613  24.611   4.899
41729W        W 9947  35.378   0.023   2.166
41730W        W 9948  32.442  38.940  12.095
41731W        W 9949  14.638  22.620   0.028
41732W        W 9950   0.361   9.343  11.517
41733W        W 9951  41.980   0.987  11.221
41734W        W 9952  27.377   7.017   1.191
41735W        W 9953   5.740  37.395   4.158
41736W        W 9954  33.573  18.032  13.891
41737W        W 9955   9.064  39.371   4.558
41738W        W 9956  44.728   9.392  13.077
41739W        W 9957  43.931  30.932  13.362
41740W        W 9958  16.149  20.201  11.264
41741W        W 9959   9.282  28.113  14.074
41742W        W 9960  39.574   1.150  10.541
41743W        W 9961  40.869  27.116  14.900
41744W        W 9962  14.644  10.618  12.538
41745W        W 9963  24.165  29.684   1.737
41746W        W 9964   4.832   6.855  13.021
41747W        W 9965  38.064  23.469   2.331
41748W        W 9966  18.257  42.901  12.847
41749W        W 9967  23.155  30.561   4.299
41750W        W 9968  23.084   0.736   0.732
41751W        W 9969  37.032  44.249  12.556
41752W        W 9970  34.939   3.941   4.895
41753W        W 9971  20.393   1.759  12.112
41754W        W 9972  41.452  22.618  12.029
41755W        W 9973  44.587   1.969   4.596
41756W        W 9974   5.752   9.838   3.049
41757W        W 9975  38.409  37.402  10.906
41758W        W 9976  32.656   9.659   4.047
41759W        W 9977  29.839  15.680  14.545
41760W        W 9978  10.255   4.916  13.066
41761W        W 9979   8.683   8.742   5.027
41762W        W 9980  18.710  42.302  13.722
41763W        W 9981   4.204  32.102  12.504
41764W        W 9982  25.049  37.273   4.576
41765W        W 9983   6.333  35.983  13.085
41766W        W 9984   3.469  18.387   4.138
41767W        W 9985   2.596  32.618  13.103
41768W        W 9986  27.716  43.297   3.433
41769W        W 9987  37.223  20.207  13.793
41770W        W 9988   6.799  30.004  12.053
41771W        W 9989  33.685  33.514   4.130
41772W        W 9990  21.750  20.033  14.988
41773W        W 9991  20.724  20.670  14.960
41774W        W 9992   2.822   5.601   4.261
41775W        W 9993  37.669  21.893   1.934
41776W        W 9994   9.584  23.462   3.212
41777W        W 9995  10.161  33.196  10.697
41778W        W 9996  30.044   3.823  12.725
41779W        W 9997  18.317  15.247   4.205
41780W        W 9998  15.305  14.405   2.282
41781W        W 9999  11.555  20.910   3.536
41782W        W10000  39.012  43.787  11.452
41783W        W10001   3.595  18.554   0.988
41784W        W10002  43.334  22.612   4.439
41785W        W10003  19.621  31.562   3.428
41786W        W10004  44.004  11.421   3.191
41787W        W10005  26.464  42.395   0.775
41788W        W10006  40.488  25.584  14.830
41789W        W10007   1.962   2.188  11.599
41790W        W10008  36.808  36.355   0.829
41791W        W10009   4.935   9.179  13.833
41792W        W10010  27.007   0.029   4.728
41793W        W10011   7.363   8.470   1.764
41794W        W10012  19.876   3.947  13.301
41795W        W10013  35.416  44.925  13.510
41796W        W10014  41.251  44.005   2.193
41797W        W10015   0.940  11.591  14.403
41798W        W10016  23.128  14.487  11.637
41799W        W10017  44.882   2.695  12.415
41800W        W10018  24.264  16.801   1.659
41801W        W10019   3.899   8.235  13.856
41802W        W10020  10.370   5.857  10.632
41803W        W10021   4.496   3.437   0.966
41804W        W10022  37.492  20.700   3.947
41805W        W10023  31.203  39.017   0.525
41806W        W10024  30.109   7.117  13.868
41807W        W10025  36.250   9.757  13.786
41808W        W10026  43.547  39.943  12.080
41809W        W10027  39.083  44.766  13.495
41810W        W10028  12.734  25.629  12.121
41811W        W10029  11.732  35.321  12.893
41812W        W10030  23.968  31.452   1.892
41813W        W10031   9.590  20.087  12.809
41814W        W10032  20.740  26.428  13.156
41815W        W10033  23.249  17.743   2.750
41816W        W10034  41.993   3.490  10.043
41817W        W10035  41.547  26.438  12.387
41818W        W10036   3.896   4.016  12.772
41819W        W10037  28.656  40.760   3.624
41820W        W10038  39.501  43.799   4.793
41821W        W10039  33.495  44.526  11.430
41822W        W10040  21.260   4.065  13.075
41823W        W10041  20.141  38.995   1.730
41824W        W10042  26.204  28.669  12.905
41825W        W10043  28.090  16.505   5.430
41826W        W10044  30.211  12.691  10.903
41827W        W10045  28.382  24.330   0.858
41828W        W10046  41.895  37.655   2.839
41829W        W10047  30.225  24.626   4.190
41830W        W10048   6.345  43.937   9.694
41831W        W10049  43.471  12.299   1.935
41832W        W10050  28.709  34.937   2.393
41833W        W10051  36.879  18.230  11.883
41834W        W10052  11.570  35.103  11.664
41835W        W10053  31.637   8.482   3.169
41836W        W10054   7.338  18.782  11.251
41837W        W10055  28.819  31.366   4.086
41838W        W10056  28.419  15.676  11.654
41839W        W10057   4.826  42.907   0.403
41840W        W10058  11.435  31.111   0.755
41841W        W10059  26.457  36.284   5.234
41842W        W10060   8.354  16.256  12.587
41843W        W10061  21.883  25.385   1.221
41844W        W10062   3.534  42.293   5.370
41845W        W10063  41.557  15.040  13.437
41846W        W10064  32.145  14.329   4.563
41847W        W10065  28.599  26.243   1.744
41848W        W10066  18.017   2.927  14.914
41849W        W10067  13.710  42.102   1.262
41850W        W10068  34.357  17.244   3.650
41851W        W10069   2.025  17.613   0.723
41852W        W10070  44.811   8.004   3.217
41853W        W10071  20.736  28.124   4.904
41854W        W10072  14.227   2.315   4.149
41855W        W10073   5.484  22.507   1.659
41856W        W10074  38.346   2.251  12.539
41857W        W10075  27.862  13.177  11.627
41858W        W10076  40.819  14.512   4.920
41859W        W10077   4.362  11.578  11.057
41860W        W10078  29.672  24.038   0.548
41861W        W10079  10.543  22.144  11.714
41862W        W10080  23.030  37.873   3.308
41863W        W10081  42.854  35.409  13.549
41864W        W10082  20.898  43.775  14.776
41865W        W10083  21.986  31.059  14.312
41866W        W10084  26.706  28.719  11.939
41867W        W10085  23.461  14.152  12.231
41868W        W10086  22.978   8.703   1.390
41869W        W10087  12.333  29.718  12.535
41870W        W10088  18.756  14.624  12.896
41871W        W10089   1.082  29.439   2.753
41872W        W10090   1.608  24.679   2.616
41873W        W10091  19.191  12.137  12.792
41874W        W10092  16.425  12.324   3.314
41875W        W10093   0.476   1.203   4.084
41876W        W10094  34.600   5.701  10.832
41877W        W10095  19.884   5.304   3.309
41878W        W10096  23.539   3.790   0.335
41879W        W10097  28.505  33.171   0.781
41880W        W10098  14.890   6.554  12.494
41881W        W10099  20.882  15.313   0.505
41882W        W10100  27.200  36.975   0.382
41883W        W10101  14.722   7.221   0.219
41884W        W10102  20.277  12.296  13.780
41885W        W10103  26.226  22.747   4.311
41886W        W10104  43.339  10.205  10.776
41887W        W10105  32.044   6.263  13.537
41888W        W10106  39.444   0.294  12.906
41889W        W10107  37.312  12.176   3.703
41890W        W10108  18.638  43.552   0.899
41891W        W10109  42.606  26.691   4.050
41892W        W10110  31.357  44.336   3.197
41893W        W10111  14.554  24.584  12.973
41894W        W10112  15.644  41.568   0.273
41895W        W10113  42.385  30.030   0.600
41896W        W10114  21.224  24.621   5.358
41897W        W10115   4.334  39.218   1.672
41898W        W10116  21.581  28.364  11.122
41899W        W10117   4.390  18.453   0.510
41900W        W10118  12.280  32.959  12.951
41901W        W10119  31.315  35.036  11.667
41902W        W10120  26.552   6.278   4.731
41903W        W10121  30.236  17.019  14.451
41904W        W10122   6.956   2.793  13.291
41905W        W10123  15.894  11.912   1.674
41906W        W10124   5.815  26.714   1.242
41907W        W10125  16.066  37.028  13.370
41908W        W10126  10.007   5.227   0.883
41909W        W10127  13.638  43.282   3.752
41910W        W10128  16.069  31.515   1.785
41911W        W10129  15.795  30.148  13.460
41912W        W10130   4.122  34.917   4.219
41913W        W10131  37.677  16.832  13.833
41914W        W10132  31.982  20.116  13.011
41915W        W10133  40.869  30.251   2.055
41916W        W10134  41.193   5.442   2.357
41917W        W10135  17.828   9.110   4.506
41918W        W10136   9.327  14.745  12.481
41919W        W10137   5.926   3.419   4.109
41920W        W10138  31.953  11.109   0.497
41921W        W10139  26.309  31.618   0.273
41922W        W10140  35.892  12.064  14.827
41923W        W10141  19.263  20.347  12.429
41924W        W10142   8.033  28.186   5.164
41925W        W10143  26.582  25.100   9.848
41926W        W10144   4.921   4.159   1.879
41927W        W10145  18.010   4.924  14.228
41928W        W10146  20.516  19.692  10.051
41929W        W10147  25.774  14.331  13.904
41930W        W10148  43.339  13.602   2.721
41931W        W10149  13.959  22.122  14.118
41932W        W10150  44.483  25.764   0.442
41933W        W10151  17.291  12.142  13.429
41934W        W10152  19.687   1.000   1.740
41935W        W10153   7.762  25.790  11.412
41936W        W10154  19.292  35.046  11.967
41937W        W10155  28.225  28.684  11.317
41938W        W10156  20.553  37.500  11.933
41939W        W10157  23.041  32.137   1.707
41940W        W10158  42.688  12.843  14.471
41941W        W10159  34.929  36.406   1.651
41942W        W10160   6.361   9.303  10.611
41943W        W10161  25.172  18.942   1.895
41944W        W10162  17.048  38.817   3.050
41945W        W10163  28.671   2.742   0.912
41946W        W10164  20.411  16.257   0.417
41947W        W10165  35.463   2.403  12.497
41948W        W10166  28.983  17.809   2.353
41949W        W10167  23.105   6.438   3.130
41950W        W10168  34.967   2.212  12.425
41951W        W10169   1.966  14.853   0.776
41952W        W10170  27.655  36.739  12.497
41953W        W10171   9.129  36.489   4.935
41954W        W10172   9.812  35.369  11.114
41955W        W10173   1.899   2.889  12.280
41956W        W10174  36.426  43.417  11.057
41957W        W10175  31.360  36.973   1.820
41958W        W10176  40.057  10.609   1.284
41959W        W10177  27.257  33.561   2.669
41960W        W10178  18.994  25.968  13.924
41961W        W10179   5.146  28.403   2.215
41962W        W10180  20.501  37.353  13.769
41963W        W10181  20.478  21.086  11.494
41964W        W10182   0.866  26.557  14.935
41965W        W10183  44.781   5.991   3.663
41966W        W10184  31.628  33.513   5.198
41967W        W10185  44.690  16.125  12.017
41968W        W10186  41.441  20.334  13.813
41969W        W10187  31.519   6.415   1.973
41970W        W10188  25.443  20.891   5.124
41971W        W10189   0.353  10.714   4.105
41972W        W10190  29.574  34.197   4.212
41973W        W10191  10.401  24.503  10.571
41974W        W10192  38.531  30.329   0.351
41975W        W10193  34.996   7.372   3.983
41976W        W10194   9.667  25.148  13.807
41977W        W10195   7.716  10.819   0.817
41978W        W10196  41.140   7.599   0.773
41979W        W10197  15.958   4.328   2.052
41980W        W10198  38.812  37.106  12.428
41981W        W10199  21.222  32.875   5.092
41982W        W10200  40.830   8.888  13.513
41983W        W10201   0.967  23.552   4.874
41984W        W10202  39.814  29.919   1.393
41985W        W10203  36.121  40.365  13.351
41986W        W10204  16.327  27.758   3.242
41987W        W10205   5.247   2.962   3.690
41988W        W10206   3.783  20.590  11.478
41989W        W10207  41.731   6.899  11.999
41990W        W10208  19.103  22.681   1.818
41991W        W10209   4.218   9.135  12.638
41992W        W10210   5.927  43.361  11.136
41993W        W10211   3.894  31.162   2.299
41994W        W10212  23.335  35.972  13.905
41995W        W10213  33.633  10.809  12.253
41996W        W10214  22.036  31.934   0.547
41997W        W10215  11.116   6.365  10.618
41998W        W10216  32.363  32.632  11.090
41999W        W10217  30.193   8.360   1.500
42000W        W10218   7.840   9.739   2.803
42001W        W10219  10.398  19.714  12.955
42002W        W10220   7.202   9.980   1.651
42003W        W10221  30.031  41.397  13.406
42004W        W10222  44.993   1.221   3.327
42005W        W10223  41.515  40.914  10.716
42006W        W10224   7.061  26.081  12.487
42007W        W10225  20.780  18.278   1.295
42008W        W10226  13.464  38.354  13.932
42009W        W10227  23.169  36.828   2.308
42010W        W10228  17.740  43.696   1.904
42011W        W10229  16.465  15.448  11.022
42012W        W10230  25.118   0.866   4.054
42013W        W10231   3.492   1.989  12.088
42014W        W10232   5.387  15.217  14.978
42015W        W10233  15.729  19.153  14.543
42016W        W10234  37.760  33.343   0.845
42017W        W10235  13.880  29.473   2.749
42018W        W10236  29.015   3.967  14.451
42019W        W10237  12.678  17.005   0.336
42020W        W10238  12.977   9.942   1.724
42021W        W10239   8.371  32.995  11.150
42022W        W10240  42.815  20.071  14.991
42023W        W10241  18.660  33.457  12.554
42024W        W10242  18.182   9.313  11.667
42025W        W10243  17.684  18.417   1.376
42026W        W10244  44.443  17.551  10.423
42027W        W10245  15.350  14.607  11.181
42028W        W10246  11.855   9.948  12.108
42029W        W10247  38.828  28.043  13.812
42030W        W10248  18.076  44.956  14.983
42031W        W10249  40.424  21.700  13.528
42032W        W10250  38.831  18.094  12.454
42033W        W10251   4.454  31.999   3.600
42034W        W10252   5.627   5.210   2.774
42035W        W10253  17.637  36.071  13.535
42036W        W10254  21.036  24.818   1.362
42037W        W10255  23.943  40.247   3.729
42038W        W10256  43.466  11.190   1.956
42039W        W10257  15.699  13.714   1.182
42040W        W10258   7.198  23.039   2.662
42041W        W10259  14.395  17.603  10.355
42042W        W10260  18.849  22.508  13.147
42043W        W10261  28.883  13.685  12.959
42044W        W10262  11.069  19.973  11.375
42045W        W10263   3.411  14.401   2.835
42046W        W10264  25.100   6.649  12.022
42047W        W10265  26.584  31.147   0.170
42048W        W10266  38.598  18.971  10.693
42049W        W10267  12.026  12.767  11.226
42050W        W10268  30.014   5.452  13.873
42051W        W10269  19.180  13.888  13.584
42052W        W10270  30.962  40.808  10.803
42053W        W10271  21.614  19.580   2.678
42054W        W10272  22.989  27.123   0.941
42055W        W10273  29.832  41.974   4.805
42056W        W10274  43.514  17.653   1.223
42057W        W10275  24.953  22.119   4.233
42058W        W10276  43.535  16.220   2.276
42059W        W10277  41.192  32.671   2.673
42060W        W10278  41.533  31.448  12.842
42061W        W10279   6.712  24.779   1.805
42062W        W10280  20.356  31.392   5.468
42063W        W10281  25.643  31.150   4.695
42064W        W10282   9.539  26.887   3.230
42065W        W10283   7.302  40.545   4.516
42066W        W10284   2.194  10.138   4.231
42067W        W10285  11.113  38.551  12.887
42068W        W10286  43.892   7.161   2.861
42069W        W10287  11.235  26.477   1.728
42070W        W10288   8.752  31.868   3.289
42071W        W10289  36.805  14.777  12.418
42072W        W10290  42.472  26.516  12.403
42073W        W10291   0.460   1.869  14.570
42074W        W10292  15.161  42.464   1.809
42075W        W10293  19.763   5.759  14.254
42076W        W10294  10.364  29.355   0.794
42077W        W10295  20.693   7.417  11.971
42078W        W10296  39.236   0.447  13.364
42079W        W10297  36.916  14.709  10.736
42080W        W10298  13.417   3.834   0.987
42081W        W10299  28.947  18.870  11.931
42082W        W10300  44.322  10.175   0.088
42083W        W10301  32.719  42.844   3.725
42084W        W10302  35.654  22.539  14.309
42085W        W10303  31.813  16.751   2.154
42086W        W10304  32.662  27.041  11.535
42087W        W10305  28.354   4.856  11.045
42088W        W10306  41.533   9.827  14.834
42089W        W10307  41.411  16.858  13.978
42090W        W10308  37.109  22.946  11.016
42091W        W10309   7.340  13.443   3.178
42092W        W10310  44.307  38.976  12.933
42093W        W10311   1.457   4.343  14.730
42094W        W10312  41.928  41.923   2.873
42095W        W10313  30.633  21.561   2.395
42096W        W10314  40.915  26.595  12.620
42097W        W10315   4.139  12.310  12.662
42098W        W10316  11.310  41.477  13.497
42099W        W10317  19.548  34.276  12.905
42100W        W10318  12.287  24.957  12.476
42101W        W10319  19.073   3.889   0.389
42102W        W10320  32.053   3.431   3.045
42103W        W10321  25.072   4.220  13.082
42104W        W10322  11.274  22.281  10.654
42105W        W10323  18.281  40.169  13.848
42106W        W10324  13.365  44.910  13.534
42107W        W10325   3.426  28.369   0.525
42108W        W10326  44.764  27.476   0.331
42109W        W10327  13.052  43.660  14.979
42110W        W10328  37.465  22.502   0.586
42111W        W10329  24.199  32.168  13.351
42112W        W10330  32.391   4.156  14.936
42113W        W10331  42.801  19.123   2.411
42114W        W10332  22.251   3.548   2.826
42115W        W10333  42.527   1.121  14.925
42116W        W10334   7.154  10.416   1.367
42117W        W10335  14.332  33.386  10.442
42118W        W10336  19.741  17.373   3.741
42119W        W10337  36.536   1.853   0.052
42120W        W10338   0.707  36.906  11.786
42121W        W10339  35.331  28.097  11.071
42122W        W10340  29.111  23.497   4.582
42123W        W10341  28.588  24.229   3.607
42124W        W10342  11.725  32.088  10.010
42125W        W10343  39.878  14.617   1.332
42126W        W10344  12.314  12.374  13.119
42127W        W10345  42.915  40.521   5.034
42128W        W10346  12.382  41.901   4.039
42129W        W10347  38.632   1.468  12.157
42130W        W10348  25.577  34.860   1.788
42131W        W10349  36.180  15.977   3.291
42132W        W10350  19.491  36.853  10.408
42133W        W10351   9.589  30.166   4.815
42134W        W10352  39.364  11.340  11.428
42135W        W10353   0.751  43.976   0.704
42136W        W10354  42.530  11.869   2.440
42137W        W10355  31.585  18.672   4.590
42138W        W10356   1.380  27.544   4.580
42139W        W10357  43.437  20.486   0.786
42140W        W10358  15.105   2.646   0.388
42141W        W10359   7.323  38.652  13.508
42142W        W10360   2.028   3.286   1.586
42143W        W10361  20.787   4.283  12.641
42144W        W10362  27.046   4.667   1.731
42145W        W10363  34.505  36.602  14.110
42146W        W10364  36.437  18.292  14.881
42147W        W10365   3.251  36.502   1.911
42148W        W10366  35.659  26.650   0.372
42149W        W10367  22.125   4.166  12.914
42150W        W10368   8.724  21.160   1.511
42151W        W10369   5.900  27.119  12.877
42152W        W10370   5.814  38.342  14.745
42153W        W10371  31.398  39.554   4.517
42154W        W10372   5.751   0.393  12.269
42155W        W10373  29.098  17.160  12.471
42156W        W10374  36.931  15.652   0.061
42157W        W10375  31.355   3.873  10.687
42158W        W10376   3.930  16.591   2.255
42159W        W10377  12.897  25.489  12.999
42160W        W10378   8.924  32.325  11.543
42161W        W10379   9.750  20.637   3.652
42162W        W10380   8.880  36.951   1.332
42163W        W10381  43.979  24.805   3.719
42164W        W10382   0.962  42.080  12.968
42165W        W10383  13.984  29.721  10.645
42166W        W10384  10.769  14.440   2.784
42167W        W10385   6.987  19.667  12.314
42168W        W10386  33.811   8.245   1.853
42169W        W10387  29.672  44.127  14.009
42170W        W10388   5.386  17.090  14.987
42171W        W10389  34.946  14.676   1.788
42172W        W10390  12.144  40.543   0.940
42173W        W10391   5.896  24.946  11.199
42174W        W10392  10.351  13.717   1.287
42175W        W10393   2.281   6.891  10.821
42176W        W10394  29.089  34.352  12.268
42177W        W10395  38.128  20.718  14.794
42178W        W10396  40.778   4.949  10.580
42179W        W10397  15.466  44.903   1.685
42180W        W10398  41.985  11.664  10.681
42181W        W10399  18.857  24.294  13.525
42182W        W10400   4.419  24.491   4.676
42183W        W10401  18.497  24.114   4.827
42184W        W10402  17.362  10.239   1.805
42185W        W10403  30.866  33.629  13.061
42186W        W10404  27.156  38.383   4.714
42187W        W10405  30.083  38.096  13.775
42188W        W10406  40.281  35.745   0.290
42189W        W10407  10.711  28.953   3.691
42190W        W10408  14.551   9.049   1.979
42191W        W10409   9.640  10.022   4.859
42192W        W10410  21.933  36.472   3.430
42193W        W10411   8.811  44.011   1.038
42194W        W10412  29.185  11.087  11.152
42195W        W10413  40.462  35.962   3.789
42196W        W10414  15.550  20.191   1.836
42197W        W10415  22.055  43.099  10.699
42198W        W10416   0.729  43.576   3.155
42199W        W10417   1.012  19.272   2.918
42200W        W10418  18.244  35.583  12.955
42201W        W10419  36.823  43.563   2.211
42202W        W10420  39.513  31.138   1.150
42203W        W10421  10.333  10.223   4.170
42204W        W10422  44.306  28.227   0.862
42205W        W10423  14.547   2.909  12.806
42206W        W10424  20.006   4.217  11.090
42207W        W10425   7.931  40.019  14.267
42208W        W10426   2.685  42.022   1.711
42209W        W10427  32.513  17.294   2.783
42210W        W10428  13.839   1.192   0.071
42211W        W10429   2.775  44.409  13.366
42212W        W10430  33.239  39.448   0.811
42213W        W10431  22.518  31.487  14.958
42214W        W10432   3.512   3.945   3.229
42215W        W10433  41.042  20.989   0.009
42216W        W10434   1.701  19.755  13.889
42217W        W10435  32.458  40.046  12.056
42218W        W10436  38.848  21.493   2.770
42219W        W10437  15.830  40.922  10.399
42220W        W10438  14.007  19.448   1.288
42221W        W10439  29.600  15.258   0.201
42222W        W10440  13.347  25.074  11.653
42223W        W10441  30.649  14.795   3.172
42224W        W10442  11.716  26.174  12.408
42225W        W10443   4.251   4.381   0.351
42226W        W10444  27.605  11.227   4.180
42227W        W10445  37.408  27.166   0.823
42228W        W10446   2.214   4.678   1.260
42229W        W10447  27.628  22.114   4.120
42230W        W10448  22.719  20.923  13.458
42231W        W10449  42.903  22.838   4.626
42232W        W10450  42.292  43.176   1.770
42233W        W10451  43.385  32.825   1.339
42234W        W10452   7.175  17.711   3.122
42235W        W10453  37.225  40.316  12.658
42236W        W10454  10.509  42.849  12.148
42237W        W10455   9.348  30.468   2.225
42238W        W10456  12.304  35.899  14.518
42239W        W10457  43.596   8.557  13.985
42240W        W10458   7.845  39.413   3.181
42241W        W10459  15.142  15.014   4.171
42242W        W10460   8.985   7.629  11.625
42243W        W10461  18.045  30.545  12.289
42244W        W10462   9.366  20.539  13.019
42245W        W10463  34.336  44.215   1.367
42246W        W10464  43.283  30.156   2.061
42247W        W10465  10.769  13.480  12.822
42248W        W10466  22.231  27.516   4.482
42249W        W10467  37.097   6.128   1.771
42250W        W10468  35.097  44.989  11.964
42251W        W10469   7.740  40.087  11.424
42252W        W10470   2.944  11.727  12.969
42253W        W10471  31.077  35.134  13.069
42254W        W10472  21.747   2.301   3.305
42255W        W10473  27.000  19.014  12.658
42256W        W10474  24.570  32.399   0.289
42257W        W10475  34.972  10.127  13.320
42258W        W10476   5.627  10.881   2.747
42259W        W10477  18.782  16.041  12.141
42260W        W10478  23.481  28.675   0.465
42261W        W10479  17.848  24.441   0.755
42262W        W10480  27.452  43.036  13.154
42263W        W10481  33.975  21.246  14.709
42264W        W10482   7.332  38.646   1.855
42265W        W10483   8.710  20.966   2.849
42266W        W10484  17.696   7.238  12.052
42267W        W10485   8.729   0.286   4.529
42268W        W10486  34.071   2.163  13.376
42269W        W10487  42.564  38.367   1.234
42270W        W10488  10.123  24.172   1.001
42271W        W10489  20.963  16.401  14.940
42272W        W10490  44.453  30.926  14.273
42273W        W10491  26.877  43.241   1.676
42274W        W10492   8.382  15.190  14.853
42275W        W10493  41.745   3.973   3.407
42276W        W10494  35.344  27.070   2.337
42277W        W10495   4.157  17.263  13.481
42278W        W10496  12.556  30.117  14.280
42279W        W10497  43.412  39.850   1.843
42280W        W10498  44.443  10.663   4.399
42281W        W10499  16.929   5.161   3.678
42282W        W10500  21.527  22.758   3.700
42283W        W10501  20.632  29.244   1.717
42284W        W10502  16.231  19.301  14.803
42285W        W10503  44.569  34.919  14.060
42286W        W10504  24.762  19.177  14.588
42287W        W10505   5.289   4.807   3.055
42288W        W10506  25.665  39.486  12.520
42289W        W10507  10.367   7.930  12.080
42290W        W10508  17.201  19.503   1.814
42291W        W10509  12.143   4.738   4.680
42292W        W10510  14.411   9.992   2.694
42293W        W10511  39.642  18.773  12.395
42294W        W10512  16.831  13.963   0.580
42295W        W10513  18.870  44.878   0.921
42296W        W10514  42.003  31.666  12.873
42297W        W10515  42.919  23.567   2.093
42298W        W10516   4.596  21.137  12.011
42299W        W10517  15.902  15.655   1.405
42300W        W10518  17.074  12.835   0.923
42301W        W10519  20.978   0.373  10.714
42302W        W10520  13.188  37.605   1.801
42303W        W10521  23.318  13.795   1.935
42304W        W10522   1.195  30.812   1.752
42305W        W10523  26.708   4.783  11.828
42306W        W10524   6.417  30.680   4.728
42307W        W10525   0.911  20.332  12.901
42308W        W10526  44.224   7.066  10.576
42309W        W10527  39.792  38.818   2.733
42310W        W10528  30.527  22.775   2.472
42311W        W10529  14.059  28.293  14.456
42312W        W10530  38.739  26.673  13.493
42313W        W10531   4.206  14.535  12.063
42314W        W10532  22.040  33.897  14.318
42315W        W10533  15.385  12.279  11.624
42316W        W10534  32.933  43.023   0.535
42317W        W10535   1.131  23.080   1.805
42318W        W10536  11.430   6.794  10.587
42319W        W10537  16.797  13.161   3.834
42320W        W10538  10.849  13.843  10.681
42321W        W10539  37.596  44.853   0.722
42322W        W10540  28.684  35.565  12.434
42323W        W10541  14.138  40.033   4.750
42324W        W10542   1.511  16.869  11.024
42325W        W10543  37.540  30.006   4.398
42326W        W10544  27.762  10.785   3.949
42327W        W10545   0.056  38.852  10.769
42328W        W10546   1.479  14.099  14.711
42329W        W10547  16.854  11.882   2.445
42330W        W10548  39.533  17.546   1.947
42331W        W10549   7.975  20.018   5.479
42332W        W10550   8.493  16.570   2.794
42333W        W10551  19.718  11.384  10.711
42334W        W10552  15.011   8.996   2.600
42335W        W10553  17.548  33.609   0.889
42336W        W10554  40.839  20.104  12.910
42337W        W10555   0.228  11.738  10.716
42338W        W10556  12.142   3.834  12.536
42339W        W10557  25.932  17.380   4.612
42340W        W10558  12.890  40.287  11.676
42341W        W10559  29.628   2.710   2.193
42342W        W10560  27.966  37.785   0.821
42343W        W10561  40.342   6.803   1.217
42344W        W10562   4.949   4.293  11.087
42345W        W10563  30.691  13.703   1.622
42346W        W10564   7.847   3.020  14.829
42347W        W10565  19.924  40.258  10.746
42348W        W10566  40.472  37.618   1.019
42349W        W10567  18.624  16.016  11.667
42350W        W10568  16.629  39.299  14.411
42351W        W10569  44.222  43.780   0.805
42352W        W10570   9.653   9.348  13.592
42353W        W10571  39.452  26.923  13.783
42354W        W10572  38.521  44.779   1.093
42355W        W10573  21.654   4.325  12.511
42356W        W10574  29.869  24.561   4.539
42357W        W10575  28.949  42.409   4.525
42358W        W10576   0.282   0.893   2.769
42359W        W10577  15.143  25.076  13.350
42360W        W10578  33.926  28.344  11.000
42361W        W10579   6.904  42.866  13.426
42362W        W10580  39.032  35.617   5.044
42363W        W10581  41.404   7.125   3.880
42364W        W10582  14.072  13.727  12.365
42365W        W10583  11.801  13.748  14.848
42366W        W10584  16.301  34.873   2.150
42367W        W10585  40.035  19.214  14.380
42368W        W10586   6.247  20.495  14.104
42369W        W10587  34.336  39.927  10.548
42370W        W10588  20.268   8.121  13.508
42371W        W10589  16.203   3.464  14.429
42372W        W10590  14.730   0.010  14.848
42373W        W10591  20.344  21.891   2.820
42374W        W10592  19.068  28.479   1.629
42375W        W10593   9.879   4.265   0.442
42376W        W10594  40.423  27.184  10.894
42377W        W10595   9.164  28.114  13.541
42378W        W10596  34.460  25.219  11.454
42379W        W10597  36.919  37.909   2.629
42380W        W10598  31.527  22.499   4.909
42381W        W10599   2.306  16.765  14.674
42382W        W10600  41.300   2.559   0.757
42383W        W10601  29.693   0.109  10.771
42384W        W10602  35.648  30.326   2.547
42385W        W10603  28.939  22.896  11.639
42386W        W10604   2.019  14.674   4.537
42387W        W10605  19.627  30.989   2.834
42388W        W10606  25.916  18.581  11.956
42389W        W10607  31.013  14.415   2.810
42390W        W10608   4.777  33.332  13.071
42391W        W10609  25.547  16.053  12.844
42392W        W10610  24.819  43.831   1.915
42393W        W10611  23.427  34.856  10.734
42394W        W10612  20.236  24.925   0.248
42395W        W10613   4.176  29.631  12.396
42396W        W10614  12.758  39.591   3.876
42397W        W10615  29.107  37.899  13.139
42398W        W10616  35.847   8.912  14.417
42399W        W10617  31.106   8.398  11.680
42400W        W10618  26.987   6.409  14.865
42401W        W10619   0.331   6.384   2.322
42402W        W10620  34.904  44.987  14.272
42403W        W10621  37.831  32.348   4.137
42404W        W10622  27.475  44.566  11.203
42405W        W10623  17.719  41.056  11.295
42406W        W10624  28.515  41.289  13.946
42407W        W10625  28.156  40.319  11.147
42408W        W10626  23.921  37.117  14.472
42409W        W10627   3.832  14.659   2.710
42410W        W10628  36.856  35.400   1.844
42411W        W10629   8.716  20.582   2.441
42412W        W10630  36.653  40.429  13.401
42413W        W10631  31.768  13.988   4.442
42414W        W10632   9.370  31.110  11.265
42415W        W10633  16.818  22.138  10.351
42416W        W10634   6.308  25.774  11.216
42417W        W10635   4.921   3.940  13.934
42418W        W10636   4.373  41.005  14.351
42419W        W10637  28.965  23.157   1.340
42420W        W10638  19.185  12.850  13.550
42421W        W10639  12.037  32.188  10.987
42422W        W10640  36.654  23.681  10.900
42423W        W10641  34.693  16.201   0.426
42424W        W10642  19.302   2.345   3.683
42425W        W10643   3.119  31.697   2.228
42426W        W10644   4.601  18.548  12.968
42427W        W10645  12.420  20.645   3.231
42428W        W10646  29.940   5.620  12.996
42429W        W10647  21.607  16.090  12.525
42430W        W10648  10.111  34.553  12.179
42431W        W10649   1.372   4.495   1.242
42432W        W10650  44.773  23.778   3.817
42433W        W10651   5.908   6.169  13.443
42434W        W10652  16.359  14.776  11.167
42435W        W10653  37.403  15.234  11.476
42436W        W10654   9.233  42.566   0.527
42437W        W10655  21.509  19.523  11.184
42438W        W10656  37.796  17.615   1.884
42439W        W10657  37.108  43.865   1.427
42440W        W10658  10.324  32.838   3.648
42441W        W10659  37.976  30.706   3.727
42442W        W10660  15.146   2.234  11.035
42443W        W10661  28.372  25.236  14.306
42444W        W10662   8.176  14.370  11.643
42445W        W10663  35.857   0.176   2.207
42446W        W10664  21.631  14.401  14.466
42447W        W10665  25.126   7.685  13.524
42448W        W10666   2.243  26.565   4.306
42449W        W10667  12.610  15.854  12.929
42450W        W10668  30.145  39.074   3.301
42451W        W10669  30.851  38.955  10.972
42452W        W10670   4.050   8.409  14.326
42453W        W10671  28.724   2.829  12.484
42454W        W10672  42.813  11.688  12.162
42455W        W10673  33.563  38.435   0.913
42456W        W10674   4.331  34.562  12.382
42457W        W10675   0.731  24.287   2.782
42458W        W10676  10.286  42.687  14.507
42459W        W10677  39.249  28.953  11.894
42460W        W10678  32.325  13.834   0.561
42461W        W10679  10.173   4.356   2.716
42462W        W10680  28.445  10.065   3.637
42463W        W10681  19.138  12.683  14.532
42464W        W10682  37.007  21.059  13.457
42465W        W10683  23.770  37.187   3.209
42466W        W10684   0.508  25.476   2.288
42467W        W10685  17.308  37.452   4.102
42468W        W10686   0.900   8.285   0.777
42469W        W10687  24.287  40.014   4.592
42470W        W10688  26.720  41.557   0.031
42471W        W10689  26.002  32.568   3.429
42472W        W10690  30.159  14.138  12.068
42473W        W10691  28.651   4.819  10.595
42474W        W10692  41.936   4.106   5.737
42475W        W10693  39.470   0.851   0.171
42476W        W10694  44.571   2.303  11.183
42477W        W10695  30.286  26.549   4.982
42478W        W10696  28.206  23.555  12.446
42479W        W10697  26.060   0.349  10.939
42480W        W10698  37.569  13.374  12.350
42481W        W10699  28.448  27.055   4.047
42482W        W10700  24.181  40.434  14.841
42483W        W10701  32.501   6.229  11.563
42484W        W10702   2.292  27.092  13.796
42485W        W10703  42.837  23.862  10.771
42486W        W10704  18.063  38.601  11.124
42487W        W10705   6.691  26.988  10.900
42488W        W10706  10.787   2.813   1.613
42489W        W10707  37.129  40.568   4.936
42490W        W10708  11.332  36.886  13.351
42491W        W10709  39.424  22.283  12.997
42492W        W10710  34.058   8.458   2.278
42493W        W10711  22.881  28.964  13.038
42494W        W10712  41.202  36.250   0.318
42495W        W10713  19.702  42.325  11.138
42496W        W10714  35.188  28.190   3.148
42497W        W10715   2.164  34.808  11.951
42498W        W10716   2.244  23.036   1.015
42499W        W10717  17.796  30.313   4.487
42500W        W10718   2.928  25.952   1.347
42501W        W10719  41.830  19.248  10.312
42502W        W10720  15.798  18.141   0.292
42503W        W10721  34.655  21.606   3.207
42504W        W10722  43.427  38.771   0.646
42505W        W10723  27.092  25.031   0.430
42506W        W10724   5.924  13.680  13.792
42507W        W10725   4.910  38.605   3.828
42508W        W10726  11.646  22.530  12.374
42509W        W10727  19.011  22.486   3.771
42510W        W10728  15.649  24.264  12.267
42511W        W10729  29.544  21.741   0.686
42512W        W10730  30.862  17.526   1.350
42513W        W10731   5.812  13.179   3.331
42514W        W10732  20.016  39.650  14.908
42515W        W10733  18.626   3.709   2.602
42516W        W10734  22.702  38.812   2.952
42517W        W10735  36.640   2.281   3.547
42518W        W10736  28.881  25.732  12.105
42519W        W10737  35.999  16.533  12.426
42520W        W10738  24.011   5.387  11.662
42521W        W10739  34.581  35.006   1.709
42522W        W10740  26.071  15.965   3.051
42523W        W10741  33.168  31.031  13.115
42524W        W10742  10.493   3.443   4.163
42525W        W10743  39.350   5.972   4.185
42526W        W10744  38.127  20.083   3.416
42527W        W10745  10.419  17.652  11.960
42528W        W10746  16.686   4.208  14.191
42529W        W10747  10.504  31.111  12.376
42530W        W10748  31.835  19.136  12.805
42531W        W10749  35.398  18.203  13.367
42532W        W10750  11.608  14.745  14.539
42533W        W10751  35.330  32.439   2.267
42534W        W10752   9.692  13.734  11.946
42535W        W10753  16.040  13.725   0.785
42536W        W10754  27.049  17.268  10.680
42537W        W10755   8.478  14.319  10.701
42538W        W10756  26.166   6.908   4.687
42539W        W10757  15.372   2.046   2.869
42540W        W10758  43.226  33.545  12.899
42541W        W10759  16.223  21.731   4.296
42542W        W10760  23.514  13.520  10.736
42543W        W10761  40.019  27.563   2.354
42544W        W10762  18.701  31.596  11.119
42545W        W10763  14.544   2.850  10.652
42546W        W10764  25.092  10.778  11.986
42547W        W10765  21.356  24.368  13.655
42548W        W10766  23.581  29.649  10.682
42549W        W10767  38.470   2.952   0.228
42550W        W10768  20.286   3.223   2.647
42551W        W10769  16.976  39.228   4.786
42552W        W10770  37.706  21.543   4.795
42553W        W10771  28.095   8.730  12.780
42554W        W10772  19.786  38.486   0.804
42555W        W10773  16.564  19.462  14.358
42556W        W10774  14.909   0.532  11.618
42557W        W10775  11.374  26.841  12.597
42558W        W10776  36.690  16.035   3.351
42559W        W10777   0.201  10.160  14.027
42560W        W10778  17.787  33.927  10.627
42561W        W10779  30.394  32.292  12.062
42562W        W10780  23.655   0.491  11.871
42563W        W10781  28.195  40.415   3.191
42564W        W10782  19.495   0.217   4.097
42565W        W10783  31.044   8.414   1.212
42566W        W10784  40.322  40.413   3.248
42567W        W10785  30.013  14.013  11.592
42568W        W10786  36.212   9.298  14.525
42569W        W10787  16.683  43.505  13.458
42570W        W10788  20.548  20.980  12.985
42571W        W10789  26.364  38.818   1.707
42572W        W10790  16.905  36.826  12.102
42573W        W10791  36.286  44.994  14.304
42574W        W10792  23.769  41.233   0.082
42575W        W10793  28.587  25.561   2.300
42576W        W10794  16.786  23.453  12.627
42577W        W10795  29.551  16.106  14.239
42578W        W10796   2.372  36.587  11.006
42579W        W10797  42.889  24.430  11.437
42580W        W10798   8.191   2.899   2.452
42581W        W10799  32.944  35.353   1.439
42582W        W10800   1.803  27.409  12.901
42583W        W10801  38.840  21.686   3.726
42584W        W10802  25.709  26.176   0.926
42585W        W10803  42.473  14.233   0.865
42586W        W10804  24.387  32.205   2.596
42587W        W10805  22.529  12.140   2.412
42588W        W10806  31.203   1.195  13.496
42589W        W10807  15.553  18.455  11.548
42590W        W10808  31.539  32.428  11.492
42591W        W10809   3.508   7.030   4.119
42592W        W10810  33.084  11.766   3.620
42593W        W10811  31.060  42.239   4.145
42594W        W10812   4.459   5.718   1.412
42595W        W10813  22.993   0.944  11.215
42596W        W10814  23.646  44.966  12.202
42597W        W10815  26.181  25.942  12.522
42598W        W10816  39.351  37.245   4.308
42599W        W10817  32.424  15.734  13.421
42600W        W10818  19.700  21.969  12.643
42601W        W10819  11.891  34.803  14.328
42602W        W10820  24.115  28.570   2.773
42603W        W10821  23.746  22.137   3.690
42604W        W10822  29.439  43.944  11.079
42605W        W10823  24.928  25.482  10.787
42606W        W10824  20.030  43.670  14.063
42607W        W10825  23.149  30.611  12.642
42608W        W10826  22.805  23.410  13.405
42609W        W10827   0.254  23.691  11.433
42610W        W10828  31.870  31.026  12.535
42611W        W10829  25.574   8.891   3.364
42612W        W10830   1.228  17.106   1.766
42613W        W10831  27.571  14.766  12.527
42614W        W10832  34.988  21.742   0.709
42615W        W10833  36.146  37.841  13.915
42616W        W10834  42.986  17.229   0.859
42617W        W10835  12.835  37.909   1.535
42618W        W10836  29.691   5.901  12.615
42619W        W10837  39.901  24.068  11.437
42620W        W10838  36.369  23.466  12.865
42621W        W10839  18.560  16.102  14.473
42622W        W10840  23.747  29.615   0.361
42623W        W10841  21.209   6.390  13.110
42624W        W10842  30.271   2.740  10.969
42625W        W10843  43.475  28.408   4.743
42626W        W10844  24.100  21.507  14.367
42627W        W10845  19.792  18.046  13.929
42628W        W10846  44.454  24.280  11.958
42629W        W10847  24.007  17.257  12.574
42630W        W10848  19.206  10.866  14.880
42631W        W10849  12.682  13.257  11.346
42632W        W10850   0.478  12.168  10.940
42633W        W10851  23.839  27.593  12.111
42634W        W10852  44.985  20.995   3.000
42635W        W10853   5.240  14.218   2.746
42636W        W10854  27.502  14.654   3.454
42637W        W10855  25.721   7.936  11.985
42638W        W10856  22.403  12.109   3.745
42639W        W10857  35.347  12.640  13.837
42640W        W10858   2.820  12.678  14.895
42641W        W10859  14.049  20.943   2.664
42642W        W10860  30.547   9.244   3.780
42643W        W10861  15.169  42.048  10.061
42644W        W10862  41.528  11.930  13.715
42645W        W10863   3.881  21.130   4.234
42646W        W10864  19.779   5.715  12.293
42647W        W10865  16.222  30.896  11.935
42648W        W10866   3.460  34.432   2.782
42649W        W10867  12.817  34.389  11.076
42650W        W10868  16.147  32.834   0.933
42651W        W10869  15.227  19.700  13.327
42652W        W10870  34.616  19.642  13.303
42653W        W10871  37.382  24.444   0.015
42654W        W10872  44.942  12.726   4.204
42655W        W10873  35.937   7.288   1.470
42656W        W10874  26.624   9.111   1.900
42657W        W10875  23.197  44.214  14.833
42658W        W10876   8.918  17.828   0.653
42659W        W10877   6.628  19.345   4.554
42660W        W10878  14.963  31.468   4.193
42661W        W10879  42.359  38.655   1.631
42662W        W10880  24.126   7.805   3.550
42663W        W10881   7.205  38.314   2.245
42664W        W10882  37.001  32.093   3.189
42665W        W10883  30.515  27.578  10.236
42666W        W10884  12.751   9.977   4.201
42667W        W10885  27.317   0.214  10.682
42668W        W10886  35.283   9.674   0.296
42669W        W10887  16.758  14.278  14.347
42670W        W10888  17.386  16.728  14.287
42671W        W10889  30.073  44.840   2.343
42672W        W10890   7.922  20.176  11.457
42673W        W10891  33.489  32.092   1.291
42674W        W10892   0.347  31.285  12.076
42675W        W10893  19.485  15.369  13.316
42676W        W10894  41.640  23.486   1.387
42677W        W10895  20.575  15.579   2.271
42678W        W10896  26.992  31.539  12.818
42679W        W10897  26.497  24.485   4.997
42680W        W10898  16.832  33.713   0.141
42681W        W10899   8.072   9.273   2.822
42682W        W10900  27.218  30.961  14.561
42683W        W10901  39.547  38.994   4.267
42684W        W10902  40.370  37.787  13.611
42685W        W10903  14.145  12.888  14.717
42686W        W10904   9.298   8.112  14.370
42687W        W10905  19.081  25.637  14.489
42688W        W10906  28.653  33.415  14.313
42689W        W10907   8.134  41.434  14.316
42690W        W10908  12.551  36.869   0.380
42691W        W10909  33.842   4.057  12.553
42692W        W10910   5.001   8.159   3.685
42693W        W10911   7.325  37.034   0.861
42694W        W10912  22.013  41.267   2.738
42695W        W10913  40.537  36.994  14.643
42696W        W10914  30.422  14.433   5.023
42697W        W10915  31.417  16.550  14.339
42698W        W10916  37.402  30.600  14.816
42699W        W10917   4.359  40.009  11.611
42700W        W10918  19.536  16.420  12.575
42701W        W10919  27.266  19.268   3.644
42702W        W10920  11.128   9.207   0.051
42703W        W10921  29.843   0.499   1.389
42704W        W10922   7.384   4.873   4.350
42705W        W10923  41.418  33.049   2.930
42706W        W10924  38.869   0.625   3.466
42707W        W10925   5.461  31.209  11.194
42708W        W10926  32.319   2.968  10.242
42709W        W10927  19.619  33.079   1.549
42710W        W10928  34.851  22.994  14.865
42711W        W10929  42.358   3.076  11.586
42712W        W10930  15.128  42.986   4.462
42713W        W10931  38.408   8.368  13.322
42714W        W10932   5.127  16.154   2.384
42715W        W10933  33.733  15.101  13.685
42716W        W10934   2.962  15.161   2.898
42717W        W10935   2.736   9.298   2.665
42718W        W10936  37.462   7.088  14.563
42719W        W10937  22.989   5.764  14.736
42720W        W10938  35.123   7.391  14.671
42721W        W10939   3.957  41.779   3.810
42722W        W10940  13.558  10.769   3.093
42723W        W10941  12.140  21.059  10.694
42724W        W10942  11.883  34.858  11.236
42725W        W10943  29.061   5.256   0.325
42726W        W10944  33.508   3.881   2.337
42727W        W10945  27.505  14.377  11.510
42728W        W10946  29.217   1.472  12.980
42729W        W10947  21.150  40.228   0.330
42730W        W10948   2.329  16.122   1.733
42731W        W10949  13.163  41.222   3.192
42732W        W10950  20.986  14.267  13.685
42733W        W10951  40.258   7.797  14.816
42734W        W10952  12.989  32.177   9.819
42735W        W10953  32.594  22.814   4.342
42736W        W10954  10.905  29.300  10.667
42737W        W10955  29.976   0.032  12.620
42738W        W10956  28.850  38.755  11.136
42739W        W10957   4.993  21.067  11.650
42740W        W10958  30.129  20.906  13.455
42741W        W10959  11.401  43.422   2.324
42742W        W10960  38.370  13.317   3.325
42743W        W10961  30.356  24.633  14.382
42744W        W10962  31.492  16.528   3.169
42745W        W10963  44.222  36.428   0.216
42746W        W10964   4.715   8.594   1.416
42747W        W10965  31.148  31.849  13.315
42748W        W10966  28.971   8.714  12.845
42749W        W10967  25.250   7.747  12.093
42750W        W10968  10.726  19.697   4.503
42751W        W10969  19.841   8.890  13.566
42752W        W10970   3.007  27.362   2.163
42753W        W10971  22.510  37.058   4.276
42754W        W10972  13.829  44.312   0.661
42755W        W10973  24.052  19.751  10.597
42756W        W10974  32.638  17.185  12.347
42757W        W10975  26.867  17.773  10.626
42758W        W10976  34.425  24.077   4.654
42759W        W10977  30.418   1.298  14.890
42760W        W10978  31.449  42.752   2.128
42761W        W10979  39.886   3.486  14.747
42762W        W10980   3.398  44.235   2.966
42763W        W10981   8.792  37.032   4.852
42764W        W10982  41.263  32.171   2.890
42765W        W10983  24.700   3.384  11.171
42766W        W10984  16.185  15.517   0.966
42767W        W10985  16.870  10.152   2.706
42768W        W10986  18.215  28.998   4.542
42769W        W10987  16.720  17.323  12.062
42770W        W10988  32.957  33.858   2.049
42771W        W10989  19.011  14.791  12.458
42772W        W10990   8.867   5.960   2.711
42773W        W10991   6.633  22.740   0.895
42774W        W10992   2.948  27.068   0.430
42775W        W10993  39.799  12.415   1.796
42776W        W10994  24.313  35.213   0.348
42777W        W10995  15.348  20.532   3.665
42778W        W10996  29.431  43.291  14.376
42779W        W10997  31.109  39.406   3.819
42780W        W10998  37.803  31.303   4.332
42781W        W10999  13.891  38.117   1.531
42782W        W11000  32.418  35.418   3.103
42783W        W11001  33.593  34.058   2.400
42784W        W11002  40.854   4.251   2.345
42785W        W11003  10.136  20.805   2.701
42786W        W11004  27.059   6.251  14.377
42787W        W11005  40.481  13.281   1.909
42788W        W11006  26.554   4.843   2.490
42789W        W11007   5.628  18.116  10.987
42790W        W11008  14.863   0.247  12.089
42791W        W11009  38.838   3.689   4.452
42792W        W11010  22.179  44.200   4.987
42793W        W11011  17.365   4.173  12.547
42794W        W11012  41.984   4.705   4.618
42795W        W11013  21.211  12.768  12.401
42796W        W11014   5.718  35.426  11.570
42797W        W11015   7.394  43.322  14.448
42798W        W11016  35.116   0.699  13.991
42799W        W11017  15.584  10.409  14.427
42800W        W11018   2.876  12.685   4.883
42801W        W11019  41.040  20.535  11.882
42802W        W11020  38.853  13.356   4.196
42803W        W11021  40.289  29.905   1.164
42804W        W11022  13.524  12.051   2.313
42805W        W11023  29.922  10.907  13.659
42806W        W11024  36.001  23.641   3.761
42807W        W11025   3.208   2.953   1.219
42808W        W11026  19.104  40.850  11.042
42809W        W11027  28.760  35.929  13.966
42810W        W11028   8.286  44.364   4.660
42811W        W11029  23.154  30.708   3.810
42812W        W11030  44.316   1.307  12.673
42813W        W11031  41.549  12.016  13.208
42814W        W11032   2.882  27.328  14.041
42815W        W11033  43.812  28.451  12.363
42816W        W11034  29.615  23.096  12.006
42817W        W11035   8.484  12.802  13.248
42818W        W11036   3.672  37.940   2.837
42819W        W11037  41.952  22.041   3.176
42820W        W11038  25.544   6.654   2.222
42821W        W11039  43.838   3.570   3.539
42822W        W11040  37.047  44.661   3.373
42823W        W11041  24.177   1.189  13.887
42824W        W11042   0.059  18.703  13.893
42825W        W11043   6.780   9.257   1.421
42826W        W11044  24.699  17.674   1.475
42827W        W11045  20.064   4.197   2.641
42828W        W11046  14.804  35.388  13.799
42829W        W11047  40.120  35.865   3.402
42830W        W11048  25.433  12.882  12.654
42831W        W11049  21.992  17.757   2.083
42832W        W11050  10.712  13.544   2.225
42833W        W11051  15.261  26.113  10.361
42834W        W11052  31.985   5.080  12.993
42835W        W11053  40.662  19.995   3.657
42836W        W11054  31.656  17.312  14.493
42837W        W11055  26.597  20.082  10.793
42838W        W11056  44.953  24.918  12.875
42839W        W11057  18.504  20.680   3.125
42840W        W11058  35.477  41.957  11.053
42841W        W11059  41.669   0.862  14.516
42842W        W11060  17.073   2.713  14.330
42843W        W11061  34.855   9.373   0.738
42844W        W11062  13.641  42.806  12.472
42845W        W11063  44.571  10.687  11.541
42846W        W11064  14.642   6.867   1.403
42847W        W11065  31.747  24.491   3.270
42848W        W11066   8.914  12.228  12.388
42849W        W11067  35.798  29.588  14.466
42850W        W11068  37.776  33.617   3.586
42851W        W11069  26.103  34.497  11.816
42852W        W11070  21.070  37.212   2.685
42853W        W11071  26.184  35.561  10.576
42854W        W11072  35.052  25.689  10.735
42855W        W11073  39.824  38.895  13.964
42856W        W11074  15.211  44.883  12.845
42857W        W11075   0.359  33.145  13.718
42858W        W11076  23.553  21.727  13.582
42859W        W11077  10.048  40.765  10.970
42860W        W11078   8.279  37.476   4.065
42861W        W11079  33.912  20.845  10.365
42862W        W11080  15.052  40.350   0.500
42863W        W11081   0.252   7.937  11.944
42864W        W11082  17.509  25.469   4.221
42865W        W11083  22.055  27.781  13.313
42866W        W11084  28.851   2.031   5.046
42867W        W11085  15.644   6.406   4.089
42868W        W11086  44.457  38.128   3.662
42869W        W11087  15.369  34.828  13.377
42870W        W11088  17.070   5.450   0.653
42871W        W11089   8.209  30.511  12.623
42872W        W11090   2.413  43.921  12.558
42873W        W11091  22.325  35.033  11.561
42874W        W11092  37.873  42.002  10.801
42875W        W11093  13.067  13.414   4.259
42876W        W11094  13.260   8.926   0.054
42877W        W11095  16.100  16.170   1.656
42878W        W11096  24.084  33.283  10.910
42879W        W11097  10.821  24.665  14.834
42880W        W11098   5.914  11.250  11.900
42881W        W11099  12.990  12.775   1.733
42882W        W11100  20.644  44.919   0.877
42883W        W11101  33.322  37.945   1.793
42884W        W11102  11.270  21.418   1.779
42885W        W11103   7.358   9.227   1.384
42886W        W11104  36.983  25.686   3.643
42887W        W11105  20.277   9.595  10.892
42888W        W11106  43.918  27.005   2.638
42889W        W11107   0.776  38.051   3.373
42890W        W11108  20.769  25.160  11.596
42891W        W11109  16.282  32.728   3.233
42892W        W11110  14.245  18.618   0.728
42893W        W11111  35.681  14.152  14.326
42894W        W11112  29.161  14.482  14.106
42895W        W11113  10.434  39.066   4.207
42896W        W11114  43.980  23.239  11.325
42897W        W11115   0.967   5.727   4.719
42898W        W11116  31.607  36.984   4.665
42899W        W11117  22.794  16.315   1.840
42900W        W11118   0.692  28.915   2.608
42901W        W11119  10.129  20.158  11.137
42902W        W11120  40.411  24.301  10.690
42903W        W11121   3.503  27.481  14.014
42904W        W11122  31.618  27.214   4.001
42905W        W11123  43.232   1.862   3.389
42906W        W11124  25.086  43.745  11.953
42907W        W11125  29.680  35.494  10.699
42908W        W11126   0.587  32.600  12.146
42909W        W11127  20.771   4.264   0.430
42910W        W11128  33.066  21.071  12.880
42911W        W11129   8.555  40.791   2.679
42912W        W11130   8.625  40.159  12.040
42913W        W11131  41.949  38.138   3.041
42914W        W11132  18.191  32.375  10.567
42915W        W11133  29.705   7.412  12.967
42916W        W11134   9.199  14.229  11.627
42917W        W11135  22.984  36.434   0.389
42918W        W11136  22.567  23.624   1.320
42919W        W11137  33.378  31.826   3.248
42920W        W11138   8.891   0.183  11.650
42921W        W11139  16.424  43.021   3.622
42922W        W11140  40.335  32.965  11.945
42923W        W11141  40.743  25.698   0.842
42924W        W11142   7.801  39.175  12.051
42925W        W11143   9.236  37.697   1.513
42926W        W11144  16.053   4.912  10.554
42927W        W11145  10.316  44.791   1.167
42928W        W11146   4.102  38.769   1.882
42929W        W11147   1.818  28.398   3.305
42930W        W11148   4.398  35.112  11.064
42931W        W11149   7.377  10.781  13.481
42932W        W11150  23.123   9.748   3.187
42933W        W11151  11.289  18.153   4.195
42934W        W11152  17.037  29.680   0.693
42935W        W11153  41.802  43.730   1.342
42936W        W11154  19.830  33.420   3.421
42937W        W11155  25.603   9.650  11.493
42938W        W11156  44.839  26.378  12.538
42939W        W11157  17.147  32.859  14.327
42940W        W11158  33.670  10.511  10.116
42941W        W11159  22.699   7.390   1.039
42942W        W11160  43.245  38.399  11.742
42943W        W11161   8.686  28.399   0.272
42944W        W11162  16.047  40.928  13.969
42945W        W11163  18.330  23.734   1.709
42946W        W11164   4.636  33.888  10.548
42947W        W11165   5.843  40.159  10.260
42948W        W11166  44.333  10.254   3.105
42949W        W11167  15.001  37.546   2.218
42950W        W11168  19.249  13.833  12.532
42951W        W11169   7.631  14.195   0.473
42952W        W11170  19.592  14.653  13.822
42953W        W11171  19.039  29.414   2.581
42954W        W11172  18.671  24.671   1.115
42955W        W11173   6.887  44.926   1.775
42956W        W11174  40.972   9.399   0.305
42957W        W11175  20.319  39.985  12.428
42958W        W11176  12.545  35.475   3.223
42959W        W11177  20.417  37.257  14.962
42960W        W11178  35.054  12.498  12.122
42961W        W11179   8.615   3.037  11.478
42962W        W11180  44.461  28.494  12.948
42963W        W11181  26.810  39.929  12.096
42964W        W11182  16.574  24.671   1.944
42965W        W11183   6.220  28.679  13.880
42966W        W11184   2.396  40.590   4.244
42967W        W11185  40.375  17.783  13.280
42968W        W11186  23.930  26.269   4.202
42969W        W11187  28.430  22.060   1.746
42970W        W11188  19.840  39.641  14.410
42971W        W11189  25.793  17.345  14.021
42972W        W11190  43.386  35.432  12.284
42973W        W11191  32.796   4.017  14.350
42974W        W11192  16.621  28.006  11.402
42975W        W11193  17.624   8.369  13.401
42976W        W11194  31.355   8.157  14.930
42977W        W11195  26.142   7.250   1.839
42978W        W11196  33.337  25.973   0.015
42979W        W11197  39.007   4.393  14.370
42980W        W11198  16.168  37.057   2.240
42981W        W11199  35.905   6.753   1.739
42982W        W11200  31.330  17.648  14.959
42983W        W11201   3.360  35.484   1.482
42984W        W11202  29.822   5.697   3.066
42985W        W11203  38.950   4.809  10.009
42986W        W11204  36.353  27.473   0.290
42987W        W11205  24.378  10.563  13.358
42988W        W11206  19.998  32.352   3.781
42989W        W11207  26.629  33.523  13.530
42990W        W11208   5.273   0.263   4.965
42991W        W11209  32.045   8.744   1.952
42992W        W11210  24.446  21.067   4.571
42993W        W11211  24.910  38.719  13.893
42994W        W11212  28.536  29.139   0.138
42995W        W11213  20.238   7.365  14.515
42996W        W11214  39.275  44.063  13.544
42997W        W11215  19.110  32.000   4.720
42998W        W11216  43.441  41.545  14.932
42999W        W11217  12.661  16.221  14.029
43000W        W11218  39.435  37.046  13.763
43001W        W11219   4.644  25.052  10.447
43002W        W11220  24.476  14.734  11.820
43003W        W11221  31.715   4.004  12.655
43004W        W11222  19.502   1.433  12.109
43005W        W11223  44.319  43.094  10.569
43006W        W11224  33.116   1.758   1.877
43007W        W11225  29.938  14.811   4.290
43008W        W11226  36.839  16.195  13.324
43009W        W11227   8.410  41.284   3.723
43010W        W11228  16.841   3.516  11.151
43011W        W11229  27.015  26.601   3.615
43012W        W11230  17.532   5.794   4.566
43013W        W11231  18.730  12.100  11.493
43014W        W11232   6.096  17.371   2.558
43015W        W11233   5.391   1.697  13.481
43016W        W11234   4.714  36.714  14.370
43017W        W11235  22.125  25.634   2.858
43018W        W11236  35.355   3.018   2.021
43019W        W11237  36.089  32.115   3.874
43020W        W11238  36.184  23.540   4.755
43021W        W11239  34.396  19.152  13.299
43022W        W11240  23.794  33.070   1.808
43023W        W11241  43.096   3.697  11.056
43024W        W11242  34.416  21.074   0.435
43025W        W11243   5.665  28.616   3.199
43026W        W11244  31.879  27.112   1.885
43027W        W11245   7.652  15.461   3.684
43028W        W11246  39.915  18.575  13.155
43029W        W11247  10.975  25.599   3.333
43030W        W11248   3.228  28.169  12.174
43031W        W11249  40.639  36.934  12.538
43032W        W11250  40.780   8.766   1.864
43033W        W11251  30.446  24.472   2.400
43034W        W11252  42.379  11.162  12.499
43035W        W11253  42.288  22.687  11.353
43036W        W11254   7.837  38.520   3.276
43037W        W11255  31.820  26.043   0.239
43038W        W11256   5.197  43.971   1.848
43039W        W11257  23.518   0.295   0.765
43040W        W11258  22.682  42.418   3.712
43041W        W11259   5.178   5.255  14.004
43042W        W11260  22.619  35.449   2.426
43043W        W11261  24.005   4.766  13.811
43044W        W11262  21.228  36.720   9.972
43045W        W11263  27.795   6.820   0.560
43046W        W11264  35.586  22.764   2.739
43047W        W11265  12.683   5.397  13.109
43048W        W11266  33.483  28.113  10.404
43049W        W11267  12.470  44.769  12.212
43050W        W11268  22.617  11.716  14.730
43051W        W11269  23.117  22.292  14.415
43052W        W11270  42.854  22.631  13.184
43053W        W11271  21.597   0.992  14.911
43054W        W11272   5.205  11.071   4.507
43055W        W11273  32.828   5.956   3.176
43056W        W11274   4.219   8.851  14.051
43057W        W11275  38.282  16.112  11.118
43058W        W11276  35.259   3.498   9.839
43059W        W11277  29.997  13.537  10.695
43060W        W11278   2.254  43.723  14.884
43061W        W11279  28.224  14.202   4.499
43062W        W11280   1.874   0.015   4.291
43063W        W11281  17.384  23.792   1.788
43064W        W11282   3.993  27.645  12.235
43065W        W11283  19.947  32.422  11.069
43066W        W11284  12.765  14.681  11.519
43067W        W11285  37.553   6.842  14.000
43068W        W11286   4.462   8.588  13.535
43069W        W11287  25.580  33.166   2.768
43070W        W11288  41.360   6.265   1.540
43071W        W11289  42.277  29.550   2.845
43072W        W11290  11.179  17.237   1.697
43073W        W11291  23.503  14.082   4.125
43074W        W11292  31.828   5.490  14.746
43075W        W11293  11.137  25.865  11.515
43076W        W11294   9.713   7.946   3.118
43077W        W11295  40.572  39.859   4.209
43078W        W11296   8.003  10.699   4.622
43079W        W11297  11.760  10.346   0.737
43080W        W11298  21.784  40.841   4.522
43081W        W11299  35.777   0.809  13.131
43082W        W11300  39.976  26.460   1.231
43083W        W11301  14.635   6.109  11.148
43084W        W11302   5.015  10.983  11.014
43085W        W11303  26.414  30.647  12.923
43086W        W11304  20.616   0.959  10.893
43087W        W11305   5.263   8.900   2.390
43088W        W11306  25.714  21.983   4.063
43089W        W11307  24.263  32.641  14.462
43090W        W11308  42.552  23.134  13.983
43091W        W11309  33.493  36.339  12.637
43092W        W11310   3.287  14.618   1.788
43093W        W11311  29.444  26.356   2.422
43094W        W11312  20.359  16.659  11.603
43095W        W11313  36.534  12.867  11.189
43096W        W11314  37.890  30.362  12.135
43097W        W11315  10.728  28.696   4.134
43098W        W11316   4.925  14.754  14.286
43099W        W11317  32.638  12.599  14.082
43100W        W11318  22.557  26.728   3.327
43101W        W11319  27.712  21.145   0.938
43102W        W11320  13.353   6.860  14.395
43103W        W11321  42.497  44.383   2.412
43104W        W11322  13.103  43.320   2.850
43105W        W11323  33.738   3.047   0.384
43106W        W11324  30.389  16.626   4.528
43107W        W11325  26.999   8.492   4.212
43108W        W11326  24.320   2.914   3.924
43109W        W11327  37.958  40.860  14.286
43110W        W11328  15.619   2.252   3.289
43111W        W11329  40.948   4.376   3.925
43112W        W11330  33.570  39.637  14.482
43113W        W11331  41.781   0.901  10.354
43114W        W11332  18.054  25.144   2.817
43115W        W11333  22.738  14.646   1.759
43116W        W11334  11.347   7.655   3.247
43117W        W11335  39.610  10.284  10.691
43118W        W11336  33.961  19.776  12.109
43119W        W11337  20.088  42.722  12.494
43120W        W11338  19.102  29.547  10.658
43121W        W11339   1.466   7.593   4.575
43122W        W11340   1.432  20.072   4.092
43123W        W11341  38.830   8.094   3.661
43124W        W11342  19.305  40.807   1.466
43125W        W11343   7.946  26.465  13.775
43126W        W11344  38.404   1.917  10.917
43127W        W11345  30.878  38.838   1.881
43128W        W11346  43.538   5.825  12.598
43129W        W11347  37.588  11.444   2.566
43130W        W11348  31.663  30.546  12.518
43131W        W11349  24.993  32.620  13.041
43132W        W11350  22.805  33.936   1.851
43133W        W11351   1.725   4.168  11.623
43134W        W11352  32.636  22.570   0.271
43135W        W11353  34.558  23.047   1.775
43136W        W11354   7.507  14.402   3.146
43137W        W11355  33.990   0.938  12.945
43138W        W11356  25.250   9.157  12.574
43139W        W11357   7.949  12.105   4.669
43140W        W11358   2.155  33.447  14.955
43141W        W11359  28.238   3.960   2.016
43142W        W11360  10.989  19.352  12.647
43143W        W11361  38.765  39.148  12.892
43144W        W11362   2.544  34.050  12.403
43145W        W11363  23.485  10.875   4.085
43146W        W11364  15.586  17.798  12.410
43147W        W11365  10.461  19.335   3.712
43148W        W11366  35.880  38.301   4.232
43149W        W11367  23.929  26.784   4.140
43150W        W11368  44.858  38.908  13.387
43151W        W11369   8.591  21.590  10.731
43152W        W11370   0.446  12.748  12.047
43153W        W11371  26.097  39.491  11.221
43154W        W11372  32.137  21.550  14.884
43155W        W11373   5.357  15.073  11.729
43156W        W11374  38.857  38.587  14.885
43157W        W11375   3.221  35.918  13.802
43158W        W11376   8.453  39.785   0.903
43159W        W11377   2.825  34.671   1.186
43160W        W11378  20.702   4.922  11.615
43161W        W11379  29.706  42.980  11.891
43162W        W11380  44.357  20.786  14.988
43163W        W11381  13.902  28.259  11.724
43164W        W11382  16.879  28.109   0.180
43165W        W11383  36.678  28.631   4.486
43166W        W11384  16.155  42.004  13.038
43167W        W11385  33.474  29.220  12.822
43168W        W11386  28.653   2.909  13.521
43169W        W11387  35.583  11.621  12.914
43170W        W11388  13.031  21.950   0.837
43171W        W11389   2.231  29.391   4.066
43172W        W11390  42.433  42.741  12.070
43173W        W11391   2.818   7.630   2.214
43174W        W11392  11.170  38.045  12.121
43175W        W11393   8.388   2.679   3.867
43176W        W11394  18.737  18.632   2.163
43177W        W11395  35.663  26.646  12.573
43178W        W11396   7.403  33.119   2.353
43179W        W11397  27.893   4.620  11.020
43180W        W11398  27.343  38.079  12.967
43181W        W11399  24.608  23.816   0.366
43182W        W11400  10.162  25.420   1.895
43183W        W11401  24.946  22.527   1.609
43184W        W11402  14.132   3.330   0.874
43185W        W11403  29.383  15.732   0.468
43186W        W11404   7.497  26.689   1.523
43187W        W11405   5.997  12.623  13.832
43188W        W11406  18.583   6.886  14.891
43189W        W11407  28.925   3.335  12.484
43190W        W11408  36.557  43.859  14.274
43191W        W11409  32.619  29.563   1.230
43192W        W11410  15.914  35.914  10.818
43193W        W11411  33.338  24.724   1.915
43194W        W11412  39.747   7.927  14.815
43195W        W11413  43.779  42.477  13.005
43196W        W11414   0.557   8.207  10.717
43197W        W11415  17.686   2.188   4.268
43198W        W11416   9.777  37.554  14.927
43199W        W11417   4.313  34.059   1.945
43200W        W11418  41.757  28.935   0.777
43201W        W11419   7.338  35.903  13.068
43202W        W11420  29.400  44.267  11.589
43203W        W11421  39.449  29.159  11.130
43204W        W11422  33.950  34.037  10.690
43205W        W11423  39.376  33.948  14.830
43206W        W11424  15.801   8.279  11.611
43207W        W11425   1.483   4.196  11.138
43208W        W11426   8.716  36.068   1.626
43209W        W11427  23.256  40.804   3.865
43210W        W11428   2.927  31.380   1.437
43211W        W11429  20.782  42.976   3.057
43212W        W11430   4.977  32.686   3.712
43213W        W11431  43.878  40.822   2.966
43214W        W11432  30.582  37.245   0.404
43215W        W11433  16.112  20.304  10.748
43216W        W11434  37.829  10.717   2.446
43217W        W11435  17.139  44.526   0.851
43218W        W11436  37.557  35.386   3.310
43219W        W11437  33.429  12.516  11.275
43220W        W11438  13.825  17.753   3.208
43221W        W11439   9.385  43.802   4.032
43222W        W11440  29.010  41.240   0.961
43223W        W11441  23.531  32.359  13.000
43224W        W11442  33.607  31.498   2.387
43225W        W11443  34.826  23.248   3.201
43226W        W11444  23.073  10.235   0.545
43227W        W11445  37.284  23.841  11.707
43228W        W11446  14.776  25.444   3.141
43229W        W11447  22.320  24.081   1.287
43230W        W11448  37.784  19.173   4.069
43231W        W11449  10.585  30.119  13.280
43232W        W11450   7.764  24.491  11.211
43233W        W11451  25.728   9.144  11.404
43234W        W11452   4.000  20.006  14.495
43235W        W11453   3.939  39.213  14.081
43236W        W11454  21.562  21.920  13.063
43237W        W11455  21.306   1.711  11.916
43238W        W11456  13.267  13.747   0.684
43239W        W11457  17.855  16.423   4.247
43240W        W11458  26.888  24.734   4.746
43241W        W11459  15.637  18.816   1.413
43242W        W11460  40.859   2.168   2.123
43243W        W11461  39.542   3.846   4.051
43244W        W11462   1.289  22.527  12.854
43245W        W11463  10.590  32.515   2.995
43246W        W11464  23.141  21.137   0.256
43247W        W11465  36.788  17.202  13.376
43248W        W11466  19.693  12.372   1.310
43249W        W11467  32.032   6.523  13.964
43250W        W11468  10.330  10.836   2.913
43251W        W11469  20.820  13.319  11.207
43252W        W11470  43.432   0.294   2.109
43253W        W11471  18.300  28.452   4.468
43254W        W11472  10.461  14.168  14.856
43255W        W11473  15.593  15.411  12.895
43256W        W11474  34.600  22.489   0.304
43257W        W11475  13.619  37.815  12.957
43258W        W11476   9.419  32.949   3.575
43259W        W11477  37.971  15.273   1.127
43260W        W11478  23.769  11.894  12.774
43261W        W11479  33.588  28.296   4.919
43262W        W11480  37.041  39.145   4.038
43263W        W11481  26.716   8.188   0.326
43264W        W11482  12.535  12.764  11.464
43265W        W11483   5.971  37.299  10.020
43266W        W11484  34.332   6.317   1.766
43267W        W11485  36.961  29.903  12.928
43268W        W11486  37.345   3.777  10.512
43269W        W11487  11.174  21.862   3.580
43270W        W11488  32.891  38.022   3.851
43271W        W11489  18.766  23.611  14.047
43272W        W11490   2.484  14.796   2.909
43273W        W11491  24.705  34.949   4.733
43274W        W11492  26.229  17.320  11.162
43275W        W11493  22.628  23.286   0.005
43276W        W11494  20.945  38.295  10.919
43277W        W11495  16.765  39.557  14.913
43278W        W11496  13.845  11.738  12.036
43279W        W11497  13.816  18.675  12.076
43280W        W11498  13.259   7.112   2.701
43281W        W11499  15.257  15.375  10.744
43282W        W11500  26.468  34.007   2.212
43283W        W11501  31.920  36.623   3.273
43284W        W11502  16.385   4.213   1.762
43285W        W11503   3.900  39.646  12.345
43286W        W11504  19.643  35.391   4.694
43287W        W11505  12.533  21.550   3.271
43288W        W11506  13.187   9.773  12.504
43289W        W11507  44.817  12.031   2.333
43290W        W11508  39.935  26.875  12.576
43291W        W11509  40.074   1.938   2.032
43292W        W11510  29.859   8.867   3.958
43293W        W11511   7.120  33.331  13.388
43294W        W11512   3.259  26.554  13.554
43295W        W11513  22.582   9.878   3.228
43296W        W11514  21.778  38.486  11.241
43297W        W11515  18.073  11.805  11.291
43298W        W11516  27.590  38.210  14.342
43299W        W11517  19.800   2.371   2.660
43300W        W11518   6.187  19.718  11.662
43301W        W11519  39.019   6.143  11.152
43302W        W11520  20.146   7.195   4.120
43303W        W11521  32.068  28.742  10.533
43304W        W11522  38.055  24.836   1.203
43305W        W11523  38.447   4.250   1.008
43306W        W11524  38.011   5.841  10.681
43307W        W11525  28.557  12.868   0.438
43308W        W11526   3.674  23.618   2.386
43309W        W11527  41.893   0.138  10.883
43310W        W11528   1.719  23.663  13.584
43311W        W11529  15.637  26.257  10.715
43312W        W11530  23.556   9.909   2.212
43313W        W11531  33.865  43.865   3.613
43314W        W11532  23.065  23.842  14.518
43315W        W11533  43.832  23.913  10.727
43316W        W11534  44.416  19.674  14.210
43317W        W11535  40.370  30.043  12.071
43318W        W11536  31.936  25.123  14.844
43319W        W11537  37.892  22.232  14.294
43320W        W11538  44.213  16.330  11.986
43321W        W11539  36.686  38.368   0.421
43322W        W11540   6.367  31.041  12.436
43323W        W11541  36.303  22.182   0.935
43324W        W11542  27.319  21.247  13.889
43325W        W11543  14.652  32.501   2.680
43326W        W11544  29.884   8.918  10.810
43327W        W11545   3.621  12.395  12.667
43328W        W11546  11.319  41.301  11.194
43329W        W11547  15.951   3.872   0.586
43330W        W11548  32.996  41.864   4.847
43331W        W11549  21.392   3.111   2.531
43332W        W11550   6.345   4.317   3.705
43333W        W11551  28.759  43.003   3.661
43334W        W11552  42.668   0.642  12.407
43335W        W11553  42.961  23.278   3.559
43336W        W11554  28.433  39.446  10.769
43337W        W11555  13.613  31.674   5.172
43338W        W11556  38.010  20.666   3.625
43339W        W11557  10.248   8.803   4.929
43340W        W11558  33.112  32.902   4.724
43341W        W11559   6.403  38.575  10.569
43342W        W11560  39.599  18.229   4.643
43343W        W11561  25.127  18.027  11.002
43344W        W11562  35.225   2.585   0.219
43345W        W11563  44.957  23.865   2.271
43346W        W11564  43.766  13.579   4.301
43347W        W11565  43.250  26.865   4.547
43348W        W11566  38.180   3.898   1.296
43349W        W11567  43.918  30.495  12.416
43350W        W11568  44.278  42.449  13.741
43351W        W11569  31.628  35.980  13.629
43352W        W11570  10.077   5.680   3.322
43353W        W11571  22.624   7.767   0.367
43354W        W11572  29.355  42.769  14.344
43355W        W11573  33.970  14.828   1.703
43356W        W11574  34.187   9.903   2.739
43357W        W11575  23.415  38.071   3.670
43358W        W11576  15.275   6.887   3.139
43359W        W11577  42.627  36.483   3.203
43360W        W11578  13.800  29.111   4.650
43361W        W11579  14.081  29.657  12.991
43362W        W11580  22.766  31.539  14.513
43363W        W11581  39.034  14.276   3.843
43364W        W11582  30.575  41.290   4.551
43365W        W11583   0.299   2.424  13.794
43366W        W11584  19.023  41.576   1.864
43367W        W11585  35.610  28.560  10.209
43368W        W11586  31.699  21.512  10.541
43369W        W11587  15.300   5.935   3.310
43370W        W11588   7.012   4.723   2.514
43371W        W11589  41.291  44.921  13.139
43372W        W11590  27.637   8.792   0.715
43373W        W11591  23.536  27.598  13.080
43374W        W11592  14.216   6.483   4.619
43375W        W11593  25.076   3.942  12.643
43376W        W11594  44.500   6.710  12.162
43377W        W11595   5.166  14.686  12.386
43378W        W11596  37.904  23.194  11.448
43379W        W11597  16.744  40.648   1.398
43380W        W11598   9.772  38.464   3.395
43381W        W11599  36.406  33.094   1.316
43382W        W11600  20.539  40.176  12.867
43383W        W11601  33.236  16.121   2.686
43384W        W11602  29.448  34.656  13.542
43385W        W11603  42.755  27.567  12.048
43386W        W11604   8.435   0.762   2.444
43387W        W11605   0.104  22.697   0.201
43388W        W11606  24.061   4.087  11.410
43389W        W11607  31.723  10.595   4.008
43390W        W11608   4.583  33.626  11.033
43391W        W11609  35.131  24.242   4.109
43392W        W11610  36.610  30.101   1.924
43393W        W11611  21.960  16.618  11.331
43394W        W11612  29.262  44.661  14.575
43395W        W11613   2.580  10.431   1.817
43396W        W11614   9.119  21.565   2.220
43397W        W11615  19.348  11.228  12.335
43398W        W11616  27.892  37.985   4.916
43399W        W11617  23.091  42.913  12.507
43400W        W11618   6.749  30.416  12.414
43401W        W11619   6.171   3.530   1.698
43402W        W11620  30.407  29.399  10.437
43403W        W11621  25.691  26.428  13.344
43404W        W11622  18.073  26.185   3.254
43405W        W11623  27.164   7.870   0.911
43406W        W11624  34.451  30.567  10.939
43407W        W11625  40.483  32.506   3.308
43408W        W11626   5.333  29.666   0.981
43409W        W11627   5.799  36.491   0.764
43410W        W11628   4.427   1.853  13.444
43411W        W11629  32.380  32.839  10.611
43412W        W11630  40.865  37.513   2.786
43413W        W11631  31.422   0.398   1.308
43414W        W11632  41.412  14.312   3.746
43415W        W11633   3.055   1.701  13.821
43416W        W11634   6.774   1.746  10.981
43417W        W11635  26.459   3.649   1.032
43418W        W11636  17.534  28.540   0.342
43419W        W11637  30.010  38.015  12.818
43420W        W11638  35.340  21.952   0.327
43421W        W11639  28.038  14.147   5.434
43422W        W11640  41.005  11.195   0.914
43423W        W11641  43.931   2.744  10.710
43424W        W11642  33.906  43.912   1.262
43425W        W11643  25.925  18.375  14.468
43426W        W11644   9.218  31.030  11.735
43427W        W11645  22.165  18.816   0.198
43428W        W11646  34.675   0.371  10.578
43429W        W11647   3.508   4.020  12.439
43430W        W11648  38.339   7.431  10.591
43431W        W11649  33.977   1.158  13.523
43432W        W11650   5.408   7.291   0.888
43433W        W11651  28.866  44.552  14.957
43434W        W11652  26.383  33.685   4.145
43435W        W11653   9.293   3.512   3.235
43436W        W11654  17.132  37.331   0.422
43437W        W11655  12.032   9.138   4.988
43438W        W11656  25.735  10.143   1.906
43439W        W11657  17.972  42.161   0.269
43440W        W11658  42.944  35.335  12.001
43441W        W11659   9.243  22.019   1.852
43442W        W11660  18.616  16.796   3.781
43443W        W11661  38.539  21.616   1.513
43444W        W11662  21.388   3.206   4.538
43445W        W11663  34.070  15.524  12.957
43446W        W11664  25.549  28.385  12.443
43447W        W11665  37.616  14.735   3.149
43448W        W11666  30.188  31.487   1.295
43449W        W11667  31.050  28.224  14.333
43450W        W11668  37.954   6.956  14.676
43451W        W11669  35.675   0.182  13.869
43452W        W11670   1.725  14.844   3.353
43453W        W11671  32.680  23.914   1.325
43454W        W11672   5.911  28.914   2.363
43455W        W11673  30.617  10.944   2.733
43456W        W11674  35.831  22.994  11.850
43457W        W11675  19.621  37.206  14.267
43458W        W11676  42.937   0.241  11.661
43459W        W11677  30.366  22.243  13.857
43460W        W11678  19.745  27.511  10.720
43461W        W11679   0.956  26.736   4.625
43462W        W11680  14.183  23.684   0.468
43463W        W11681  35.802  20.098  14.845
43464W        W11682  44.878  23.581  13.145
43465W        W11683  11.737  38.246  14.251
43466W        W11684  42.006   2.663  12.872
43467W        W11685   3.816  18.104   1.188
43468W        W11686  38.024  39.447   1.085
43469W        W11687  24.301  23.607  12.414
43470W        W11688  19.689   0.963   4.530
43471W        W11689  33.725  12.181   0.928
43472W        W11690  35.597   1.278   2.821
43473W        W11691  43.373  40.026   3.637
43474W        W11692  11.326  14.921   2.240
43475W        W11693  27.158   7.431  14.935
43476W        W11694  18.882  33.760  10.691
43477W        W11695   0.074  43.544   2.836
43478W        W11696  14.157   2.416  12.148
43479W        W11697   4.918  20.950   2.745
43480W        W11698  32.691  15.263   4.531
43481W        W11699  20.312  11.598   3.690
43482W        W11700   8.671  39.752  13.954
43483W        W11701  10.477   1.061   3.830
43484W        W11702   0.356  20.944   1.340
43485W        W11703  18.724  23.623   3.162
43486W        W11704  11.301  23.837   4.149
43487W        W11705  23.115  33.560   2.045
43488W        W11706  15.125  15.819  12.974
43489W        W11707  30.932  40.549   0.790
43490W        W11708  15.856   0.684   4.318
43491W        W11709  30.750   8.996  14.910
43492W        W11710  29.146   2.723   3.322
43493W        W11711  29.143  28.290  13.065
43494W        W11712  14.307  42.983  10.689
43495W        W11713  37.390  17.319   2.791
43496W        W11714  43.433  21.184   3.937
43497W        W11715  15.380  16.799   3.107
43498W        W11716  44.662  30.145  12.034
43499W        W11717  24.169  28.914   2.013
43500W        W11718  27.645  37.510   1.497
43501W        W11719  19.030  36.270   1.314
43502W        W11720  23.282  19.741  12.113
43503W        W11721  32.664  17.675  13.574
43504W        W11722  29.131   4.711  11.483
43505W        W11723  21.265  36.634  14.348
43506W        W11724  18.798  23.525   1.836
43507W        W11725  15.687  21.315   4.111
43508W        W11726  18.937  34.404   1.840
43509W        W11727  17.121  36.058   2.113
43510W        W11728   0.634  39.316  14.291
43511W        W11729  37.425  12.085   0.797
43512W        W11730  15.373  39.577  10.626
43513W        W11731  24.211   7.118  14.341
43514W        W11732  30.669  26.484  14.234
43515W        W11733  36.006  33.611  13.539
43516W        W11734  43.792  44.528  12.561
43517W        W11735  41.888  25.859   3.680
43518W        W11736  11.705  43.390  11.939
43519W        W11737  10.922  32.160   5.268
43520W        W11738  30.590  24.512  11.656
43521W        W11739  38.258  30.266  11.121
43522W        W11740  39.328  11.091   4.167
43523W        W11741  44.793  33.686   0.309
43524W        W11742   9.226   2.762  12.976
43525W        W11743  42.547  31.647  12.037
43526W        W11744  35.739  38.400   1.541
43527W        W11745   1.697   9.699  12.604
43528W        W11746   2.873  36.006   4.382
43529W        W11747  29.015  42.443  11.622
43530W        W11748  19.658  35.668   1.047
43531W        W11749  39.966  30.881   4.411
43532W        W11750  22.809  27.208  11.176
43533W        W11751  23.466  41.114   1.843
43534W        W11752  11.383  37.616  13.005
43535W        W11753  27.053   5.269   4.896
43536W        W11754  28.726   4.360  13.045
43537W        W11755  36.462  19.289  14.529
43538W        W11756  22.144  13.653  13.181
43539W        W11757  41.429  37.583   1.989
43540W        W11758  30.685   4.816  11.896
43541W        W11759   1.780  21.530  12.001
43542W        W11760  18.421   7.323   4.083
43543W        W11761  31.884  18.769   1.037
43544W        W11762  10.181  22.178  11.133
43545W        W11763  29.411  40.337  12.168
43546W        W11764   7.311  15.432   4.932
43547W        W11765  13.690   0.922  11.182
43548W        W11766   0.284   8.448  11.992
43549W        W11767  34.366  27.455  12.271
43550W        W11768  24.242  31.008  10.718
43551W        W11769  39.090   0.303   2.684
43552W        W11770   5.901  28.032  13.889
43553W        W11771  24.820   3.846  14.019
43554W        W11772  17.537  34.604   0.667
43555W        W11773  15.054   0.856   1.748
43556W        W11774  37.275   6.887   4.524
43557W        W11775  14.988  23.670  12.403
43558W        W11776  20.781  32.251  10.787
43559W        W11777  22.711  43.989  11.693
43560W        W11778  39.607  11.478   0.870
43561W        W11779  44.308  30.146  14.504
43562W        W11780   0.170  32.615   4.215
43563W        W11781  15.594  35.910  10.430
43564W        W11782  25.686   1.278  14.975
43565W        W11783   5.381   7.683  13.828
43566W        W11784   7.697  19.709   0.665
43567W        W11785  20.127   5.042  13.371
43568W        W11786  23.731   2.145  12.634
43569W        W11787   7.832  25.942   3.821
43570W        W11788   4.934   0.915  14.811
43571W        W11789  12.412  23.779   1.232
43572W        W11790  38.087  17.161  13.079
43573W        W11791  31.605   7.227   4.383
43574W        W11792   7.699  41.532   2.160
43575W        W11793  37.276  38.848  11.506
43576W        W11794  44.767  16.726   4.730
43577W        W11795  10.875  30.208  11.473
43578W        W11796  36.916  15.113   4.511
43579W        W11797  15.104  11.801   3.705
43580W        W11798   7.849  15.419  12.691
43581W        W11799  11.036  20.401  14.474
43582W        W11800  31.602  14.747  11.991
43583W        W11801  29.939  15.236  14.807
43584W        W11802  12.265  23.613  13.253
43585W        W11803  23.604  28.487   2.851
43586W        W11804  34.243  18.019   1.633
43587W        W11805  20.601   4.263   1.856
43588W        W11806  33.135  36.935  11.169
43589W        W11807  17.595  36.342  11.140
43590W        W11808  20.607  20.586   1.433
43591W        W11809  12.140  16.970  14.990
43592W        W11810  14.327  28.401  14.008
43593W        W11811   7.379  28.139   2.869
43594W        W11812  13.219  43.075   1.436
43595W        W11813  25.142   7.854   0.517
43596W        W11814   9.279  38.168  14.588
43597W        W11815  36.455   1.856  10.883
43598W        W11816  33.981   2.475  10.698
43599W        W11817   5.221   0.719  13.428
43600W        W11818  41.199  30.098   1.365
43601W        W11819  28.880  17.129   5.462
43602W        W11820  33.696   8.783   4.583
43603W        W11821  14.619  37.805   3.240
43604W        W11822  40.985  26.137   1.000
43605W        W11823  28.669  44.950  10.697
43606W        W11824  22.013  20.259  14.533
43607W        W11825  42.551   3.846   4.601
43608W        W11826  28.857  21.583   0.335
43609W        W11827  31.705  13.342  12.868
43610W        W11828   1.144  27.102  13.467
43611W        W11829  35.611  34.388  12.213
43612W        W11830   8.334  25.503  13.442
43613W        W11831  32.399  19.188   2.254
43614W        W11832   6.336   7.050   2.803
43615W        W11833  19.229  28.958   0.856
43616W        W11834  33.960  32.714  10.866
43617W        W11835   1.452  44.385  14.024
43618W        W11836  25.064  37.937  10.509
43619W        W11837  26.088  22.000  13.916
43620W        W11838   2.835  21.244  11.142
43621W        W11839   9.834   4.436  13.348
43622W        W11840  18.289   5.571  11.511
43623W        W11841  34.718  25.490   2.344
43624W        W11842   8.283  40.883   0.056
43625W        W11843  43.066  14.710  11.531
43626W        W11844  41.774  24.661   4.778
43627W        W11845  31.945  32.820  13.374
43628W        W11846  11.432  24.068  14.283
43629W        W11847  19.097  42.167  11.685
43630W        W11848  33.950  42.552   2.233
43631W        W11849  11.071  36.382   2.350
43632W        W11850  35.130  30.972  14.030
43633W        W11851   7.327  40.895  14.228
43634W        W11852  18.531  25.341   0.418
43635W        W11853  18.648   7.150   1.712
43636W        W11854  23.237  38.699   1.596
43637W        W11855   9.823  36.485  11.186
43638W        W11856  17.638   9.225  11.089
43639W        W11857  23.564   1.730  12.376
43640W        W11858  39.606  39.845   4.187
43641W        W11859  38.106  32.169  12.493
43642W        W11860  23.580  34.873  14.459
43643W        W11861  31.967  28.102  13.047
43644W        W11862   7.727   2.082  12.979
43645W        W11863  31.147  42.369   0.222
43646W        W11864  36.439  44.575  12.186
43647W        W11865   3.876  39.797  12.846
43648W        W11866  39.102   5.184   3.800
43649W        W11867   4.270  12.582   3.684
43650W        W11868  20.821   5.992   1.444
43651W        W11869  21.521  32.429  11.939
43652W        W11870  35.966  36.810  12.074
43653W        W11871  36.744  19.743  12.042
43654W        W11872  10.851  40.866   4.571
43655W        W11873  31.038   7.932   1.358
43656W        W11874   0.022  41.893  13.139
43657W        W11875   2.020  30.898   0.484
43658W        W11876  37.706  28.822   3.823
43659W        W11877  39.851  20.019   4.119
43660W        W11878   8.239  39.808  11.511
43661W        W11879  32.679   7.925  11.263
43662W        W11880  42.469  17.222   0.859
43663W        W11881   1.329   8.957  13.997
43664W        W11882  36.937  37.918  12.482
43665W        W11883  17.629  32.997  11.610
43666W        W11884  22.165  42.214   1.304
43667W        W11885   4.157  37.301  12.477
43668W        W11886  23.442   7.346   4.989
43669W        W11887  34.811  20.627  13.309
43670W        W11888  24.308  15.125   2.782
43671W        W11889  36.660  25.754   0.536
43672W        W11890  28.232  13.266  11.159
43673W        W11891  32.895  44.438  11.024
43674W        W11892  42.544  42.403  11.150
43675W        W11893  38.504   2.643   5.016
43676W        W11894  27.667  23.315   0.489
43677W        W11895   5.283  36.616   0.849
43678W        W11896  40.885  39.214  12.822
43679W        W11897  16.160  39.438  11.108
43680W        W11898  10.107  14.194   3.819
43681W        W11899  15.128  10.289  13.718
43682W        W11900  20.036  29.102   3.386
43683W        W11901   1.269   3.946   4.167
43684W        W11902   4.942  35.435   4.153
43685W        W11903  17.840  38.498  10.325
43686W        W11904  36.043  28.185  11.430
43687W        W11905  11.269   9.810  14.227
43688W        W11906  25.370   0.642  10.458
43689W        W11907  28.264  23.438   4.295
43690W        W11908  43.515  14.693  14.996
43691W        W11909  41.840  18.267  13.779
43692W        W11910   3.208   0.678  14.429
43693W        W11911  19.688  43.761   4.580
43694W        W11912  19.460  29.891   1.885
43695W        W11913  30.178  20.170  11.574
43696W        W11914  36.533  22.732  11.810
43697W        W11915  15.066  27.505   4.516
43698W        W11916  33.470  43.343   0.036
43699W        W11917  31.421  38.405  12.895
43700W        W11918  25.931  43.085   0.755
43701W        W11919  31.362  21.302   1.699
43702W        W11920  29.103  31.684  12.360
43703W        W11921   4.826  42.225   0.007
43704W        W11922  20.191  32.199  13.938
43705W        W11923  17.391  38.804  14.517
43706W        W11924  10.105  21.738   2.335
43707W        W11925   0.033  26.690   1.863
43708W        W11926   5.880   3.413   3.240
43709W        W11927   8.456   3.331   2.436
43710W        W11928  22.560  22.147   2.128
43711W        W11929   8.575  36.775   2.766
43712W        W11930   5.634  31.804   4.889
43713W        W11931  41.824  31.537  12.404
43714W        W11932  28.646  26.030   1.267
43715W        W11933  39.910  13.384   3.325
43716W        W11934   0.947  14.733   2.183
43717W        W11935  44.824  32.227   0.422
43718W        W11936  17.892  20.955  12.154
43719W        W11937  12.772  12.225   4.984
43720W        W11938  17.341   1.393  13.005
43721W        W11939  12.465   7.812   0.139
43722W        W11940  28.118  21.464  13.006
43723W        W11941  34.337  29.972  13.791
43724W        W11942  38.967  29.742  10.724
43725W        W11943  31.071   3.001   0.205
43726W        W11944  44.846  40.286  13.375
43727W        W11945  38.553  22.173   4.525
43728W        W11946  12.763   0.714   0.746
43729W        W11947  13.713  10.901  14.225
43730W        W11948   4.171   2.888   0.386
43731W        W11949  15.292   1.290   0.279
43732W        W11950  13.243   3.668   4.668
43733W        W11951  35.840  12.839   0.384
43734W        W11952  43.067  28.471  14.011
43735W        W11953  12.855  24.733  11.867
43736W        W11954  19.864   5.216  10.581
43737W        W11955  21.211  27.231   3.677
43738W        W11956  33.122  28.022  13.391
43739W        W11957  38.965   4.766   2.158
43740W        W11958  35.862  15.540   2.758
43741W        W11959  41.365  21.189   1.761
43742W        W11960   4.415   8.293  12.961
43743W        W11961  31.159  33.747   3.233
43744W        W11962  10.837   2.213   4.319
43745W        W11963  17.291  15.485  11.288
43746W        W11964  14.609   6.845   4.545
43747W        W11965  16.128  40.012   1.404
43748W        W11966   7.179  23.815   1.337
43749W        W11967  16.148  11.135  11.136
43750W        W11968  11.391  19.741   4.135
43751W        W11969  21.062  41.286   0.257
43752W        W11970  20.332  21.693  13.453
43753W        W11971  15.079  17.385  11.060
43754W        W11972  40.385  20.912   5.228
43755W        W11973  13.491   3.115   1.813
43756W        W11974   9.570  21.754  12.200
43757W        W11975  10.565   5.226   1.796
43758W        W11976  29.113  27.503   4.448
43759W        W11977  31.484  21.280  12.867
43760W        W11978  14.712  16.230   3.761
43761W        W11979  40.715  30.226  14.042
43762W        W11980  37.082  42.429   0.697
43763W        W11981  22.472  41.029  14.744
43764W        W11982  23.525  11.784  14.018
43765W        W11983  22.094   8.475   5.029
43766W        W11984  19.746  41.418  13.852
43767W        W11985  19.145  31.815   2.859
43768W        W11986  23.064   0.830  13.079
43769W        W11987  43.641  14.069   0.576
43770W        W11988  24.144  29.744   1.224
43771W        W11989  33.390  19.058  12.991
43772W        W11990  16.311  14.678   4.418
43773W        W11991  20.889   7.362   4.976
43774W        W11992  14.238   0.717  14.565
43775W        W11993  32.890  39.090   0.925
43776W        W11994  31.279  32.724   0.889
43777W        W11995  29.249  15.084   3.301
43778W        W11996  44.443  20.976   4.588
43779W        W11997  40.508  38.069  11.317
43780W        W11998  27.918  32.702   3.377
43781W        W11999   9.725   2.219  10.741
43782W        W12000  41.780  38.407  14.040
43783W        W12001  38.313  43.991  12.430
43784W        W12002   4.736   6.865   3.750
43785W        W12003  43.837  11.317  12.551
43786W        W12004   4.849  24.402  12.062
43787W        W12005  38.974  41.444   3.396
43788W        W12006  38.108   1.295   4.586
43789W        W12007   7.507  32.173  12.516
43790W        W12008  13.714  42.234  14.416
43791W        W12009   5.855  29.912   4.367
43792W        W12010   0.067  31.698   0.427
43793W        W12011  37.817  12.630  14.585
43794W        W12012  30.402  27.197   1.672
43795W        W12013   3.220  11.763  14.821
43796W        W12014  38.624  38.940   4.339
43797W        W12015   5.817   7.839   1.947
43798W        W12016  30.950  11.062   2.365
43799W        W12017  29.981  24.415   3.218
43800W        W12018  38.758  38.951   3.661
43801W        W12019  30.864  32.932   1.870
43802W        W12020  19.036  42.922   0.334
43803W        W12021  37.856  28.911  11.507
43804W        W12022   5.387   8.410  12.283
43805W        W12023   4.483  25.094   3.659
43806W        W12024  10.615  11.201   0.203
43807W        W12025   6.687  44.392   4.705
43808W        W12026  43.806  34.708   3.799
43809W        W12027   9.495  15.854   4.562
43810W        W12028  22.184  18.734   3.964
43811W        W12029   2.334   7.093   4.271
43812W        W12030  18.316  11.861  12.101
43813W        W12031  12.258  36.889  11.388
43814W        W12032  22.745  39.834  13.556
43815W        W12033  24.643  32.139   3.628
43816W        W12034  28.604  33.941   2.822
43817W        W12035   8.410  31.793  13.930
43818W        W12036  25.047  39.860   1.802
43819W        W12037  27.766  32.381  11.190
43820W        W12038  33.020  24.713   2.829
43821W        W12039  13.244  38.192  12.083
43822W        W12040  25.568  34.312   0.541
43823W        W12041  13.119  16.316   1.403
43824W        W12042  24.334  23.248   2.434
43825W        W12043  12.845  29.482   3.697
43826W        W12044  30.479  41.348  12.275
43827W        W12045  27.242  34.494   2.250
43828W        W12046   9.691  43.327   0.906
43829W        W12047   4.820  39.310  13.068
43830W        W12048   5.879  44.457  12.323
43831W        W12049  32.009   2.480   2.854
43832W        W12050   6.619  42.341   1.813
43833W        W12051   7.003  43.273   5.451
43834W        W12052   8.255  25.048  13.009
43835W        W12053  35.060  38.981  11.149
43836W        W12054   0.179   5.655  13.358
43837W        W12055  14.139  42.808  13.844
43838W        W12056  32.007   2.464   5.128
43839W        W12057  28.268  23.939  11.175
43840W        W12058  29.350  11.685  14.609
43841W        W12059  10.751  17.517  12.560
43842W        W12060  32.020   5.469   0.797
43843W        W12061  42.204  40.631   4.353
43844W        W12062  32.351   6.179   1.428
43845W        W12063  14.736  26.703   3.602
43846W        W12064   0.850  15.034   3.889
43847W        W12065  23.571  38.949   1.924
43848W        W12066   3.335  39.979  13.747
43849W        W12067  29.091  25.584   2.413
43850W        W12068   4.347   9.353   2.178
43851W        W12069  16.102  25.294  11.600
43852W        W12070  19.830  42.812   1.809
43853W        W12071   6.314  25.082   3.768
43854W        W12072  21.090   6.585  12.617
43855W        W12073  34.821  24.628  10.932
43856W        W12074  14.809  33.888   2.662
43857W        W12075  23.164  26.737  11.263
43858W        W12076  11.137  17.231   0.782
43859W        W12077  37.692  35.578  11.995
43860W        W12078   6.919  36.268   1.853
43861W        W12079  13.955   0.960   2.642
43862W        W12080  32.485  35.256   3.593
43863W        W12081  13.386  31.451   2.618
43864W        W12082   0.271  41.775   3.226
43865W        W12083  43.965  24.233  11.092
43866W        W12084  38.823   1.317  14.772
43867W        W12085  28.146   3.529  14.556
43868W        W12086  16.307  11.210   0.526
43869W        W12087  30.056   6.725  10.431
43870W        W12088  13.228  34.938  10.708
43871W        W12089  41.544  23.216   2.814
43872W        W12090  15.190  31.927   4.098
43873W        W12091  29.057   5.872   1.716
43874W        W12092  31.208  17.430  13.569
43875W        W12093   3.918   1.100   0.883
43876W        W12094  25.195  16.626  14.767
43877W        W12095  44.896  17.093   3.164
43878W        W12096   9.777  33.623  11.679
43879W        W12097  43.064  43.360   4.593
43880W        W12098  33.969  35.127   3.753
43881W        W12099  35.563  21.008  11.056
43882W        W12100   6.448  29.047  11.180
43883W        W12101  34.871  20.222  14.511
43884W        W12102  35.421  28.766  11.602
43885W        W12103  24.239   3.809   2.803
43886W        W12104  18.770  44.312   0.214
43887W        W12105   2.561  34.324  11.141
43888W        W12106  10.677  20.228  14.802
43889W        W12107  26.644  34.604  14.510
43890W        W12108  36.046  18.064   3.315
43891W        W12109  20.909   7.183   4.501
43892W        W12110  42.821   3.917  11.417
43893W        W12111  10.224  11.328   3.062
43894W        W12112  20.084   3.239   1.292
43895W        W12113  19.536   7.127  12.987
43896W        W12114  44.967   4.194  14.332
43897W        W12115  34.477  17.074  13.972
43898W        W12116  36.987  27.453  14.117
43899W        W12117   7.311  15.513  12.043
43900W        W12118   3.073  42.475   2.283
43901W        W12119  41.954  39.682  12.101
43902W        W12120  21.445  22.600   2.663
43903W        W12121  32.952  39.420  12.662
43904W        W12122  42.223  32.470   2.625
43905W        W12123  35.437  16.699   2.139
43906W        W12124  44.099  29.871  13.831
43907W        W12125  13.622   4.754   2.348
43908W        W12126  17.249  28.559   3.558
43909W        W12127  11.318  23.563   0.835
43910W        W12128  24.629   6.147   4.827
43911W        W12129  38.234  21.063  13.963
43912W        W12130   0.386  15.615   1.448
43913W        W12131  19.352   7.126  10.638
43914W        W12132  21.450  38.742  11.548
43915W        W12133  10.382  40.445  12.966
43916W        W12134  11.725  16.171   5.188
43917W        W12135   8.948  19.707  14.400
43918W        W12136  12.904  16.027   0.476
43919W        W12137  15.241  15.878   3.299
43920W        W12138  31.670  19.143   0.569
43921W        W12139  21.170  14.618   0.855
43922W        W12140  39.991  18.310   3.907
43923W        W12141  16.688  12.576  13.118
43924W        W12142  21.542  23.530   1.432
43925W        W12143  15.379   1.925   0.853
43926W        W12144  22.038  39.836  12.034
43927W        W12145  35.768   7.657  11.089
43928W        W12146  35.669  32.843   2.249
43929W        W12147  31.890  28.650   2.752
43930W        W12148  28.150  40.887  12.005
43931W        W12149  13.502  31.520   4.680
43932W        W12150  19.840  21.911   3.592
43933W        W12151   3.336  21.772   4.949
43934W        W12152  17.474  37.929   2.811
43935W        W12153  41.396   9.087   4.527
43936W        W12154  20.488  39.849   3.812
43937W        W12155  29.190   1.786   3.326
43938W        W12156   0.314  28.025  14.258
43939W        W12157  34.642  10.961   1.817
43940W        W12158  14.590  30.737   4.697
43941W        W12159  15.720  33.262   2.500
43942W        W12160  35.651   3.719   0.324
43943W        W12161  30.592   6.750  14.786
43944W        W12162   1.412  26.470   3.242
43945W        W12163  19.132  18.786   1.833
43946W        W12164  19.578  40.170  12.044
43947W        W12165  20.801  33.562  10.674
43948W        W12166   4.255  44.285  12.864
43949W        W12167  36.003  37.249  12.483
43950W        W12168  31.672  13.001   3.352
43951W        W12169  34.983  14.011  11.944
43952W        W12170   7.075  23.674  12.475
43953W        W12171  36.502   4.053   2.701
43954W        W12172  38.173   3.059   4.168
43955W        W12173  35.913  16.349   3.686
43956W        W12174  27.666  30.841  13.089
43957W        W12175  42.858  38.724   2.127
43958W        W12176   3.867   7.993  11.473
43959W        W12177  38.326   8.676   4.169
43960W        W12178   0.970  44.830  11.893
43961W        W12179  27.272  42.305   1.717
43962W        W12180  11.302  12.590  14.370
43963W        W12181  42.776  19.072  13.998
43964W        W12182  24.376   7.603   2.188
43965W        W12183  37.449  41.706  10.722
43966W        W12184  10.200  31.612   1.658
43967W        W12185  14.764  30.534  13.924
43968W        W12186  32.934  25.293   3.301
43969W        W12187   2.018  37.840   0.511
43970W        W12188  28.722  35.795  11.056
43971W        W12189   4.761  41.557  13.133
43972W        W12190  41.421   5.728   2.736
43973W        W12191  18.583   8.500   2.642
43974W        W12192  10.504  15.774   1.802
43975W        W12193   9.856   7.379   4.753
43976W        W12194  36.517  36.969  11.604
43977W        W12195  35.980  44.437   2.854
43978W        W12196  25.233   2.081  14.873
43979W        W12197  10.957  10.398   1.157
43980W        W12198  29.935  27.108  14.807
43981W        W12199  42.782  43.448   3.260
43982W        W12200  28.145   2.003  12.959
43983W        W12201  19.863  19.079  13.909
43984W        W12202  16.597  44.747  10.600
43985W        W12203  11.269  15.455   1.357
43986W        W12204  30.879   1.017  13.864
43987W        W12205  11.782  16.508  13.907
43988W        W12206  42.279  17.151  10.432
43989W        W12207  22.772  13.160   3.247
43990W        W12208  40.364  43.754   1.824
43991W        W12209  28.856  21.502  10.560
43992W        W12210  27.589  31.936   2.923
43993W        W12211  40.053   3.354  10.640
43994W        W12212   1.051  16.595  10.953
43995W        W12213  17.024  39.457  13.461
43996W        W12214  22.244  34.378  14.279
43997W        W12215  37.742  26.113   4.620
43998W        W12216   1.078  31.548  13.012
43999W        W12217  32.342  27.485  12.083
44000W        W12218  39.977  14.211   0.255
44001W        W12219   1.639  22.683   4.388
44002W        W12220  14.332   0.436  10.974
44003W        W12221  26.732   1.728  11.640
44004W        W12222  38.763   0.495  14.396
44005W        W12223   6.450  31.438  13.990
44006W        W12224  31.805  39.992  11.423
44007W        W12225  38.373  43.254   1.256
44008W        W12226  13.047  36.810   1.377
44009W        W12227   0.870  43.780  11.445
44010W        W12228  31.201  26.992  11.604
44011W        W12229  19.275  39.935   2.268
44012W        W12230  38.412  26.261  14.403
44013W        W12231  11.615  38.082  11.183
44014W        W12232  43.860  34.016  14.749
44015W        W12233  21.136  19.120   4.190
44016W        W12234  14.823   1.888   9.861
44017W        W12235   4.936  30.021   0.911
44018W        W12236  40.459  18.812  11.896
44019W        W12237  10.864  29.084  14.882
44020W        W12238  10.597   4.573  12.299
44021W        W12239  34.030  23.301   1.909
44022W        W12240  34.902  15.784   0.231
44023W        W12241   2.802  13.561  13.478
44024W        W12242   9.784  33.942   3.186
44025W        W12243   0.894   1.038   2.461
44026W        W12244  12.606  31.947   3.208
44027W        W12245  10.152  43.555   4.611
44028W        W12246   0.907  32.030   3.230
44029W        W12247   8.600   2.939  10.642
44030W        W12248   3.917  35.752  11.442
44031W        W12249   3.191  23.114   4.792
44032W        W12250  43.003   1.448   0.906
44033W        W12251  39.918  24.007  11.939
44034W        W12252  35.915   3.173   0.746
44035W        W12253   4.291  15.635   2.811
44036W        W12254  12.570  44.109  11.659
44037W        W12255  11.626  43.908  12.566
44038W        W12256  43.957  18.056   3.638
44039W        W12257   9.006   3.242  14.211
44040W        W12258  28.612   5.615   9.776
44041W        W12259  31.927  26.168  13.902
44042W        W12260  41.892  43.836  14.048
44043W        W12261  13.267  18.534   1.957
44044W        W12262  39.055  31.816  14.906
44045W        W12263  33.596  36.643   2.098
44046W        W12264  21.895  24.519  13.786
44047W        W12265  43.354  27.973   0.928
44048W        W12266  17.066  26.944  14.784
44049W        W12267  26.742  25.297  13.047
44050W        W12268   1.143  13.172  10.260
44051W        W12269  32.419   0.933   0.937
44052W        W12270  17.042  28.090  11.130
44053W        W12271   1.513  29.387  14.268
44054W        W12272  32.520   9.358   4.881
44055W        W12273   4.146   5.117  11.195
44056W        W12274   2.282  36.670  11.524
44057W        W12275  26.262  33.936  12.475
44058W        W12276  35.822   6.821   4.513
44059W        W12277  43.317   0.236  14.969
44060W        W12278  36.555  40.352  10.644
44061W        W12279  19.546  23.170  14.785
44062W        W12280  16.567  10.855  11.094
44063W        W12281   5.421  35.306  14.798
44064W        W12282  11.599  23.538  11.297
44065W        W12283  27.719  27.011   1.368
44066W        W12284  19.654  11.106  14.925
44067W        W12285  20.152   3.967  11.532
44068W        W12286  17.658  37.452   2.123
44069W        W12287   7.361   8.888  14.776
44070W        W12288  26.669  24.108   3.211
44071W        W12289  40.122  17.746  13.740
44072W        W12290  32.226  32.593  12.050
44073W        W12291  19.529   5.371   3.854
44074W        W12292  12.525  41.429   1.880
44075W        W12293  39.767  38.882  14.500
44076W        W12294  26.491   0.900  10.751
44077W        W12295  32.441  16.283  12.073
44078W        W12296  36.450  38.870   3.458
44079W        W12297   7.303  18.277   2.272
44080W        W12298  22.471  25.045   0.860
44081W        W12299  13.171  36.861  12.996
44082W        W12300  40.331  24.521   0.204
44083W        W12301   0.519  12.885   2.831
44084W        W12302  14.081  16.971  14.984
44085W        W12303   8.400  38.667   2.669
44086W        W12304  18.330   2.191   3.677
44087W        W12305  16.906   2.226   0.449
44088W        W12306  43.440  27.971  14.484
44089W        W12307  21.244  10.388   4.340
44090W        W12308  40.791  38.512  11.106
44091W        W12309  31.691  38.401   0.103
44092W        W12310  18.901  11.114   2.245
44093W        W12311  13.841  30.402  12.617
44094W        W12312   8.480  28.155   4.331
44095W        W12313  36.476  25.687   3.793
44096W        W12314   9.811   8.826  13.593
44097W        W12315  26.984   6.323  12.880
44098W        W12316  34.521  36.437   1.962
44099W        W12317  17.401   7.208  10.241
44100W        W12318  12.449  18.621  11.454
44101W        W12319   5.736   2.710   0.494
44102W        W12320  19.061  41.938  10.516
44103W        W12321  36.578  30.943   0.022
44104W        W12322   9.927   6.101  13.945
44105W        W12323  31.491  29.179   3.717
44106W        W12324   2.144  42.109  12.018
44107W        W12325   3.738  27.441   4.983
44108W        W12326  21.621  44.000  11.164
44109W        W12327  31.628   5.691   3.635
44110W        W12328   8.489   4.294   0.930
44111W        W12329  12.864   6.239  14.907
44112W        W12330  19.591  18.383   0.166
44113W        W12331  34.224  20.822  13.793
44114W        W12332  32.521   7.415   3.727
44115W        W12333  31.353  13.719   1.153
44116W        W12334  37.920  18.169  13.623
44117W        W12335  31.893  42.326  14.868
44118W        W12336  11.742  29.928   4.441
44119W        W12337  36.758  13.674  11.539
44120W        W12338  12.172  11.149  11.894
44121W        W12339   2.719  37.409   1.327
44122W        W12340   2.398  15.150  12.024
44123W        W12341  14.878  39.386  10.716
44124W        W12342  16.597  31.262  13.990
44125W        W12343   0.836   9.617   1.175
44126W        W12344  19.394  35.715   3.285
44127W        W12345  31.537   0.426  13.969
44128W        W12346   3.626  21.077   1.398
44129W        W12347   7.148  34.520  12.132
44130W        W12348  11.200  26.034   2.633
44131W        W12349  21.280  28.166  11.571
44132W        W12350   7.403   2.187  10.642
44133W        W12351  25.654  35.564  13.525
44134W        W12352   3.853  44.021   3.162
44135W        W12353  18.575  26.133   1.945
44136W        W12354   4.412  40.324  12.006
44137W        W12355   9.648  20.022   2.842
44138W        W12356   4.369  27.855  11.057
44139W        W12357  28.060  20.980   5.155
44140W        W12358   9.951  43.016   1.351
44141W        W12359  25.681  12.387  10.651
44142W        W12360  11.659  35.198  10.913
44143W        W12361   3.349  39.995  10.693
44144W        W12362  19.753  32.892  11.196
44145W        W12363  28.936  39.803  14.055
44146W        W12364  31.376  41.345   4.085
44147W        W12365  43.718  31.539   0.941
44148W        W12366  39.065  13.827   2.729
44149W        W12367  20.611  21.305   4.679
44150W        W12368   9.298  42.381   2.405
44151W        W12369  13.318  40.731   1.163
44152W        W12370  22.039  19.018   4.795
44153W        W12371  21.402  13.704  11.072
44154W        W12372  19.291  20.075   0.825
44155W        W12373   6.210  29.973   0.969
44156W        W12374  42.824  24.523  14.253
44157W        W12375   5.809  40.849   4.104
44158W        W12376   7.332  27.046  11.731
44159W        W12377  38.884  27.432   4.155
44160W        W12378  20.816   8.702   1.946
44161W        W12379  29.470  12.039  14.990
44162W        W12380  39.927  15.714   1.237
44163W        W12381  26.222  10.025   2.074
44164W        W12382  22.497   3.047  11.525
44165W        W12383  43.312  16.860  11.968
44166W        W12384  41.481  21.483  11.096
44167W        W12385  33.611   6.836  10.700
44168W        W12386  12.460  15.785   0.666
44169W        W12387  11.198  17.558   3.202
44170W        W12388  22.194   3.842   0.454
44171W        W12389  21.473  22.112  12.602
44172W        W12390  20.247  39.975   0.231
44173W        W12391  13.027  35.431   1.288
44174W        W12392  35.934  29.903   2.628
44175W        W12393  23.557  35.485  13.968
44176W        W12394  24.725  26.290   2.363
44177W        W12395  17.176  19.862  11.657
44178W        W12396   7.653  31.227   0.162
44179W        W12397  40.488  41.200   1.823
44180W        W12398  33.875   7.739   0.459
44181W        W12399   9.705  43.017  14.521
44182W        W12400  24.055  22.568   4.593
44183W        W12401  31.032   5.931  10.616
44184W        W12402  28.742  36.911  14.094
44185W        W12403  41.930  42.747  11.989
44186W        W12404  25.158   9.301  12.090
44187W        W12405  16.399  44.850   2.094
44188W        W12406  26.528   6.365  12.603
44189W        W12407   2.437  30.065  11.600
44190W        W12408  34.887  34.863  14.291
44191W        W12409  12.856  35.817   4.180
44192W        W12410  23.868  23.154  10.590
44193W        W12411  39.572  16.583  11.873
44194W        W12412  36.582  40.062  12.083
44195W        W12413   3.086  19.409   0.836
44196W        W12414   7.807  23.723  13.427
44197W        W12415  14.524  14.356   2.992
44198W        W12416  31.432  17.215  14.023
44199W        W12417  39.713   8.380  11.121
44200W        W12418  13.133   1.510   2.724
44201W        W12419  19.720   8.663  11.605
44202W        W12420  15.090  25.939   0.849
44203W        W12421  41.432  17.182   3.695
44204W        W12422  18.598  14.431  14.484
44205W        W12423   7.024   2.801   2.838
44206W        W12424  38.635  41.806  11.992
44207W        W12425  42.756   2.724   3.445
44208W        W12426  30.566  34.605  11.607
44209W        W12427  24.733   1.306  14.041
44210W        W12428  36.380   9.288   0.950
44211W        W12429   4.692   2.704  12.578
44212W        W12430  40.012  43.108  11.884
44213W        W12431  21.063  33.102  14.557
44214W        W12432  17.278  28.844  14.020
44215W        W12433   5.127  36.523   4.553
44216W        W12434  38.270   9.739  13.840
44217W        W12435  14.570  35.493  12.495
44218W        W12436  21.734   9.314   3.784
44219W        W12437  41.735   0.254  12.427
44220W        W12438   6.417  42.392   2.444
44221W        W12439  38.052  21.573  10.665
44222W        W12440  39.340   5.491  13.318
44223W        W12441  40.151  43.111  11.354
44224W        W12442  28.083  30.970   1.470
44225W        W12443  26.975  35.898  12.545
44226W        W12444  28.900  35.784  11.556
44227W        W12445  13.924   0.919   4.076
44228W        W12446  32.700  27.552  13.910
44229W        W12447  38.978  21.243  10.591
44230W        W12448   1.269   2.668   2.747
44231W        W12449  16.641   8.485  13.379
44232W        W12450  40.350  28.492   3.883
44233W        W12451   9.176  40.000  10.534
44234W        W12452   6.122  10.900   2.879
44235W        W12453  42.979  32.266  10.272
44236W        W12454   6.230   7.337  10.734
44237W        W12455  18.096  26.947  10.371
44238W        W12456  16.932   2.213  14.473
44239W        W12457  41.704  40.208  11.693
44240W        W12458  34.514  11.713  12.921
44241W        W12459   9.655  35.579   3.349
44242W        W12460  14.595  37.775  10.497
44243W        W12461  33.745  19.675  10.847
44244W        W12462  24.237  23.915   0.880
44245W        W12463  34.004  10.408   2.549
44246W        W12464  18.625  11.190  10.282
44247W        W12465  25.001   4.020  10.881
44248W        W12466  14.834  14.577   2.327
44249W        W12467  24.726  43.471   0.696
44250W        W12468  16.366  25.609   2.869
44251W        W12469  27.660  20.012   1.852
44252W        W12470   1.464  27.022   4.501
44253W        W12471  26.587  40.045   0.891
44254W        W12472  11.350  32.171  11.565
44255W        W12473  43.843  13.823  14.483
44256W        W12474  39.167  41.458   0.624
44257W        W12475   8.542  18.658   5.414
44258W        W12476  38.442  29.230   2.361
44259W        W12477  35.492  11.276   3.154
44260W        W12478  32.060   8.740   4.719
44261W        W12479  31.912  36.004   2.776
44262W        W12480   7.648  40.235  11.913
44263W        W12481  40.761  17.301  14.432
44264W        W12482  16.524  24.578   4.626
44265W        W12483  42.420  10.138   0.486
44266W        W12484   5.796  42.308  12.202
44267W        W12485  41.508  12.484   0.345
44268W        W12486  12.450   5.868   0.255
44269W        W12487  29.680  30.647   0.711
44270W        W12488  22.162  36.491  10.849
44271W        W12489  30.526  20.507  14.440
44272W        W12490  24.952  17.990   3.298
44273W        W12491  21.030   4.698  11.924
44274W        W12492  17.471  40.833  12.670
44275W        W12493  33.460  34.592  13.102
44276W        W12494  18.607  10.767   4.798
44277W        W12495   1.738  38.553  14.262
44278W        W12496  13.475  15.223  13.566
44279W        W12497  12.585  12.723   2.604
44280W        W12498   2.775  21.168  13.553
44281W        W12499  40.792  40.419  12.441
44282W        W12500  32.441  25.236  11.179
44283W        W12501  28.577  32.148   4.300
44284W        W12502   9.234  24.128   0.218
44285W        W12503   2.695  35.960   4.863
44286W        W12504   2.840  20.891  11.552
44287W        W12505  34.637  29.599   3.314
44288W        W12506  16.217  32.137  12.645
44289W        W12507  33.591  38.765   3.745
44290W        W12508  44.268  27.035  12.587
44291W        W12509  22.032  33.618   4.230
44292W        W12510  20.082   5.341   4.302
44293W        W12511  17.672  26.964  12.987
44294W        W12512   3.269  40.250   4.987
44295W        W12513   1.895   5.427  12.944
44296W        W12514  36.050  31.515   1.702
44297W        W12515   9.883  19.371  14.601
44298W        W12516  17.302  11.087   4.493
44299W        W12517  36.867  39.520  13.926
44300W        W12518  15.666  30.121   2.285
44301W        W12519   1.777   9.627  12.099
44302W        W12520  43.476  35.838  13.867
44303W        W12521  26.703  41.191  12.649
44304W        W12522  23.167  26.514  13.737
44305W        W12523  11.627  17.616   4.479
44306W        W12524  35.497  24.241   0.297
44307W        W12525  28.556  35.646  10.583
44308W        W12526   4.235  24.638   1.304
44309W        W12527   3.909  13.295  14.477
44310W        W12528  24.614  42.568  13.973
44311W        W12529  26.754  23.207  12.472
44312W        W12530  33.009  19.788   4.634
44313W        W12531  22.094  27.584  10.519
44314W        W12532  24.008  38.371  11.212
44315W        W12533  39.368  27.146  11.415
44316W        W12534   0.388  20.339  13.035
44317W        W12535  26.221   5.689   4.101
44318W        W12536  35.471   8.771  11.937
44319W        W12537  37.902  11.269  13.435
44320W        W12538  32.084  22.437   1.674
44321W        W12539  40.065  35.085  11.740
44322W        W12540  44.988  35.013  11.589
44323W        W12541  22.717  23.734   2.650
44324W        W12542  29.049   2.976  14.781
44325W        W12543   4.120  15.089  13.790
44326W        W12544  27.532   7.822   1.774
44327W        W12545  10.721  27.753   3.189
44328W        W12546  20.865  33.874   0.253
44329W        W12547  29.489  19.552   3.244
44330W        W12548  12.863  13.096   2.828
44331W        W12549   2.287   6.684  12.100
44332W        W12550  23.661  20.233  12.412
44333W        W12551  16.501  16.372  11.127
44334W        W12552  13.225   6.217   4.801
44335W        W12553   7.801  43.469  11.700
44336W        W12554   6.255  27.079   3.561
44337W        W12555   8.566  11.247   0.245
44338W        W12556  42.302  13.494   1.574
44339W        W12557  44.335  23.784   4.114
44340W        W12558  16.566  16.032   3.655
44341W        W12559   2.714  31.438   0.812
44342W        W12560   9.393  21.112  13.747
44343W        W12561  13.065  42.979  12.294
44344W        W12562  18.169  22.483   2.345
44345W        W12563  42.997  40.535  13.157
44346W        W12564  17.755  41.134   3.704
44347W        W12565   9.489  21.213   4.482
44348W        W12566  18.472  33.459  14.251
44349W        W12567  36.939  10.294   0.489
44350W        W12568   5.780  35.686  13.993
44351W        W12569  31.145  21.902  14.784
44352W        W12570  39.479  26.379   3.733
44353W        W12571  35.481  37.888   3.123
44354W        W12572  23.699  19.197   0.845
44355W        W12573  17.645  20.211   4.146
44356W        W12574   7.245  40.258  14.992
44357W        W12575  22.727  20.284  12.403
44358W        W12576  13.507  21.282  11.131
44359W        W12577  29.863  42.937   5.129
44360W        W12578  39.018  16.274  10.547
44361W        W12579   2.224  20.246   1.374
44362W        W12580  19.332  36.351   1.749
44363W        W12581   4.917  36.732   2.365
44364W        W12582  39.340  30.713   0.319
44365W        W12583   2.973  37.801  12.710
44366W        W12584   8.694  40.426   3.452
44367W        W12585  33.979   3.758  10.345
44368W        W12586  37.641  22.091   2.389
44369W        W12587   5.751  19.586  14.164
44370W        W12588  25.874  21.287  13.518
44371W        W12589  41.436   1.699   3.646
44372W        W12590   2.081  24.307   5.017
44373W        W12591  41.376   7.203   4.392
44374W        W12592  37.648   7.827   4.171
44375W        W12593  14.270   1.954   4.525
44376W        W12594  14.295  25.481  12.855
44377W        W12595  39.443  41.957  14.302
44378W        W12596  42.680  31.420  13.918
44379W        W12597  29.210  41.530  12.131
44380W        W12598  20.739  29.896  11.091
44381W        W12599  28.863  12.844  14.471
44382W        W12600   1.519   7.286  12.398
44383W        W12601  29.103  27.111  14.520
44384W        W12602  20.453  12.221   0.859
44385W        W12603  36.066  37.065   1.000
44386W        W12604  38.556  12.225   1.412
44387W        W12605  43.937  17.804   4.099
44388W        W12606  36.080  26.030  10.257
44389W        W12607   1.780  43.978  14.833
44390W        W12608  23.537   9.132   2.815
44391W        W12609  17.829   9.594  10.743
44392W        W12610  14.343  34.762  11.583
44393W        W12611  13.495  32.016  12.986
44394W        W12612  30.845  32.594   2.775
44395W        W12613  15.231   3.801   2.445
44396W        W12614  16.039   2.417   2.356
44397W        W12615  33.633  30.652  10.581
44398W        W12616  12.831  32.662  14.317
44399W        W12617  13.134  20.009  12.449
44400W        W12618  21.601   7.835   2.477
44401W        W12619  18.790  17.830   1.017
44402W        W12620  16.103  13.179  10.690
44403W        W12621  11.829  13.817   4.164
44404W        W12622  15.392  17.051   4.842
44405W        W12623  42.283  28.987   0.853
44406W        W12624  38.785  30.341  14.761
44407W        W12625  13.915  26.039   3.725
44408W        W12626  22.072  27.495  13.790
44409W        W12627  17.554  43.192   1.965
44410W        W12628  33.508  24.485   4.682
44411W        W12629  13.089  11.213  10.610
44412W        W12630  22.108  32.370  10.372
44413W        W12631  42.253  40.738   3.836
44414W        W12632  30.102  37.145  13.918
44415W        W12633  16.855  40.179  11.188
44416W        W12634  34.588  11.720   4.488
44417W        W12635   5.818   9.385   1.861
44418W        W12636  35.112   3.747  10.718
44419W        W12637  19.043  39.492   3.442
44420W        W12638  28.666   5.278  14.294
44421W        W12639  36.670  36.389   1.485
44422W        W12640  34.235   7.283  11.602
44423W        W12641  12.596  18.557  12.547
44424W        W12642   7.147  24.598   3.091
44425W        W12643  42.866  28.924   4.206
44426W        W12644  36.026  10.873  11.524
44427W        W12645  20.023   9.491  12.191
44428W        W12646  19.188  14.835   2.313
44429W        W12647  31.536  38.538  10.674
44430W        W12648  26.253   3.771  12.003
44431W        W12649  11.724  20.535  13.318
44432W        W12650  20.142  36.301   2.009
44433W        W12651   4.778  37.208   1.341
44434W        W12652  25.918  41.384   0.375
44435W        W12653  43.312   6.949  14.402
44436W        W12654  31.187  40.600   3.596
44437W        W12655  38.354  43.964  13.746
44438W        W12656  11.215  20.045  13.758
44439W        W12657  43.320  30.694  11.247
44440W        W12658  14.708   8.728  14.193
44441W        W12659  42.531   0.973  13.817
44442W        W12660  40.854   4.434  12.419
44443W        W12661  33.980  31.817   4.676
44444W        W12662  29.085  28.439  14.829
44445W        W12663  40.962  21.489   1.011
44446W        W12664  21.132  20.630  14.624
44447W        W12665  29.501  15.071  14.348
44448W        W12666  41.276  28.738  10.582
44449W        W12667  28.146  36.628   0.333
44450W        W12668  28.873  40.559   4.071
44451W        W12669  34.689  39.524   1.773
44452W        W12670  30.493  13.834  10.724
44453W        W12671  12.728  16.233   0.039
44454W        W12672  12.331   9.406   1.920
44455W        W12673   1.911  23.605   3.110
44456W        W12674  26.580  10.721   4.243
44457W        W12675   6.446  26.052   4.272
44458W        W12676  29.444  22.100   1.838
44459W        W12677   0.959  31.536  11.636
44460W        W12678   7.329   0.435   0.573
44461W        W12679  38.554   0.628   9.745
44462W        W12680   9.085  14.182   0.221
44463W        W12681  27.452  31.336  12.964
44464W        W12682  26.993   5.421   4.388
44465W        W12683  40.849  34.092  11.057
44466W        W12684  19.227  38.415  13.537
44467W        W12685  15.916  20.555   1.815
44468W        W12686   7.392  18.293  11.142
44469W        W12687  32.379   1.399   1.681
44470W        W12688   8.711  15.326   2.121
44471W        W12689  12.187  11.668   0.810
44472W        W12690  31.706  35.032   3.677
44473W        W12691  27.505  19.534  10.538
44474W        W12692  27.641  29.850   4.041
44475W        W12693  29.963  27.654   4.127
44476W        W12694   8.176  36.440  12.079
44477W        W12695  17.271  18.477  11.527
44478W        W12696  15.676  15.823   4.120
44479W        W12697  32.205  29.054   1.966
44480W        W12698   7.507  34.967  14.394
44481W        W12699   8.258  41.339  14.816
44482W        W12700  17.074  44.658  11.959
44483W        W12701  26.677  37.278   1.318
44484W        W12702   8.513  37.989   4.077
44485W        W12703  32.764  24.792   3.337
44486W        W12704  32.164   2.461  11.904
44487W        W12705  26.233  23.077  12.370
44488W        W12706  41.476  40.319  14.710
44489W        W12707   0.755  10.214  14.053
44490W        W12708  32.611  32.883   2.319
44491W        W12709  27.366  23.222   2.855
44492W        W12710  21.627  24.322   4.108
44493W        W12711  16.585  43.399  10.398
44494W        W12712  17.920  32.942  13.827
44495W        W12713  26.172  17.657   2.899
44496W        W12714  15.749  44.326   1.727
44497W        W12715   2.276  32.655   0.442
44498W        W12716  38.945  25.514   2.826
44499W        W12717   5.784  28.964  13.772
44500W        W12718  26.929  21.570   3.270
44501W        W12719  32.457  19.769   3.712
44502W        W12720   9.272   1.650  13.793
44503W        W12721  34.606  39.964   4.107
44504W        W12722  23.326   2.871  12.889
44505W        W12723  23.107  22.239   4.352
44506W        W12724   5.195  37.572   0.456
44507W        W12725  44.973   0.178  11.166
44508W        W12726  32.047  26.548   9.977
44509W        W12727  24.005  10.117  10.274
44510W        W12728  33.093  36.567   3.860
44511W        W12729   7.577  29.348   4.066
44512W        W12730  13.160  10.281   2.404
44513W        W12731  23.004  11.879  14.059
44514W        W12732  12.140  32.352   2.722
44515W        W12733  13.259  16.160  11.347
44516W        W12734  10.592  44.959   4.825
44517W        W12735   5.171  24.635  14.707
44518W        W12736  27.252  40.317  13.860
44519W        W12737  28.534  28.002   0.835
44520W        W12738  42.697   5.871  11.137
44521W        W12739  30.956  19.598  11.479
44522W        W12740  24.573  25.811  13.065
44523W        W12741   3.133  23.035  12.969
44524W        W12742  19.672  42.333   1.649
44525W        W12743  13.290   0.512  10.272
44526W        W12744   7.680  29.728   2.196
44527W        W12745  29.120  31.159   2.681
44528W        W12746   4.764  42.285  13.116
44529W        W12747  19.129  10.376   3.245
44530W        W12748  22.121  10.602  13.841
44531W        W12749   5.895  23.520  11.710
44532W        W12750  17.039   6.365  13.478
44533W        W12751   7.487  21.070  13.032
44534W        W12752   8.592  14.264   5.011
44535W        W12753   5.753  19.113  11.543
44536W        W12754   9.182  16.908   2.233
44537W        W12755  35.119   2.312  13.311
44538W        W12756  22.709  26.675   2.032
44539W        W12757  19.816  22.586   0.441
44540W        W12758   4.172  40.823   3.682
44541W        W12759  43.022  42.487   2.016
44542W        W12760  25.804   9.782   3.702
44543W        W12761   1.059  10.390  11.981
44544W        W12762  42.016  14.574  14.982
44545W        W12763  37.549  24.017  12.529
44546W        W12764  43.444   2.768   0.769
44547W        W12765  25.062  34.128  13.085
44548W        W12766  40.435   9.006  10.806
44549W        W12767   9.160  14.033  10.252
44550W        W12768  37.022  41.465  11.463
44551W        W12769  38.625  32.674   2.301
44552W        W12770  37.626  38.984  11.143
44553W        W12771  21.725  37.137  11.549
44554W        W12772  38.396  36.222   2.064
44555W        W12773  40.268  12.312  10.407
44556W        W12774  12.171   3.811   4.647
44557W        W12775   2.381  30.277   4.268
44558W        W12776  11.944  26.515   2.909
44559W        W12777  11.043  23.751  14.560
44560W        W12778   6.948   8.647   3.442
44561W        W12779  11.017   4.854  12.490
44562W        W12780  27.960   4.674   2.709
44563W        W12781  42.584   8.269   2.431
44564W        W12782   1.354   2.215   1.667
44565W        W12783  14.620  34.417   2.698
44566W        W12784  14.188   0.557   2.875
44567W        W12785  33.849  17.177   3.707
44568W        W12786   0.741  34.413  11.380
44569W        W12787   1.350  44.763   3.208
44570W        W12788  16.609  44.785   0.776
44571W        W12789  42.511   7.131   2.792
44572W        W12790  13.041   3.347   1.816
44573W        W12791  15.407   4.159  14.918
44574W        W12792  40.372  38.473   0.519
44575W        W12793  39.467  10.530  14.031
44576W        W12794  36.980  19.733  13.844
44577W        W12795   6.601  35.858  12.479
44578W        W12796  35.528  15.536  10.731
44579W        W12797  10.668  17.039  11.226
44580W        W12798  11.402   7.812   2.341
44581W        W12799   5.185  12.599  14.496
44582W        W12800   4.340  23.751  12.438
44583W        W12801  35.012   0.493   1.153
44584W        W12802  30.062  16.120   2.279
44585W        W12803  42.393  23.682   2.848
44586W        W12804  11.825   6.406   0.912
44587W        W12805  39.439   5.470   2.474
44588W        W12806  40.392  33.440   0.068
44589W        W12807  44.001  17.047  12.473
44590W        W12808   6.724   2.146   0.468
44591W        W12809  18.645  28.962  13.661
44592W        W12810   0.495  30.944   1.985
44593W        W12811  34.289  29.219  11.221
44594W        W12812  41.927  27.773  13.314
44595W        W12813  21.624   6.208   4.276
44596W        W12814  32.865  32.474  11.236
44597W        W12815  20.972  19.342   3.033
44598W        W12816  42.376  32.340  14.811
44599W        W12817  25.901  35.953  13.270
44600W        W12818  40.962  24.745  12.646
44601W        W12819  11.578  24.061  11.579
44602W        W12820   5.782  10.666  13.131
44603W        W12821  23.249  15.372   3.644
44604W        W12822  18.712  31.652  13.947
44605W        W12823   0.913  18.367   0.916
44606W        W12824  17.879  17.680  13.458
44607W        W12825  44.749   5.692  14.502
44608W        W12826  17.215  37.600  14.968
44609W        W12827   8.990  14.921   3.989
44610W        W12828  11.705  34.331   0.129
44611W        W12829  32.465  41.405  13.339
44612W        W12830  31.188  12.709  11.589
44613W        W12831  33.824  33.008  12.875
44614W        W12832  14.793  41.627   3.687
44615W        W12833   0.473  12.059   4.524
44616W        W12834   2.757  27.149  13.521
44617W        W12835  41.408  24.636   2.677
44618W        W12836   8.970   6.978  11.998
44619W        W12837  20.309   2.108  14.498
44620W        W12838  42.093  43.536   4.525
44621W        W12839  24.509  13.442   2.157
44622W        W12840  24.481   5.794  11.664
44623W        W12841   9.946   1.938  10.306
44624W        W12842  18.129  25.817   0.410
44625W        W12843  37.370   5.458   0.455
44626W        W12844  29.459  28.600  12.422
44627W        W12845  14.400  15.118  14.312
44628W        W12846  18.802   5.219  10.617
44629W        W12847  38.924  31.876   0.740
44630W        W12848  27.404  16.154   4.110
44631W        W12849   1.034  20.587  13.880
44632W        W12850  43.792  31.621  12.528
44633W        W12851  21.492  36.904  11.167
44634W        W12852  23.294  32.166   0.854
44635W        W12853  41.579  29.978  14.978
44636W        W12854   3.905   2.538   3.666
44637W        W12855  36.806  37.557  14.315
44638W        W12856   9.238   6.413  12.876
44639W        W12857  40.065  44.327  13.716
44640W        W12858   2.242  37.830  13.332
44641W        W12859   5.768  22.304  14.479
44642W        W12860  42.914  19.005   0.994
44643W        W12861  44.302  15.306   3.394
44644W        W12862  15.677  21.523   3.089
44645W        W12863  40.560  22.678  13.873
44646W        W12864  21.169   0.495   4.489
44647W        W12865  32.417  21.613  14.443
44648W        W12866  29.922   9.347   3.330
44649W        W12867  35.060  29.437   1.269
44650W        W12868  28.232  19.061  11.896
44651W        W12869  31.447  34.405   4.303
44652W        W12870   9.903  24.152  12.830
44653W        W12871  42.654  18.285   2.185
44654W        W12872  25.581  10.550   0.922
44655W        W12873  17.871  35.911   0.965
44656W        W12874  40.897   4.981   3.231
44657W        W12875  14.044  28.966  13.426
44658W        W12876  11.875  19.182   4.842
44659W        W12877   6.283  16.697   2.115
44660W        W12878  10.385  35.350   2.262
44661W        W12879  32.238  31.500  13.280
44662W        W12880   2.834  14.113  12.731
44663W        W12881  14.671  17.213   0.384
44664W        W12882  28.988  11.610   4.088
44665W        W12883   5.916  43.541   4.036
44666W        W12884  24.934   7.233  11.447
44667W        W12885  39.816  18.237  10.787
44668W        W12886  23.613  26.719  10.916
44669W        W12887  11.161  37.895  13.395
44670W        W12888  17.333  13.593  14.474
44671W        W12889  23.815  42.047   1.748
44672W        W12890  35.007   5.339   1.848
44673W        W12891  25.488  41.824   0.740
44674W        W12892  14.981  43.710   1.266
44675W        W12893  17.520  25.222  10.488
44676W        W12894  16.391  12.090   4.649
44677W        W12895  27.617   0.193   1.668
44678W        W12896  17.257  26.951  12.445
44679W        W12897   3.744  34.676   4.502
44680W        W12898  16.021  44.555   1.307
44681W        W12899  30.820  11.750  14.569
44682W        W12900  16.463  40.349  13.563
44683W        W12901  20.120   9.881  11.282
44684W        W12902   3.607  38.783   0.047
44685W        W12903  10.622   9.221   0.047
44686W        W12904  18.614  16.191   5.467
44687W        W12905  10.765  36.448  12.967
44688W        W12906   0.201  42.590   1.893
44689W        W12907   5.441  29.710  13.430
44690W        W12908  33.889   1.452   1.851
44691W        W12909  22.637  40.967   1.223
44692W        W12910  13.753  31.132  13.107
44693W        W12911  24.926   6.797  10.697
44694W        W12912   7.334  20.039  12.452
44695W        W12913  44.420   3.746  13.943
44696W        W12914  42.863   8.179   5.030
44697W        W12915  32.888  19.168  11.449
44698W        W12916  41.275  39.499   3.834
44699W        W12917  22.036  39.746  13.095
44700W        W12918  10.796  36.378   1.351
44701W        W12919  19.075   5.370   2.651
44702W        W12920  39.732  30.551   0.035
44703W        W12921  19.068  34.551  14.899
44704W        W12922  26.620  36.552   3.608
44705W        W12923  43.381  12.241   2.933
44706W        W12924  43.708  18.093  13.349
44707W        W12925  30.374  10.733  10.556
44708W        W12926   8.728  20.331  10.735
44709W        W12927  28.571  18.560  10.556
44710W        W12928  28.920  44.344   2.327
44711W        W12929  16.285   4.947   2.728
44712W        W12930  38.414  11.780   0.914
44713W        W12931  26.914  10.196   0.453
44714W        W12932  41.051   0.894   4.733
44715W        W12933  20.749  32.012  12.032
44716W        W12934   3.837  12.842   0.819
44717W        W12935  31.972  16.003   2.664
44718W        W12936   5.226  34.116  14.509
44719W        W12937  10.564   7.317  14.183
44720W        W12938   3.447   3.793  12.898
44721W        W12939  21.025  13.063   1.707
44722W        W12940  11.892  19.807   4.189
44723W        W12941   2.810  10.875  12.874
44724W        W12942  12.578  13.393  14.624
44725W        W12943  43.084  35.825  12.028
44726W        W12944   4.284   4.418   4.648
44727W        W12945  38.853  39.446  12.149
44728W        W12946  35.277  36.235   1.323
44729W        W12947  42.685  33.036   2.826
44730W        W12948  21.016  40.188   5.077
44731W        W12949  36.229  42.883   0.746
44732W        W12950  28.490   3.343   1.850
44733W        W12951  23.608  23.024  13.223
44734W        W12952  19.152   7.329   0.444
44735W        W12953  18.240   0.278   0.352
44736W        W12954  34.377  20.192   3.543
44737W        W12955   1.172  26.795  14.522
44738W        W12956   6.966  34.002   0.155
44739W        W12957  38.415  43.289  11.408
44740W        W12958   0.394  32.801   0.972
44741W        W12959   8.062  33.990   2.217
44742W        W12960  13.657  32.788  11.381
44743W        W12961   5.248  31.427   3.520
44744W        W12962   6.990  38.035  13.485
44745W        W12963  17.709  14.021   4.208
44746W        W12964  15.210  27.680  13.941
44747W        W12965  33.741  41.509   2.289
44748W        W12966  20.668  37.102   1.012
44749W        W12967  42.507   4.327   0.233
44750W        W12968  33.362  41.894  14.825
44751W        W12969   9.784  33.342  13.034
44752W        W12970  41.790  26.999   4.565
44753W        W12971   5.494  11.781   0.502
44754W        W12972  41.987  32.956  14.522
44755W        W12973  30.109   5.317   3.232
44756W        W12974  28.660  40.767   2.749
44757W        W12975  31.521  21.832  11.533
44758W        W12976  11.155  27.768  14.356
44759W        W12977   4.402   4.594  14.893
44760W        W12978  19.221  42.046  13.356
44761W        W12979   6.182  21.255  11.225
44762W        W12980   3.271  17.131  11.390
44763W        W12981  11.361  13.103  14.311
44764W        W12982  38.548   8.254  12.830
44765W        W12983  17.617  38.472   1.390
44766W        W12984   9.262   1.076  11.048
44767W        W12985  28.406  34.375  14.335
44768W        W12986  25.522  15.289   3.656
44769W        W12987  26.224  26.259   0.889
44770W        W12988  28.053  12.169   3.114
44771W        W12989  17.765  44.515  13.288
44772W        W12990  10.678   4.856   3.145
44773W        W12991   7.883  25.772  14.913
44774W        W12992  43.618  37.008   0.737
44775W        W12993  27.980  34.604   2.790
44776W        W12994  37.649  29.885   1.813
44777W        W12995  44.882  12.550   0.825
44778W        W12996  44.672  32.641   1.240
44779W        W12997  20.942  41.089   4.039
44780W        W12998  24.070  22.760  12.060
44781W        W12999  23.753  28.837  12.780
44782W        W13000  21.003  37.407  13.875
44783W        W13001  44.874  17.357  10.663
44784W        W13002  14.742  44.078  10.313
44785W        W13003  39.823   6.468  12.094
44786W        W13004  17.530   6.372  11.455
44787W        W13005  39.217  44.969   4.111
44788W        W13006  17.041   9.154  10.394
44789W        W13007  15.616   5.781  12.067
44790W        W13008   9.292  44.752   1.309
44791W        W13009  17.204   2.228   4.124
44792W        W13010  12.893  36.972  14.968
44793W        W13011   4.214  43.233   2.972
44794W        W13012  37.019  42.969   4.666
44795W        W13013  33.202  19.687   9.656
44796W        W13014  11.247   3.902   4.106
44797W        W13015  18.135  16.321   1.295
44798W        W13016   7.657  36.081  10.848
44799W        W13017  42.331  12.774  10.998
44800W        W13018  10.201  37.976   0.718
44801W        W13019  36.420   6.184   4.581
44802W        W13020  34.607  27.182   2.898
44803W        W13021  20.288  24.779  14.398
44804W        W13022  30.528  17.508   1.802
44805W        W13023   7.664  27.623  11.636
44806W        W13024  14.398   0.456  11.507
44807W        W13025  13.170  16.628  11.568
44808W        W13026  22.290   8.617   1.752
44809W        W13027  16.782  35.249  11.523
44810W        W13028  21.766  23.469  14.979
44811W        W13029  30.224  16.059   0.748
44812W        W13030  24.989  15.734   2.721
44813W        W13031  24.875  21.991   1.671
44814W        W13032  38.964  32.078   1.232
44815W        W13033  42.778   0.143  10.729
44816W        W13034  32.246  34.816   5.065
44817W        W13035  10.872  25.101  12.928
44818W        W13036  25.519  18.696  13.787
44819W        W13037  15.796   7.573   3.302
44820W        W13038  19.964  21.678   0.565
44821W        W13039  23.684   9.272  10.666
44822W        W13040   6.801  31.678  11.952
44823W        W13041   0.398  25.221   3.655
44824W        W13042  37.544  22.654   1.501
44825W        W13043  43.168  43.603   2.890
44826W        W13044  13.183  30.966   2.208
44827W        W13045   3.561  36.870   3.552
44828W        W13046  36.467  27.627   3.132
44829W        W13047  23.166   6.712   4.487
44830W        W13048  12.636  11.782   4.753
44831W        W13049  27.885  35.090   2.583
44832W        W13050  37.224   6.321   4.058
44833W        W13051   2.421   8.153   2.757
44834W        W13052  40.967  22.773  14.621
44835W        W13053  15.691  20.518  14.593
44836W        W13054  42.903  27.178   0.276
44837W        W13055  32.608  29.122   2.337
44838W        W13056  16.886   6.765  14.032
44839W        W13057   6.236  19.975  12.128
44840W        W13058  17.737  20.748   0.893
44841W        W13059  35.119  22.740  12.540
44842W        W13060  29.508   9.173   0.510
44843W        W13061   2.172  23.135   1.509
44844W        W13062  38.310   8.420  14.348
44845W        W13063  21.054   2.184  14.768
44846W        W13064  10.727  28.181   4.499
44847W        W13065  27.428  35.097   3.634
44848W        W13066  30.120  40.315  12.648
44849W        W13067  13.810  44.473  13.876
44850W        W13068  38.176  26.409   4.786
44851W        W13069  12.192  29.968   4.819
44852W        W13070  13.191  25.255  14.116
44853W        W13071  14.930  42.066  14.030
44854W        W13072  43.790  23.499  12.150
44855W        W13073  32.114  32.615   2.324
44856W        W13074  12.140  31.760  10.742
44857W        W13075  39.553  42.010   3.662
44858W        W13076  40.061  17.987  12.067
44859W        W13077  20.339  43.280  13.806
44860W        W13078  29.901  38.942  14.382
44861W        W13079  42.837  18.493   4.374
44862W        W13080  41.445   8.585  14.364
44863W        W13081  23.747  34.489  14.092
44864W        W13082  15.345  32.327   3.188
44865W        W13083   8.868  13.849  11.548
44866W        W13084  25.980  31.096   2.781
44867W        W13085   1.655  23.171   3.768
44868W        W13086  33.639  32.520  12.037
44869W        W13087  16.637   2.668   0.470
44870W        W13088  40.116   1.708   4.501
44871W        W13089  43.266  22.641   3.416
44872W        W13090  21.987   7.690  13.715
44873W        W13091  44.576   5.681   2.339
44874W        W13092  27.089  31.488  13.311
44875W        W13093  28.207  18.306  13.106
44876W        W13094  24.637  22.668   1.199
44877W        W13095  41.979  29.030   1.925
44878W        W13096   2.957   4.382   1.396
44879W        W13097  23.661   8.475  13.360
44880W        W13098  23.216  27.086  10.895
44881W        W13099  40.364  24.732   3.689
44882W        W13100  26.766  32.137   3.002
44883W        W13101  19.860   7.421   0.803
44884W        W13102   6.272  20.671   0.951
44885W        W13103   0.995  16.631   1.893
44886W        W13104  37.237  42.347  14.252
44887W        W13105   3.502  32.419  13.111
44888W        W13106  35.616  41.587  13.031
44889W        W13107  43.015  38.916  13.433
44890W        W13108  23.005   5.849   1.860
44891W        W13109  34.016   3.929   1.219
44892W        W13110  16.608   2.093   1.758
44893W        W13111  41.461  18.071   0.419
44894W        W13112  13.932   8.177  14.427
44895W        W13113   7.103   4.356  13.424
44896W        W13114  12.231  35.599  13.797
44897W        W13115   3.270   6.201  10.573
44898W        W13116   0.723  12.802  14.343
44899W        W13117   2.632  11.738   2.303
44900W        W13118  19.614  23.448  11.611
44901W        W13119  43.340  44.229  12.474
44902W        W13120  35.677  16.113   3.255
44903W        W13121  20.208  21.022  13.841
44904W        W13122  16.593   4.696   0.273
44905W        W13123   9.716  12.516   3.227
44906W        W13124  32.634  14.082  11.473
44907W        W13125  26.684  24.075  13.502
44908W        W13126   6.749  35.634  13.942
44909W        W13127  36.831  15.722   2.417
44910W        W13128  43.292  22.337   1.123
44911W        W13129  18.536  21.629  12.034
44912W        W13130   6.727   0.829   2.806
44913W        W13131   9.281  41.485   1.912
44914W        W13132  34.828   4.680   0.555
44915W        W13133  25.726  36.722  10.937
44916W        W13134  11.729  13.867   3.238
44917W        W13135  14.733  32.575  12.830
44918W        W13136  27.996   2.075  14.834
44919W        W13137  12.800  31.916  12.647
44920W        W13138  31.229  41.361  14.061
44921W        W13139  30.416  38.832   2.883
44922W        W13140   6.931   6.316   1.890
44923W        W13141  24.118  32.094  12.804
44924W        W13142  18.714  42.320   3.804
44925W        W13143   7.903  31.824   2.900
44926W        W13144   5.846  19.212   1.454
44927W        W13145   6.993  34.910   0.670
44928W        W13146  35.690  28.931  13.375
44929W        W13147  37.438  30.103  10.541
44930W        W13148  31.888   0.870   1.728
44931W        W13149  32.468  33.204  12.395
44932W        W13150  29.184  37.295   4.656
44933W        W13151   4.653   1.787  11.609
44934W        W13152   2.962  42.057   3.736
44935W        W13153  16.607  24.678  13.066
44936W        W13154   1.848  15.951  14.954
44937W        W13155   6.418  21.959   2.989
44938W        W13156  11.261  36.349   2.859
44939W        W13157  29.948  37.474   3.641
44940W        W13158  17.953  12.736   4.685
44941W        W13159   9.436   5.345  14.949
44942W        W13160  13.803  39.003  11.317
44943W        W13161  25.064  26.183   1.388
44944W        W13162  10.758  29.874   2.291
44945W        W13163  30.965  10.429   4.549
44946W        W13164  15.409  36.604   2.327
44947W        W13165  14.901  10.393   1.486
44948W        W13166   8.248   5.028   2.168
44949W        W13167   9.584   5.365   1.747
44950W        W13168   1.412  40.940   4.633
44951W        W13169  38.675   4.993   1.536
44952W        W13170  39.897  27.062  12.089
44953W        W13171  23.615  40.705   0.387
44954W        W13172  10.157  28.682  14.383
44955W        W13173  26.147   3.721  14.492
44956W        W13174  33.484  39.063   4.663
44957W        W13175   8.336  27.737   1.889
44958W        W13176  23.678  27.190  11.118
44959W        W13177  12.985   2.129   9.958
44960W        W13178  18.935  29.913   5.144
44961W        W13179  25.294   0.558  14.467
44962W        W13180   2.782   6.905   1.159
44963W        W13181  33.282  23.626  12.974
44964W        W13182  28.506  30.584   3.265
44965W        W13183   8.949   3.975   0.312
44966W        W13184  17.973  24.171   3.246
44967W        W13185  38.929  28.986  12.499
44968W        W13186  16.807  23.044   4.201
44969W        W13187   5.439  23.313   1.150
44970W        W13188  36.338  21.150   0.245
44971W        W13189   3.347  26.211   1.547
44972W        W13190  14.549  20.062   3.762
44973W        W13191  11.069  15.695  11.588
44974W        W13192  14.359  41.444   2.361
44975W        W13193  32.929   1.838   4.679
44976W        W13194   3.819   5.469  13.789
44977W        W13195  20.692  35.082   0.052
44978W        W13196   6.272   6.695   3.836
44979W        W13197  38.586  28.445   2.387
44980W        W13198  32.004   6.391   2.692
44981W        W13199   9.267  25.006  14.498
44982W        W13200  25.159  19.078   4.659
44983W        W13201  38.045   4.370   2.156
44984W        W13202  24.384  27.148   1.262
44985W        W13203  33.396   5.522   3.823
44986W        W13204  42.349  43.544  14.147
44987W        W13205  37.030  39.536   4.345
44988W        W13206  16.310  37.583  10.461
44989W        W13207  16.757  24.754   1.010
44990W        W13208  26.977  42.438  10.701
44991W        W13209  20.647  16.220  11.705
44992W        W13210  24.567  14.048   4.059
44993W        W13211   0.036  36.157   1.762
44994W        W13212  38.460  10.451   3.603
44995W        W13213  44.575  41.008  12.006
44996W        W13214  30.196  22.274   0.599
44997W        W13215  41.751  33.343  14.020
44998W        W13216   4.931   8.978   0.463
44999W        W13217  22.133   9.333  11.914
45000W        W13218  24.574   1.301  11.981
45001W        W13219  17.169  31.566   0.070
45002W        W13220   2.198   5.765   4.995
45003W        W13221  33.982  38.912   4.063
45004W        W13222  21.801  26.598   2.352
45005W        W13223  34.370  21.774  13.123
45006W        W13224  26.653  22.102   9.769
45007W        W13225   4.647   4.140  14.319
45008W        W13226  32.503  17.352  13.211
45009W        W13227   8.482   9.967   4.323
45010W        W13228  12.244  36.992  10.881
45011W        W13229  22.874  31.502  13.067
45012W        W13230  40.555  33.153   3.179
45013W        W13231  28.619  21.563  11.542
45014W        W13232  14.149   9.436  11.224
45015W        W13233  36.028  19.715   1.761
45016W        W13234  30.560  36.853   4.088
45017W        W13235   7.233  19.205  10.565
45018W        W13236   4.862   4.017   1.374
45019W        W13237  29.175   4.964   0.774
45020W        W13238  24.777  14.260   3.601
45021W        W13239   9.815  36.010   3.128
45022W        W13240  22.623  30.002   3.812
45023W        W13241  17.708  10.785   4.749
45024W        W13242  29.412   3.936   4.147
45025W        W13243  20.354   8.562   3.811
45026W        W13244  24.545  18.699   3.346
45027W        W13245  40.068  20.873   4.574
45028W        W13246  25.481  43.243  10.287
45029W        W13247  30.684  18.497   1.588
45030W        W13248  43.094  25.588   0.303
45031W        W13249  22.581  33.474  13.909
45032W        W13250  10.523  34.932  13.799
45033W        W13251  30.056   0.759  11.113
45034W        W13252   9.282  44.395   2.848
45035W        W13253  34.347   0.770  13.527
45036W        W13254  37.355  40.743  10.799
45037W        W13255  10.767  28.142  14.516
45038W        W13256  12.739   3.122   5.293
45039W        W13257  21.293   7.877  11.504
45040W        W13258  24.031  35.578  12.377
45041W        W13259  11.291  28.679   0.833
45042W        W13260  23.207  12.165  14.899
45043W        W13261  20.344   3.186  11.143
45044W        W13262  17.663   5.126   1.897
45045W        W13263  37.416  36.391  12.404
45046W        W13264  16.207   1.970  14.969
45047W        W13265  12.251   8.687   4.804
45048W        W13266  28.609  35.866   3.602
45049W        W13267  20.376  20.171  11.134
45050W        W13268  15.728  37.509  11.126
45051W        W13269  15.364  25.213   2.245
45052W        W13270  27.746  24.059  11.225
45053W        W13271  12.786   4.292  11.230
45054W        W13272  20.225  28.964   4.740
45055W        W13273   0.990  32.139  12.849
45056W        W13274  34.060   0.468   1.126
45057W        W13275  39.450  23.070   1.664
45058W        W13276  34.946  38.567  13.329
45059W        W13277  34.316   8.664   0.480
45060W        W13278  43.595  10.345  12.730
45061W        W13279   8.651  31.080   2.367
45062W        W13280  16.225   7.848   3.762
45063W        W13281  30.652  12.872  12.456
45064W        W13282   2.890  36.440   4.689
45065W        W13283   4.647  33.950  11.428
45066W        W13284  33.671  28.077  12.657
45067W        W13285  30.200  32.848   1.230
45068W        W13286   4.197  40.493  12.431
45069W        W13287  39.679  24.075   4.252
45070W        W13288  40.597  29.871  14.828
45071W        W13289  26.713  25.900   1.278
45072W        W13290  20.631  44.380  11.360
45073W        W13291  30.916  25.595   4.774
45074W        W13292  20.456  16.145   1.770
45075W        W13293  36.446   4.606   3.370
45076W        W13294  32.738  44.896  14.413
45077W        W13295   3.024  37.297   3.221
45078W        W13296   9.572  28.212  13.230
45079W        W13297  10.773  21.587  10.701
45080W        W13298   4.722  20.733  13.144
45081W        W13299  34.296   2.834  14.842
45082W        W13300  43.250  22.311  12.551
45083W        W13301  11.810  31.977   2.647
45084W        W13302  19.176   3.811   0.883
45085W        W13303  20.695   1.289  14.539
45086W        W13304  13.576  19.675   1.036
45087W        W13305  24.314  36.972   1.210
45088W        W13306   3.921  24.553   3.209
45089W        W13307  29.086  10.614   0.913
45090W        W13308  41.746  26.037  12.672
45091W        W13309  17.516  40.061  14.959
45092W        W13310  13.594  42.615  12.008
45093W        W13311   5.368  35.944   2.235
45094W        W13312  41.779  13.596  13.467
45095W        W13313  12.555  42.302  10.840
45096W        W13314  17.078  35.938   4.707
45097W        W13315  34.461  16.006  14.976
45098W        W13316  33.632  32.541  13.005
45099W        W13317  34.087  14.300  12.393
45100W        W13318  38.993  31.186  12.202
45101W        W13319  22.605  18.738   4.263
45102W        W13320  25.907  15.472   3.106
45103W        W13321  23.785  23.208  11.985
45104W        W13322  15.386  37.001  13.899
45105W        W13323  14.189  32.098  12.504
45106W        W13324  11.477  19.178   1.971
45107W        W13325  23.473  37.580  12.633
45108W        W13326  36.055   5.738   0.167
45109W        W13327   1.709  34.638   0.849
45110W        W13328  20.940  20.761  11.640
45111W        W13329  11.203  32.886   3.597
45112W        W13330  25.277   5.691   0.382
45113W        W13331  15.147  41.576   0.494
45114W        W13332   9.474  44.320   3.361
45115W        W13333  36.130  10.587   1.962
45116W        W13334   1.335   8.160  11.487
45117W        W13335  17.929  33.727   1.328
45118W        W13336  14.382  40.041  11.630
45119W        W13337   1.868  12.050  14.406
45120W        W13338   6.321  34.102  10.690
45121W        W13339  27.185   4.474  13.502
45122W        W13340  12.123   0.555  13.546
45123W        W13341  17.324  11.294   0.305
45124W        W13342  25.427  27.063  10.767
45125W        W13343   5.340  12.338   3.179
45126W        W13344  12.101  28.465  11.072
45127W        W13345  13.365  28.222  13.510
45128W        W13346  44.803   1.192   4.738
45129W        W13347  29.922   8.045   1.839
45130W        W13348  24.577   2.361  10.869
45131W        W13349   6.786  35.517   4.763
45132W        W13350   1.669  24.107   3.794
45133W        W13351  12.269  20.770   1.093
45134W        W13352  24.764   5.893  13.464
45135W        W13353  39.061  39.351   0.319
45136W        W13354  25.220  14.336   4.731
45137W        W13355   0.306  40.014   2.343
45138W        W13356  21.907  41.634   3.902
45139W        W13357  32.398  12.325   3.270
45140W        W13358  11.873  30.950   4.737
45141W        W13359  36.904  44.987  12.160
45142W        W13360  31.844  18.895  13.857
45143W        W13361  34.513  19.915   1.866
45144W        W13362   8.778   3.235  11.037
45145W        W13363   3.740  28.106  12.090
45146W        W13364  19.802  18.476   4.977
45147W        W13365   2.825  40.817   3.323
45148W        W13366  41.905  11.938  11.121
45149W        W13367  43.861  30.190  14.757
45150W        W13368   2.469   2.805  14.552
45151W        W13369  37.630  13.230  14.338
45152W        W13370  39.806  41.580   3.177
45153W        W13371  15.577  37.445   2.691
45154W        W13372  19.798  44.794   3.306
45155W        W13373  26.677   3.781   1.479
45156W        W13374  14.635  30.510  10.540
45157W        W13375  44.647  38.970   5.260
45158W        W13376  28.011   7.401   4.635
45159W        W13377   6.797  42.828  12.469
45160W        W13378   0.855   2.441  13.075
45161W        W13379  40.302  44.948  11.782
45162W        W13380  23.158   7.700  11.976
45163W        W13381  16.132  17.278   3.117
45164W        W13382  26.914   0.733  14.258
45165W        W13383  43.934  20.914   0.303
45166W        W13384  21.544  43.524  11.955
45167W        W13385  11.668  11.704  10.904
45168W        W13386  38.512   5.762   4.449
45169W        W13387  27.129  20.182   1.801
45170W        W13388  35.963  29.679   1.685
45171W        W13389  37.308  22.133   0.236
45172W        W13390  29.407   3.473   2.357
45173W        W13391   1.245  35.042  12.226
45174W        W13392  41.594  42.613   3.212
45175W        W13393  40.731   6.342  14.530
45176W        W13394  34.925  18.897  10.468
45177W        W13395  23.532  39.779   0.181
45178W        W13396   4.033   9.743  10.401
45179W        W13397   0.828   4.196  13.988
45180W        W13398  17.045  39.375  12.472
45181W        W13399   3.648  30.606   2.348
45182W        W13400  37.852  22.035  12.018
45183W        W13401  26.173  27.744   0.310
45184W        W13402  42.782  24.911  11.629
45185W        W13403  26.274  44.254   3.141
45186W        W13404  37.517   4.190   0.701
45187W        W13405  27.592  10.665   0.028
45188W        W13406   9.793  37.145   1.410
45189W        W13407  28.131  19.073  13.850
45190W        W13408  24.953  30.005   2.837
45191W        W13409  16.238  42.370   1.437
45192W        W13410  14.598   6.393   0.443
45193W        W13411  33.469  23.282  11.279
45194W        W13412  25.546   3.723   3.004
45195W        W13413  22.531  17.880   4.397
45196W        W13414  33.349   8.807  14.589
45197W        W13415  18.106  44.456   4.069
45198W        W13416  37.454  39.107   3.751
45199W        W13417  33.538  34.890  13.520
45200W        W13418  15.575  40.436   4.640
45201W        W13419   1.383  12.775  11.520
45202W        W13420  14.605  22.987   0.859
45203W        W13421   4.311  42.026  14.728
45204W        W13422  22.241   3.323  12.415
45205W        W13423   7.411  20.049  11.509
45206W        W13424   1.847   1.429  12.556
45207W        W13425  13.725  18.820  13.458
45208W        W13426  25.469  43.191   4.197
45209W        W13427  18.396  22.285  14.916
45210W        W13428  18.583   9.246   4.137
45211W        W13429  36.077  36.097   3.199
45212W        W13430  33.894  16.881   0.918
45213W        W13431  18.240  13.150  11.650
45214W        W13432  14.751  40.821   1.429
45215W        W13433  27.990  32.247   1.330
45216W        W13434   3.672  22.664  13.408
45217W        W13435  38.544  39.344  13.690
45218W        W13436   3.259  39.500  12.149
45219W        W13437  12.282  12.082   3.118
45220W        W13438  35.682  38.347   3.393
45221W        W13439  26.136  30.963   4.716
45222W        W13440  40.300  25.781  11.927
45223W        W13441   0.291  37.001   3.318
45224W        W13442  10.119  16.559   2.284
45225W        W13443  34.901  13.755   2.872
45226W        W13444  20.273   4.925  11.343
45227W        W13445   6.949   6.967  11.123
45228W        W13446  11.274  13.619  14.208
45229W        W13447  22.095  41.745   0.169
45230W        W13448  29.157  20.027   4.790
45231W        W13449  22.033  12.414   5.252
45232W        W13450  41.815  39.581  13.552
45233W        W13451  27.963   9.410  12.346
45234W        W13452  26.703   6.493  14.088
45235W        W13453  35.324   3.778   3.496
45236W        W13454  41.257  27.624   4.253
45237W        W13455  10.078  28.429  11.198
45238W        W13456  29.898  16.182   5.100
45239W        W13457  18.949  22.242  14.965
45240W        W13458  31.068   7.934   4.645
45241W        W13459   6.261  33.643   3.675
45242W        W13460   6.528   2.181  11.151
45243W        W13461  20.798  22.010   2.131
45244W        W13462  36.395  26.956  10.482
45245W        W13463  31.097  35.567   1.454
45246W        W13464  39.273  43.977  14.696
45247W        W13465   7.290  14.246   0.938
45248W        W13466  27.130  26.934  12.432
45249W        W13467  30.874  39.011  13.152
45250W        W13468  37.685  35.583   0.509
45251W        W13469  10.642   2.397  13.025
45252W        W13470  26.482  10.396   2.340
45253W        W13471  24.669   0.442   3.240
45254W        W13472   9.836  40.844  12.412
45255W        W13473  43.251   0.387   3.358
45256W        W13474   2.094  25.296   1.918
45257W        W13475  16.844  33.963  10.636
45258W        W13476  33.243  30.578   4.435
45259W        W13477  43.226  10.604  12.429
45260W        W13478  34.869  27.982  11.975
45261W        W13479  35.453  35.610  12.537
45262W        W13480  43.469  44.508  14.371
45263W        W13481   5.256   7.844   0.228
45264W        W13482  35.155  12.111   0.868
45265W        W13483  41.754  25.967  10.962
45266W        W13484  27.935  28.395  11.624
45267W        W13485   2.326  10.027   3.727
45268W        W13486  40.014  34.001   3.525
45269W        W13487  16.825  44.501   0.375
45270W        W13488  39.425   5.735   0.800
45271W        W13489   4.912   2.770  11.606
45272W        W13490   0.773  32.934   4.615
45273W        W13491   6.936  26.692   1.703
45274W        W13492   4.932  21.789  10.129
45275W        W13493  40.779  35.896  12.525
45276W        W13494  18.797  24.796   0.634
45277W        W13495   5.895  22.024   2.261
45278W        W13496   9.716  24.094   4.271
45279W        W13497  19.570  11.788  11.003
45280W        W13498  23.102  11.700  10.642
45281W        W13499  40.819  32.726  12.000
45282W        W13500   5.642  19.626   1.808
45283W        W13501  36.508  44.217  12.564
45284W        W13502  19.444  35.348  11.299
45285W        W13503  29.808   9.409  11.974
45286W        W13504  29.369   8.246   3.692
45287W        W13505  30.080  16.039  13.421
45288W        W13506  17.378  13.277  11.931
45289W        W13507   3.303  29.844  10.508
45290W        W13508  24.994  39.512   4.067
45291W        W13509   7.157   5.213   2.681
45292W        W13510   9.131  15.124   4.471
45293W        W13511  33.509  24.092   1.647
45294W        W13512  38.149  39.034   4.513
45295W        W13513  23.274  14.225   4.569
45296W        W13514  22.579  22.021  13.421
45297W        W13515  35.008  26.676   4.223
45298W        W13516  13.998  21.596  13.450
45299W        W13517  26.622  25.278   3.989
45300W        W13518   2.524  27.676  14.950
45301W        W13519   1.181   8.425   3.280
45302W        W13520  24.149   6.334   4.672
45303W        W13521  41.029  34.047  12.571
45304W        W13522  21.066  17.623  13.750
45305W        W13523   4.985  20.828  12.135
45306W        W13524  11.348  21.180  12.613
45307W        W13525  17.149  34.937   0.943
45308W        W13526   3.632   2.860   1.545
45309W        W13527  14.454  29.557   5.022
45310W        W13528   7.334  26.510  14.329
45311W        W13529  39.236  43.008  12.686
45312W        W13530  10.411  24.486   3.039
45313W        W13531  11.718  41.520   1.393
45314W        W13532  24.022  20.146   4.196
45315W        W13533   6.285  44.522   5.028
45316W        W13534  37.944  27.905  12.261
45317W        W13535  41.574  38.291   3.372
45318W        W13536  12.817  24.052  13.067
45319W        W13537  34.822  11.682  10.564
45320W        W13538   5.842   6.247  11.910
45321W        W13539  39.492  38.503   1.059
45322W        W13540  11.610  31.981  14.832
45323W        W13541   0.998  19.260   1.117
45324W        W13542  14.693   2.388   2.947
45325W        W13543  37.935  14.634  11.083
45326W        W13544  15.802  14.046   3.853
45327W        W13545  25.191  42.866  10.642
45328W        W13546  32.707  28.082  11.507
45329W        W13547  31.273  27.090   3.669
45330W        W13548   8.050  26.151  12.366
45331W        W13549   1.948  27.875  11.177
45332W        W13550  27.398  17.274   1.891
45333W        W13551  25.728  20.750  13.490
45334W        W13552  32.280  29.116   0.308
45335W        W13553   6.282   2.840   2.375
45336W        W13554  25.091  29.697   1.354
45337W        W13555  12.298  40.037   2.185
45338W        W13556   1.898  41.997  12.961
45339W        W13557  18.647  30.374  14.455
45340W        W13558  33.928  16.771  12.644
45341W        W13559   9.617   3.706   1.264
45342W        W13560  22.756   4.396   4.121
45343W        W13561  11.429   4.357   0.463
45344W        W13562  19.347  36.470   0.359
45345W        W13563  32.682  36.281   3.626
45346W        W13564  19.803  27.456  12.215
45347W        W13565   1.015  17.641   0.302
45348W        W13566  10.122  41.068  12.004
45349W        W13567  19.267  32.358  13.805
45350W        W13568  17.134  26.438  12.608
45351W        W13569  27.841   8.225   3.260
45352W        W13570  21.817  22.300  10.737
45353W        W13571  14.576  38.137  12.057
45354W        W13572  24.735  25.867  11.075
45355W        W13573   2.516  35.784  12.097
45356W        W13574  38.112   2.197  11.574
45357W        W13575  19.588  41.832  14.109
45358W        W13576  41.115  32.621  12.416
45359W        W13577   6.130  12.254   2.704
45360W        W13578  13.738  10.739  13.741
45361W        W13579  29.281  21.360   3.273
45362W        W13580   3.056  43.323   3.270
45363W        W13581  22.498   3.259   4.913
45364W        W13582  44.090  24.655  11.954
45365W        W13583  28.185  35.638   3.108
45366W        W13584  38.274   4.242   0.049
45367W        W13585   6.797  30.714  11.577
45368W        W13586   3.940  18.714  13.944
45369W        W13587  29.915  33.125   4.546
45370W        W13588  34.925  12.774   4.342
45371W        W13589  21.145  43.495  13.034
45372W        W13590   5.618  33.642   4.698
45373W        W13591  40.929  32.917  11.477
45374W        W13592  25.897  10.887  12.539
45375W        W13593  39.387  10.983   3.660
45376W        W13594  41.310   0.690   1.401
45377W        W13595  39.708   3.302   0.922
45378W        W13596  19.578  24.728   2.002
45379W        W13597  32.854  26.172  13.665
45380W        W13598  43.543  43.874   3.134
45381W        W13599  43.990  18.631  14.554
45382W        W13600  33.659   6.347   4.203
45383W        W13601  28.739   6.586   2.710
45384W        W13602  16.145  43.577   4.093
45385W        W13603  25.717  40.410  14.561
45386W        W13604  32.504  25.560   4.211
45387W        W13605  11.258  27.589  10.789
45388W        W13606  13.792  41.844  10.611
45389W        W13607  32.442   0.657   3.359
45390W        W13608   0.721  14.111   4.998
45391W        W13609  20.689  28.608   4.134
45392W        W13610  26.497  25.686   3.634
45393W        W13611  13.695  22.093  10.651
45394W        W13612  21.251  28.515   3.242
45395W        W13613  44.780  44.537   2.759
45396W        W13614  13.399  13.391  13.380
45397W        W13615  20.017  17.247   0.669
45398W        W13616  29.487  39.868  11.629
45399W        W13617   6.870  29.907  12.550
45400W        W13618  15.206  31.354   3.134
45401W        W13619   4.321  41.459  13.370
45402W        W13620  11.803   4.778   4.268
45403W        W13621   4.068  23.945  13.490
45404W        W13622  18.540  33.577  11.159
45405W        W13623  17.182   2.009  11.570
45406W        W13624  15.235  19.047   2.365
45407W        W13625  19.091  36.867  11.625
45408W        W13626  18.209   6.164  13.997
45409W        W13627  25.090  29.967  14.107
45410W        W13628  20.187   1.374  14.228
45411W        W13629  44.254  40.982   4.792
45412W        W13630   1.970  36.705  13.970
45413W        W13631  35.632  29.837  12.590
45414W        W13632  36.590   8.850  14.838
45415W        W13633  34.782   9.025   2.811
45416W        W13634  14.127  18.762   3.248
45417W        W13635  17.300  26.575   1.967
45418W        W13636   4.318  33.305   0.419
45419W        W13637  35.794   7.197   3.608
45420W        W13638  38.925  28.647   2.750
45421W        W13639  43.307  21.514  13.541
45422W        W13640  14.127  33.642  12.662
45423W        W13641  13.200  35.861  11.965
45424W        W13642  43.299  23.091  14.483
45425W        W13643  44.145  29.936   3.249
45426W        W13644  44.120  33.615   1.847
45427W        W13645  26.631  22.662   2.704
45428W        W13646  11.323  30.920   1.713
45429W        W13647  36.630  41.942   2.770
45430W        W13648  37.910  25.013  14.283
45431W        W13649  19.306  32.534  14.323
45432W        W13650  37.258   0.813  10.317
45433W        W13651  13.137   2.001   1.215
45434W        W13652  11.411  32.568   0.570
45435W        W13653  41.728  14.788  14.511
45436W        W13654  34.011   6.634   2.850
45437W        W13655  15.557  10.740  10.707
45438W        W13656  16.527  24.181  12.025
45439W        W13657  23.221   4.753  10.774
45440W        W13658  30.598  16.508  12.934
45441W        W13659   8.614  18.324  10.706
45442W        W13660  13.747   9.035   3.959
45443W        W13661  21.298  37.135  13.515
45444W        W13662  19.084   3.769  12.567
45445W        W13663  11.909  10.876  13.970
45446W        W13664  37.844  22.578   3.555
45447W        W13665   1.930  32.055   4.053
45448W        W13666   2.220  32.594  10.722
45449W        W13667  16.753  15.837   1.248
45450W        W13668   0.715  28.286   3.706
45451W        W13669  21.264  28.464  13.394
45452W        W13670  22.050   6.689   0.632
45453W        W13671  16.179  15.637   4.093
45454W        W13672  10.623  23.044   1.234
45455W        W13673  41.255  12.968  11.495
45456W        W13674  38.918  36.828   1.885
45457W        W13675  31.165   4.392   0.063
45458W        W13676  44.787  35.971  11.588
45459W        W13677  22.328  36.587   4.235
45460W        W13678   6.662   9.652  11.546
45461W        W13679   2.562  29.861  12.070
45462W        W13680  37.186  24.853  11.566
45463W        W13681  35.687   4.108  11.653
45464W        W13682  29.548  38.847  10.614
45465W        W13683  44.348   2.789   1.685
45466W        W13684  25.623  15.743  13.835
45467W        W13685  42.834  11.644  14.773
45468W        W13686  27.941  37.096   0.052
45469W        W13687  30.129  24.250  12.583
45470W        W13688   7.403   1.261  14.786
45471W        W13689  41.976  44.030   1.727
45472W        W13690  21.544   6.725  12.420
45473W        W13691  22.732  14.578  12.500
45474W        W13692  33.002  35.245   4.126
45475W        W13693  28.667  21.042   0.777
45476W        W13694  39.986  39.275  14.762
45477W        W13695   4.947  36.725   1.422
45478W        W13696   3.105  25.624   5.036
45479W        W13697  44.994  34.484   3.222
45480W        W13698  39.689  34.112   2.500
45481W        W13699  17.483  16.397  11.132
45482W        W13700  37.007   8.106  10.751
45483W        W13701  20.227  33.586   1.763
45484W        W13702  24.474  10.104  11.137
45485W        W13703  17.776  11.764  10.497
45486W        W13704  13.262  19.882   4.647
45487W        W13705  39.285  18.227  10.669
45488W        W13706  27.166  39.099   1.389
45489W        W13707   2.057  28.612  12.925
45490W        W13708   2.480   3.775   4.712
45491W        W13709  34.356  35.494  11.122
45492W        W13710  26.042  39.456   1.516
45493W        W13711  36.749  18.214   3.961
45494W        W13712  19.145  22.183   1.948
45495W        W13713  28.554   5.841   1.896
45496W        W13714  33.468  25.915   3.608
45497W        W13715  44.849  23.502  11.651
45498W        W13716   1.355  28.908   2.349
45499W        W13717  38.004  26.886  14.704
45500W        W13718  12.037  16.214   9.913
45501W        W13719  37.284  24.362  11.638
45502W        W13720  37.044  24.684  12.026
45503W        W13721   0.721  26.460   5.005
45504W        W13722   9.863   6.249   0.096
45505W        W13723  25.888  12.164   0.465
45506W        W13724  35.542  40.890   3.659
45507W        W13725   4.266  21.348   0.140
45508W        W13726  22.094  35.018  13.504
45509W        W13727  16.802  43.719   1.594
45510W        W13728   4.309   5.243  13.625
45511W        W13729  20.594  41.441   3.177
45512W        W13730   0.867  11.203   0.541
45513W        W13731  39.584   2.315   2.678
45514W        W13732  18.805  44.320  14.688
45515W        W13733  24.984  10.843  13.465
45516W        W13734   2.001  42.534  11.609
45517W        W13735  15.231  29.386  14.465
45518W        W13736   6.933  30.760   4.097
45519W        W13737  37.104  20.774   2.074
45520W        W13738   7.004  14.399  10.588
45521W        W13739   4.714  25.634   1.879
45522W        W13740  39.553   7.802   4.375
45523W        W13741  40.408  11.369   2.675
45524W        W13742  27.125  40.534   2.413
45525W        W13743  23.285  13.438  11.230
45526W        W13744  29.121   9.945  13.496
45527W        W13745   9.688  34.150   3.681
45528W        W13746  26.038  22.330  10.283
45529W        W13747  22.785   4.994  11.057
45530W        W13748  23.702  33.670  10.202
45531W        W13749  21.033  19.754   2.256
45532W        W13750  33.873  20.180   3.449
45533W        W13751   6.374  32.737   1.269
45534W        W13752   5.288  39.454   4.290
45535W        W13753  24.265   6.015   2.189
45536W        W13754  14.691   1.573   4.553
45537W        W13755   1.203  10.378   3.781
45538W        W13756  42.838  18.633   3.880
45539W        W13757  28.024  33.262  11.653
45540W        W13758  17.953  11.776  11.772
45541W        W13759   2.423  43.886   3.535
45542W        W13760  13.593  27.064   3.481
45543W        W13761  15.239  23.751  11.508
45544W        W13762  35.564  42.458  13.498
45545W        W13763   5.209  12.096  11.054
45546W        W13764  42.088  22.748   9.938
45547W        W13765  41.827   6.036   0.926
45548W        W13766  14.405  39.939  13.098
45549W        W13767   9.667   7.824  13.361
45550W        W13768   1.938  32.919   3.198
45551W        W13769  43.401  30.902   0.371
45552W        W13770  27.084  16.140   0.833
45553W        W13771  14.067  38.398  12.951
45554W        W13772  35.188  43.347   2.787
45555W        W13773  35.629  16.502   1.359
45556W        W13774  12.368  29.089   3.012
45557W        W13775   4.277  29.650  12.896
45558W        W13776   0.485  24.940   1.860
45559W        W13777  29.127  28.075   4.857
45560W        W13778   2.922   5.073  11.928
45561W        W13779  21.068  44.148  11.171
45562W        W13780  33.315  24.343  11.647
45563W        W13781  19.101  33.943   3.641
45564W        W13782  41.857  41.370  12.297
45565W        W13783   7.132  28.009  14.503
45566W        W13784  22.063  26.070   4.634
45567W        W13785  18.461  30.957   2.170
45568W        W13786  19.716   0.954   0.852
45569W        W13787  33.566  28.940  14.830
45570W        W13788  29.391   4.918  11.065
45571W        W13789  18.248  41.905   2.195
45572W        W13790  14.026   5.313  11.121
45573W        W13791  13.680  30.472   4.525
45574W        W13792  10.611   1.379   4.231
45575W        W13793  14.101   4.273  11.510
45576W        W13794  42.103  21.294  11.690
45577W        W13795  19.735  44.982   0.938
45578W        W13796  25.480  24.427  11.154
45579W        W13797  35.083  13.615   0.815
45580W        W13798   9.763   7.341  11.236
45581W        W13799  44.797  26.552  13.484
45582W        W13800  37.386  44.019   2.893
45583W        W13801  27.085   2.931  13.971
45584W        W13802  24.197  42.378   0.226
45585W        W13803  31.912   2.164  11.579
45586W        W13804  33.149  37.961  12.940
45587W        W13805  24.095  14.611   4.637
45588W        W13806   3.084  23.232   4.209
45589W        W13807   9.597  30.681  11.649
45590W        W13808  24.443  43.771   3.731
45591W        W13809  14.341  22.138   1.309
45592W        W13810  38.130  36.069   2.942
45593W        W13811  19.039  41.595   0.169
45594W        W13812  15.858  15.322   1.825
45595W        W13813   1.246   4.917   0.456
45596W        W13814  28.162   2.490   1.736
45597W        W13815  17.273  41.764   2.289
45598W        W13816  39.582  32.657   2.342
45599W        W13817   0.810  37.392  11.287
45600W        W13818  21.446  13.538   2.337
45601W        W13819  32.930  22.428   2.454
45602W        W13820  14.785  23.441  14.542
45603W        W13821   1.361  20.808   1.347
45604W        W13822   1.779  15.994  11.139
45605W        W13823  29.111  22.411  14.999
45606W        W13824  41.816  27.160   1.894
45607W        W13825  32.717  39.466   1.755
45608W        W13826  11.154  14.721   3.835
45609W        W13827  33.827  37.148  10.701
45610W        W13828   2.059   3.643  12.987
45611W        W13829  15.273  11.357  13.524
45612W        W13830  16.048   5.855  10.760
45613W        W13831  11.803   1.751   2.548
45614W        W13832  18.567   8.703  11.181
45615W        W13833  26.709   9.847   1.457
45616W        W13834  39.748   8.182   3.553
45617W        W13835  16.595   4.823   1.795
45618W        W13836  33.646  16.788  13.077
45619W        W13837  31.160   5.368  14.462
45620W        W13838  17.809  13.375  14.429
45621W        W13839   2.377  24.131  12.146
45622W        W13840  39.961  17.227   2.014
45623W        W13841  11.254   0.133   5.022
45624W        W13842  20.279   2.446   0.318
45625W        W13843  44.081  14.162   4.866
45626W        W13844  15.805  17.123  11.460
45627W        W13845  23.025   5.681  12.352
45628W        W13846  25.969  10.862   0.874
45629W        W13847   4.483  26.448  11.638
45630W        W13848  39.855  16.057  14.904
45631W        W13849  41.021   9.666  13.990
45632W        W13850  11.524  25.238  10.772
45633W        W13851   0.040   8.334  11.552
45634W        W13852   5.342  38.294  14.971
45635W        W13853  11.330  34.605   3.711
45636W        W13854   1.943   5.133  12.138
45637W        W13855  39.811  38.461  10.745
45638W        W13856  20.001  21.222   0.309
45639W        W13857   9.418  35.897   4.319
45640W        W13858  14.075   0.902  11.725
45641W        W13859  23.071  39.305  12.917
45642W        W13860   0.422  17.585  14.449
45643W        W13861  26.399  15.211  11.052
45644W        W13862  39.420  15.246   3.168
45645W        W13863  40.040  27.039  14.426
45646W        W13864  18.513   9.781  13.941
45647W        W13865  36.037  12.034  13.543
45648W        W13866  40.349  43.522   1.241
45649W        W13867  18.705   7.685  11.233
45650W        W13868  12.432  31.405  14.553
45651W        W13869  43.956  16.191  13.731
45652W        W13870  12.394  15.826  13.800
45653W        W13871  35.043   9.449  10.596
45654W        W13872  23.572  19.313  13.033
45655W        W13873  19.526  20.218  12.004
45656W        W13874  13.220  28.687  12.598
45657W        W13875  43.273  16.528  13.801
45658W        W13876  33.059  16.870   1.536
45659W        W13877  34.123  31.488  10.640
45660W        W13878  11.932  18.494   1.842
45661W        W13879  11.219  22.067  13.791
45662W        W13880   9.181  35.536  12.846
45663W        W13881   3.250  33.657   1.747
45664W        W13882  37.912  18.966  12.276
45665W        W13883  38.649  31.088   1.454
45666W        W13884   5.211  39.464   2.055
45667W        W13885  12.217  28.185  10.538
45668W        W13886  41.630  31.591   2.350
45669W        W13887  12.125  39.019  12.027
45670W        W13888  28.827   3.951  10.972
45671W        W13889  34.433  22.978   0.328
45672W        W13890  25.758  22.978   4.195
45673W        W13891   1.285  41.937   1.691
45674W        W13892  26.429  10.572   1.722
45675W        W13893   8.448  13.228   2.286
45676W        W13894  26.882  35.953  13.464
45677W        W13895  10.901   0.983   4.132
45678W        W13896  34.051  35.146   0.055
45679W        W13897   9.250  32.854  13.531
45680W        W13898   2.819  15.943  11.221
45681W        W13899  31.108   8.204   4.221
45682W        W13900  22.614  37.812  11.593
45683W        W13901  40.040  14.254  10.491
45684W        W13902  28.220  18.125  10.622
45685W        W13903  41.610   6.652  10.740
45686W        W13904  14.094  33.418  10.904
45687W        W13905  41.023  35.099  12.622
45688W        W13906  36.136  25.148   2.327
45689W        W13907  35.489  41.864   2.251
45690W        W13908  29.458  26.544  12.813
45691W        W13909   7.169  44.017  10.196
45692W        W13910  26.586  32.984   4.393
45693W        W13911  11.213  38.813   4.893
45694W        W13912  22.166  20.518  10.889
45695W        W13913  21.479  32.429   3.566
45696W        W13914  35.404   3.631  13.783
45697W        W13915  18.897  18.567  14.393
45698W        W13916   8.285   9.712  14.996
45699W        W13917  33.551  22.646   4.063
45700W        W13918  11.212  12.422  14.870
45701W        W13919  26.237  28.894  11.544
45702W        W13920  30.053  36.629  12.654
45703W        W13921  17.175  25.565  14.422
45704W        W13922  36.527  24.937  12.324
45705W        W13923  34.915  23.359   2.026
45706W        W13924  12.742   6.788   1.731
45707W        W13925  14.788   7.681   3.323
45708W        W13926  28.666   1.912   0.954
45709W        W13927  41.462  38.913   4.562
45710W        W13928   8.899  41.368  10.710
45711W        W13929  27.069  17.658  14.221
45712W        W13930  43.764  25.153  11.957
45713W        W13931  14.622  33.575  11.653
45714W        W13932  39.802  14.091   1.299
45715W        W13933   1.374  16.160   1.979
45716W        W13934  11.335  32.215  12.493
45717W        W13935  14.004  19.675  14.246
45718W        W13936   3.930  21.435   1.656
45719W        W13937  34.913  24.518   2.304
45720W        W13938  12.643   2.957   4.638
45721W        W13939  24.091  36.478   1.910
45722W        W13940  40.973  42.802   0.396
45723W        W13941  13.804  41.999  11.115
45724W        W13942  22.395  42.053  12.432
45725W        W13943  20.986   1.687   2.831
45726W        W13944   7.869  35.812   0.224
45727W        W13945  20.834  27.492  11.206
45728W        W13946  27.964  16.082   4.070
45729W        W13947  39.336   7.753   2.343
45730W        W13948  43.872  15.665  14.769
45731W        W13949  19.507  29.156   3.376
45732W        W13950   3.708  35.968  12.870
45733W        W13951  25.091  38.906  12.482
45734W        W13952  24.754  23.587   3.565
45735W        W13953   6.021  44.970   5.003
45736W        W13954  31.442  29.944  13.323
45737W        W13955  21.115  17.815   0.334
45738W        W13956   5.626  21.002   2.390
45739W        W13957  20.224  15.076   5.425
45740W        W13958   4.351   5.757  13.631
45741W        W13959  35.113  31.186   1.782
45742W        W13960  26.047   2.238  14.330
45743W        W13961  44.948   7.383  12.912
45744W        W13962  29.672  18.008  13.841
45745W        W13963   9.191  28.723   3.576
45746W        W13964   4.147  11.182   2.780
45747W        W13965  23.427  21.734   3.637
45748W        W13966  17.787  28.945   1.662
45749W        W13967  15.782  20.548  13.050
45750W        W13968   8.873   8.825   3.664
45751W        W13969   1.005  33.536   2.563
45752W        W13970  18.612  34.747   2.587
45753W        W13971  33.851  10.918   2.899
45754W        W13972  26.641  35.566   3.784
45755W        W13973  38.009  22.146   2.746
45756W        W13974  35.420   9.314   3.291
45757W        W13975   3.538   7.891   3.036
45758W        W13976   1.848   2.253  10.722
45759W        W13977   9.457  31.839   2.395
45760W        W13978   8.728   4.475   2.728
45761W        W13979  13.181  13.585   3.797
45762W        W13980  15.277   4.857  11.118
45763W        W13981  37.596   6.760  12.455
45764W        W13982  13.817   6.182   3.161
45765W        W13983  42.134  43.471  12.379
45766W        W13984  13.224  20.055  14.856
45767W        W13985   6.353  22.600  12.051
45768W        W13986  17.178  19.228  12.798
45769W        W13987  10.881  38.379  12.413
45770W        W13988   9.250  24.627  12.025
45771W        W13989  30.021  33.905  11.597
45772W        W13990  41.925  25.736  11.440
45773W        W13991  24.811  39.274  10.942
45774W        W13992  36.841  10.679  12.044
45775W        W13993  16.907  35.651   1.830
45776W        W13994  10.238  35.203   1.770
45777W        W13995   1.376  30.748   2.474
45778W        W13996  44.998  21.760  14.023
45779W        W13997  19.326  23.514  11.098
45780W        W13998  20.125  21.315  12.906
45781W        W13999  17.959  34.716  12.647
45782W        W14000   5.823  31.650   0.747
45783W        W14001   7.991  10.804   4.114
45784W        W14002   7.180  17.176  11.382
45785W        W14003  14.225  34.567  12.116
45786W        W14004  38.855   0.209   3.150
45787W        W14005  34.549   2.461  11.543
45788W        W14006   3.064   4.705  14.445
45789W        W14007  44.457  44.409  11.184
45790W        W14008  22.805  11.270   3.313
45791W        W14009  21.982  14.656  12.166
45792W        W14010   3.823  13.255  12.107
45793W        W14011  20.278  37.971   4.882
45794W        W14012  34.037  33.472  12.069
45795W        W14013  27.286  26.924   2.318
45796W        W14014  20.787   3.896   0.030
45797W        W14015  35.977  34.993  11.485
45798W        W14016  26.036  14.715   0.547
45799W        W14017   1.523   3.207   1.811
45800W        W14018   2.397   3.794   0.907
45801W        W14019  40.430  44.503   4.487
45802W        W14020  22.405   3.540  11.570
45803W        W14021  25.019  26.588  14.270
45804W        W14022  39.003   3.273   0.292
45805W        W14023  38.207  36.828  13.805
45806W        W14024  23.397   0.271   2.404
45807W        W14025   4.130  25.102  10.324
45808W        W14026  22.006   1.885  13.324
45809W        W14027   7.080  12.643   3.319
45810W        W14028  39.823  25.050   0.934
45811W        W14029  11.665   8.060  13.842
45812W        W14030  18.573  23.295  12.332
45813W        W14031  24.001  35.911   3.597
45814W        W14032   2.244  39.082   1.895
45815W        W14033  42.045  31.656  11.950
45816W        W14034  13.488  27.782  10.475
45817W        W14035  12.353  30.399   1.908
45818W        W14036  40.111  15.663  13.390
45819W        W14037  15.185  28.445  12.507
45820W        W14038  18.657  21.590   0.954
45821W        W14039  30.615  29.945  11.306
45822W        W14040  17.063  28.100   3.722
45823W        W14041   2.329  20.067  11.608
45824W        W14042  37.458   6.363  12.188
45825W        W14043  20.056  23.941   1.808
45826W        W14044   2.777  40.639  14.647
45827W        W14045  11.106   0.922   0.270
45828W        W14046  20.568  31.454   2.849
45829W        W14047  32.792  25.971  10.888
45830W        W14048  23.692  10.349  14.503
45831W        W14049  39.278   5.339   2.926
45832W        W14050  40.758  29.048   0.813
45833W        W14051  18.204  16.323  12.980
45834W        W14052  30.777  11.419  13.362
45835W        W14053  34.365  24.634  10.721
45836W        W14054   1.928  39.512   2.866
45837W        W14055  15.146  17.996  12.065
45838W        W14056  42.852  12.441   4.086
45839W        W14057  36.384  20.889   4.586
45840W        W14058  17.832  21.612  11.370
45841W        W14059  12.455  37.356  12.480
45842W        W14060  37.293  23.189  11.966
45843W        W14061  36.398  39.078  14.979
45844W        W14062   0.871  34.797   0.396
45845W        W14063  22.063  15.723   0.066
45846W        W14064  33.838   5.140  11.841
45847W        W14065  13.283  28.946  12.147
45848W        W14066  25.918  21.755  12.476
45849W        W14067  22.025  21.175  11.874
45850W        W14068  16.771  37.734  11.013
45851W        W14069  43.574  36.222   0.202
45852W        W14070  18.179  34.921  12.237
45853W        W14071   0.469  13.923   0.190
45854W        W14072   5.648  14.040  14.513
45855W        W14073  33.412  37.676  12.005
45856W        W14074  16.057  38.997  14.938
45857W        W14075   2.995  29.592   2.842
45858W        W14076  39.382   6.765   0.802
45859W        W14077  18.275  40.317   2.007
45860W        W14078  43.825   7.763  14.144
45861W        W14079  35.072   8.156  11.539
45862W        W14080  23.435   9.165   4.553
45863W        W14081  26.833  40.737   4.660
45864W        W14082  11.583  35.270   0.392
45865W        W14083   0.819  35.933  12.891
45866W        W14084  23.604  41.926  14.936
45867W        W14085  24.715  12.321  14.797
45868W        W14086  28.711  17.421   0.270
45869W        W14087  25.245  15.803   1.220
45870W        W14088   5.121  30.496   4.379
45871W        W14089  40.895  28.263  14.420
45872W        W14090   0.688  26.008  10.683
45873W        W14091  25.136  18.114  14.858
45874W        W14092   5.913  14.166  14.050
45875W        W14093  29.639  18.345   3.565
45876W        W14094  39.545  34.024   3.758
45877W        W14095   3.243  14.684  12.837
45878W        W14096   4.743   6.962   3.229
45879W        W14097  16.276  43.045  11.667
45880W        W14098  14.266  22.836  13.095
45881W        W14099  31.414   7.187   2.403
45882W        W14100   1.003  39.580   2.766
45883W        W14101  17.517  21.634  10.402
45884W        W14102  27.384  37.400   5.031
45885W        W14103  40.026   8.377   3.185
45886W        W14104   0.737  21.645   4.690
45887W        W14105  32.937  13.848   4.533
45888W        W14106   5.512   1.012   0.333
45889W        W14107  40.905  21.758  12.031
45890W        W14108  27.298  39.457  12.896
45891W        W14109  11.895  24.052   3.476
45892W        W14110  26.976  35.781  11.688
45893W        W14111  19.026  37.011   1.850
45894W        W14112  38.953  37.103  11.420
45895W        W14113  30.791  32.585   0.801
45896W        W14114  40.668  17.818   2.599
45897W        W14115  40.995  28.512  14.875
45898W        W14116  30.874  35.862   2.777
45899W        W14117  40.786  23.773   2.832
45900W        W14118   1.400   2.635  11.529
45901W        W14119  27.544  25.753  12.090
45902W        W14120  23.608  14.866   2.220
45903W        W14121  39.278  18.313  14.902
45904W        W14122  37.418   5.919   2.162
45905W        W14123  33.798  16.281   3.749
45906W        W14124  26.646  12.601  13.066
45907W        W14125  23.017  35.861   2.412
45908W        W14126   0.678  24.800  14.308
45909W        W14127   3.323  11.750   1.116
45910W        W14128  41.021  24.126   1.405
45911W        W14129  32.381  33.638  11.245
45912W        W14130   5.757  11.000   1.585
45913W        W14131  13.936  36.315   2.696
45914W        W14132  30.586  22.219   0.232
45915W        W14133  16.028  22.142   0.794
45916W        W14134  14.688  31.507   3.395
45917W        W14135  19.851  13.215   1.751
45918W        W14136  32.829   3.219   4.884
45919W        W14137  35.135  41.003  11.935
45920W        W14138  15.786  19.596  14.835
45921W        W14139  33.567  33.689   2.742
45922W        W14140  38.411  44.885  10.426
45923W        W14141   0.493  43.495  11.906
45924W        W14142  32.089   0.213  10.768
45925W        W14143  11.597  44.123   5.532
45926W        W14144   3.379  25.459   3.087
45927W        W14145  31.846  23.505  11.084
45928W        W14146   8.315  41.492  13.775
45929W        W14147   7.894  17.954  12.419
45930W        W14148  31.307  28.265  10.030
45931W        W14149  33.319  10.380  13.134
45932W        W14150  18.651  16.373  10.128
45933W        W14151  11.680   2.255  14.420
45934W        W14152  41.554  31.858  14.752
45935W        W14153  16.746   9.236   0.001
45936W        W14154  44.880   3.529  11.361
45937W        W14155   9.100  17.219  12.013
45938W        W14156  17.466  42.456  13.123
45939W        W14157  26.063   6.201  13.367
45940W        W14158  13.907  36.486  13.151
45941W        W14159   2.477  19.110   1.275
45942W        W14160  17.614  31.820   0.204
45943W        W14161   7.347  13.330   1.204
45944W        W14162  39.370   0.176   1.449
45945W        W14163  33.527  29.430  13.601
45946W        W14164  14.786  44.589  12.949
45947W        W14165  30.429  41.961  14.536
45948W        W14166  25.600  37.985  14.469
45949W        W14167  42.595   1.728  10.715
45950W        W14168  44.266  37.600  11.215
45951W        W14169  10.361  39.459  11.928
45952W        W14170  32.001  21.220  12.994
45953W        W14171  44.941  36.770  12.540
45954W        W14172   7.865  14.314  12.572
45955W        W14173  17.363  42.752  13.542
45956W        W14174  19.644   3.554  14.094
45957W        W14175   2.803  20.529   2.307
45958W        W14176  11.433  33.066  11.108
45959W        W14177  22.572  38.519   3.391
45960W        W14178   9.852  10.142   0.320
45961W        W14179   8.108  25.498  10.635
45962W        W14180  33.181  19.992   2.345
45963W        W14181  35.866  12.813   4.210
45964W        W14182  26.001  43.380   4.258
45965W        W14183   3.517   4.861  14.291
45966W        W14184   7.760   5.272   1.446
45967W        W14185  43.325  44.968  11.949
45968W        W14186  11.241  19.797  12.523
45969W        W14187  30.712   6.832   0.753
45970W        W14188  18.212   8.141  12.640
45971W        W14189  16.188   2.483  14.866
45972W        W14190  34.359   8.431   2.719
45973W        W14191  10.794  38.904  13.122
45974W        W14192  26.988  13.374   3.499
45975W        W14193  13.930  44.878   1.440
45976W        W14194  22.321  44.301   3.266
45977W        W14195  27.933  19.788   1.465
45978W        W14196  14.622  37.486   2.799
45979W        W14197  21.222  36.899  14.811
45980W        W14198  24.145  14.243   5.052
45981W        W14199   1.503  35.842  14.360
45982W        W14200   7.912  26.775  11.616
45983W        W14201  15.839  27.890  12.817
45984W        W14202   9.281  32.922  10.699
45985W        W14203  31.364   3.365  13.395
45986W        W14204   5.185  18.699  14.138
45987W        W14205  14.480  19.770  10.323
45988W        W14206  39.246  34.550  10.870
45989W        W14207  27.151  32.559  12.018
45990W        W14208   5.299  31.379  10.734
45991W        W14209  21.703   5.817  13.034
45992W        W14210  22.572   9.799   1.816
45993W        W14211  27.202  30.085   1.488
45994W        W14212   5.255  32.330   3.372
45995W        W14213   9.695  12.287   4.592
45996W        W14214  34.224  24.842  11.684
45997W        W14215  26.367  15.303   4.228
45998W        W14216   9.399  27.163  12.006
45999W        W14217  35.114  16.176   2.612
46000W        W14218  21.099   1.244  12.417
46001W        W14219  27.906  24.575   1.518
46002W        W14220  31.950  11.293  12.202
46003W        W14221  41.091  40.900   1.049
46004W        W14222   0.859  42.389   2.656
46005W        W14223  22.540  38.666   1.503
46006W        W14224  28.453  14.587  13.354
46007W        W14225  41.911  13.231  14.764
46008W        W14226  41.826  12.338  12.439
46009W        W14227  21.285  40.500  13.064
46010W        W14228  25.282  37.902  12.104
46011W        W14229   3.459  37.535   1.929
46012W        W14230  25.140  39.502  11.291
46013W        W14231  12.247  15.378  12.149
46014W        W14232   0.361   2.878   2.665
46015W        W14233  33.209  28.920   1.338
46016W        W14234  17.339  43.211   1.135
46017W        W14235  36.331  22.180  13.567
46018W        W14236  36.415  13.103  10.745
46019W        W14237   5.142  33.948   0.489
46020W        W14238  30.996  26.095   3.524
46021W        W14239  10.749  42.410  12.002
46022W        W14240   3.728   8.763  13.891
46023W        W14241  21.216   0.323   2.195
46024W        W14242   3.505   1.210   2.666
46025W        W14243  21.708  10.208   1.449
46026W        W14244  20.144  15.288   2.350
46027W        W14245   3.247   3.042   4.765
46028W        W14246  17.134  21.442   4.609
46029W        W14247  28.674  23.777  12.548
46030W        W14248  26.141  27.252   1.288
46031W        W14249  24.986   3.331   3.757
46032W        W14250   1.961  26.453  14.379
46033W        W14251  42.103  42.616  12.472
46034W        W14252  31.033  31.503  14.012
46035W        W14253  18.361  26.214  11.035
46036W        W14254  12.101  38.516   2.411
46037W        W14255  26.696  32.099   2.485
46038W        W14256   9.622  39.364   4.573
46039W        W14257   6.368  12.249   2.254
46040W        W14258  41.864   6.912   3.839
46041W        W14259   3.907  39.404   1.463
46042W        W14260  24.212  17.611  13.382
46043W        W14261  16.062  20.533  12.584
46044W        W14262  23.281   4.732   4.111
46045W        W14263  20.853   4.416  14.053
46046W        W14264  16.713  35.864   0.770
46047W        W14265  43.352  27.188  13.442
46048W        W14266  18.846  17.145  12.092
46049W        W14267   3.855  37.341   3.575
46050W        W14268  35.664  23.072   3.150
46051W        W14269  22.811  26.626   2.536
46052W        W14270   6.763  35.392   1.038
46053W        W14271  24.151  11.832  12.442
46054W        W14272  30.140  25.127   0.477
46055W        W14273  34.549  26.578  13.820
46056W        W14274  21.198  39.150   1.298
46057W        W14275  27.119  38.337   1.805
46058W        W14276  33.635   3.546   0.283
46059W        W14277   8.570  15.079  11.219
46060W        W14278  28.287  13.221   5.039
46061W        W14279   0.353  21.847   2.281
46062W        W14280   7.170  39.369   2.466
46063W        W14281  14.050  11.161  13.435
46064W        W14282   3.737   4.973  13.846
46065W        W14283  39.967  30.628   1.844
46066W        W14284  17.607  35.585  12.481
46067W        W14285  27.782  30.527  11.933
46068W        W14286  14.452  15.101  13.318
46069W        W14287  11.603  16.199   2.225
46070W        W14288  41.262  24.168  13.604
46071W        W14289  32.551   6.329   2.947
46072W        W14290  13.254  13.773   2.408
46073W        W14291  13.568  40.996  14.780
46074W        W14292  29.478  39.366   0.194
46075W        W14293  13.801  38.397  10.992
46076W        W14294  30.250  14.156   0.463
46077W        W14295  35.584  28.061   2.671
46078W        W14296  17.402  33.477   4.540
46079W        W14297  23.879  28.512  14.519
46080W        W14298  19.805  11.288   4.689
46081W        W14299  15.610  34.895   1.791
46082W        W14300  39.374   2.961   4.111
46083W        W14301   5.847  20.770  11.138
46084W        W14302   3.672  43.910   2.662
46085W        W14303  34.073  28.996  12.523
46086W        W14304   7.743   9.206   2.372
46087W        W14305  25.782   6.957   5.025
46088W        W14306  32.955   3.251  14.856
46089W        W14307  44.601  16.194   2.527
46090W        W14308  28.129  10.435   3.812
46091W        W14309  21.549  21.518  14.482
46092W        W14310  23.519  23.590   4.198
46093W        W14311  16.626  39.241  11.010
46094W        W14312  40.523  21.044   4.721
46095W        W14313  13.263  30.066   3.127
46096W        W14314  42.538  14.805  12.524
46097W        W14315   4.215   0.245   1.341
46098W        W14316  22.605   2.075  10.703
46099W        W14317  30.992  36.678   2.327
46100W        W14318  34.485   1.799  13.421
46101W        W14319  21.274  13.157   3.129
46102W        W14320   0.794  31.025  12.093
46103W        W14321  42.205  11.445   2.692
46104W        W14322  29.039  33.957   0.885
46105W        W14323  36.982  31.400   0.955
46106W        W14324  27.383  40.198  11.535
46107W        W14325  21.245  37.794  11.470
46108W        W14326  19.754   8.663  12.539
46109W        W14327  23.567   2.348  12.184
46110W        W14328  22.484  15.276   4.313
46111W        W14329  20.327  28.475   3.794
46112W        W14330  35.035  11.065  12.700
46113W        W14331  43.285  38.462  11.229
46114W        W14332  21.300   9.688  11.100
46115W        W14333  31.390   1.525  11.147
46116W        W14334   2.156  30.861   1.368
46117W        W14335  33.069  18.056   2.713
46118W        W14336  22.924  32.856   3.091
46119W        W14337   2.148  37.081  11.105
46120W        W14338  21.699  32.771   4.350
46121W        W14339   3.430  43.656  14.459
46122W        W14340  35.896   6.939   2.696
46123W        W14341   5.424  17.864  11.874
46124W        W14342  21.675  22.591  12.484
46125W        W14343  42.426  44.216  12.847
46126W        W14344  31.177  35.387  12.585
46127W        W14345  40.806  39.315   3.960
46128W        W14346  25.112  37.782  14.387
46129W        W14347   8.003   0.007   2.255
46130W        W14348  13.863   2.957   4.049
46131W        W14349  10.650  23.995  12.344
46132W        W14350  15.230  33.870  13.477
46133W        W14351  17.227   6.471   0.935
46134W        W14352  16.560  17.665   0.273
46135W        W14353  19.499   3.315  12.085
46136W        W14354  14.131  35.941  14.003
46137W        W14355   3.941  18.016  12.788
46138W        W14356  38.568   8.901   4.572
46139W        W14357   1.619  12.149  10.965
46140W        W14358  11.871   4.229   1.281
46141W        W14359   2.639  33.565  12.222
46142W        W14360  14.204   2.604  14.201
46143W        W14361  18.015   9.824  13.789
46144W        W14362  36.915   9.769   0.398
46145W        W14363  23.519   8.171  12.316
46146W        W14364  21.483  10.035  13.986
46147W        W14365  35.414  27.518  14.890
46148W        W14366  41.867  32.947   2.719
46149W        W14367  19.740  24.592  11.910
46150W        W14368  38.976   1.971  11.385
46151W        W14369   5.381  33.677   3.764
46152W        W14370   7.495  25.165  12.564
46153W        W14371  41.508  41.871  11.479
46154W        W14372  31.286  29.143   0.320
46155W        W14373  40.432  33.554  14.028
46156W        W14374  31.335   1.845  10.764
46157W        W14375  41.416  25.636  14.934
46158W        W14376  43.833  33.103   1.185
46159W        W14377  19.815  23.656  11.184
46160W        W14378  11.680  43.842   3.066
46161W        W14379  41.389  39.008  10.785
46162W        W14380  10.856  10.876  12.358
46163W        W14381  15.815  19.380  10.404
46164W        W14382  30.887  14.276   4.887
46165W        W14383  39.787  16.323  14.463
46166W        W14384   7.889  13.953  11.595
46167W        W14385  26.078  10.676  10.693
46168W        W14386  41.475  14.560   2.400
46169W        W14387   0.333   7.677  10.590
46170W        W14388  10.382  21.006  13.657
46171W        W14389  33.203   8.128   0.958
46172W        W14390  11.072  24.288   3.607
46173W        W14391  41.748  23.105   0.314
46174W        W14392  31.744  18.254  10.562
46175W        W14393  36.423  15.555   4.581
46176W        W14394  35.951  43.384   3.251
46177W        W14395  15.082  27.077   3.477
46178W        W14396  36.332  36.899   1.692
46179W        W14397  29.448   0.015  13.290
46180W        W14398  29.893   5.100  12.936
46181W        W14399  23.453  36.098   1.113
46182W        W14400  36.364   3.914  12.401
46183W        W14401   5.383  37.040   4.598
46184W        W14402   1.987  22.178  14.944
46185W        W14403  27.354   7.326  13.021
46186W        W14404  27.371  44.067  11.170
46187W        W14405  17.490  18.676  11.105
46188W        W14406  35.994  26.829  12.213
46189W        W14407  23.204  14.403  12.648
46190W        W14408  39.919  41.779  11.114
46191W        W14409  30.491  22.171   1.757
46192W        W14410  39.736  39.059  13.140
46193W        W14411  36.586  10.428  10.992
46194W        W14412   0.731  14.327  13.455
46195W        W14413  37.743  34.357  10.949
46196W        W14414  12.172   9.718   1.341
46197W        W14415  35.637  38.293  12.009
46198W        W14416  25.959  17.338  11.598
46199W        W14417   1.400  19.692  14.847
46200W        W14418   0.895  10.948   2.708
46201W        W14419   0.739   0.268  10.211
46202W        W14420  19.588  19.199  12.611
46203W        W14421   9.653  32.626  13.762
46204W        W14422  20.677   6.010   4.772
46205W        W14423  11.436  32.578   4.614
46206W        W14424  20.792  14.799  13.011
46207W        W14425  27.390  30.845  12.118
46208W        W14426  16.735  37.959  11.474
46209W        W14427  25.154  40.822   3.777
46210W        W14428  35.989  20.600  13.986
46211W        W14429  38.065  12.338   3.181
46212W        W14430  35.124  29.125  10.735
46213W        W14431  44.076  22.125  14.045
46214W        W14432  24.526  28.684  10.968
46215W        W14433  21.171  33.551   0.558
46216W        W14434  26.606   9.247  10.507
46217W        W14435  38.414  39.895  14.834
46218W        W14436  15.707   7.380   1.691
46219W        W14437  21.500  33.093   0.512
46220W        W14438  15.270  19.579   2.309
46221W        W14439  18.579  44.214   4.110
46222W        W14440  18.720  18.069   3.970
46223W        W14441  26.106  29.308   1.919
46224W        W14442  44.193   3.113   4.152
46225W        W14443  41.880  39.757  10.834
46226W        W14444  11.416   4.164   4.811
46227W        W14445   7.782  26.513  12.803
46228W        W14446  25.063  35.157   0.046
46229W        W14447  27.601   5.439   3.217
46230W        W14448  10.605  21.151  13.101
46231W        W14449  31.261  31.202   4.346
46232W        W14450   8.762   3.937   3.828
46233W        W14451   8.117  11.788   1.290
46234W        W14452   9.608  30.668   4.955
46235W        W14453  43.770  19.174  10.959
46236W        W14454  39.860   5.036  12.789
46237W        W14455  43.892  33.907   2.206
46238W        W14456   0.046  29.744   2.856
46239W        W14457  20.741  13.522   1.744
46240W        W14458   5.184  25.675   4.247
46241W        W14459  16.009  17.315   4.073
46242W        W14460  32.657  23.098  12.123
46243W        W14461  14.329   7.169  12.973
46244W        W14462  31.349   7.266  14.798
46245W        W14463  44.724  42.957  11.503
46246W        W14464  19.177   3.801   2.388
46247W        W14465   2.929  43.964   3.728
46248W        W14466  43.108  23.079  13.007
46249W        W14467  25.481  21.141  13.210
46250W        W14468   1.168  15.620  11.911
46251W        W14469   0.829  43.564   4.064
46252W        W14470  24.452  20.546  13.900
46253W        W14471  35.884   3.374  10.133
46254W        W14472   6.798  39.756   1.341
46255W        W14473   8.313  17.154  10.749
46256W        W14474  18.891  10.187  13.839
46257W        W14475  41.381   2.904   5.297
46258W        W14476  15.183   3.832  10.883
46259W        W14477   8.207  39.278   3.576
46260W        W14478  12.134   7.442  11.172
46261W        W14479  13.192  30.222  10.801
46262W        W14480  13.413  34.731   2.146
46263W        W14481  36.916  36.642   4.375
46264W        W14482  16.377   0.973  13.898
46265W        W14483   3.629  31.668   2.231
46266W        W14484  35.040  16.583  10.643
46267W        W14485  12.240  42.276   3.241
46268W        W14486   7.648  41.793  11.986
46269W        W14487  41.036  17.120  11.097
46270W        W14488  37.208  27.475  12.802
46271W        W14489  43.487  44.520  11.137
46272W        W14490   8.712  28.537  10.422
46273W        W14491  19.998  19.450  13.480
46274W        W14492  33.635   7.835  10.526
46275W        W14493  26.572   0.846   4.210
46276W        W14494  40.357  43.100   3.552
46277W        W14495  19.071  15.101  12.966
46278W        W14496  27.845  43.714  12.047
46279W        W14497  23.836  28.899  13.343
46280W        W14498  14.790  42.761  10.470
46281W        W14499  10.595  38.753  12.131
46282W        W14500  36.874   9.294   3.231
46283W        W14501  36.044  38.633  12.196
46284W        W14502   8.178  37.542  14.841
46285W        W14503  13.763   1.961   0.741
46286W        W14504  21.572  16.293  13.010
46287W        W14505   4.369   8.888   2.417
46288W        W14506  21.513  43.740   1.905
46289W        W14507  38.587   3.935  12.391
46290W        W14508  19.860  27.665  12.972
46291W        W14509  43.270   4.177  11.159
46292W        W14510   2.635  23.651  14.471
46293W        W14511  40.343  20.935   1.201
46294W        W14512   7.726  13.160  11.163
46295W        W14513  26.715   3.231   4.214
46296W        W14514  27.485  13.246  14.857
46297W        W14515  22.460   2.779   3.815
46298W        W14516  33.463   9.802  11.336
46299W        W14517  44.117  31.654   0.452
46300W        W14518  30.596  12.729   2.330
46301W        W14519  14.707  38.317   3.319
46302W        W14520   1.280  10.419   2.344
46303W        W14521   3.492  20.032  14.145
46304W        W14522   9.065   7.202   4.262
46305W        W14523  14.378  14.650  12.606
46306W        W14524  33.401  42.770   2.158
46307W        W14525  31.445  12.381   2.434
46308W        W14526   2.634  26.544   0.380
46309W        W14527  24.533  41.096  13.073
46310W        W14528  40.464   7.962  10.872
46311W        W14529  30.357  42.526   4.514
46312W        W14530  30.611   9.385  12.943
46313W        W14531  21.148  14.683  13.379
46314W        W14532  10.649  15.844  11.877
46315W        W14533   6.513  37.230   0.941
46316W        W14534  35.772  22.589  14.807
46317W        W14535   5.381   6.839   0.488
46318W        W14536   4.867  31.402   1.138
46319W        W14537  30.301  33.882   3.281
46320W        W14538  35.328  37.425  13.873
46321W        W14539  21.646  16.182   4.500
46322W        W14540   8.434   9.400   4.543
46323W        W14541  33.994   2.620  11.520
46324W        W14542  43.859  27.121   2.132
46325W        W14543  42.059   0.235   4.089
46326W        W14544  13.719  40.624  11.594
46327W        W14545   5.693  39.974  12.426
46328W        W14546  43.827   7.363  13.405
46329W        W14547   8.929   4.745  12.988
46330W        W14548  31.016   4.520   1.897
46331W        W14549   6.413   6.310  13.576
46332W        W14550  18.996   7.405   4.095
46333W        W14551   1.455  24.932  12.993
46334W        W14552  23.764  21.967  12.435
46335W        W14553  43.716  38.427  11.557
46336W        W14554  11.693   7.677  13.469
46337W        W14555  24.072  35.119   1.344
46338W        W14556  35.569  38.339  10.628
46339W        W14557   7.549  27.174  10.915
46340W        W14558  16.165  40.157  12.821
46341W        W14559  42.482  10.685   2.449
46342W        W14560  10.865  13.837   3.469
46343W        W14561  27.555   0.514  11.959
46344W        W14562  24.672   8.108  11.016
46345W        W14563  36.722   8.917   1.870
46346W        W14564  37.865   3.791   2.731
46347W        W14565  24.143  41.851  13.733
46348W        W14566  44.717  42.734   2.334
46349W        W14567  42.018  25.145  10.589
46350W        W14568  25.385  31.871   0.430
46351W        W14569  44.405  37.009  12.046
46352W        W14570  16.189  14.295  11.120
46353W        W14571  44.264  15.838   1.058
46354W        W14572   6.463  25.074  12.551
46355W        W14573  14.064  29.970   0.283
46356W        W14574  27.231  42.999  11.478
46357W        W14575  29.880  22.256  10.465
46358W        W14576  41.090  28.879  11.053
46359W        W14577  17.034  11.055  11.127
46360W        W14578  15.441  28.723   2.156
46361W        W14579  28.433  34.890   3.775
46362W        W14580  12.141  44.441  10.120
46363W        W14581  39.062  33.944  10.765
46364W        W14582   8.156   6.985  13.508
46365W        W14583  32.374  38.972  11.588
46366W        W14584  34.165  31.500  13.075
46367W        W14585  27.114  43.746   4.133
46368W        W14586  18.955  13.629   0.350
46369W        W14587  15.791  15.583   2.816
46370W        W14588  40.515  22.611  14.405
46371W        W14589  38.600   4.978   0.164
46372W        W14590   6.802  23.255   0.886
46373W        W14591  43.055  29.737   4.566
46374W        W14592  39.049  40.812  12.614
46375W        W14593   2.131  35.480  13.425
46376W        W14594  42.920  39.407  13.617
46377W        W14595   1.225   4.976   1.324
46378W        W14596  21.259  28.480   1.228
46379W        W14597  43.312  27.701  13.420
46380W        W14598  24.501  39.971   1.813
46381W        W14599  27.938  21.242   1.434
46382W        W14600  12.097  44.170   3.060
46383W        W14601  34.919  29.217  12.954
46384W        W14602  40.760   5.226   1.012
46385W        W14603  35.899  19.241  12.764
46386W        W14604   3.377   5.555  11.627
46387W        W14605   4.438  11.331   2.359
46388W        W14606  17.405   0.262   1.940
46389W        W14607   8.103   5.651   4.210
46390W        W14608   9.817  26.930  11.124
46391W        W14609  31.617  38.928   3.268
46392W        W14610   6.153   2.014   1.306
46393W        W14611  17.098  27.446  12.577
46394W        W14612  29.615  35.969  10.867
46395W        W14613  28.530   3.197  11.589
46396W        W14614  31.880  35.087  12.052
46397W        W14615  16.030   3.391  13.793
46398W        W14616   1.516  10.730  14.280
46399W        W14617  19.673  27.505   4.600
46400W        W14618   1.914  27.621   2.953
46401W        W14619  15.173  13.719   0.293
46402W        W14620   7.438  36.145   1.841
46403W        W14621  44.014   6.808  13.905
46404W        W14622  11.315  28.799  11.519
46405W        W14623  24.730  29.365   0.432
46406W        W14624  25.512  36.895  11.887
46407W        W14625  17.154  17.270   3.238
46408W        W14626  44.592  31.070  12.492
46409W        W14627  38.838  10.910   4.124
46410W        W14628   2.278  16.532  11.847
46411W        W14629   6.302   7.230  12.491
46412W        W14630  25.608  35.825  14.958
46413W        W14631  37.294  27.225  13.391
46414W        W14632   0.423  43.258   4.180
46415W        W14633  33.061   3.017   2.399
46416W        W14634  28.458  19.295  12.801
46417W        W14635   8.613   0.461  10.585
46418W        W14636  17.636  26.697   4.542
46419W        W14637  44.697  41.556   4.089
46420W        W14638  44.494  13.853  14.030
46421W        W14639  32.509   1.657   2.904
46422W        W14640  37.078  29.554   3.086
46423W        W14641   7.853  35.325   2.865
46424W        W14642  20.772  31.469  14.335
46425W        W14643  26.497   4.335  14.248
46426W        W14644  10.573  34.485  10.517
46427W        W14645  28.632  33.630   0.951
46428W        W14646   1.515  37.535  10.588
46429W        W14647  30.515  22.400   3.481
46430W        W14648  23.653   6.337  14.637
46431W        W14649  16.353  13.768   2.740
46432W        W14650  29.182  30.019  11.619
46433W        W14651   0.610   4.965  11.953
46434W        W14652   7.930  16.102  14.866
46435W        W14653  30.666   2.501   4.568
46436W        W14654  35.555   5.390  13.378
46437W        W14655  33.454  25.942   1.325
46438W        W14656   9.399  18.318   1.435
46439W        W14657  13.146  27.938  12.135
46440W        W14658  15.038   1.309  13.402
46441W        W14659  38.024  21.172  13.489
46442W        W14660   4.141  12.847  14.396
46443W        W14661  20.486  24.474  14.014
46444W        W14662  20.609  33.070   0.920
46445W        W14663  41.832  20.662  12.379
46446W        W14664  19.578  10.185   4.546
46447W        W14665  36.803   3.378  10.343
46448W        W14666  30.175  27.658  11.977
46449W        W14667   5.149  27.159  11.906
46450W        W14668   4.190   7.221   1.405
46451W        W14669  29.124  25.043  13.408
46452W        W14670  37.941  36.006  11.761
46453W        W14671   2.164  22.368  13.996
46454W        W14672  44.494  22.723  13.941
46455W        W14673  28.105  42.411   2.377
46456W        W14674   3.238  44.501  10.743
46457W        W14675  14.847  24.589   0.886
46458W        W14676  36.294  37.518  12.869
46459W        W14677  20.114  44.937  14.233
46460W        W14678  15.062  37.918  10.650
46461W        W14679   3.213  41.666   2.299
46462W        W14680  25.561  29.510  11.680
46463W        W14681  33.393  18.043   4.535
46464W        W14682   4.387  21.778   1.180
46465W        W14683  36.192  25.908   1.905
46466W        W14684  42.321   8.967  13.231
46467W        W14685   2.782  37.826  10.838
46468W        W14686  42.585  27.798   2.160
46469W        W14687   6.395  23.639   3.744
46470W        W14688  24.036  33.629   4.757
46471W        W14689   7.889  10.651  10.710
46472W        W14690   8.350  21.080  14.216
46473W        W14691  15.260  34.400   1.971
46474W        W14692  39.107   2.823  14.412
46475W        W14693  35.218  12.645   4.752
46476W        W14694   4.601  26.592  10.793
46477W        W14695  37.013  19.595   0.582
46478W        W14696  34.019  43.455   4.373
46479W        W14697   9.938   9.100  10.628
46480W        W14698  27.741  35.383   2.186
46481W        W14699  25.607  39.580   4.658
46482W        W14700  21.490  38.352   2.249
46483W        W14701  25.491  29.116   3.651
46484W        W14702   4.756   0.587  11.178
46485W        W14703  41.950  39.306  11.599
46486W        W14704  34.854  28.845  14.861
46487W        W14705  36.943  37.865   3.656
46488W        W14706  29.893  22.652  11.971
46489W        W14707  10.209  33.471   2.911
46490W        W14708   1.349  23.576   1.869
46491W        W14709  17.374  26.094  11.862
46492W        W14710  36.550  39.096  10.991
46493W        W14711  37.591   4.578   3.633
46494W        W14712  13.074  21.857   1.901
46495W        W14713  26.573  34.470   4.998
46496W        W14714  29.736  24.886   3.187
46497W        W14715  12.740  23.995   3.252
46498W        W14716  15.768   7.443  14.738
46499W        W14717  35.290   6.826  13.397
46500W        W14718  35.828   0.446  10.812
46501W        W14719  32.390  39.569   1.343
46502W        W14720  41.220   4.496  10.681
46503W        W14721  16.704  24.087  11.531
46504W        W14722   1.379  31.575  13.479
46505W        W14723  10.625  11.727   2.357
46506W        W14724   8.688  25.944   1.219
46507W        W14725  40.433  25.444  13.933
46508W        W14726  44.518   3.601   1.948
46509W        W14727  37.809  20.160   2.317
46510W        W14728  17.072   6.123   2.290
46511W        W14729   3.953  30.952   4.203
46512W        W14730  29.335  40.824   4.072
46513W        W14731   0.509  19.736   3.708
46514W        W14732   5.746  24.293  14.393
46515W        W14733   6.790  40.578   4.647
46516W        W14734   5.182  27.734  11.013
46517W        W14735  40.866  14.856  11.549
46518W        W14736  42.465  39.066  10.959
46519W        W14737  32.339  43.502   3.278
46520W        W14738   7.363   2.943  11.195
46521W        W14739   9.401   1.159  13.891
46522W        W14740  30.401  24.946   1.296
46523W        W14741   9.832   5.028  11.566
46524W        W14742  25.130  24.481  10.733
46525W        W14743  20.206   3.424  10.710
46526W        W14744  42.435  18.965   2.760
46527W        W14745  11.425  38.365   0.929
46528W        W14746   1.286   8.928   0.343
46529W        W14747  14.818   6.812   3.629
46530W        W14748  38.343  40.790  14.689
46531W        W14749   6.245   2.187   3.665
46532W        W14750  29.064  44.283  11.966
46533W        W14751  27.069  31.348  10.609
46534W        W14752  24.792   0.484  14.414
46535W        W14753  31.511  33.623   3.920
46536W        W14754  37.051  38.495  10.631
46537W        W14755  41.397  35.199   1.544
46538W        W14756  28.884  19.578   1.609
46539W        W14757   5.614  28.010  10.922
46540W        W14758  20.583  30.098   3.954
46541W        W14759   2.202  28.088   0.008
46542W        W14760  42.026  36.391   1.524
46543W        W14761  41.775  34.766  10.043
46544W        W14762   0.355  33.491   4.433
46545W        W14763  13.968   0.593  13.575
46546W        W14764  16.262  11.581  14.619
46547W        W14765  25.344  26.483   0.286
46548W        W14766  38.089   5.335   0.775
46549W        W14767   0.068  22.273  13.969
46550W        W14768  40.428  12.063  14.699
46551W        W14769  34.554  34.805   3.021
46552W        W14770   7.505  11.905   1.598
46553W        W14771   9.632   9.854   2.309
46554W        W14772  26.216  12.437  12.826
46555W        W14773   6.911  44.560   3.724
46556W        W14774  31.650   0.810   4.185
46557W        W14775  17.808   9.708  13.325
46558W        W14776  11.087  38.093   1.908
46559W        W14777   4.158   8.817   2.880
46560W        W14778  13.683  23.963   0.327
46561W        W14779   2.734  20.036  14.989
46562W        W14780  43.750   0.966  12.023
46563W        W14781  33.921  44.535  12.426
46564W        W14782   6.409  35.058  10.708
46565W        W14783  39.264  19.639  10.958
46566W        W14784   6.418  31.847  14.837
46567W        W14785  33.232  39.165  14.949
46568W        W14786  41.295  31.507  12.401
46569W        W14787   0.784   0.880   1.045
46570W        W14788  21.461  13.891   0.366
46571W        W14789   0.255  39.611   1.265
46572W        W14790  30.952  18.947  14.976
46573W        W14791   6.396  44.553   3.719
46574W        W14792  40.526   8.640   3.298
46575W        W14793   6.417  32.190  14.452
46576W        W14794  14.857   6.014   4.153
46577W        W14795  22.458  37.126  10.997
46578W        W14796  13.941  24.713  10.815
46579W        W14797  30.243  15.630   2.355
46580W        W14798   9.238  34.201  13.111
46581W        W14799  35.193  36.881  14.513
46582W        W14800  20.784  36.990  13.533
46583W        W14801   2.877  26.504  14.322
46584W        W14802  22.350  41.229  13.172
46585W        W14803  12.382   4.272   4.812
46586W        W14804  34.354  37.474   0.670
46587W        W14805  11.607  16.557   3.767
46588W        W14806  27.865   4.759   4.918
46589W        W14807  44.421  13.722  12.134
46590W        W14808  12.159  32.344   4.135
46591W        W14809   8.903  28.947  10.695
46592W        W14810  38.082  26.104   0.631
46593W        W14811  26.429  11.398   2.054
46594W        W14812  33.177  22.133   1.730
46595W        W14813  39.287  20.549   4.589
46596W        W14814  15.826  25.223  12.060
46597W        W14815  19.145  33.488  11.543
46598W        W14816  32.738  30.155  13.030
46599W        W14817   7.194  12.526   4.159
46600W        W14818  38.274  25.215   0.902
46601W        W14819  20.278  25.330  14.316
46602W        W14820  16.097  12.899   0.848
46603W        W14821  23.962   3.839   2.324
46604W        W14822  14.351   5.296   2.329
46605W        W14823  39.942   9.148   2.786
46606W        W14824  20.817  33.832  12.294
46607W        W14825  16.865  15.152   4.965
46608W        W14826   2.425  20.728   1.326
46609W        W14827  25.852   9.685  12.795
46610W        W14828  24.468  17.125  10.692
46611W        W14829  28.110  17.493   4.953
46612W        W14830  28.360  35.813  13.277
46613W        W14831  11.399  32.907  11.947
46614W        W14832  34.273  44.525  14.965
46615W        W14833  27.240   3.891   2.182
46616W        W14834  36.404  12.411  13.489
46617W        W14835   0.917   3.245  14.173
46618W        W14836  18.712  13.482   1.213
46619W        W14837  42.144  20.189   4.350
46620W        W14838  25.074  10.647  10.974
46621W        W14839  17.577  42.403  14.380
46622W        W14840   9.843   5.534  14.038
46623W        W14841  19.312  20.772   1.717
46624W        W14842  44.293   7.309  11.220
46625W        W14843  18.814   4.426   4.642
46626W        W14844  44.487   1.689  11.722
46627W        W14845  32.888  42.223  13.951
46628W        W14846  11.895  18.708  14.269
46629W        W14847  36.407  12.512   3.696
46630W        W14848  10.730  12.210  11.878
46631W        W14849  10.202  11.089  11.543
46632W        W14850   4.753  29.720   3.620
46633W        W14851   2.360   0.210   0.930
46634W        W14852  10.205  12.334   0.775
46635W        W14853  37.001  19.608  10.367
46636W        W14854  22.365  22.133   2.599
46637W        W14855   5.305  28.748   1.387
46638W        W14856  27.612  22.104  13.560
46639W        W14857  21.546  34.083  11.052
46640W        W14858  18.274  10.822   0.253
46641W        W14859  20.567  30.389  12.012
46642W        W14860  26.635   2.362   2.971
46643W        W14861  29.831  20.866  14.809
46644W        W14862  39.973  40.818   3.299
46645W        W14863   3.003  30.079   2.997
46646W        W14864  30.737  44.981  10.664
46647W        W14865  20.326  38.878  14.343
46648W        W14866   9.508   0.657   3.827
46649W        W14867  16.649  38.757  12.029
46650W        W14868   1.701   4.107   1.836
46651W        W14869  28.451  13.211   1.771
46652W        W14870  22.056  15.347   4.567
46653W        W14871  41.414  19.533   3.601
46654W        W14872   3.836  19.442   1.752
46655W        W14873  44.576  38.180  14.766
46656W        W14874  35.303   6.216  14.874
46657W        W14875  24.013   0.140   3.771
46658W        W14876  44.876  13.754  11.874
46659W        W14877  37.576   6.425   1.308
46660W        W14878  20.172  31.136   1.780
46661W        W14879  39.124   1.731   0.821
46662W        W14880  22.027  27.690   0.212
46663W        W14881  40.446   4.273   0.745
46664W        W14882  39.028  28.450   4.233
46665W        W14883  27.130  44.140   2.406
46666W        W14884  40.068   6.685  11.672
46667W        W14885  29.890  15.738  14.027
46668W        W14886  13.752  42.873  11.561
46669W        W14887  20.370   7.857  14.363
46670W        W14888  36.881  31.418   0.034
46671W        W14889  37.407  23.525  14.745
46672W        W14890   4.222  43.721   1.806
46673W        W14891  28.892  39.800  13.528
46674W        W14892  35.351   4.478  10.314
46675W        W14893  19.474  37.978  13.682
46676W        W14894  36.629  29.499   1.198
46677W        W14895  37.830   4.855   2.829
46678W        W14896  31.529   8.826   1.926
46679W        W14897  32.083  19.328   0.323
46680W        W14898  11.421   4.767  13.346
46681W        W14899  43.585   7.086  13.787
46682W        W14900  21.140  30.533  11.993
46683W        W14901  20.251  38.655  14.816
46684W        W14902   1.447  34.512   2.836
46685W        W14903  25.295  17.615  12.834
46686W        W14904  13.735   3.368  14.373
46687W        W14905  32.438   7.044   1.250
46688W        W14906  24.524   1.484   0.362
46689W        W14907  19.015  42.391   4.255
46690W        W14908  33.463   1.378  11.014
46691W        W14909   5.898  23.171  10.728
46692W        W14910  18.628  39.113  14.574
46693W        W14911  41.959   0.495   0.268
46694W        W14912   9.898  42.820  10.799
46695W        W14913  41.535  10.418  14.192
46696W        W14914  15.685  13.588  13.114
46697W        W14915  38.498  10.848  11.152
46698W        W14916  25.905  11.842  14.624
46699W        W14917  14.297  35.034  12.946
46700W        W14918  30.518   9.672  10.687
46701W        W14919  36.860   4.288   0.018
46702W        W14920  19.282  34.930   0.213
46703W        W14921  38.810  12.920  13.481
46704W        W14922  11.141  24.651   4.873
46705W        W14923  21.644  11.995   5.047
46706W        W14924  43.309  30.714   1.394
46707W        W14925  14.602   7.651   0.496
46708W        W14926  29.129  23.493  12.675
46709W        W14927  10.367  21.089  11.390
46710W        W14928  27.960  26.778  12.937
46711W        W14929  21.236   4.249  14.761
46712W        W14930   6.001  38.337  13.253
46713W        W14931  20.908  31.139   4.688
46714W        W14932  20.003  37.535   4.782
46715W        W14933  12.827   7.763   3.996
46716W        W14934  13.796   5.244  13.884
46717W        W14935  40.514  31.711  14.499
46718W        W14936  27.614   2.032   0.199
46719W        W14937  27.066  25.427   0.016
46720W        W14938  27.506  15.059  14.395
46721W        W14939   1.810   5.337   1.223
46722W        W14940  44.396   5.036   0.788
46723W        W14941  30.159  40.049   2.342
46724W        W14942  25.372  12.619  10.262
46725W        W14943   9.446  30.395  13.808
46726W        W14944   5.974   7.285  12.085
46727W        W14945  19.109  19.270  11.723
46728W        W14946  11.593  42.911  14.715
46729W        W14947  37.387   5.396   3.088
46730W        W14948  36.315  27.104   5.650
46731W        W14949   0.785  26.241   0.359
46732W        W14950   2.820  33.001   2.783
46733W        W14951  35.759  24.015   0.860
46734W        W14952  32.107   7.608   1.870
46735W        W14953   0.251  16.287  10.968
46736W        W14954   9.671  23.638   1.828
46737W        W14955   5.810  13.158   0.045
46738W        W14956  23.862  44.075   1.936
46739W        W14957  31.541   6.365  11.405
46740W        W14958  22.311   6.875   1.396
46741W        W14959  43.530  33.680   0.031
46742W        W14960   4.365  43.280  11.152
46743W        W14961   1.162   9.757   3.093
46744W        W14962  43.410  36.076  13.409
46745W        W14963  42.784   9.773  11.663
46746W        W14964  38.093  42.815   1.164
46747W        W14965   6.771  40.771   1.372
46748W        W14966   1.632   6.639   2.690
46749W        W14967   0.278  12.787   2.382
46750W        W14968  43.808  12.288  13.456
46751W        W14969  38.871  35.004   1.513
46752W        W14970  20.798  36.296  13.031
46753W        W14971   9.125  44.080   3.690
46754W        W14972  42.087  42.173  11.224
46755W        W14973   2.399  24.004   0.077
46756W        W14974  20.184   0.841  10.637
46757W        W14975  30.165  41.031  11.997
46758W        W14976  30.651  41.760  13.753
46759W        W14977  35.030  26.992  10.246
46760W        W14978   6.248   7.097  13.518
46761W        W14979  29.925   7.329  13.437
46762W        W14980   2.476  42.409   4.517
46763W        W14981  32.250  39.021  10.713
46764W        W14982  31.975  25.189   4.672
46765W        W14983  13.541  25.749   2.590
46766W        W14984  22.622   9.022  11.132
46767W        W14985  31.993  35.622  14.834
46768W        W14986  27.052  39.044   3.024
46769W        W14987  12.581  15.729   3.017
46770W        W14988  24.120  12.880  11.571
46771W        W14989   3.079   8.381  13.515
46772W        W14990  23.739  15.834   0.952
46773W        W14991  20.374  13.951   5.296
46774W        W14992   6.218  28.633  14.775
46775W        W14993  37.892  29.361  12.990
46776W        W14994  31.628  11.831  11.150
46777W        W14995  22.735  40.835   3.739
46778W        W14996  35.315   9.553  11.526
46779W        W14997   7.221  23.047  11.944
46780W        W14998  26.074  20.697  14.291
46781W        W14999  13.418  39.054  12.115
46782W        W15000  19.722  12.717   0.899
46783W        W15001  15.050  33.456  14.862
46784W        W15002  40.843   1.327  12.481
46785W        W15003   2.388  20.297  12.079
46786W        W15004  19.601  41.783  14.618
46787W        W15005  16.736   7.644   4.621
46788W        W15006  26.441  13.843   2.772
46789W        W15007  17.287  29.087  10.365
46790W        W15008   4.941  39.842  14.442
46791W        W15009   2.386  35.551   3.966
46792W        W15010  19.217  15.258  10.330
46793W        W15011   7.337  34.392   1.917
46794W        W15012  15.734  34.379   1.755
46795W        W15013   7.660  17.693   3.354
46796W        W15014  21.362  30.526  12.489
46797W        W15015  32.494  26.139   1.080
46798W        W15016   3.957  14.141  14.971
46799W        W15017  26.396   7.876  13.787
46800W        W15018  31.641  14.881   1.923
46801W        W15019  21.185  44.926   3.826
46802W        W15020  24.128  35.112  14.457
46803W        W15021   6.006  10.688   0.806
46804W        W15022  24.401   3.201   2.322
46805W        W15023  28.566  14.053  12.707
46806W        W15024   1.388  17.195   3.328
46807W        W15025   6.851   6.678   4.583
46808W        W15026   7.373  11.457  12.766
46809W        W15027  28.808   5.345  10.556
46810W        W15028  30.121  14.543  10.644
46811W        W15029  26.593  35.943   4.680
46812W        W15030  36.152  31.180  14.866
46813W        W15031  44.989  42.980  11.958
46814W        W15032  42.620   9.507  12.498
46815W        W15033  40.562   7.711  14.360
46816W        W15034  30.992  18.700  14.245
46817W        W15035  43.062  15.726  10.699
46818W        W15036  22.434  32.527   3.591
46819W        W15037  16.682   3.198  13.533
46820W        W15038  23.118  30.782  13.620
46821W        W15039  17.228  28.417  14.934
46822W        W15040  27.546  22.427  13.967
46823W        W15041  10.905  13.226  14.897
46824W        W15042  17.206   8.317  14.259
46825W        W15043  38.955  20.511   3.184
46826W        W15044  28.550  27.661   0.226
46827W        W15045   4.642  13.318   1.007
46828W        W15046  20.677  19.457   2.459
46829W        W15047  36.906   7.697  12.521
46830W        W15048  43.620   2.047  10.905
46831W        W15049   7.248  17.790  11.966
46832W        W15050  21.080  43.483  14.380
46833W        W15051  42.516  39.622   2.660
46834W        W15052  40.437  14.441  14.308
46835W        W15053  30.698  28.573  11.978
46836W        W15054   8.970   2.915  13.410
46837W        W15055  22.608  38.072  10.934
46838W        W15056  31.146   6.731  12.023
46839W        W15057  24.362  25.471   4.999
46840W        W15058  26.484  41.959  14.057
46841W        W15059  21.204   7.725   2.119
46842W        W15060  35.432  18.666   1.836
46843W        W15061  11.915  27.232  14.722
46844W        W15062  21.797  13.183   2.259
46845W        W15063  22.236   4.039   2.932
46846W        W15064  16.413  24.179  13.801
46847W        W15065  43.560   6.730  12.071
46848W        W15066  19.538  27.908  12.013
46849W        W15067  23.620  41.501   0.920
46850W        W15068  43.784   0.203  11.625
46851W        W15069  39.071  17.088  11.200
46852W        W15070  44.004  41.982   4.195
46853W        W15071  27.669  42.751   3.362
46854W        W15072  23.467  20.259   3.628
46855W        W15073  27.039   1.958   4.819
46856W        W15074  28.231  18.329  14.827
46857W        W15075  43.785  22.192   1.183
46858W        W15076  31.062  12.294   3.570
46859W        W15077  22.549  44.483   1.886
46860W        W15078  23.941  11.728  11.011
46861W        W15079   1.371   7.172   1.913
46862W        W15080  40.156  31.658   0.880
46863W        W15081  42.282  19.201   0.320
46864W        W15082  33.341  28.831  10.304
46865W        W15083   8.940  35.117   2.457
46866W        W15084  33.631  36.905   2.816
46867W        W15085  39.542  25.585  12.195
46868W        W15086   8.727  23.628  14.764
46869W        W15087  27.085  31.705  12.347
46870W        W15088   9.481   7.055  12.013
46871W        W15089  12.259   7.056  13.905
46872W        W15090  25.739   3.459  10.306
46873W        W15091  16.816  32.663   4.147
46874W        W15092  30.612  32.836  14.892
46875W        W15093  35.064  11.873  13.347
46876W        W15094  26.586   8.328   3.946
46877W        W15095  24.117  18.667  11.670
46878W        W15096  42.325  32.033   4.106
46879W        W15097  14.316  44.404   3.645
46880W        W15098  37.898  38.914   0.291
46881W        W15099  14.166   3.093  14.029
46882W        W15100  43.364  25.298   0.682
46883W        W15101  21.243  18.949  13.302
46884W        W15102  10.047  16.063  10.898
46885W        W15103   5.042   9.752  14.939
46886W        W15104  31.175  40.370   1.235
46887W        W15105  28.942  30.316   4.275
46888W        W15106  33.350  10.914   2.758
46889W        W15107  26.971  39.232  12.572
46890W        W15108  30.621  29.244   3.763
46891W        W15109   7.153  20.774  14.950
46892W        W15110  33.599  25.138   1.692
46893W        W15111  20.812  26.058  12.242
46894W        W15112  27.233  17.082  12.878
46895W        W15113  27.490  14.506  13.446
46896W        W15114  39.384  39.458  13.998
46897W        W15115  17.028   9.874   2.034
46898W        W15116   4.260  12.367  14.442
46899W        W15117  25.533  33.987   2.815
46900W        W15118  38.227  36.735   1.156
46901W        W15119  14.568  37.668  14.139
46902W        W15120  17.190   5.193   3.233
46903W        W15121  18.981  21.564   2.755
46904W        W15122  33.653   3.339   2.291
46905W        W15123  20.169  35.092  12.013
46906W        W15124   6.394  32.925   2.428
46907W        W15125  43.969  12.057  13.984
46908W        W15126  18.671  35.310  13.015
46909W        W15127   9.307   6.275  12.366
46910W        W15128  33.194   4.823   1.948
46911W        W15129  32.156   9.427  11.791
46912W        W15130   5.261  30.918  12.509
46913W        W15131  15.298  14.828   1.252
46914W        W15132  43.424  27.483  13.876
46915W        W15133  19.523  37.252  13.344
46916W        W15134   6.967  13.889  14.786
46917W        W15135  44.436  31.889   1.859
46918W        W15136  24.521  40.795   1.325
46919W        W15137  38.909  38.333   0.322
46920W        W15138   7.930  36.504   0.760
46921W        W15139  28.222  32.172  11.023
46922W        W15140  11.847  25.333   5.017
46923W        W15141  11.606  40.495   2.495
46924W        W15142  36.385   2.768  14.328
46925W        W15143   3.317   9.119  14.499
46926W        W15144  20.748  34.305   2.306
46927W        W15145  33.916  26.191  13.474
46928W        W15146   1.319  11.122  11.192
46929W        W15147  12.846  30.528   0.439
46930W        W15148   3.968  29.103  13.830
46931W        W15149  44.099  25.772  11.130
46932W        W15150   6.608  10.543   0.170
46933W        W15151  35.100  33.628   1.006
46934W        W15152  44.792  11.202   1.957
46935W        W15153  43.353  14.967   3.488
46936W        W15154  25.055   8.751  14.901
46937W        W15155  34.432   8.336   3.559
46938W        W15156  31.155  25.552  11.552
46939W        W15157  15.702   0.345   0.725
46940W        W15158  12.723  36.919  12.615
46941W        W15159   8.635  44.868   4.897
46942W        W15160  16.690  10.618  12.918
46943W        W15161  12.151   6.642   4.191
46944W        W15162  35.400  30.606   0.842
46945W        W15163  13.789  28.498   3.411
46946W        W15164  41.265  20.059   1.809
46947W        W15165   2.290   7.843   2.338
46948W        W15166  41.072  34.604  13.627
46949W        W15167  35.484  34.884   4.468
46950W        W15168  34.488  34.033   4.069
46951W        W15169  42.815  16.923  12.957
46952W        W15170  16.547  10.863   4.138
46953W        W15171  17.166  41.337   3.026
46954W        W15172  34.423   4.948   0.390
46955W        W15173  40.585  42.364  11.175
46956W        W15174  26.039  34.085   1.915
46957W        W15175  12.123  29.672   0.712
46958W        W15176  24.730  38.870  13.425
46959W        W15177  37.802  39.064   1.336
46960W        W15178  40.391   7.323   0.448
46961W        W15179   1.895  25.570   1.351
46962W        W15180  12.333  12.615  14.556
46963W        W15181  29.932  21.587   1.726
46964W        W15182   9.225   6.755   4.046
46965W        W15183  20.259  33.073  12.097
46966W        W15184   3.380  39.901   4.605
46967W        W15185   2.375  28.082   1.444
46968W        W15186  12.915  38.797  14.764
46969W        W15187   4.645  10.456   0.472
46970W        W15188  13.271  29.168  10.791
46971W        W15189  27.398   4.966   0.381
46972W        W15190  18.313  39.678  14.021
46973W        W15191  41.370  16.728  11.954
46974W        W15192  37.391  40.978  11.260
46975W        W15193   2.953  16.121  12.875
46976W        W15194  39.095  28.520  13.766
46977W        W15195  30.155   4.333   3.652
46978W        W15196  27.948  41.065  11.576
46979W        W15197  23.973  27.370  12.892
46980W        W15198  38.041  10.615  11.288
46981W        W15199  23.789  42.457  10.949
46982W        W15200  31.267  41.105   3.583
46983W        W15201   4.831  20.022  13.869
46984W        W15202  42.423  37.870   1.269
46985W        W15203  41.216  41.207   2.292
46986W        W15204   0.741   3.988   0.313
46987W        W15205   2.977  20.634  14.297
46988W        W15206   4.776  14.818   4.077
46989W        W15207  21.234  42.770  14.891
46990W        W15208  41.854  43.391  14.295
46991W        W15209  40.427  43.431   4.302
46992W        W15210  43.241  42.367   0.547
46993W        W15211  12.799   8.462  13.824
46994W        W15212  21.113  26.713   2.816
46995W        W15213   3.279  31.453   1.794
46996W        W15214  17.084  42.392   1.794
46997W        W15215   7.230  13.994  12.004
46998W        W15216  23.132  41.974  13.558
46999W        W15217  15.140  22.465  11.183
47000W        W15218  44.002  36.330   2.917
47001W        W15219  17.709   1.984   1.464
47002W        W15220  25.950  40.367   0.368
47003W        W15221  30.378   7.244   2.415
47004W        W15222  38.332  29.259   3.370
47005W        W15223  26.576   9.397  14.981
47006W        W15224  34.768  37.518   2.720
47007W        W15225  11.309  18.147   1.701
47008W        W15226  38.771  13.651   0.275
47009W        W15227  20.120   4.512  13.490
47010W        W15228  44.975  19.129   4.682
47011W        W15229  26.777  30.891   5.127
47012W        W15230   5.528  30.185  12.084
47013W        W15231  44.862  33.631   4.335
47014W        W15232  11.255  39.484   4.158
47015W        W15233  12.414   8.671   4.315
47016W        W15234  17.746   5.154   3.192
47017W        W15235  15.068  35.064  14.180
47018W        W15236   1.792   4.426  10.810
47019W        W15237  14.368  24.728  12.421
47020W        W15238   3.900   6.900  13.159
47021W        W15239  43.411  21.570   4.668
47022W        W15240   2.003  24.076  13.484
47023W        W15241   8.219  19.151  14.808
47024W        W15242  22.969  43.796   3.532
47025W        W15243  19.603  34.068  11.581
47026W        W15244  20.515   2.974  13.007
47027W        W15245  35.841  10.732  11.971
47028W        W15246   9.225   9.812   3.627
47029W        W15247  16.805  29.357  10.812
47030W        W15248   8.249   0.283  13.371
47031W        W15249  35.540  36.311   4.321
47032W        W15250   2.724   6.356  14.785
47033W        W15251  25.517  37.645   2.163
47034W        W15252  26.937  26.246  13.835
47035W        W15253  14.817  22.637   3.543
47036W        W15254  32.618  17.258   3.309
47037W        W15255  16.905  26.132   3.730
47038W        W15256   9.214  30.615   3.070
47039W        W15257  30.242  31.466  11.876
47040W        W15258  12.849  35.492   1.757
47041W        W15259  33.455  20.552   2.755
47042W        W15260  37.995  28.271   0.376
47043W        W15261  33.054  26.977   0.267
47044W        W15262  25.960  27.076   1.741
47045W        W15263  22.071  15.045  13.924
47046W        W15264   8.640  27.065  12.925
47047W        W15265  20.852  33.340  11.165
47048W        W15266  39.419   1.300  12.543
47049W        W15267  14.820   2.539  13.933
47050W        W15268  22.034  37.531   0.879
47051W        W15269  12.718  22.978  10.408
47052W        W15270   9.925  19.269   2.408
47053W        W15271  25.523  38.822  14.696
47054W        W15272   6.731  26.310  12.072
47055W        W15273   1.791   6.217  11.608
47056W        W15274  25.157   1.833  11.527
47057W        W15275  33.423  44.555   4.124
47058W        W15276  12.821   5.696  14.941
47059W        W15277  42.748   3.326  14.435
47060W        W15278  42.228  42.232   0.831
47061W        W15279   2.502  19.541  12.504
47062W        W15280  33.108  42.962  14.972
47063W        W15281  13.521  42.832   0.809
47064W        W15282  27.028  13.310  11.060
47065W        W15283   8.612  43.304  10.605
47066W        W15284  19.092   2.363  10.652
47067W        W15285  28.893  18.800  12.797
47068W        W15286  33.195  15.709  13.859
47069W        W15287  12.737  40.499   2.792
47070W        W15288   6.470  33.919  11.138
47071W        W15289   6.830   1.340   1.289
47072W        W15290  11.960  26.077  11.636
47073W        W15291  30.517  29.618   3.380
47074W        W15292  12.088  27.148  12.438
47075W        W15293  35.272  25.476   4.520
47076W        W15294  25.242  18.981   3.303
47077W        W15295   6.873  25.573  12.278
47078W        W15296  41.026  37.271  11.618
47079W        W15297  44.639  26.001   2.664
47080W        W15298  16.568  35.457  14.969
47081W        W15299  14.756  32.418   2.178
47082W        W15300  34.959  38.585   0.759
47083W        W15301  23.550   5.335  10.753
47084W        W15302   4.279  24.145   1.160
47085W        W15303  21.179  34.596  13.458
47086W        W15304  26.214   4.335   0.656
47087W        W15305  25.056  16.067   3.762
47088W        W15306  12.597  36.487  12.388
47089W        W15307  34.036   4.436  12.869
47090W        W15308  31.512  38.810   3.805
47091W        W15309  30.129  18.173   3.627
47092W        W15310  37.422  25.408   2.795
47093W        W15311   0.102   6.380   3.529
47094W        W15312   0.450  20.464   1.486
47095W        W15313  34.377  16.542  12.645
47096W        W15314  13.020  39.294   4.203
47097W        W15315  25.577  37.466   3.158
47098W        W15316  12.570  23.959  13.501
47099W        W15317  34.717   0.286  12.361
47100W        W15318  22.209  19.733   4.238
47101W        W15319  26.821   1.413   2.018
47102W        W15320  31.597  37.408  11.981
47103W        W15321  21.999  24.893  11.985
47104W        W15322   9.098  21.455   1.263
47105W        W15323  37.225  15.858   1.609
47106W        W15324  43.486  36.902   4.341
47107W        W15325   6.224   6.675  11.069
47108W        W15326  34.401  11.129   2.267
47109W        W15327  12.723  43.408  14.040
47110W        W15328  41.795  27.065  11.695
47111W        W15329  36.116  11.177  11.926
47112W        W15330   4.002   0.463  11.343
47113W        W15331  42.539  44.528  14.355
47114W        W15332  32.776   3.286  11.574
47115W        W15333   2.198  26.199   3.330
47116W        W15334  15.783  31.113   0.585
47117W        W15335  33.366   9.299  10.621
47118W        W15336  31.494  13.909  11.591
47119W        W15337  34.547   8.735   4.478
47120W        W15338  42.951  35.380   2.025
47121W        W15339  38.744   7.674  10.299
47122W        W15340  27.123  22.186  11.504
47123W        W15341  13.843   5.396   4.684
47124W        W15342  38.998  14.366   2.815
47125W        W15343   5.360  44.601  10.208
47126W        W15344  23.129  18.790  10.815
47127W        W15345   8.697   6.611   0.674
47128W        W15346  15.897   6.910  12.595
47129W        W15347  41.306  24.205  10.651
47130W        W15348   0.943   3.424  11.356
47131W        W15349  26.911  18.761   3.736
47132W        W15350   0.869  12.481   2.775
47133W        W15351   4.192  37.056   4.851
47134W        W15352  10.372  44.866   3.152
47135W        W15353   6.229  20.832  14.508
47136W        W15354  43.996   3.232  14.326
47137W        W15355  17.709  43.865  12.004
47138W        W15356   2.121   3.271   4.058
47139W        W15357  26.720  30.924  14.708
47140W        W15358  43.298   2.426  13.333
47141W        W15359  34.386  17.486  14.838
47142W        W15360  39.366   0.878  14.172
47143W        W15361  12.964   5.940  13.235
47144W        W15362   9.271  25.071  10.741
47145W        W15363   3.186  25.117  14.312
47146W        W15364  38.813  34.993   2.933
47147W        W15365   3.002  44.075   1.324
47148W        W15366   2.419  11.807   0.376
47149W        W15367  18.774  35.314  14.003
47150W        W15368  14.671  44.326   0.454
47151W        W15369  26.051  13.096  10.861
47152W        W15370  28.995  34.338   2.820
47153W        W15371  21.643  27.429  14.985
47154W        W15372  13.721  35.977  11.909
47155W        W15373   4.711  44.029  12.838
47156W        W15374  11.298  12.371  10.714
47157W        W15375  22.712  35.638   4.130
47158W        W15376  29.166  19.051  10.681
47159W        W15377  36.231  15.358   0.358
47160W        W15378  24.680  40.985  10.932
47161W        W15379  39.054  18.535   4.249
47162W        W15380  36.113  23.559  14.814
47163W        W15381  26.023  28.033  11.213
47164W        W15382  38.326  18.202  13.973
47165W        W15383  17.359  36.075   4.280
47166W        W15384  25.477   5.341  13.442
47167W        W15385  22.583  44.235  12.618
47168W        W15386  44.949  39.774   1.996
47169W        W15387  21.263   9.239  10.827
47170W        W15388  24.963  39.663   3.153
47171W        W15389   7.996  23.419   3.680
47172W        W15390  35.370   2.881   3.559
47173W        W15391  44.418  21.771  12.082
47174W        W15392  30.147   6.233   2.248
47175W        W15393  31.399  24.059  10.663
47176W        W15394   8.154   7.261  13.944
47177W        W15395  26.558  11.368  14.367
47178W        W15396  11.293  23.400  12.533
47179W        W15397  37.865   0.325   0.785
47180W        W15398  29.932  23.605  10.589
47181W        W15399  28.916  27.154   0.004
47182W        W15400   1.908  23.959  14.942
47183W        W15401  12.106  18.199  11.561
47184W        W15402   5.145  30.086   4.681
47185W        W15403  26.745  33.461  11.090
47186W        W15404  11.385  37.068   4.051
47187W        W15405  37.289  15.152  14.327
47188W        W15406  38.339  35.106   2.729
47189W        W15407  13.751  36.417   2.213
47190W        W15408  19.139  40.044  10.380
47191W        W15409   7.001  38.600   4.084
47192W        W15410  38.894  35.655  14.852
47193W        W15411  25.532  27.306   4.310
47194W        W15412  11.739   9.851  11.113
47195W        W15413   9.231  40.405   0.071
47196W        W15414  13.400  33.948  12.967
47197W        W15415  12.344  29.148  12.508
47198W        W15416  38.748   0.678  13.371
47199W        W15417   9.904  33.584   3.962
47200W        W15418  35.229   6.114   1.771
47201W        W15419  39.382  40.336   2.817
47202W        W15420  12.195   5.007  11.135
47203W        W15421  21.109  37.029   4.550
47204W        W15422   7.818  29.814  14.131
47205W        W15423  34.799  40.031   4.603
47206W        W15424  34.620  29.381   0.438
47207W        W15425  41.371   8.789  11.582
47208W        W15426  28.873   8.125  11.953
47209W        W15427  35.079  37.925   2.404
47210W        W15428  21.305  34.037  12.443
47211W        W15429  12.102  18.626   0.302
47212W        W15430  10.701   0.772   3.177
47213W        W15431  17.187   6.850  10.941
47214W        W15432  19.174  34.792   4.667
47215W        W15433  36.180  26.399  11.943
47216W        W15434  15.906  14.226   2.812
47217W        W15435  10.092  18.102  10.320
47218W        W15436  38.433  30.933   3.782
47219W        W15437  15.287  36.485   4.913
47220W        W15438   2.279  29.185  12.371
47221W        W15439  14.370  33.023   1.942
47222W        W15440   7.820  25.619  14.402
47223W        W15441   1.763   1.420  14.887
47224W        W15442  25.089  31.355  14.462
47225W        W15443  22.378  14.662  10.797
47226W        W15444  43.538  13.805  13.521
47227W        W15445  30.928  27.344   1.505
47228W        W15446  42.455   1.825   3.963
47229W        W15447   7.388  22.382   4.857
47230W        W15448  15.586  24.175   3.688
47231W        W15449  44.008  28.061  13.314
47232W        W15450   6.642  17.440  11.207
47233W        W15451  23.003  34.090  13.447
47234W        W15452  14.484  33.494  14.278
47235W        W15453  33.548  42.322   1.912
47236W        W15454  16.743  20.286  12.552
47237W        W15455   6.642   6.691  11.460
47238W        W15456  28.441   6.297  11.868
47239W        W15457  36.466  34.440   1.872
47240W        W15458  18.419  25.569  13.145
47241W        W15459  11.933  38.406   0.956
47242W        W15460   0.429  16.108  11.592
47243W        W15461  11.169   8.223  10.578
47244W        W15462  41.188  37.617  13.179
47245W        W15463  14.597  32.444   0.836
47246W        W15464   1.015   3.640  10.547
47247W        W15465  17.087   5.437  11.092
47248W        W15466   7.234  40.208   1.898
47249W        W15467  13.575   2.897  10.455
47250W        W15468  32.137  12.824  13.469
47251W        W15469  22.539   7.418   2.849
47252W        W15470   1.637  35.043  10.552
47253W        W15471  27.230  31.834   3.855
47254W        W15472   3.696  12.380   0.288
47255W        W15473  18.043  34.404  13.973
47256W        W15474  13.664  44.738  13.136
47257W        W15475   0.942  39.771  14.382
47258W        W15476  26.397  39.868   2.467
47259W        W15477  27.606  33.560  12.561
47260W        W15478  40.848  38.825   1.368
47261W        W15479  17.256  10.585   1.425
47262W        W15480  17.347  33.774   2.725
47263W        W15481  39.761   7.206  12.890
47264W        W15482   0.320  23.805   0.003
47265W        W15483  25.611   3.207   0.833
47266W        W15484  14.824  11.615  11.262
47267W        W15485  18.579   6.685  11.504
47268W        W15486  14.512  21.214   2.716
47269W        W15487  15.641  28.692  12.427
47270W        W15488  29.369   9.795   1.040
47271W        W15489   2.428   2.328   2.790
47272W        W15490  26.684  22.966   1.856
47273W        W15491   3.873  24.334  14.380
47274W        W15492  32.692  44.822   1.747
47275W        W15493  24.487   3.902   1.326
47276W        W15494  32.899  16.107  14.927
47277W        W15495  10.483   3.238  11.626
47278W        W15496   5.777  17.078  13.513
47279W        W15497  10.915   3.325  14.445
47280W        W15498   3.458  35.442   5.020
47281W        W15499  39.751  24.242  13.044
47282W        W15500  18.353  24.856   0.262
47283W        W15501  26.978  36.721  13.119
47284W        W15502  40.543  38.967  11.177
47285W        W15503  12.360  40.869  11.851
47286W        W15504  25.146  32.419  10.716
47287W        W15505   4.331   4.091  14.943
47288W        W15506   5.128  29.068  10.775
47289W        W15507  25.110  18.999   0.437
47290W        W15508  37.466  11.862   1.293
47291W        W15509  32.911  30.094   4.935
47292W        W15510  16.561   4.818  10.622
47293W        W15511   9.903   4.239  14.923
47294W        W15512   9.993  12.566  13.573
47295W        W15513  38.486  17.058   4.310
47296W        W15514  31.191  27.936  12.464
47297W        W15515  29.310  29.041   2.646
47298W        W15516   6.073   0.978   0.472
47299W        W15517   2.529  13.984   0.437
47300W        W15518  30.128  35.410   3.884
47301W        W15519  11.960  28.040  10.083
47302W        W15520  15.386  33.569  12.163
47303W        W15521  23.178  26.561   3.492
47304W        W15522  21.576  41.772   0.862
47305W        W15523  42.779  43.129  12.876
47306W        W15524   7.944  40.244   1.551
47307W        W15525  22.964  24.062   3.678
47308W        W15526  14.232  21.054   4.421
47309W        W15527   5.907  20.136  13.989
47310W        W15528  10.604  19.646  13.441
47311W        W15529  40.597  30.987  11.951
47312W        W15530   7.835  31.664  12.944
47313W        W15531  26.048   3.494   3.746
47314W        W15532  13.159  21.150   5.075
47315W        W15533  12.650  29.633  14.734
47316W        W15534  27.441  28.930   0.032
47317W        W15535  30.032   9.047  13.857
47318W        W15536  34.426   9.004  11.123
47319W        W15537  20.476  10.896  14.926
47320W        W15538  25.467  40.196   1.597
47321W        W15539  14.375  16.686   1.361
47322W        W15540  25.607  17.537  14.965
47323W        W15541  36.806  13.800   0.882
47324W        W15542  24.670   1.025  10.427
47325W        W15543  39.075  24.653   0.088
47326W        W15544  29.518  21.660   4.091
47327W        W15545  25.115  14.690   0.527
47328W        W15546  31.420   0.621  14.989
47329W        W15547  44.858  20.207  12.882
47330W        W15548  19.735  24.780  14.793
47331W        W15549  37.572  20.844   0.425
47332W        W15550  18.612  10.113  14.772
47333W        W15551  40.047   7.106  10.860
47334W        W15552   7.934   7.445   2.154
47335W        W15553  21.055  34.107  14.365
47336W        W15554   4.608  22.536   3.136
47337W        W15555   6.738  37.197  12.216
47338W        W15556   6.891  13.080  13.734
47339W        W15557   2.427  37.042  13.762
47340W        W15558   4.441  15.411  14.671
47341W        W15559   8.148  23.745  12.963
47342W        W15560  21.302  32.546   2.697
47343W        W15561  36.981  32.133  13.764
47344W        W15562  32.152  42.997  13.047
47345W        W15563  17.377  16.130  10.580
47346W        W15564  44.851  36.366   4.972
47347W        W15565  25.862  35.181   4.743
47348W        W15566   7.869  21.137   0.193
47349W        W15567  40.903  23.043  11.654
47350W        W15568   9.539   5.429  12.538
47351W        W15569  18.945  42.445   0.553
47352W        W15570  26.003  33.267   2.429
47353W        W15571  24.753  30.175  14.442
47354W        W15572  39.900  24.195  14.059
47355W        W15573  34.319  11.588  10.484
47356W        W15574  40.154  14.287  14.741
47357W        W15575   8.332  19.682  10.783
47358W        W15576   3.464  40.629  12.895
47359W        W15577  12.882   3.448  12.866
47360W        W15578  22.339  24.148  14.938
47361W        W15579  30.847  34.829  14.420
47362W        W15580  28.237   3.677   3.286
47363W        W15581  18.274  36.616  12.904
47364W        W15582  29.904  23.582  13.980
47365W        W15583  29.468  14.762   4.111
47366W        W15584  12.282  35.264  12.355
47367W        W15585  18.796  25.271   3.789
47368W        W15586   8.202  31.613  13.329
47369W        W15587   2.379   3.458   0.275
47370W        W15588  44.251   2.536  12.033
47371W        W15589   9.248  31.935  12.257
47372W        W15590  26.153  41.295  14.909
47373W        W15591   7.970  11.394  13.485
47374W        W15592  39.484  38.014   3.302
47375W        W15593   6.420  22.560   3.646
47376W        W15594  29.266  24.800  14.749
47377W        W15595  26.262  12.153   3.758
47378W        W15596  40.096  11.199   4.898
47379W        W15597   6.449  22.688  14.504
47380W        W15598  33.953  39.272  13.948
47381W        W15599  44.996  32.142  12.835
47382W        W15600   6.397  29.065  14.969
47383W        W15601   2.780  42.045   0.210
47384W        W15602  25.086  15.749  12.971
47385W        W15603  23.232  18.185   3.145
47386W        W15604   6.081   5.937  12.657
47387W        W15605  18.198  44.417  11.732
47388W        W15606  38.382  17.184  12.119
47389W        W15607  15.649  23.175   1.371
47390W        W15608  31.556  22.042   0.442
47391W        W15609  41.093  44.825   0.415
47392W        W15610  19.594   9.340   1.201
47393W        W15611  26.197  14.189  12.276
47394W        W15612  13.417  22.508  10.792
47395W        W15613   7.273  15.352   0.440
47396W        W15614  36.657  27.625  14.469
47397W        W15615  21.029  21.502   5.003
47398W        W15616  38.456  32.652  14.894
47399W        W15617  34.047  28.930   2.832
47400W        W15618  23.442  21.261   4.482
47401W        W15619  44.708   5.160  14.416
47402W        W15620  32.627  34.770   3.693
47403W        W15621  37.920   3.911   0.810
47404W        W15622  24.590  32.454  11.544
47405W        W15623   6.932   3.901   2.634
47406W        W15624  14.026  21.525   3.990
47407W        W15625  14.337  23.445   4.164
47408W        W15626  23.052  31.070  12.836
47409W        W15627  33.460  21.753  11.122
47410W        W15628  43.462  36.287  10.843
47411W        W15629  21.152  19.901  12.441
47412W        W15630  35.011  28.930   3.691
47413W        W15631  35.427  30.967  13.549
47414W        W15632  23.027  34.342   4.632
47415W        W15633  27.992   4.816  13.426
47416W        W15634  21.518  38.542   0.082
47417W        W15635   6.792  23.738   3.248
47418W        W15636  15.634  23.241  11.209
47419W        W15637  19.778  28.096   4.521
47420W        W15638  42.506  35.684  14.323
47421W        W15639  17.310  24.471  10.782
47422W        W15640  11.673   8.251   1.199
47423W        W15641  29.233   7.878  14.422
47424W        W15642  31.661  20.711  14.984
47425W        W15643  37.529   0.709   3.325
47426W        W15644  30.957  17.729   4.602
47427W        W15645   1.592   5.300  11.818
47428W        W15646   5.366  25.265  12.010
47429W        W15647  27.747  26.679   2.264
47430W        W15648   4.504   6.319  11.380
47431W        W15649  17.473  36.471  14.830
47432W        W15650  29.665   5.248   0.917
47433W        W15651  16.936  37.550  11.704
47434W        W15652  11.911  43.956  13.029
47435W        W15653  14.092  16.634   2.662
47436W        W15654  41.706   4.504  12.462
47437W        W15655  36.371  41.360  10.665
47438W        W15656  24.602  19.713  13.332
47439W        W15657  40.002  29.222   3.643
47440W        W15658  35.124  23.932  11.652
47441W        W15659  37.226  26.643   2.289
47442W        W15660  32.093  42.470  13.032
47443W        W15661  35.843  37.983   4.674
47444W        W15662  29.894   9.858   0.967
47445W        W15663  22.824  19.972  12.009
47446W        W15664  32.426  17.933  11.196
47447W        W15665  12.335   8.375   0.035
47448W        W15666  21.836  23.188   3.241
47449W        W15667  31.640   6.830  14.873
47450W        W15668  20.380  36.581  10.415
47451W        W15669  42.984  32.033   0.861
47452W        W15670  26.528  32.603  13.600
47453W        W15671  19.042  36.394  13.383
47454W        W15672  21.752   2.291   0.479
47455W        W15673  41.547  11.668  11.422
47456W        W15674  25.954  35.760   0.947
47457W        W15675   4.366  21.313   1.936
47458W        W15676  11.752  13.303   1.877
47459W        W15677  40.827  40.882   2.723
47460W        W15678  43.048  36.957   4.046
47461W        W15679  41.915   9.589  10.625
47462W        W15680  40.035  24.604  12.464
47463W        W15681   7.974  25.668   3.424
47464W        W15682  25.428  25.834   4.412
47465W        W15683  36.617   0.898   4.086
47466W        W15684   9.124  34.315  14.454
47467W        W15685   8.365  21.021   0.212
47468W        W15686   7.184  25.986  14.579
47469W        W15687  42.454  23.614  10.389
47470W        W15688  35.164   7.950   1.832
47471W        W15689   7.677   5.198  13.178
47472W        W15690  40.934  23.435  13.061
47473W        W15691  16.293   1.942   2.319
47474W        W15692  20.232  39.562   4.626
47475W        W15693  16.267  13.766   1.369
47476W        W15694  42.795  17.631   3.402
47477W        W15695  31.532   7.967   3.122
47478W        W15696  28.571   2.312   4.351
47479W        W15697  33.040  30.678   1.660
47480W        W15698  26.928  22.770  14.497
47481W        W15699  30.455   7.593  14.985
47482W        W15700  15.410   5.459   0.510
47483W        W15701  39.076  18.199   3.857
47484W        W15702   6.811  23.537  14.409
47485W        W15703   7.314  22.304  10.634
47486W        W15704   6.221   6.695   1.521
47487W        W15705  17.093  25.921  14.851
47488W        W15706  11.390   7.382   2.063
47489W        W15707   5.369  33.128   0.453
47490W        W15708  33.214  38.339   4.135
47491W        W15709  34.894  22.475  14.901
47492W        W15710  15.486  23.341   4.198
47493W        W15711  16.786  19.830   0.757
47494W        W15712  24.669  14.812   0.301
47495W        W15713   8.380  18.661  12.835
47496W        W15714   9.496  29.078  13.423
47497W        W15715  12.117  39.056   2.778
47498W        W15716   7.712  24.993   4.141
47499W        W15717  35.420  27.422  13.469
47500W        W15718  38.508   2.438   3.827
47501W        W15719   4.515  13.317   1.896
47502W        W15720  29.459   0.116  12.502
47503W        W15721   0.451  17.255   2.422
47504W        W15722  12.718  28.696  13.806
47505W        W15723  39.575  34.646   3.185
47506W        W15724  18.099  38.661   4.085
47507W        W15725   6.384   1.199  11.693
47508W        W15726  37.062  21.029  11.612
47509W        W15727  43.668  20.847  11.382
47510W        W15728   8.209  22.210   1.685
47511W        W15729   4.266   9.387   3.829
47512W        W15730   1.290  37.793  14.999
47513W        W15731  42.811  11.804  14.261
47514W        W15732  41.519  20.608  14.277
47515W        W15733  34.486   1.727   1.522
47516W        W15734  43.676  12.573   3.622
47517W        W15735  32.185  43.637   1.600
47518W        W15736   3.845  19.575  12.475
47519W        W15737  12.801  16.180  11.584
47520W        W15738   1.165  18.621   4.235
47521W        W15739   2.755  19.983  11.882
47522W        W15740   0.345  37.168  11.195
47523W        W15741  14.618  26.183   2.862
47524W        W15742  16.617  21.154  11.165
47525W        W15743  23.163  43.297  13.040
47526W        W15744   0.937  17.218  13.255
47527W        W15745   1.828   4.772  14.947
47528W        W15746  19.098  11.385   0.853
47529W        W15747  24.036  33.975  12.543
47530W        W15748  29.394  10.109  12.484
47531W        W15749  42.377  11.365  14.878
47532W        W15750   3.969   7.130   2.745
47533W        W15751   3.405   1.697   4.192
47534W        W15752  14.354  37.038  14.772
47535W        W15753   2.374  35.894  12.566
47536W        W15754  17.755  35.026  13.591
47537W        W15755   0.770  18.212  12.280
47538W        W15756  14.316   7.257   1.572
47539W        W15757  12.777   8.144  14.870
47540W        W15758  25.023  22.085  14.374
47541W        W15759  30.960  33.156  12.153
47542W        W15760   5.647  25.917   2.505
47543W        W15761  42.517  18.222   3.412
47544W        W15762  44.718   9.701  12.665
47545W        W15763  42.803  35.061   1.220
47546W        W15764  36.035   2.363   2.197
47547W        W15765  22.512  32.436  13.087
47548W        W15766  28.702   4.542   1.484
47549W        W15767  44.803  14.106   2.313
47550W        W15768  33.480   0.710  10.831
47551W        W15769  18.957  38.580   4.449
47552W        W15770  35.021  25.493  12.838
47553W        W15771   3.512  23.939  12.633
47554W        W15772  19.544  40.675   4.999
47555W        W15773  28.893  42.515   2.782
47556W        W15774  38.059  24.876  12.304
47557W        W15775  22.267   0.866   2.809
47558W        W15776  20.813  35.942  14.873
47559W        W15777  35.685  15.423   0.021
47560W        W15778  39.021  20.105   4.534
47561W        W15779  11.204  10.163   1.572
47562W        W15780   8.062  13.495  12.827
47563W        W15781   1.390  31.748   3.288
47564W        W15782  35.926  40.922   4.539
47565W        W15783  21.765  19.631   1.726
47566W        W15784  31.471   4.891   1.238
47567W        W15785  40.738   2.423   0.048
47568W        W15786  32.212  13.359  11.102
47569W        W15787  39.186   5.683  12.015
47570W        W15788  12.142  25.726  13.395
47571W        W15789  43.849  23.984   4.167
47572W        W15790  21.673  21.582  11.815
47573W        W15791  39.314   8.660   1.288
47574W        W15792  13.700  35.680  10.610
47575W        W15793   2.376  28.106  10.988
47576W        W15794  40.619   7.681   0.794
47577W        W15795   1.920   6.183   3.271
47578W        W15796   5.471  18.775   3.424
47579W        W15797  28.192   8.068   2.333
47580W        W15798  37.093  14.521  12.050
47581W        W15799  16.679   3.420   4.892
47582W        W15800  34.125  38.093  11.183
47583W        W15801  40.364  12.852   4.016
47584W        W15802   1.361  30.184   2.437
47585W        W15803  15.304   8.311  11.524
47586W        W15804  15.068  22.482  12.968
47587W        W15805   1.377  17.581  11.706
47588W        W15806  13.232  25.439  12.057
47589W        W15807   4.966  43.765   0.222
47590W        W15808  29.357  28.445   2.311
47591W        W15809  10.490   8.969   0.489
47592W        W15810   6.039  37.957  14.451
47593W        W15811  40.582   9.630   4.203
47594W        W15812  42.946  30.369  12.514
47595W        W15813  35.121  23.783   0.258
47596W        W15814  43.487  18.136   1.852
47597W        W15815  43.487  28.942   1.742
47598W        W15816  32.545   7.036  11.175
47599W        W15817  41.027  15.869  10.646
47600W        W15818  34.053  34.462  14.799
47601W        W15819  39.100   2.624  12.138
47602W        W15820  11.590   8.290   2.249
47603W        W15821  33.881  27.997   1.819
47604W        W15822   2.706  44.869  12.502
47605W        W15823  20.015  32.361  11.956
47606W        W15824  44.655  32.559   4.206
47607W        W15825  25.786  13.888  11.892
47608W        W15826  39.281   3.615   0.002
47609W        W15827  19.832   9.646   3.280
47610W        W15828  20.246   4.594  14.758
47611W        W15829  32.623   3.929   1.846
47612W        W15830  26.421   6.016   3.752
47613W        W15831   8.189  43.922  11.165
47614W        W15832  24.320  16.968  10.188
47615W        W15833  36.814  19.648   3.676
47616W        W15834  31.005  39.793  12.573
47617W        W15835  26.402  33.828  13.108
47618W        W15836  26.215  44.469   0.271
47619W        W15837  29.055   3.470  14.595
47620W        W15838  43.766  19.311  13.043
47621W        W15839   1.195  20.898   3.293
47622W        W15840  33.217  14.686  14.327
47623W        W15841  28.011  11.244  11.597
47624W        W15842  12.758  43.353   3.272
47625W        W15843  40.880  12.477   1.441
47626W        W15844  38.940   3.835   2.399
47627W        W15845  30.944   2.287   3.245
47628W        W15846   5.676  41.002  13.986
47629W        W15847  15.765   3.419   0.377
47630W        W15848  10.244  36.357  12.377
47631W        W15849  14.162  25.567   3.709
47632W        W15850  14.533   9.317  10.647
47633W        W15851   3.789  18.079   3.407
47634W        W15852  11.793  31.645  13.988
47635W        W15853   8.077  44.514   4.219
47636W        W15854  20.032  39.022   0.723
47637W        W15855  24.571  42.838   1.395
47638W        W15856  26.570  32.998   2.992
47639W        W15857  14.348  42.400   1.115
47640W        W15858  15.358  33.067   0.032
47641W        W15859  19.733   9.051  14.887
47642W        W15860  39.338  28.675   0.253
47643W        W15861  30.673  31.965  10.950
47644W        W15862  18.080   8.898  11.152
47645W        W15863   3.606  41.038   2.879
47646W        W15864   1.861  28.893   3.217
47647W        W15865  42.260  41.258   3.241
47648W        W15866  41.052  20.829  14.482
47649W        W15867  38.335  26.449   1.418
47650W        W15868  44.340   1.414   4.643
47651W        W15869  42.163  28.033   1.994
47652W        W15870   3.160   8.695   4.285
47653W        W15871  21.457   1.863   4.481
47654W        W15872  24.634  34.807   3.566
47655W        W15873  14.590  14.143   4.165
47656W        W15874   0.838   2.010   3.140
47657W        W15875  43.908   5.570   0.169
47658W        W15876  17.926  30.607   0.830
47659W        W15877   4.538  32.497   1.378
47660W        W15878  16.457  22.200   4.268
47661W        W15879   6.399   2.198   0.067
47662W        W15880  21.952   1.324   2.860
47663W        W15881  43.849  12.172   0.034
47664W        W15882  19.153  20.736  10.952
47665W        W15883   4.456   8.854   4.525
47666W        W15884  24.164  23.794   3.274
47667W        W15885  19.212  37.964   0.884
47668W        W15886  40.317  23.512   1.775
47669W        W15887   3.282  21.249  10.785
47670W        W15888  19.869   8.663   3.694
47671W        W15889  30.527  15.470  13.003
47672W        W15890  13.203  29.132   0.520
47673W        W15891   0.825  40.100  10.352
47674W        W15892   8.776  33.602  11.079
47675W        W15893  17.309  15.822  14.758
47676W        W15894   1.999  29.747  11.605
47677W        W15895  21.674  36.160  14.729
47678W        W15896  31.645   2.662  11.649
47679W        W15897   6.895  20.209   3.793
47680W        W15898  39.395   5.571  10.058
47681W        W15899  41.390   4.969  12.197
47682W        W15900   1.040  42.589  13.014
47683W        W15901  12.625  15.375  13.939
47684W        W15902  40.170  32.658  14.404
47685W        W15903  30.185  27.116   0.302
47686W        W15904   7.297  39.506  10.848
47687W        W15905   3.914  24.531   0.501
47688W        W15906  13.840   5.964  13.362
47689W        W15907  29.202  13.091  11.183
47690W        W15908   2.314   6.625   4.962
47691W        W15909  14.815   5.298  12.974
47692W        W15910   8.467  29.091   0.817
47693W        W15911  23.378  16.774  11.460
47694W        W15912  35.915  40.248   2.162
47695W        W15913  12.142  38.005  10.564
47696W        W15914  20.770  37.874  14.006
47697W        W15915   1.547  28.422   2.778
47698W        W15916  15.891   1.236   1.836
47699W        W15917  16.250  35.029  12.989
47700W        W15918  32.844  36.858  10.748
47701W        W15919  16.586  17.580  12.576
47702W        W15920   5.494  27.436  12.148
47703W        W15921  28.420  33.089  14.947
47704W        W15922   9.677  32.611   0.304
47705W        W15923  30.955   5.760   4.079
47706W        W15924   2.894  42.497   2.790
47707W        W15925   3.956   7.122   1.901
47708W        W15926   8.444  44.618  13.959
47709W        W15927   3.133  30.577  14.494
47710W        W15928  16.106  15.069  10.332
47711W        W15929  39.084  22.075   4.751
47712W        W15930  19.696   5.917  14.748
47713W        W15931  10.136  31.333   0.748
47714W        W15932  10.194  10.467  14.001
47715W        W15933  14.779   3.720  11.184
47716W        W15934  28.449  44.978   4.770
47717W        W15935  34.482  29.834   2.872
47718W        W15936  12.363  43.552   1.770
47719W        W15937  21.883  20.948   3.122
47720W        W15938  43.832  18.415   3.230
47721W        W15939  11.125  36.036   0.107
47722W        W15940   1.479  22.157  14.841
47723W        W15941  20.422  27.144   1.711
47724W        W15942  43.927  19.129   0.793
47725W        W15943  10.566   2.470  11.216
47726W        W15944  13.232  16.291   4.318
47727W        W15945  40.911  29.600   1.318
47728W        W15946  40.389   7.089   4.094
47729W        W15947   7.359   0.794  14.960
47730W        W15948  34.540  37.088   4.474
47731W        W15949  42.479  25.555  13.633
47732W        W15950  19.285  41.317   1.099
47733W        W15951  26.496  19.013   4.451
47734W        W15952  41.830  15.304  12.966
47735W        W15953  28.963  24.280   5.724
47736W        W15954  18.275  32.338   4.861
47737W        W15955  13.833  37.658  11.522
47738W        W15956  15.222  21.151  12.646
47739W        W15957  18.014   1.230   5.112
47740W        W15958  25.907  42.314   3.795
47741W        W15959   7.017  41.577   0.376
47742W        W15960   9.737  24.151  11.172
47743W        W15961   3.291   0.148  11.837
47744W        W15962   1.825  41.278   1.197
47745W        W15963  30.995   0.718  14.299
47746W        W15964  33.001  30.167  10.964
47747W        W15965   8.093  36.558   2.856
47748W        W15966  41.256  37.781  12.398
47749W        W15967  33.680  44.981   4.232
47750W        W15968  37.207   6.234   3.485
47751W        W15969  25.670   8.883  13.572
47752W        W15970  13.664  10.564  13.266
47753W        W15971  14.613  17.637  11.054
47754W        W15972   9.224   4.864  14.917
47755W        W15973  23.445   1.236  13.064
47756W        W15974   1.245  14.662   0.813
47757W        W15975   3.927  16.179  13.013
47758W        W15976  37.156  15.898   4.972
47759W        W15977   7.832  21.020  11.525
47760W        W15978  14.178  40.120   1.481
47761W        W15979  38.271   1.376  13.546
47762W        W15980  13.908  32.135   1.372
47763W        W15981  42.028  27.008  10.761
47764W        W15982  41.762  21.205   3.139
47765W        W15983  33.148  21.810  12.156
47766W        W15984  44.427   5.287  14.851
47767W        W15985  24.553  21.935   4.489
47768W        W15986  36.470  10.873   1.687
47769W        W15987  25.726  28.316   1.987
47770W        W15988  11.292   2.984  10.716
47771W        W15989   6.790  36.695  12.138
47772W        W15990   5.573   6.654  10.666
47773W        W15991  42.987  16.809  11.557
47774W        W15992  19.089  11.859  11.145
47775W        W15993   6.817  41.401  12.625
47776W        W15994  34.968  22.231  10.712
47777W        W15995  40.003  24.099  10.455
47778W        W15996   2.830  36.555  10.676
47779W        W15997  12.707   4.479   2.622
47780W        W15998  22.756  43.470   2.015
47781W        W15999   2.643  18.822  10.756
47782W        W16000  14.600  44.066  11.518
47783W        W16001  33.628  31.746   4.105
47784W        W16002   1.751  38.974   0.852
47785W        W16003  13.383   4.298   1.266
47786W        W16004  23.321  41.040  12.355
47787W        W16005   9.709  32.300  12.783
47788W        W16006  12.168   9.304  12.211
47789W        W16007  27.547  29.607  14.346
47790W        W16008  25.951  17.258  10.743
47791W        W16009  41.054  37.284   1.242
47792W        W16010  30.592   3.448  12.106
47793W        W16011   4.174  41.562   4.497
47794W        W16012   7.644   5.550   1.877
47795W        W16013   5.889  41.392   3.291
47796W        W16014  32.597  39.400  14.350
47797W        W16015  18.047  31.533  12.474
47798W        W16016  43.023  32.276   5.131
47799W        W16017  11.814  40.056  10.941
47800W        W16018  42.811   8.647  13.919
47801W        W16019  27.104  21.679   0.734
47802W        W16020   9.507  38.064  14.087
47803W        W16021   5.273   1.211  13.324
47804W        W16022  17.282  27.302  13.472
47805W        W16023  18.514  19.878   0.347
47806W        W16024  31.801  26.021   5.119
47807W        W16025  29.360  34.982  14.935
47808W        W16026  28.379  27.470  12.519
47809W        W16027   6.851  28.360  12.676
47810W        W16028  16.741   0.279  13.991
47811W        W16029  29.911  40.787  11.621
47812W        W16030   1.828  34.815  11.562
47813W        W16031   5.810  21.151   1.047
47814W        W16032  29.639  11.342  14.254
47815W        W16033  20.987  44.048  13.007
47816W        W16034  31.460   3.475  11.453
47817W        W16035  12.352  38.073   2.215
47818W        W16036  18.742  21.313   4.344
47819W        W16037   4.709  32.438   1.927
47820W        W16038  21.314  30.595   2.512
47821W        W16039  28.921  29.098   1.701
47822W        W16040   9.985   2.348  14.049
47823W        W16041  27.936   7.634   2.165
47824W        W16042   2.474  27.490   3.818
47825W        W16043  15.290  13.641  14.393
47826W        W16044   1.986  41.528  13.832
47827W        W16045  35.646  44.286  13.851
47828W        W16046  38.997  21.686   0.423
47829W        W16047  18.244  20.262   3.343
47830W        W16048  44.919  35.079   0.382
47831W        W16049  25.351   7.950   2.045
47832W        W16050   2.692  32.565  10.896
47833W        W16051  44.799  21.142   1.247
47834W        W16052  28.077  10.450   2.835
47835W        W16053  39.866  26.889  11.218
47836W        W16054   4.322  16.833   0.454
47837W        W16055  36.338  32.894   4.792
47838W        W16056  16.314  31.972   5.008
47839W        W16057  26.779  36.305  12.854
47840W        W16058  15.666   5.263   0.934
47841W        W16059  36.567  38.807   4.376
47842W        W16060  26.065  36.814   0.769
47843W        W16061  11.613  25.960   1.984
47844W        W16062  39.759  10.885   0.344
47845W        W16063  42.088  28.162   4.110
47846W        W16064  44.404   9.326  12.542
47847W        W16065   9.124  19.613  11.103
47848W        W16066  29.661  27.932  12.926
47849W        W16067  31.013  17.268   1.779
47850W        W16068   5.914   0.982  14.995
47851W        W16069   5.121  13.747  12.446
47852W        W16070  33.887  22.601  14.837
47853W        W16071  38.567  44.069  11.076
47854W        W16072  18.546   1.533   0.299
47855W        W16073  16.142  23.140   1.525
47856W        W16074  22.146  26.876  12.411
47857W        W16075  41.135   0.066  11.540
47858W        W16076  15.907  22.628   5.063
47859W        W16077  36.748  35.148   1.259
47860W        W16078   6.429  41.340   3.660
47861W        W16079   8.898  17.047  10.141
47862W        W16080   7.140  12.972  11.716
47863W        W16081  35.989  44.017   3.862
47864W        W16082   0.010  34.264   2.770
47865W        W16083  34.270  37.305  12.141
47866W        W16084  10.895  12.062   1.962
47867W        W16085  29.702  16.484  10.419
47868W        W16086  21.656   7.708   2.993
47869W        W16087  37.389  25.518   0.982
47870W        W16088  34.456  11.514  13.394
47871W        W16089  23.185  13.111  10.848
47872W        W16090   6.577  18.006  10.702
47873W        W16091  39.945  15.198   3.382
47874W        W16092   2.510  38.749   3.369
47875W        W16093  26.015  20.280  12.486
47876W        W16094  10.665  25.180   3.290
47877W        W16095  24.115  31.125   0.037
47878W        W16096  26.566  29.451   4.062
47879W        W16097   5.118  24.157   1.070
47880W        W16098  24.381  28.523  14.472
47881W        W16099  34.384  21.111  11.975
47882W        W16100  33.860  33.737   3.711
47883W        W16101  14.959   3.744   0.645
47884W        W16102  38.098  23.289  12.328
47885W        W16103  22.361  27.377  12.436
47886W        W16104  34.720  27.651   1.831
47887W        W16105  23.866  35.480   4.840
47888W        W16106  15.114  24.943  12.346
47889W        W16107  40.593   8.464   2.265
47890W        W16108  14.139  37.182  12.218
47891W        W16109  19.378   2.250  11.061
47892W        W16110  20.534  33.490   5.115
47893W        W16111  15.193  10.146  14.726
47894W        W16112  43.134   0.903   4.924
47895W        W16113  33.767  11.727  12.067
47896W        W16114  17.645   1.216  10.708
47897W        W16115  19.683  42.868  14.812
47898W        W16116  32.507  23.096  13.099
47899W        W16117  14.898  44.713   1.434
47900W        W16118  24.516  32.919  11.339
47901W        W16119  29.699  41.642   0.469
47902W        W16120  23.926  29.457  13.350
47903W        W16121  16.843  37.498   3.863
47904W        W16122  23.987   1.565   2.634
47905W        W16123   3.673   4.373  14.443
47906W        W16124  19.687  18.177   2.152
47907W        W16125  23.272  32.962   2.688
47908W        W16126  25.704  18.067  11.161
47909W        W16127  12.673  18.129  11.151
47910W        W16128  38.805  20.326  10.687
47911W        W16129  32.314  28.515   3.522
47912W        W16130  21.204  44.810   2.298
47913W        W16131  20.412   8.823   2.286
47914W        W16132  43.185  10.829  13.908
47915W        W16133  30.183  32.159   2.286
47916W        W16134  39.910  38.218   1.279
47917W        W16135  36.734   0.250  14.248
47918W        W16136  24.690   9.126  14.086
47919W        W16137  31.994  40.899  14.878
47920W        W16138   8.881  40.358  10.754
47921W        W16139  24.971  24.300   4.470
47922W        W16140   1.380  36.039   3.131
47923W        W16141  15.512  35.084   1.300
47924W        W16142  10.199   6.777  10.701
47925W        W16143  22.399  21.053   3.189
47926W        W16144  26.449  43.973  13.515
47927W        W16145  23.224   1.180   2.328
47928W        W16146  34.147  44.271   3.711
47929W        W16147   6.784  11.428  12.938
47930W        W16148   7.328   0.942   0.482
47931W        W16149  44.324  40.022   3.179
47932W        W16150  16.354  10.322   0.445
47933W        W16151  33.670  23.494  10.536
47934W        W16152  22.292  40.694   4.530
47935W        W16153   1.850   2.794   1.771
47936W        W16154   9.572  14.510   1.206
47937W        W16155  10.569  20.068   2.717
47938W        W16156  39.842  10.699  12.984
47939W        W16157   5.291  35.098   1.905
47940W        W16158   2.266   0.421   4.974
47941W        W16159  13.298  29.907  11.219
47942W        W16160   1.313  21.546   4.083
47943W        W16161  35.842  26.479   1.374
47944W        W16162  16.173   3.990   3.594
47945W        W16163  10.711  24.747   1.570
47946W        W16164  39.503  31.102   3.169
47947W        W16165   6.848  18.617  13.159
47948W        W16166  27.224  37.575   3.687
47949W        W16167  44.831  18.599   4.774
47950W        W16168   8.159  33.140   0.916
47951W        W16169  28.817   6.952  14.550
47952W        W16170  14.568  40.261   0.617
47953W        W16171   3.384   7.153   3.312
47954W        W16172  39.078  32.034   3.180
47955W        W16173  20.491  14.631   2.291
47956W        W16174  40.399  19.342  11.938
47957W        W16175   6.203  12.132   4.900
47958W        W16176   7.912  13.354  11.605
47959W        W16177  38.014   1.753   2.261
47960W        W16178  19.667  42.341   3.646
47961W        W16179  20.158   1.023  13.818
47962W        W16180  31.890  32.463   2.830
47963W        W16181  44.807  11.512   2.373
47964W        W16182   7.289  39.340   4.971
47965W        W16183  26.512  14.727   1.809
47966W        W16184  24.699  10.279  14.705
47967W        W16185  29.057   3.217   0.626
47968W        W16186  19.910  43.972   0.002
47969W        W16187  23.953   8.907  11.214
47970W        W16188  38.358   6.327  11.554
47971W        W16189  14.808  35.052   0.725
47972W        W16190   8.463   3.444  12.838
47973W        W16191   9.170  25.924   2.241
47974W        W16192  22.396   3.447   0.722
47975W        W16193  12.693  36.878  13.121
47976W        W16194  13.194  28.435  12.147
47977W        W16195  44.263  30.428  11.203
47978W        W16196   5.240  28.125  12.812
47979W        W16197  35.484  33.384  12.299
47980W        W16198   4.620   2.757  13.503
47981W        W16199  43.385  42.370  10.562
47982W        W16200  41.017   0.446  12.933
47983W        W16201  32.685   3.824   2.340
47984W        W16202   3.285   1.474  13.394
47985W        W16203  27.130   1.970  13.934
47986W        W16204  15.635   4.072   4.724
47987W        W16205  29.470  43.360   0.948
47988W        W16206  18.163   2.805   0.439
47989W        W16207  24.271  39.357   0.231
47990W        W16208  35.503  26.910   4.624
47991W        W16209  38.753  12.413   0.385
47992W        W16210  13.342  41.620   2.150
47993W        W16211  34.218   4.840   1.753
47994W        W16212   9.640   4.722  14.238
47995W        W16213  11.108  27.146  13.575
47996W        W16214  34.738  25.522   4.533
47997W        W16215  32.385  39.922   2.775
47998W        W16216  43.807  33.186   0.180
47999W        W16217  31.067   7.443   3.643
48000W        W16218  37.008  26.730  12.313
48001W        W16219  19.780  15.126   4.133
48002W        W16220  43.746   3.331   4.556
48003W        W16221  23.551   5.246   0.467
48004W        W16222   0.057   0.369   1.009
48005W        W16223   8.066  39.224   4.501
48006W        W16224   5.445   5.593  10.746
48007W        W16225  14.994  30.626   4.985
48008W        W16226   0.518   6.363  10.359
48009W        W16227  11.429  18.677   1.775
48010W        W16228  32.482  24.063  10.692
48011W        W16229  16.733  20.945  13.980
48012W        W16230  21.042  15.117  12.104
48013W        W16231   4.280  14.187   1.400
48014W        W16232  37.497  19.338   3.677
48015W        W16233  17.031  33.554   2.350
48016W        W16234   5.818  34.901  12.291
48017W        W16235  21.140  22.177   2.681
48018W        W16236   7.426  32.497   2.518
48019W        W16237   0.306  33.963  14.533
48020W        W16238  29.928   6.436  11.932
48021W        W16239  23.768   7.944  13.313
48022W        W16240  16.525   3.395  14.851
48023W        W16241   2.399  30.401   3.768
48024W        W16242  42.256  38.046  14.287
48025W        W16243  24.953  10.672  12.497
48026W        W16244  12.355  14.230   5.047
48027W        W16245  42.364  15.185   4.575
48028W        W16246  32.733  30.770   4.590
48029W        W16247  43.822  39.885   3.136
48030W        W16248  35.943  25.218  12.924
48031W        W16249  40.875  10.024   2.814
48032W        W16250  12.862  31.777  11.281
48033W        W16251  16.818   0.782   4.181
48034W        W16252  27.068  42.376  14.805
48035W        W16253   1.381  12.280  14.345
48036W        W16254  38.087  27.335  12.898
48037W        W16255  19.800   8.749   2.452
48038W        W16256  31.209  20.901  14.837
48039W        W16257  38.712  19.820   5.216
48040W        W16258  12.543  38.506  11.101
48041W        W16259  37.395  31.022  14.342
48042W        W16260  26.973  32.847   4.045
48043W        W16261   2.908  29.887  11.689
48044W        W16262   8.323  10.249   2.896
48045W        W16263   7.927  31.915  11.669
48046W        W16264  42.772   3.987  11.909
48047W        W16265  23.589  11.796   2.952
48048W        W16266  39.057   3.462  11.190
48049W        W16267  14.816  12.616   4.062
48050W        W16268  27.046  21.710   2.580
48051W        W16269  37.096  26.996  13.864
48052W        W16270  35.414  33.322   2.386
48053W        W16271   3.010  41.547  11.415
48054W        W16272   3.829  23.341   3.619
48055W        W16273  21.638  26.442   0.381
48056W        W16274  23.108   3.256  10.701
48057W        W16275  10.636  31.444   0.795
48058W        W16276   0.363  19.960   4.174
48059W        W16277  27.152  24.521  11.695
48060W        W16278  30.870   2.047  10.677
48061W        W16279  16.682  30.875  11.440
48062W        W16280  16.078  39.332   4.321
48063W        W16281  41.406  32.617   0.221
48064W        W16282  43.531  33.274  11.442
48065W        W16283  20.609  21.527  13.019
48066W        W16284  18.578  18.240   0.825
48067W        W16285  27.979  39.384  14.281
48068W        W16286  43.193  20.322   1.228
48069W        W16287  30.003   2.475  14.250
48070W        W16288  11.670  26.731   1.526
48071W        W16289  44.288  29.545   2.623
48072W        W16290  29.464  14.059   4.900
48073W        W16291  20.673  42.550  11.646
48074W        W16292  27.381  24.803  14.431
48075W        W16293  11.884   2.416   3.800
48076W        W16294  43.363  14.207   4.056
48077W        W16295   9.092  42.945  11.924
48078W        W16296  40.480   4.683  11.645
48079W        W16297   1.344  26.941  14.019
48080W        W16298  26.536  34.903   1.715
48081W        W16299  41.724  21.164   1.341
48082W        W16300   8.851  37.042   3.203
48083W        W16301  37.947   2.404   0.712
48084W        W16302  28.478  33.358  13.834
48085W        W16303  43.040  13.697   3.135
48086W        W16304   8.313   2.702   1.434
48087W        W16305  26.405   3.480   5.165
48088W        W16306  11.286   6.754  13.201
48089W        W16307  23.607   5.312   3.258
48090W        W16308  42.421  33.960   1.453
48091W        W16309  29.081   6.911  10.647
48092W        W16310  15.813  20.789   3.608
48093W        W16311   4.270  41.335  10.240
48094W        W16312  38.357   3.495   4.573
48095W        W16313  27.648  26.971  12.557
48096W        W16314  11.234  17.622   4.086
48097W        W16315  16.153   2.999  10.458
48098W        W16316   9.297  19.143  10.921
48099W        W16317  38.587  20.664  11.950
48100W        W16318  38.761  19.781  10.969
48101W        W16319  28.511   6.195  10.474
48102W        W16320  22.036  29.209  13.457
48103W        W16321   3.762   7.121  12.361
48104W        W16322  31.543  23.472  12.776
48105W        W16323   8.868  20.011   3.163
48106W        W16324  14.199  23.996  10.733
48107W        W16325  15.827  13.252   3.872
48108W        W16326   6.965  28.423  10.734
48109W        W16327  24.618  26.726   2.023
48110W        W16328  14.093  20.175  10.490
48111W        W16329  11.667  15.736   1.500
48112W        W16330  34.078  13.849   0.529
48113W        W16331  30.649  10.749  12.457
48114W        W16332  44.049  35.002   1.326
48115W        W16333  13.836  19.703  12.000
48116W        W16334  37.267  29.798  13.600
48117W        W16335  27.997  39.784  13.676
48118W        W16336  42.330  41.546  14.428
48119W        W16337   7.121  32.538  12.964
48120W        W16338   1.402  22.961   0.439
48121W        W16339  44.053   8.385   2.316
48122W        W16340  17.763  37.422   3.319
48123W        W16341  33.655  26.929  12.349
48124W        W16342   8.827   3.745   3.327
48125W        W16343  24.472  40.023   2.663
48126W        W16344   9.687  13.408   1.844
48127W        W16345  16.143   9.906  12.013
48128W        W16346  33.173  27.728   1.364
48129W        W16347  36.272  32.644  11.083
48130W        W16348  37.812  44.836   3.847
48131W        W16349  31.908  31.819   1.682
48132W        W16350  14.086  18.722   2.368
48133W        W16351  11.198  41.870   4.862
48134W        W16352  14.840  20.189   1.398
48135W        W16353  27.354  43.751   2.149
48136W        W16354  15.061  34.134  11.526
48137W        W16355  35.954  19.153   3.052
48138W        W16356  42.848   6.875   3.742
48139W        W16357  25.589  43.369   1.014
48140W        W16358  21.517  37.498  11.111
48141W        W16359   2.755  14.749   4.103
48142W        W16360   6.199  20.824  11.504
48143W        W16361  43.545  34.573  10.234
48144W        W16362  15.196  42.553  13.894
48145W        W16363   4.229  22.703   1.313
48146W        W16364  22.694  24.947  13.406
48147W        W16365   2.932   8.897  14.866
48148W        W16366  28.180  42.842   1.775
48149W        W16367  26.907  10.161  13.334
48150W        W16368  37.180  24.164   2.246
48151W        W16369  17.696  31.089   2.815
48152W        W16370  26.707  41.569   1.310
48153W        W16371  11.095  15.245   0.017
48154W        W16372  13.376   8.118   1.629
48155W        W16373  10.449  25.428  10.854
48156W        W16374   6.748  25.107   2.198
48157W        W16375  24.659  26.603  12.397
48158W        W16376  24.550  36.498  10.721
48159W        W16377  28.047  28.692  13.083
48160W        W16378   3.045  15.172  12.832
48161W        W16379  31.773  13.689  12.197
48162W        W16380  41.864   0.577   1.350
48163W        W16381   7.019  35.966   2.895
48164W        W16382  27.777  34.520  10.664
48165W        W16383  14.322   5.292   3.388
48166W        W16384  35.434   2.050  10.397
48167W        W16385  12.612   1.915   3.548
48168W        W16386  41.042  36.901   1.863
48169W        W16387  30.352   2.803  14.560
48170W        W16388   9.201  13.741   2.210
48171W        W16389  15.481  38.730  11.463
48172W        W16390  44.189  32.749  11.601
48173W        W16391  34.287  43.573   3.582
48174W        W16392  14.971  15.721   3.704
48175W        W16393  33.579  14.077   2.145
48176W        W16394  28.946  37.455   0.143
48177W        W16395  24.242  43.371   3.450
48178W        W16396  35.991  31.328  13.505
48179W        W16397  31.618  30.471   0.644
48180W        W16398  14.548  17.132   1.683
48181W        W16399  30.114  18.868   3.094
48182W        W16400  19.953  19.136  14.885
48183W        W16401   0.513  18.612  12.542
48184W        W16402  35.693  19.076   1.263
48185W        W16403  34.536  13.092   1.315
48186W        W16404  22.610  23.993  11.141
48187W        W16405  27.924  15.855   1.264
48188W        W16406   5.886  12.527  12.077
48189W        W16407  35.111  18.866   0.504
48190W        W16408  14.321   7.943   3.262
48191W        W16409  20.547   4.828  12.104
48192W        W16410   3.321  37.653  10.956
48193W        W16411  30.669  27.265  10.679
48194W        W16412  31.215  18.660  11.413
48195W        W16413  10.206  10.695   1.937
48196W        W16414   6.285  33.972   4.107
48197W        W16415  26.109  14.941  14.529
48198W        W16416  29.659  34.469   3.234
48199W        W16417  31.969  38.519   3.720
48200W        W16418  36.470  43.269   3.216
48201W        W16419  40.336   6.306   0.811
48202W        W16420  21.156  34.898   2.304
48203W        W16421  33.028  31.429  11.200
48204W        W16422  41.481   0.253  11.983
48205W        W16423  36.584   4.851  11.431
48206W        W16424  25.829  12.280  13.771
48207W        W16425  13.894  25.779  12.941
48208W        W16426  27.528  19.156   4.067
48209W        W16427  27.110  14.403   3.227
48210W        W16428  16.821  10.106  10.695
48211W        W16429   4.329  41.756  12.346
48212W        W16430  25.482   2.418  11.775
48213W        W16431  30.742   8.386   1.663
48214W        W16432   7.796  15.809   0.770
48215W        W16433  20.476  24.175   4.683
48216W        W16434  30.626  40.863   2.437
48217W        W16435   8.876  38.845  11.599
48218W        W16436  36.551  12.756  12.095
48219W        W16437  44.245  18.791   1.007
48220W        W16438  20.449   8.120  13.010
48221W        W16439   8.159  33.201   2.690
48222W        W16440  27.445   9.456   3.423
48223W        W16441  21.872  33.926   0.365
48224W        W16442  35.850  40.774   3.092
48225W        W16443  25.421  27.487   3.470
48226W        W16444  42.390  27.627  13.931
48227W        W16445  29.922  32.967   0.230
48228W        W16446  10.251  21.119  10.862
48229W        W16447   2.911  19.148  14.388
48230W        W16448   5.463  30.615   2.470
48231W        W16449  17.163  38.820   5.045
48232W        W16450  24.584   5.193  10.981
48233W        W16451  12.401  19.671   2.392
48234W        W16452  25.786  33.941  10.799
48235W        W16453  26.782   1.227  11.506
48236W        W16454  42.470  27.550  12.541
48237W        W16455  29.964   7.287  14.321
48238W        W16456  34.891  24.674   0.664
48239W        W16457   0.523   0.546   3.948
48240W        W16458  35.072  14.695  11.536
48241W        W16459  30.442  10.111   3.752
48242W        W16460   9.308  10.865  12.887
48243W        W16461  39.461  38.434   0.550
48244W        W16462   8.387  36.420   1.904
48245W        W16463  41.415   6.343  11.189
48246W        W16464  37.340  29.900  12.554
48247W        W16465  28.789  34.617  13.430
48248W        W16466  23.552  19.534  10.655
48249W        W16467  23.497   8.883   1.247
48250W        W16468   1.288  15.926   3.978
48251W        W16469   7.235  30.552  12.448
48252W        W16470   7.266  24.685  11.998
48253W        W16471  32.292  42.826  12.606
48254W        W16472  14.606  26.740  12.384
48255W        W16473  30.080  22.987   2.921
48256W        W16474   2.335   2.311  14.799
48257W        W16475  38.076  14.767   0.968
48258W        W16476  26.682  24.282  11.628
48259W        W16477   6.641  28.071  12.323
48260W        W16478  44.734  23.472  10.714
48261W        W16479  13.148   5.731  12.126
48262W        W16480  24.405  30.063   2.887
48263W        W16481   6.252  21.818   4.609
48264W        W16482  16.809  13.635   3.655
48265W        W16483   8.251  28.448   1.563
48266W        W16484  12.760  26.558   1.783
48267W        W16485  15.711  34.909   0.844
48268W        W16486  23.370  30.477   4.749
48269W        W16487  20.756  14.111  10.150
48270W        W16488  14.831  40.594  12.824
48271W        W16489  14.648  11.407  13.485
48272W        W16490   2.209  44.388   9.997
48273W        W16491  17.849  16.710   9.986
48274W        W16492  35.518   9.301   1.371
48275W        W16493  23.471  11.369  14.321
48276W        W16494  34.677  36.476   0.746
48277W        W16495  43.584  27.178  12.149
48278W        W16496   4.009  27.681  14.935
48279W        W16497  23.081  33.644  13.816
48280W        W16498  34.820  32.522   2.290
48281W        W16499   0.331  25.365   4.161
48282W        W16500  40.357  42.476  14.028
48283W        W16501  27.531  12.488   0.837
48284W        W16502  37.448  38.908   2.846
48285W        W16503  43.036   7.019   0.651
48286W        W16504  34.905   3.202  10.106
48287W        W16505  16.589   8.741  12.951
48288W        W16506   9.827  12.782   2.806
48289W        W16507  43.967  17.027  14.996
48290W        W16508  31.677  25.656  14.454
48291W        W16509  30.420  12.600  12.108
48292W        W16510  41.857  23.741   0.999
48293W        W16511  36.996   5.753   0.246
48294W        W16512  40.366   0.072  14.060
48295W        W16513  43.685  35.092  10.370
48296W        W16514  15.776  35.878   0.108
48297W        W16515  18.715  44.118  13.231
48298W        W16516  24.858   3.457   4.600
48299W        W16517  30.228   8.969  12.570
48300W        W16518   3.235  41.840   3.280
48301W        W16519  12.732  21.699   3.722
48302W        W16520  26.582  17.832  14.090
48303W        W16521  10.571   8.845  11.175
48304W        W16522  41.047   1.702   2.287
48305W        W16523   3.326  27.165   4.178
48306W        W16524  33.437  39.905   2.765
48307W        W16525   6.870   7.872   3.944
48308W        W16526  21.120   8.491  10.436
48309W        W16527  17.173  36.079   0.913
48310W        W16528  21.033   3.927   2.394
48311W        W16529  19.481  40.929   0.555
48312W        W16530  44.077  37.091  14.925
48313W        W16531  38.625  13.617  11.645
48314W        W16532  28.477  43.532  12.815
48315W        W16533  27.879  39.937   0.922
48316W        W16534  37.115  42.264   2.709
48317W        W16535  10.197   7.612   0.024
48318W        W16536   2.614  33.629  14.808
48319W        W16537  21.802  14.361   0.274
48320W        W16538  11.883   9.646   0.206
48321W        W16539  14.264  21.006   1.870
48322W        W16540   6.842  22.124  13.138
48323W        W16541   4.093  40.354  11.039
48324W        W16542  32.459  40.183  14.958
48325W        W16543  17.334  10.342  12.830
48326W        W16544   0.182  32.116   2.416
48327W        W16545  22.220  43.939  13.964
48328W        W16546   7.746  18.978  10.608
48329W        W16547   8.849  21.640  11.199
48330W        W16548  40.259   6.407   2.490
48331W        W16549  18.632  40.747   3.751
48332W        W16550  14.514  38.417  11.615
48333W        W16551   6.555   4.834   3.648
48334W        W16552  44.867   1.501  13.834
48335W        W16553  24.002   3.126   3.569
48336W        W16554  26.226  26.733   0.496
48337W        W16555  14.725  43.284   9.805
48338W        W16556  40.816  10.325   9.999
48339W        W16557  15.365  23.428  13.210
48340W        W16558  14.952  25.561  14.252
48341W        W16559  20.623  22.183   3.143
48342W        W16560  41.635  44.046  14.443
48343W        W16561  22.631  19.268   0.204
48344W        W16562   1.376  19.346  12.069
48345W        W16563  22.307  44.511  12.984
48346W        W16564  11.666  21.328   3.262
48347W        W16565  26.004  18.869  13.047
48348W        W16566  24.901  33.825  12.146
48349W        W16567   5.957  19.097  14.250
48350W        W16568  23.617  34.582  10.285
48351W        W16569  34.923   3.186   2.879
48352W        W16570  32.648  12.358   4.206
48353W        W16571  35.625  32.407  10.505
48354W        W16572  44.814  13.988  11.123
48355W        W16573  14.490  21.521  14.265
48356W        W16574   0.945  25.946  11.977
48357W        W16575   1.699  15.765   1.873
48358W        W16576   1.891  44.331   2.391
48359W        W16577  21.431  33.137  13.463
48360W        W16578  35.004  41.312  13.611
48361W        W16579  40.429  29.942   3.187
48362W        W16580  27.500  24.279   0.949
48363W        W16581  29.652  21.202   0.679
48364W        W16582  10.646  36.027  11.139
48365W        W16583  31.141  11.323  10.583
48366W        W16584  44.576   8.092  12.802
48367W        W16585  32.471  22.100   4.173
48368W        W16586   8.887  30.963   2.837
48369W        W16587   4.409  24.527   2.238
48370W        W16588  18.684  32.516  10.497
48371W        W16589  21.796  35.063  11.660
48372W        W16590  16.648   3.748  14.458
48373W        W16591  12.694  11.714   0.203
48374W        W16592  36.322  29.985   3.190
48375W        W16593  17.365  22.044  13.494
48376W        W16594  13.940  43.752   2.685
48377W        W16595  41.078  44.403   1.849
48378W        W16596   0.063  23.610   0.456
48379W        W16597   8.773  44.326   2.004
48380W        W16598  35.983   4.703  12.927
48381W        W16599  36.457  17.396   0.789
48382W        W16600  33.445  21.829   3.722
48383W        W16601  11.776  20.112  12.007
48384W        W16602   3.811  31.585  11.097
48385W        W16603   7.381   5.917  11.647
48386W        W16604  41.911  27.844   3.754
48387W        W16605  12.313  30.590  12.938
48388W        W16606  38.742  27.957   2.467
48389W        W16607   0.077  30.545  11.520
48390W        W16608   1.311  31.039  14.843
48391W        W16609  44.224   8.853  13.423
48392W        W16610   2.069  18.072  14.684
48393W        W16611   4.226  29.972   4.557
48394W        W16612  12.646   0.464  13.577
48395W        W16613  24.989  44.521  11.349
48396W        W16614  42.070  22.466   2.330
48397W        W16615  26.172  10.850   2.428
48398W        W16616  38.551  29.582   3.742
48399W        W16617  36.788  29.402  11.049
48400W        W16618   6.161  37.856  13.128
48401W        W16619   6.701  22.761  14.018
48402W        W16620   0.462  10.259  10.457
48403W        W16621   9.134  33.240  13.122
48404W        W16622  22.042  18.042   3.675
48405W        W16623  14.403  13.628   3.689
48406W        W16624  18.396  37.971  14.874
48407W        W16625  38.512  29.249  12.639
48408W        W16626  36.170  23.898   0.567
48409W        W16627  11.661  22.579   3.815
48410W        W16628  27.672  16.993   3.182
48411W        W16629  41.224   8.310  14.789
48412W        W16630  26.382  37.911   2.790
48413W        W16631  25.535  29.685  10.732
48414W        W16632   9.147  29.898  14.465
48415W        W16633  12.027  38.351  10.995
48416W        W16634  17.094   5.900   0.961
48417W        W16635  30.390  21.787   0.417
48418W        W16636  44.057  22.706   1.289
48419W        W16637  43.017  32.096   4.644
48420W        W16638  21.046   5.350  13.294
48421W        W16639   0.682   7.750   0.482
48422W        W16640  18.262  38.587  10.617
48423W        W16641   3.839  21.141  14.955
48424W        W16642  19.545  38.065  11.514
48425W        W16643  28.888  26.726  12.832
48426W        W16644  15.641  40.522   0.423
48427W        W16645  26.502  13.950  11.484
48428W        W16646  35.001  20.867   1.040
48429W        W16647  14.666   6.725  12.959
48430W        W16648  13.458  13.699  13.800
48431W        W16649  10.461   2.699  13.393
48432W        W16650  39.107   5.193  10.855
48433W        W16651  39.852  31.371   4.294
48434W        W16652  21.641   0.068   3.234
48435W        W16653  13.214  28.958  13.051
48436W        W16654   1.002  17.401   0.810
48437W        W16655   9.212  23.586  13.894
48438W        W16656  13.474  28.185  10.806
48439W        W16657   2.005  40.941   0.826
48440W        W16658   2.690  42.469  14.494
48441W        W16659  33.536   8.748  10.925
48442W        W16660  43.380  26.687  13.419
48443W        W16661  27.019  23.480   3.669
48444W        W16662  15.249  14.239  10.636
48445W        W16663  44.766  42.895  10.052
48446W        W16664  31.707  41.006   3.843
48447W        W16665  19.811  12.748   2.009
48448W        W16666   4.945  26.526  11.187
48449W        W16667  33.407  33.921  13.034
48450W        W16668  44.789   8.394   4.874
48451W        W16669  42.469  24.126  14.206
48452W        W16670  28.190  19.797   4.532
48453W        W16671  14.897  27.726   1.952
48454W        W16672  12.319  30.864   1.031
48455W        W16673  18.918  18.976   1.346
48456W        W16674  17.260  11.218   2.848
48457W        W16675   9.912  44.334  14.400
48458W        W16676  40.247  25.273  12.810
48459W        W16677  12.201  24.265  10.892
48460W        W16678  44.974  17.511  12.542
48461W        W16679  39.065   8.419   4.035
48462W        W16680  29.656  26.595  10.290
48463W        W16681  42.715  29.098  12.833
48464W        W16682  38.989  42.781  10.708
48465W        W16683  12.667  11.574  10.589
48466W        W16684  33.884  26.960  14.366
48467W        W16685   0.194  10.417   2.854
48468W        W16686   6.915  11.608  11.602
48469W        W16687  40.439  19.805  12.155
48470W        W16688  12.327  10.188  12.062
48471W        W16689  36.334  14.001   0.235
48472W        W16690   6.043  29.555   4.942
48473W        W16691  24.993  23.062  12.887
48474W        W16692   2.792  35.519  14.579
48475W        W16693  14.112  41.069  12.423
48476W        W16694  27.042   7.730  12.927
48477W        W16695   3.636   0.916  14.270
48478W        W16696  23.174  26.212   0.469
48479W        W16697  30.101  19.047  14.533
48480W        W16698  17.746   1.564   0.767
48481W        W16699   4.425  12.378   2.275
48482W        W16700  21.544   6.214  12.487
48483W        W16701  32.558  13.719  10.973
48484W        W16702  31.204   5.758   0.307
48485W        W16703  11.216  16.557  14.351
48486W        W16704  33.603  42.515   1.332
48487W        W16705  43.058  11.081   0.277
48488W        W16706  11.792  43.825   0.372
48489W        W16707  39.576   2.997  14.552
48490W        W16708  11.203  42.846  13.512
48491W        W16709  39.054   7.740  13.402
48492W        W16710   6.787  42.281   4.191
48493W        W16711   0.069  37.447   3.430
48494W        W16712  28.259  13.853  11.903
48495W        W16713  25.639  12.192   4.741
48496W        W16714  21.005   1.715  14.007
48497W        W16715  15.271   2.847  13.901
48498W        W16716  17.322  19.999   3.139
48499W        W16717  36.466  16.064  10.805
48500W        W16718  14.305  21.223   1.276
48501W        W16719  35.454  30.422  14.398
48502W        W16720  16.704  25.119   0.027
48503W        W16721  33.646  23.896  11.406
48504W        W16722  32.098  42.571   1.231
48505W        W16723   0.146   2.889   4.180
48506W        W16724  22.603  36.339   2.915
48507W        W16725  30.394  34.617   0.316
48508W        W16726  15.588  44.563  14.873
48509W        W16727  35.129  39.263  10.712
48510W        W16728  43.192  15.211  14.421
48511W        W16729  26.338  34.536  10.509
48512W        W16730  32.852   5.977  13.037
48513W        W16731   8.736  28.625  14.710
48514W        W16732  18.173   9.503   4.584
48515W        W16733   8.179  30.059   0.493
48516W        W16734  27.061  14.267  13.579
48517W        W16735  38.770  30.019  13.795
48518W        W16736  26.142  28.992  14.299
48519W        W16737  40.365  27.149   3.326
48520W        W16738  33.918  14.299  11.511
48521W        W16739   3.185   3.740   0.252
48522W        W16740  14.851  22.631   1.211
48523W        W16741  18.667  44.502  14.209
48524W        W16742   6.732  42.006   1.222
48525W        W16743  41.384  10.656   0.306
48526W        W16744  11.837  37.049   2.832
48527W        W16745   4.312   3.786  14.542
48528W        W16746  27.423  24.142   2.789
48529W        W16747   2.910  36.784  13.540
48530W        W16748   1.907   8.160  10.787
48531W        W16749  21.077  39.375   3.580
48532W        W16750  21.266   4.168   0.288
48533W        W16751  25.521   6.009   2.630
48534W        W16752  12.637  26.947  13.467
48535W        W16753  37.608  29.104  14.428
48536W        W16754   1.008  37.496  13.492
48537W        W16755  16.588  39.058  12.442
48538W        W16756  25.970  27.965   1.668
48539W        W16757   0.263  15.759   2.708
48540W        W16758   2.370  25.215  10.636
48541W        W16759   6.285  26.964  14.726
48542W        W16760  44.538  32.579  11.261
48543W        W16761  17.880  12.896   2.266
48544W        W16762  21.726   9.219   3.201
48545W        W16763   5.964  39.634  11.633
48546W        W16764  22.196  34.160  13.782
48547W        W16765  35.528  24.483   0.766
48548W        W16766  15.120  34.469  12.099
48549W        W16767  44.658  20.788   4.141
48550W        W16768  37.625  17.633  14.383
48551W        W16769  31.397  11.789  10.673
48552W        W16770  42.993   2.247  11.482
48553W        W16771   1.012  30.213  14.865
48554W        W16772  38.541  39.565   2.310
48555W        W16773  29.146   2.310  10.994
48556W        W16774  14.812  44.324   2.210
48557W        W16775  21.169  38.315  11.392
48558W        W16776   2.790  32.425  14.449
48559W        W16777  42.626  39.364  14.597
48560W        W16778  15.539  16.701  14.542
48561W        W16779  43.339  38.085  12.142
48562W        W16780  11.723  20.054  14.922
48563W        W16781  24.650  19.778   2.899
48564W        W16782  25.929  24.753   2.204
48565W        W16783  10.228  23.828   3.563
48566W        W16784  15.206  35.001  11.400
48567W        W16785   0.396  28.172  10.611
48568W        W16786  11.155  22.406  13.382
48569W        W16787  17.056  11.702  13.555
48570W        W16788   4.398  25.619   0.948
48571W        W16789  38.486  40.755  10.638
48572W        W16790  44.241  34.815  11.569
48573W        W16791  13.783  24.215   1.810
48574W        W16792  18.810  25.987   1.207
48575W        W16793  41.130  39.911  14.632
48576W        W16794  33.551   5.819   4.274
48577W        W16795  18.213  16.014   3.629
48578W        W16796  43.225  40.260  14.009
48579W        W16797   0.451  38.013   2.186
48580W        W16798  42.006   1.768  13.339
48581W        W16799   7.937  38.041  10.651
48582W        W16800  43.804  39.528  12.665
48583W        W16801   6.672  33.599  14.322
48584W        W16802  28.466  11.097   1.444
48585W        W16803  43.149  28.929  14.244
48586W        W16804  24.408  19.765   0.876
48587W        W16805  31.226   2.415   3.670
48588W        W16806  36.430  24.440   2.799
48589W        W16807  34.860  30.533   3.650
48590W        W16808  40.851   5.855  12.369
48591W        W16809   6.321  16.041  11.568
48592W        W16810  20.219  38.381   4.092
48593W        W16811   6.670  32.119   4.144
48594W        W16812  21.626  20.628  14.484
48595W        W16813   9.686  31.172  11.927
48596W        W16814  15.175  41.064  10.949
48597W        W16815  30.097   5.963   3.421
48598W        W16816  27.189  18.186  12.991
48599W        W16817  35.355  29.283  11.585
48600W        W16818  32.646  24.197   2.258
48601W        W16819  40.526  28.630  14.713
48602W        W16820  31.964  44.426  10.871
48603W        W16821  17.146   4.652  14.379
48604W        W16822  10.124  39.006   3.782
48605W        W16823  15.080  40.596  12.225
48606W        W16824   3.983  15.735  11.456
48607W        W16825   7.122  25.075   3.310
48608W        W16826  12.853  26.181   4.593
48609W        W16827   7.149  14.380   0.456
48610W        W16828  10.161  31.795   2.707
48611W        W16829   8.104  19.078  11.884
48612W        W16830  17.176  38.387   2.287
48613W        W16831  19.093  42.451   1.394
48614W        W16832   7.602  41.333  14.318
48615W        W16833   8.172   2.410  12.592
48616W        W16834  12.714  38.388  14.522
48617W        W16835  33.482   5.644  11.123
48618W        W16836  12.394  33.603  11.081
48619W        W16837  21.221  24.717   1.937
48620W        W16838  17.915  33.385  13.358
48621W        W16839  25.563   3.823  12.476
48622W        W16840  40.853  18.327  11.640
48623W        W16841  28.764   9.349   4.370
48624W        W16842  43.859   0.409  10.717
48625W        W16843  10.162  26.045   4.582
48626W        W16844  35.000  28.444  13.406
48627W        W16845   2.784  20.073   4.630
48628W        W16846  31.726  13.573   1.939
48629W        W16847  23.535  15.603   2.930
48630W        W16848  23.699  20.628  12.099
48631W        W16849  29.172  43.814  10.634
48632W        W16850  25.916  17.175   2.760
48633W        W16851  30.239  41.981   0.517
48634W        W16852  17.113  11.736   0.114
48635W        W16853  43.249  14.909   0.435
48636W        W16854  25.289   9.830   1.389
48637W        W16855  23.682   7.629   4.388
48638W        W16856  20.081  43.966  11.299
48639W        W16857  15.610  10.497  11.526
48640W        W16858  35.868  36.079   2.709
48641W        W16859  20.386  43.789  14.921
48642W        W16860  27.172  26.086  10.948
48643W        W16861  41.447  23.696   2.691
48644W        W16862  19.338  33.364   1.884
48645W        W16863  43.895  21.911  14.492
48646W        W16864  22.672  39.274   3.764
48647W        W16865  19.285  22.531  13.501
48648W        W16866  21.142   6.255   4.544
48649W        W16867  34.135  23.816  11.649
48650W        W16868  17.588  24.596  12.863
48651W        W16869  19.456  13.885   2.314
48652W        W16870  40.910   8.870   2.358
48653W        W16871  35.066  27.374  13.852
48654W        W16872  40.272   4.133  10.716
48655W        W16873  34.049  17.113   2.308
48656W        W16874  33.564  11.979   3.640
48657W        W16875  41.946  29.126   4.274
48658W        W16876  37.303  13.740   1.467
48659W        W16877  16.865  10.648   3.783
48660W        W16878  32.529   2.819   2.151
48661W        W16879   5.816  44.163   0.330
48662W        W16880  34.090  17.760  12.838
48663W        W16881  14.240  23.802  14.285
48664W        W16882  31.866  23.615   0.753
48665W        W16883  10.884  24.937  12.446
48666W        W16884  22.173  37.702  12.935
48667W        W16885  35.581  29.550   0.068
48668W        W16886  12.287   1.382  11.668
48669W        W16887  39.698  34.073  14.428
48670W        W16888   5.174  11.092   2.782
48671W        W16889  27.112  32.614  13.890
48672W        W16890   2.957  27.534  11.840
48673W        W16891  38.596  17.666  12.264
48674W        W16892  21.359  32.961  10.586
48675W        W16893   6.435  26.415  14.029
48676W        W16894   3.384  29.920   2.684
48677W        W16895  12.673  34.467   1.509
48678W        W16896  14.297  15.556   5.021
48679W        W16897  18.992  18.067  13.027
48680W        W16898  40.268  33.419  11.058
48681W        W16899  23.663  32.159   3.287
48682W        W16900  21.637  36.666   5.422
48683W        W16901   3.509  43.729   0.486
48684W        W16902  17.296  44.191  11.959
48685W        W16903  41.822  42.805   1.432
48686W        W16904  31.967  10.130  14.880
48687W        W16905  27.975  22.312   1.858
48688W        W16906  31.435  22.820  11.658
48689W        W16907  43.803  32.041  11.903
48690W        W16908   8.190  36.318  14.018
48691W        W16909  16.219  36.724   3.584
48692W        W16910  35.787  32.141  13.969
48693W        W16911  20.759  28.862  11.166
48694W        W16912  40.455  42.550   2.705
48695W        W16913   0.217  30.810  13.823
48696W        W16914   3.467  22.142  11.983
48697W        W16915  18.499  37.377   1.051
48698W        W16916  30.584  30.754   0.673
48699W        W16917  14.541  33.035  14.040
48700W        W16918  33.398  11.867   0.208
48701W        W16919  32.857  43.480   3.202
48702W        W16920  36.857   7.155  11.795
48703W        W16921  15.606  15.274  11.133
48704W        W16922  16.609  43.472   3.861
48705W        W16923   1.746  22.181  13.796
48706W        W16924  27.741  10.095  11.806
48707W        W16925  41.492  39.034   0.827
48708W        W16926  37.507  10.593  12.485
48709W        W16927  41.333   3.571  10.625
48710W        W16928  36.913  44.624  10.743
48711W        W16929  40.070  20.692  13.052
48712W        W16930  24.946  13.377   0.733
48713W        W16931   0.488  41.618   0.736
48714W        W16932  22.426  20.127   3.906
48715W        W16933  22.268   5.831   3.143
48716W        W16934  19.795   6.447   4.517
48717W        W16935  30.060  27.464   1.984
48718W        W16936  20.096   8.729   1.463
48719W        W16937  27.478  32.973  10.928
48720W        W16938  24.309  32.924   9.820
48721W        W16939   4.563  44.473  11.131
48722W        W16940  15.599  41.361  10.085
48723W        W16941  22.503  15.209   0.425
48724W        W16942   0.372   6.449   0.422
48725W        W16943   5.979  36.599  13.831
48726W        W16944  43.515  29.897  14.465
48727W        W16945  24.048  41.797   0.205
48728W        W16946  40.978  19.134   4.824
48729W        W16947   0.843  17.094  11.071
48730W        W16948   4.746  44.832  13.852
48731W        W16949   6.358  26.542  10.013
48732W        W16950  19.070  15.314  12.473
48733W        W16951  25.635  21.890   2.288
48734W        W16952   8.442  38.132  13.336
48735W        W16953  26.962  36.421  14.394
48736W        W16954   0.108  31.170  11.189
48737W        W16955  42.073   7.343   3.100
48738W        W16956  20.956  12.802   3.406
48739W        W16957   5.401  24.171  11.137
48740W        W16958   8.314  31.801  12.840
48741W        W16959   7.304  19.753  14.009
48742W        W16960  25.470  24.945  11.124
48743W        W16961   2.314  42.899   4.447
48744W        W16962  10.706   0.791  13.744
48745W        W16963   6.378  32.122   4.571
48746W        W16964  10.961   8.802  12.088
48747W        W16965  39.004  15.213  13.767
48748W        W16966  43.011   2.495   1.772
48749W        W16967  12.232  13.829  14.546
48750W        W16968   5.924  28.201   4.035
48751W        W16969  43.288  21.455   0.950
48752W        W16970  13.856   3.290  10.666
48753W        W16971  30.226  18.668   1.772
48754W        W16972  10.198  34.619   4.417
48755W        W16973   8.423  21.527   0.490
48756W        W16974  21.311  31.913   5.068
48757W        W16975  28.858  28.477   2.363
48758W        W16976   5.442  43.701   3.258
48759W        W16977  30.237   8.118   2.770
48760W        W16978  39.493  14.061   0.381
48761W        W16979  28.530  17.357  13.568
48762W        W16980  17.138  24.940  14.789
48763W        W16981   1.279  14.306  14.287
48764W        W16982  44.791  38.428   4.210
48765W        W16983   1.272  16.722  12.985
48766W        W16984  28.607  18.884   0.450
48767W        W16985  34.028  33.775  11.135
48768W        W16986   7.341  18.009  12.406
48769W        W16987  35.916  24.084   3.082
48770W        W16988   2.420  12.299   1.856
48771W        W16989  35.645  34.173  10.821
48772W        W16990  23.723  21.544   4.035
48773W        W16991  33.577  24.725   0.951
48774W        W16992  11.604  37.561  13.920
48775W        W16993  22.080  31.601  13.986
48776W        W16994  26.439   8.149   0.766
48777W        W16995   0.991   7.936   3.771
48778W        W16996  23.238  41.799  10.836
48779W        W16997  33.389  30.363  10.224
48780W        W16998  32.938  12.619   0.438
48781W        W16999  42.055  33.897   0.706
48782W        W17000  40.474   5.966  13.785
48783W        W17001  14.162  43.426   3.640
48784W        W17002  41.714   9.729   1.591
48785W        W17003  37.869   9.947   0.778
48786W        W17004   1.652  43.448   3.663
48787W        W17005  14.184   3.946   1.516
48788W        W17006   7.441  10.319  13.066
48789W        W17007  17.053  11.636  12.324
48790W        W17008  28.173  15.019   4.021
48791W        W17009  40.033  22.725   3.164
48792W        W17010  20.331  41.364  14.581
48793W        W17011   7.167  40.460   0.903
48794W        W17012  21.571  28.118   3.346
48795W        W17013  19.158  15.117   5.469
48796W        W17014  10.635  41.343   4.529
48797W        W17015  34.406   4.944  11.441
48798W        W17016  29.660   0.825  14.729
48799W        W17017  23.977   5.239  14.339
48800W        W17018   0.671  17.911  10.456
48801W        W17019   8.380  11.587   1.796
48802W        W17020  38.481   5.334   4.078
48803W        W17021  26.945  40.540   0.169
48804W        W17022   4.336  15.513  13.352
48805W        W17023  33.146  29.619   3.324
48806W        W17024  18.604   6.420   5.006
48807W        W17025  11.189  30.414  11.052
48808W        W17026  14.700   4.611   1.920
48809W        W17027  32.552  14.943   3.193
48810W        W17028  36.214   9.839   1.394
48811W        W17029  25.547   8.969  12.109
48812W        W17030  27.975  41.453  10.737
48813W        W17031  17.913  35.435   1.878
48814W        W17032   7.090  30.691   2.839
48815W        W17033  42.424   3.304   3.554
48816W        W17034   2.450  24.929   4.731
48817W        W17035   8.370  33.835  10.731
48818W        W17036  20.629  38.002   0.469
48819W        W17037  35.919  38.751   4.516
48820W        W17038   4.388  36.896  11.146
48821W        W17039  42.350  22.365  13.474
48822W        W17040  15.294  29.163   1.384
48823W        W17041  12.980  17.781   4.366
48824W        W17042   7.316  23.517   1.750
48825W        W17043  15.096   6.447   3.355
48826W        W17044   5.687   5.438   4.143
48827W        W17045  22.722  14.097  11.560
48828W        W17046  21.738  38.908  14.728
48829W        W17047  22.559  30.102  11.053
48830W        W17048  31.469  11.240  13.670
48831W        W17049   2.916   4.205  11.615
48832W        W17050  27.927  44.466  11.657
48833W        W17051  16.373   5.475   1.198
48834W        W17052  35.989   5.174   3.930
48835W        W17053  44.824  42.929   1.749
48836W        W17054  14.107  14.931  12.967
48837W        W17055   1.293   5.791   2.826
48838W        W17056  27.380  13.720   2.177
48839W        W17057  22.248  20.229   2.842
48840W        W17058   2.362  14.625  15.000
48841W        W17059  33.260  12.643   2.279
48842W        W17060  21.123  28.406   0.730
48843W        W17061  11.279   6.212  11.998
48844W        W17062  43.797  11.823  11.940
48845W        W17063  12.239  41.310  13.600
48846W        W17064  40.630  36.949  11.674
48847W        W17065  15.698  14.604   4.602
48848W        W17066  14.877  39.529   2.842
48849W        W17067   2.144  41.450   0.731
48850W        W17068   6.476  40.239  12.402
48851W        W17069   4.323  16.239   4.479
48852W        W17070  17.648  11.610  13.954
48853W        W17071  38.549  40.199  11.178
48854W        W17072  44.808  15.534   2.237
48855W        W17073   3.126  34.588  13.558
48856W        W17074  25.017  11.646   3.715
48857W        W17075   0.449  14.411  13.010
48858W        W17076  17.078  44.006  14.870
48859W        W17077   3.688  34.339   0.041
48860W        W17078  27.553   8.804   2.207
48861W        W17079   6.575  44.913   1.354
48862W        W17080  27.907  20.714   0.238
48863W        W17081  11.811  22.759   4.281
48864W        W17082  41.251   3.175   3.585
48865W        W17083   4.260  11.167   3.622
48866W        W17084  17.021  28.260   0.668
48867W        W17085  25.015  28.872   0.932
48868W        W17086  11.660   5.459  14.475
48869W        W17087  43.992  12.333   1.775
48870W        W17088  38.896  30.135  12.903
48871W        W17089  25.484   2.296  12.279
48872W        W17090   3.272  23.515  12.414
48873W        W17091  39.945  24.778  14.999
48874W        W17092  16.227  29.188   4.791
48875W        W17093  26.973  44.305  10.318
48876W        W17094   4.874  20.432   2.729
48877W        W17095  42.043  44.239   2.191
48878W        W17096  33.357  41.960   3.180
48879W        W17097  35.622   0.965  11.697
48880W        W17098   3.013  33.881  11.477
48881W        W17099  35.853  27.981   2.243
48882W        W17100  27.741  30.251   3.733
48883W        W17101  41.330   9.608  11.203
48884W        W17102  24.590  11.930  13.845
48885W        W17103  17.301  41.112  10.490
48886W        W17104  26.985   8.707   3.108
48887W        W17105  29.949   2.888  12.821
48888W        W17106  24.192  42.507  11.248
48889W        W17107  20.694   7.300   1.410
48890W        W17108  26.490  35.828   2.850
48891W        W17109  11.285  19.581   3.100
48892W        W17110  29.971  35.269   1.857
48893W        W17111  20.946  40.463  12.685
48894W        W17112  18.147  13.609  11.857
48895W        W17113  30.803   6.867  13.399
48896W        W17114   8.226  43.825   1.946
48897W        W17115  37.469   1.253  11.031
48898W        W17116  23.057  16.632  13.831
48899W        W17117  37.162  19.063   1.373
48900W        W17118   2.465  21.281  13.120
48901W        W17119  26.033  30.198  12.825
48902W        W17120  38.842  36.664   3.725
48903W        W17121  20.193  43.208  12.421
48904W        W17122   8.237  36.856  12.398
48905W        W17123  12.166   9.471  12.735
48906W        W17124  40.868  24.262   4.335
48907W        W17125  19.765  13.543   2.640
48908W        W17126  13.520  39.343   4.368
48909W        W17127  26.965   5.577   2.753
48910W        W17128  14.744  38.860  10.205
48911W        W17129  31.221  14.702  11.049
48912W        W17130  27.916  21.406  12.083
48913W        W17131   6.633   4.729   1.292
48914W        W17132   8.199  28.733   2.130
48915W        W17133  16.828  36.005   3.378
48916W        W17134   9.253   5.647  13.585
48917W        W17135  43.109  38.197   3.660
48918W        W17136   4.780  16.212   4.713
48919W        W17137  43.400   7.399   0.748
48920W        W17138  15.248   2.496  11.967
48921W        W17139  35.587  17.703  14.045
48922W        W17140   7.205   0.739  11.572
48923W        W17141  25.693   5.001   2.674
48924W        W17142  14.911  27.236   1.274
48925W        W17143  19.811   2.716  14.005
48926W        W17144  15.930  15.558   2.316
48927W        W17145  18.285   7.368  13.913
48928W        W17146   3.304  35.335   4.454
48929W        W17147  33.960  38.435  10.444
48930W        W17148  42.375  20.257  13.865
48931W        W17149  44.711  38.366  12.450
48932W        W17150  34.910  21.830   2.121
48933W        W17151  16.145  27.936   0.513
48934W        W17152   0.446  39.463  13.816
48935W        W17153  42.351  41.936   2.297
48936W        W17154  41.193  19.998   3.675
48937W        W17155   0.736  24.282  14.314
48938W        W17156  17.517  44.086   9.801
48939W        W17157  11.757  12.532   1.517
48940W        W17158   4.298   3.746  10.742
48941W        W17159  13.309  27.184  13.807
48942W        W17160  32.957  19.129  10.475
48943W        W17161  14.195  11.210   2.306
48944W        W17162  18.003  37.988   1.506
48945W        W17163   5.406   3.562  10.992
48946W        W17164   5.838   2.001  13.387
48947W        W17165  38.079  19.595   4.157
48948W        W17166   7.862  11.527   1.657
48949W        W17167  16.273  44.512  10.944
48950W        W17168  41.693  32.289  11.269
48951W        W17169  39.937  13.602  12.542
48952W        W17170  44.510  20.289   4.144
48953W        W17171  13.438  22.801  11.456
48954W        W17172  43.444  14.834   2.282
48955W        W17173  29.849  13.308  14.003
48956W        W17174  15.616  32.377   2.745
48957W        W17175  12.805   6.852   3.701
48958W        W17176  14.157  37.878   3.491
48959W        W17177  18.555  36.055  12.506
48960W        W17178  38.001  11.348  11.453
48961W        W17179  43.299  28.181  10.434
48962W        W17180  43.968  40.405   3.264
48963W        W17181   5.748   3.963   3.199
48964W        W17182  40.297  13.306   0.899
48965W        W17183  34.400  14.764  12.061
48966W        W17184  24.166  15.674   0.178
48967W        W17185  16.537  39.418   4.569
48968W        W17186  33.607  17.227  14.478
48969W        W17187  23.951  25.121   0.862
48970W        W17188  32.768  18.963  12.971
48971W        W17189  16.086  38.997  14.019
48972W        W17190  29.613   2.745   1.169
48973W        W17191  19.984  13.316  14.013
48974W        W17192  28.195   9.854   0.393
48975W        W17193   0.472   3.508  10.595
48976W        W17194   9.407  40.122  14.372
48977W        W17195   1.459  20.325  12.969
48978W        W17196  37.751  26.500   4.227
48979W        W17197   6.832  12.314  12.510
48980W        W17198  27.157  19.764  14.711
48981W        W17199  12.313  40.784   2.704
48982W        W17200   0.095  16.703   1.223
48983W        W17201  42.895  44.635   1.208
48984W        W17202   6.393  14.338  14.213
48985W        W17203  27.542   3.168   4.216
48986W        W17204  25.948   5.547  12.523
48987W        W17205  29.963  43.936  11.071
48988W        W17206  17.489   7.530  12.455
48989W        W17207  23.883  25.551   2.654
48990W        W17208  16.056  16.846   4.297
48991W        W17209  27.431  34.075   0.469
48992W        W17210   9.764  22.024   1.760
48993W        W17211  23.994  27.123  14.986
48994W        W17212  40.270   9.412   2.456
48995W        W17213   0.814  16.883  10.590
48996W        W17214   0.859  31.919  13.292
48997W        W17215   9.896  28.490  12.653
48998W        W17216  41.269  16.724   4.129
48999W        W17217  14.701   2.627   3.496
49000W        W17218  17.314   7.722  14.529
49001W        W17219  12.909   4.768  12.474
49002W        W17220  27.617  24.743   0.619
49003W        W17221  23.197  24.231  13.475
49004W        W17222   6.964  43.158   2.685
49005W        W17223  22.960   8.216   1.199
49006W        W17224  22.454  38.236  14.713
49007W        W17225   1.887  24.953  12.046
49008W        W17226  40.595  29.578  11.220
49009W        W17227  10.877   2.301  14.962
49010W        W17228  17.739  29.861  14.216
49011W        W17229  22.463   0.621  11.911
49012W        W17230   0.913  31.753   2.001
49013W        W17231  35.881   3.917  13.434
49014W        W17232   3.132   0.297   0.306
49015W        W17233  16.990  19.524  11.244
49016W        W17234   3.327  38.912   4.569
49017W        W17235  35.100  27.848  14.053
49018W        W17236   6.309   1.688  12.597
49019W        W17237  22.313  18.797  13.383
49020W        W17238  41.298  37.930   3.601
49021W        W17239  44.540  42.487   3.595
49022W        W17240  39.915  23.931  10.943
49023W        W17241  37.307   7.821  13.378
49024W        W17242  13.709  13.608   4.233
49025W        W17243  14.418   8.906   0.149
49026W        W17244  15.334  27.993   4.574
49027W        W17245  44.158   6.177   4.008
49028W        W17246  23.735  10.759  11.724
49029W        W17247  24.065  35.111   2.310
49030W        W17248  35.280   2.907   4.930
49031W        W17249  38.382  17.858   0.576
49032W        W17250  18.064   0.248  11.260
49033W        W17251  12.680   7.683   3.518
49034W        W17252  44.335  17.185  11.616
49035W        W17253  22.732   1.349   1.295
49036W        W17254  17.714  12.170  10.181
49037W        W17255   6.906  23.445  13.448
49038W        W17256  44.015  32.996  14.362
49039W        W17257  11.733   2.463  12.830
49040W        W17258  12.355   2.933   2.780
49041W        W17259   2.978   3.960  11.173
49042W        W17260   1.257  22.304   3.419
49043W        W17261  34.524  34.870  13.911
49044W        W17262   9.956  30.526   4.532
49045W        W17263   3.189  26.602  13.032
49046W        W17264  19.692  11.357  12.699
49047W        W17265  10.277  14.357   4.705
49048W        W17266  42.793  44.823  13.086
49049W        W17267  32.561  39.450   2.650
49050W        W17268  32.062  40.338  11.790
49051W        W17269   9.558   0.398  14.383
49052W        W17270  13.592  41.651  13.106
49053W        W17271  43.267  22.536  13.466
49054W        W17272  28.626  22.236  12.286
49055W        W17273  11.380   1.622   3.839
49056W        W17274   2.388  12.203   3.303
49057W        W17275  19.198   4.972  13.215
49058W        W17276  36.942  32.948   4.101
49059W        W17277   9.869  16.157  13.859
49060W        W17278  43.923   0.883   4.569
49061W        W17279  15.027  31.787   5.000
49062W        W17280  10.180  38.371  14.787
49063W        W17281  18.276  35.146  11.805
49064W        W17282  11.326   6.143   2.353
49065W        W17283  42.891   7.093   0.147
49066W        W17284   6.654  32.383  13.466
49067W        W17285  32.418  24.418  14.961
49068W        W17286  10.887  17.447  14.489
49069W        W17287  43.084  33.518  13.576
49070W        W17288  15.570  41.574   1.373
49071W        W17289  13.342  39.112  11.077
49072W        W17290  36.681  30.928   3.246
49073W        W17291  14.572   9.730  11.373
49074W        W17292  39.493   4.221  13.066
49075W        W17293  10.836  28.123   2.847
49076W        W17294  13.579  35.579  12.215
49077W        W17295  36.094  10.874   4.377
49078W        W17296  34.818   8.774   0.474
49079W        W17297  25.546  16.085   5.390
49080W        W17298  30.289  34.929   3.689
49081W        W17299  32.006  40.372   1.849
49082W        W17300  29.922  14.393   3.357
49083W        W17301   1.817  27.630   1.501
49084W        W17302  11.610  18.222  11.715
49085W        W17303  39.370  31.914  13.984
49086W        W17304  14.746  44.850   4.963
49087W        W17305  15.318  36.137  14.332
49088W        W17306  18.679  17.640  12.174
49089W        W17307  19.084  17.360   0.439
49090W        W17308  17.859   1.227   1.796
49091W        W17309  17.092   9.734  12.044
49092W        W17310  38.792   1.782   1.476
49093W        W17311  30.916  38.965   0.959
49094W        W17312  16.869  33.844   1.949
49095W        W17313  14.155   8.862   1.695
49096W        W17314   7.559  24.241  14.448
49097W        W17315  33.305  18.823   3.309
49098W        W17316  30.084  14.183  13.116
49099W        W17317   3.811  39.889   2.295
49100W        W17318  37.756  42.387   1.335
49101W        W17319  35.559  29.108  10.245
49102W        W17320   7.614  11.883   2.082
49103W        W17321  38.697  11.671   1.352
49104W        W17322   7.398   6.146  12.924
49105W        W17323  11.270  44.467  12.584
49106W        W17324  15.724   4.222  14.268
49107W        W17325  22.774  28.438   1.042
49108W        W17326  19.439  38.372   0.427
49109W        W17327  16.707   0.818   4.693
49110W        W17328   3.435  21.630  12.530
49111W        W17329   6.472   7.857   0.394
49112W        W17330  41.351  30.916   0.830
49113W        W17331  38.825  29.264  13.085
49114W        W17332  12.839   1.947  11.444
49115W        W17333   4.442   7.408  12.024
49116W        W17334   6.240  25.115   4.339
49117W        W17335  39.981   4.057  12.889
49118W        W17336  44.350  32.636  13.239
49119W        W17337  35.971  40.679  14.873
49120W        W17338   1.962  19.625  13.457
49121W        W17339  12.912  21.486   0.034
49122W        W17340  44.103  17.348   1.741
49123W        W17341  26.471   8.346  11.543
49124W        W17342   2.993  41.510  13.965
49125W        W17343  21.488  11.843   3.268
49126W        W17344  34.134  41.267   2.750
49127W        W17345  11.080   0.879  11.494
49128W        W17346  14.858  21.048   3.093
49129W        W17347  18.016  12.271  12.102
49130W        W17348  14.950  25.959  12.640
49131W        W17349  14.484  29.510   4.207
49132W        W17350  33.477  26.731   3.118
49133W        W17351  32.455  20.934  10.400
49134W        W17352   0.346  42.259  10.632
49135W        W17353  44.577  31.568   1.103
49136W        W17354  33.052  34.971   4.567
49137W        W17355  20.163  44.883   0.687
49138W        W17356   5.296  32.196   4.776
49139W        W17357  24.249  24.156   2.365
49140W        W17358  27.583  40.064   4.397
49141W        W17359  13.630  42.141  12.935
49142W        W17360  26.739  26.315   2.710
49143W        W17361  26.075  18.862   4.702
49144W        W17362   9.876  17.023   2.430
49145W        W17363  26.287  37.667  12.400
49146W        W17364  14.806  33.038  13.602
49147W        W17365   4.447  12.814   1.923
49148W        W17366  17.910   1.538  14.308
49149W        W17367  21.729  18.829  12.945
49150W        W17368  28.946   0.099   1.406
49151W        W17369  42.109  37.542  11.109
49152W        W17370  44.509  19.311  13.253
49153W        W17371  16.057  21.163  10.581
49154W        W17372  20.475  30.890   2.134
49155W        W17373  15.846  38.011  11.209
49156W        W17374  40.589  35.639   2.258
49157W        W17375  10.338  41.048   1.385
49158W        W17376   5.876   0.817   2.178
49159W        W17377  21.041  15.573   1.287
49160W        W17378  35.985  17.422   4.548
49161W        W17379  37.145  35.443   4.209
49162W        W17380  25.777  29.343   3.251
49163W        W17381  18.096  11.676  13.386
49164W        W17382  24.974   2.810   0.413
49165W        W17383  33.168  38.609  13.743
49166W        W17384  21.170  40.083  11.199
49167W        W17385  12.740  11.864   3.157
49168W        W17386  29.012  24.110   5.250
49169W        W17387   2.752  31.368  14.418
49170W        W17388   4.685   8.906  11.071
49171W        W17389   9.778  15.312   3.742
49172W        W17390  21.762   3.114   4.209
49173W        W17391  44.327  29.011  14.746
49174W        W17392  31.306  33.422  11.875
49175W        W17393  29.464  12.290   3.245
49176W        W17394  11.669  37.393   3.197
49177W        W17395   3.750  43.986  14.200
49178W        W17396  25.966  21.779   3.109
49179W        W17397  33.513  38.636   2.299
49180W        W17398  20.414  40.907   4.650
49181W        W17399  34.228  24.902  14.909
49182W        W17400  25.635  17.569  12.049
49183W        W17401  31.045  11.888   1.340
49184W        W17402   7.092   6.446   3.103
49185W        W17403  41.048  18.410   0.735
49186W        W17404  39.940  13.046   4.227
49187W        W17405  38.268  14.225   0.787
49188W        W17406  24.294  31.520  14.016
49189W        W17407  40.918  32.897   4.554
49190W        W17408  17.718  20.314   3.255
49191W        W17409  33.483  29.948  13.495
49192W        W17410  15.770  35.194   3.869
49193W        W17411  10.047  29.003  12.631
49194W        W17412  15.460  20.672   0.957
49195W        W17413  30.078  40.345  13.904
49196W        W17414  13.343  26.095  11.684
49197W        W17415  17.897  15.037   2.720
49198W        W17416   5.291   7.781   0.737
49199W        W17417  29.449  14.056  14.289
49200W        W17418  11.145   0.498   2.522
49201W        W17419   0.385  28.665  12.405
49202W        W17420  10.841  42.417   4.733
49203W        W17421   4.329  12.416  12.179
49204W        W17422  12.028  10.604   5.366
49205W        W17423  33.043   0.776  11.152
49206W        W17424  27.122  40.047   0.235
49207W        W17425  19.699  29.090  13.832
49208W        W17426  20.504  12.205   2.256
49209W        W17427  41.211  13.728  14.508
49210W        W17428  40.685  40.400   2.847
49211W        W17429  25.608  24.889   1.295
49212W        W17430   1.936  14.490   3.683
49213W        W17431   9.845  29.461   0.825
49214W        W17432  10.496  18.994   1.239
49215W        W17433  28.958  36.107  12.067
49216W        W17434   5.455  14.628  11.958
49217W        W17435   9.724   3.077   1.873
49218W        W17436  20.941  22.465   1.934
49219W        W17437  25.158  21.651   1.378
49220W        W17438  34.838  44.840  10.632
49221W        W17439  30.398  40.906  11.509
49222W        W17440   0.377  17.694  11.671
49223W        W17441  20.016  34.056   1.922
49224W        W17442  20.149   0.234   1.499
49225W        W17443  14.033  18.775  14.756
49226W        W17444  42.758  33.085  10.352
49227W        W17445  41.638  21.224  11.524
49228W        W17446  20.081  16.577   1.340
49229W        W17447  10.191  28.239   4.532
49230W        W17448  20.669  10.251  13.776
49231W        W17449  15.910   4.368   0.347
49232W        W17450   2.156  39.812   1.319
49233W        W17451   2.720  18.518   2.109
49234W        W17452  28.691  12.642  14.984
49235W        W17453   0.448  43.939  12.180
49236W        W17454  16.501  36.350   0.800
49237W        W17455  39.523  38.506   4.893
49238W        W17456  25.547   2.331  12.824
49239W        W17457   0.864  32.617   1.133
49240W        W17458  36.032  38.014   3.828
49241W        W17459  10.722  26.154  14.776
49242W        W17460  32.374  28.748  12.649
49243W        W17461  19.562   2.860   2.734
49244W        W17462  23.004  13.034  11.591
49245W        W17463  30.155   3.351  12.978
49246W        W17464   6.274   3.091  14.002
49247W        W17465  30.950  23.707   3.605
49248W        W17466  25.088   9.723  11.461
49249W        W17467  12.353  10.914   2.357
49250W        W17468  13.173  33.504  12.859
49251W        W17469   3.376  39.569   0.824
49252W        W17470  43.710  20.048  13.874
49253W        W17471  17.060   2.985  11.444
49254W        W17472  14.198  28.583   3.079
49255W        W17473  34.110  24.193  10.702
49256W        W17474  15.785  35.572  12.024
49257W        W17475  36.911  14.187  10.675
49258W        W17476  21.746  16.454   0.114
49259W        W17477   5.953  36.468   3.844
49260W        W17478  34.881   5.377  14.935
49261W        W17479  19.943  14.169  11.857
49262W        W17480   6.203  11.425   3.678
49263W        W17481  33.429  33.660   4.569
49264W        W17482   0.394  24.658   2.941
49265W        W17483  12.124  21.584   0.799
49266W        W17484  20.135   2.793   4.859
49267W        W17485  15.820  34.069   0.751
49268W        W17486  19.517  40.025  14.598
49269W        W17487  21.621  42.109  11.464
49270W        W17488  13.529  13.361  10.761
49271W        W17489   9.919  11.892  14.963
49272W        W17490   1.899   0.202   3.785
49273W        W17491  39.013  33.319  13.487
49274W        W17492  44.064  10.533   1.721
49275W        W17493  13.885  19.980  12.838
49276W        W17494  35.377   3.779   1.221
49277W        W17495  30.059  26.688   0.055
49278W        W17496  25.738  23.260   2.168
49279W        W17497   8.888  37.931  13.502
49280W        W17498  37.353  39.300   5.089
49281W        W17499  40.254  30.395   1.468
49282W        W17500   1.478  19.299  14.386
49283W        W17501   5.278  32.304  12.521
49284W        W17502   5.968  23.946  13.470
49285W        W17503  11.872  28.560   2.049
49286W        W17504  32.621  36.789   3.769
49287W        W17505  30.396  18.793   2.247
49288W        W17506  28.410  24.713   4.524
49289W        W17507  43.389  42.929   1.359
49290W        W17508  14.145  11.078   1.255
49291W        W17509  35.173  44.198   5.038
49292W        W17510  34.366  41.712  13.129
49293W        W17511   9.630  41.345   4.922
49294W        W17512  31.008  44.405   0.798
49295W        W17513   8.690  37.422  11.166
49296W        W17514  35.345  22.261  12.387
49297W        W17515   4.805  30.130   2.813
49298W        W17516  12.110  11.050  13.537
49299W        W17517  22.519   8.318  14.042
49300W        W17518  43.048   4.183   2.292
49301W        W17519  40.751  14.381  14.729
49302W        W17520   9.379  28.604  11.658
49303W        W17521  40.454  29.510   1.924
49304W        W17522  33.057  37.467  13.095
49305W        W17523  24.631  35.451  10.561
49306W        W17524  24.458   5.871   1.732
49307W        W17525  32.435  26.603   0.869
49308W        W17526  27.383  31.797  14.939
49309W        W17527   6.745  14.575  13.902
49310W        W17528  39.563  12.847   1.968
49311W        W17529  12.392  32.513   3.145
49312W        W17530  32.481  10.275   4.538
49313W        W17531  38.256  43.314  10.398
49314W        W17532  41.312  35.058  14.414
49315W        W17533   2.150  38.083   1.702
49316W        W17534  34.283  35.546  12.819
49317W        W17535  23.897  12.112   0.350
49318W        W17536  26.145  40.557  12.373
49319W        W17537   3.326  16.633  11.054
49320W        W17538   5.348  14.336   1.701
49321W        W17539   7.839  24.581   2.381
49322W        W17540  25.785  23.982  12.546
49323W        W17541   6.250   3.623  14.838
49324W        W17542  17.690  30.433   0.397
49325W        W17543  26.070  37.410   4.429
49326W        W17544  21.037  36.014   0.815
49327W        W17545  28.989  13.919   3.855
49328W        W17546  40.223  24.720   1.173
49329W        W17547  35.095  39.834   1.685
49330W        W17548  19.098  13.580  12.093
49331W        W17549   4.764  13.914  11.522
49332W        W17550  19.782  22.474  14.368
49333W        W17551  24.650  29.023  13.346
49334W        W17552   7.878  26.786   4.076
49335W        W17553   8.217   3.249   2.884
49336W        W17554  29.519   9.251   3.826
49337W        W17555  35.898  34.589   1.490
49338W        W17556   5.874  44.778   4.551
49339W        W17557  30.807  14.064  10.344
49340W        W17558  29.565  26.668   0.215
49341W        W17559  42.366  22.663  11.872
49342W        W17560  40.472   4.914  11.196
49343W        W17561   7.282   0.799  10.708
49344W        W17562  41.467  23.278   1.828
49345W        W17563   0.913  31.138  14.334
49346W        W17564  28.217  41.060   1.414
49347W        W17565  27.059  36.435  13.549
49348W        W17566  20.685  25.604   0.674
49349W        W17567  31.458  44.961   3.902
49350W        W17568  10.266  44.214   2.461
49351W        W17569   8.108  34.262  12.913
49352W        W17570  42.418  41.436   4.663
49353W        W17571  29.749  26.665  10.802
49354W        W17572  28.275   6.625  10.732
49355W        W17573  15.764   5.317  10.666
49356W        W17574  43.859   4.845   2.810
49357W        W17575  26.933  43.783  11.109
49358W        W17576  13.648   7.319   1.719
49359W        W17577   3.014   5.270   3.286
49360W        W17578  23.988  24.590  14.774
49361W        W17579  32.795  37.974  14.335
49362W        W17580   2.646  28.007  12.916
49363W        W17581  40.755  39.395   5.040
49364W        W17582  13.370  43.531  12.821
49365W        W17583   8.394  23.032   0.390
49366W        W17584   9.469   4.017   0.273
49367W        W17585  31.326  44.999  12.313
49368W        W17586   5.100  29.145   1.856
49369W        W17587  41.764   8.659   2.858
49370W        W17588  35.425  18.339   0.863
49371W        W17589  26.768  14.753  11.975
49372W        W17590  16.180  11.663  11.866
49373W        W17591  17.002  14.615   2.633
49374W        W17592  38.044  35.889  12.256
49375W        W17593  44.485  35.432  14.315
49376W        W17594  16.957  18.698  11.183
49377W        W17595  39.808  36.944  12.390
49378W        W17596  12.159  18.619  12.830
49379W        W17597   7.278  18.356   3.805
49380W        W17598  41.789   2.036  11.179
49381W        W17599   7.238   6.560   0.159
49382W        W17600   5.344  37.004  14.762
49383W        W17601  26.683   2.100  11.979
49384W        W17602  21.816  15.578   1.905
49385W        W17603  30.074  43.468   0.272
49386W        W17604  11.113   4.812   4.550
49387W        W17605  34.907  22.068   1.661
49388W        W17606   2.327   6.168   4.704
49389W        W17607  22.607  34.964  14.858
49390W        W17608  30.144  10.279  13.097
49391W        W17609  15.113  22.503   1.639
49392W        W17610  17.546  17.126  10.063
49393W        W17611  25.113  14.486   5.249
49394W        W17612  31.650  18.437  11.316
49395W        W17613  24.490  43.633   0.262
49396W        W17614   6.688  22.694  12.614
49397W        W17615  40.552  18.333  12.072
49398W        W17616  24.699  17.329   4.414
49399W        W17617  39.428   3.686  13.979
49400W        W17618  17.739  43.379  12.246
49401W        W17619  12.634  37.102   1.306
49402W        W17620  19.064  24.193   0.033
49403W        W17621   2.205  12.149  11.918
49404W        W17622  26.959  35.885   5.058
49405W        W17623  41.023  32.435  14.836
49406W        W17624  34.016  21.211   4.175
49407W        W17625  23.676   6.434   3.772
49408W        W17626  34.057   3.544  12.590
49409W        W17627  15.782   3.726  14.084
49410W        W17628  22.448  25.439   1.302
49411W        W17629  40.192  12.574   0.423
49412W        W17630  24.096  29.438   2.879
49413W        W17631  30.523  41.007  10.603
49414W        W17632  31.942  15.722   3.727
49415W        W17633  24.421   3.006   3.165
49416W        W17634   0.338  14.107  12.547
49417W        W17635  10.416  20.058  11.570
49418W        W17636   1.227   9.118  11.172
49419W        W17637  41.753  23.156  14.288
49420W        W17638  38.290  35.946  10.751
49421W        W17639  15.810  40.960   3.275
49422W        W17640   6.810  12.573  13.857
49423W        W17641  26.182  29.151   0.567
49424W        W17642  14.913  13.898   2.850
49425W        W17643  34.574   8.376  13.431
49426W        W17644  40.570  13.134   3.654
49427W        W17645  31.153  30.929  14.911
49428W        W17646  39.479  13.381  12.617
49429W        W17647  20.705  33.491  12.959
49430W        W17648  35.408  10.605  14.481
49431W        W17649  43.389  14.757  12.062
49432W        W17650   4.340   1.984   2.297
49433W        W17651   7.932  16.158  13.951
49434W        W17652  39.356   1.490  14.362
49435W        W17653  33.237  35.897   9.972
49436W        W17654   5.286  35.817  14.796
49437W        W17655  37.334  41.245   1.243
49438W        W17656  23.199  24.528  10.865
49439W        W17657  16.806  34.743  11.413
49440W        W17658  15.982  11.801  14.982
49441W        W17659  26.373  20.924   2.716
49442W        W17660  40.595  37.023  14.139
49443W        W17661  34.066   8.293  13.504
49444W        W17662  11.186   7.399  11.957
49445W        W17663  30.339  29.231   0.891
49446W        W17664  18.284  15.736   3.137
49447W        W17665  34.981   2.497  11.890
49448W        W17666  12.032   7.855  14.855
49449W        W17667  23.078  37.245   3.636
49450W        W17668   3.662   3.693   0.499
49451W        W17669   6.442  34.689   0.141
49452W        W17670  35.791  37.493   4.528
49453W        W17671  31.989  28.351  12.604
49454W        W17672  13.231  42.490  12.363
49455W        W17673  24.487  23.787  14.438
49456W        W17674   3.196   2.225   0.417
49457W        W17675  35.056  17.664  14.786
49458W        W17676  18.392  33.611   5.023
49459W        W17677  40.960  13.052  11.079
49460W        W17678  25.446  22.688  12.357
49461W        W17679  21.555  21.267   2.833
49462W        W17680   8.138  43.468  13.907
49463W        W17681  17.340   9.675  11.603
49464W        W17682  27.993  19.653   0.540
49465W        W17683  33.984   7.250   1.692
49466W        W17684  18.753  25.610   0.823
49467W        W17685  23.049  18.035  12.823
49468W        W17686  43.064  38.471  13.058
49469W        W17687  27.168  36.309  11.924
49470W        W17688  38.333  15.704  11.442
49471W        W17689  18.200   8.170   1.404
49472W        W17690  40.147  39.983  10.409
49473W        W17691  13.707   7.656   2.435
49474W        W17692  28.837  42.734   0.177
49475W        W17693   3.539  36.110  11.281
49476W        W17694   6.971  41.466  14.052
49477W        W17695  23.050   7.473   1.699
49478W        W17696  10.641  42.506  10.591
49479W        W17697  39.081  31.956  10.646
49480W        W17698   3.997  25.080  12.436
49481W        W17699  32.891  37.818   2.059
49482W        W17700  33.109   6.787  12.021
49483W        W17701  26.551  43.890  14.519
49484W        W17702  43.420  26.116  14.508
49485W        W17703  17.707  10.861  13.061
49486W        W17704  23.129  27.528   3.943
49487W        W17705  21.437   9.409   2.783
49488W        W17706   1.015  44.937   0.818
49489W        W17707  39.758   8.152  14.353
49490W        W17708  18.159   9.981  11.992
49491W        W17709  26.325  43.489  13.951
49492W        W17710  19.053  30.468   2.996
49493W        W17711  14.107  15.140   0.362
49494W        W17712  19.709  36.634   2.742
49495W        W17713  21.978  38.497   4.609
49496W        W17714  39.935  31.851   2.610
49497W        W17715  36.831  24.775   3.748
49498W        W17716   7.946   9.365   3.649
49499W        W17717  30.651  19.949   3.014
49500W        W17718  23.690  10.400   4.129
49501W        W17719  11.602  18.963   3.683
49502W        W17720   2.517  10.916  11.394
49503W        W17721  13.967  13.771  13.819
49504W        W17722  25.498  16.294  10.691
49505W        W17723  15.730  39.988  13.579
49506W        W17724   7.600  16.069  14.326
49507W        W17725   4.380  44.310   0.735
49508W        W17726  40.927  40.286  14.269
49509W        W17727  30.179  31.954  11.109
49510W        W17728  24.506  41.825  11.560
49511W        W17729  35.505  43.144  12.954
49512W        W17730  30.987   3.760  14.450
49513W        W17731  29.957  38.009  10.722
49514W        W17732   5.488  25.227   1.816
49515W        W17733   4.569  29.144   1.994
49516W        W17734   9.415  31.737  14.985
49517W        W17735  35.793   6.412  14.982
49518W        W17736  19.202  42.125   1.800
49519W        W17737  13.656  36.791   0.345
49520W        W17738  41.557  42.092  14.382
49521W        W17739  31.074  25.118   1.914
49522W        W17740  22.032  18.042  12.082
49523W        W17741  10.871   1.246  13.893
49524W        W17742  19.843   6.325   3.672
49525W        W17743  41.060  31.805   3.212
49526W        W17744   6.409  33.090  12.106
49527W        W17745  22.751  16.146  14.025
49528W        W17746   7.803   6.042   1.881
49529W        W17747  17.011  21.938  12.547
49530W        W17748   0.259  17.721   3.794
49531W        W17749  36.060   3.410  10.638
49532W        W17750   6.309  28.121   0.791
49533W        W17751  32.639  22.628  14.445
49534W        W17752  18.699   9.475   2.953
49535W        W17753  10.912  19.424   4.928
49536W        W17754  31.458  30.391   4.589
49537W        W17755  26.148   2.770   1.657
49538W        W17756   9.312  38.858  12.524
49539W        W17757   4.362  43.539  14.049
49540W        W17758  10.218   9.927  12.137
49541W        W17759  42.059  43.033  11.534
49542W        W17760  13.089   7.675   3.200
49543W        W17761  10.945  31.916  14.491
49544W        W17762  29.127  10.649  12.054
49545W        W17763  30.152  19.381   3.073
49546W        W17764  15.144   4.375   1.761
49547W        W17765  35.299  10.678  12.911
49548W        W17766  19.753  34.745   1.436
49549W        W17767  41.034  25.712  11.159
49550W        W17768  17.182  24.367   1.111
49551W        W17769  19.847  40.845   1.492
49552W        W17770  33.551  17.532  14.037
49553W        W17771   6.636  41.831   3.706
49554W        W17772  21.636  20.284  10.713
49555W        W17773  18.028  14.090  13.077
49556W        W17774  12.310   1.371   0.513
49557W        W17775  21.540  10.370  14.415
49558W        W17776  41.906  35.021  12.868
49559W        W17777  20.976  11.033   0.392
49560W        W17778  38.465   5.817  10.427
49561W        W17779  37.611  39.265  11.599
49562W        W17780  14.275  34.812   2.563
49563W        W17781   0.799  29.519  12.632
49564W        W17782  29.699   6.997  14.679
49565W        W17783   3.424  11.400  12.509
49566W        W17784  15.188  35.418  11.699
49567W        W17785  22.541  18.736   1.418
49568W        W17786  17.591   7.568   4.858
49569W        W17787  23.584  14.107   0.666
49570W        W17788  39.012   6.118   2.901
49571W        W17789  30.457   6.619   0.306
49572W        W17790  30.720  14.101  12.773
49573W        W17791  30.058  16.050   3.765
49574W        W17792  39.915   7.880   3.104
49575W        W17793  15.524  18.345   0.691
49576W        W17794  24.901  24.741   0.254
49577W        W17795  38.303  33.164  13.897
49578W        W17796  11.732  32.513  10.680
49579W        W17797  10.916   8.255  14.542
49580W        W17798  21.577  35.521   0.373
49581W        W17799  10.030  22.542   1.747
49582W        W17800  20.191  23.296  11.108
49583W        W17801  32.231  11.716   4.973
49584W        W17802  34.376  35.336  10.642
49585W        W17803   4.406   8.291  13.961
49586W        W17804  43.469  39.010   3.329
49587W        W17805  15.716  38.533   3.104
49588W        W17806  36.492  26.105   4.644
49589W        W17807  15.212  44.508   3.670
49590W        W17808  23.016  19.508   0.487
49591W        W17809   1.790  34.442  13.834
49592W        W17810  11.713  34.935   4.653
49593W        W17811  24.499   8.618  11.715
49594W        W17812  43.157   3.223  12.862
49595W        W17813  33.112   1.458  12.955
49596W        W17814  18.009  23.951  11.080
49597W        W17815  16.730  43.483  14.357
49598W        W17816  16.488  37.437   2.342
49599W        W17817   8.010  17.235   1.350
49600W        W17818  39.346  23.655  14.504
49601W        W17819  44.771  21.730   4.927
49602W        W17820  39.388  44.867   2.689
49603W        W17821  31.583  21.424  12.349
49604W        W17822  15.109   2.392   2.573
49605W        W17823  37.249  44.842  14.736
49606W        W17824  40.154  29.046  13.084
49607W        W17825   4.857  19.587   1.317
49608W        W17826  25.840  13.197  11.766
49609W        W17827  23.634  20.064  10.647
49610W        W17828  17.100  29.225   0.309
49611W        W17829  30.582  22.359  14.307
49612W        W17830  39.046  25.508   2.147
49613W        W17831   9.585  36.235  14.526
49614W        W17832   8.241   0.881  11.474
49615W        W17833  14.823   8.360   4.923
49616W        W17834  18.968  21.443  14.770
49617W        W17835   6.079   4.400   3.245
49618W        W17836  22.730   7.829   4.025
49619W        W17837   1.853  35.400   4.627
49620W        W17838  14.025  13.861  11.598
49621W        W17839   8.450  31.015   1.153
49622W        W17840   5.988  13.221  14.554
49623W        W17841   5.616  24.914  10.708
49624W        W17842  15.532  28.513   0.302
49625W        W17843   5.329   4.492   0.777
49626W        W17844  34.036  14.558   4.909
49627W        W17845  42.418  21.178   1.878
49628W        W17846  22.673   2.274   3.737
49629W        W17847  40.543  43.882   4.725
49630W        W17848  15.684  42.263  11.182
49631W        W17849  11.395  24.535   0.820
49632W        W17850  34.350  41.783  11.055
49633W        W17851  14.134  16.086  13.377
49634W        W17852  14.076  14.849  14.012
49635W        W17853  20.271  29.528   1.444
49636W        W17854  35.345  41.797   3.631
49637W        W17855  14.214   2.911  10.240
49638W        W17856   8.345  37.125  13.421
49639W        W17857   1.425  37.394   4.344
49640W        W17858   2.020  41.481   1.642
49641W        W17859  23.765  22.021  10.708
49642W        W17860   4.092  25.537  14.420
49643W        W17861  37.902  16.792   0.819
49644W        W17862  43.279  19.998   0.752
49645W        W17863   0.539  27.454  14.658
49646W        W17864  18.920  31.167  11.308
49647W        W17865  14.865  34.535  14.856
49648W        W17866  30.420  30.054  13.449
49649W        W17867  26.711  30.098   3.623
49650W        W17868  35.315  17.914  10.654
49651W        W17869  24.953  43.341   1.735
49652W        W17870  38.567   4.725   3.324
49653W        W17871  15.104  10.377  11.562
49654W        W17872  22.049  43.451   1.285
49655W        W17873  32.446  16.663  12.439
49656W        W17874  43.232  20.256  13.872
49657W        W17875  25.972  36.871  13.010
49658W        W17876  14.748   1.549  10.265
49659W        W17877  38.846  39.566  14.025
49660W        W17878   2.165   6.144   4.188
49661W        W17879   2.039  32.770   0.910
49662W        W17880  33.206  27.933  11.416
49663W        W17881  14.929  21.622   0.946
49664W        W17882  12.111  41.071   1.839
49665W        W17883  17.014  10.278   4.103
49666W        W17884  24.606   4.765   1.508
49667W        W17885  21.239  41.061   1.333
49668W        W17886  39.744  22.779   0.618
49669W        W17887   8.908  15.835  11.805
49670W        W17888  11.601  18.536   2.262
49671W        W17889  42.302  11.854  14.142
49672W        W17890  36.478  37.000  13.214
49673W        W17891  32.928  30.312   2.627
49674W        W17892  38.331  29.984   0.694
49675W        W17893  39.766  11.249   3.895
49676W        W17894  26.307   9.339   0.874
49677W        W17895  33.964  18.191  14.521
49678W        W17896  30.131  34.444   1.382
49679W        W17897  36.751  20.030  11.629
49680W        W17898  43.146  19.271   2.783
49681W        W17899  36.349  22.535  13.219
49682W        W17900  16.337  32.681   2.292
49683W        W17901  41.275  35.019   4.309
49684W        W17902  30.214  33.713  14.800
49685W        W17903  40.078  16.620  12.344
49686W        W17904  14.340   9.704   3.100
49687W        W17905  41.402   4.281   2.733
49688W        W17906  23.534  27.161  12.597
49689W        W17907  35.377  15.663   3.067
49690W        W17908  16.908   9.710  14.856
49691W        W17909   0.919   4.776   3.728
49692W        W17910   5.851   7.655   4.260
49693W        W17911  22.188  27.136   3.709
49694W        W17912   9.129  20.699  14.490
49695W        W17913  19.615  31.953   3.087
49696W        W17914  31.497   4.194  14.721
49697W        W17915  34.953  43.431   4.460
49698W        W17916  21.919  27.512   3.235
49699W        W17917  41.886  42.364   0.263
49700W        W17918  11.706  37.872   0.753
49701W        W17919  35.580  10.496  11.558
49702W        W17920  15.593  32.490  13.845
49703W        W17921  40.035  44.026  10.861
49704W        W17922   2.865  22.898  12.012
49705W        W17923  38.166  19.212  10.566
49706W        W17924  39.149  12.488  13.449
49707W        W17925  18.804   5.882   1.375
49708W        W17926  33.964  20.998   2.235
49709W        W17927  37.332  20.179   1.363
49710W        W17928  14.761   4.190  10.950
49711W        W17929  29.180  31.260  14.259
49712W        W17930  24.118  14.299  10.656
49713W        W17931  14.142  28.415  11.198
49714W        W17932   7.848   3.639  11.378
49715W        W17933  27.587   8.172   4.757
49716W        W17934   1.323   1.286   4.167
49717W        W17935  15.099  41.919   0.889
49718W        W17936  31.133  38.402  11.910
49719W        W17937  14.597  17.196  11.583
49720W        W17938   6.235  29.690  10.989
49721W        W17939  18.391  15.821   2.636
49722W        W17940   7.239  39.642  10.358
49723W        W17941  20.697  44.747   3.680
49724W        W17942  37.813  33.624   4.713
49725W        W17943   1.272  25.082   3.879
49726W        W17944  28.029  35.605  12.869
49727W        W17945   3.451  13.276  14.739
49728W        W17946  20.629  39.566  12.501
49729W        W17947   5.926  21.286   2.722
49730W        W17948   5.427  19.303  11.198
49731W        W17949  21.327   3.073  14.946
49732W        W17950  20.664  38.475  11.567
49733W        W17951  21.322   6.489   3.520
49734W        W17952  16.752  35.038  14.069
49735W        W17953  40.448  21.143   1.704
49736W        W17954  16.178  27.672  10.458
49737W        W17955  34.380  36.837   3.275
49738W        W17956   1.236   4.770  14.933
49739W        W17957  15.032  12.914   3.089
49740W        W17958  18.583  26.208  10.577
49741W        W17959  16.579  29.307   2.449
49742W        W17960  27.601  19.885  13.549
49743W        W17961   8.749   1.880  13.051
49744W        W17962  38.117  19.817  11.842
49745W        W17963  20.476  41.560   5.175
49746W        W17964  28.561  10.826   4.175
49747W        W17965   6.375  30.780  11.102
49748W        W17966  40.271  17.105  10.718
49749W        W17967   6.285  33.114   3.711
49750W        W17968  34.314  33.349  11.023
49751W        W17969   2.924   4.334   4.524
49752W        W17970  35.648  26.763  13.077
49753W        W17971   4.152  20.171   0.458
49754W        W17972   8.139  23.308  11.740
49755W        W17973   3.432  29.089   9.966
49756W        W17974  11.191  26.087   4.221
49757W        W17975  32.603  25.615  12.137
49758W        W17976  33.963  34.559  10.690
49759W        W17977  37.629  37.406   1.886
49760W        W17978   1.690  25.653   2.865
49761W        W17979  34.934  24.394  11.830
49762W        W17980  23.470  11.777  11.907
49763W        W17981  29.625   5.106   3.191
49764W        W17982   7.612   4.047  14.909
49765W        W17983  14.913  18.620   3.713
49766W        W17984  17.761  33.351   0.407
49767W        W17985  12.590  10.473   5.147
49768W        W17986   2.315  29.759  11.206
49769W        W17987  12.820  33.557  12.078
49770W        W17988  44.806  26.126  10.976
49771W        W17989  41.420  40.796   4.827
49772W        W17990  42.378   9.737   4.581
49773W        W17991  30.649  16.365   0.767
49774W        W17992  18.002   7.594  12.457
49775W        W17993  12.563   9.442  13.060
49776W        W17994  19.027  11.563  10.279
49777W        W17995  20.293  19.044  13.642
49778W        W17996  22.270  29.647  11.076
49779W        W17997  25.476  33.476  11.569
49780W        W17998  26.857  30.644  11.609
49781W        W17999  40.121  18.755  10.624
49782W        W18000  30.125  25.976  10.693
49783W        W18001  42.520  14.140  14.493
49784W        W18002   9.089  36.069   0.660
49785W        W18003   2.510  44.126   1.218
49786W        W18004   0.185  19.783  11.159
49787W        W18005  17.266   5.763  13.882
49788W        W18006  35.422  26.974  11.530
49789W        W18007   8.733  21.504   4.105
49790W        W18008  22.985  28.291  14.857
49791W        W18009   2.759  39.731  15.000
49792W        W18010  14.576   4.255   3.612
49793W        W18011  11.808   5.934   2.322
49794W        W18012  18.984  13.149   2.193
49795W        W18013  38.334  30.409   3.958
49796W        W18014  43.069   7.289  14.695
49797W        W18015  30.088  44.421  10.820
49798W        W18016  44.955  33.696  11.118
49799W        W18017   7.425  15.605  12.908
49800W        W18018  34.055  32.940  11.313
49801W        W18019  18.996   1.932   3.681
49802W        W18020  33.433  12.686   4.070
49803W        W18021  16.197  15.358  12.570
49804W        W18022  41.428  19.708   3.105
49805W        W18023   8.220  25.285  12.135
49806W        W18024  36.248  12.610  10.787
49807W        W18025  30.975  27.932   0.023
49808W        W18026  15.081  43.002   0.729
49809W        W18027  10.681   6.445   4.115
49810W        W18028  26.239  35.756  12.008
49811W        W18029  36.590  35.533   2.273
49812W        W18030   0.837  24.068   1.631
49813W        W18031  41.871  10.488   4.552
49814W        W18032  27.238   9.285   0.848
49815W        W18033  16.054  27.045  13.827
49816W        W18034  22.789   0.259  12.095
49817W        W18035  15.277  39.565   1.837
49818W        W18036  11.396   4.924   0.863
49819W        W18037  17.048  12.018   1.434
49820W        W18038  37.885  26.072  13.392
49821W        W18039  36.367   0.008  12.466
49822W        W18040  22.549   3.294  11.994
49823W        W18041  44.935  37.291  13.334
49824W        W18042   4.015  43.519   4.190
49825W        W18043  38.032  24.458  11.957
49826W        W18044   8.205  14.127  11.199
49827W        W18045   9.587  11.772   2.324
49828W        W18046  25.497  38.775   4.312
49829W        W18047   5.331  21.358   4.475
49830W        W18048  30.158  33.084   3.703
49831W        W18049  35.548   2.214  14.903
49832W        W18050  28.467   5.717  10.663
49833W        W18051  21.009  23.532   3.208
49834W        W18052  33.411   9.197   4.902
49835W        W18053  42.895   0.563   4.460
49836W        W18054  39.843   6.040   0.904
49837W        W18055  41.287   3.369   4.576
49838W        W18056   5.420  36.603  11.208
49839W        W18057  15.707  43.013   4.275
49840W        W18058  27.897  41.569   3.676
49841W        W18059  16.229  20.779   0.425
49842W        W18060  15.077   8.912   3.571
49843W        W18061  23.989   3.942   1.355
49844W        W18062  10.733  27.936  14.980
49845W        W18063  18.933  31.121   2.309
49846W        W18064  42.656   3.202  13.064
49847W        W18065  29.278   5.992   0.781
49848W        W18066  43.505  22.214   3.610
49849W        W18067  42.384  36.454  13.511
49850W        W18068  10.672   4.110  10.832
49851W        W18069  25.089  34.959  11.208
49852W        W18070  20.744  25.023  14.395
49853W        W18071  14.570   3.380   4.546
49854W        W18072  11.835  31.328  14.988
49855W        W18073  37.334  27.953   4.218
49856W        W18074  29.196  38.360  13.326
49857W        W18075   7.765  38.467  10.418
49858W        W18076  42.845  38.787   1.262
49859W        W18077  33.148  12.828   3.630
49860W        W18078  13.564  25.129  14.793
49861W        W18079  11.578  27.032   0.603
49862W        W18080  32.428  33.938   3.102
49863W        W18081  36.319   3.028  11.379
49864W        W18082  43.873  42.395   1.943
49865W        W18083   2.355  39.334   1.359
49866W        W18084   0.673   3.518   5.120
49867W        W18085  42.916   9.358  12.881
49868W        W18086  18.742   8.668   4.612
49869W        W18087  30.436  19.231  13.819
49870W        W18088  41.425  16.065  11.353
49871W        W18089  26.455   2.829   0.345
49872W        W18090  16.638  31.961  11.266
49873W        W18091   0.387  37.486  12.518
49874W        W18092  25.590  11.884  12.481
49875W        W18093  29.245  27.365   3.061
49876W        W18094  41.299  13.204   0.826
49877W        W18095  43.503  35.601  14.396
49878W        W18096  15.671   6.249   1.259
49879W        W18097   9.233  23.607  10.656
49880W        W18098  27.258   2.738  11.132
49881W        W18099   2.912   0.004  14.936
49882W        W18100  14.453  27.422  10.214
49883W        W18101  19.437  13.455   2.054
49884W        W18102  31.342  27.680  10.005
49885W        W18103  41.322  42.652   1.183
49886W        W18104   8.835  20.556   0.887
49887W        W18105  42.784  13.643   2.253
49888W        W18106  17.023  28.627  14.459
49889W        W18107  27.362  10.255  13.544
49890W        W18108  41.437  11.029  12.987
49891W        W18109  12.139  41.506  10.619
49892W        W18110  31.225  28.193  10.654
49893W        W18111  21.070  21.884  11.095
49894W        W18112   6.305   2.807   4.745
49895W        W18113  12.161   3.732   3.657
49896W        W18114  22.676  32.087   1.315
49897W        W18115   4.730  39.505   1.860
49898W        W18116  12.798  32.549  10.740
49899W        W18117  35.090   7.946  12.939
49900W        W18118  43.454   9.963   5.133
49901W        W18119  17.559  22.146   4.214
49902W        W18120  18.215  17.172  10.611
49903W        W18121  34.049  12.255  13.762
49904W        W18122  29.538  28.442   3.841
49905W        W18123  25.954   4.857  10.809
49906W        W18124  39.097   4.597  14.850
49907W        W18125  12.742  37.563   2.888
49908W        W18126  10.680  14.797   9.862
49909W        W18127   0.806  20.014   3.366
49910W        W18128  21.999  40.625  14.321
49911W        W18129  10.607  26.553  11.997
49912W        W18130  19.484   2.479   2.233
49913W        W18131  27.446   0.385   3.244
49914W        W18132  26.543  41.488   4.901
49915W        W18133  14.998  27.036  10.590
49916W        W18134  12.911   1.838   5.018
49917W        W18135  19.585  28.472  11.274
49918W        W18136   7.901  14.709  11.073
49919W        W18137  19.937  17.440  11.546
49920W        W18138  34.528  23.149   2.284
49921W        W18139  32.093  42.867  13.899
49922W        W18140  28.743   1.083   1.078
49923W        W18141  41.849   2.529  12.201
49924W        W18142  35.266   3.391   1.574
49925W        W18143  19.077  42.123   0.962
49926W        W18144  22.305   1.876   2.288
49927W        W18145  27.482  26.653   3.154
49928W        W18146  42.522  43.704   4.813
49929W        W18147  24.414  36.013   1.459
49930W        W18148  16.083  20.114  13.147
49931W        W18149  42.187   6.458   4.225
49932W        W18150  28.948  36.386   2.199
49933W        W18151  25.470  40.747   1.441
49934W        W18152  35.565  25.776   4.176
49935W        W18153  41.279  24.945  12.305
49936W        W18154  12.481  13.337   0.382
49937W        W18155   8.739   3.512   0.480
49938W        W18156  22.560  43.206  10.655
49939W        W18157  31.011  16.550   0.411
49940W        W18158  24.694  25.252   3.601
49941W        W18159  29.891  30.461   2.212
49942W        W18160  26.165  24.438  11.688
49943W        W18161  42.567  42.264   4.098
49944W        W18162  31.642  33.839  14.680
49945W        W18163  38.073  21.213   4.906
49946W        W18164  36.566  39.117  13.814
49947W        W18165  32.378   6.682  13.570
49948W        W18166  23.095  15.462   2.659
49949W        W18167   6.231  39.519  12.985
49950W        W18168   6.028   0.406  14.367
49951W        W18169  31.583  34.423   2.982
49952W        W18170  10.584  22.218  13.037
49953W        W18171  26.108  23.258  14.451
49954W        W18172   9.762  34.935   0.557
49955W        W18173  33.685   4.053  14.425
49956W        W18174  37.800  28.113  13.570
49957W        W18175  30.138  10.645  11.384
49958W        W18176   5.223  40.175  12.557
49959W        W18177   6.152  24.538  12.967
49960W        W18178  43.988  15.986  12.411
49961W        W18179  32.499  33.003  11.928
49962W        W18180  22.218  18.543   4.980
49963W        W18181  37.863   1.207  14.845
49964W        W18182  16.108   8.120  12.469
49965W        W18183  17.592  25.083   1.031
49966W        W18184   1.994  37.462   3.339
49967W        W18185  17.054   1.769  12.793
49968W        W18186  35.459  31.151  13.073
49969W        W18187  29.472  41.798   4.078
49970W        W18188   4.201  30.942   3.754
49971W        W18189  36.678   6.743  12.041
49972W        W18190  29.682  41.028   3.656
49973W        W18191  21.569  16.405  12.104
49974W        W18192   3.933  39.772   4.555
49975W        W18193   5.396  15.752   4.695
49976W        W18194  11.084  39.812   2.648
49977W        W18195   9.739  12.556  13.126
49978W        W18196  41.824  44.469  14.713
49979W        W18197  44.895   9.949   1.377
49980W        W18198  35.913  25.369  11.046
49981W        W18199   2.912  10.956   0.369
49982W        W18200  38.542  31.960   3.687
49983W        W18201   2.965  14.227   1.901
49984W        W18202  10.078   2.324  12.130
49985W        W18203  22.627   7.999  14.890
49986W        W18204  11.465  10.582   1.116
49987W        W18205   9.339   5.134  13.532
49988W        W18206  13.772  28.683  11.472
49989W        W18207  14.604  10.219  14.334
49990W        W18208  39.826  35.330   0.756
49991W        W18209  27.496  28.935   2.739
49992W        W18210  31.880  10.746   1.884
49993W        W18211  12.573  16.709  14.862
49994W        W18212   3.213  44.921   3.666
49995W        W18213  19.860  43.995   2.864
49996W        W18214  25.252   7.246   4.147
49997W        W18215  27.528  22.537   0.361
49998W        W18216  15.987  30.423  10.713
49999W        W18217  28.947  36.587   0.702
50000W        W18218  38.897  18.173   2.936
50001W        W18219  12.105  43.089   2.482
50002W        W18220   7.138  28.400  13.441
50003W        W18221  32.560  15.621  12.452
50004W        W18222  39.391  33.867  11.176
50005W        W18223  21.787   7.310  11.838
50006W        W18224   8.241  36.339   2.397
50007W        W18225  13.482  25.317   1.249
50008W        W18226  43.778  41.719  12.384
50009W        W18227  28.167  28.695   4.183
50010W        W18228  22.676  37.963   0.107
50011W        W18229  42.889   1.754   0.452
50012W        W18230  27.385   3.995   3.077
50013W        W18231  43.433  10.041   3.154
50014W        W18232  41.854  12.742   3.988
50015W        W18233  41.031   1.721   4.667
50016W        W18234  22.104  26.063  13.320
50017W        W18235  18.075   9.261  13.379
50018W        W18236  22.258  14.428   3.803
50019W        W18237  11.420  42.404   4.043
50020W        W18238  42.683  32.512   2.873
50021W        W18239  33.913  14.552  11.971
50022W        W18240  19.007  43.718   2.764
50023W        W18241  25.263  34.294   2.292
50024W        W18242  35.866  22.448  13.397
50025W        W18243  30.729   7.633  11.829
50026W        W18244  29.695   3.214   1.432
50027W        W18245  12.150  21.318   4.993
50028W        W18246  35.493  35.995  13.479
50029W        W18247  41.803   2.423   1.292
50030W        W18248   6.330   4.904   3.174
50031W        W18249  38.803  31.581   0.296
50032W        W18250  30.481  15.307  10.912
50033W        W18251  36.350  28.700   0.854
50034W        W18252  33.152   3.163  14.368
50035W        W18253   2.853  14.048   3.669
50036W        W18254  37.119  39.586   3.154
50037W        W18255   4.222  37.935   3.662
50038W        W18256  40.401  42.600   3.598
50039W        W18257  39.098  21.231   0.703
50040W        W18258  10.482  22.281   2.921
50041W        W18259  12.230   0.974  14.503
50042W        W18260  40.491  26.674   4.547
50043W        W18261   9.104  14.949   9.865
50044W        W18262  11.447  30.565  11.862
50045W        W18263  29.655   7.773  13.469
50046W        W18264   5.615  29.562   2.782
50047W        W18265  16.001  24.101   1.344
50048W        W18266  38.160  43.108   0.749
50049W        W18267  40.230  24.122  14.813
50050W        W18268   2.565  35.940   2.307
50051W        W18269  38.824  22.463  11.245
50052W        W18270  21.674   4.368  14.507
50053W        W18271  20.866  36.376   0.313
50054W        W18272   8.033  34.134  11.550
50055W        W18273  40.640   6.703   2.697
50056W        W18274  43.780  21.199   2.193
50057W        W18275  43.364  37.102  11.923
50058W        W18276   1.938  27.075   4.317
50059W        W18277  25.514  30.913  14.115
50060W        W18278   6.679  21.568  11.007
50061W        W18279  19.551   3.464   0.020
50062W        W18280  34.594   0.981  14.831
50063W        W18281  27.535  40.044  10.694
50064W        W18282   0.709  40.929   3.609
50065W        W18283  37.367  34.410  13.450
50066W        W18284  44.464  24.744  10.644
50067W        W18285  43.363  34.989  11.154
50068W        W18286   0.035  36.092   0.525
50069W        W18287  28.675   9.401  13.577
50070W        W18288  42.067  41.832  14.038
50071W        W18289  44.373  28.846   1.439
50072W        W18290  41.969  12.822  12.155
50073W        W18291  39.368  42.305  13.794
50074W        W18292  44.291  23.243  10.859
50075W        W18293  18.071  33.532   0.839
50076W        W18294  16.011  42.521  12.376
50077W        W18295  17.557  12.772   3.829
50078W        W18296  22.808  24.260  14.752
50079W        W18297  34.948  15.991  12.360
50080W        W18298  42.097   1.136  14.456
50081W        W18299  32.858   8.960  11.195
50082W        W18300  14.733   3.369   2.749
50083W        W18301  21.964   6.891  10.685
50084W        W18302  22.682   5.491  11.118
50085W        W18303  14.289  15.371   3.228
50086W        W18304  27.052  35.455  13.534
50087W        W18305   6.672  17.277  13.160
50088W        W18306   9.256  28.626  13.454
50089W        W18307   8.322  19.180   1.517
50090W        W18308  38.982  24.001  14.366
50091W        W18309  37.812   9.625  10.572
50092W        W18310  33.606  37.268  13.227
50093W        W18311   3.842  21.003  13.461
50094W        W18312  10.720  38.472  14.356
50095W        W18313  22.727  27.368   2.713
50096W        W18314   1.245  20.095  12.539
50097W        W18315  11.199  31.417  11.119
50098W        W18316  19.693  36.810   4.631
50099W        W18317   8.856  32.923   3.334
50100W        W18318  19.749   8.797  14.429
50101W        W18319  13.118  33.301  13.324
50102W        W18320   9.883  26.489  12.533
50103W        W18321  30.420  39.294  13.257
50104W        W18322   9.480  36.320   0.421
50105W        W18323  20.252  38.342  14.410
50106W        W18324  18.574   8.888  14.042
50107W        W18325   3.917  20.089  10.640
50108W        W18326  16.740  37.000   0.229
50109W        W18327  24.136  31.983   2.186
50110W        W18328  17.705   9.780   3.729
50111W        W18329  31.412   5.181  13.935
50112W        W18330  38.492  43.434  13.829
50113W        W18331  38.302  12.646   4.418
50114W        W18332  39.781  16.657   0.249
50115W        W18333   7.632  12.730  14.762
50116W        W18334  27.924   8.755  10.460
50117W        W18335   1.720  29.528  14.743
50118W        W18336  16.287  31.668   2.243
50119W        W18337   3.209  41.299  11.015
50120W        W18338  31.642  14.007  14.795
50121W        W18339  24.274   1.626   3.607
50122W        W18340  27.950  26.554  12.441
50123W        W18341  11.640  19.135  11.082
50124W        W18342  39.367  36.627   3.601
50125W        W18343  43.848   3.488   1.421
50126W        W18344  42.422  43.010  12.524
50127W        W18345  22.471   8.372   1.336
50128W        W18346  28.889  16.524  13.025
50129W        W18347   0.169  25.076   2.256
50130W        W18348  36.092   4.799   4.295
50131W        W18349  21.948  40.423   1.705
50132W        W18350  17.146   7.402  12.833
50133W        W18351  22.454  29.568  12.441
50134W        W18352  42.977   5.744   4.420
50135W        W18353  39.024  27.571  13.521
50136W        W18354  16.212   1.007   5.067
50137W        W18355  13.934  35.886   2.380
50138W        W18356  25.508  14.222  12.165
50139W        W18357  41.881  34.922   2.889
50140W        W18358  11.646   8.460  10.523
50141W        W18359  13.200  31.950  13.975
50142W        W18360   2.887  21.986   4.341
50143W        W18361   6.979  11.796   3.877
50144W        W18362  14.713  19.845  13.385
50145W        W18363  35.137  27.178   2.844
50146W        W18364   1.273  16.879   3.755
50147W        W18365  18.855  26.658   1.900
50148W        W18366  42.182   5.859  11.221
50149W        W18367   4.704  23.031  10.814
50150W        W18368  39.925  42.481   0.858
50151W        W18369  24.966  12.739   4.352
50152W        W18370  20.062  13.425  12.419
50153W        W18371   0.200   5.437   0.339
50154W        W18372  37.863  41.760  11.253
50155W        W18373   6.709  29.380   4.529
50156W        W18374  43.290  31.234   0.775
50157W        W18375  36.118   1.766  12.912
50158W        W18376   8.785  15.734   3.807
50159W        W18377  31.504  12.870  12.820
50160W        W18378   8.165   7.053   4.195
50161W        W18379  17.581  32.465   4.623
50162W        W18380  35.007  12.729  11.313
50163W        W18381  37.829  43.330  11.143
50164W        W18382  28.182  17.600  11.105
50165W        W18383  40.230   6.187  13.360
50166W        W18384  33.982  38.461   4.831
50167W        W18385  10.268   8.961   3.588
50168W        W18386   2.316  17.527  12.602
50169W        W18387   7.876  44.547   1.917
50170W        W18388   5.050  34.407   0.736
50171W        W18389  13.836   6.750   3.617
50172W        W18390  18.208  14.027   4.016
50173W        W18391  44.903  14.796  10.702
50174W        W18392  41.118  20.205   2.326
50175W        W18393  34.409  20.363  14.720
50176W        W18394  33.202  15.319   0.438
50177W        W18395  44.683   8.617  13.476
50178W        W18396  25.652  20.233   1.619
50179W        W18397  43.542  27.761   3.229
50180W        W18398  41.947  36.391  11.593
50181W        W18399  16.763  28.074  11.885
50182W        W18400  11.323  15.222  11.516
50183W        W18401  24.537  36.962   1.969
50184W        W18402  14.404  44.759   1.227
50185W        W18403   1.223   1.488  14.824
50186W        W18404  16.610  16.033  12.422
50187W        W18405  17.776   7.234  14.409
50188W        W18406  12.127  24.721   2.164
50189W        W18407  18.963   5.580   3.115
50190W        W18408  15.289  21.772   2.676
50191W        W18409  36.579  33.791  13.449
50192W        W18410   3.381  34.647  11.002
50193W        W18411   9.725  11.338  12.023
50194W        W18412  14.183  20.830   3.259
50195W        W18413  26.311   7.744   1.760
50196W        W18414  10.661  26.515   5.156
50197W        W18415   9.619  27.543   1.452
50198W        W18416  29.756  37.336  14.824
50199W        W18417  34.038   1.746  10.947
50200W        W18418   9.679  26.980   1.754
50201W        W18419  42.629  21.333  14.833
50202W        W18420  34.091  22.795   1.817
50203W        W18421  30.514  21.290   2.832
50204W        W18422  22.253  37.481  13.456
50205W        W18423  34.691  32.373   1.017
50206W        W18424  19.428  16.100   1.888
50207W        W18425  38.493  11.283   4.195
50208W        W18426  11.640   4.271   4.145
50209W        W18427  22.171  17.868  13.457
50210W        W18428  42.016  30.449   1.896
50211W        W18429  25.028  38.929   2.140
50212W        W18430   1.583  40.052  12.098
50213W        W18431  15.799   1.472  12.983
50214W        W18432  22.826   1.274   4.569
50215W        W18433   9.452  10.109   1.900
50216W        W18434   2.912  12.157  14.958
50217W        W18435   2.199   9.913   2.354
50218W        W18436  15.018  31.124   3.545
50219W        W18437   0.262  20.718  14.496
50220W        W18438  10.550   7.309   1.768
50221W        W18439   8.714  38.840   0.813
50222W        W18440  36.555  35.164  11.127
50223W        W18441  28.646  27.899  11.797
50224W        W18442  40.553  28.381  13.771
50225W        W18443  29.136  10.280  10.738
50226W        W18444  19.838   0.942  11.544
50227W        W18445   3.946  44.053  11.647
50228W        W18446  39.495  43.581   4.327
50229W        W18447   1.882  12.638  13.529
50230W        W18448  11.110  36.070  13.084
50231W        W18449   0.934  19.071   4.246
50232W        W18450   9.612  30.910   3.686
50233W        W18451  37.572   4.962  14.100
50234W        W18452  37.770  37.448  12.987
50235W        W18453   5.791   5.229   0.457
50236W        W18454  35.405  44.849   3.531
50237W        W18455  31.622  21.226  10.094
50238W        W18456   6.166  34.116   1.940
50239W        W18457  33.458  34.918   5.020
50240W        W18458   3.001  12.670  11.064
50241W        W18459  35.693  18.778  12.624
50242W        W18460  13.193  20.329  14.326
50243W        W18461  33.314   5.195  14.790
50244W        W18462  44.826  16.245  13.446
50245W        W18463  31.608   4.572   0.273
50246W        W18464  30.158  28.987   1.340
50247W        W18465   5.653  21.244  11.053
50248W        W18466  37.483   4.063   3.657
50249W        W18467  16.101  11.651   4.922
50250W        W18468  41.788  36.913   4.237
50251W        W18469  24.210  25.587   0.767
50252W        W18470  35.392  11.429  13.358
50253W        W18471  43.883  14.044   4.084
50254W        W18472  33.155  39.298   4.179
50255W        W18473  40.624  33.357  12.155
50256W        W18474   6.235   2.399  13.247
50257W        W18475  18.139   5.245   1.221
50258W        W18476  17.334  30.942  13.817
50259W        W18477  43.134  27.993  14.892
50260W        W18478   3.689  12.681   4.471
50261W        W18479   4.346  35.123   4.671
50262W        W18480   2.492  14.634   3.651
50263W        W18481  25.354  18.463  11.120
50264W        W18482  43.762   9.637   4.602
50265W        W18483  40.044  32.982  13.550
50266W        W18484   7.820  12.742   0.225
50267W        W18485  16.064   6.337  11.051
50268W        W18486  32.117  14.725  13.550
50269W        W18487  36.936   6.920   2.154
50270W        W18488  24.703  13.599  12.843
50271W        W18489  38.838  20.441   2.669
50272W        W18490   0.521   8.073  11.527
50273W        W18491   4.315  22.131  10.456
50274W        W18492  10.897  42.789   2.902
50275W        W18493  25.933  32.576   0.407
50276W        W18494   8.382  13.875  11.627
50277W        W18495  29.125  13.407   3.987
50278W        W18496  32.919  43.371  12.077
50279W        W18497  41.881  36.799   1.846
50280W        W18498  11.529  34.210  11.987
50281W        W18499  30.480  41.799  12.830
50282W        W18500  11.850  13.271  14.569
50283W        W18501  32.833   0.975   2.212
50284W        W18502  35.148  40.995   2.288
50285W        W18503  28.027  19.735  13.200
50286W        W18504  33.573  28.534   4.455
50287W        W18505  26.458  32.924   9.949
50288W        W18506  41.424  36.568   1.759
50289W        W18507  25.173  44.939  13.837
50290W        W18508   2.457  24.402   4.690
50291W        W18509   9.352  29.614  12.440
50292W        W18510  20.249  16.792   0.453
50293W        W18511  10.801  16.775   2.939
50294W        W18512  22.228  44.473   4.558
50295W        W18513   4.508  36.547  12.968
50296W        W18514  29.232  35.967   2.966
50297W        W18515   9.285  39.552   4.118
50298W        W18516   8.673  28.725   2.343
50299W        W18517  31.999   1.328   2.054
50300W        W18518  39.320  33.362   1.793
50301W        W18519  29.182  17.737   4.241
50302W        W18520  24.906  12.420  11.045
50303W        W18521  44.220  24.814   0.840
50304W        W18522  18.164  42.844   4.119
50305W        W18523  20.572  22.779   4.626
50306W        W18524  35.704   9.194   1.883
50307W        W18525  16.647  27.355   2.234
50308W        W18526  36.000   3.348   4.552
50309W        W18527  23.048  38.004  10.689
50310W        W18528  39.111  29.689  13.025
50311W        W18529  32.686   6.197   4.283
50312W        W18530  39.635  28.996  14.473
50313W        W18531  11.648  30.502   4.569
50314W        W18532  34.952  15.341   1.704
50315W        W18533  39.818  27.934   3.218
50316W        W18534  18.659   4.368  14.377
50317W        W18535  33.938  12.359   0.412
50318W        W18536   2.571  31.633  10.366
50319W        W18537  21.481  21.276   1.194
50320W        W18538  34.504   0.276   0.372
50321W        W18539  20.466  28.483  12.401
50322W        W18540  24.691  27.881  12.036
50323W        W18541  33.305  29.584   9.887
50324W        W18542  23.052  14.467   2.830
50325W        W18543  26.180   0.771  14.808
50326W        W18544  25.889  43.922   2.724
50327W        W18545  11.865  39.234   4.227
50328W        W18546  28.105  36.294   1.764
50329W        W18547   5.504  30.181   3.300
50330W        W18548   3.856  28.915   1.209
50331W        W18549   3.652  30.121  13.014
50332W        W18550  26.074  34.146   4.180
50333W        W18551   9.094  39.536  10.754
50334W        W18552  44.722  39.797  11.600
50335W        W18553  44.598  18.141   1.796
50336W        W18554  23.538  24.953   3.109
50337W        W18555  40.894  13.364  13.074
50338W        W18556   9.274  33.243  14.991
50339W        W18557   6.455  40.470   4.253
50340W        W18558  18.137   9.905  12.956
50341W        W18559  37.921  19.337  11.885
50342W        W18560   5.083   1.918  12.860
50343W        W18561   1.787  29.987   0.390
50344W        W18562  16.151  11.631   4.401
50345W        W18563  27.575  12.621  13.018
50346W        W18564   6.323  10.714  13.235
50347W        W18565   4.999  30.508  11.455
50348W        W18566  16.187  18.349  14.038
50349W        W18567  33.366  29.418   0.758
50350W        W18568  30.509   6.443   1.819
50351W        W18569  14.770  40.490   4.135
50352W        W18570  11.846   1.409   2.112
50353W        W18571  21.109  14.216   1.929
50354W        W18572   1.177  43.843  13.031
50355W        W18573  28.620  25.106   1.913
50356W        W18574   9.168  39.018  12.061
50357W        W18575  13.997  42.297  12.010
50358W        W18576  34.614  17.828   4.619
50359W        W18577  35.878  12.525  13.416
50360W        W18578  18.670  18.727   2.675
50361W        W18579  20.201  30.904   3.624
50362W        W18580  33.457   7.605   4.621
50363W        W18581  24.120  39.476   4.563
50364W        W18582  27.749  35.284   0.852
50365W        W18583  38.901  17.254  12.669
50366W        W18584   2.974  20.678   1.413
50367W        W18585   4.021  14.166  14.365
50368W        W18586  10.327  23.026   1.690
50369W        W18587  13.263   0.110   3.622
50370W        W18588   0.397  25.723  13.988
50371W        W18589  11.599   0.479   1.273
50372W        W18590  40.235  36.522  10.800
50373W        W18591  16.703  29.445  14.951
50374W        W18592  42.060  35.371   1.528
50375W        W18593   7.949  41.949   0.528
50376W        W18594   3.884   5.014   3.741
50377W        W18595  27.187   1.961   0.515
50378W        W18596   9.688  25.728  13.606
50379W        W18597  16.624  44.522  13.521
50380W        W18598   0.938  24.116   1.110
50381W        W18599   9.426  15.993   3.206
50382W        W18600   9.887  38.823   1.879
50383W        W18601  44.273  38.821  13.802
50384W        W18602  15.909  40.108   0.584
50385W        W18603  27.983  21.180  11.017
50386W        W18604  12.881  42.785   0.206
50387W        W18605  28.652  13.027  10.200
50388W        W18606  15.658  18.284  13.336
50389W        W18607  18.379  27.917   4.097
50390W        W18608  38.843   5.958   4.110
50391W        W18609  13.163  27.652   2.251
50392W        W18610  31.636   8.125   0.379
50393W        W18611  20.537  43.790   1.510
50394W        W18612  44.426  36.311  13.877
50395W        W18613  34.183  12.593  11.999
50396W        W18614   8.512  32.914   4.041
50397W        W18615  32.386  18.226  14.331
50398W        W18616  26.740  19.936  12.220
50399W        W18617  42.866  41.552  12.346
50400W        W18618  34.344   7.127   2.291
50401W        W18619  25.663   4.446   0.564
50402W        W18620   9.804  25.105   1.252
50403W        W18621   9.658  18.984   2.806
50404W        W18622  25.062  21.053   3.876
50405W        W18623   6.127  32.362  10.448
50406W        W18624  34.443  31.233  13.422
50407W        W18625  38.463  40.106   2.347
50408W        W18626  33.811   5.628   1.977
50409W        W18627  23.231  22.512  14.884
50410W        W18628   6.730  26.392   2.683
50411W        W18629  36.601   1.739  13.102
50412W        W18630   1.530  13.618  13.251
50413W        W18631  20.758  42.070   4.250
50414W        W18632  19.126   1.971   4.235
50415W        W18633  27.475   2.479  10.718
50416W        W18634   1.531  27.975   2.472
50417W        W18635  14.274   9.137  11.644
50418W        W18636   0.082   7.968  14.590
50419W        W18637  13.170  35.920   1.167
50420W        W18638  28.556  25.052  13.033
50421W        W18639   9.707  19.300  13.507
50422W        W18640  31.123  21.400  14.882
50423W        W18641  22.691   5.819  13.045
50424W        W18642  37.592  29.350   2.668
50425W        W18643   0.708   4.915   1.231
50426W        W18644  26.520  22.710   3.661
50427W        W18645  10.676  44.403   1.141
50428W        W18646  18.080  34.713  10.455
50429W        W18647   3.486   9.633   2.918
50430W        W18648  28.654  21.185  14.268
50431W        W18649   2.952  40.868  11.132
50432W        W18650  26.044  11.429  14.344
50433W        W18651   9.430   0.887   1.490
50434W        W18652  36.730  35.738   4.692
50435W        W18653  26.435  21.056  10.647
50436W        W18654  12.234   1.393   1.022
50437W        W18655  34.554  39.499  12.313
50438W        W18656  26.019   7.129  10.571
50439W        W18657  40.966  10.656   1.736
50440W        W18658   7.790   0.816  10.599
50441W        W18659  30.678  16.634   1.224
50442W        W18660  38.425   0.642   4.143
50443W        W18661  36.367  31.935  10.613
50444W        W18662  40.582   3.284   3.112
50445W        W18663  32.158  29.182   4.203
50446W        W18664  41.442  35.853  10.912
50447W        W18665   6.962   7.230   3.662
50448W        W18666  22.205   0.794  14.494
50449W        W18667  43.332   4.536   0.158
50450W        W18668  14.759   1.416  13.835
50451W        W18669  14.563  35.618  14.814
50452W        W18670  38.354   1.296  14.438
50453W        W18671  32.377  44.334  10.262
50454W        W18672  25.232  16.617  13.507
50455W        W18673  43.386  41.030   4.536
50456W        W18674  39.873  41.236  11.714
50457W        W18675  31.630  31.474   0.999
50458W        W18676  10.935  17.552   5.038
50459W        W18677   5.711  32.020  11.133
50460W        W18678  13.822  32.386  13.407
50461W        W18679  35.505   2.192   0.450
50462W        W18680  40.409  24.602  14.706
50463W        W18681   2.023  35.051   0.883
50464W        W18682  29.424  26.063  14.015
50465W        W18683  42.123  34.058   4.831
50466W        W18684  24.165  41.596  11.179
50467W        W18685  37.659   9.067   0.374
50468W        W18686  31.478  32.861   0.150
50469W        W18687  43.313  13.981  13.047
50470W        W18688  21.268  13.242  10.932
50471W        W18689  32.431  42.958  14.300
50472W        W18690   2.916  30.023   0.078
50473W        W18691  13.350  37.954  11.635
50474W        W18692   1.714   0.381  11.665
50475W        W18693   3.915   1.809  14.750
50476W        W18694  15.636  10.923  14.372
50477W        W18695  21.247   0.770   1.690
50478W        W18696  38.821  15.253  14.263
50479W        W18697   7.280   0.706   3.389
50480W        W18698  37.112  11.598   0.019
50481W        W18699  30.553  44.891   0.468
50482W        W18700  13.356  28.122   2.214
50483W        W18701   7.734  35.831  11.716
50484W        W18702  38.540  13.241  10.736
50485W        W18703  39.906  41.780  11.637
50486W        W18704  32.081  16.521   1.362
50487W        W18705   8.616  32.489   4.334
50488W        W18706   8.243  19.307   2.416
50489W        W18707   0.358  28.437   3.289
50490W        W18708  43.587   3.754  14.390
50491W        W18709   5.480  22.780   4.095
50492W        W18710  11.734  30.962  10.521
50493W        W18711  35.818   8.814   0.339
50494W        W18712  12.278   4.686   3.670
50495W        W18713  38.050  26.434  10.707
50496W        W18714  35.556   5.361  10.755
50497W        W18715  40.998  22.605  14.143
50498W        W18716  25.376  23.236  14.864
50499W        W18717  27.319  27.710  10.521
50500W        W18718  34.827   1.114  12.875
50501W        W18719  18.153   9.660   1.472
50502W        W18720  43.083  24.097   1.462
50503W        W18721  14.234  11.313  12.064
50504W        W18722  34.369  12.320  11.537
50505W        W18723  14.851   5.723   1.891
50506W        W18724  33.150  13.116  14.254
50507W        W18725  12.383  10.867  14.930
50508W        W18726   3.054  12.328   3.989
50509W        W18727   9.672   6.876   3.167
50510W        W18728  16.220   4.542  12.196
50511W        W18729  24.968  30.996   3.540
50512W        W18730  27.939  19.932  13.984
50513W        W18731  25.021   6.068   5.176
50514W        W18732  17.501  18.781  14.500
50515W        W18733  23.666  20.526   0.884
50516W        W18734  27.554  12.194  12.752
50517W        W18735   7.163  27.446  14.429
50518W        W18736  38.658  15.768  12.377
50519W        W18737  12.905  20.160   1.532
50520W        W18738  38.255   0.859  13.173
50521W        W18739  41.277   1.943  12.891
50522W        W18740  18.817  41.315   2.806
50523W        W18741   4.441  31.282   0.836
50524W        W18742  33.944   2.885  14.031
50525W        W18743  43.010  10.243  14.283
50526W        W18744  10.739  24.765  11.977
50527W        W18745   3.325  26.134   4.479
50528W        W18746  42.739   4.836  11.554
50529W        W18747   4.696  30.157  11.642
50530W        W18748  41.891  34.542  10.537
50531W        W18749  38.947  20.015  11.506
50532W        W18750  33.152  28.356  11.702
50533W        W18751  37.077   7.440   3.617
50534W        W18752   3.381  44.479   3.897
50535W        W18753  10.444  12.203   2.193
50536W        W18754  43.927   4.469   4.314
50537W        W18755  39.533   5.641  13.762
50538W        W18756  35.873  36.549  13.237
50539W        W18757  21.521  25.116   4.864
50540W        W18758  22.667   5.273   4.740
50541W        W18759   0.240   3.728   2.853
50542W        W18760  16.687  23.300   2.192
50543W        W18761   8.214  37.643   2.684
50544W        W18762   8.251  44.808  11.157
50545W        W18763  44.995  17.451   2.225
50546W        W18764   5.579   3.316  11.399
50547W        W18765  15.807  38.289   0.786
50548W        W18766  15.531  41.968   2.736
50549W        W18767  34.589  44.628  14.537
50550W        W18768   0.472  35.442   2.341
50551W        W18769  26.671  40.286   3.146
50552W        W18770   7.634  41.248  12.057
50553W        W18771   7.457  17.825   3.799
50554W        W18772  18.144  34.277  10.706
50555W        W18773  21.849  36.520   4.370
50556W        W18774  13.341   6.086  11.310
50557W        W18775  44.298  17.165   1.303
50558W        W18776  23.143  35.321  11.875
50559W        W18777   8.741  25.736  14.441
50560W        W18778  10.260  42.254   0.271
50561W        W18779   9.904  28.615  11.649
50562W        W18780  10.330   9.220  11.413
50563W        W18781  11.333  43.379  14.718
50564W        W18782  13.252  31.198  12.594
50565W        W18783  17.315   7.318  13.828
50566W        W18784   0.256   6.361  14.415
50567W        W18785  28.741   6.159  12.532
50568W        W18786   8.356  23.613  13.421
50569W        W18787  25.341   1.987  13.445
50570W        W18788  14.359  29.085   4.743
50571W        W18789   3.283  22.466   3.745
50572W        W18790  40.406  44.510  12.026
50573W        W18791  16.800   7.817  12.053
50574W        W18792  10.014  18.444   4.925
50575W        W18793  43.399  34.721  14.020
50576W        W18794   2.330  38.458   0.427
50577W        W18795  32.072  11.149  13.617
50578W        W18796  21.956  41.869  13.335
50579W        W18797  21.171  38.005   4.800
50580W        W18798  23.761  42.186   0.428
50581W        W18799  15.254  21.138   0.229
50582W        W18800  33.624  16.291   2.341
50583W        W18801  31.628  25.147  13.237
50584W        W18802  22.263   3.142   1.705
50585W        W18803  34.015   8.682  11.660
50586W        W18804   4.172  21.525   2.381
50587W        W18805  38.543  11.825   5.122
50588W        W18806  39.742  42.216   4.099
50589W        W18807   6.186   3.943  11.471
50590W        W18808  16.781  15.763   3.268
50591W        W18809   2.838  41.548  14.977
50592W        W18810  20.146  22.573  10.179
50593W        W18811  32.200   7.715   2.365
50594W        W18812  35.844  37.091   1.475
50595W        W18813  13.444  44.405  12.365
50596W        W18814  31.693   6.150   9.688
50597W        W18815  38.844  38.072  11.805
50598W        W18816  40.572  33.926   2.145
50599W        W18817  24.257   3.414  14.334
50600W        W18818  36.000   4.201   4.546
50601W        W18819  16.802  38.388   2.654
50602W        W18820  44.998  33.007  13.361
50603W        W18821   2.902  38.577   3.704
50604W        W18822   0.776  11.126  10.666
50605W        W18823  31.495  30.097  14.895
50606W        W18824  38.021  16.644   0.333
50607W        W18825  37.571  28.837  12.596
50608W        W18826  10.888   6.630   4.579
50609W        W18827   7.192  25.039  14.739
50610W        W18828   5.841  38.345   1.966
50611W        W18829  35.004   3.832   2.232
50612W        W18830  34.309  44.713   1.262
50613W        W18831  25.838  30.856  14.523
50614W        W18832  22.079  33.988   2.193
50615W        W18833  31.627  29.130   2.829
50616W        W18834  34.621  37.568  12.421
50617W        W18835  22.772  29.462   0.420
50618W        W18836  26.161   9.685  13.559
50619W        W18837  34.163  44.977   4.470
50620W        W18838  24.137  27.075  13.304
50621W        W18839  42.435  33.426   2.208
50622W        W18840   5.436  27.195  13.086
50623W        W18841  38.531   4.832  11.463
50624W        W18842  44.211  35.234  13.896
50625W        W18843  14.780  34.478  13.955
50626W        W18844   4.332  32.040  14.917
50627W        W18845  34.332  23.349  10.715
50628W        W18846   9.066  29.383   4.273
50629W        W18847  13.536  33.105   2.357
50630W        W18848   6.342  30.603   2.151
50631W        W18849  17.683  28.596  11.982
50632W        W18850  35.002  34.056   4.002
50633W        W18851   9.753  22.211  12.046
50634W        W18852  19.437  19.196   2.647
50635W        W18853  15.330   3.227   5.092
50636W        W18854  36.487  35.569  13.893
50637W        W18855  42.417  43.138   3.034
50638W        W18856  19.766  35.398   3.156
50639W        W18857  42.751  26.368   1.371
50640W        W18858  26.433  28.421  11.582
50641W        W18859  33.224  16.569  12.156
50642W        W18860  44.181   8.657  11.517
50643W        W18861  26.859   5.767  10.499
50644W        W18862   5.200  33.077  11.454
50645W        W18863  37.808   1.472  13.820
50646W        W18864   1.282   1.007  12.424
50647W        W18865  28.960  39.976  14.963
50648W        W18866  33.893  10.679   4.918
50649W        W18867  24.590   2.999   4.728
50650W        W18868  29.694  20.670  12.867
50651W        W18869  14.261  10.381  13.981
50652W        W18870  23.909  44.541  12.426
50653W        W18871  29.477  19.061   1.925
50654W        W18872  17.712  19.807  13.828
50655W        W18873  27.889  21.100   2.453
50656W        W18874  39.619   4.849   4.611
50657W        W18875   0.427  35.860   0.281
50658W        W18876  31.963  15.218   0.481
50659W        W18877  32.594  26.471  14.460
50660W        W18878  20.681  20.767  13.839
50661W        W18879   8.641  18.145  12.091
50662W        W18880  33.830  39.406  11.089
50663W        W18881  40.837   2.208  13.641
50664W        W18882  17.205  43.019   4.998
50665W        W18883  11.114  28.140   0.799
50666W        W18884  35.724   0.475  12.449
50667W        W18885  12.847  33.182  14.289
50668W        W18886  20.259  44.576  12.942
50669W        W18887   5.950   0.344  13.303
50670W        W18888  31.050  17.823   0.976
50671W        W18889  44.113  33.791  11.565
50672W        W18890  36.641  37.675  11.160
50673W        W18891  17.688  37.521  10.635
50674W        W18892  25.220  10.591  13.846
50675W        W18893  22.786  29.631  11.086
50676W        W18894  37.768  10.212   3.161
50677W        W18895  32.652  44.779   4.341
50678W        W18896   5.629  39.813  13.459
50679W        W18897  21.539  40.917  11.119
50680W        W18898   2.221  19.708  11.105
50681W        W18899  17.594  25.191  11.003
50682W        W18900  23.047  42.751  13.919
50683W        W18901   0.930  22.189  10.973
50684W        W18902  15.324  31.522   0.420
50685W        W18903  41.807  42.569   3.666
50686W        W18904  35.856  31.155   4.154
50687W        W18905   4.627  27.485  10.241
50688W        W18906  15.841  37.083   0.113
50689W        W18907  39.452  18.054  13.117
50690W        W18908  27.596  10.774  10.659
50691W        W18909  40.239  19.174  13.285
50692W        W18910  38.484  33.370  14.335
50693W        W18911  31.976  12.863   2.655
50694W        W18912  33.383  42.805   0.392
50695W        W18913   3.848  36.056   4.086
50696W        W18914  37.872   0.374   2.906
50697W        W18915   4.919   2.370   1.739
50698W        W18916  38.966  32.448  12.928
50699W        W18917   7.473  23.107  11.093
50700W        W18918  26.673  36.695   2.071
50701W        W18919   1.759   6.738  11.567
50702W        W18920   3.777  41.285   0.014
50703W        W18921  12.420  16.820  10.979
50704W        W18922  35.328  29.985   2.231
50705W        W18923  10.099  26.058  11.684
50706W        W18924  35.666  10.239  11.994
50707W        W18925   5.155   0.235   2.252
50708W        W18926  36.497  43.062  12.020
50709W        W18927  41.335  15.268  12.153
50710W        W18928  35.409  21.522  11.148
50711W        W18929  10.670  26.889  11.611
50712W        W18930  34.501  26.655   4.086
50713W        W18931   2.733   1.992   0.787
50714W        W18932  34.023  20.159   4.424
50715W        W18933  15.492  23.993  13.497
50716W        W18934  33.862  40.531  12.789
50717W        W18935  12.861  21.662  10.636
50718W        W18936   9.197  36.453   2.310
50719W        W18937  43.794  15.038   1.514
50720W        W18938  23.042   2.459  13.529
50721W        W18939  28.009  22.216  11.786
50722W        W18940  19.187  10.571   0.319
50723W        W18941  31.086  34.162   4.608
50724W        W18942  14.251  42.109  10.247
50725W        W18943  36.672  39.271   3.218
50726W        W18944  39.988  35.965  13.454
50727W        W18945  40.580  23.042   1.854
50728W        W18946  15.306   0.524  11.943
50729W        W18947  30.824   1.399   2.311
50730W        W18948  17.661  22.216   2.836
50731W        W18949  14.856  21.391  14.989
50732W        W18950  22.123  19.852  11.536
50733W        W18951  27.012  26.744   0.358
50734W        W18952  39.190  26.838   1.453
50735W        W18953  41.782  17.298   1.858
50736W        W18954  38.491  42.247  14.302
50737W        W18955  42.367  34.995  12.608
50738W        W18956  31.359   3.898  13.500
50739W        W18957  31.305  15.066  13.332
50740W        W18958  40.849  25.590  10.692
50741W        W18959  10.136  32.080   3.144
50742W        W18960  31.589  43.523  13.387
50743W        W18961  30.604  32.316  14.907
50744W        W18962   2.727  37.922   2.945
50745W        W18963  42.635  36.155  14.989
50746W        W18964  13.414  31.053  13.937
50747W        W18965  11.880  44.480  13.669
50748W        W18966  25.027  33.525   0.946
50749W        W18967  39.106  13.074   3.808
50750W        W18968  25.183   7.007  11.076
50751W        W18969  11.173  11.360   3.707
50752W        W18970  34.196  38.966  14.751
50753W        W18971  41.029   0.906  13.367
50754W        W18972  25.616   2.798  13.763
50755W        W18973  17.019  33.562   3.076
50756W        W18974   3.614  41.550  11.874
50757W        W18975  29.269  13.987   2.567
50758W        W18976   5.240  22.267   1.223
50759W        W18977  38.589  39.831  14.366
50760W        W18978   7.969  31.554  13.843
50761W        W18979  21.772  43.480   2.311
50762W        W18980  24.990  44.387  13.730
50763W        W18981  37.502  39.081   2.335
50764W        W18982  24.523  42.334  12.648
50765W        W18983  18.761  34.467  12.446
50766W        W18984  25.025  14.817   4.855
50767W        W18985  27.570  28.071  13.322
50768W        W18986   9.838   7.246  12.686
50769W        W18987  12.380   1.355   1.954
50770W        W18988  20.790  41.033   0.657
50771W        W18989  40.457  39.429   0.440
50772W        W18990   9.219  40.904  14.825
50773W        W18991  11.589  28.383   3.525
50774W        W18992  31.144  22.632  12.943
50775W        W18993   4.723   6.284  13.126
50776W        W18994   0.340  41.399  10.814
50777W        W18995  34.182  30.026  14.764
50778W        W18996   6.319  15.996  12.986
50779W        W18997   4.245   9.245  11.063
50780W        W18998   2.958  41.025  14.945
50781W        W18999  43.300  20.999  12.073
50782W        W19000  41.424   6.606   3.798
50783W        W19001  18.098   8.698   0.863
50784W        W19002   7.195   7.346   0.913
50785W        W19003  17.355  39.409  13.872
50786W        W19004  13.118   0.200  14.887
50787W        W19005   4.930   0.342  11.599
50788W        W19006  32.986  30.018   2.161
50789W        W19007  22.904  41.326  11.125
50790W        W19008   1.260  15.172   1.340
50791W        W19009   4.441  36.987   4.171
50792W        W19010  40.475  34.032  12.724
50793W        W19011  33.562   9.358  11.624
50794W        W19012  27.579  31.475   3.694
50795W        W19013  40.831  44.231  11.917
50796W        W19014  14.076  34.362  10.648
50797W        W19015  15.422  14.056   2.848
50798W        W19016   7.848  36.466   1.706
50799W        W19017  28.406  33.714  13.064
50800W        W19018  12.625  22.727   3.682
50801W        W19019  30.027  20.059   4.842
50802W        W19020  34.585  42.018  13.492
50803W        W19021  20.445  26.510  11.078
50804W        W19022  18.058  34.258  10.162
50805W        W19023  17.095  32.584  12.108
50806W        W19024  31.813   8.870  12.027
50807W        W19025   5.245  16.225  13.306
50808W        W19026  40.874  35.126  12.118
50809W        W19027  33.388  22.590  11.568
50810W        W19028  17.354  12.673  10.795
50811W        W19029  25.662  27.882   0.309
50812W        W19030  41.449   4.380   4.136
50813W        W19031   3.093  20.913  13.864
50814W        W19032   6.081  34.868  11.032
50815W        W19033   1.558  17.070  12.412
50816W        W19034   8.691  44.419   0.701
50817W        W19035  15.173  13.053  11.189
50818W        W19036  29.693  33.058  12.035
50819W        W19037  42.268  35.544  10.577
50820W        W19038  18.279  15.906   5.000
50821W        W19039  43.012  21.121  13.372
50822W        W19040   4.887   4.772  10.804
50823W        W19041  39.635   0.818  13.284
50824W        W19042  14.565  33.456   5.081
50825W        W19043  24.626  26.427   0.997
50826W        W19044  36.052   3.925  10.577
50827W        W19045  15.345  25.520  12.541
50828W        W19046  20.499  12.803   1.328
50829W        W19047  16.671  29.429   4.580
50830W        W19048  34.539  29.556   1.893
50831W        W19049  25.328   1.422  11.244
50832W        W19050  26.648   0.444  10.916
50833W        W19051  26.595  24.743  12.375
50834W        W19052   8.194  43.547  10.822
50835W        W19053  41.019  18.317   0.233
50836W        W19054   5.174   5.442  13.076
50837W        W19055   9.145   4.912  11.189
50838W        W19056  31.521  32.170   2.558
50839W        W19057  33.376   7.488  11.234
50840W        W19058  43.174  30.434   0.315
50841W        W19059  14.653   3.535  12.266
50842W        W19060   7.239  15.696   2.212
50843W        W19061  26.610  27.733  12.076
50844W        W19062  18.634   0.408  12.756
50845W        W19063   8.370  39.759   3.679
50846W        W19064  19.870  36.548   0.324
50847W        W19065  44.928  26.602  11.107
50848W        W19066  33.530  42.345   2.456
50849W        W19067  36.786  37.376  12.933
50850W        W19068   3.972  19.062  14.421
50851W        W19069   6.636  32.574   4.733
50852W        W19070  40.214  20.234   2.751
50853W        W19071  13.830   6.887  13.370
50854W        W19072  34.055  22.966   2.317
50855W        W19073  33.285   8.296  14.742
50856W        W19074  43.366  33.387  11.917
50857W        W19075  42.357  44.206   2.922
50858W        W19076   6.092  20.192   2.206
50859W        W19077  11.283  36.277   1.861
50860W        W19078   9.748  25.960  12.521
50861W        W19079  21.002  24.095  14.748
50862W        W19080  36.484  40.428   2.416
50863W        W19081  30.868  31.607   3.011
50864W        W19082  44.328   7.873   3.099
50865W        W19083  36.494  12.912   1.915
50866W        W19084  22.578  35.574   1.277
50867W        W19085  24.284  13.135  11.135
50868W        W19086  16.644   2.562   0.988
50869W        W19087  13.778  26.231   2.469
50870W        W19088  17.780  27.683  14.779
50871W        W19089   9.009  18.767   4.284
50872W        W19090  43.331  20.042  14.337
50873W        W19091  36.585  42.733  11.622
50874W        W19092  31.633  43.191  13.885
50875W        W19093  26.200  20.771   0.250
50876W        W19094  29.013  12.896  12.207
50877W        W19095  21.204  10.726  11.612
50878W        W19096  16.807  23.372  11.087
50879W        W19097  20.074  12.407   4.008
50880W        W19098   9.217  11.378  12.866
50881W        W19099  42.721  13.285   3.181
50882W        W19100  22.659   2.111  13.416
50883W        W19101   5.943   8.059  13.407
50884W        W19102  32.707  36.580   2.663
50885W        W19103  35.365  11.874   3.753
50886W        W19104  15.948  37.148   4.790
50887W        W19105  10.749   1.425   0.991
50888W        W19106   6.531  35.488   4.296
50889W        W19107  40.345  35.348   3.245
50890W        W19108  34.315  14.658   0.215
50891W        W19109   4.779  25.566  13.759
50892W        W19110   1.156   4.952   4.175
50893W        W19111  13.856  30.993   0.246
50894W        W19112   1.277  20.619  14.453
50895W        W19113  34.287  22.236  14.923
50896W        W19114  43.908  15.104  14.056
50897W        W19115   5.580  18.796  13.762
50898W        W19116  20.768  29.961   2.851
50899W        W19117  24.260   8.962   3.309
50900W        W19118  10.784  41.928  12.979
50901W        W19119  13.641  20.204   1.622
50902W        W19120   4.892  44.791  10.456
50903W        W19121  31.953   9.337   3.595
50904W        W19122  38.359  42.577  12.362
50905W        W19123  31.561  23.528   2.193
50906W        W19124  30.589  34.616   2.223
50907W        W19125   0.207  44.133  14.027
50908W        W19126  12.285   1.913   1.650
50909W        W19127  28.466  16.500  12.490
50910W        W19128  21.495  22.038   4.362
50911W        W19129  41.425  28.151  12.069
50912W        W19130  34.068  19.212  12.144
50913W        W19131   2.243  25.195  11.707
50914W        W19132  42.375   8.934  12.697
50915W        W19133  37.528  31.906   2.321
50916W        W19134  44.863  29.519  11.577
50917W        W19135   4.272  30.650   0.028
50918W        W19136  18.133  10.929  10.452
50919W        W19137  39.015  21.877  14.579
50920W        W19138  29.886  31.056   4.712
50921W        W19139  20.485  11.186  14.089
50922W        W19140  22.285  17.459  11.194
50923W        W19141  36.415   6.624  10.317
50924W        W19142  10.142   4.948   2.197
50925W        W19143  41.763   9.724  11.486
50926W        W19144  22.134  38.790   1.200
50927W        W19145  38.865  33.642  11.168
50928W        W19146   2.490  11.817   5.024
50929W        W19147  44.183   5.251   5.014
50930W        W19148   5.206  38.865  14.503
50931W        W19149  32.095   2.810  11.499
50932W        W19150  35.863  33.472  11.437
50933W        W19151  34.233  19.755   1.385
50934W        W19152  13.827   2.163   1.207
50935W        W19153  24.703   7.832   1.333
50936W        W19154  17.856  34.570  14.430
50937W        W19155  26.688  14.866  12.473
50938W        W19156  26.651   8.977  14.383
50939W        W19157   4.674  13.358   2.860
50940W        W19158   8.380   3.758  13.471
50941W        W19159  42.503  37.100  14.782
50942W        W19160  39.049  42.808   3.889
50943W        W19161  17.038   0.396   2.810
50944W        W19162  32.392  23.003  10.755
50945W        W19163  23.564  30.592  11.500
50946W        W19164   8.278  32.028   2.588
50947W        W19165  13.733  21.993   0.408
50948W        W19166  33.191  43.325   1.471
50949W        W19167  14.600  22.630   2.202
50950W        W19168  12.111   1.022   2.745
50951W        W19169   8.708  25.478  12.172
50952W        W19170  37.481  16.131   3.905
50953W        W19171  24.975  38.390  11.305
50954W        W19172   5.780  16.540   3.643
50955W        W19173  10.184   9.823   2.338
50956W        W19174  15.626   5.078   3.165
50957W        W19175  17.444  39.868   2.239
50958W        W19176  25.109  43.895   4.213
50959W        W19177  23.690  34.046   3.059
50960W        W19178  12.996  35.153   3.143
50961W        W19179  34.928  16.215  14.923
50962W        W19180  35.809  38.662   0.754
50963W        W19181  35.802  41.311  13.463
50964W        W19182  33.134  17.363  12.521
50965W        W19183   7.030  40.294  11.131
50966W        W19184   2.430   5.864   0.623
50967W        W19185  44.898  11.353   3.391
50968W        W19186   6.374  15.258   0.077
50969W        W19187  30.592  17.316   2.483
50970W        W19188  29.881  25.454   4.082
50971W        W19189   4.189   8.403   3.210
50972W        W19190  22.761  22.289  14.796
50973W        W19191  32.498   9.771   1.460
50974W        W19192  12.688  15.649  13.404
50975W        W19193   8.402  18.204   3.162
50976W        W19194  20.516  25.130   4.094
50977W        W19195  21.418  44.492   0.065
50978W        W19196   1.452  20.186   0.259
50979W        W19197   7.298  42.572  11.297
50980W        W19198  18.278  39.344  12.087
50981W        W19199   9.964  24.775  14.053
50982W        W19200   6.206  26.441  13.026
50983W        W19201  30.066  19.662  11.578
50984W        W19202  20.843   1.486  12.027
50985W        W19203  16.144  29.029   3.827
50986W        W19204   5.921   5.728  13.708
50987W        W19205  18.562  33.356  10.674
50988W        W19206  19.331  26.674  11.686
50989W        W19207  26.353  34.960   0.838
50990W        W19208  13.193  34.142   1.628
50991W        W19209  37.341   7.738   5.019
50992W        W19210  42.897  40.270   4.565
50993W        W19211   7.668  23.722   0.481
50994W        W19212  38.718  41.325   0.889
50995W        W19213   8.385  38.143   2.694
50996W        W19214  20.202  43.028  14.764
50997W        W19215  12.400  25.518   4.116
50998W        W19216   2.758  24.684   1.931
50999W        W19217  43.266   8.956  14.038
51000W        W19218  32.589  16.677   4.660
51001W        W19219  24.721  35.051   3.125
51002W        W19220  17.167  41.438   4.081
51003W        W19221  30.523  43.504   2.756
51004W        W19222  42.738  16.212   1.204
51005W        W19223  37.764  15.862  10.555
51006W        W19224  34.797   5.529   0.945
51007W        W19225   1.802   0.937   4.491
51008W        W19226   5.491  31.897   3.562
51009W        W19227  34.918   6.650  12.408
51010W        W19228   8.812  30.597   1.947
51011W        W19229  39.164  40.667  11.422
51012W        W19230  25.797  42.821   3.538
51013W        W19231   0.209  33.998   0.385
51014W        W19232  14.846  15.902  13.943
51015W        W19233  39.490  35.968  13.610
51016W        W19234  36.365  22.976  12.982
51017W        W19235  27.504  10.489  11.074
51018W        W19236  24.749   7.803  12.508
51019W        W19237  44.732  31.902  11.610
51020W        W19238   3.798  27.862   1.675
51021W        W19239   3.723   5.924  11.570
51022W        W19240   9.324  15.571  11.962
51023W        W19241   9.486  15.738  12.416
51024W        W19242  23.077  34.797   1.194
51025W        W19243  23.023  11.439  12.853
51026W        W19244   4.432  41.992  10.907
51027W        W19245  11.613  19.320   1.443
51028W        W19246  26.592  44.571   1.721
51029W        W19247  21.502  35.847  13.435
51030W        W19248   1.285  37.166   1.800
51031W        W19249  42.387  12.532   3.163
51032W        W19250  40.839   3.962   3.514
51033W        W19251  10.856  22.629  10.661
51034W        W19252  38.971  37.149   3.820
51035W        W19253  34.339   3.725  13.007
51036W        W19254  19.372  17.847  13.402
51037W        W19255  30.583  41.526  10.668
51038W        W19256  25.011  24.524   2.179
51039W        W19257  12.232  29.330  14.831
51040W        W19258  36.094  11.290   1.330
51041W        W19259  35.902  38.122   0.682
51042W        W19260  27.549   5.143  12.491
51043W        W19261  41.838  26.712  14.288
51044W        W19262  15.731  36.308  13.364
51045W        W19263  36.341   1.409   4.241
51046W        W19264  41.451  14.310  11.042
51047W        W19265  14.847  18.552  11.206
51048W        W19266  39.321  43.798  13.994
51049W        W19267  18.604  32.658   1.742
51050W        W19268  13.851  27.053   4.447
51051W        W19269   8.705  31.929  13.158
51052W        W19270  16.012  33.656   3.339
51053W        W19271  20.179  33.426   2.705
51054W        W19272   5.287  39.619  12.414
51055W        W19273  24.898  18.738  11.084
51056W        W19274  17.739  38.684  12.623
51057W        W19275  18.020   7.427   3.201
51058W        W19276   1.270   6.173   1.855
51059W        W19277  18.286  22.133  10.664
51060W        W19278  40.024  31.686   1.729
51061W        W19279  22.052  11.923  12.130
51062W        W19280  12.636  22.187   2.791
51063W        W19281   4.124  26.338  13.545
51064W        W19282   8.668  12.888  11.637
51065W        W19283  34.301   4.198   2.201
51066W        W19284  38.270   5.366   2.677
51067W        W19285   7.947  36.605  14.828
51068W        W19286   9.347  13.358  13.843
51069W        W19287  31.425   7.946   1.828
51070W        W19288  31.646   8.319  13.927
51071W        W19289  19.815  38.946   2.139
51072W        W19290  24.483  42.188   1.436
51073W        W19291   4.417  29.573   4.867
51074W        W19292  15.687  44.937  12.591
51075W        W19293  36.271  24.274   2.316
51076W        W19294   3.129  26.606   1.798
51077W        W19295  34.674  43.412  14.525
51078W        W19296  19.867  40.217   3.365
51079W        W19297  20.286  43.317  12.905
51080W        W19298   1.593   2.731   2.358
51081W        W19299   5.889  37.659  10.460
51082W        W19300  36.078  24.420   0.963
51083W        W19301  43.438   7.416   4.568
51084W        W19302   7.856  18.811   4.872
51085W        W19303  37.323  40.922  14.889
51086W        W19304  13.044  34.435  14.441
51087W        W19305  23.762   1.976   2.860
51088W        W19306   4.250   2.267   2.852
51089W        W19307  42.812  11.565   0.503
51090W        W19308   3.799  16.693  14.521
51091W        W19309  42.301  22.939   0.425
51092W        W19310  10.641  17.039  12.678
51093W        W19311  32.383  29.236   5.134
51094W        W19312  11.252  21.942   1.744
51095W        W19313  43.595  31.737  13.782
51096W        W19314  13.980  41.323  13.252
51097W        W19315  42.863   1.883  11.122
51098W        W19316  29.379   3.802  12.858
51099W        W19317  10.653  36.350   4.188
51100W        W19318  32.865  29.679   1.709
51101W        W19319   6.750   5.831   2.096
51102W        W19320  38.285  37.850   3.937
51103W        W19321  44.706  13.296  12.087
51104W        W19322  41.368  36.352  11.522
51105W        W19323  29.154  41.863   1.764
51106W        W19324   4.185   9.859   2.113
51107W        W19325  22.586  10.785  10.600
51108W        W19326  18.725   5.301   4.476
51109W        W19327  33.199  10.726  13.512
51110W        W19328  36.010   0.326  14.913
51111W        W19329  10.879  12.783  13.457
51112W        W19330  21.753  25.987  12.626
51113W        W19331  43.345  12.573  10.958
51114W        W19332  14.634  14.860  11.171
51115W        W19333  26.153   6.278  10.714
51116W        W19334   1.312  36.120  11.548
51117W        W19335  13.210  42.156   4.114
51118W        W19336  42.528  30.266   1.899
51119W        W19337  38.023  33.664  14.405
51120W        W19338  25.077  19.508   0.326
51121W        W19339  43.503  11.581  13.262
51122W        W19340  36.447  24.242   1.408
51123W        W19341  28.993   0.267  14.028
51124W        W19342  18.537   1.168   9.912
51125W        W19343   4.939  32.866   1.393
51126W        W19344   3.046  26.913  12.553
51127W        W19345   6.901   8.180   0.429
51128W        W19346   5.703  30.630  11.889
51129W        W19347   0.350  41.094  11.225
51130W        W19348  19.766  24.621   3.853
51131W        W19349  14.150   7.798   2.230
51132W        W19350   6.973  15.818  13.018
51133W        W19351  39.375  39.417  12.310
51134W        W19352   6.362   9.707  12.488
51135W        W19353  29.914  11.860   4.116
51136W        W19354  19.566  22.001  14.286
51137W        W19355   2.801  14.260  12.248
51138W        W19356   2.375  16.599  13.791
51139W        W19357   9.410  20.353  12.074
51140W        W19358  44.657  36.958  13.796
51141W        W19359   5.204  16.361  14.352
51142W        W19360   4.172  18.683   4.142
51143W        W19361  33.122  32.638   3.225
51144W        W19362  18.341  42.833  11.446
51145W        W19363  40.591  44.584   1.951
51146W        W19364  29.739  40.110   0.276
51147W        W19365  12.402   4.879   2.758
51148W        W19366  26.712  16.215   2.574
51149W        W19367  29.907  39.775   2.764
51150W        W19368  10.577  19.345  10.119
51151W        W19369  31.384  20.487  14.566
51152W        W19370  10.345  24.430   1.731
51153W        W19371  16.874  34.246  11.516
51154W        W19372   3.506  25.618  10.764
51155W        W19373  30.765  24.684   0.972
51156W        W19374  30.101   7.118  11.351
51157W        W19375  32.574  31.380   0.032
51158W        W19376  16.141  17.788  12.348
51159W        W19377  20.532  40.483  13.337
51160W        W19378  42.719  40.765  10.753
51161W        W19379  40.576  30.348  12.419
51162W        W19380  30.455  23.164   2.133
51163W        W19381  31.971  35.483   1.137
51164W        W19382  24.806  39.314  13.012
51165W        W19383  17.674   5.910  12.660
51166W        W19384  24.257  36.488   2.414
51167W        W19385  34.588  29.616   1.340
51168W        W19386   7.250   5.415  14.345
51169W        W19387  20.560  24.460   3.579
51170W        W19388  25.125   7.507   1.369
51171W        W19389  35.249  41.282  13.167
51172W        W19390   0.620  41.536  12.069
51173W        W19391   1.341   3.485  14.372
51174W        W19392  14.570  19.260  11.006
51175W        W19393  35.611  14.397   3.788
51176W        W19394  29.101  12.064  14.341
51177W        W19395  10.791  40.104   0.340
51178W        W19396  43.498  30.462  14.481
51179W        W19397  43.865  36.326  13.395
51180W        W19398  14.828  38.263   1.881
51181W        W19399   6.160  33.462   0.511
51182W        W19400  25.117  18.271   2.840
51183W        W19401  25.856  16.856   5.107
51184W        W19402  27.782  30.645   1.035
51185W        W19403   8.583   2.587   0.413
51186W        W19404  21.893  15.788   4.841
51187W        W19405  19.742  31.987  13.779
51188W        W19406   3.796  16.979   1.381
51189W        W19407  28.968  14.218   2.928
51190W        W19408  37.296  40.282   2.644
51191W        W19409   4.602  16.319   1.302
51192W        W19410  43.135  11.830   0.174
51193W        W19411  11.218  38.446   4.549
51194W        W19412  19.571  29.999  14.191
51195W        W19413   9.187  14.354  11.123
51196W        W19414  13.958  14.226  11.196
51197W        W19415   1.242  23.920   3.595
51198W        W19416  17.898  37.634  11.539
51199W        W19417  34.704  32.476  13.916
51200W        W19418  43.562   0.727   3.637
51201W        W19419  11.202  22.093  14.847
51202W        W19420  28.619  29.476   0.529
51203W        W19421  32.549  43.319   1.395
51204W        W19422  26.151   9.135   3.335
51205W        W19423  12.780  10.622   2.287
51206W        W19424  30.070   1.845   0.559
51207W        W19425  15.677  21.153  12.917
51208W        W19426   4.847  40.808   4.461
51209W        W19427  29.006  24.412   2.946
51210W        W19428  10.352  28.375  14.737
51211W        W19429  18.637  29.864  14.401
51212W        W19430   1.493  24.210  12.434
51213W        W19431  30.122   8.073  14.014
51214W        W19432  32.015  25.391  13.481
51215W        W19433  39.907  33.349  12.762
51216W        W19434   9.976  32.080  14.152
51217W        W19435  42.169  12.787   0.988
51218W        W19436   7.136  35.857  12.536
51219W        W19437  29.490  37.496   1.650
51220W        W19438  35.520  33.197   3.194
51221W        W19439  22.610  26.403  11.524
51222W        W19440  14.262   7.381   2.515
51223W        W19441  40.985  26.111  11.473
51224W        W19442  35.950  14.312   0.688
51225W        W19443  14.805  19.615  10.726
51226W        W19444  40.858  37.933  10.532
51227W        W19445  38.445  28.406  11.991
51228W        W19446   8.238  39.048  13.837
51229W        W19447  31.859  26.338   4.010
51230W        W19448   9.298  14.349   1.943
51231W        W19449  44.845   2.345   1.065
51232W        W19450  32.273  10.220   4.046
51233W        W19451   4.711  10.167   3.692
51234W        W19452  17.603  30.210   3.652
51235W        W19453  35.300  13.231   1.755
51236W        W19454  43.813  41.315  12.706
51237W        W19455  12.835  33.315   3.269
51238W        W19456  20.062  24.541   2.137
51239W        W19457  44.836  21.671   4.378
51240W        W19458   7.298   5.109  10.600
51241W        W19459   7.984  14.818   0.759
51242W        W19460   6.268   9.527  11.185
51243W        W19461  37.880  14.874  14.528
51244W        W19462  43.937  12.583  11.143
51245W        W19463  13.786  28.679   0.770
51246W        W19464  14.366  13.347  14.786
51247W        W19465  24.050  12.799   0.864
51248W        W19466  37.097   4.629  12.624
51249W        W19467  42.819  14.171   2.158
51250W        W19468   3.237   3.840   1.313
51251W        W19469   1.377   0.509  14.966
51252W        W19470  10.667  14.830  10.380
51253W        W19471  23.036  15.661  13.824
51254W        W19472   8.407  42.707  12.389
51255W        W19473   0.208  13.912  14.750
51256W        W19474   1.949  28.488   4.237
51257W        W19475  30.955  41.816   2.188
51258W        W19476  32.666  40.336   2.732
51259W        W19477  15.751  25.651   1.624
51260W        W19478  16.206  36.364  12.496
51261W        W19479  37.417   1.248  10.010
51262W        W19480  25.287   4.686   1.743
51263W        W19481  16.784  19.560  13.430
51264W        W19482  29.776   2.085   9.919
51265W        W19483  35.591   2.467  13.510
51266W        W19484  27.912  44.952   4.695
51267W        W19485  33.896  42.139   1.078
51268W        W19486  17.629  35.068  12.467
51269W        W19487  41.748  22.191  12.707
51270W        W19488  31.648  30.568   1.140
51271W        W19489  16.645  43.440  10.897
51272W        W19490  29.750  41.519   4.514
51273W        W19491  30.399  39.999   1.846
51274W        W19492  12.855  18.304   2.764
51275W        W19493   4.869  31.532  11.924
51276W        W19494  12.721  22.996  11.429
51277W        W19495  31.673  36.452   2.856
51278W        W19496  12.884  30.898   4.727
51279W        W19497   2.106  10.347  11.027
51280W        W19498  40.855   5.196  11.028
51281W        W19499  19.168  42.748  14.858
51282W        W19500  22.202  31.730  12.042
51283W        W19501  42.307  18.990  12.038
51284W        W19502  22.655  24.196  12.838
51285W        W19503  42.982  12.091   2.163
51286W        W19504  10.775   4.385   2.936
51287W        W19505  20.714   4.926   2.448
51288W        W19506  11.243   9.257  12.894
51289W        W19507  36.516  40.209   0.957
51290W        W19508  25.491  20.984   2.250
51291W        W19509  31.034  18.693   4.496
51292W        W19510  15.000  44.490   3.186
51293W        W19511   2.976  28.078   3.824
51294W        W19512   5.614  33.985  12.374
51295W        W19513   8.658  37.000   0.476
51296W        W19514  15.859  40.522   0.927
51297W        W19515  41.595  25.765  11.888
51298W        W19516  30.215  20.251  10.661
51299W        W19517   6.673   2.474   4.562
51300W        W19518  42.842  25.864  13.370
51301W        W19519   5.982  30.701  11.469
51302W        W19520  39.989  41.240  11.219
51303W        W19521   2.396   3.290   4.523
51304W        W19522   4.838  33.848   3.863
51305W        W19523  32.428  14.198  14.754
51306W        W19524  42.030  26.933  13.831
51307W        W19525  31.513  34.475   4.831
51308W        W19526  20.094   8.892   3.291
51309W        W19527  42.804   8.901   0.261
51310W        W19528  42.473  17.807  14.076
51311W        W19529   1.820  37.375   0.376
51312W        W19530  15.669   7.946  14.859
51313W        W19531  30.953  39.470  14.827
51314W        W19532  42.936  22.700  14.592
51315W        W19533  12.661  35.899  12.959
51316W        W19534  14.747  11.869  12.295
51317W        W19535  14.162  32.703  12.868
51318W        W19536   6.855  39.540   4.745
51319W        W19537  18.073  16.155  14.310
51320W        W19538  12.316  10.070  10.542
51321W        W19539   4.656  23.509   2.294
51322W        W19540  25.422   6.773  13.457
51323W        W19541  26.922  14.054   2.895
51324W        W19542   7.319   6.811   0.944
51325W        W19543  21.185  43.307  10.546
51326W        W19544  44.841  19.818   1.583
51327W        W19545   1.584   7.942   0.270
51328W        W19546  16.172  30.691   3.626
51329W        W19547  34.843   2.882  13.974
51330W        W19548  18.526  20.281   3.796
51331W        W19549  27.396   5.643   4.605
51332W        W19550  22.617  37.383   2.869
51333W        W19551  39.910  23.575  12.239
51334W        W19552   8.918   4.876   1.477
51335W        W19553  41.024  33.928  11.511
51336W        W19554  41.644  29.073  10.323
51337W        W19555  20.703   4.272   0.967
51338W        W19556   4.177  31.532   3.763
51339W        W19557  10.120  18.751  14.872
51340W        W19558  11.843  34.336  13.173
51341W        W19559  11.340  28.099  12.049
51342W        W19560  25.109   2.854  13.965
51343W        W19561  25.659  15.078  12.620
51344W        W19562  17.487  17.852  13.155
51345W        W19563   0.239   9.928   2.718
51346W        W19564  38.966  35.036   2.439
51347W        W19565  11.915  38.985  14.751
51348W        W19566  15.228   1.675  10.140
51349W        W19567  33.801   0.879   3.553
51350W        W19568  20.274   0.365   0.447
51351W        W19569  28.030  44.812   0.939
51352W        W19570  39.065  30.707   9.781
51353W        W19571  40.010  25.933   1.384
51354W        W19572  22.768  10.666  11.478
51355W        W19573  32.634  41.515   4.675
51356W        W19574  12.505  36.021   0.897
51357W        W19575   7.460   1.545   4.095
51358W        W19576  17.366   3.888  12.978
51359W        W19577  35.136   8.387  11.992
51360W        W19578  38.379  38.992   2.416
51361W        W19579  39.419  35.156   3.211
51362W        W19580  23.022  23.043  12.607
51363W        W19581  42.480  34.150  14.421
51364W        W19582  35.295  35.541  13.625
51365W        W19583  38.132  25.407  12.232
51366W        W19584  29.924  19.170  11.650
51367W        W19585   4.951  10.096   4.149
51368W        W19586  44.568   9.897  11.097
51369W        W19587  13.691  38.092  13.508
51370W        W19588   7.440  24.680  10.377
51371W        W19589  20.695   9.418  13.455
51372W        W19590   4.709   7.945   0.012
51373W        W19591  33.492  10.944   4.666
51374W        W19592  18.872   6.381   0.774
51375W        W19593  39.429   3.732   3.573
51376W        W19594  30.632  18.342   3.629
51377W        W19595  31.904  39.521   4.911
51378W        W19596  10.560  31.485   1.298
51379W        W19597  13.427  34.695   4.367
51380W        W19598   8.816   2.267   3.008
51381W        W19599  16.406  31.078   2.852
51382W        W19600  37.096  38.795   1.802
51383W        W19601   5.141  23.915   4.897
51384W        W19602  33.474  17.699   3.282
51385W        W19603  17.390  10.291   2.718
51386W        W19604  22.271  43.508   2.172
51387W        W19605   9.613  42.458  13.854
51388W        W19606  19.287   4.273  14.759
51389W        W19607  14.711   6.206   3.652
51390W        W19608  44.364  25.106  12.553
51391W        W19609   9.267  42.699  11.474
51392W        W19610  28.034  30.033  11.987
51393W        W19611   7.114  41.114   1.232
51394W        W19612   2.733   7.995   4.731
51395W        W19613  35.559  20.846   1.305
51396W        W19614  38.246   1.327   1.993
51397W        W19615  17.330  27.005  14.341
51398W        W19616   6.723   6.760   1.688
51399W        W19617  27.064  24.957   2.332
51400W        W19618  10.589  31.994  13.364
51401W        W19619  13.214   6.061   1.443
51402W        W19620   6.867  12.764   3.818
51403W        W19621   3.794   6.240   4.368
51404W        W19622  19.306   2.393   2.735
51405W        W19623   5.381  43.312  14.345
51406W        W19624  18.713  39.020  14.066
51407W        W19625  18.087  42.883  14.790
51408W        W19626   4.649  36.469  10.574
51409W        W19627  25.555  44.201  13.034
51410W        W19628   4.987   1.732   4.127
51411W        W19629  44.540  33.146  10.541
51412W        W19630  43.308  24.632   3.358
51413W        W19631   1.334  13.636   2.242
51414W        W19632  42.509   6.138   1.449
51415W        W19633   5.235  30.007  10.738
51416W        W19634  13.159  44.898   0.936
51417W        W19635   7.642  13.141  13.522
51418W        W19636  42.890  13.157   2.200
51419W        W19637  22.226   2.874  11.946
51420W        W19638  17.993  24.177  14.711
51421W        W19639  38.610  25.099   2.941
51422W        W19640  27.840  28.630   2.448
51423W        W19641  40.494   4.039   1.221
51424W        W19642  20.067  19.932   5.162
51425W        W19643  38.140  29.796   1.949
51426W        W19644  12.789   3.914   4.745
51427W        W19645  15.165  16.608  11.241
51428W        W19646  37.260   8.109  12.483
51429W        W19647  15.318  14.099  11.121
51430W        W19648  11.037  40.260  11.649
51431W        W19649  40.602  35.416  12.432
51432W        W19650   2.278  36.091   1.891
51433W        W19651  30.329  12.110  13.017
51434W        W19652   6.369  42.765   4.115
51435W        W19653  24.762  36.056  13.913
51436W        W19654   2.463  14.738   0.964
51437W        W19655   4.892  40.347  12.192
51438W        W19656  32.106  42.848   3.154
51439W        W19657   9.327  16.739  12.841
51440W        W19658  11.542  31.604   0.961
51441W        W19659  21.274  10.913  13.974
51442W        W19660  10.623  26.537   3.627
51443W        W19661  31.412  31.572  11.471
51444W        W19662  39.476   0.702  10.300
51445W        W19663  39.419  28.242   3.157
51446W        W19664  19.733  39.988   0.956
51447W        W19665  10.556  34.585  14.350
51448W        W19666   6.934  31.849   3.764
51449W        W19667   4.285  18.178  14.595
51450W        W19668  11.135   5.905  14.828
51451W        W19669  19.792   9.680   0.321
51452W        W19670  26.268   4.243  12.972
51453W        W19671  29.071  23.917   2.807
51454W        W19672   5.028   4.421   3.351
51455W        W19673  44.080  14.077   2.614
51456W        W19674  13.322   9.115  13.121
51457W        W19675  25.008  40.051  14.485
51458W        W19676  32.069  38.906  13.896
51459W        W19677   8.983  15.727   1.950
51460W        W19678  20.526  35.994  13.375
51461W        W19679  23.686   0.885  14.568
51462W        W19680  19.458  20.777  12.600
51463W        W19681  26.203  25.484  11.090
51464W        W19682  11.929  31.635  12.244
51465W        W19683  42.567  35.338  13.964
51466W        W19684  12.220  36.886  12.412
51467W        W19685  28.492  43.081   4.083
51468W        W19686  34.397  26.072  14.387
51469W        W19687   8.361  28.819   0.276
51470W        W19688  27.187  30.119   2.370
51471W        W19689  10.291  36.576   2.670
51472W        W19690  29.194  39.923  10.748
51473W        W19691   6.895  25.962   4.562
51474W        W19692   8.173   9.978  12.432
51475W        W19693  23.617  13.091  12.389
51476W        W19694  28.903  37.012  10.596
51477W        W19695  34.459  24.574  12.053
51478W        W19696  12.957  31.570   2.359
51479W        W19697   8.150   0.793  12.555
51480W        W19698  31.487   2.833   5.003
51481W        W19699  22.315   0.278  14.507
51482W        W19700  34.761  17.429   1.876
51483W        W19701  26.018   0.324  13.871
51484W        W19702  36.967  28.011  11.151
51485W        W19703   9.285  22.544   2.393
51486W        W19704  14.585  43.794  13.302
51487W        W19705   2.228  10.940   2.931
51488W        W19706   1.177   4.981  13.535
51489W        W19707  34.464   2.112  12.585
51490W        W19708  32.535  40.808   2.179
51491W        W19709   3.813  21.635  14.282
51492W        W19710  36.633  35.458   4.206
51493W        W19711  16.122  41.730   2.335
51494W        W19712  33.201   2.339  12.057
51495W        W19713  28.113   0.684   0.357
51496W        W19714  38.066  32.922   0.844
51497W        W19715  22.098  15.267   2.332
51498W        W19716  15.826  23.085   4.496
51499W        W19717  24.072  22.561   0.286
51500W        W19718   8.902  41.959   2.356
51501W        W19719  39.986   4.445  12.366
51502W        W19720   4.513  18.856   0.187
51503W        W19721   0.167  20.554  11.826
51504W        W19722  10.733  43.110   4.834
51505W        W19723  16.569   4.489  12.597
51506W        W19724   3.784  36.286   2.714
51507W        W19725   3.107  21.955   3.858
51508W        W19726  35.412  23.596   0.886
51509W        W19727   8.526  34.476   2.727
51510W        W19728  36.079  44.275   0.466
51511W        W19729  39.567  33.128  11.529
51512W        W19730  29.908  16.667  11.598
51513W        W19731   7.694  21.799  12.631
51514W        W19732  28.806  32.023  12.615
51515W        W19733  11.162  13.822  12.873
51516W        W19734  18.008  17.025  12.444
51517W        W19735   5.067  40.695   4.946
51518W        W19736  44.454  23.057   0.693
51519W        W19737  40.768  12.331  11.594
51520W        W19738   4.342   8.391  10.791
51521W        W19739  19.124   3.724  14.887
51522W        W19740  35.637  10.813  11.154
51523W        W19741   3.399  21.726  11.650
51524W        W19742  24.682   9.286   4.249
51525W        W19743   0.026  16.713   0.342
51526W        W19744  14.599   5.795  12.025
51527W        W19745  43.407   0.946  13.818
51528W        W19746  34.879  17.133   2.729
51529W        W19747  28.381   6.812  14.309
51530W        W19748   7.423   1.741  14.932
51531W        W19749  44.857  40.294  11.507
51532W        W19750   6.300  44.040  10.682
51533W        W19751  14.287  44.082   0.705
51534W        W19752  37.469   5.743   1.672
51535W        W19753  22.066  42.240   0.010
51536W        W19754  24.487   1.980   0.215
51537W        W19755  24.018  23.921   4.524
51538W        W19756  13.357  43.045  11.885
51539W        W19757  33.513  13.654  13.466
51540W        W19758  23.645  37.415   0.935
51541W        W19759  30.730  34.844  13.437
51542W        W19760  10.848  35.586   0.827
51543W        W19761   7.283  39.508   4.460
51544W        W19762  39.396  19.575   1.992
51545W        W19763  35.181   3.551  12.044
51546W        W19764  23.750  24.082   2.340
51547W        W19765  10.946  25.309   0.381
51548W        W19766  42.098  31.624   0.282
51549W        W19767  41.763  24.491   1.414
51550W        W19768   7.525  43.933   1.258
51551W        W19769  28.887  28.558   3.667
51552W        W19770  11.889   7.906   2.470
51553W        W19771  11.292  23.962   1.891
51554W        W19772  25.041  29.498   2.714
51555W        W19773   2.370  20.581  13.515
51556W        W19774  39.126  16.762   1.120
51557W        W19775  24.786  37.031   2.881
51558W        W19776  43.408  34.046  12.480
51559W        W19777   7.740  32.457   0.949
51560W        W19778  26.705  36.064   4.202
51561W        W19779  10.001  33.954  11.028
51562W        W19780  43.061  29.398  12.573
51563W        W19781   8.786  41.752  13.833
51564W        W19782  40.275  27.981   1.626
51565W        W19783   6.790  10.152   0.443
51566W        W19784  40.485  22.182   2.912
51567W        W19785   8.415  15.727  10.624
51568W        W19786  16.756  23.274  14.215
51569W        W19787  24.401  23.435   0.833
51570W        W19788   0.466  10.952   3.660
51571W        W19789  39.793  18.271  14.805
51572W        W19790   0.758  20.074   1.345
51573W        W19791  39.413  40.617   2.358
51574W        W19792  27.073  10.826  10.801
51575W        W19793  10.142  10.743   3.395
51576W        W19794  42.847  44.865  12.159
51577W        W19795  22.619  26.901  12.625
51578W        W19796  33.979   0.870  10.920
51579W        W19797   3.741   0.044  12.844
51580W        W19798  35.360  24.591   3.806
51581W        W19799  22.612  29.976  14.898
51582W        W19800  16.558  34.946   4.536
51583W        W19801   5.461  23.140  12.227
51584W        W19802   2.132  44.977   4.761
51585W        W19803  29.181  11.646   0.151
51586W        W19804  40.851  17.936   0.905
51587W        W19805  37.332  33.100   1.218
51588W        W19806  23.625  28.024  13.341
51589W        W19807  28.871   1.308   4.139
51590W        W19808  19.129   0.429  11.176
51591W        W19809   5.458  34.169  14.072
51592W        W19810  23.573  42.734  13.459
51593W        W19811  33.684  31.324  12.300
51594W        W19812  33.498  27.647   3.186
51595W        W19813  34.144  12.812  11.534
51596W        W19814  44.785  14.506  11.146
51597W        W19815  28.827  21.008  10.731
51598W        W19816  41.882  34.024   3.273
51599W        W19817  37.075  23.006   4.241
51600W        W19818   1.773   6.308   0.044
51601W        W19819  12.126   8.344   2.299
51602W        W19820   4.703  16.752   2.879
51603W        W19821   6.750   3.431   0.828
51604W        W19822   5.872  32.004  12.942
51605W        W19823  30.722  10.880  14.724
51606W        W19824  38.851  32.137  11.065
51607W        W19825  28.548   5.808   3.407
51608W        W19826   2.899  19.214   4.075
51609W        W19827  43.425  38.697  12.693
51610W        W19828  22.378  11.302   4.648
51611W        W19829  14.874  11.054  14.833
51612W        W19830   4.718  37.781   1.169
51613W        W19831  44.413  15.572  11.583
51614W        W19832  42.107   3.436   5.054
51615W        W19833  13.011  16.255  12.814
51616W        W19834  29.357   1.227   4.261
51617W        W19835  44.998   6.879  12.179
51618W        W19836   4.028   9.514   4.935
51619W        W19837  19.573  42.372  13.980
51620W        W19838  11.092  36.862  14.517
51621W        W19839   5.196  15.469   1.860
51622W        W19840   0.967   7.413   2.881
51623W        W19841   5.025  25.167  11.645
51624W        W19842  37.097  39.604   2.160
51625W        W19843  10.664  33.985  11.698
51626W        W19844  26.708  13.092  14.389
51627W        W19845  23.994  30.548   9.981
51628W        W19846  15.311  42.959  11.573
51629W        W19847  21.445  31.307   1.149
51630W        W19848  18.310  37.450   1.521
51631W        W19849  24.731  19.910  11.925
51632W        W19850  23.555  42.770   3.640
51633W        W19851  30.395  22.134  10.544
51634W        W19852  34.591  18.507  13.956
51635W        W19853  31.536  29.577  13.981
51636W        W19854  44.080  38.038  11.477
51637W        W19855  27.196  33.428   4.019
51638W        W19856  10.330  35.579   0.810
51639W        W19857  35.872   3.881   5.296
51640W        W19858   1.001  40.321   0.402
51641W        W19859  30.123   6.914  11.855
51642W        W19860   3.684  15.725   3.491
51643W        W19861   6.698  12.392   1.872
51644W        W19862   5.701  43.335  12.420
51645W        W19863   2.752  43.735   2.317
51646W        W19864  15.301  36.032   4.184
51647W        W19865  15.050  14.484   4.202
51648W        W19866  33.021  17.591  13.208
51649W        W19867  26.487  41.431  10.402
51650W        W19868  35.862  20.273  11.564
51651W        W19869  30.964  28.062  11.119
51652W        W19870   6.752  15.234  10.870
51653W        W19871   4.869   1.742  12.412
51654W        W19872  31.170  21.710  12.967
51655W        W19873  31.865  32.089  13.106
51656W        W19874  25.443  13.330  14.110
51657W        W19875  26.654  35.130   0.442
51658W        W19876   0.855   6.672  12.497
51659W        W19877  39.290  44.868  14.859
51660W        W19878   2.885  12.388   1.668
51661W        W19879   2.963  19.579   3.672
51662W        W19880  21.620  31.959   1.366
51663W        W19881  31.533   5.898   4.102
51664W        W19882   3.283  30.492   3.865
51665W        W19883  26.421   9.083   0.379
51666W        W19884  17.291  13.129   3.141
51667W        W19885  18.598  13.049   0.408
51668W        W19886  39.176   4.584  11.524
51669W        W19887   6.398  42.844   1.763
51670W        W19888   1.464  23.788   2.334
51671W        W19889  26.825   1.083   3.308
51672W        W19890  34.347  10.456  12.642
51673W        W19891   2.847  35.186   1.202
51674W        W19892  15.707   8.670   1.306
51675W        W19893  22.681  27.815   4.571
51676W        W19894  14.843   7.685  11.085
51677W        W19895   9.246  12.382  11.174
51678W        W19896  14.729  23.532   2.286
51679W        W19897   5.259  27.062   2.198
51680W        W19898  25.032  11.796   0.965
51681W        W19899  12.413  35.490  11.366
51682W        W19900  21.432   7.033   3.587
51683W        W19901  11.265  18.613  14.824
51684W        W19902  21.503  25.644  12.342
51685W        W19903  44.924   4.961  11.146
51686W        W19904  15.484  43.977   1.420
51687W        W19905  28.971   5.498   2.097
51688W        W19906   8.084   6.677   1.420
51689W        W19907  44.461  38.427   1.914
51690W        W19908  40.022  32.501  12.534
51691W        W19909  39.061  16.052   2.273
51692W        W19910   1.013  12.840   3.579
51693W        W19911   4.381  10.888   0.617
51694W        W19912  16.698   8.567  10.723
51695W        W19913  36.956  30.421  12.924
51696W        W19914  10.232  28.556  10.736
51697W        W19915  43.813  20.054  14.771
51698W        W19916  20.616  10.720   1.862
51699W        W19917  12.865  41.778   4.236
51700W        W19918  32.686  29.338  10.728
51701W        W19919  35.768  31.556   3.734
51702W        W19920  31.561  37.984  10.732
51703W        W19921  22.470  21.686   2.862
51704W        W19922  37.844  19.164  12.761
51705W        W19923  19.470  35.383   2.710
51706W        W19924  12.683   1.303   3.339
51707W        W19925   5.584  37.789   1.471
51708W        W19926  25.587  16.790   2.936
51709W        W19927  12.106   2.726   9.959
51710W        W19928  14.783  27.001  12.808
51711W        W19929  23.968  40.468   4.615
51712W        W19930  40.404  24.082  13.429
51713W        W19931  37.779  10.255  11.068
51714W        W19932   2.461  42.356  11.658
51715W        W19933   3.764  23.158   0.240
51716W        W19934  41.742  13.290  10.709
51717W        W19935  13.098  11.404   3.798
51718W        W19936  18.981  29.764  12.090
51719W        W19937   0.814   5.043   9.909
51720W        W19938  30.002  33.026   1.786
51721W        W19939  44.531  18.733  12.530
51722W        W19940   3.594  40.392  10.901
51723W        W19941  20.966  36.404  13.947
51724W        W19942   7.879  36.085  14.785
51725W        W19943  21.729  24.412  11.538
51726W        W19944   6.907  27.761   1.667
51727W        W19945  10.831  16.560   4.833
51728W        W19946  25.206  34.815   2.366
51729W        W19947   2.649  30.394   2.650
51730W        W19948  27.066  20.291   2.770
51731W        W19949  15.354  32.169  14.735
51732W        W19950  11.903  42.843  11.059
51733W        W19951   3.554  17.484  11.632
51734W        W19952  13.652  26.391  12.552
51735W        W19953  13.864  10.666   1.367
51736W        W19954  33.655  35.416  14.358
51737W        W19955  32.210  12.136   4.026
51738W        W19956  14.885   4.225   4.065
51739W        W19957  42.776   6.228  14.566
51740W        W19958  43.652  16.546   3.836
51741W        W19959  40.674   5.968  11.508
51742W        W19960  34.166  26.649  13.486
51743W        W19961  24.404   8.710   1.291
51744W        W19962  32.527  10.640   2.902
51745W        W19963  28.950  27.059   4.184
51746W        W19964  22.958   9.754   1.296
51747W        W19965   4.464  11.820   0.395
51748W        W19966  16.655  42.486  12.480
51749W        W19967  34.376  11.369  11.607
51750W        W19968  42.406  35.047   4.175
51751W        W19969  40.043   2.021  11.174
51752W        W19970  28.748  25.838   2.765
51753W        W19971  20.897  20.793   0.497
51754W        W19972   5.310  42.648   5.447
51755W        W19973  19.833  33.619   4.603
51756W        W19974  37.577  33.181  13.158
51757W        W19975  20.696  21.195   3.249
51758W        W19976  23.906  36.112   2.310
51759W        W19977   2.908   7.184  12.001
51760W        W19978   7.266   5.939  14.320
51761W        W19979  16.214   6.905   4.635
51762W        W19980  15.677  19.481  11.602
51763W        W19981  42.383  14.103  13.041
51764W        W19982  16.734  14.750  13.004
51765W        W19983  44.019  39.480  14.762
51766W        W19984  28.129   4.928   3.534
51767W        W19985  16.624  44.348   4.126
51768W        W19986  41.582  23.992   3.699
51769W        W19987  35.857  42.557  14.993
51770W        W19988  26.915  16.451  12.906
51771W        W19989  42.307  16.601  11.205
51772W        W19990  22.277  12.284   3.253
51773W        W19991   0.870  10.757   3.912
51774W        W19992  40.524  34.946  12.637
51775W        W19993  32.072   1.239   0.710
51776W        W19994  21.056  16.676   3.867
51777W        W19995  12.825  28.679  11.913
51778W        W19996  35.083  41.576   4.208
51779W        W19997  32.095  18.283   1.119
51780W        W19998  22.106  40.386  12.515
51781W        W19999  13.144  40.946   1.604
51782W        W20000   2.470  39.335  13.490
51783W        W20001   5.233  19.224   3.434
51784W        W20002  33.557  19.257  11.090
51785W        W20003  38.302   8.826  13.804
51786W        W20004  13.389   3.467   2.743
51787W        W20005  12.025  36.089  10.799
51788W        W20006  38.601  12.136   3.188
51789W        W20007  36.386  20.166  12.032
51790W        W20008  10.799  34.424  11.439
51791W        W20009   1.684  44.557   2.808
51792W        W20010  42.827  20.462   1.850
51793W        W20011  10.992  13.264   4.562
51794W        W20012  38.518  30.989   0.949
51795W        W20013  34.941  12.111   4.593
51796W        W20014  35.328   5.122  13.778
51797W        W20015  32.418  22.933   2.919
51798W        W20016  28.076   5.291  13.249
51799W        W20017  35.350  13.864  13.560
51800W        W20018  12.369  34.730  14.052
51801W        W20019  33.661  18.103  14.935
51802W        W20020  12.626  38.055  10.727
51803W        W20021  31.541   0.748   0.936
51804W        W20022  42.460  44.412   3.853
51805W        W20023   3.415  19.689   1.482
51806W        W20024   3.563  31.068   2.699
51807W        W20025  35.978  18.979   3.604
51808W        W20026  23.627   0.577  14.108
51809W        W20027  21.155  25.813   1.911
51810W        W20028  15.292   2.850   4.753
51811W        W20029  26.441  29.082   1.015
51812W        W20030   9.388   4.463   3.544
51813W        W20031  20.738  25.092  10.753
51814W        W20032   3.804   6.138   1.897
51815W        W20033  35.163   0.333  10.685
51816W        W20034  32.855  12.028   3.228
51817W        W20035  26.121  35.029  11.657
51818W        W20036  32.693  17.794  14.436
51819W        W20037   3.155  33.398   2.635
51820W        W20038  19.131  17.135  14.714
51821W        W20039  29.454  10.220   1.829
51822W        W20040  21.302  17.172   2.168
51823W        W20041  40.072  29.712   3.488
51824W        W20042  18.592   7.419  14.971
51825W        W20043  10.682  14.815   4.091
51826W        W20044  34.561  10.171  13.005
51827W        W20045   7.935  38.883  11.198
51828W        W20046  38.553   2.667   4.269
51829W        W20047  26.995  31.805  11.354
51830W        W20048  13.576  34.228   1.308
51831W        W20049  11.661  40.051  11.981
51832W        W20050  33.521  43.227  10.408
51833W        W20051   8.016  43.917   1.135
51834W        W20052  26.017  27.784  12.700
51835W        W20053  20.461  23.028   3.595
51836W        W20054  37.275  31.425  14.035
51837W        W20055  27.572  21.965  12.529
51838W        W20056  42.228   6.325   2.351
51839W        W20057   5.622   9.119  10.946
51840W        W20058  44.264  30.767  11.677
51841W        W20059  39.055  43.333  13.593
51842W        W20060  41.558  17.487  10.736
51843W        W20061  31.328  15.649  14.460
51844W        W20062  35.842  31.857  13.535
51845W        W20063  36.410  44.540  14.938
51846W        W20064  38.379  20.286   1.409
51847W        W20065   0.510  40.069  13.054
51848W        W20066  18.077  17.183  10.104
51849W        W20067  20.589  29.925   0.833
51850W        W20068  31.322  18.073  13.614
51851W        W20069  44.943  30.643   1.373
51852W        W20070  32.480  18.077  11.701
51853W        W20071   8.676   5.324   0.282
51854W        W20072  15.309  18.762   0.998
51855W        W20073   3.683  44.928  14.299
51856W        W20074  28.195   9.409  10.971
51857W        W20075  22.421  38.313   3.842
51858W        W20076  19.243  44.331   2.241
51859W        W20077  38.448  34.415   2.822
51860W        W20078  42.817  32.998  11.951
51861W        W20079  26.324  33.292  13.155
51862W        W20080   8.431  19.644  11.689
51863W        W20081  30.441  35.086   0.875
51864W        W20082  13.808  19.718  10.492
51865W        W20083   7.428   2.312   3.606
51866W        W20084  12.608  25.839   2.844
51867W        W20085  22.315  43.832  11.983
51868W        W20086  13.428  37.604  12.525
51869W        W20087   7.398  11.293  14.311
51870W        W20088  33.490  39.913   3.645
51871W        W20089  35.738  44.437   3.417
51872W        W20090  22.097  13.138   0.914
51873W        W20091   8.723   9.786   1.742
51874W        W20092  28.569  21.381   4.936
51875W        W20093   8.767  32.685   4.795
51876W        W20094  37.768   6.259  10.892
51877W        W20095  36.533   7.254   0.733
51878W        W20096  35.753   7.382   4.563
51879W        W20097   0.165  35.463  13.649
51880W        W20098  30.107   4.003   1.845
51881W        W20099  42.066  15.331   1.324
51882W        W20100  10.569  44.234  11.989
51883W        W20101  13.805  20.952   0.361
51884W        W20102  44.361   9.236   0.956
51885W        W20103   1.904  38.876  10.697
51886W        W20104  23.632  20.699   4.552
51887W        W20105  18.142  39.806   3.175
51888W        W20106  29.898  22.160   4.499
51889W        W20107  44.938  17.276  14.858
51890W        W20108  26.956   1.482   0.345
51891W        W20109   2.863   5.864  14.804
51892W        W20110  20.517  23.025  10.804
51893W        W20111  17.337  34.133  13.874
51894W        W20112  12.525   2.776   0.386
51895W        W20113  13.077  19.583  12.728
51896W        W20114  10.814  33.309   1.888
51897W        W20115  41.311  14.042   0.468
51898W        W20116  17.819  16.778   2.201
51899W        W20117  37.823  19.310  13.273
51900W        W20118  20.517  27.237   2.242
51901W        W20119  21.485  12.411  10.434
51902W        W20120  16.931  22.332  13.455
51903W        W20121   3.229  16.289  13.899
51904W        W20122  33.076  32.428  12.643
51905W        W20123  19.688  44.784  14.572
51906W        W20124  27.394  24.570   1.578
51907W        W20125  25.711   3.443  14.808
51908W        W20126  33.822  11.892  14.906
51909W        W20127  37.479  24.073   5.092
51910W        W20128  44.166   8.024   4.541
51911W        W20129   6.161  14.790  14.898
51912W        W20130  40.904  18.018   1.829
51913W        W20131  44.491  37.920   4.143
51914W        W20132  27.265  35.823  12.119
51915W        W20133  21.477  22.500  11.861
51916W        W20134  35.730  41.319   1.405
51917W        W20135  23.208  26.949  14.450
51918W        W20136   7.381  19.052   2.788
51919W        W20137   5.186  13.821  10.428
51920W        W20138  20.023   1.055   4.090
51921W        W20139  12.826   6.459  12.001
51922W        W20140  38.808  30.129   0.816
51923W        W20141  34.898  23.811   1.737
51924W        W20142  42.348  39.832  10.657
51925W        W20143  37.597  39.796  14.160
51926W        W20144  28.496   1.698  13.944
51927W        W20145  37.750  14.646   0.556
51928W        W20146  34.195  34.464  13.869
51929W        W20147  28.621   4.052   1.380
51930W        W20148   0.282  28.665  10.707
51931W        W20149  15.114  31.623   2.707
51932W        W20150  13.183  41.029  11.165
51933W        W20151  32.229  23.028  12.649
51934W        W20152  23.352  41.442  14.798
51935W        W20153  22.190  16.820   2.345
51936W        W20154  41.627  41.297  13.871
51937W        W20155   1.448  17.384  13.264
51938W        W20156  26.688  30.561   1.449
51939W        W20157  35.069   9.204   0.317
51940W        W20158   8.663  28.047  11.045
51941W        W20159  41.551  19.565  12.534
51942W        W20160  24.201  26.457  12.638
51943W        W20161  22.817  15.305   3.939
51944W        W20162  44.961  25.628  10.944
51945W        W20163  33.570  32.314  12.537
51946W        W20164  38.319   7.581   1.172
51947W        W20165  12.660   0.497  12.595
51948W        W20166  10.655   4.608  10.971
51949W        W20167   4.000  35.600   2.180
51950W        W20168   0.330   0.356   3.515
51951W        W20169   8.698  43.096   3.428
51952W        W20170  39.069  41.773   4.561
51953W        W20171  20.111  35.783  10.189
51954W        W20172  25.132  15.962  12.474
51955W        W20173   5.542  40.295   3.235
51956W        W20174   5.659   1.835   3.274
51957W        W20175  27.178  36.023  13.034
51958W        W20176  35.566   3.609  11.507
51959W        W20177   7.144  16.024   1.399
51960W        W20178  19.836  26.506   1.983
51961W        W20179  21.719  13.824   2.691
51962W        W20180   4.746  44.198  14.981
51963W        W20181   1.828  37.673  14.029
51964W        W20182  40.586  24.453  11.652
51965W        W20183  42.719  38.291   0.343
51966W        W20184   7.732   2.748   0.259
51967W        W20185  37.889  34.094  11.973
51968W        W20186  24.274   8.173   1.324
51969W        W20187  12.303  35.345   3.994
51970W        W20188  33.530  31.015   5.555
51971W        W20189  18.802  31.537  13.418
51972W        W20190  39.419  18.221   3.132
51973W        W20191  22.342   4.423   4.429
51974W        W20192   1.214  25.559   1.792
51975W        W20193  42.022  15.871  12.384
51976W        W20194  29.911  26.615  12.605
51977W        W20195  39.405  37.403  12.155
51978W        W20196  40.309  28.601  12.903
51979W        W20197  25.417  32.166   5.062
51980W        W20198  35.943  43.302  13.696
51981W        W20199  28.385  21.189   2.349
51982W        W20200  39.010   4.753  13.421
51983W        W20201  31.697  38.384   1.040
51984W        W20202  24.293  22.133  10.768
51985W        W20203   7.209   5.985   3.270
51986W        W20204  43.367   6.455  14.538
51987W        W20205   3.907   6.595   2.821
51988W        W20206  27.363   6.178   3.679
51989W        W20207  20.185  30.399   3.562
51990W        W20208  28.980  22.594   0.486
51991W        W20209   5.603  29.551  14.800
51992W        W20210  14.380  28.924  12.087
51993W        W20211   0.406  21.511  11.986
51994W        W20212  33.140   5.635   0.508
51995W        W20213  35.498  37.101   4.661
51996W        W20214  26.757  33.134  12.331
51997W        W20215   2.754  15.315  13.819
51998W        W20216  42.015  12.465   0.263
51999W        W20217  16.616  34.853  12.306
52000W        W20218  12.258  16.979   4.490
52001W        W20219  34.054  31.676  14.559
52002W        W20220   6.584  16.246   4.083
52003W        W20221   9.247   7.098  14.312
52004W        W20222  23.524   9.891  13.419
52005W        W20223  36.046  36.346   3.657
52006W        W20224  19.252  32.272  10.282
52007W        W20225   0.807  41.354  11.112
52008W        W20226  21.673  30.126   0.977
52009W        W20227   5.922  43.676   5.292
52010W        W20228   8.297  13.853  14.403
52011W        W20229  30.250   1.809   4.163
52012W        W20230  20.096  26.661   3.830
52013W        W20231  40.558   3.424  10.307
52014W        W20232  11.014  42.997   3.564
52015W        W20233  31.953  43.009   4.064
52016W        W20234  27.254  36.440   0.254
52017W        W20235   3.084   7.498   0.328
52018W        W20236  27.971  43.681  14.335
52019W        W20237  27.956   2.874   1.394
52020W        W20238  19.878  30.254  11.453
52021W        W20239  43.732  14.270  12.993
52022W        W20240  30.192  15.615   0.998
52023W        W20241  26.566  23.069  13.346
52024W        W20242   8.143   3.902   0.782
52025W        W20243  42.116  37.611  10.602
52026W        W20244   2.708  39.210   3.170
52027W        W20245  38.556  19.107   1.238
52028W        W20246   8.245  36.760  11.155
52029W        W20247  42.115  18.291   3.733
52030W        W20248  18.340  11.116   2.397
52031W        W20249  30.226  11.120   4.574
52032W        W20250   8.859   2.961   3.801
52033W        W20251   0.489  17.414  13.499
52034W        W20252   5.436   1.401   1.907
52035W        W20253  17.589   0.995  11.162
52036W        W20254   7.047  35.558   2.559
52037W        W20255  39.356  31.816  12.703
52038W        W20256  43.929  29.355  10.513
52039W        W20257   4.285  12.759  14.900
52040W        W20258  37.398  12.674  13.911
52041W        W20259  25.682   1.876  14.219
52042W        W20260  37.256  23.476   4.126
52043W        W20261  25.100  35.342   1.434
52044W        W20262  41.534  39.616  11.576
52045W        W20263  12.923  15.811  13.859
52046W        W20264  34.943  19.412  14.261
52047W        W20265   6.974  21.067  13.949
52048W        W20266   3.924  37.750  13.097
52049W        W20267   5.648  34.075   0.253
52050W        W20268  32.420  10.269  10.621
52051W        W20269  27.470  37.556  13.041
52052W        W20270  11.798  43.348  10.655
52053W        W20271  38.747  26.972   1.681
52054W        W20272   9.684  15.224   1.763
52055W        W20273  22.306  42.760   4.943
52056W        W20274  22.954  23.205   3.644
52057W        W20275  35.954  32.594   4.588
52058W        W20276  41.512  43.815   1.806
52059W        W20277  11.639   7.861  12.478
52060W        W20278   2.345  23.124  14.504
52061W        W20279  10.964   2.007   2.628
52062W        W20280   2.708  19.107  13.007
52063W        W20281  17.067  42.523  14.497
52064W        W20282  14.610   2.922  14.237
52065W        W20283  17.901  27.634   4.797
52066W        W20284  27.600  34.422  14.870
52067W        W20285   1.256  13.817   0.095
52068W        W20286   7.172  41.885  10.787
52069W        W20287  13.739  19.741   4.421
52070W        W20288  30.933  29.080   1.717
52071W        W20289   7.822  10.412   2.258
52072W        W20290  25.582  18.511  12.873
52073W        W20291   4.199  13.665  14.312
52074W        W20292   0.785  38.304   4.675
52075W        W20293  26.987   5.838   2.299
52076W        W20294  16.816  30.881  14.997
52077W        W20295  32.993  41.472   3.148
52078W        W20296  13.295  30.491   4.142
52079W        W20297  41.685  17.579  11.663
52080W        W20298  15.195   6.388   4.334
52081W        W20299  23.755  28.471   0.880
52082W        W20300  20.178  26.610  13.067
52083W        W20301  15.596  12.779   2.625
52084W        W20302  35.133   3.320   2.397
52085W        W20303  27.076  13.035  10.614
52086W        W20304  35.232  11.696   3.249
52087W        W20305   2.211  19.136   3.677
52088W        W20306   5.342   5.639  14.742
52089W        W20307  22.572  23.062  14.505
52090W        W20308  19.204   3.482  12.985
52091W        W20309  19.656  19.304  13.105
52092W        W20310  24.139  22.405  11.624
52093W        W20311  43.479  11.344   0.436
52094W        W20312   4.825  20.006   5.054
52095W        W20313  13.312   3.979   2.822
52096W        W20314  38.748   7.410   3.226
52097W        W20315   0.663  35.514  13.617
52098W        W20316  26.210  33.045   3.360
52099W        W20317  28.977   1.351  12.521
52100W        W20318  33.142  17.471  14.506
52101W        W20319  34.352  22.103   3.335
52102W        W20320   5.898   9.193  11.401
52103W        W20321  18.248  36.505  13.988
52104W        W20322  28.546   2.657  11.515
52105W        W20323  14.456  12.564   3.667
52106W        W20324  29.647  19.576   2.197
52107W        W20325  24.975  37.521   0.438
52108W        W20326  10.371  31.545  12.631
52109W        W20327  21.473  31.406  12.109
52110W        W20328  24.475  33.499   4.048
52111W        W20329   1.748  31.906  12.537
52112W        W20330  39.923  20.654   0.336
52113W        W20331  13.490  41.131  13.059
52114W        W20332  20.234  31.127  10.923
52115W        W20333  31.072  21.200   2.282
52116W        W20334  38.499  12.243  14.063
52117W        W20335   9.457  15.689   1.743
52118W        W20336  34.190   2.692   4.253
52119W        W20337   8.299  23.027   2.367
52120W        W20338  25.203  19.021  10.520
52121W        W20339  13.178  21.249  13.171
52122W        W20340  36.875  16.519   3.214
52123W        W20341   0.654  37.423  13.848
52124W        W20342   5.160  29.653   3.284
52125W        W20343  36.319  19.969   2.102
52126W        W20344   5.452  41.476  13.932
52127W        W20345  12.595   6.392   3.920
52128W        W20346  40.280  40.484   0.785
52129W        W20347  33.628   6.614   1.269
52130W        W20348  15.204  20.561   1.401
52131W        W20349   6.640   3.908  10.898
52132W        W20350  18.252  11.511   4.627
52133W        W20351   1.415  31.568  14.844
52134W        W20352  32.887   5.895   5.007
52135W        W20353  22.056   2.718  11.483
52136W        W20354  22.771  13.292   0.299
52137W        W20355  31.489  10.449   1.646
52138W        W20356  10.136  40.293  12.506
52139W        W20357  35.501   4.858  12.519
52140W        W20358  36.543  42.452   2.747
52141W        W20359  31.747  34.857   0.411
52142W        W20360  27.232  28.649  11.946
52143W        W20361   5.325  18.600  14.678
52144W        W20362  26.868  18.597  12.985
52145W        W20363   3.685  22.958  14.765
52146W        W20364  11.741  19.007  10.186
52147W        W20365  38.824  32.559   1.844
52148W        W20366   2.679  28.061  14.645
52149W        W20367  13.617  44.536   4.106
52150W        W20368   0.394  12.401  11.387
52151W        W20369  21.902   1.403   0.422
52152W        W20370  13.692  18.423   4.124
52153W        W20371  33.679   7.846  11.031
52154W        W20372  44.388   5.942   0.874
52155W        W20373  41.462  30.656   4.574
52156W        W20374  31.255  23.791   1.359
52157W        W20375  41.376  18.520  14.488
52158W        W20376   9.178  43.318   9.774
52159W        W20377   5.118   3.697   1.681
52160W        W20378  12.261   9.795  12.370
52161W        W20379  27.813   4.080   1.727
52162W        W20380  44.859  36.116   2.613
52163W        W20381  40.483  31.468   1.839
52164W        W20382  27.489  38.127  12.158
52165W        W20383  27.673  42.918  14.595
52166W        W20384  25.686  28.149   5.087
52167W        W20385  35.918   1.531   4.594
52168W        W20386  21.195  41.895  12.881
52169W        W20387  24.025  17.601  11.537
52170W        W20388  36.822   8.836   0.293
52171W        W20389  24.270   2.504   1.328
52172W        W20390   2.280  30.770   2.691
52173W        W20391  44.337  30.462  14.096
52174W        W20392  24.520  18.268   4.647
52175W        W20393  27.966   4.417  12.652
52176W        W20394  20.827  32.409   0.473
52177W        W20395  16.060  41.940   2.851
52178W        W20396   7.112  37.357   3.343
52179W        W20397  17.816  25.624   1.972
52180W        W20398  40.777  21.429  11.646
52181W        W20399   8.295  34.607   4.507
52182W        W20400  21.134  22.947   1.879
52183W        W20401  24.774   4.215   0.380
52184W        W20402   5.586   8.218  13.068
52185W        W20403   4.408  44.308   3.115
52186W        W20404  16.285  16.706   0.765
52187W        W20405   4.381  22.947   0.284
52188W        W20406   0.018  20.367   4.170
52189W        W20407   4.792   1.343   1.305
52190W        W20408  13.828  25.406  11.588
52191W        W20409   3.936  11.787  11.293
52192W        W20410  16.320   1.254   0.561
52193W        W20411   6.232  39.794  14.330
52194W        W20412  43.484  23.627   1.285
52195W        W20413  24.122  44.903  14.377
52196W        W20414  12.769  17.562  13.411
52197W        W20415  29.895   0.301  13.402
52198W        W20416  28.948  42.465   3.678
52199W        W20417  36.022  30.712  12.356
52200W        W20418   8.367  35.388   4.843
52201W        W20419  31.903  33.380  14.552
52202W        W20420   8.368  35.411  14.409
52203W        W20421   6.212  13.648   2.808
52204W        W20422   6.268  42.055  12.276
52205W        W20423  14.714  17.586   0.763
52206W        W20424   7.836  37.500   5.044
52207W        W20425   9.723  34.074   2.363
52208W        W20426   5.299  38.452   2.305
52209W        W20427  16.975   3.076  13.960
52210W        W20428  25.026  29.835  10.743
52211W        W20429   2.871  23.467   3.133
52212W        W20430  26.537  29.037  14.598
52213W        W20431  10.450  27.277   3.175
52214W        W20432  20.976  38.315   0.245
52215W        W20433   0.684  27.469  10.732
52216W        W20434  21.043   0.818   2.196
52217W        W20435   3.357   2.176   2.929
52218W        W20436  36.462  35.531   3.635
52219W        W20437  27.194  42.806   2.237
52220W        W20438   8.750  36.469   0.514
52221W        W20439   1.672  25.126  14.337
52222W        W20440  10.854  21.493  14.310
52223W        W20441  27.938  26.774   3.346
52224W        W20442  16.788  17.179  11.437
52225W        W20443  30.866  23.070  12.935
52226W        W20444   0.598  39.771  12.633
52227W        W20445  23.097  21.477  12.974
52228W        W20446  25.189  24.703  14.269
52229W        W20447  29.040   8.884   4.543
52230W        W20448  25.381  21.488  13.586
52231W        W20449  20.269  30.030   4.841
52232W        W20450   2.384  10.157   5.182
52233W        W20451   3.717  31.087   0.804
52234W        W20452  36.020  39.495  10.591
52235W        W20453   8.347  17.150  12.576
52236W        W20454  40.331  13.301  13.810
52237W        W20455  44.023  32.696   0.914
52238W        W20456   3.466  41.716  11.232
52239W        W20457  15.941  35.779   3.744
52240W        W20458  44.139  30.942   2.314
52241W        W20459  25.149  29.675   0.433
52242W        W20460   7.708  27.042  12.791
52243W        W20461  25.549  22.045  14.734
52244W        W20462  18.236  39.200  14.893
52245W        W20463  22.321  16.652  10.341
52246W        W20464  14.316   8.444   3.479
52247W        W20465  39.244  33.997  11.649
52248W        W20466  43.477  28.494   3.822
52249W        W20467  12.316  24.086  12.086
52250W        W20468  42.507   3.796  11.028
52251W        W20469   5.007  15.236  13.586
52252W        W20470  37.261  37.604  12.934
52253W        W20471  35.413  38.314   0.810
52254W        W20472   6.894  26.937   0.897
52255W        W20473  31.957  23.427  12.466
52256W        W20474  28.062  22.414  13.050
52257W        W20475  23.986  28.251   3.144
52258W        W20476  34.845  38.339   0.293
52259W        W20477   7.118  20.133  11.986
52260W        W20478  44.761  38.566  13.766
52261W        W20479  35.214  26.486  10.287
52262W        W20480  20.098  40.415   2.530
52263W        W20481  24.208   3.863   1.843
52264W        W20482  32.977   6.203   2.656
52265W        W20483  13.199   8.438   3.567
52266W        W20484  22.860  23.240  13.895
52267W        W20485  17.228   3.781  10.572
52268W        W20486  28.139   8.259   1.856
52269W        W20487  26.503  43.268  10.356
52270W        W20488  18.029   1.265  11.071
52271W        W20489  29.184  18.587   1.868
52272W        W20490  22.033  38.531   3.567
52273W        W20491   5.427  25.410  10.607
52274W        W20492  18.519   9.347  14.306
52275W        W20493  26.571  42.112   1.426
52276W        W20494  12.659   1.109   4.709
52277W        W20495  40.827   4.750   0.314
52278W        W20496   7.316  33.207  14.739
52279W        W20497   2.228   3.874  13.908
52280W        W20498  43.032   4.413  11.535
52281W        W20499  14.086  20.002   1.810
52282W        W20500  32.612  21.312  11.903
52283W        W20501   3.360  11.349   1.434
52284W        W20502   9.255  44.648  14.924
52285W        W20503  22.082  35.931   2.915
52286W        W20504  11.264  10.427   2.635
52287W        W20505  19.417  12.248   0.887
52288W        W20506  18.167  31.069  12.204
52289W        W20507   7.619   7.094   4.327
52290W        W20508  11.131   4.736   1.313
52291W        W20509   7.465  21.765  13.339
52292W        W20510  18.278   7.704  14.672
52293W        W20511  39.250  21.250  13.081
52294W        W20512  27.105  33.082  11.947
52295W        W20513  36.263  28.150   0.899
52296W        W20514  40.641   9.836   4.680
52297W        W20515  33.977  40.487  11.794
52298W        W20516  15.826  18.705   0.920
52299W        W20517  23.620  13.209   4.253
52300W        W20518  33.627  28.196  13.172
52301W        W20519  29.943  17.704  12.495
52302W        W20520   6.268  37.951   0.333
52303W        W20521  15.022   5.770   3.722
52304W        W20522  39.499  39.971   0.989
52305W        W20523   8.044   9.741   4.513
52306W        W20524  35.063  22.703  14.453
52307W        W20525  21.743  16.051   3.187
52308W        W20526  36.787   3.978  13.872
52309W        W20527   7.074  34.056  14.583
52310W        W20528  29.400  30.885   0.346
52311W        W20529  37.117  11.333  12.815
52312W        W20530  25.113  32.334  13.445
52313W        W20531  26.142  36.784  11.217
52314W        W20532  43.975  35.955   0.417
52315W        W20533  12.216  31.907  11.792
52316W        W20534   9.560  22.516   1.949
52317W        W20535  10.841   3.365   3.706
52318W        W20536  22.154   9.617  13.726
52319W        W20537  25.334  33.636   4.679
52320W        W20538   9.579  16.864   3.663
52321W        W20539   5.652  13.200  13.137
52322W        W20540  43.414  23.553   4.019
52323W        W20541  26.973  14.650  14.917
52324W        W20542  38.828  32.461  13.788
52325W        W20543  38.287  28.515   1.253
52326W        W20544  12.322  15.796   3.544
52327W        W20545   1.405  44.360   3.857
52328W        W20546  25.470   8.863   2.319
52329W        W20547  32.809  33.362  11.128
52330W        W20548  26.212   6.127   1.771
52331W        W20549  16.524  20.086   2.085
52332W        W20550  25.915  40.433   4.227
52333W        W20551  38.542   2.954   3.802
52334W        W20552   9.199  28.683  11.168
52335W        W20553  39.647   4.012   4.526
52336W        W20554  25.890   9.465  11.019
52337W        W20555  27.685  24.024  13.476
52338W        W20556  38.423  19.137   2.674
52339W        W20557  18.220  15.495   3.588
52340W        W20558  36.319  30.395   1.368
52341W        W20559  38.615  31.139   4.223
52342W        W20560   5.856   2.907  11.184
52343W        W20561  33.926  22.036   3.689
52344W        W20562  40.545   5.816   4.527
52345W        W20563  40.485   1.900   4.184
52346W        W20564  27.720  38.405   1.540
52347W        W20565  31.302  35.025  14.525
52348W        W20566   5.355   8.139   1.877
52349W        W20567  43.338  43.699  14.819
52350W        W20568  16.494  34.606  13.330
52351W        W20569  34.412  34.858  14.807
52352W        W20570   4.705  11.063  14.406
52353W        W20571  11.341  28.152  13.034
52354W        W20572  33.875  43.392   3.295
52355W        W20573   0.759  12.722  11.609
52356W        W20574  20.640  12.640   2.810
52357W        W20575  23.510   5.413  13.428
52358W        W20576  19.249  42.663   0.920
52359W        W20577  44.364  10.341   2.108
52360W        W20578  17.016  29.525   4.175
52361W        W20579  41.226   7.667  12.965
52362W        W20580  31.526   9.194   4.641
52363W        W20581  12.863   4.256   2.183
52364W        W20582   4.119  10.176   1.696
52365W        W20583  39.024  23.552   2.223
52366W        W20584  43.880  30.168  14.207
52367W        W20585   8.082  20.531   0.325
52368W        W20586   9.229  12.080  13.614
52369W        W20587  11.275  44.417   1.904
52370W        W20588  33.164  13.853   1.912
52371W        W20589  15.241  41.446  11.270
52372W        W20590  16.628  40.110  12.575
52373W        W20591   7.311  26.654   1.012
52374W        W20592  35.565  30.711  11.486
52375W        W20593  36.050  29.981  11.442
52376W        W20594  30.163  33.095  14.268
52377W        W20595   7.379   9.852   2.554
52378W        W20596   8.349  26.222   0.830
52379W        W20597  39.655  13.830   1.741
52380W        W20598  28.722  38.045  11.218
52381W        W20599   1.339  36.047  13.356
52382W        W20600  30.905   5.262  14.031
52383W        W20601  41.097   2.925   3.995
52384W        W20602  33.485   1.532  13.344
52385W        W20603  18.710  21.630  14.354
52386W        W20604   7.767   5.324   3.905
52387W        W20605  17.192  33.998  11.863
52388W        W20606  42.073   6.966   4.309
52389W        W20607  34.680  33.544   1.924
52390W        W20608  32.510   8.142   2.323
52391W        W20609  17.905  42.383  14.789
52392W        W20610  28.235   0.447  14.051
52393W        W20611  22.765   1.988  12.029
52394W        W20612  33.185  19.302  12.444
52395W        W20613  18.320  19.587  10.956
52396W        W20614  36.442  30.430  12.469
52397W        W20615  25.110  31.975   4.669
52398W        W20616   9.569   2.285  12.039
52399W        W20617  23.418  36.451   0.065
52400W        W20618  29.486   2.756   4.185
52401W        W20619  27.011  32.296   9.765
52402W        W20620  35.569  23.534   4.711
52403W        W20621  23.779   7.208  10.996
52404W        W20622  38.343  23.991  13.073
52405W        W20623  15.319  41.520   4.992
52406W        W20624  38.854  32.996  14.164
52407W        W20625  23.582  29.917  10.194
52408W        W20626  35.273  37.485   2.648
52409W        W20627  11.922  19.267  13.528
52410W        W20628  21.075  27.724   3.823
52411W        W20629  42.448   9.703   2.187
52412W        W20630   5.976  40.467   5.604
52413W        W20631  23.089  39.456   0.838
52414W        W20632  15.086  10.847  10.857
52415W        W20633  41.291  34.503   0.254
52416W        W20634  20.436  27.134  12.503
52417W        W20635  44.859   3.992  13.815
52418W        W20636   3.398  44.474  10.248
52419W        W20637  41.514  24.740   1.832
52420W        W20638  41.491  26.592   1.487
52421W        W20639  19.088  21.793   0.195
52422W        W20640  36.063  25.679   2.371
52423W        W20641  13.321  13.871   0.195
52424W        W20642  31.939  38.544   4.558
52425W        W20643  14.430   0.801   4.114
52426W        W20644  11.783  43.987   3.537
52427W        W20645  22.764  15.957   1.073
52428W        W20646  21.367  36.904   5.021
52429W        W20647  13.899  37.860  11.049
52430W        W20648  28.960   8.414   4.758
52431W        W20649  12.572   7.249   1.590
52432W        W20650   4.984  22.658   4.061
52433W        W20651  28.944  23.717  12.111
52434W        W20652   2.835  24.479   2.396
52435W        W20653   3.570  25.582  11.646
52436W        W20654   3.982  39.240  12.660
52437W        W20655  26.477  14.726  14.831
52438W        W20656  35.937  28.878   3.771
52439W        W20657  38.178  27.644   0.801
52440W        W20658  15.075  35.058   2.147
52441W        W20659   4.924  43.759   3.348
52442W        W20660  34.881  27.624  12.382
52443W        W20661  24.152  33.098  13.034
52444W        W20662  17.617  15.388   3.057
52445W        W20663  18.336  39.444  11.582
52446W        W20664  32.090  34.183   4.069
52447W        W20665  43.325  16.964   3.989
52448W        W20666  11.888  43.985  13.857
52449W        W20667  20.937   6.781   1.485
52450W        W20668  31.209  42.959   2.936
52451W        W20669   6.179  21.719  10.981
52452W        W20670  20.007  34.410  11.579
52453W        W20671  38.074  21.079   3.913
52454W        W20672   2.032  18.790  12.543
52455W        W20673  17.574  38.116   0.305
52456W        W20674  25.992  22.193  12.916
52457W        W20675  20.332  20.773  14.280
52458W        W20676   8.378  31.051   3.827
52459W        W20677  34.120  21.444  13.426
52460W        W20678  19.282  27.443  12.132
52461W        W20679  42.468   2.936   1.052
52462W        W20680  39.785  19.512   0.483
52463W        W20681  15.201  21.349  13.886
52464W        W20682   9.299  14.995   0.986
52465W        W20683  13.413  37.765  11.176
52466W        W20684  39.115  36.562   0.724
52467W        W20685  39.951   3.829  13.356
52468W        W20686   7.142   8.292   3.098
52469W        W20687  33.016  32.022   2.410
52470W        W20688  19.475  29.482   4.044
52471W        W20689   3.490  18.156   4.627
52472W        W20690  37.427  10.896  10.634
52473W        W20691  24.685  27.623  12.496
52474W        W20692  18.853  18.751  14.885
52475W        W20693  26.551   5.525   5.057
52476W        W20694  15.287  42.927  10.590
52477W        W20695  26.955  42.393   4.634
52478W        W20696  20.250   8.747  14.547
52479W        W20697  37.601  19.803   2.699
52480W        W20698  11.067  40.663  11.989
52481W        W20699  26.544  24.259  12.147
52482W        W20700  37.124  17.475  12.820
52483W        W20701  13.013  17.979  10.800
52484W        W20702  22.129  22.118   3.067
52485W        W20703  35.051  37.095   4.917
52486W        W20704  27.640  11.331  12.556
52487W        W20705  26.245  29.336   0.092
52488W        W20706  41.840  26.387  11.238
52489W        W20707  31.218  44.661   1.214
52490W        W20708  32.494   0.802  13.642
52491W        W20709  36.908   1.446   2.396
52492W        W20710  13.761  42.827  10.635
52493W        W20711  21.084  34.923   3.247
52494W        W20712   8.016  37.364   4.578
52495W        W20713   6.785   4.848  14.043
52496W        W20714  35.462  29.047   0.138
52497W        W20715  43.572   9.288   0.510
52498W        W20716  35.753   7.587  13.811
52499W        W20717  39.049  11.706  12.964
52500W        W20718   6.448  11.373   0.558
52501W        W20719  40.482  11.876   4.411
52502W        W20720  24.143  19.425   0.322
52503W        W20721  36.717  39.516  13.386
52504W        W20722  44.840  18.705   1.619
52505W        W20723  25.722  27.812   4.354
52506W        W20724  32.958  33.433   4.603
52507W        W20725  43.772  29.244  12.973
52508W        W20726  10.474  33.310  12.448
52509W        W20727  19.513  44.527   1.839
52510W        W20728   4.727   2.393  10.486
52511W        W20729  15.842  37.456   3.133
52512W        W20730  13.097  43.993  11.643
52513W        W20731   7.443   4.000  12.021
52514W        W20732  40.972  18.888  10.715
52515W        W20733  34.084  18.214  12.536
52516W        W20734  27.659  43.918  11.586
52517W        W20735  22.239  15.912   1.734
52518W        W20736   5.707  27.534   2.880
52519W        W20737  17.735   0.199  11.683
52520W        W20738   4.750  36.796   0.425
52521W        W20739   1.625   6.607  12.050
52522W        W20740  15.825  24.396   4.110
52523W        W20741   9.086  32.809  11.654
52524W        W20742  35.814   3.772   4.784
52525W        W20743  36.753  23.426   4.213
52526W        W20744  10.922  36.639   1.889
52527W        W20745  32.326   6.159   3.898
52528W        W20746  31.910   4.476   1.949
52529W        W20747  13.611  20.158   0.831
52530W        W20748  30.509  34.096   2.811
52531W        W20749   5.317  13.285  12.056
52532W        W20750  44.088  41.287   2.848
52533W        W20751   2.379   9.657   4.638
52534W        W20752   8.607   2.426  12.315
52535W        W20753  37.515  26.121  12.855
52536W        W20754  31.151  21.721   2.325
52537W        W20755  19.079  19.221   3.293
52538W        W20756  33.094  32.492  14.017
52539W        W20757  23.988  43.326  10.552
52540W        W20758  12.347  26.196   0.916
52541W        W20759  27.251   7.753   4.692
52542W        W20760  17.565  36.050   0.578
52543W        W20761  33.326  28.534  13.454
52544W        W20762   0.832   0.466  11.680
52545W        W20763  34.948  25.287   0.546
52546W        W20764   8.800  38.967  12.479
52547W        W20765  35.993   1.874   0.081
52548W        W20766  37.994  44.625  10.248
52549W        W20767  14.319  38.588   3.115
52550W        W20768  40.947   1.474   1.817
52551W        W20769   7.686  24.622   0.393
52552W        W20770  35.931  44.920   2.689
52553W        W20771   5.463  40.420  12.137
52554W        W20772  34.966  27.865   1.319
52555W        W20773   7.450  20.018   1.234
52556W        W20774  20.764   8.800  11.314
52557W        W20775  23.728  15.191  13.612
52558W        W20776  23.601  14.364   2.814
52559W        W20777  10.170  34.553  14.006
52560W        W20778   2.213  20.555   4.828
52561W        W20779  34.387  16.584   4.178
52562W        W20780  40.163  39.778   2.813
52563W        W20781  37.468  37.778   4.931
52564W        W20782  35.112  10.973   0.765
52565W        W20783  28.992  34.631  14.645
52566W        W20784  26.233  19.797  13.510
52567W        W20785  27.731  31.138   4.075
52568W        W20786  39.423  28.115   4.092
52569W        W20787  39.697  26.960   4.506
52570W        W20788   1.235  43.165   3.173
52571W        W20789  13.246  37.308   2.250
52572W        W20790  30.299  30.114   0.439
52573W        W20791  21.910  32.295   4.392
52574W        W20792  27.117   3.870   1.260
52575W        W20793  28.817  31.008  12.784
52576W        W20794  40.909  13.833  12.513
52577W        W20795  21.708   6.339  12.949
52578W        W20796  20.496  40.686  12.868
52579W        W20797  24.653  32.375   3.130
52580W        W20798   0.752  38.951  14.955
52581W        W20799  40.273  26.464   4.101
52582W        W20800  29.070  13.494  13.862
52583W        W20801   6.571   9.375  14.928
52584W        W20802  21.762   3.917  13.178
52585W        W20803  27.023  28.659  13.780
52586W        W20804   4.884  17.459   2.702
52587W        W20805  18.646  18.601  11.764
52588W        W20806  34.253  38.399   2.742
52589W        W20807  18.024  18.589  11.050
52590W        W20808   4.550  17.122   3.488
52591W        W20809  14.717  31.366   2.903
52592W        W20810  23.490  40.035   2.480
52593W        W20811  25.156  25.645   0.758
52594W        W20812  29.230  22.181   2.328
52595W        W20813  40.058  44.932  13.376
52596W        W20814  11.662  36.873  12.551
52597W        W20815  25.671  43.900   1.692
52598W        W20816  32.704  35.108   0.196
52599W        W20817  35.324  20.342  14.800
52600W        W20818  15.884  19.758  11.141
52601W        W20819   1.262   8.754  12.638
52602W        W20820  11.851  32.736  11.142
52603W        W20821  29.653  35.602  14.890
52604W        W20822   3.369   9.468  11.532
52605W        W20823  32.702  35.403  10.467
52606W        W20824  18.143  37.671  11.077
52607W        W20825  26.143   6.037  12.473
52608W        W20826  30.751   4.823   2.235
52609W        W20827   4.127  37.200   2.853
52610W        W20828  18.529  31.810  12.498
52611W        W20829  17.307  31.027  12.337
52612W        W20830  19.649  27.176   2.296
52613W        W20831  24.623  35.332   3.845
52614W        W20832  11.818  30.677   1.755
52615W        W20833  23.308  10.949   3.607
52616W        W20834   7.404  34.020   4.609
52617W        W20835  13.890   6.269  14.799
52618W        W20836  40.851  14.191   0.272
52619W        W20837  14.079   1.302   2.260
52620W        W20838  22.279  38.226  12.934
52621W        W20839  16.831  38.145  13.427
52622W        W20840   4.415  34.549   1.770
52623W        W20841  44.394  10.652   4.897
52624W        W20842  12.586  21.671   1.912
52625W        W20843  20.572  39.954  11.535
52626W        W20844   0.848  28.048   4.217
52627W        W20845  28.430   6.263   4.601
52628W        W20846  26.489  28.503  13.308
52629W        W20847  15.587  20.617   3.197
52630W        W20848  31.115  30.095  10.964
52631W        W20849  19.917  39.571   4.200
52632W        W20850  27.778  24.603   2.030
52633W        W20851  38.395  23.236   0.821
52634W        W20852  34.184  20.291  12.015
52635W        W20853   7.566  18.758  13.917
52636W        W20854  40.870   3.914  11.460
52637W        W20855  36.912  20.524  11.589
52638W        W20856  22.543   5.750  14.422
52639W        W20857  38.608  40.555  12.592
52640W        W20858  34.742  22.634  10.462
52641W        W20859   6.233  20.266   4.389
52642W        W20860  13.176  14.334   3.285
52643W        W20861   7.768  28.875  13.860
52644W        W20862  24.259   7.286   4.207
52645W        W20863  37.589   8.627   3.137
52646W        W20864  15.249  30.000   3.661
52647W        W20865  34.545  40.441   0.088
52648W        W20866   9.361  35.825  13.761
52649W        W20867   3.409  29.601   3.794
52650W        W20868  27.593  44.587   4.483
52651W        W20869   1.540  21.509   1.911
52652W        W20870  15.450  20.717  11.091
52653W        W20871   1.299  35.116  13.464
52654W        W20872  10.887   8.249   3.085
52655W        W20873  18.342   9.796  11.501
52656W        W20874  34.810  25.825   2.806
52657W        W20875  13.664   3.656  14.808
52658W        W20876  40.897  12.096   2.281
52659W        W20877   0.093  36.182   3.063
52660W        W20878   1.815  30.455   0.665
52661W        W20879  19.946  41.313  13.048
52662W        W20880  11.689   1.687  12.368
52663W        W20881  13.982  17.589  13.308
52664W        W20882  20.118  20.796   1.268
52665W        W20883   3.800  41.286   1.750
52666W        W20884  30.436  29.727   0.775
52667W        W20885   4.275  26.199  10.767
52668W        W20886  27.881  41.952   3.199
52669W        W20887  34.229  36.171   1.017
52670W        W20888  26.459   5.549   1.736
52671W        W20889  12.341  20.669  13.360
52672W        W20890   9.751  20.479   0.872
52673W        W20891  41.829  21.959  11.129
52674W        W20892  16.160  29.008  13.297
52675W        W20893   4.591  20.433   0.452
52676W        W20894  40.198  27.098   4.687
52677W        W20895   4.947  31.023  12.094
52678W        W20896  42.296  12.598  12.542
52679W        W20897  18.604  15.097  13.175
52680W        W20898  25.988  13.436  14.935
52681W        W20899  18.704  15.553  11.920
52682W        W20900  19.497  42.046   4.910
52683W        W20901   4.038   2.684  11.628
52684W        W20902  44.176  19.047  12.338
52685W        W20903   6.297  34.892   5.112
52686W        W20904   3.357  15.948   4.160
52687W        W20905  31.673   2.666  14.581
52688W        W20906   2.229  17.119   1.987
52689W        W20907  43.816  27.395   4.474
52690W        W20908  13.983  40.526  12.462
52691W        W20909  16.331  20.328  14.766
52692W        W20910  11.729   7.026  13.998
52693W        W20911  20.262  13.793  12.083
52694W        W20912  35.912  32.636  13.140
52695W        W20913  36.008  36.100  13.451
52696W        W20914   8.159  43.810   2.462
52697W        W20915  37.932  22.831  12.429
52698W        W20916  27.465  42.028  14.284
52699W        W20917  13.999  30.646  10.697
52700W        W20918  30.462  32.816  13.936
52701W        W20919  30.123   6.092  11.590
52702W        W20920   0.917  33.078  13.298
52703W        W20921  44.089  45.000   4.011
52704W        W20922  23.245   1.529   1.383
52705W        W20923  15.592  32.093   3.836
52706W        W20924  12.674  20.403  11.766
52707W        W20925   8.002   0.999   4.745
52708W        W20926  11.308  10.972  14.906
52709W        W20927   6.395  21.846  14.880
52710W        W20928   2.881   2.237  13.412
52711W        W20929  28.457   4.327   4.144
52712W        W20930  17.483  39.254   4.642
52713W        W20931  36.424  30.191  11.157
52714W        W20932  26.221  24.609  14.831
52715W        W20933  19.581   7.402  13.412
52716W        W20934  27.558   9.143   4.771
52717W        W20935  30.010  36.310  11.631
52718W        W20936  30.023  31.135  10.624
52719W        W20937  15.891   1.505   0.858
52720W        W20938   1.769  15.505  12.867
52721W        W20939  24.090  40.313   0.333
52722W        W20940  24.709  19.183  14.090
52723W        W20941  23.550  32.495   3.698
52724W        W20942   0.271  16.568  11.393
52725W        W20943  21.254   7.315   3.189
52726W        W20944  40.320  36.044  13.865
52727W        W20945  11.411  44.740   2.662
52728W        W20946  24.023  19.519  11.430
52729W        W20947  18.700  26.159   2.759
52730W        W20948  43.879  25.660   1.172
52731W        W20949  13.210  25.772   1.256
52732W        W20950  23.662  14.612  12.435
52733W        W20951  29.573  39.730   1.475
52734W        W20952   8.704  22.056  13.095
52735W        W20953  29.391   2.273   3.352
52736W        W20954  43.066   7.792   4.732
52737W        W20955  31.970   7.148  12.931
52738W        W20956  40.084  33.407   3.253
52739W        W20957  29.227  26.785  14.133
52740W        W20958  23.629   8.731  14.739
52741W        W20959  36.480  23.983   3.860
52742W        W20960   2.750  26.551   4.098
52743W        W20961  21.532   9.177   4.630
52744W        W20962  18.004  34.534   4.232
52745W        W20963   3.297   8.856  10.644
52746W        W20964  27.547  16.097   0.489
52747W        W20965  30.784  28.183   4.115
52748W        W20966  21.610  43.471  11.415
52749W        W20967  41.981   3.849  10.964
52750W        W20968  18.205  35.013   2.276
52751W        W20969  35.979   3.200  13.134
52752W        W20970   5.337  20.231  13.903
52753W        W20971   7.930  31.121   3.151
52754W        W20972   0.105  24.345   2.210
52755W        W20973   7.972  19.622   1.659
52756W        W20974  23.409  41.909  12.170
52757W        W20975  25.390   2.336   1.889
52758W        W20976   4.947  39.338  14.594
52759W        W20977  31.002   4.425   0.969
52760W        W20978  44.559   6.853   1.936
52761W        W20979  21.060  32.455  12.871
52762W        W20980   5.031  38.047   0.318
52763W        W20981  19.043   4.794   0.433
52764W        W20982  17.609  14.800  11.422
52765W        W20983   7.838  36.341   0.278
52766W        W20984  17.714  37.363  11.143
52767W        W20985   1.191  28.051   2.896
52768W        W20986   4.216  32.865  13.894
52769W        W20987   6.230  27.131  12.467
52770W        W20988  19.823  17.567   3.239
52771W        W20989  21.460  35.938  12.024
52772W        W20990  27.545   0.549  13.317
52773W        W20991  19.651  33.238  10.373
52774W        W20992   0.181  40.644   1.815
52775W        W20993   9.321  37.772  14.985
52776W        W20994  11.680  26.471  14.360
52777W        W20995   8.086  19.338  14.337
52778W        W20996  37.856   7.147   3.069
52779W        W20997  26.879  38.787   1.740
52780W        W20998  26.767  21.025  14.986
52781W        W20999  26.655   3.043   4.991
52782W        W21000  17.733  22.558  11.682
52783W        W21001  44.406   9.175  10.625
52784W        W21002  18.016  35.561  11.618
52785W        W21003  32.010  38.607  14.328
52786W        W21004   2.794  14.146   4.535
52787W        W21005  17.520  42.914   0.674
52788W        W21006  14.801  13.736   0.652
52789W        W21007   8.377  38.145  14.261
52790W        W21008  44.845   3.697  14.241
52791W        W21009  14.382   2.959   4.780
52792W        W21010  24.463  39.959  12.329
52793W        W21011  36.903  32.020  12.296
52794W        W21012  21.748  17.294   4.640
52795W        W21013  21.092  25.228  13.322
52796W        W21014  21.842  38.507  11.790
52797W        W21015  36.330   7.827   2.682
52798W        W21016  38.938  38.140   1.187
52799W        W21017  21.056  29.869   3.285
52800W        W21018  14.723  41.274   0.500
52801W        W21019  25.986  41.938   4.349
52802W        W21020  19.687  28.623  14.538
52803W        W21021  42.912   7.718  12.707
52804W        W21022  35.165  19.623   1.771
52805W        W21023  44.738  34.052   1.323
52806W        W21024  43.333  29.559  13.008
52807W        W21025  43.513  13.264  12.621
52808W        W21026  38.112  40.837  13.788
52809W        W21027  20.803  16.677   0.894
52810W        W21028  21.537  12.164   4.006
52811W        W21029  33.076  33.924   2.576
52812W        W21030  31.539   7.715  11.425
52813W        W21031  10.570  39.278   3.750
52814W        W21032  13.588  36.817  12.370
52815W        W21033  25.030  25.649  14.713
52816W        W21034  30.036   1.311   1.779
52817W        W21035  35.998  39.971  13.038
52818W        W21036  16.718  17.098   3.611
52819W        W21037  15.599  32.823  11.097
52820W        W21038  23.980  39.393  14.807
52821W        W21039   0.673  36.431  13.598
52822W        W21040  17.375  33.584  12.552
52823W        W21041  43.797  13.786  10.639
52824W        W21042  11.587   5.907   4.132
52825W        W21043  16.241  34.539  10.632
52826W        W21044  31.987  31.151   3.072
52827W        W21045  19.151  30.533  12.561
52828W        W21046  10.587  40.995   4.125
52829W        W21047  20.305  30.048   1.291
52830W        W21048   8.727   8.524   4.061
52831W        W21049  35.196  34.191  12.797
52832W        W21050  40.058   3.237   1.871
52833W        W21051   2.160  21.481  12.695
52834W        W21052  37.370  31.647   4.344
52835W        W21053   7.340  41.008  13.335
52836W        W21054  32.092  18.183   2.808
52837W        W21055   3.323   6.429  11.035
52838W        W21056  12.864  30.987  12.349
52839W        W21057  26.183  12.929  12.094
52840W        W21058  12.625  10.216  11.208
52841W        W21059   5.892  16.226  14.855
52842W        W21060  15.078   0.700   0.412
52843W        W21061  29.153  31.241   0.637
52844W        W21062  43.506   6.691  11.205
52845W        W21063  36.430  21.034   1.234
52846W        W21064   6.822  13.905   1.858
52847W        W21065  42.399  18.686  11.475
52848W        W21066  28.596  36.867   0.422
52849W        W21067  35.864  39.656  14.798
52850W        W21068  30.907  26.430   1.748
52851W        W21069   2.212  33.481  11.699
52852W        W21070  14.233  35.912  12.102
52853W        W21071  24.916  28.031   1.096
52854W        W21072   7.308   5.661  13.884
52855W        W21073  42.863  30.933   0.627
52856W        W21074  15.570  43.844   1.919
52857W        W21075  29.934  16.834   4.334
52858W        W21076  42.498   3.367   0.747
52859W        W21077  35.764  26.518   0.863
52860W        W21078   8.594   0.601  11.681
52861W        W21079  38.557  11.723  13.841
52862W        W21080   3.868   5.412  11.541
52863W        W21081  13.691  10.392   4.194
52864W        W21082   0.214   0.362   1.526
52865W        W21083  25.188  12.762  11.298
52866W        W21084  34.061  19.383  11.194
52867W        W21085   0.679  42.364   1.756
52868W        W21086  31.533  12.734  11.206
52869W        W21087  13.149  30.451   1.751
52870W        W21088  12.430  21.690  14.870
52871W        W21089   9.757  44.020   1.208
52872W        W21090   7.060  34.104   3.139
52873W        W21091   9.365  21.914   1.328
52874W        W21092  26.453  16.215  13.046
52875W        W21093  41.389  34.886  12.934
52876W        W21094  36.769  19.286   4.123
52877W        W21095   8.881  20.565   4.182
52878W        W21096  39.639  39.633   2.356
52879W        W21097  42.282  28.445   1.476
52880W        W21098  35.073   8.093   0.841
52881W        W21099  23.344  36.866  10.331
52882W        W21100  29.649  43.407  12.165
52883W        W21101   6.796  25.127   1.187
52884W        W21102  13.313  39.701  10.259
52885W        W21103   8.154  25.949   0.335
52886W        W21104   1.480   7.733   3.689
52887W        W21105  20.063  35.843   2.286
52888W        W21106  14.799  19.765  11.883
52889W        W21107  23.970  22.241   0.702
52890W        W21108  17.796  40.158  11.601
52891W        W21109  39.851  37.357  13.907
52892W        W21110  23.665  25.462  13.546
52893W        W21111  39.801   0.545  10.754
52894W        W21112  23.976  40.374   3.236
52895W        W21113  21.562  30.941  11.233
52896W        W21114  40.602   9.243   1.589
52897W        W21115  23.446  25.236   0.967
52898W        W21116   8.922  44.570  14.299
52899W        W21117  44.453  40.297  12.580
52900W        W21118  21.762  31.893   1.858
52901W        W21119   8.954  24.956  12.547
52902W        W21120   1.485  29.050  14.666
52903W        W21121  32.907  18.698  10.747
52904W        W21122  31.909  44.788  12.900
52905W        W21123  33.809   3.713  12.998
52906W        W21124  26.550  17.452   3.580
52907W        W21125   2.724  18.764   4.352
52908W        W21126  28.966   3.946  13.361
52909W        W21127  37.618  22.448   1.998
52910W        W21128   5.375  32.131  13.044
52911W        W21129  14.502  24.977  10.554
52912W        W21130   4.277  34.790  14.077
52913W        W21131  38.124  17.258   4.648
52914W        W21132  39.934  35.781  14.777
52915W        W21133  34.275  37.394  13.804
52916W        W21134  37.472  25.541  14.471
52917W        W21135  38.355  32.408  14.022
52918W        W21136  14.358  43.444   0.051
52919W        W21137  40.768  38.267   1.258
52920W        W21138   0.232  29.601   2.285
52921W        W21139  25.559   6.461   2.910
52922W        W21140   3.338  37.653  11.455
52923W        W21141  16.172  43.508   0.719
52924W        W21142   6.382  27.638   0.986
52925W        W21143  13.566  40.972   0.759
52926W        W21144   1.260   6.197   0.709
52927W        W21145  33.131  17.847  13.673
52928W        W21146  26.978  33.552   2.204
52929W        W21147  23.200  44.729  14.852
52930W        W21148   9.085  37.019  12.886
52931W        W21149  16.369  24.916   5.030
52932W        W21150  35.605  28.070  13.394
52933W        W21151  21.963  17.632   1.213
52934W        W21152   0.391  22.558  12.766
52935W        W21153  22.000  37.379  10.932
52936W        W21154  33.765  42.946  10.993
52937W        W21155  32.158  15.760  11.532
52938W        W21156   7.990  28.139  12.393
52939W        W21157  17.346  24.495  11.603
52940W        W21158  29.821  42.087  13.044
52941W        W21159   4.156  23.406  14.343
52942W        W21160  15.761   1.323   4.084
52943W        W21161  32.501   5.548   2.264
52944W        W21162   0.886   5.239   4.936
52945W        W21163  35.126   2.980   0.567
52946W        W21164  19.656   4.442   2.380
52947W        W21165  21.994   1.905  13.857
52948W        W21166  36.812   7.151  12.488
52949W        W21167  19.414  28.015   0.409
52950W        W21168  34.019  12.660   3.878
52951W        W21169  10.309   5.968   0.297
52952W        W21170  39.445  20.641  11.907
52953W        W21171  33.909  39.241  12.563
52954W        W21172  28.182  14.258   0.394
52955W        W21173  20.592  28.961   0.744
52956W        W21174  29.075  37.878   1.706
52957W        W21175  37.238  12.439   1.813
52958W        W21176   6.440  26.465   5.014
52959W        W21177  27.683   6.010  13.530
52960W        W21178   3.404  10.327   4.185
52961W        W21179  16.174  29.950   1.520
52962W        W21180   7.354  36.377   2.796
52963W        W21181  13.633  16.870   1.832
52964W        W21182   3.285  16.622  14.456
52965W        W21183  31.736  44.551   0.353
52966W        W21184  22.025   3.224  11.460
52967W        W21185   2.022  32.185  13.799
52968W        W21186  17.303   8.765  13.469
52969W        W21187  39.892  11.523   1.318
52970W        W21188  28.953  22.460   4.343
52971W        W21189  30.701  34.898  10.728
52972W        W21190  44.252   5.341  13.081
52973W        W21191  41.059  20.550   1.791
52974W        W21192   1.374  18.102  12.501
52975W        W21193  11.214  41.681   1.328
52976W        W21194  39.883  21.594   2.717
52977W        W21195   1.206  11.548  14.868
52978W        W21196  15.600  34.074  11.520
52979W        W21197  21.243  43.084   1.352
52980W        W21198  44.779   4.792   1.328
52981W        W21199  18.059   1.658   2.755
52982W        W21200   5.614  42.536   1.942
52983W        W21201  36.315  15.447  13.413
52984W        W21202  23.172   5.609  10.998
52985W        W21203   8.096   1.684  13.004
52986W        W21204  26.167  11.082   1.419
52987W        W21205   3.898  10.408   4.083
52988W        W21206   1.002  43.954  10.419
52989W        W21207  28.516   2.323  12.301
52990W        W21208  17.380   1.058   1.822
52991W        W21209  29.046  17.061  10.747
52992W        W21210   3.794   6.331   2.382
52993W        W21211  26.044   6.528  12.400
52994W        W21212  19.060  43.003  10.713
52995W        W21213  16.760  31.959   2.366
52996W        W21214  10.078  30.616  14.395
52997W        W21215  11.833  28.872  11.554
52998W        W21216  35.805   1.158   2.321
52999W        W21217  42.094  43.306   1.321
53000W        W21218  13.346  19.163  14.480
53001W        W21219  38.625  42.917   4.644
53002W        W21220   2.406  16.320   2.415
53003W        W21221  34.578   3.296  14.282
53004W        W21222  28.228  20.344  13.870
53005W        W21223   8.927  28.460  13.865
53006W        W21224   3.809   8.140   0.400
53007W        W21225   6.996  44.556  12.855
53008W        W21226  19.039   1.956   1.128
53009W        W21227   4.352  10.438  14.074
53010W        W21228   6.879  33.105   2.398
53011W        W21229  11.709  11.731  12.950
53012W        W21230  17.159  33.776   4.906
53013W        W21231   6.834  24.705   4.923
53014W        W21232  38.474  10.489   1.691
53015W        W21233  28.707  42.852   2.415
53016W        W21234  25.180  19.281   0.867
53017W        W21235   3.647  27.929   2.648
53018W        W21236  34.578  29.646  11.979
53019W        W21237  11.485  15.251  14.686
53020W        W21238  18.162  40.519  11.606
53021W        W21239   0.441  33.215   3.630
53022W        W21240  21.019  39.340   0.837
53023W        W21241  38.949  33.194   3.733
53024W        W21242   5.270  11.326  12.329
53025W        W21243  17.221   6.152  14.483
53026W        W21244  27.596  12.589  13.543
53027W        W21245   8.595  28.734  14.210
53028W        W21246  15.828  27.619  13.270
53029W        W21247  18.543  26.978  12.636
53030W        W21248  35.843  21.392  12.968
53031W        W21249  37.336  26.012   3.259
53032W        W21250   1.046   0.276  14.126
53033W        W21251  19.713  24.111   4.074
53034W        W21252  43.894  41.102  14.020
53035W        W21253  38.565  28.478  13.911
53036W        W21254  12.158   0.221  11.055
53037W        W21255  10.263  38.574   4.114
53038W        W21256  36.217  23.734  10.612
53039W        W21257  26.751  44.828   0.709
53040W        W21258  30.115   8.646   2.621
53041W        W21259  36.993  32.896  12.501
53042W        W21260  11.505  36.497  11.544
53043W        W21261  35.401  20.225  13.426
53044W        W21262  34.467   3.085   9.543
53045W        W21263  26.085  31.156   0.264
53046W        W21264   3.852  15.177   3.271
53047W        W21265  42.901  30.000   3.045
53048W        W21266  35.427   7.751   4.053
53049W        W21267   2.114  18.773  10.667
53050W        W21268  22.452  19.005  14.205
53051W        W21269  22.478  30.503   0.844
53052W        W21270  16.800  23.088  12.968
53053W        W21271  37.009  30.988   2.853
53054W        W21272  44.815  29.270  12.923
53055W        W21273  41.788   6.707  11.213
53056W        W21274  16.132  12.035  13.808
53057W        W21275  35.427  27.737   0.372
53058W        W21276  20.050  43.568  12.086
53059W        W21277  39.102  11.725  13.817
53060W        W21278   0.725  17.611   2.694
53061W        W21279  37.094  28.819   9.963
53062W        W21280  37.641   6.450   0.391
53063W        W21281   9.162   9.790  12.637
53064W        W21282  19.484  37.967  10.997
53065W        W21283  27.437  32.626   2.355
53066W        W21284  39.536  10.916   2.708
53067W        W21285  17.873  14.863   2.215
53068W        W21286   8.345  25.723  12.486
53069W        W21287  33.990  42.322  11.550
53070W        W21288  41.031   5.647  12.966
53071W        W21289  27.911   6.769  14.555
53072W        W21290  35.244  15.554   1.291
53073W        W21291  17.297  35.556   2.187
53074W        W21292  38.061  35.287   1.323
53075W        W21293  12.247   6.245   0.635
53076W        W21294  20.711  20.854   2.841
53077W        W21295  10.400  16.690  11.553
53078W        W21296  16.556  35.859   4.693
53079W        W21297   6.861   6.862  13.839
53080W        W21298   3.138  15.022   0.334
53081W        W21299  33.547   6.287  10.589
53082W        W21300   2.294   8.205  12.999
53083W        W21301  39.827  25.202  13.135
53084W        W21302   1.836  21.835  11.505
53085W        W21303   3.646  12.838   1.281
53086W        W21304   8.892  28.673  12.325
53087W        W21305  38.967  37.410   1.893
53088W        W21306  20.775  17.122   1.801
53089W        W21307  26.059  44.701   3.318
53090W        W21308   1.290  29.718   5.041
53091W        W21309  19.289  27.615   1.409
53092W        W21310  22.656  16.053  10.986
53093W        W21311  28.037  10.126   2.398
53094W        W21312  20.065   7.208   3.223
53095W        W21313  38.429  14.986   4.778
53096W        W21314   0.105   4.890  12.040
53097W        W21315  28.767   7.244   4.385
53098W        W21316  39.176  29.056   3.370
53099W        W21317  42.349   6.754   3.792
53100W        W21318  41.449   8.132   3.879
53101W        W21319  29.814  30.553  12.112
53102W        W21320  28.420  41.663  12.473
53103W        W21321   8.411  44.453   3.331
53104W        W21322   9.279  29.301   2.937
53105W        W21323  42.053  27.391  12.973
53106W        W21324   5.081  29.625  11.977
53107W        W21325  33.054  29.704  10.689
53108W        W21326  20.268   0.379  14.419
53109W        W21327  37.804  14.315  13.336
53110W        W21328  30.031   5.312   2.335
53111W        W21329   9.798  26.067  10.810
53112W        W21330  18.607   3.800  11.224
53113W        W21331  10.653   6.291  12.572
53114W        W21332  14.697   6.311  10.676
53115W        W21333  44.690  14.777  12.470
53116W        W21334  17.683  36.416   4.512
53117W        W21335  14.794  15.680   4.912
53118W        W21336  11.842   4.116  14.076
53119W        W21337  18.144  13.256   0.523
53120W        W21338  17.295  34.067  12.361
53121W        W21339  34.760  20.107   3.061
53122W        W21340   4.173   1.908   4.552
53123W        W21341  35.982   7.757   1.246
53124W        W21342   8.503  34.974  14.720
53125W        W21343  23.424  20.113   2.257
53126W        W21344  12.863  10.386   0.785
53127W        W21345   9.776  10.460   1.662
53128W        W21346  36.526  44.522  14.422
53129W        W21347  11.135  17.689   4.578
53130W        W21348  30.578  37.758  13.000
53131W        W21349  21.524  30.455   1.416
53132W        W21350  42.164  41.360  11.851
53133W        W21351  15.863  36.940   3.254
53134W        W21352   5.598  17.849   3.266
53135W        W21353  44.862  35.688   3.777
53136W        W21354  39.804  39.127   1.361
53137W        W21355  16.998  20.024  13.454
53138W        W21356  16.110  28.716   1.177
53139W        W21357  12.837   4.169  13.505
53140W        W21358  19.421  38.287  14.107
53141W        W21359  12.413  43.314  14.816
53142W        W21360  20.172  32.411  13.296
53143W        W21361  42.893  42.386   4.511
53144W        W21362  15.615  29.232   4.866
53145W        W21363  38.097  18.071  11.198
53146W        W21364  17.772   3.395   3.612
53147W        W21365   7.376   5.713  12.582
53148W        W21366  25.919  20.180   4.554
53149W        W21367   7.638   0.295   4.144
53150W        W21368   6.084  18.094   3.109
53151W        W21369   0.709  14.635  11.015
53152W        W21370  38.021   8.611  10.773
53153W        W21371  14.118   2.860  13.080
53154W        W21372  21.306  25.715  10.694
53155W        W21373  34.960  18.228  12.436
53156W        W21374   9.028  30.566  12.410
53157W        W21375   7.512  15.572  11.130
53158W        W21376   6.349  20.836   0.452
53159W        W21377  31.537  28.379   2.444
53160W        W21378  12.496  13.760  14.995
53161W        W21379  39.629   9.647  14.280
53162W        W21380  43.860  25.267   1.525
53163W        W21381  20.266  31.484  14.284
53164W        W21382  20.515  17.302  14.858
53165W        W21383  10.153  35.606   3.157
53166W        W21384  44.394  34.366   3.365
53167W        W21385  32.117  34.987  12.509
53168W        W21386  12.007  40.001  12.830
53169W        W21387   9.217  31.597   3.354
53170W        W21388  29.938  28.560  11.504
53171W        W21389  31.615  12.184   4.796
53172W        W21390  12.550  18.100  14.458
53173W        W21391  15.561   2.761  13.464
53174W        W21392   0.246  29.000  14.273
53175W        W21393   1.460   7.080   4.705
53176W        W21394  28.162   2.709   0.938
53177W        W21395  28.901  19.863   0.172
53178W        W21396  22.182  26.211  12.837
53179W        W21397  23.752   5.801   3.268
53180W        W21398   5.092  23.500   0.532
53181W        W21399  26.857  30.014  13.361
53182W        W21400   9.185  40.491   3.153
53183W        W21401  25.759   4.213   3.084
53184W        W21402   9.465  34.147   0.288
53185W        W21403  11.826  10.861   3.060
53186W        W21404   4.382  32.378   0.904
53187W        W21405   3.176  21.251   1.224
53188W        W21406  35.940  22.673  12.932
53189W        W21407  20.688  44.344  10.841
53190W        W21408  18.086  20.740   2.197
53191W        W21409   8.229  38.750   3.586
53192W        W21410  42.863  17.781   3.878
53193W        W21411  38.582  43.729   0.853
53194W        W21412  24.434  39.109  13.857
53195W        W21413  10.806  10.991  14.760
53196W        W21414   2.321  27.944   4.797
53197W        W21415  22.254   3.052   2.916
53198W        W21416  20.278  23.431   0.275
53199W        W21417  22.563  12.054   1.477
53200W        W21418  11.847  36.134   2.353
53201W        W21419  36.075  41.787   4.097
53202W        W21420  20.641   6.731  10.741
53203W        W21421  23.697  29.367  12.893
53204W        W21422  18.479   0.268  12.236
53205W        W21423   0.302  42.765  10.686
53206W        W21424  14.434  10.069   4.910
53207W        W21425   3.685   9.660   2.252
53208W        W21426  14.140  27.437   2.386
53209W        W21427  40.014   6.378   3.302
53210W        W21428   8.927  36.339  12.386
53211W        W21429  41.540  21.594   0.434
53212W        W21430  23.930   0.825  11.501
53213W        W21431  36.489  44.901  11.434
53214W        W21432   0.969  19.757  10.789
53215W        W21433  10.220  41.308   0.584
53216W        W21434  15.681  23.556  11.767
53217W        W21435  26.043  29.439   3.714
53218W        W21436  30.179   1.823  10.064
53219W        W21437  11.613  14.601   0.552
53220W        W21438  22.129  24.245   3.054
53221W        W21439  26.096  37.940   2.347
53222W        W21440  28.535  22.860   1.342
53223W        W21441  30.953  24.901  10.507
53224W        W21442  38.972  25.413   1.207
53225W        W21443  19.468  22.308  12.968
53226W        W21444  20.040  20.277   1.282
53227W        W21445  33.850  28.422   3.640
53228W        W21446  17.685  13.460   0.505
53229W        W21447   5.735  28.513  14.004
53230W        W21448  10.885  43.794  11.972
53231W        W21449   5.671  20.616  14.097
53232W        W21450  26.238  12.642   3.183
53233W        W21451  44.305  27.527  11.466
53234W        W21452   9.355  36.372  10.359
53235W        W21453  32.485  23.907   3.604
53236W        W21454   3.320   7.719   4.697
53237W        W21455  22.021  10.247  12.862
53238W        W21456  39.426  21.685  11.736
53239W        W21457  35.474  29.739  13.621
53240W        W21458  36.802   3.840   2.332
53241W        W21459  33.931  23.036  10.474
53242W        W21460  23.763  12.520  11.497
53243W        W21461   5.996  15.786  13.901
53244W        W21462  40.453  11.377  10.516
53245W        W21463  15.698  23.635  14.102
53246W        W21464  16.635  22.747  13.349
53247W        W21465  36.418  13.953   2.235
53248W        W21466   2.980   4.998   0.830
53249W        W21467  17.991  29.835   1.617
53250W        W21468  33.692  16.587   0.134
53251W        W21469  15.285  16.309   4.434
53252W        W21470   8.241   3.849  13.950
53253W        W21471  29.185   4.317  12.072
53254W        W21472  41.853  38.421   2.279
53255W        W21473   4.958  21.578   4.176
53256W        W21474  34.668   6.332   0.297
53257W        W21475  40.929  14.992  13.951
53258W        W21476  31.226  27.492  13.783
53259W        W21477  29.863   3.326  10.007
53260W        W21478  29.445  15.223  12.366
53261W        W21479  19.677  10.029   2.137
53262W        W21480  30.524  34.491   1.725
53263W        W21481  37.539  30.869   2.801
53264W        W21482   0.068  33.554  13.406
53265W        W21483  41.177  43.351   4.210
53266W        W21484  38.021  27.672   2.038
53267W        W21485  29.948  16.893  12.495
53268W        W21486   1.026  30.818   3.151
53269W        W21487  23.469   9.864  14.431
53270W        W21488  44.003  32.124   3.749
53271W        W21489  29.939  35.114   0.836
53272W        W21490   2.826  18.138   2.486
53273W        W21491  23.361  29.023   3.573
53274W        W21492  39.418  34.976   4.109
53275W        W21493   5.733   2.792   3.276
53276W        W21494  21.218  26.066  13.776
53277W        W21495  34.962  30.513  14.902
53278W        W21496  32.396   9.810  12.044
53279W        W21497  13.840  37.590  10.602
53280W        W21498  37.078   3.582  12.904
53281W        W21499   9.168  36.762   0.327
53282W        W21500  13.821   9.390   1.047
53283W        W21501  20.968  14.612  12.473
53284W        W21502  40.551  27.956  14.196
53285W        W21503   7.140  15.739  12.507
53286W        W21504  17.029  37.373  14.526
53287W        W21505  37.910  27.459   2.490
53288W        W21506  43.073  32.539  11.986
53289W        W21507  21.359  11.468   0.396
53290W        W21508  30.194  16.670  10.249
53291W        W21509  17.301  21.738  11.202
53292W        W21510  38.636  17.884  11.017
53293W        W21511  39.401  16.683  13.352
53294W        W21512   9.376   5.948  10.895
53295W        W21513  33.494  21.091  10.706
53296W        W21514  34.401  20.793   2.728
53297W        W21515   6.719  20.238   4.273
53298W        W21516  13.611   7.647   3.335
53299W        W21517  24.781   9.746   1.333
53300W        W21518   3.060  12.203   1.214
53301W        W21519   6.830   0.359   4.852
53302W        W21520  27.623   3.924   1.269
53303W        W21521   8.324  11.191  14.798
53304W        W21522  39.514  43.017  14.472
53305W        W21523  31.107  19.852  10.424
53306W        W21524  23.188  25.956   2.345
53307W        W21525  26.842   4.695   0.295
53308W        W21526   2.762  31.986  12.576
53309W        W21527  42.327  22.620  10.382
53310W        W21528  22.789  44.447   0.014
53311W        W21529   7.652  27.205  14.411
53312W        W21530  38.586  34.888  10.640
53313W        W21531   1.232  22.781  14.079
53314W        W21532  27.423  25.285  11.855
53315W        W21533   8.175   6.917  14.342
53316W        W21534  20.799  32.757   4.015
53317W        W21535  40.272  36.849   1.372
53318W        W21536  41.284  22.120  12.908
53319W        W21537  28.455  42.574   0.876
53320W        W21538  15.815   6.407   0.781
53321W        W21539   9.708  37.889   0.909
53322W        W21540  15.342   9.354   3.793
53323W        W21541  43.958  44.037   3.413
53324W        W21542   7.926   4.135   2.392
53325W        W21543  12.206  32.034  13.985
53326W        W21544   8.181   4.897  14.847
53327W        W21545   7.967  10.406   0.064
53328W        W21546  26.285  15.215  14.958
53329W        W21547   5.458   2.060  11.199
53330W        W21548  44.031  32.239   2.090
53331W        W21549  11.127  24.047   2.759
53332W        W21550  32.535  24.414   3.663
53333W        W21551  21.290  21.984  11.955
53334W        W21552  36.516  20.561   1.442
53335W        W21553   6.876  40.848   0.472
53336W        W21554  36.411  33.105  14.783
53337W        W21555  18.490  29.000  13.066
53338W        W21556  44.136  14.462  13.292
53339W        W21557  26.670  30.936  11.207
53340W        W21558  25.700  34.453  10.740
53341W        W21559   3.165  29.013   1.788
53342W        W21560  11.818  33.582  10.437
53343W        W21561  41.460  33.382  10.740
53344W        W21562  14.390  21.714   3.624
53345W        W21563  22.694  37.846   1.159
53346W        W21564  30.713  35.149   2.164
53347W        W21565   1.772  33.237   0.873
53348W        W21566  22.273  42.752   1.440
53349W        W21567  21.253   4.437  10.616
53350W        W21568  12.385  35.939  13.420
53351W        W21569  40.291   5.687   4.045
53352W        W21570  35.855  31.905   1.002
53353W        W21571  20.634  15.155   3.815
53354W        W21572  29.401  11.856   1.830
53355W        W21573  15.118  29.641   1.512
53356W        W21574  43.696   5.286   0.576
53357W        W21575  25.902   4.312   1.048
53358W        W21576  21.968  42.411  11.212
53359W        W21577  22.787  33.600   1.242
53360W        W21578  31.508   7.507   3.404
53361W        W21579  22.679   3.337  13.327
53362W        W21580  13.863   8.594   3.193
53363W        W21581  19.865   7.692  14.377
53364W        W21582  37.059  31.398  13.052
53365W        W21583  21.342  19.695  14.850
53366W        W21584  24.511  40.734  11.911
53367W        W21585   7.421  21.472   4.218
53368W        W21586  32.464   9.427  10.435
53369W        W21587  21.800  44.952  11.255
53370W        W21588  31.687  12.099  12.090
53371W        W21589  37.592   2.106   0.926
53372W        W21590  35.849   2.907  13.521
53373W        W21591   8.309  12.013   0.387
53374W        W21592   9.724  24.828  12.050
53375W        W21593  22.022  35.930  14.312
53376W        W21594   7.222  22.723   2.224
53377W        W21595   5.386   3.644  11.770
53378W        W21596  16.760  22.094   1.336
53379W        W21597  19.341   6.305   2.806
53380W        W21598  42.580  43.017  11.651
53381W        W21599  13.862  40.399   1.902
53382W        W21600  39.414  11.881  12.173
53383W        W21601  42.032  33.969  14.694
53384W        W21602  17.606  43.345   2.889
53385W        W21603  30.508  20.588  12.454
53386W        W21604  32.460  43.098   4.615
53387W        W21605  12.991  13.580  14.929
53388W        W21606  34.842   5.944  13.027
53389W        W21607   4.718  41.135  11.018
53390W        W21608  43.695   8.894   2.831
53391W        W21609   6.254  35.593   0.339
53392W        W21610  28.684  14.160  11.154
53393W        W21611  13.887  27.290  11.292
53394W        W21612  41.973  32.126  10.679
53395W        W21613  36.003  28.890  10.070
53396W        W21614  25.505  43.644   2.930
53397W        W21615  42.401  36.967  13.782
53398W        W21616  16.737  25.075   4.710
53399W        W21617  34.037  14.889  13.315
53400W        W21618  32.580  44.048   4.560
53401W        W21619  39.437  15.534   1.395
53402W        W21620  26.913  27.643   4.673
53403W        W21621  23.056   9.828   2.283
53404W        W21622   6.693  24.737   3.309
53405W        W21623  16.160   5.122   0.873
53406W        W21624  40.564  37.299   1.429
53407W        W21625  14.110  30.888  14.299
53408W        W21626   3.685  15.789  11.041
53409W        W21627   7.105  39.827   5.095
53410W        W21628  14.693   3.350  14.539
53411W        W21629  39.947  26.206   2.289
53412W        W21630   5.473   7.854   3.197
53413W        W21631  35.844  20.526  11.074
53414W        W21632  20.713  25.439  11.133
53415W        W21633   5.398  16.188  12.353
53416W        W21634  21.653  18.684   2.654
53417W        W21635  29.882   3.447  13.602
53418W        W21636  37.513   3.292  12.254
53419W        W21637   7.591  28.962   1.832
53420W        W21638  27.689  36.102   1.398
53421W        W21639  32.126  14.781  12.437
53422W        W21640  36.822   1.712   1.454
53423W        W21641  13.461  43.565   5.174
53424W        W21642  16.311  10.248   2.700
53425W        W21643  39.010   7.654  14.384
53426W        W21644   5.360   8.615   2.819
53427W        W21645  29.097  25.480  10.351
53428W        W21646  29.552  24.267  10.735
53429W        W21647  21.987  35.841   3.566
53430W        W21648   9.889  26.472   4.731
53431W        W21649  17.059  11.036  11.922
53432W        W21650  10.976  26.175  11.919
53433W        W21651   0.744   7.471  13.365
53434W        W21652   1.017   5.950   4.247
53435W        W21653   4.365  44.568  11.592
53436W        W21654  17.582  44.547   3.223
53437W        W21655  17.978   2.288  11.200
53438W        W21656  17.516  20.110  13.458
53439W        W21657  17.837  23.156  12.862
53440W        W21658  39.011   3.373   3.335
53441W        W21659  14.881   5.299  12.081
53442W        W21660  14.115  42.580  12.444
53443W        W21661  29.693  15.841   4.086
53444W        W21662  23.940  26.872   1.282
53445W        W21663  39.011  37.439   3.404
53446W        W21664  24.823  34.568  11.031
53447W        W21665  43.515  21.082  10.560
53448W        W21666  28.629  33.359   3.702
53449W        W21667  18.975  11.551   4.145
53450W        W21668  37.963  28.880  12.011
53451W        W21669  44.250  27.185  10.143
53452W        W21670  40.245  14.605   2.185
53453W        W21671  26.062  39.445  10.719
53454W        W21672  27.007   9.386  10.779
53455W        W21673   4.754  40.297  13.200
53456W        W21674  22.588  42.396   4.711
53457W        W21675  28.838  21.468  11.075
53458W        W21676  16.836   8.963  13.397
53459W        W21677  34.948  25.114  13.175
53460W        W21678   2.217  17.848  13.026
53461W        W21679   9.182  10.110  14.192
53462W        W21680  28.155   0.405   4.730
53463W        W21681   3.469  31.982   2.724
53464W        W21682  43.018  15.016  10.958
53465W        W21683   4.272  13.134   0.648
53466W        W21684   2.475  10.821  11.899
53467W        W21685  17.401  18.910   2.265
53468W        W21686  16.793  13.117   5.450
53469W        W21687  19.819  16.608   3.205
53470W        W21688  39.843   1.285  10.141
53471W        W21689  13.680  13.654  14.889
53472W        W21690  31.106  44.054  10.076
53473W        W21691  44.179  34.047   5.393
53474W        W21692  41.971  38.055  12.164
53475W        W21693  37.921  16.808   4.463
53476W        W21694  27.658   1.395  11.983
53477W        W21695  19.145  19.111  13.119
53478W        W21696  41.927  39.425  12.973
53479W        W21697  26.190  41.473   4.505
53480W        W21698  24.033  23.463   1.224
53481W        W21699  20.081  21.833   1.332
53482W        W21700  43.019   3.900   1.272
53483W        W21701   9.648   3.597   3.841
53484W        W21702  13.686  27.660   0.726
53485W        W21703  41.394   3.147  13.353
53486W        W21704   0.346  30.658  10.624
53487W        W21705  11.652   1.248   2.694
53488W        W21706  14.005  29.634   4.103
53489W        W21707  14.506  29.217  12.503
53490W        W21708  34.374  13.393  11.520
53491W        W21709  14.138  14.109  10.699
53492W        W21710   1.265   5.315   2.615
53493W        W21711   5.594  44.236  11.087
53494W        W21712  17.104  36.575   3.115
53495W        W21713  37.274  32.933  11.173
53496W        W21714  33.574   3.222  10.977
53497W        W21715  11.347  16.731   1.685
53498W        W21716  18.585   9.697  11.064
53499W        W21717  44.894   5.536   3.401
53500W        W21718  12.641  20.281  10.834
53501W        W21719  17.247  18.844   4.099
53502W        W21720  22.273  23.611   0.880
53503W        W21721  39.353  39.785   1.922
53504W        W21722   4.957  44.011  12.377
53505W        W21723  19.964  39.006  11.610
53506W        W21724  30.058  31.374  12.350
53507W        W21725  37.583  28.909   0.427
53508W        W21726  10.189  21.837  10.029
53509W        W21727  37.500  34.832   1.853
53510W        W21728  22.511  36.119   4.090
53511W        W21729  11.579   0.307   4.648
53512W        W21730  19.758  39.343   4.691
53513W        W21731  36.367  44.611   4.460
53514W        W21732   8.810   6.424   4.101
53515W        W21733  11.905  19.175  12.194
53516W        W21734  25.630  12.843   1.428
53517W        W21735  11.992  25.871  12.097
53518W        W21736  40.106  41.545  13.979
53519W        W21737   8.829  44.336  13.817
53520W        W21738  19.835  38.426   1.905
53521W        W21739   4.708  34.425   2.189
53522W        W21740   6.254  21.124   4.042
53523W        W21741  13.268  28.413  14.975
53524W        W21742  41.431  10.180   4.532
53525W        W21743  28.055  16.350   3.608
53526W        W21744  29.462  22.982   4.090
53527W        W21745  37.661  28.626   3.153
53528W        W21746  29.545  39.927   4.531
53529W        W21747  41.451  27.542  14.517
53530W        W21748   5.418  42.694  11.046
53531W        W21749  20.969   2.829   1.438
53532W        W21750  30.595  30.232   0.881
53533W        W21751  27.651   6.720  11.796
53534W        W21752   0.791  13.940   3.539
53535W        W21753  20.937  35.345  13.053
53536W        W21754  27.934  13.200  10.753
53537W        W21755   7.124   2.240  12.517
53538W        W21756  21.298  24.284   2.884
53539W        W21757  34.532   5.594   2.274
53540W        W21758  18.747  33.028   4.083
53541W        W21759   4.292  33.362  14.032
53542W        W21760   9.844  14.677   4.808
53543W        W21761  34.869   9.231  13.459
53544W        W21762  35.813  30.002   3.109
53545W        W21763   0.007  10.207  12.236
53546W        W21764  39.836  24.671   2.940
53547W        W21765  44.867   0.784  10.316
53548W        W21766  22.034  44.483  14.266
53549W        W21767  38.464   8.620   3.246
53550W        W21768  32.970   1.875  14.205
53551W        W21769  37.620  40.964  12.161
53552W        W21770  32.166  42.030   1.225
53553W        W21771  25.695  21.104  14.799
53554W        W21772  38.658  41.462   4.858
53555W        W21773   1.235  32.872   0.388
53556W        W21774  19.718   2.614  11.713
53557W        W21775  41.756  31.623  14.292
53558W        W21776  25.956  42.535  10.789
53559W        W21777   0.442  32.165   4.348
53560W        W21778   0.454  11.601  13.068
53561W        W21779  18.500  42.054   3.440
53562W        W21780  24.545  20.673  10.681
53563W        W21781  38.598  25.757   2.096
53564W        W21782   3.669  24.069   0.548
53565W        W21783  26.885  12.216   2.351
53566W        W21784  25.247  11.702  10.641
53567W        W21785  24.912  36.895  12.947
53568W        W21786  18.946   1.530  10.419
53569W        W21787  12.758  14.022   3.157
53570W        W21788  21.189   7.742  13.070
53571W        W21789  17.861  10.613  13.898
53572W        W21790   6.789  31.149   1.200
53573W        W21791  18.982   9.821   0.815
53574W        W21792  15.828  22.534   1.325
53575W        W21793  34.512  42.784   4.956
53576W        W21794  21.768  40.357  12.108
53577W        W21795  10.409  44.991  14.079
53578W        W21796  11.382  27.160  13.083
53579W        W21797  31.165  34.182  14.975
53580W        W21798  12.383  27.987  13.846
53581W        W21799   2.896  21.418  13.995
53582W        W21800  21.788   2.488   1.351
53583W        W21801  19.970  38.930   3.334
53584W        W21802   6.147   5.641   9.671
53585W        W21803   3.266  30.824  14.072
53586W        W21804  30.555  30.563   0.188
53587W        W21805   9.315  37.090  14.262
53588W        W21806  26.810  17.161   4.617
53589W        W21807  10.853  23.090  10.420
53590W        W21808  44.398  34.059   4.654
53591W        W21809  30.573  15.274   4.129
53592W        W21810   4.954   6.907  13.899
53593W        W21811   7.778  15.289   0.616
53594W        W21812  24.769  34.127   0.888
53595W        W21813  12.792  27.459   1.733
53596W        W21814  17.324  35.321  10.761
53597W        W21815   6.346  16.531  12.997
53598W        W21816  32.967  18.810   4.863
53599W        W21817  36.792  26.656  11.834
53600W        W21818  20.752  31.977   0.196
53601W        W21819  20.053  28.393   1.816
53602W        W21820  24.043  34.514   3.758
53603W        W21821  37.001  30.206  11.586
53604W        W21822   1.439  43.371   1.899
53605W        W21823  43.031  27.156   2.788
53606W        W21824  36.100  33.376   1.646
53607W        W21825  35.312  39.319  13.095
53608W        W21826  29.624  16.219   1.216
53609W        W21827  33.672  38.391  13.809
53610W        W21828  25.656  37.348  11.641
53611W        W21829  29.041  20.889   3.136
53612W        W21830  16.275  17.273  12.303
53613W        W21831  23.222  39.710   1.757
53614W        W21832   9.249  39.901  12.885
53615W        W21833   1.007  38.913   1.367
53616W        W21834  24.542  43.431   2.578
53617W        W21835  20.548  26.977  14.187
53618W        W21836  35.470  36.588  12.662
53619W        W21837  11.044  29.601   3.364
53620W        W21838   6.763  36.874  12.635
53621W        W21839  38.539  37.874   4.381
53622W        W21840  30.596  27.020  14.230
53623W        W21841  24.465  34.568   0.824
53624W        W21842  36.068   4.430  10.775
53625W        W21843  17.552  39.087   0.882
53626W        W21844  28.572  37.591   3.077
53627W        W21845  24.231  12.524  13.469
53628W        W21846  42.520   8.113  14.473
53629W        W21847  41.262  24.590   1.403
53630W        W21848  40.028   2.664  12.093
53631W        W21849  25.570  24.376  14.384
53632W        W21850  17.483  30.030   0.129
53633W        W21851  20.513  13.121   0.709
53634W        W21852   3.697  29.386   1.391
53635W        W21853  31.701  31.957   2.129
53636W        W21854  37.609  32.100   4.560
53637W        W21855  37.567  16.685  12.472
53638W        W21856  40.165  28.782   0.507
53639W        W21857  17.140  11.327  12.793
53640W        W21858  42.531  16.765   0.121
53641W        W21859  32.330  41.735   4.257
53642W        W21860  34.991  37.037   0.846
53643W        W21861  14.282   0.312   4.263
53644W        W21862   8.177  34.573  13.302
53645W        W21863  34.473  25.587  11.986
53646W        W21864  24.185   4.506  13.418
53647W        W21865  32.564  19.860   0.075
53648W        W21866   6.062  21.776   2.667
53649W        W21867  36.707  13.341  11.123
53650W        W21868  24.715   7.763   4.668
53651W        W21869  23.895  27.598  14.408
53652W        W21870   2.637  41.932  12.524
53653W        W21871  30.789  20.695   3.496
53654W        W21872  29.321   5.547  14.964
53655W        W21873  12.142  42.745  13.484
53656W        W21874  24.069  10.965   3.283
53657W        W21875  33.625  16.693   4.602
53658W        W21876   1.961  14.812   2.867
53659W        W21877  34.471   7.924  14.548
53660W        W21878  42.718  21.793  14.124
53661W        W21879  36.977  26.192   0.527
53662W        W21880   9.709  18.678  12.467
53663W        W21881  35.365  12.400  13.385
53664W        W21882  11.858  23.737   0.811
53665W        W21883   2.958  14.714   2.176
53666W        W21884   3.372  14.314  14.966
53667W        W21885  11.673   2.884   4.412
53668W        W21886  23.120  15.595   4.252
53669W        W21887  29.716   8.694  12.475
53670W        W21888  36.567  36.107  13.156
53671W        W21889  41.545  26.496   1.990
53672W        W21890   6.306  23.238  11.017
53673W        W21891  30.617   5.606  10.573
53674W        W21892  35.515  19.597  12.040
53675W        W21893  34.127   2.241   2.291
53676W        W21894  39.405  30.500   4.546
53677W        W21895   9.238  23.866  11.108
53678W        W21896  36.635  15.331   4.112
53679W        W21897  24.878  26.684   0.146
53680W        W21898  20.537  38.066   3.266
53681W        W21899  42.695  18.362   4.852
53682W        W21900  41.602  35.417  11.657
53683W        W21901   1.747  10.850   2.701
53684W        W21902  34.973  30.876   1.398
53685W        W21903  41.072   6.893  10.703
53686W        W21904  12.281  43.489   0.878
53687W        W21905  27.556  15.622   2.374
53688W        W21906   2.696   8.880   0.344
53689W        W21907  30.430  40.115  14.289
53690W        W21908   1.486  19.555   3.912
53691W        W21909  28.976   6.348   4.609
53692W        W21910  21.298  36.002   1.920
53693W        W21911  40.843  33.834   0.850
53694W        W21912  24.663  16.981   0.933
53695W        W21913  14.579  15.680  11.494
53696W        W21914  28.182  43.880   4.009
53697W        W21915  14.722  30.476  12.659
53698W        W21916   4.900  32.077  12.037
53699W        W21917  31.619  15.946   4.942
53700W        W21918  40.580  12.199   2.683
53701W        W21919  39.039  27.769  12.998
53702W        W21920  17.498  33.534   3.539
53703W        W21921  31.926   7.923   1.503
53704W        W21922  40.728  17.371  10.775
53705W        W21923  24.514  37.826   1.399
53706W        W21924  10.669  13.679  14.828
53707W        W21925  42.925  22.332   4.609
53708W        W21926   4.415   4.237   1.200
53709W        W21927  40.864  31.351  12.631
53710W        W21928   2.253  18.778   2.170
53711W        W21929  25.518  27.423   2.962
53712W        W21930  32.514  30.358  13.455
53713W        W21931  27.818  29.277   5.083
53714W        W21932  23.653  25.457   3.144
53715W        W21933   2.853   1.402   0.922
53716W        W21934  43.420  35.388  11.784
53717W        W21935  11.650  10.228   1.807
53718W        W21936  21.775  43.401  13.890
53719W        W21937  33.564   4.546  11.204
53720W        W21938   1.778  24.571  13.468
53721W        W21939   9.434  35.416  12.410
53722W        W21940  25.192  24.619   3.964
53723W        W21941  17.624  13.351  11.067
53724W        W21942  42.474  12.467  10.612
53725W        W21943  16.105  24.132   2.358
53726W        W21944   3.268  44.865  12.792
53727W        W21945  39.011  38.496   3.572
53728W        W21946  16.820  24.636  10.738
53729W        W21947  40.416   3.159  10.936
53730W        W21948  35.868  28.508  12.569
53731W        W21949  18.292  22.699  11.607
53732W        W21950  38.040  20.624  11.267
53733W        W21951   5.476  33.395   3.324
53734W        W21952  22.954   3.523  11.588
53735W        W21953  14.208  43.312   2.660
53736W        W21954  35.864  34.780   3.639
53737W        W21955  41.305  24.160  11.667
53738W        W21956  34.939  20.250  11.986
53739W        W21957  15.575   0.362  13.847
53740W        W21958  31.937   2.353  10.172
53741W        W21959  40.448   9.846   0.980
53742W        W21960  10.047  19.029   3.731
53743W        W21961  15.310  13.652  13.506
53744W        W21962  12.131  18.102  13.595
53745W        W21963  11.831  18.138   2.764
53746W        W21964  13.146  16.797   4.449
53747W        W21965   8.775  34.801   0.243
53748W        W21966  43.486  27.186   4.134
53749W        W21967  36.584  40.054   2.785
53750W        W21968  31.006  40.587   2.650
53751W        W21969  31.433  27.645  13.324
53752W        W21970  14.763  31.109  14.042
53753W        W21971  22.595   2.889   4.567
53754W        W21972  33.974  36.939  13.009
53755W        W21973  25.403   8.322   5.009
53756W        W21974  19.274  25.488   3.887
53757W        W21975  23.198  16.165   4.640
53758W        W21976  20.581  17.383   1.376
53759W        W21977  34.562  15.263  12.877
53760W        W21978  27.044  10.306  13.962
53761W        W21979  36.526  14.073   3.577
53762W        W21980  10.759   4.944  14.802
53763W        W21981  35.337  14.077   4.215
53764W        W21982  41.342  25.100  11.415
53765W        W21983  30.992  30.431  14.944
53766W        W21984  42.865  27.693   0.927
53767W        W21985  31.757  16.200   3.568
53768W        W21986  25.199  43.665   0.807
53769W        W21987  18.701  20.168   2.413
53770W        W21988  26.128  39.413  13.608
53771W        W21989  30.698  29.076  10.702
53772W        W21990  29.410  36.367   0.546
53773W        W21991  36.052  36.651   1.314
53774W        W21992  16.026  18.541  14.477
53775W        W21993  33.951  36.074  10.770
53776W        W21994  15.800  14.714   1.325
53777W        W21995  29.472  13.185   3.656
53778W        W21996  33.310  12.660  10.781
53779W        W21997  10.404  30.618  10.692
53780W        W21998  24.425  22.938   4.593
53781W        W21999  15.005  29.026  11.254
53782W        W22000  32.605  26.473  10.704
53783W        W22001  31.086  38.133   0.294
53784W        W22002   3.918   0.387   4.650
53785W        W22003  11.245  43.365   2.830
53786W        W22004  36.106  11.814   1.454
53787W        W22005  37.920  31.693   4.694
53788W        W22006  29.518  40.359  13.889
53789W        W22007  10.843  44.842   0.348
53790W        W22008   6.377  12.158   3.181
53791W        W22009   8.789  27.010   1.734
53792W        W22010  36.075  10.640  13.505
53793W        W22011  44.336  28.037   3.749
53794W        W22012  44.321  39.067  14.921
53795W        W22013   3.035  24.115  12.645
53796W        W22014  32.199  36.493   1.991
53797W        W22015  13.145  31.836   4.494
53798W        W22016  33.818   0.915  14.407
53799W        W22017   0.174  31.152  12.967
53800W        W22018  21.955  31.534  10.665
53801W        W22019  38.904   4.843  10.521
53802W        W22020   2.230  15.275  10.611
53803W        W22021  21.827  31.783   5.159
53804W        W22022  36.515   1.216  13.124
53805W        W22023  13.725  43.072   1.230
53806W        W22024  44.799  20.555   3.700
53807W        W22025  40.302  24.343   0.775
53808W        W22026  43.172  11.276  11.652
53809W        W22027  32.286   3.822  11.111
53810W        W22028  21.050  27.528   3.284
53811W        W22029  17.566  32.067  12.889
53812W        W22030  17.726   0.721  10.707
53813W        W22031  14.044  29.231  14.894
53814W        W22032   4.482   1.296  11.581
53815W        W22033   4.201  29.786   2.220
53816W        W22034   2.405  10.673  13.684
53817W        W22035  25.968  13.075   3.268
53818W        W22036  29.511  18.539   4.090
53819W        W22037  18.499  21.175  10.867
53820W        W22038  13.917  23.187  12.988
53821W        W22039  10.326  44.945  13.060
53822W        W22040   1.455  24.072   1.872
53823W        W22041  29.603  26.210  12.454
53824W        W22042   7.420   3.477   4.582
53825W        W22043  30.220  10.609   2.807
53826W        W22044  25.691   7.362   3.590
53827W        W22045  27.533  41.835  13.281
53828W        W22046  34.977  38.870  11.657
53829W        W22047  41.610   9.914  10.885
53830W        W22048  20.777   0.194   0.441
53831W        W22049  39.537  21.599   1.304
53832W        W22050  44.485  27.494  11.977
53833W        W22051  18.646  29.776   4.327
53834W        W22052  22.644  38.607  13.580
53835W        W22053  32.191  32.841   3.674
53836W        W22054  43.324  10.681  10.476
53837W        W22055  17.755  42.296  12.166
53838W        W22056   1.405  14.494   3.685
53839W        W22057  41.959  44.536   1.603
53840W        W22058  22.048  15.544  14.065
53841W        W22059  21.696   0.613   3.354
53842W        W22060  23.073   3.165  14.968
53843W        W22061  21.251  22.710  11.420
53844W        W22062  40.382  16.368  13.565
53845W        W22063  40.738  34.809   1.977
53846W        W22064  10.224   7.184  11.447
53847W        W22065  24.161  24.327  10.686
53848W        W22066  19.637   0.318   1.404
53849W        W22067  33.393  42.286   0.413
53850W        W22068  31.347  31.958   0.327
53851W        W22069  13.845  22.662  11.072
53852W        W22070  14.329  37.056  13.979
53853W        W22071  24.538  32.375  13.018
53854W        W22072  11.516  22.872   0.081
53855W        W22073   4.675  40.480   0.296
53856W        W22074  43.999  17.357  10.660
53857W        W22075  36.047   8.782   1.150
53858W        W22076  33.562  24.572   2.894
53859W        W22077  44.201  13.553   1.257
53860W        W22078  27.754  22.048   3.088
53861W        W22079  36.012  36.600   3.134
53862W        W22080  30.834  27.373   3.755
53863W        W22081  18.212  42.922   2.715
53864W        W22082  15.580  38.852  10.817
53865W        W22083  21.672  18.301   4.373
53866W        W22084   2.992  38.862   4.124
53867W        W22085  39.294  27.871  10.691
53868W        W22086  28.093  38.362   4.134
53869W        W22087  14.759   0.414   1.694
53870W        W22088  18.066  27.697   3.448
53871W        W22089   7.605   5.337   2.908
53872W        W22090  23.620  37.729   1.359
53873W        W22091   7.950   3.894   1.731
53874W        W22092   9.727  11.902  11.504
53875W        W22093   4.940  33.100   0.813
53876W        W22094  31.098  15.938   1.712
53877W        W22095  15.710   3.761   3.650
53878W        W22096  28.606  20.991  12.134
53879W        W22097  20.086  22.862   2.688
53880W        W22098  27.000  13.588  12.419
53881W        W22099  24.957  27.955   1.615
53882W        W22100  25.464  39.137  11.552
53883W        W22101  32.063  43.344  12.667
53884W        W22102  20.071  14.378  12.803
53885W        W22103  16.118  11.105  14.004
53886W        W22104  10.840  29.450   0.563
53887W        W22105   8.248  11.681   3.229
53888W        W22106  16.789  10.327  14.092
53889W        W22107  14.757  23.144   4.274
53890W        W22108   6.021   8.655   0.516
53891W        W22109  15.319   2.197   0.257
53892W        W22110  22.192  36.046   1.888
53893W        W22111  43.519  26.912  12.984
53894W        W22112  19.035  10.761  13.555
53895W        W22113  27.578   5.237  14.977
53896W        W22114  22.055  33.447  14.070
53897W        W22115   5.349  38.990   2.180
53898W        W22116  25.552   9.997  12.463
53899W        W22117  16.062  10.177   2.203
53900W        W22118   0.347  25.515  11.316
53901W        W22119  17.568  26.162  13.971
53902W        W22120  38.607  30.676   2.387
53903W        W22121   1.699  39.542  11.985
53904W        W22122  26.135  44.238  12.405
53905W        W22123  38.090   1.506   1.533
53906W        W22124  26.894  25.858  13.020
53907W        W22125  38.503  37.353  11.948
53908W        W22126   5.699   9.755   3.566
53909W        W22127  10.719  23.525  10.671
53910W        W22128  12.212  11.006  10.950
53911W        W22129  13.208   1.012  10.381
53912W        W22130  42.834  16.545  11.107
53913W        W22131  29.168  19.807  12.870
53914W        W22132  10.305  19.081   0.239
53915W        W22133   0.862  31.460  13.543
53916W        W22134  44.368  24.263  14.476
53917W        W22135  39.979  36.879  10.528
53918W        W22136  27.453  11.065   0.338
53919W        W22137  26.225  25.694   3.128
53920W        W22138  19.745  25.366  10.945
53921W        W22139  24.121  38.603   4.123
53922W        W22140  33.168  33.727   3.171
53923W        W22141   0.342  41.625  11.291
53924W        W22142  21.776  36.364   1.990
53925W        W22143  11.610  12.685   0.271
53926W        W22144  18.608  13.305  13.089
53927W        W22145  19.681  36.842  14.709
53928W        W22146  13.804   1.104  13.622
53929W        W22147  36.530   8.430   0.148
53930W        W22148  24.819  29.484   2.198
53931W        W22149  39.548  23.831  14.066
53932W        W22150  16.513   2.134  13.516
53933W        W22151  41.343  41.205   1.441
53934W        W22152   9.585  21.255   3.084
53935W        W22153   2.324  19.634   1.393
53936W        W22154  26.901   7.773  13.778
53937W        W22155  29.909  15.077  12.212
53938W        W22156  44.451  26.470  14.984
53939W        W22157  11.853  23.713  14.989
53940W        W22158  27.966  13.890  12.765
53941W        W22159   2.380  21.094   1.707
53942W        W22160   8.702  25.676   2.747
53943W        W22161  27.120  44.975  14.979
53944W        W22162  39.935  12.706   4.631
53945W        W22163  21.753   1.456  11.240
53946W        W22164   8.412  16.174   4.949
53947W        W22165  32.949  22.754  14.847
53948W        W22166   7.785  33.595   2.009
53949W        W22167  15.867   5.155   4.561
53950W        W22168  16.820   8.750  14.366
53951W        W22169  40.060  22.506   0.917
53952W        W22170  41.919  10.927  11.143
53953W        W22171  25.161   1.792   4.417
53954W        W22172  22.673  22.016  14.331
53955W        W22173   8.851  39.346   0.907
53956W        W22174  32.418  19.722  14.587
53957W        W22175  29.653  40.390   4.052
53958W        W22176  30.319  19.944   0.393
53959W        W22177  44.963  38.102   3.854
53960W        W22178   4.718  22.547   0.493
53961W        W22179  20.504  39.024  13.420
53962W        W22180   2.496   5.876  10.755
53963W        W22181   0.836  13.911   2.941
53964W        W22182  26.945  33.943   1.431
53965W        W22183  17.319   3.346   4.644
53966W        W22184  36.116  30.399  13.311
53967W        W22185  39.971  33.182   2.161
53968W        W22186  13.775  13.311   2.441
53969W        W22187  30.216  39.847  12.086
53970W        W22188  17.293  16.084  11.971
53971W        W22189  26.880  31.463   4.115
53972W        W22190   1.258   8.836   1.252
53973W        W22191  42.940   5.300  11.566
53974W        W22192   1.937   7.498   3.560
53975W        W22193   0.288   4.957   2.599
53976W        W22194  41.907  12.741   3.476
53977W        W22195  35.829  43.253   2.247
53978W        W22196   6.203  26.431   4.529
53979W        W22197   5.178  40.989   3.520
53980W        W22198  21.300  28.795  12.539
53981W        W22199  14.083  34.556  13.159
53982W        W22200  20.793  44.537  13.049
53983W        W22201  36.297  31.860   0.684
53984W        W22202  20.005  19.179   0.908
53985W        W22203  23.942   1.420  12.182
53986W        W22204  10.128  27.548   3.735
53987W        W22205  14.955   1.006  10.831
53988W        W22206  27.198  27.438   1.717
53989W        W22207   0.933  17.385   3.121
53990W        W22208  27.194   1.805  11.434
53991W        W22209  27.377  31.424   1.328
53992W        W22210  19.052  43.476   1.193
53993W        W22211  15.652  33.124  10.222
53994W        W22212  25.053  12.151   1.745
53995W        W22213  12.775  30.003  12.415
53996W        W22214  32.380  18.102   4.783
53997W        W22215   0.730  18.963  13.646
53998W        W22216   9.253  39.475  13.150
53999W        W22217  28.495  34.953   1.919
54000W        W22218  16.715  23.878   4.133
54001W        W22219   9.651  29.558   2.318
54002W        W22220  15.409  26.338   2.882
54003W        W22221  25.451  24.199   2.750
54004W        W22222  36.540  32.928   0.825
54005W        W22223  36.486  16.888  13.009
54006W        W22224   0.778  11.001   1.723
54007W        W22225  20.648  40.777  11.166
54008W        W22226  17.889  26.192  11.918
54009W        W22227  23.484  41.498   4.696
54010W        W22228  10.896  37.452  14.260
54011W        W22229  10.420   7.760  13.921
54012W        W22230  39.006   8.069   2.721
54013W        W22231  22.664  17.544  13.514
54014W        W22232  28.969   7.758   0.366
54015W        W22233   0.853  21.025  12.586
54016W        W22234  33.158  42.599  12.646
54017W        W22235  33.867   5.292   3.677
54018W        W22236  38.731  38.847   4.922
54019W        W22237  25.586   5.520   1.265
54020W        W22238  30.862  18.101   2.329
54021W        W22239   2.295   4.265  10.776
54022W        W22240  43.373  14.025   5.039
54023W        W22241  44.504  10.706   3.388
54024W        W22242  18.335  15.636  14.820
54025W        W22243   4.823  16.685  12.878
54026W        W22244  40.474  38.468  14.317
54027W        W22245  17.654  24.599   1.217
54028W        W22246  43.246   7.097   2.118
54029W        W22247   9.841   3.098  12.186
54030W        W22248  21.293  18.145  11.641
54031W        W22249  29.984  18.155   1.867
54032W        W22250   1.252  16.731   2.728
54033W        W22251  24.491  36.839   4.906
54034W        W22252  25.826   8.578   3.697
54035W        W22253   1.282   5.636  14.831
54036W        W22254  36.454   6.330   1.130
54037W        W22255   9.774   8.944  14.563
54038W        W22256  15.868  38.457  10.681
54039W        W22257   6.529  26.232  11.245
54040W        W22258   7.702  14.809  14.793
54041W        W22259  21.043   8.581   1.462
54042W        W22260  23.297  32.722   0.910
54043W        W22261  32.011  34.502   0.154
54044W        W22262   7.236  10.261  13.532
54045W        W22263   5.320  43.082   4.686
54046W        W22264  24.692  17.053   1.898
54047W        W22265  15.551  21.796   1.611
54048W        W22266  43.709   1.029   2.284
54049W        W22267  40.610  41.472  13.918
54050W        W22268  23.566  16.252   1.304
54051W        W22269   5.964  18.543  10.259
54052W        W22270  43.993  22.938   4.103
54053W        W22271   3.687  40.412   0.997
54054W        W22272  43.027  37.079  14.759
54055W        W22273   0.285  17.576   4.319
54056W        W22274  18.068  23.989  12.817
54057W        W22275  40.055  13.304  11.854
54058W        W22276  42.556  17.480  11.893
54059W        W22277  39.257   6.309  12.995
54060W        W22278  15.620   4.253  12.797
54061W        W22279  43.861  25.144   1.011
54062W        W22280  22.111  36.013  12.585
54063W        W22281  44.806  28.422  10.643
54064W        W22282  32.278  11.925  12.536
54065W        W22283  28.927  24.970   0.602
54066W        W22284  22.153  22.006  14.115
54067W        W22285  38.388  24.167   3.611
54068W        W22286  31.361  16.256  13.914
54069W        W22287   1.002  16.180   3.123
54070W        W22288  40.430  39.567   3.673
54071W        W22289  14.328  27.863  14.588
54072W        W22290  42.252  30.657   4.124
54073W        W22291  11.810  15.259   4.188
54074W        W22292   0.442  17.152  13.057
54075W        W22293  27.245  12.433   1.476
54076W        W22294  39.868  31.682  14.886
54077W        W22295   6.566  21.359  14.867
54078W        W22296  23.560  22.721   1.895
54079W        W22297  19.386  13.460  11.681
54080W        W22298  35.079  11.045  13.225
54081W        W22299   7.418  18.751   0.786
54082W        W22300  25.754   1.500   2.275
54083W        W22301  25.655  36.981   0.505
54084W        W22302  21.605  10.608  12.156
54085W        W22303  20.227  16.148  12.027
54086W        W22304   9.784  44.317  12.507
54087W        W22305  36.917  12.633   2.178
54088W        W22306  36.948   0.473   0.747
54089W        W22307  38.382  38.443   2.333
54090W        W22308  34.858  39.214  12.020
54091W        W22309  29.739   9.236   1.955
54092W        W22310  15.137   1.151  10.177
54093W        W22311  16.413  21.252   4.270
54094W        W22312  22.220  18.471  11.264
54095W        W22313  29.574  42.598   1.597
54096W        W22314   3.108  16.372   4.287
54097W        W22315  22.965  25.317  11.136
54098W        W22316   1.226  11.703   2.976
54099W        W22317  14.345  28.266   0.784
54100W        W22318  43.600  31.604  11.028
54101W        W22319  32.645  32.447  14.859
54102W        W22320  16.911  28.543   3.963
54103W        W22321  43.232  23.480   1.713
54104W        W22322  17.058   9.621  11.161
54105W        W22323  11.243   6.969  11.024
54106W        W22324  24.240  42.805  14.245
54107W        W22325  19.747   5.329   0.539
54108W        W22326   3.690  22.356   3.427
54109W        W22327  15.155   2.807   2.185
54110W        W22328  36.944   9.124  12.731
54111W        W22329  19.221  12.718  11.130
54112W        W22330   5.263  11.591   4.538
54113W        W22331  16.924  28.416  11.531
54114W        W22332  43.565  16.758  12.448
54115W        W22333  10.657   7.271   0.876
54116W        W22334   2.384   0.310   1.432
54117W        W22335  22.523  19.820  12.497
54118W        W22336  31.928  38.337  13.882
54119W        W22337  11.538   5.453   0.849
54120W        W22338  41.593   5.232   2.702
54121W        W22339   9.622  18.189   4.545
54122W        W22340  19.781  42.777   3.149
54123W        W22341  24.540   4.729  11.232
54124W        W22342  31.685  12.705   1.499
54125W        W22343  26.420   6.106   1.298
54126W        W22344  27.162  29.634  13.544
54127W        W22345  35.464  31.891   2.832
54128W        W22346  43.796  38.439   3.178
54129W        W22347  24.081  43.578  14.899
54130W        W22348  39.679  37.963   0.410
54131W        W22349  29.563   5.384  11.284
54132W        W22350  32.541  14.456  13.339
54133W        W22351  25.490  15.739   2.869
54134W        W22352  43.815  24.948  13.405
54135W        W22353  10.236  44.432   2.923
54136W        W22354  36.948  33.493   4.412
54137W        W22355  34.870  29.939  13.920
54138W        W22356  35.405  35.112   3.671
54139W        W22357  24.505  34.647   2.913
54140W        W22358   5.058  20.593   0.008
54141W        W22359  38.126   6.801  12.204
54142W        W22360  36.791  23.152  12.062
54143W        W22361   4.782  14.194   3.534
54144W        W22362   1.474  13.826  14.201
54145W        W22363  42.459  43.944  12.410
54146W        W22364  12.125  11.213  14.496
54147W        W22365  10.073  35.911  13.122
54148W        W22366   6.322  44.231   3.321
54149W        W22367  11.780  27.644   4.220
54150W        W22368  21.970  15.607   1.384
54151W        W22369  29.600  37.048   1.359
54152W        W22370  29.213   9.640  12.591
54153W        W22371  25.113  29.629  11.358
54154W        W22372  21.120  26.394  14.153
54155W        W22373  19.683   3.955  11.972
54156W        W22374  25.509   5.224  10.632
54157W        W22375  31.561  24.689  11.617
54158W        W22376  43.377  40.799  10.353
54159W        W22377  41.622   7.246   1.359
54160W        W22378   1.329  24.796  14.966
54161W        W22379   2.567  21.804   3.946
54162W        W22380  34.239  24.274  14.502
54163W        W22381  40.030   1.763  13.376
54164W        W22382  39.150  11.363  12.184
54165W        W22383  41.319  15.333   3.699
54166W        W22384  23.109  18.326  10.574
54167W        W22385  16.079  14.853   3.484
54168W        W22386   6.921  13.563   1.426
54169W        W22387   7.673   7.816   4.776
54170W        W22388  28.905   1.461  14.804
54171W        W22389  26.522   9.122  12.937
54172W        W22390  31.080  25.617   2.372
54173W        W22391  35.176  11.819   1.298
54174W        W22392  29.442  14.491   3.666
54175W        W22393  42.554  27.245  12.967
54176W        W22394  26.630  20.859   0.988
54177W        W22395  21.243  19.788  12.973
54178W        W22396  16.572   5.838  10.741
54179W        W22397   1.287  15.564   2.697
54180W        W22398  16.742   8.482   4.616
54181W        W22399  28.661  34.872   1.402
54182W        W22400  40.817  36.088   4.146
54183W        W22401  14.133  33.523   1.494
54184W        W22402   9.595  40.252   3.388
54185W        W22403  11.541  29.456   2.474
54186W        W22404   9.170  23.593   0.347
54187W        W22405  26.457  15.848   4.324
54188W        W22406  23.021   9.394  12.007
54189W        W22407   4.857  22.272  12.575
54190W        W22408  22.683   6.422   3.842
54191W        W22409  23.015   5.229  14.717
54192W        W22410  40.873  18.300   3.278
54193W        W22411  39.362  29.621   3.260
54194W        W22412  42.388  38.069  10.651
54195W        W22413  33.172  42.225  14.416
54196W        W22414  42.973  25.922  11.537
54197W        W22415   5.498   4.874   2.077
54198W        W22416  29.534   5.513  12.254
54199W        W22417  17.766  10.279   3.848
54200W        W22418  27.996  13.306   1.986
54201W        W22419  29.653  21.790  12.343
54202W        W22420  28.122  43.754   0.432
54203W        W22421  17.864  20.654  14.833
54204W        W22422   4.855  26.802  11.662
54205W        W22423   1.090  21.719   1.786
54206W        W22424   1.413  20.549   0.889
54207W        W22425  15.138  11.326  14.043
54208W        W22426  23.447   4.694   0.377
54209W        W22427  18.766  15.313   1.819
54210W        W22428  18.686  13.336   3.711
54211W        W22429   2.962  36.066  10.587
54212W        W22430  17.138   6.453   3.213
54213W        W22431  28.094   1.760  11.521
54214W        W22432  43.527  14.621   1.804
54215W        W22433  29.965  18.668  10.450
54216W        W22434   4.836  35.997  10.889
54217W        W22435  12.112  33.349  11.420
54218W        W22436   9.180  31.019  13.117
54219W        W22437   3.407  27.726  11.990
54220W        W22438  15.914  30.582   2.236
54221W        W22439  14.187  17.262  14.540
54222W        W22440  41.399  15.219  10.757
54223W        W22441  44.842   6.436  10.070
54224W        W22442  23.526  34.413   3.745
54225W        W22443  19.135   8.515   3.790
54226W        W22444  10.485  19.466  10.766
54227W        W22445  31.828  22.662  11.332
54228W        W22446  23.989  16.867  14.211
54229W        W22447   5.877  32.294   3.617
54230W        W22448  44.021  13.740   0.408
54231W        W22449  32.025  26.471   4.913
54232W        W22450  37.550  15.208   2.906
54233W        W22451   0.742  28.907  14.465
54234W        W22452  29.942  40.268   4.459
54235W        W22453  17.280  10.188   3.670
54236W        W22454  22.501  42.362  10.344
54237W        W22455   0.474  29.892   4.451
54238W        W22456  28.376   4.193   3.251
54239W        W22457  21.222  18.831   0.220
54240W        W22458   5.311  12.774  12.090
54241W        W22459  41.058   3.008   0.850
54242W        W22460  29.632  29.077  12.554
54243W        W22461  25.185  24.326   4.928
54244W        W22462  35.437  21.992  11.422
54245W        W22463  19.688   8.728   2.946
54246W        W22464  11.782  35.042   2.956
54247W        W22465  32.916  22.048   0.502
54248W        W22466   8.635  17.394  12.969
54249W        W22467  38.670  21.239   3.461
54250W        W22468  29.617  36.022  12.499
54251W        W22469   2.375  13.290   4.647
54252W        W22470  28.790  15.819  10.737
54253W        W22471  43.273   6.234   0.937
54254W        W22472   5.841   2.026  10.865
54255W        W22473   2.379  24.466   1.641
54256W        W22474   9.948   0.808  10.674
54257W        W22475  21.274  27.192  13.022
54258W        W22476  25.115  44.199   2.170
54259W        W22477  22.250  12.446  14.746
54260W        W22478  10.890   0.144  14.739
54261W        W22479  39.989  43.586  13.317
54262W        W22480   4.481  36.167  10.165
54263W        W22481  20.268  19.357   2.181
54264W        W22482  11.303  16.331  13.888
54265W        W22483   5.631  34.863  10.752
54266W        W22484  15.335  32.483  11.431
54267W        W22485   0.507  18.754   3.680
54268W        W22486  36.069   4.677   2.036
54269W        W22487  27.695   5.936   3.321
54270W        W22488  27.140  25.025   1.456
54271W        W22489  27.977   0.847  14.544
54272W        W22490   2.279  31.965   1.243
54273W        W22491   5.302  40.205   0.854
54274W        W22492   0.644   9.741  11.680
54275W        W22493  12.598  21.432   2.384
54276W        W22494   1.785   7.800  13.632
54277W        W22495  36.912  21.468   0.870
54278W        W22496  29.990  14.702  13.019
54279W        W22497  13.854  21.234   1.651
54280W        W22498  29.086  30.204   0.771
54281W        W22499   1.909  19.785   0.900
54282W        W22500  23.807   5.949   4.610
54283W        W22501  20.793  26.703   0.011
54284W        W22502  20.558  17.835   4.181
54285W        W22503  41.974  27.220  14.266
54286W        W22504  36.020  31.240  12.974
54287W        W22505  19.572  34.537   0.461
54288W        W22506   5.951  10.967  13.509
54289W        W22507  31.047  10.677   0.924
54290W        W22508  34.360  39.931  12.130
54291W        W22509  29.199  27.138  12.427
54292W        W22510   5.110  14.601   4.450
54293W        W22511  42.583  29.096   0.410
54294W        W22512   6.673  41.241  13.332
54295W        W22513   7.313  31.731  10.788
54296W        W22514  38.284  33.540  12.626
54297W        W22515  24.157   8.856  12.099
54298W        W22516  35.191   1.100   1.566
54299W        W22517  33.436   6.495  11.047
54300W        W22518  34.315  11.009  13.367
54301W        W22519  33.827  13.633  13.881
54302W        W22520  27.506  38.501   0.766
54303W        W22521  42.898  38.046  11.564
54304W        W22522  37.523  36.517   2.372
54305W        W22523  11.709  21.512   4.723
54306W        W22524  25.911  16.404  14.316
54307W        W22525  23.990  33.006  11.516
54308W        W22526  42.594  10.172  11.944
54309W        W22527   8.629  25.239   0.830
54310W        W22528  40.609  32.596   2.398
54311W        W22529  27.953  27.216   4.139
54312W        W22530  30.736  10.147   3.249
54313W        W22531  24.595  12.422   1.643
54314W        W22532  20.017   0.912  12.025
54315W        W22533  33.095  17.703   0.359
54316W        W22534  11.292   2.246   4.668
54317W        W22535  25.174  20.607   1.768
54318W        W22536  24.233  18.886   1.829
54319W        W22537   0.935  34.476   3.053
54320W        W22538  13.816  33.937  14.882
54321W        W22539   0.578  31.504  13.043
54322W        W22540  25.278  39.237   4.417
54323W        W22541  31.988  29.705  11.351
54324W        W22542  37.444  19.023  14.465
54325W        W22543  13.578   4.761   0.485
54326W        W22544  13.310  20.287  12.035
54327W        W22545  24.862  35.062  14.044
54328W        W22546  18.987  24.970  11.202
54329W        W22547  32.179  22.462  13.833
54330W        W22548  10.303   4.753   4.031
54331W        W22549  20.333   7.818   1.681
54332W        W22550   5.669  31.704  12.425
54333W        W22551  21.482   6.498  11.301
54334W        W22552   6.716   8.728   1.447
54335W        W22553  13.450  12.704   3.900
54336W        W22554  15.225  16.834   4.403
54337W        W22555   6.652  16.640  12.430
54338W        W22556  27.974  11.806  14.331
54339W        W22557  15.012  42.457  14.375
54340W        W22558  32.475  26.125  12.849
54341W        W22559   0.633   2.049   0.024
54342W        W22560   1.747   5.847   1.218
54343W        W22561  23.781  38.905   3.799
54344W        W22562  12.241  24.638   4.240
54345W        W22563  18.945  15.197   2.862
54346W        W22564  20.241  40.939  14.270
54347W        W22565  22.785  44.614   3.246
54348W        W22566  13.381  41.851   3.743
54349W        W22567  18.573  12.127  14.717
54350W        W22568  26.700  32.796   0.904
54351W        W22569  16.066  19.546  14.382
54352W        W22570  34.968  39.190   4.220
54353W        W22571  42.284  31.105   3.463
54354W        W22572  44.438  18.772  13.356
54355W        W22573  18.095  12.342  12.988
54356W        W22574   0.833   2.241   0.484
54357W        W22575   6.805  37.775   3.291
54358W        W22576   9.413  37.594   0.595
54359W        W22577  29.200  41.009  12.111
54360W        W22578  29.253   0.480   4.125
54361W        W22579  26.285  20.243   1.604
54362W        W22580  18.091  18.194  10.658
54363W        W22581  39.402  10.200   0.055
54364W        W22582   6.450  29.895  10.546
54365W        W22583   7.547  13.668   3.630
54366W        W22584   2.912  35.108   3.684
54367W        W22585  31.437   3.378  10.932
54368W        W22586  34.524  17.891   2.068
54369W        W22587  31.070  37.191   2.183
54370W        W22588  28.813  36.281  11.097
54371W        W22589   0.480   8.840   2.002
54372W        W22590  24.937   4.770  13.961
54373W        W22591  27.985   0.476   2.925
54374W        W22592   5.640   3.890   0.067
54375W        W22593  13.698  27.002  11.713
54376W        W22594  14.699  40.759   0.552
54377W        W22595   7.939  38.436  11.438
54378W        W22596  18.110  33.048   0.663
54379W        W22597  40.083   7.244   3.693
54380W        W22598   7.391  21.758  11.459
54381W        W22599   0.140  10.824   0.704
54382W        W22600   9.748  37.134   3.867
54383W        W22601  24.954  11.308  14.308
54384W        W22602  26.123   6.806  11.399
54385W        W22603  16.559   3.404  12.056
54386W        W22604   2.419   5.721   3.952
54387W        W22605  40.943   9.190  13.115
54388W        W22606  40.877  12.397   0.903
54389W        W22607  35.787  43.527   3.772
54390W        W22608  23.043  21.844  11.775
54391W        W22609  40.155   1.742  14.447
54392W        W22610   4.990  15.548  13.973
54393W        W22611   8.165  16.915  12.061
54394W        W22612  25.464  32.151  13.798
54395W        W22613  16.637  11.101   3.692
54396W        W22614  25.146  32.919  12.122
54397W        W22615   8.335  31.338   3.389
54398W        W22616  17.214  41.022   4.888
54399W        W22617  34.085   2.329  14.732
54400W        W22618   3.872  13.716   1.683
54401W        W22619  44.820   3.873   0.280
54402W        W22620  41.043  34.461   3.161
54403W        W22621  32.444  43.366   0.215
54404W        W22622  43.133  15.246  10.508
54405W        W22623  19.160  37.938   2.822
54406W        W22624  10.671  10.065  13.012
54407W        W22625  30.704  32.075   2.277
54408W        W22626  31.990   8.199  14.321
54409W        W22627  21.271  17.732  14.771
54410W        W22628   4.724  12.262   0.400
54411W        W22629  40.954  12.001   1.255
54412W        W22630  17.597  43.439   3.395
54413W        W22631   5.952  10.192   0.735
54414W        W22632   2.375  31.347  14.895
54415W        W22633  34.223   9.132   1.298
54416W        W22634  26.732  21.640  10.992
54417W        W22635  32.378  20.990   1.880
54418W        W22636  29.393   4.898  12.978
54419W        W22637   7.821  17.871  14.068
54420W        W22638   1.816  20.408  10.500
54421W        W22639  42.607  24.172   4.552
54422W        W22640  28.992  25.643   0.896
54423W        W22641  42.316  43.516  13.629
54424W        W22642  44.360   1.854   2.295
54425W        W22643  17.019  24.025   1.490
54426W        W22644  36.643  28.609   3.154
54427W        W22645  43.994  11.396   4.564
54428W        W22646  23.670  27.462   4.666
54429W        W22647   1.366  12.234  13.828
54430W        W22648  14.663  20.177   4.765
54431W        W22649   3.964  26.705  11.567
54432W        W22650   8.977   5.760   1.383
54433W        W22651  19.363  31.982  14.127
54434W        W22652  25.903  10.373  12.480
54435W        W22653  28.153  44.829   2.774
54436W        W22654   0.338   0.873  12.575
54437W        W22655   7.210  12.229   1.906
54438W        W22656  28.746  39.520  12.949
54439W        W22657  23.659  36.280   3.625
54440W        W22658  21.065   4.948  10.677
54441W        W22659  31.688  22.995  12.592
54442W        W22660  34.897  33.414   2.395
54443W        W22661  23.686  26.579  11.920
54444W        W22662  14.289  24.706  13.861
54445W        W22663  36.413  22.387  10.546
54446W        W22664  31.668  13.123  12.381
54447W        W22665  25.298  37.159   2.822
54448W        W22666  31.165  19.288   0.791
54449W        W22667  26.974  42.773   4.997
54450W        W22668  39.402  31.698  10.302
54451W        W22669  12.880  24.639   0.024
54452W        W22670  23.162  27.043   3.730
54453W        W22671  42.044  29.506  12.548
54454W        W22672  32.138  22.979  12.131
54455W        W22673  28.453  12.396   0.917
54456W        W22674   6.338  14.330  13.715
54457W        W22675  44.948  38.839  12.446
54458W        W22676  25.968   2.454   2.317
54459W        W22677  10.189  36.415   1.236
54460W        W22678  26.043  23.468   2.936
54461W        W22679  28.184   6.295   2.192
54462W        W22680   4.490  13.142   9.926
54463W        W22681  16.841  19.240   3.194
54464W        W22682   7.391   7.962   4.003
54465W        W22683   1.980  13.207   1.943
54466W        W22684  25.542  19.615  12.156
54467W        W22685  12.988  31.241  10.470
54468W        W22686   0.427   1.786  13.171
54469W        W22687  30.245  24.856   3.194
54470W        W22688  13.773  24.984   0.270
54471W        W22689  11.660  32.168   3.624
54472W        W22690   6.380   6.710  13.983
54473W        W22691  19.708  31.168  12.484
54474W        W22692  42.894   1.819   2.965
54475W        W22693  39.338   9.731   0.295
54476W        W22694  15.106   1.275   4.717
54477W        W22695  30.099  32.033   3.596
54478W        W22696  23.111   1.831  10.550
54479W        W22697  40.155  16.811  13.755
54480W        W22698  10.178  14.240  11.276
54481W        W22699  11.545  29.073   3.166
54482W        W22700  27.482  35.651  11.545
54483W        W22701  38.052  24.523   2.352
54484W        W22702  10.935  31.897  12.418
54485W        W22703   5.826  35.397   0.113
54486W        W22704   8.369   6.448   2.790
54487W        W22705  23.919   1.966  11.005
54488W        W22706  38.503  19.250  13.882
54489W        W22707   5.218  26.197  12.136
54490W        W22708  15.947  26.996  11.683
54491W        W22709  20.481  13.171  13.872
54492W        W22710  16.255  40.655  12.899
54493W        W22711   6.825   5.180   3.336
54494W        W22712   4.933  19.251  14.827
54495W        W22713  35.569  36.742   2.235
54496W        W22714  35.003  12.404   0.465
54497W        W22715   4.875  29.558   0.672
54498W        W22716  34.302  18.678   2.786
54499W        W22717  18.062  26.167  10.604
54500W        W22718  39.959   4.197  11.104
54501W        W22719   2.429   8.827   2.572
54502W        W22720  31.040  28.926   1.233
54503W        W22721  13.797   3.366  11.177
54504W        W22722  15.555   4.192  11.560
54505W        W22723   6.587  40.193   9.702
54506W        W22724  20.505  20.456   0.432
54507W        W22725  18.863  10.326   0.866
54508W        W22726  44.892  20.262  10.713
54509W        W22727  28.152  13.659   4.748
54510W        W22728  42.835  19.596   1.836
54511W        W22729   1.819  30.923  14.454
54512W        W22730  21.696   3.939  14.083
54513W        W22731  41.324  37.764  11.199
54514W        W22732  14.891  25.415  12.339
54515W        W22733   2.676   9.377   3.176
54516W        W22734  11.111  24.456   1.302
54517W        W22735   6.051   9.492   0.829
54518W        W22736  24.064  44.475  10.784
54519W        W22737  12.081   6.184  11.575
54520W        W22738  12.097  40.962  11.091
54521W        W22739  36.556  11.943   0.749
54522W        W22740  17.757  20.058  12.485
54523W        W22741  27.905   0.371   1.203
54524W        W22742  22.677   4.188   1.383
54525W        W22743  13.890  28.662  13.924
54526W        W22744  38.859  13.106  14.702
54527W        W22745   0.056  37.849  11.649
54528W        W22746  44.379   1.478  13.547
54529W        W22747  42.166  20.332  12.607
54530W        W22748  29.943  31.044   1.239
54531W        W22749  10.688  32.462   2.487
54532W        W22750  25.077  21.541   3.642
54533W        W22751   6.963  11.896   2.744
54534W        W22752  19.716  16.900   0.417
54535W        W22753  13.104  36.491  13.377
54536W        W22754  19.101  28.252   3.690
54537W        W22755   1.305  10.545  12.884
54538W        W22756  37.781  25.695   4.132
54539W        W22757   2.800  28.174  11.279
54540W        W22758   4.168   7.282   4.634
54541W        W22759   5.198   6.664   1.360
54542W        W22760   0.757  18.753   4.609
54543W        W22761  13.632  43.584   1.277
54544W        W22762  16.985   8.191   1.320
54545W        W22763  19.249  17.591  14.414
54546W        W22764  35.428  29.061  11.136
54547W        W22765   3.437  34.880  13.913
54548W        W22766   3.477  36.478   1.445
54549W        W22767  38.861   6.604  12.285
54550W        W22768  33.634  11.865   2.231
54551W        W22769  20.288  11.263  10.724
54552W        W22770  33.940  29.388   5.423
54553W        W22771   2.916  13.369   2.346
54554W        W22772   5.281  20.509  12.443
54555W        W22773   9.228  12.714   4.048
54556W        W22774  24.964  14.783  11.991
54557W        W22775  13.321   1.238  13.322
54558W        W22776  34.809   7.424  13.793
54559W        W22777  14.232  15.900  12.036
54560W        W22778  35.924  11.586   1.877
54561W        W22779  34.477  19.433  11.911
54562W        W22780  16.032   2.467  14.360
54563W        W22781  10.853  20.695  10.316
54564W        W22782  12.228  44.065   4.664
54565W        W22783  38.014   3.335  12.077
54566W        W22784  39.103  14.789   0.887
54567W        W22785  12.058  44.839  12.514
54568W        W22786  28.916  27.942   0.468
54569W        W22787  17.667  12.346   1.252
54570W        W22788  34.454  38.002   4.285
54571W        W22789  19.468  27.381  14.721
54572W        W22790  19.440  32.832   1.978
54573W        W22791  18.156  27.075  11.945
54574W        W22792   0.782  29.039   3.574
54575W        W22793  37.613  21.707   0.276
54576W        W22794  32.114  25.193  10.759
54577W        W22795  30.567  21.554   0.938
54578W        W22796  25.062   6.300  13.686
54579W        W22797   1.847  20.229   4.486
54580W        W22798  41.892   2.948  14.420
54581W        W22799  35.430  15.618   4.046
54582W        W22800  42.962  23.631   1.226
54583W        W22801  33.374  11.880   0.717
54584W        W22802  30.539  31.583   0.205
54585W        W22803  11.634  25.981   0.404
54586W        W22804  31.463  29.478   5.099
54587W        W22805  21.437   2.749   3.297
54588W        W22806  22.214  12.596  11.557
54589W        W22807  16.921   4.571   1.477
54590W        W22808  22.837  33.461   0.741
54591W        W22809  42.704  21.994   1.723
54592W        W22810   7.305  39.514  14.023
54593W        W22811  10.608  38.768  13.600
54594W        W22812  20.643   2.394   1.392
54595W        W22813  28.768  31.717  11.951
54596W        W22814   2.037  35.149  14.947
54597W        W22815  26.154  38.577  14.372
54598W        W22816  40.559  34.365  10.744
54599W        W22817   3.796  35.601   3.520
54600W        W22818  12.857  20.778   4.548
54601W        W22819   6.318  32.435   2.306
54602W        W22820  31.694  38.881   2.312
54603W        W22821  22.599   4.712   0.507
54604W        W22822  29.374  16.724   2.149
54605W        W22823  19.073  21.230  12.622
54606W        W22824  18.875  39.868   2.666
54607W        W22825   9.455  14.804   2.218
54608W        W22826   3.969  34.315  12.111
54609W        W22827  42.277  44.707  14.889
54610W        W22828   5.596   0.476   2.466
54611W        W22829   7.019  32.340  12.461
54612W        W22830  42.070  11.832   2.199
54613W        W22831   3.240  15.843   0.845
54614W        W22832   0.901   0.452  13.129
54615W        W22833  40.195  42.443   3.149
54616W        W22834  25.278  10.165  10.816
54617W        W22835  19.377  22.425  14.022
54618W        W22836  43.491  23.022   2.655
54619W        W22837   5.845   5.254   3.684
54620W        W22838   1.364  26.602   1.748
54621W        W22839   0.912  27.994  13.557
54622W        W22840  11.913  42.481  13.878
54623W        W22841  19.192   6.133   4.452
54624W        W22842   6.822  31.543   2.335
54625W        W22843  12.826   6.738   0.231
54626W        W22844  23.194  36.557   1.870
54627W        W22845  32.629  33.810  10.834
54628W        W22846  21.964  25.018   0.841
54629W        W22847  27.617  43.804   3.165
54630W        W22848   6.087  43.963   4.276
54631W        W22849  24.405   8.423   4.177
54632W        W22850  19.528  39.054  12.554
54633W        W22851  25.497  40.896  14.602
54634W        W22852  40.197  30.718  14.946
54635W        W22853  42.252   4.907   4.241
54636W        W22854   7.623  26.533   2.789
54637W        W22855  33.239  40.049  13.346
54638W        W22856  16.227  15.867   3.030
54639W        W22857  31.452   0.308  11.896
54640W        W22858   9.272   3.398  10.908
54641W        W22859   0.105   0.298   4.678
54642W        W22860  40.282  16.812   0.250
54643W        W22861   4.299  40.413   2.838
54644W        W22862  23.482  30.125   4.381
54645W        W22863   7.244   3.212  13.490
54646W        W22864   5.409   2.249  12.686
54647W        W22865  44.465   8.651   3.769
54648W        W22866  23.566   3.002  14.365
54649W        W22867  40.512  29.263  13.488
54650W        W22868  34.256   9.606   0.274
54651W        W22869  33.680  30.572   2.289
54652W        W22870   5.271  22.193  14.733
54653W        W22871  10.187  29.024   3.108
54654W        W22872  41.547  40.028   1.072
54655W        W22873  12.869  26.233  11.875
54656W        W22874  41.938  41.269  10.668
54657W        W22875  12.052  44.954  11.993
54658W        W22876   0.767  43.888   4.463
54659W        W22877  36.805  43.805  12.400
54660W        W22878  35.943  15.615   4.745
54661W        W22879   8.127  41.474   0.709
54662W        W22880   5.305  28.524  14.271
54663W        W22881   6.646  40.946  10.803
54664W        W22882  16.274  11.429  13.634
54665W        W22883  43.898   2.930   1.497
54666W        W22884  38.098  34.337   1.229
54667W        W22885  18.236  42.467   0.934
54668W        W22886  18.080  17.248   2.165
54669W        W22887  17.981   6.061  11.472
54670W        W22888  25.465   8.757  11.634
54671W        W22889   1.839  39.331  11.437
54672W        W22890   7.636  24.227   4.208
54673W        W22891  39.133  37.713   1.388
54674W        W22892   4.370   0.315   4.405
54675W        W22893  18.109  38.967  12.862
54676W        W22894  32.263  26.776   1.726
54677W        W22895  29.404  22.217   3.798
54678W        W22896  41.416  37.816   2.631
54679W        W22897   4.785  37.298   0.328
54680W        W22898  40.865  18.819   3.247
54681W        W22899  29.000  23.185  13.934
54682W        W22900   9.391  31.225   1.782
54683W        W22901  16.665  22.712   4.974
54684W        W22902  19.708  26.018   3.855
54685W        W22903  11.197  20.970  11.126
54686W        W22904  23.108   6.926   3.260
54687W        W22905  15.071  36.129  11.835
54688W        W22906  19.399  41.303   1.617
54689W        W22907  31.930   8.897   1.053
54690W        W22908   2.497  41.221  12.024
54691W        W22909  18.687   5.301  14.587
54692W        W22910   4.864  15.246   0.774
54693W        W22911  21.003  39.854   3.792
54694W        W22912  32.745  29.567   4.968
54695W        W22913  14.035  11.916   2.985
54696W        W22914  14.220  35.496   4.128
54697W        W22915  41.461   9.183   0.331
54698W        W22916  21.349  36.601   4.304
54699W        W22917   3.192  41.411   0.887
54700W        W22918   3.283  24.187   0.209
54701W        W22919  38.496  13.527   4.572
54702W        W22920  44.924  34.815   0.848
54703W        W22921   5.844  18.620  11.593
54704W        W22922  27.696  25.120   3.324
54705W        W22923  37.706  26.015   2.891
54706W        W22924  29.901   8.959  10.158
54707W        W22925   4.943  26.805   5.066
54708W        W22926   5.806  13.539  11.950
54709W        W22927  31.001   4.897  14.789
54710W        W22928  24.667  20.690   3.392
54711W        W22929  11.594   3.753   2.389
54712W        W22930  35.179  39.945  14.304
54713W        W22931  30.925  33.101   0.780
54714W        W22932  31.071  41.288  10.655
54715W        W22933  43.549  22.529  10.942
54716W        W22934  15.197  13.900  13.944
54717W        W22935   3.511  31.426  12.807
54718W        W22936  40.264   2.876   3.654
54719W        W22937   5.670  38.903  10.565
54720W        W22938   7.820   8.655  14.182
54721W        W22939  34.628  30.480  12.940
54722W        W22940  31.892  22.372   5.264
54723W        W22941  35.378  25.385  11.049
54724W        W22942  15.612  28.093  13.267
54725W        W22943  27.269   6.824  11.007
54726W        W22944  14.738   8.589   3.817
54727W        W22945  31.121   3.847  12.017
54728W        W22946  27.655  38.582   4.369
54729W        W22947   1.606  16.552   3.511
54730W        W22948  39.379  35.048  14.136
54731W        W22949  44.045  18.681   0.519
54732W        W22950  37.268  27.683   4.680
54733W        W22951   1.188  26.131   0.031
54734W        W22952   0.920  18.689   1.824
54735W        W22953   3.786  35.002  14.350
54736W        W22954  28.296  43.085  10.687
54737W        W22955  41.963  23.763  12.520
54738W        W22956  33.956  27.755   2.279
54739W        W22957  27.570  10.645   4.410
54740W        W22958  13.870  12.841  13.913
54741W        W22959  40.456  44.560  13.979
54742W        W22960  40.764  26.651  13.960
54743W        W22961  20.601   2.004  13.853
54744W        W22962  14.003  25.454   0.307
54745W        W22963  27.436  32.585   0.246
54746W        W22964  42.688  37.587  14.005
54747W        W22965  19.207  30.351  11.129
54748W        W22966  27.525  29.041   3.586
54749W        W22967  29.178  11.220   0.880
54750W        W22968  11.182   9.474   2.277
54751W        W22969  11.190  27.001   1.633
54752W        W22970  24.678  19.259   0.556
54753W        W22971  13.283  31.243   1.386
54754W        W22972  36.085  38.569   1.190
54755W        W22973  14.959   7.791  14.556
54756W        W22974  21.570  28.521   0.342
54757W        W22975  42.374  12.629   4.242
54758W        W22976  38.862  17.498   4.321
54759W        W22977  23.981  18.492  11.210
54760W        W22978  12.770  16.785   1.765
54761W        W22979   3.788  26.776  14.869
54762W        W22980  35.638  37.467   1.750
54763W        W22981  19.731  24.492  14.370
54764W        W22982  35.133   2.322   1.988
54765W        W22983  22.194  30.844  10.814
54766W        W22984   0.732  21.006   3.077
54767W        W22985   0.366  23.369   4.324
54768W        W22986  17.393  19.661  12.564
54769W        W22987   5.672  32.881  10.723
54770W        W22988  39.879   2.709   0.292
54771W        W22989   9.247   3.156   0.172
54772W        W22990  18.786  26.236   3.685
54773W        W22991  23.318  35.651  14.777
54774W        W22992  14.717  26.272   4.249
54775W        W22993  27.892  40.352  11.919
54776W        W22994  14.280  42.696  13.347
54777W        W22995   3.012  32.379  12.871
54778W        W22996  17.169  12.723   9.943
54779W        W22997  23.587   3.247   3.857
54780W        W22998  18.337   3.477  11.527
54781W        W22999  15.793   3.522   9.891
54782W        W23000   0.482  18.171  14.955
54783W        W23001  30.062  29.733   4.160
54784W        W23002   1.587  40.908  14.318
54785W        W23003  21.801  26.008   4.175
54786W        W23004  42.212   2.490   2.254
54787W        W23005  19.472  25.045  12.066
54788W        W23006  12.243  31.402   0.301
54789W        W23007  27.539  22.109  10.050
54790W        W23008  13.510  11.815   0.974
54791W        W23009  15.258  23.514   4.656
54792W        W23010  36.524  26.199  13.264
54793W        W23011  37.273  26.560   4.035
54794W        W23012  12.594  33.476  13.605
54795W        W23013  40.388  39.556  14.927
54796W        W23014  33.308  44.304  14.666
54797W        W23015  14.319  44.954  11.176
54798W        W23016   8.820  37.786   3.712
54799W        W23017  23.579  16.845  14.925
54800W        W23018   5.654  31.027  13.044
54801W        W23019  40.487  19.059   0.712
54802W        W23020   4.597  33.557   4.929
54803W        W23021   6.250  40.286  14.482
54804W        W23022  32.077   9.230  12.756
54805W        W23023  21.306  32.919   2.295
54806W        W23024   3.322  24.160   4.514
54807W        W23025  22.045  13.189   1.800
54808W        W23026  33.441  15.195   0.912
54809W        W23027  41.942  20.474   0.902
54810W        W23028  15.275  19.769   0.667
54811W        W23029  30.616  23.513  12.948
54812W        W23030  18.442   8.274   0.932
54813W        W23031  15.555  30.500   4.340
54814W        W23032  18.138  37.223   4.658
54815W        W23033  11.056  41.807  11.190
54816W        W23034   7.655  15.826  11.818
54817W        W23035  10.590  38.327   2.396
54818W        W23036  39.960  24.994  11.649
54819W        W23037  13.591  30.957   0.687
54820W        W23038  44.550  29.076  13.322
54821W        W23039  18.887  15.657   2.639
54822W        W23040  10.869  30.827   4.945
54823W        W23041  21.790  15.555   0.883
54824W        W23042  24.104  12.351  10.744
54825W        W23043  39.798  37.185  13.413
54826W        W23044  39.098  14.168  10.570
54827W        W23045   6.324  25.356   1.239
54828W        W23046  44.177  14.958  12.395
54829W        W23047  16.894  13.735  12.453
54830W        W23048  13.629  26.052   2.006
54831W        W23049   1.881  27.142   4.853
54832W        W23050  23.638  31.202   2.427
54833W        W23051  41.244  26.990  11.579
54834W        W23052  42.094  31.905   1.768
54835W        W23053  23.068  42.939   3.713
54836W        W23054  38.077  24.216   1.833
54837W        W23055  12.676  15.753  14.791
54838W        W23056  19.253   2.854   0.443
54839W        W23057   4.689   1.578  12.879
54840W        W23058   9.912  37.100   2.315
54841W        W23059  35.067   9.782  11.116
54842W        W23060   1.898   4.947  10.824
54843W        W23061  43.082  44.405  12.031
54844W        W23062   1.328  21.673  14.489
54845W        W23063  43.023   9.152   2.781
54846W        W23064  22.626   4.268  13.221
54847W        W23065   7.404  16.130  13.046
54848W        W23066  25.621  24.599   4.898
54849W        W23067  41.844  44.354   5.080
54850W        W23068   7.125  17.438   3.561
54851W        W23069  35.071   0.254  13.279
54852W        W23070  30.898   1.695  11.038
54853W        W23071  24.300   1.871  12.839
54854W        W23072  30.104  14.771  14.947
54855W        W23073  28.351   5.145   1.004
54856W        W23074   7.376  24.884   4.920
54857W        W23075  40.022  27.392  12.447
54858W        W23076   8.737  23.083  12.861
54859W        W23077  21.319   0.088  11.086
54860W        W23078  30.629  24.237  11.056
54861W        W23079  43.072   3.824  14.341
54862W        W23080  13.014  28.367  10.970
54863W        W23081  39.347  13.605   2.331
54864W        W23082  32.054   1.714   5.402
54865W        W23083  23.144  21.250  13.449
54866W        W23084  30.481  36.336   0.471
54867W        W23085   7.881   2.495   1.909
54868W        W23086   3.357  20.735  10.787
54869W        W23087  19.783  36.880   2.275
54870W        W23088  39.546  34.351  11.876
54871W        W23089  27.494  26.627  13.155
54872W        W23090  25.973   6.731  10.906
54873W        W23091  28.186  23.170  14.773
54874W        W23092  38.989  18.011   0.891
54875W        W23093   9.751   8.760  14.088
54876W        W23094  30.140   0.892   2.970
54877W        W23095  21.610   5.002   2.924
54878W        W23096  32.311   8.979  12.028
54879W        W23097   1.687  28.307  13.081
54880W        W23098   5.428   4.346  11.313
54881W        W23099  42.959  33.402   2.602
54882W        W23100  25.637   6.990   1.826
54883W        W23101  29.217  32.239  10.753
54884W        W23102   3.886  40.074  11.418
54885W        W23103  42.878  35.379   2.847
54886W        W23104  26.981   2.850   0.414
54887W        W23105  23.223  38.831  14.348
54888W        W23106   8.373  40.992   5.024
54889W        W23107  19.524  17.993   1.689
54890W        W23108  21.327  27.645  13.722
54891W        W23109   3.350  10.653   2.746
54892W        W23110  30.843   7.222  11.181
54893W        W23111  15.174  22.967  11.045
54894W        W23112  44.593   5.850  11.212
54895W        W23113  17.077  10.823  13.480
54896W        W23114  41.597   0.429   1.774
54897W        W23115  16.604  28.853  13.555
54898W        W23116  41.797  26.857   3.740
54899W        W23117  38.468  41.799  10.743
54900W        W23118  21.550  29.994  14.479
54901W        W23119  43.021  43.308  14.718
54902W        W23120   5.860  16.334  13.064
54903W        W23121   9.792  42.887   4.296
54904W        W23122  13.333  10.254  14.900
54905W        W23123  36.471   7.269  12.097
54906W        W23124  40.921  28.035  11.975
54907W        W23125  41.406  35.536   0.018
54908W        W23126  17.618  41.836   1.398
54909W        W23127  35.294  43.239   4.821
54910W        W23128  32.664  24.614  10.689
54911W        W23129  27.034  26.890   3.189
54912W        W23130   0.907  43.438  14.825
54913W        W23131  29.321   2.382  13.389
54914W        W23132  34.953   3.891  14.073
54915W        W23133  14.206  40.774  11.168
54916W        W23134  32.410  35.020  12.070
54917W        W23135  33.663  30.462   0.290
54918W        W23136  24.567  29.648   0.854
54919W        W23137  17.189   8.765   4.716
54920W        W23138  39.240  33.479  13.932
54921W        W23139  33.389  19.135   0.389
54922W        W23140  16.853  16.318   4.027
54923W        W23141   6.698  41.482   1.982
54924W        W23142  13.712  40.662   4.261
54925W        W23143  25.645  23.477  12.312
54926W        W23144   2.929   2.441   3.200
54927W        W23145  24.479  27.911   4.554
54928W        W23146  34.424  17.163  12.077
54929W        W23147   8.930  15.090   4.951
54930W        W23148  42.954  44.840   3.301
54931W        W23149  25.638  16.338  13.815
54932W        W23150  27.012  10.305   2.279
54933W        W23151   9.402  42.891  14.078
54934W        W23152  41.788  21.083   0.467
54935W        W23153  34.432   2.062  11.130
54936W        W23154  23.193  14.330   0.373
54937W        W23155   8.110  36.666   1.276
54938W        W23156   7.378  13.232   4.933
54939W        W23157  14.248   6.438  10.984
54940W        W23158  14.848  40.545   1.885
54941W        W23159  44.017   6.129   2.684
54942W        W23160  15.541  24.308   0.404
54943W        W23161   0.444   9.223   3.589
54944W        W23162   4.704  32.179  10.803
54945W        W23163  27.143  11.761   2.282
54946W        W23164   7.223   4.938   0.296
54947W        W23165  28.672  27.487  12.099
54948W        W23166  24.056  33.634  11.285
54949W        W23167   6.358  25.936  13.042
54950W        W23168   6.643  28.636  13.468
54951W        W23169  27.624   6.934  13.209
54952W        W23170  26.233  38.896   0.705
54953W        W23171  19.544  12.428   3.059
54954W        W23172   9.193  44.299   0.848
54955W        W23173  43.268  38.892   4.704
54956W        W23174  34.380   7.030  12.008
54957W        W23175  11.841  25.015  12.976
54958W        W23176  32.906  23.066  10.711
54959W        W23177   7.905   8.692  11.683
54960W        W23178  40.410  30.101  10.566
54961W        W23179   5.408  21.991  14.282
54962W        W23180   6.429  23.196   0.270
54963W        W23181  43.774  18.336  10.676
54964W        W23182  22.805  36.552   4.061
54965W        W23183  15.697  32.384   4.625
54966W        W23184  35.698  25.887   2.059
54967W        W23185  12.942  38.987  12.339
54968W        W23186  36.472   5.339  11.245
54969W        W23187  14.881  38.514   0.945
54970W        W23188  34.562   0.277   2.393
54971W        W23189  37.265   6.371  10.773
54972W        W23190  10.294  38.579  10.958
54973W        W23191  24.514  13.054   0.769
54974W        W23192  14.250  42.010  10.741
54975W        W23193  37.367  16.149  11.258
54976W        W23194  28.730  13.682  14.867
54977W        W23195  31.922   7.495   4.053
54978W        W23196  31.625  25.225  12.732
54979W        W23197  37.506  36.603  10.958
54980W        W23198  33.962  36.341  11.231
54981W        W23199  14.895  35.883  14.479
54982W        W23200  41.657  27.916  13.831
54983W        W23201   8.711  18.140   2.739
54984W        W23202  22.967  13.421   3.694
54985W        W23203  36.407  19.227  13.019
54986W        W23204  19.033  20.022   2.770
54987W        W23205  26.710  29.178   1.461
54988W        W23206  31.743  14.732   0.311
54989W        W23207  20.512  36.353  14.932
54990W        W23208   2.350  13.257  13.464
54991W        W23209  35.899  33.763   3.610
54992W        W23210  31.180   1.790   1.452
54993W        W23211   5.927  41.224   3.773
54994W        W23212   5.082  18.096  13.918
54995W        W23213  35.449   3.356   2.833
54996W        W23214  36.423   5.508  12.607
54997W        W23215  35.842   9.203   0.872
54998W        W23216   3.711  34.329   0.925
54999W        W23217  22.823  13.204   2.244
55000W        W23218  26.598  33.329  14.118
55001W        W23219  28.272  32.063  14.959
55002W        W23220  28.729  11.683   2.803
55003W        W23221  16.332  35.426   0.917
55004W        W23222  25.308  14.897  10.651
55005W        W23223  31.523  43.733  14.781
55006W        W23224  39.148  22.150   0.012
55007W        W23225  30.535  11.377  14.790
55008W        W23226  22.206  37.581   2.025
55009W        W23227  29.779   6.846  14.171
55010W        W23228   0.897   4.255  12.216
55011W        W23229  20.004  12.100   3.128
55012W        W23230  39.300   9.711  11.631
55013W        W23231  43.351  41.541   4.695
55014W        W23232   0.793  32.267   2.794
55015W        W23233  23.530  42.269   1.336
55016W        W23234  23.433  23.624  11.989
55017W        W23235  27.693   6.193  14.019
55018W        W23236   5.643  33.246  11.639
55019W        W23237  24.482  30.313   0.174
55020W        W23238   1.102  21.425  14.079
55021W        W23239  30.001  33.434   0.469
55022W        W23240  15.375   4.451  12.000
55023W        W23241  20.160  35.015  14.427
55024W        W23242  31.079   9.872  11.573
55025W        W23243  30.886   6.166   0.431
55026W        W23244  38.194  34.957   0.216
55027W        W23245  20.216  40.036   2.190
55028W        W23246  33.136  19.463   2.254
55029W        W23247  25.450  31.161   3.691
55030W        W23248  23.048  15.620   3.188
55031W        W23249  31.204  30.762  11.199
55032W        W23250  24.474  26.686  10.820
55033W        W23251  15.275   8.843   0.346
55034W        W23252  12.714  30.505   1.012
55035W        W23253  10.204  43.795   1.097
55036W        W23254  44.398  26.991  12.082
55037W        W23255  34.540  37.065   2.763
55038W        W23256  10.377  21.793   2.787
55039W        W23257  27.195   6.702   3.690
55040W        W23258   2.725  40.485  11.410
55041W        W23259   3.878  38.346  11.428
55042W        W23260  37.952  29.065   2.903
55043W        W23261  38.270  36.386  11.675
55044W        W23262  16.389  30.383   0.807
55045W        W23263   4.710  31.309   4.503
55046W        W23264   6.725  16.958  13.556
55047W        W23265  32.659  33.287  10.639
55048W        W23266  16.187  34.925   2.634
55049W        W23267  15.570   9.279  14.937
55050W        W23268  41.736  18.026   2.397
55051W        W23269  29.123  18.227   2.777
55052W        W23270   6.104  31.140   4.237
55053W        W23271  39.161  13.832   1.887
55054W        W23272  34.598  24.670   0.219
55055W        W23273  15.269  36.746   3.648
55056W        W23274  43.392  15.270  11.165
55057W        W23275   9.168  42.976  12.869
55058W        W23276   3.926  34.880  13.380
55059W        W23277  32.945  13.080   3.223
55060W        W23278  39.081  40.870   1.390
55061W        W23279  29.769  22.212  13.018
55062W        W23280  35.894   5.426   1.492
55063W        W23281  18.585  12.584  11.393
55064W        W23282  20.502  26.240  14.980
55065W        W23283  15.288   2.048   3.758
55066W        W23284   9.825   1.028  13.629
55067W        W23285  33.064   3.150   5.354
55068W        W23286   1.529  35.584   3.830
55069W        W23287  35.047  12.378   2.329
55070W        W23288  34.579   2.476  12.219
55071W        W23289  11.266  16.247  11.891
55072W        W23290  38.057  10.559  12.509
55073W        W23291  32.112   9.904   9.887
55074W        W23292  33.836   6.661   4.621
55075W        W23293  23.643  41.720   3.146
55076W        W23294  22.679  30.697  10.990
55077W        W23295   5.399   6.609  13.877
55078W        W23296  33.502  13.244   0.859
55079W        W23297   6.708  16.295   5.077
55080W        W23298   9.187  41.459   2.427
55081W        W23299  24.765  44.782   1.108
55082W        W23300   1.673  42.015  13.935
55083W        W23301  26.350  21.213   2.282
55084W        W23302   1.276  26.324   4.611
55085W        W23303  25.762  29.899   0.288
55086W        W23304  11.374   6.915   1.762
55087W        W23305  27.944  17.534  13.441
55088W        W23306   0.487  38.570  12.029
55089W        W23307  12.676  15.309   0.727
55090W        W23308   1.363  32.378  10.707
55091W        W23309  14.785  10.121  12.001
55092W        W23310  40.048  26.416  11.302
55093W        W23311  25.475  28.071  14.719
55094W        W23312  40.740  27.522   3.404
55095W        W23313   9.156  41.811   4.149
55096W        W23314  19.487  33.481  14.494
55097W        W23315  22.475   7.072   2.428
55098W        W23316   6.703  10.707  14.703
55099W        W23317   4.006  35.324   1.725
55100W        W23318  35.054  37.840   0.258
55101W        W23319  17.619  23.995   0.939
55102W        W23320   9.273  17.550  14.331
55103W        W23321   5.495  28.443   1.805
55104W        W23322   8.820  40.894   4.615
55105W        W23323  29.517  11.327  10.350
55106W        W23324  10.208  10.722   4.909
55107W        W23325  21.639   5.437  14.376
55108W        W23326  14.077  33.838  10.608
55109W        W23327  35.191  21.313   2.874
55110W        W23328  10.752   4.463  14.981
55111W        W23329  16.856  31.384   0.902
55112W        W23330   3.336  17.622   0.478
55113W        W23331  14.069  32.550   0.785
55114W        W23332  11.683  29.379   0.454
55115W        W23333  43.177  37.538   2.324
55116W        W23334  20.388   3.884  13.424
55117W        W23335  30.796  40.751   1.254
55118W        W23336  30.584  17.604  10.815
55119W        W23337  36.962  17.296   0.564
55120W        W23338  10.777  14.803   0.921
55121W        W23339  16.622   1.222   3.920
55122W        W23340  24.008  40.071  12.141
55123W        W23341  44.384   6.339  14.836
55124W        W23342  14.571  35.486  11.131
55125W        W23343   6.696  13.358  12.331
55126W        W23344  15.371  27.446  13.494
55127W        W23345   8.630   9.298  13.789
55128W        W23346   2.118  35.663   2.229
55129W        W23347   4.900   5.738   1.120
55130W        W23348  35.348   5.329  12.464
55131W        W23349   3.331  44.441   1.487
55132W        W23350  38.117  44.770   1.401
55133W        W23351   4.630  28.702   3.606
55134W        W23352  38.253  12.584   0.409
55135W        W23353  39.858  21.506  11.522
55136W        W23354  24.230   9.950   0.875
55137W        W23355  20.791   8.768   0.295
55138W        W23356   1.458  28.092   1.465
55139W        W23357  29.831  20.025   2.398
55140W        W23358  15.913   5.673  12.461
55141W        W23359  43.374  33.883  14.559
55142W        W23360  40.324   7.111   3.231
55143W        W23361   8.728  38.431   4.323
55144W        W23362  33.902  19.119  13.576
55145W        W23363  44.570  22.979   2.000
55146W        W23364  14.358  44.976  13.417
55147W        W23365  33.920   6.922  12.379
55148W        W23366  26.677  35.334  13.176
55149W        W23367  40.303  21.922   4.276
55150W        W23368  33.183  36.706  12.456
55151W        W23369  18.790  22.041   2.846
55152W        W23370  15.327  34.555   1.485
55153W        W23371  23.765   6.791   0.369
55154W        W23372   5.901  21.659  12.231
55155W        W23373  25.462  10.133  11.522
55156W        W23374  44.172  29.422   4.820
55157W        W23375  11.096  38.973   3.184
55158W        W23376  23.684  15.833  14.959
55159W        W23377  13.283  41.947   4.572
55160W        W23378  24.607  28.698  10.467
55161W        W23379  28.119  20.167  11.422
55162W        W23380  19.877  16.623  14.777
55163W        W23381  26.715  35.628   0.414
55164W        W23382  31.976  27.432  12.470
55165W        W23383  21.074  43.015   0.318
55166W        W23384   5.687  27.704   0.392
55167W        W23385  21.994  25.612  13.531
55168W        W23386  44.702   0.785  11.978
55169W        W23387   3.157  24.109   2.544
55170W        W23388  11.272  24.595  14.446
55171W        W23389  38.992  12.125  14.158
55172W        W23390  36.443  29.380  12.438
55173W        W23391  16.800  40.904   4.577
55174W        W23392   3.648  32.948  13.271
55175W        W23393   3.351  33.279  12.989
55176W        W23394  36.497   0.511  12.037
55177W        W23395  11.280  13.184   4.154
55178W        W23396  31.126  20.442   3.814
55179W        W23397  33.610  15.799  14.750
55180W        W23398  33.766  21.480   1.423
55181W        W23399  32.904  37.501   3.959
55182W        W23400  33.503  34.870  12.523
55183W        W23401  19.710  23.110   2.315
55184W        W23402  11.236  20.004  12.036
55185W        W23403  14.079   4.125   3.776
55186W        W23404  24.619  29.612   3.037
55187W        W23405   9.319   1.343   3.118
55188W        W23406  43.210   1.300  11.870
55189W        W23407  37.091  13.349   0.502
55190W        W23408   7.008  13.737  12.531
55191W        W23409  19.451   8.715   3.399
55192W        W23410  24.929  32.418   1.205
55193W        W23411  31.012  27.925  13.568
55194W        W23412  17.521   2.747   1.981
55195W        W23413  10.738  40.643   1.989
55196W        W23414  39.753  32.046   4.482
55197W        W23415  28.552  16.721   9.763
55198W        W23416  14.385   4.142   0.373
55199W        W23417  20.989  18.247  10.754
55200W        W23418  18.604  22.822   0.962
55201W        W23419   8.902  41.193  13.004
55202W        W23420  13.773   1.190  13.068
55203W        W23421  14.761  26.972   0.843
55204W        W23422  12.813   8.418  11.120
55205W        W23423   1.448  18.494  14.063
55206W        W23424   0.535  39.748  11.135
55207W        W23425   4.273  39.215   2.805
55208W        W23426  14.527  44.559  11.685
55209W        W23427   4.000  11.155  11.023
55210W        W23428  23.589  26.454   0.370
55211W        W23429  34.572   9.762   2.427
55212W        W23430  30.943   0.203  14.250
55213W        W23431   2.480  36.523  13.876
55214W        W23432  13.889  28.986   3.206
55215W        W23433  15.844   9.878  12.479
55216W        W23434   1.743  27.989   0.780
55217W        W23435  36.948   9.197   4.172
55218W        W23436   7.418  21.505  14.485
55219W        W23437  24.761  19.164   3.246
55220W        W23438  19.923  16.626  13.443
55221W        W23439  17.524  13.509   4.315
55222W        W23440  42.168  22.304  14.814
55223W        W23441   6.883   5.643   2.686
55224W        W23442  19.073   1.799  12.085
55225W        W23443   5.649  11.308  10.527
55226W        W23444  33.546  21.103   3.694
55227W        W23445  37.650  44.284  11.587
55228W        W23446  14.743  11.132  11.101
55229W        W23447  38.308  31.883  11.965
55230W        W23448  32.002  43.661  14.548
55231W        W23449   8.644  19.822  14.833
55232W        W23450  23.020  24.516   4.167
55233W        W23451  12.838  32.943  14.751
55234W        W23452  25.025   5.692  13.928
55235W        W23453  28.168  43.997  11.558
55236W        W23454   8.177  21.908   1.286
55237W        W23455  31.739  28.474  11.245
55238W        W23456  40.913   3.701  12.907
55239W        W23457   2.226  35.157  14.415
55240W        W23458  35.973   4.788   3.340
55241W        W23459  28.413   2.370  14.751
55242W        W23460  43.383  12.348   4.950
55243W        W23461  21.963  33.988  13.222
55244W        W23462  34.025  31.366  11.657
55245W        W23463  10.374  34.784  11.106
55246W        W23464  37.129  28.103  10.677
55247W        W23465  39.443  34.811   0.558
55248W        W23466  25.497  11.847  13.831
55249W        W23467  24.622   7.149  10.433
55250W        W23468  28.982  40.975  12.906
55251W        W23469  28.552  40.961   0.906
55252W        W23470  14.587  14.764  14.628
55253W        W23471  25.216  11.408   0.588
55254W        W23472  22.153  39.545   2.202
55255W        W23473  17.842  17.662   0.673
55256W        W23474  10.176  12.679   2.026
55257W        W23475  17.075  38.906  12.305
55258W        W23476   9.335  40.750  12.347
55259W        W23477  13.690   8.945   4.466
55260W        W23478  34.017  20.144   1.142
55261W        W23479  30.576  29.673   0.266
55262W        W23480   8.122  12.899  11.493
55263W        W23481  39.767  20.545   4.846
55264W        W23482  33.124  10.578   4.350
55265W        W23483  30.262   4.671   0.292
55266W        W23484  12.012  42.780  10.185
55267W        W23485  15.536  31.900   3.367
55268W        W23486  13.091  30.583   3.227
55269W        W23487  40.798  35.598   2.736
55270W        W23488  18.619   0.728  14.875
55271W        W23489  41.854  26.447  13.847
55272W        W23490  34.164  32.634  13.116
55273W        W23491  32.931  16.260   0.871
55274W        W23492  42.770  43.712  13.905
55275W        W23493  15.711  44.414  13.901
55276W        W23494  19.112  28.165  12.855
55277W        W23495   6.350  32.060  13.177
55278W        W23496   2.267  12.699  10.628
55279W        W23497   5.373  19.889   4.606
55280W        W23498  44.082  26.785  14.817
55281W        W23499  31.050   7.630  14.090
55282W        W23500   5.632  43.278  11.562
55283W        W23501  30.176  25.475  10.801
55284W        W23502   8.249   0.254   1.339
55285W        W23503  41.345  11.419   2.401
55286W        W23504  19.161  41.415   3.194
55287W        W23505  21.177  20.518   4.478
55288W        W23506  12.320  23.167  12.662
55289W        W23507   4.732   0.288   1.227
55290W        W23508  22.060  33.420   0.463
55291W        W23509  32.809  25.149   0.034
55292W        W23510  39.866  12.877  11.571
55293W        W23511  10.049   0.276  14.321
55294W        W23512  13.953  36.179  13.554
55295W        W23513   1.420  40.241   1.032
55296W        W23514  25.158  12.049  14.981
55297W        W23515   9.877  20.089  12.366
55298W        W23516  29.215  23.131   0.850
55299W        W23517  20.219  15.562  12.845
55300W        W23518  16.477   1.629  12.844
55301W        W23519  44.305  12.143  14.785
55302W        W23520   4.173  25.150  11.221
55303W        W23521   0.766   0.416   2.258
55304W        W23522  33.372   2.477   2.399
55305W        W23523  41.361  38.177  13.387
55306W        W23524   9.827  19.601  13.959
55307W        W23525  30.083  17.463  10.743
55308W        W23526  22.677  37.827   2.016
55309W        W23527  31.610  28.127   4.429
55310W        W23528  40.227  43.269   1.656
55311W        W23529  27.079   0.776   4.328
55312W        W23530  21.763  37.894   2.003
55313W        W23531  43.258  35.310   1.189
55314W        W23532  39.340   3.677   5.464
55315W        W23533  33.009  30.941   9.750
55316W        W23534  35.991   0.677  13.604
55317W        W23535  38.391  23.820  14.450
55318W        W23536   9.474  30.065   0.373
55319W        W23537   9.340  29.566  13.390
55320W        W23538  10.157  42.871  13.614
55321W        W23539   3.442  38.003  14.838
55322W        W23540  31.572  43.972  10.300
55323W        W23541  36.422  12.710   1.431
55324W        W23542  36.992  28.473   0.032
55325W        W23543  35.094   6.905   4.145
55326W        W23544   1.984  34.952   4.833
55327W        W23545  30.834  42.320   4.624
55328W        W23546   2.430  11.786   1.827
55329W        W23547   2.336   6.389   1.790
55330W        W23548  16.310  18.789  13.812
55331W        W23549  30.968  34.368  13.563
55332W        W23550  44.847  21.646   3.275
55333W        W23551  13.444  23.750  14.890
55334W        W23552  44.658  19.654  12.087
55335W        W23553  43.383  19.799  12.565
55336W        W23554  42.053  14.857  12.733
55337W        W23555  16.005  31.487  14.338
55338W        W23556   0.011   0.971   0.483
55339W        W23557  11.197  34.073  13.337
55340W        W23558  31.772  20.257  11.559
55341W        W23559  19.926   1.425   4.469
55342W        W23560   3.485  13.741   4.563
55343W        W23561  42.483   6.584  13.462
55344W        W23562  26.760  23.183  10.984
55345W        W23563  24.427  28.954   2.935
55346W        W23564  23.721  27.989  11.791
55347W        W23565   6.405  19.803  13.360
55348W        W23566  23.471   5.929   3.697
55349W        W23567  17.980   1.528   1.354
55350W        W23568  39.303  26.724  14.522
55351W        W23569  43.286  28.511  12.159
55352W        W23570   6.498  32.123  10.728
55353W        W23571   4.026  10.113   4.520
55354W        W23572  24.191  15.211   1.872
55355W        W23573  31.281  41.416   2.219
55356W        W23574  42.793  12.390  14.205
55357W        W23575  25.593  28.610   4.842
55358W        W23576  27.119  16.361  14.562
55359W        W23577  39.856  18.293   1.425
55360W        W23578  40.263   6.458  13.814
55361W        W23579  30.911  39.480   3.331
55362W        W23580  17.435  27.321  14.914
55363W        W23581  15.815  39.431  13.084
55364W        W23582  15.337  25.731  13.937
55365W        W23583   1.752  19.694  12.085
55366W        W23584  30.485  39.987  12.524
55367W        W23585  44.347  43.265   0.928
55368W        W23586  22.536  28.102   3.282
55369W        W23587  29.264   6.540  10.302
55370W        W23588   4.432   4.113   1.699
55371W        W23589   4.510  15.029  11.923
55372W        W23590  42.878  29.997   0.442
55373W        W23591   3.719   9.663  11.862
55374W        W23592  44.072   8.756   1.856
55375W        W23593  18.478  36.829   3.983
55376W        W23594  41.616  19.225   3.196
55377W        W23595  17.498  12.609  13.432
55378W        W23596  38.127   5.725  13.107
55379W        W23597  31.872  34.716   4.477
55380W        W23598  34.770  22.227   0.728
55381W        W23599  31.093  42.391   3.229
55382W        W23600  44.179  35.838  10.921
55383W        W23601  19.123   2.325   0.365
55384W        W23602   9.887  41.367  12.441
55385W        W23603  24.149   8.596   4.612
55386W        W23604  17.139   1.770  11.131
55387W        W23605  23.064   6.435   0.846
55388W        W23606  21.757  39.553   0.353
55389W        W23607  32.844  24.908   1.453
55390W        W23608  14.457  36.190  13.685
55391W        W23609  29.275  36.507  11.977
55392W        W23610  18.314  27.966   4.903
55393W        W23611   0.818  44.852  12.846
55394W        W23612  18.473  14.264  10.733
55395W        W23613  11.635  16.682  13.450
55396W        W23614   9.289  26.558   3.561
55397W        W23615  14.736  44.679  11.236
55398W        W23616  21.186  44.239  10.685
55399W        W23617  14.738  24.004  11.690
55400W        W23618  17.674   1.493   0.254
55401W        W23619  24.059  19.948  14.366
55402W        W23620  27.929  19.719  11.792
55403W        W23621  43.377  10.829   2.439
55404W        W23622  34.928  26.261   2.421
55405W        W23623  36.675   3.709   3.277
55406W        W23624  40.780  14.315  11.574
55407W        W23625  30.153  24.171  14.463
55408W        W23626  34.869  25.861   1.941
55409W        W23627  38.526  12.127  12.623
55410W        W23628  34.172  16.647  13.919
55411W        W23629  21.434  37.576   2.675
55412W        W23630  23.798  36.738   0.344
55413W        W23631  18.589  42.819  14.240
55414W        W23632  26.538  38.374   1.922
55415W        W23633  35.962  11.557   0.470
55416W        W23634  16.457  38.403  14.403
55417W        W23635   3.403  22.750   2.648
55418W        W23636  38.993  28.007   5.066
55419W        W23637  40.223  33.177   2.760
55420W        W23638  20.178  19.624   0.651
55421W        W23639  29.698   7.647   1.361
55422W        W23640   8.870  21.271  10.415
55423W        W23641   8.065  33.316  13.818
55424W        W23642  30.646   1.978  10.219
55425W        W23643  38.009  31.205   3.847
55426W        W23644  23.429  44.233   2.310
55427W        W23645  15.484  44.049  13.176
55428W        W23646  43.834  15.423   4.254
55429W        W23647  37.537  44.334  12.473
55430W        W23648  16.559   9.403   4.344
55431W        W23649  15.270   2.978   4.276
55432W        W23650  39.121  23.270  11.041
55433W        W23651  42.468  31.289  14.850
55434W        W23652  23.226  25.653  14.802
55435W        W23653  34.050  41.488  11.367
55436W        W23654  20.948  13.193  12.534
55437W        W23655   9.344  34.202   3.229
55438W        W23656   6.500  44.968  12.086
55439W        W23657   0.244   6.872  14.488
55440W        W23658  41.549  18.205   4.094
55441W        W23659  19.725  20.264   0.005
55442W        W23660  13.364  11.291   0.224
55443W        W23661  33.977   7.717  13.453
55444W        W23662   7.182  33.173   0.720
55445W        W23663  25.304  39.912  11.700
55446W        W23664  26.492  19.606   3.293
55447W        W23665  17.398  28.664  11.539
55448W        W23666  12.384  22.607   4.366
55449W        W23667  13.292  16.181   2.306
55450W        W23668   6.759   9.408  11.105
55451W        W23669  21.320  27.550   1.305
55452W        W23670  11.162  28.862   1.745
55453W        W23671  18.530   7.356   3.169
55454W        W23672   0.239  44.968  11.585
55455W        W23673  27.354  18.099   1.387
55456W        W23674  25.493  40.449   3.919
55457W        W23675  37.746   1.849  12.589
55458W        W23676  21.599  11.140  12.078
55459W        W23677  17.152  39.107  10.861
55460W        W23678  31.538  10.614   1.158
55461W        W23679   1.542  24.629  14.477
55462W        W23680  21.619  32.070  14.303
55463W        W23681  23.421  15.988  12.035
55464W        W23682   6.245   2.386   0.518
55465W        W23683  28.551  33.298   2.332
55466W        W23684   9.919   8.623   2.705
55467W        W23685  36.516   6.698  12.509
55468W        W23686  23.034   8.370  14.057
55469W        W23687  11.145   6.804   2.234
55470W        W23688  33.148  22.557   2.013
55471W        W23689  15.328   3.229   9.892
55472W        W23690  40.433  20.618   4.266
55473W        W23691  12.252  25.774  14.362
55474W        W23692  18.202  17.238  13.474
55475W        W23693  28.311  39.179  12.842
55476W        W23694  35.484  35.938   3.653
55477W        W23695   5.139  38.140   3.796
55478W        W23696  22.502  15.257  13.007
55479W        W23697  35.609  27.130  12.016
55480W        W23698   2.789  19.526  13.938
55481W        W23699  21.051   8.968   3.769
55482W        W23700   3.065  42.310   5.122
55483W        W23701  32.913  43.080   1.894
55484W        W23702  21.076  43.789   3.283
55485W        W23703   0.480  12.724  13.875
55486W        W23704  11.316  11.284   2.047
55487W        W23705  20.225  20.310   2.237
55488W        W23706  38.692  16.791   1.416
55489W        W23707  19.974  34.488   2.791
55490W        W23708  36.859   9.809   3.224
55491W        W23709  17.757  20.266  11.075
55492W        W23710  23.606  33.337  10.621
55493W        W23711   6.237  40.856   3.563
55494W        W23712  15.670  39.589  11.127
55495W        W23713  30.230  38.042  13.286
55496W        W23714  35.596  32.815   3.562
55497W        W23715   6.357  33.517  12.920
55498W        W23716  37.743  22.349  12.487
55499W        W23717  18.084  13.102  11.157
55500W        W23718   9.739  41.082  14.780
55501W        W23719   5.291  41.740   4.054
55502W        W23720   9.862  21.296  14.393
55503W        W23721  30.049  38.554   0.450
55504W        W23722   9.118   6.321   0.804
55505W        W23723   8.660  31.453  13.466
55506W        W23724   0.887  22.157   4.708
55507W        W23725   5.397  14.744   0.746
55508W        W23726  43.795  30.486   4.127
55509W        W23727  38.516  38.096   1.473
55510W        W23728  42.028  40.377  13.197
55511W        W23729  37.505   6.112  11.731
55512W        W23730   3.836  14.704   4.958
55513W        W23731  30.116  26.142  12.555
55514W        W23732  36.975  12.382  13.892
55515W        W23733  41.492  37.068   2.083
55516W        W23734  25.615  17.679   1.600
55517W        W23735   6.101  24.203   4.470
55518W        W23736  24.246  44.317  12.103
55519W        W23737  36.044  15.142   3.326
55520W        W23738  37.093  30.878   4.675
55521W        W23739  38.669  20.608   1.778
55522W        W23740  22.525  20.881  10.181
55523W        W23741   7.407  24.588   2.662
55524W        W23742  12.852  18.167   0.003
55525W        W23743   4.665   9.285   3.112
55526W        W23744  38.570  24.313  14.418
55527W        W23745  38.919  26.739  12.984
55528W        W23746  36.877  34.723  12.279
55529W        W23747  13.235   8.889   3.785
55530W        W23748  32.370  25.835  10.083
55531W        W23749  29.111   9.349   0.227
55532W        W23750  23.413  35.368   4.625
55533W        W23751   5.929  21.003  10.688
55534W        W23752   0.289  24.160   4.905
55535W        W23753  44.215  10.547   0.890
55536W        W23754  33.026  23.422   3.289
55537W        W23755  15.696  27.030   2.191
55538W        W23756   1.069  23.751   0.260
55539W        W23757  12.208  40.572   1.807
55540W        W23758  12.455  31.357   2.858
55541W        W23759  12.982   1.019   3.680
55542W        W23760   2.459   4.915   3.718
55543W        W23761  20.360  11.689   0.415
55544W        W23762   1.298  16.231   4.416
55545W        W23763   9.828  20.070   3.662
55546W        W23764  42.859  31.613   4.776
55547W        W23765  42.729   8.868  11.467
55548W        W23766  18.520  35.673  10.296
55549W        W23767  27.237  28.375   1.728
55550W        W23768  44.329  44.242  13.070
55551W        W23769  25.409  12.164   2.673
55552W        W23770   9.227  42.471   9.935
55553W        W23771  33.457  28.005  14.165
55554W        W23772  35.065  10.601  12.449
55555W        W23773  32.650  12.760   1.914
55556W        W23774  29.492  34.464  12.625
55557W        W23775  44.848  23.574  12.185
55558W        W23776  16.945   2.278   1.325
55559W        W23777  44.927  25.187   2.719
55560W        W23778  35.385   9.757  14.346
55561W        W23779  29.484  38.886  14.769
55562W        W23780  30.083  32.352   1.328
55563W        W23781  43.426   4.920  14.796
55564W        W23782  40.979  12.090   0.285
55565W        W23783  20.898  27.238   1.907
55566W        W23784  19.180  16.897  10.626
55567W        W23785   7.825  15.322   4.965
55568W        W23786  30.042  10.578  14.062
55569W        W23787  27.810  40.212   4.887
55570W        W23788  33.907  41.681   1.382
55571W        W23789  23.651  22.272  10.270
55572W        W23790   4.756  16.592   0.316
55573W        W23791  26.053  18.217  11.610
55574W        W23792  41.404  24.704  14.450
55575W        W23793  17.716  22.753  13.740
55576W        W23794  24.151  35.962  10.691
55577W        W23795  16.283  32.525  14.209
55578W        W23796  36.738  41.081  14.635
55579W        W23797   9.182  15.093   0.508
55580W        W23798  19.318  22.705   3.368
55581W        W23799  11.065  21.754   2.186
55582W        W23800  26.934  31.077   1.386
55583W        W23801  38.528  27.553   0.010
55584W        W23802  20.124  16.073   1.324
55585W        W23803  28.999   1.564   1.134
55586W        W23804  22.375  35.889  13.015
55587W        W23805  13.669   0.262  13.291
55588W        W23806   3.913  22.351  10.163
55589W        W23807  14.749  15.342  10.478
55590W        W23808  23.730  35.873  14.271
55591W        W23809  34.444  30.676  12.489
55592W        W23810  20.305   7.935   0.785
55593W        W23811  40.272  37.845   2.840
55594W        W23812  26.653  16.554  12.036
55595W        W23813  21.275   1.878  12.410
55596W        W23814  35.368  12.047   0.343
55597W        W23815  30.410  16.160   4.305
55598W        W23816  34.454   6.099   3.162
55599W        W23817   2.214  44.492   0.287
55600W        W23818   6.726  31.445   0.749
55601W        W23819  33.957  13.342  13.463
55602W        W23820  18.147  38.176  14.481
55603W        W23821  33.901  10.328  12.402
55604W        W23822  29.362  25.652  14.362
55605W        W23823   2.587  24.470   0.246
55606W        W23824  16.601  40.315  13.075
55607W        W23825  20.066   3.764   2.939
55608W        W23826  16.107  16.705  14.083
55609W        W23827  24.977  39.796  13.149
55610W        W23828   7.672  27.159  11.394
55611W        W23829  32.288  12.322   2.399
55612W        W23830  21.501  33.092  11.608
55613W        W23831  35.454  33.401   0.703
55614W        W23832  18.659   2.513  13.481
55615W        W23833  26.434  42.944   1.666
55616W        W23834  34.792  44.897   1.286
55617W        W23835  38.799  28.327  13.350
55618W        W23836  17.164  10.241  11.857
55619W        W23837  32.003   0.780   3.640
55620W        W23838  13.868  44.934  13.639
55621W        W23839  27.828  40.448   4.055
55622W        W23840   7.235  40.185  10.302
55623W        W23841  24.667  25.601   1.033
55624W        W23842  22.503  43.774   3.236
55625W        W23843   8.425  33.982   2.562
55626W        W23844   1.590  16.988   1.403
55627W        W23845  25.012  10.714  14.769
55628W        W23846   6.530   8.796   3.173
55629W        W23847  38.879  40.165  12.922
55630W        W23848  15.226  13.356  13.925
55631W        W23849  34.387  30.112  10.718
55632W        W23850  37.844  30.362   4.123
55633W        W23851  33.354  44.190  11.042
55634W        W23852  39.278   4.201  13.947
55635W        W23853  38.104   0.845  12.514
55636W        W23854  19.560   6.860   1.405
55637W        W23855  41.072  23.063   3.744
55638W        W23856  23.192  21.789   0.846
55639W        W23857  30.016  27.612   0.431
55640W        W23858   8.728  29.374   3.289
55641W        W23859  25.463   0.962  12.504
55642W        W23860  18.624  33.973  12.455
55643W        W23861  12.710  24.014   4.159
55644W        W23862   0.841   2.318   4.149
55645W        W23863   7.090  31.112   2.520
55646W        W23864  10.640  39.518   2.592
55647W        W23865  17.157  22.499  12.581
55648W        W23866  18.645   9.885  13.038
55649W        W23867  40.592  14.704  10.244
55650W        W23868  30.123   3.255  11.963
55651W        W23869  18.055  22.596  10.717
55652W        W23870  43.095  36.969   0.785
55653W        W23871   9.181  25.112  13.979
55654W        W23872  11.816  40.801  14.271
55655W        W23873  18.521  31.428   2.381
55656W        W23874  16.671  42.968   3.152
55657W        W23875  19.107   8.753  11.916
55658W        W23876  39.083   4.848   0.297
55659W        W23877   3.380  18.308   1.393
55660W        W23878  40.863  12.905   3.284
55661W        W23879  38.321  44.192   3.278
55662W        W23880   2.295  29.735  13.888
55663W        W23881  40.024  41.423  13.143
55664W        W23882   9.606   6.233   1.022
55665W        W23883  35.122  16.063   4.215
55666W        W23884   3.191  31.114  10.661
55667W        W23885  29.649  19.655   2.756
55668W        W23886   4.866  32.950   4.558
55669W        W23887  10.753  18.031  12.521
55670W        W23888  35.526  14.000  13.079
55671W        W23889  39.797  35.550   0.257
55672W        W23890   8.940  36.480   1.850
55673W        W23891  39.277  24.625   1.667
55674W        W23892  28.423  30.904   0.334
55675W        W23893  26.281   6.440  13.798
55676W        W23894   7.786  42.341   4.087
55677W        W23895  33.296  42.911   4.878
55678W        W23896  28.089  42.945   3.598
55679W        W23897   3.896  10.155  10.686
55680W        W23898  43.498  10.182   0.527
55681W        W23899  16.291  13.300  13.442
55682W        W23900  29.978   6.393   0.199
55683W        W23901  31.051  23.210  11.825
55684W        W23902  31.508  27.242   1.546
55685W        W23903   1.802  11.621   4.232
55686W        W23904   9.332  23.971  14.318
55687W        W23905  19.117  33.618   2.265
55688W        W23906  43.228  13.706  14.914
55689W        W23907  15.797   3.655   5.009
55690W        W23908  23.554  10.778   2.151
55691W        W23909  40.458  36.464   3.908
55692W        W23910   8.610  26.440   0.402
55693W        W23911  11.692  16.220   4.162
55694W        W23912  18.654  20.324   4.299
55695W        W23913   0.736  29.147   1.780
55696W        W23914   3.229  16.283  14.846
55697W        W23915   7.638  17.030  12.125
55698W        W23916  32.430  34.748  14.957
55699W        W23917  18.126  16.154  10.950
55700W        W23918  27.082  41.952  12.054
55701W        W23919  12.335  19.716   3.226
55702W        W23920  42.668  40.664   2.380
55703W        W23921  13.070  32.140   4.094
55704W        W23922  16.799   7.870   3.342
55705W        W23923   7.356  28.488   1.606
55706W        W23924  27.524   3.816   2.594
55707W        W23925  22.611  21.946  12.007
55708W        W23926  16.313   4.783  10.089
55709W        W23927  44.967  44.298  11.717
55710W        W23928  22.772  33.831  11.624
55711W        W23929  37.992  19.078  13.734
55712W        W23930  15.053  30.978  12.865
55713W        W23931  10.867   4.238   1.315
55714W        W23932   2.424  15.203   0.718
55715W        W23933  32.720  36.277   3.095
55716W        W23934  38.446  11.160  12.556
55717W        W23935  41.499  19.064  12.671
55718W        W23936  30.964   6.358  13.417
55719W        W23937   6.435  20.854  10.006
55720W        W23938   7.198  36.672  13.759
55721W        W23939   3.947  14.408  13.552
55722W        W23940  43.006  12.552  14.712
55723W        W23941  17.165   1.766   0.362
55724W        W23942  18.133  43.545  11.939
55725W        W23943  28.620  41.698   2.773
55726W        W23944   9.755  18.116   4.046
55727W        W23945  29.223  14.474  11.970
55728W        W23946   9.685  29.307   0.349
55729W        W23947  14.038  34.983   4.673
55730W        W23948  17.057  16.367   3.548
55731W        W23949  38.630  24.014  13.976
55732W        W23950   8.687  25.031   1.383
55733W        W23951  41.800  29.746  14.370
55734W        W23952  15.116  16.045  11.996
55735W        W23953  36.591  33.840  12.371
55736W        W23954  22.600  42.882  12.265
55737W        W23955  26.557   1.852  13.366
55738W        W23956  28.142  39.068  11.536
55739W        W23957  44.468  39.396   3.955
55740W        W23958  23.267  33.920   3.872
55741W        W23959   4.898  15.742   4.462
55742W        W23960  26.657  15.699  13.767
55743W        W23961   8.819  34.244  14.030
55744W        W23962  21.091  31.041   3.825
55745W        W23963   1.746  13.640   0.384
55746W        W23964  24.081  17.098   1.141
55747W        W23965  41.889  20.796  10.419
55748W        W23966  21.167   2.319   5.011
55749W        W23967  29.532  15.782   3.596
55750W        W23968  20.537   4.760  13.293
55751W        W23969  15.379  11.155  14.983
55752W        W23970   8.049  30.004   0.977
55753W        W23971  40.250  28.016   2.197
55754W        W23972  34.199   0.269   2.783
55755W        W23973   1.431  23.137   4.215
55756W        W23974  32.117  34.512   2.606
55757W        W23975  41.248   3.284  11.051
55758W        W23976  34.577  27.035  11.946
55759W        W23977  43.081  28.134  12.855
55760W        W23978  21.690  36.039   1.155
55761W        W23979   0.934  12.466  14.017
55762W        W23980  38.931  22.296   3.734
55763W        W23981   1.825  10.245   1.377
55764W        W23982  16.338   8.249  12.984
55765W        W23983  11.802  36.107  12.090
55766W        W23984  11.120   8.331  12.007
55767W        W23985   0.185  30.886  14.901
55768W        W23986  25.927  10.858  11.155
55769W        W23987  24.123  26.392   1.232
55770W        W23988  31.516  22.241  14.446
55771W        W23989  23.964  21.625   1.530
55772W        W23990   1.973  20.064   4.031
55773W        W23991  12.096  42.967  14.619
55774W        W23992  25.189   6.709   1.792
55775W        W23993  25.926  15.633  11.996
55776W        W23994   3.267   7.300  14.805
55777W        W23995   1.410  29.357   0.458
55778W        W23996  24.970   6.912   3.539
55779W        W23997   5.961  13.823  11.548
55780W        W23998  33.145  29.362  13.244
55781W        W23999  19.042  15.652   1.253
55782W        W24000  14.030  20.147  14.031
55783W        W24001  16.252  15.984   1.189
55784W        W24002  33.306  28.480   2.692
55785W        W24003  12.708  40.434   4.875
55786W        W24004  44.890  39.292  11.641
55787W        W24005  29.050  24.798   2.596
55788W        W24006  21.788  37.473   2.326
55789W        W24007  40.637  40.923  13.351
55790W        W24008  27.132  23.752   1.796
55791W        W24009  34.045   9.598  11.711
55792W        W24010  32.177  44.570   4.510
55793W        W24011   3.989  44.195  13.322
55794W        W24012   2.005  11.654  11.903
55795W        W24013   4.434  14.633   1.195
55796W        W24014  24.229  11.376  10.763
55797W        W24015  19.850   4.254  12.888
55798W        W24016   5.691   7.214   0.143
55799W        W24017  26.041  26.146  11.681
55800W        W24018   3.289  26.167   0.541
55801W        W24019  38.954  10.848   0.876
55802W        W24020  35.615  44.886   0.940
55803W        W24021  24.435  41.833   2.705
55804W        W24022  43.047  17.260   1.884
55805W        W24023   0.264  18.108   0.431
55806W        W24024  11.280  33.617  13.584
55807W        W24025  14.852  39.605  13.060
55808W        W24026   5.670  10.641   2.287
55809W        W24027  37.453  34.992  13.474
55810W        W24028  43.765   0.478  13.486
55811W        W24029  25.264  11.819   2.304
55812W        W24030  35.160  23.584  10.861
55813W        W24031  20.945  21.158  10.685
55814W        W24032  32.695  11.333   0.940
55815W        W24033  17.333   4.687  12.541
55816W        W24034  10.200  36.911  12.402
55817W        W24035  38.498  21.508  10.905
55818W        W24036  44.280  15.692   0.073
55819W        W24037  26.504  24.899  10.355
55820W        W24038  12.523  12.128  10.532
55821W        W24039  25.109  42.022   2.283
55822W        W24040  36.615  14.136  14.000
55823W        W24041  40.618  36.536   2.198
55824W        W24042  14.735  23.423   0.296
55825W        W24043  40.790  31.087   4.792
55826W        W24044   5.803  35.323   3.883
55827W        W24045  20.033  38.016   3.100
55828W        W24046  32.585  21.100  13.423
55829W        W24047  28.610   7.435  14.613
55830W        W24048  12.699   1.009  12.567
55831W        W24049   9.186  35.061   1.274
55832W        W24050  36.518   7.107  14.723
55833W        W24051  43.294  30.621   4.120
55834W        W24052  32.714   7.719   2.545
55835W        W24053  14.570  25.644  13.312
55836W        W24054   9.197  22.968  13.123
55837W        W24055  28.639  33.200   4.202
55838W        W24056  27.166  37.462  10.462
55839W        W24057  40.146  36.201  10.408
55840W        W24058   8.930   0.989   1.397
55841W        W24059  13.718  30.133  10.808
55842W        W24060  14.777  16.659  12.803
55843W        W24061  32.830  41.420  10.488
55844W        W24062  11.587  23.183   2.489
55845W        W24063  43.326   1.460   0.459
55846W        W24064  27.929  14.077   0.849
55847W        W24065  40.566   6.043   1.240
55848W        W24066  35.343  31.989  10.680
55849W        W24067  40.448  19.942   3.145
55850W        W24068   5.474  44.581   1.855
55851W        W24069   3.023  27.535   0.830
55852W        W24070  18.680   2.144   4.042
55853W        W24071  18.328  33.453  13.009
55854W        W24072  42.818  40.034   3.968
55855W        W24073  33.102  23.510  12.479
55856W        W24074  42.831  23.955   2.797
55857W        W24075   3.205  42.926  10.756
55858W        W24076  18.200   6.953   3.135
55859W        W24077  42.344  24.592  12.426
55860W        W24078   8.376  30.617   2.338
55861W        W24079  21.995   7.243  14.020
55862W        W24080  44.616  18.569   3.879
55863W        W24081  33.616  17.652   1.829
55864W        W24082  33.079  43.250   3.648
55865W        W24083   7.677   5.165  14.521
55866W        W24084  17.593  25.961   4.220
55867W        W24085   9.362  13.140  11.558
55868W        W24086   4.883  31.460   0.615
55869W        W24087  33.225  15.052  13.601
55870W        W24088   9.614  24.223  11.996
55871W        W24089  14.589  29.042   0.022
55872W        W24090   0.379  36.393   2.657
55873W        W24091  28.387  17.186   3.657
55874W        W24092  17.679  16.063   1.341
55875W        W24093  41.603  29.000   2.722
55876W        W24094   6.783  43.089   0.252
55877W        W24095  39.286   4.040   3.183
55878W        W24096  17.569   1.538  11.985
55879W        W24097   6.818  18.602  12.658
55880W        W24098   8.403  15.030   0.952
55881W        W24099  32.546  36.918   1.354
55882W        W24100  38.376  22.736  12.138
55883W        W24101  37.380  19.487  11.079
55884W        W24102  23.021   7.126  13.430
55885W        W24103   5.703  19.150   4.667
55886W        W24104  29.149   8.745   2.148
55887W        W24105  36.985   1.766   9.788
55888W        W24106  25.678   7.419  11.944
55889W        W24107  36.008  19.562   5.057
55890W        W24108  41.817  25.526   0.800
55891W        W24109  39.063  41.148   1.834
55892W        W24110  39.960  36.353  14.753
55893W        W24111  22.839  30.096   1.059
55894W        W24112  23.572  36.221  12.417
55895W        W24113   3.449  28.213   1.414
55896W        W24114   2.406  35.914  13.429
55897W        W24115  35.589  18.368  14.848
55898W        W24116  16.323  35.824   3.367
55899W        W24117  12.807  34.887  14.364
55900W        W24118  33.509   7.664   2.303
55901W        W24119  31.163  38.860  12.724
55902W        W24120  41.459   7.655   3.697
55903W        W24121  38.818  37.919  14.271
55904W        W24122  33.062  25.649  11.913
55905W        W24123  23.581  27.139  12.049
55906W        W24124  18.518   6.391   4.035
55907W        W24125  18.957  11.650  11.593
55908W        W24126  12.678  27.447   2.245
55909W        W24127  28.709  31.450   1.844
55910W        W24128  17.295   8.436   3.886
55911W        W24129  11.089  20.807   4.265
55912W        W24130  16.076  31.997   2.617
55913W        W24131  35.833   2.928   2.837
55914W        W24132   2.370  25.090  12.198
55915W        W24133   1.826  33.395  14.535
55916W        W24134  31.382  37.121   0.896
55917W        W24135   7.261   9.426   0.509
55918W        W24136  31.578  23.528  13.280
55919W        W24137  13.725  12.685  10.484
55920W        W24138  40.558   2.432   2.840
55921W        W24139  42.722  17.659   0.767
55922W        W24140  34.532  33.155   0.699
55923W        W24141  10.393  40.504   4.265
55924W        W24142  28.624  19.544  14.892
55925W        W24143  24.183  12.747  12.980
55926W        W24144  16.512  14.316  13.872
55927W        W24145  39.416  43.513   0.359
55928W        W24146  34.930  13.857   3.888
55929W        W24147  44.762   8.804   2.862
55930W        W24148  33.085  24.378  10.876
55931W        W24149  35.077  24.179   3.604
55932W        W24150  39.464  29.851  11.625
55933W        W24151   8.207  17.774   1.303
55934W        W24152  43.062  40.422  10.567
55935W        W24153  15.023   9.854   0.311
55936W        W24154  31.849  21.326   4.042
55937W        W24155  36.694  26.944  10.047
55938W        W24156   7.723  24.580   1.874
55939W        W24157  32.410  40.469   0.412
55940W        W24158  43.900  44.085   0.360
55941W        W24159  42.004   4.646   0.759
55942W        W24160   9.725   6.314   3.215
55943W        W24161  44.704   2.355   0.026
55944W        W24162   7.763   8.752  12.923
55945W        W24163  42.369  38.319  13.442
55946W        W24164  15.087  17.869  11.163
55947W        W24165  36.654  37.513   2.907
55948W        W24166  33.581   3.934   2.846
55949W        W24167  14.500  17.300  14.930
55950W        W24168  28.545  11.545  10.659
55951W        W24169   3.236  24.123   3.582
55952W        W24170   3.208  32.057   4.891
55953W        W24171   8.220  14.323  14.226
55954W        W24172  10.474  26.750  14.271
55955W        W24173  22.059  38.035   4.354
55956W        W24174  41.739  22.987  13.236
55957W        W24175  18.545   4.182   2.817
55958W        W24176  28.615  32.690   4.329
55959W        W24177  37.108  11.108  10.994
55960W        W24178  11.205  30.514  12.306
55961W        W24179  41.688  25.139  12.548
55962W        W24180  37.587  43.777   4.884
55963W        W24181   5.386  31.013   0.182
55964W        W24182  27.930  25.781   4.111
55965W        W24183   4.959  23.599   2.687
55966W        W24184  42.792  30.747  11.238
55967W        W24185   4.344  27.497  11.428
55968W        W24186  17.759  40.206   3.955
55969W        W24187  15.729  18.720   4.613
55970W        W24188  18.244  30.819  11.297
55971W        W24189  25.109  14.755   1.975
55972W        W24190  22.663   7.881   0.883
55973W        W24191   4.432  21.778   1.711
55974W        W24192  15.616  37.453   0.434
55975W        W24193  24.436  14.099   0.717
55976W        W24194  24.864  12.718   3.834
55977W        W24195  13.114   7.123   4.114
55978W        W24196  38.930  22.837   3.759
55979W        W24197   2.840  43.827   3.224
55980W        W24198  36.671  36.415  14.968
55981W        W24199  43.025  12.651  13.195
55982W        W24200  10.650  39.434  14.242
55983W        W24201  33.918   9.258  12.509
55984W        W24202  12.304  30.984  14.802
55985W        W24203  42.118  19.051   3.838
55986W        W24204   0.707  36.378  14.530
55987W        W24205   1.941   9.931   2.832
55988W        W24206  23.529  12.240  13.763
55989W        W24207  10.051  40.590  13.858
55990W        W24208   4.218   0.454  10.536
55991W        W24209  37.964  43.379  12.986
55992W        W24210   5.483   8.924   4.058
55993W        W24211  28.101  40.908  14.044
55994W        W24212  30.962  17.386  12.208
55995W        W24213  39.873  29.536  11.827
55996W        W24214  19.950   6.412  12.596
55997W        W24215  21.660  13.640   4.181
55998W        W24216  14.671  38.835   0.574
55999W        W24217  32.483  18.448   1.629
56000W        W24218   1.015  40.957  13.011
56001W        W24219  24.109  13.587  13.498
56002W        W24220  26.432   7.901  12.200
56003W        W24221  30.645   4.746  12.834
56004W        W24222   4.689  24.413  14.847
56005W        W24223  12.791  38.979   0.685
56006W        W24224   0.782  42.563   3.143
56007W        W24225  44.893  26.598   4.571
56008W        W24226  14.307  28.250  10.730
56009W        W24227  18.083   6.976  11.307
56010W        W24228  14.641   9.523   1.494
56011W        W24229  37.012  21.856   3.745
56012W        W24230  40.887   4.166  11.944
56013W        W24231   6.663  12.727  14.329
56014W        W24232  29.403   9.510  14.785
56015W        W24233  22.157  20.073  14.040
56016W        W24234   9.804   3.007   4.511
56017W        W24235  28.229  13.453  10.130
56018W        W24236  31.649  14.363   3.489
56019W        W24237  26.622  29.455  14.315
56020W        W24238   7.687  18.354   5.120
56021W        W24239   4.751  28.779  11.527
56022W        W24240   3.160  25.642   1.989
56023W        W24241  28.060  33.288  12.629
56024W        W24242  34.278  22.799  13.821
56025W        W24243  27.066  35.528  10.839
56026W        W24244  39.275   7.742   1.257
56027W        W24245  26.448  28.577  14.347
56028W        W24246  27.680  36.999   1.298
56029W        W24247  11.607  24.570  12.821
56030W        W24248  43.271  38.358   4.139
56031W        W24249  26.132  29.201  13.830
56032W        W24250  30.346  43.527  13.956
56033W        W24251  23.883  18.048   0.492
56034W        W24252  19.648  16.572  11.484
56035W        W24253   4.434   9.097  13.470
56036W        W24254   3.139  24.967   2.163
56037W        W24255  37.037   3.357   2.223
56038W        W24256   7.244  40.609   2.209
56039W        W24257   0.497  27.951   1.403
56040W        W24258  25.086  43.357  10.664
56041W        W24259  36.874  32.622  12.920
56042W        W24260  35.281  33.023  13.880
56043W        W24261  17.575   3.719   1.864
56044W        W24262  41.997   4.850  13.890
56045W        W24263  42.035  18.304   2.721
56046W        W24264  24.877  20.274  13.292
56047W        W24265  13.231  14.631   1.246
56048W        W24266   4.222  28.110  13.003
56049W        W24267  35.578  41.517  11.321
56050W        W24268  23.236  36.599   4.347
56051W        W24269   9.174  40.370   3.658
56052W        W24270  22.214  10.911   1.268
56053W        W24271  37.652  13.894   4.259
56054W        W24272  37.120  28.840  13.528
56055W        W24273  30.117  25.096   4.388
56056W        W24274  41.238   5.371  14.017
56057W        W24275  43.255   3.751   0.830
56058W        W24276  19.132  16.256  14.853
56059W        W24277  12.660  10.792   2.776
56060W        W24278  16.733  31.423   4.528
56061W        W24279  23.438  40.516  13.449
56062W        W24280  38.702  38.876  10.090
56063W        W24281  13.237   3.908  14.983
56064W        W24282  21.240   0.808   0.288
56065W        W24283  13.302   0.976   3.254
56066W        W24284  43.045  17.218   3.152
56067W        W24285  29.887  13.043  10.707
56068W        W24286  44.442  26.653   4.807
56069W        W24287  11.038  41.446  14.868
56070W        W24288   7.403  39.939   3.663
56071W        W24289   2.312  38.522  10.664
56072W        W24290   5.443  26.408   1.052
56073W        W24291  26.784   5.733   0.432
56074W        W24292   3.884  10.747  12.857
56075W        W24293  24.270  35.959   0.020
56076W        W24294  15.580   0.856   3.352
56077W        W24295  18.066  22.073   4.139
56078W        W24296  13.349  32.566  10.571
56079W        W24297  15.078   4.086  11.699
56080W        W24298  15.306  32.480  10.740
56081W        W24299  25.209  37.112   0.235
56082W        W24300  42.132  30.508  11.067
56083W        W24301   5.088  38.150  12.563
56084W        W24302  28.501  19.025   1.769
56085W        W24303  22.552  41.372  10.723
56086W        W24304  26.989  24.012  11.975
56087W        W24305  15.145   9.593  14.807
56088W        W24306  37.720   8.675  12.886
56089W        W24307  29.029   4.904   4.634
56090W        W24308  29.571  38.001  12.440
56091W        W24309  43.956  44.288  11.180
56092W        W24310  31.673  31.506  11.019
56093W        W24311  32.018  13.819  13.645
56094W        W24312  22.063  16.164   0.432
56095W        W24313  42.117  26.618   4.072
56096W        W24314  36.917  15.250  10.681
56097W        W24315  34.197  13.780   2.295
56098W        W24316  10.160  38.540   1.419
56099W        W24317  16.344  32.607  12.772
56100W        W24318  34.389  30.967   3.177
56101W        W24319  11.560   0.255   1.753
56102W        W24320  20.698  40.794   3.683
56103W        W24321  30.880  38.477   2.241
56104W        W24322  44.150  13.743  10.256
56105W        W24323  25.540   6.516   0.503
56106W        W24324  13.263  24.021   0.850
56107W        W24325  31.351   1.275   4.170
56108W        W24326  18.352  32.548   2.265
56109W        W24327   1.465  22.163  10.753
56110W        W24328   3.491  31.828   4.534
56111W        W24329  23.660  32.762  13.838
56112W        W24330  21.392  17.798  12.794
56113W        W24331   0.809  31.022   1.042
56114W        W24332  19.981  19.536   2.614
56115W        W24333  24.187  18.560  14.591
56116W        W24334   8.159  23.706  13.895
56117W        W24335  34.893  14.786  13.587
56118W        W24336  36.470   9.652  14.250
56119W        W24337  19.306   7.237  13.833
56120W        W24338  15.478   8.755   2.668
56121W        W24339   8.408  22.749  14.112
56122W        W24340  23.304  36.881   4.816
56123W        W24341   6.840  28.234   4.109
56124W        W24342  14.572  38.524   4.114
56125W        W24343  31.562   1.849  14.152
56126W        W24344  19.918  21.090  14.805
56127W        W24345  17.898  13.124   4.357
56128W        W24346   0.300  13.537  13.370
56129W        W24347  36.903  18.601   1.621
56130W        W24348  26.423  17.514   4.826
56131W        W24349   1.908  28.110  10.721
56132W        W24350   7.165  38.826   2.400
56133W        W24351  11.618  10.058   3.704
56134W        W24352  12.800  40.404   0.371
56135W        W24353  30.529  13.851  11.488
56136W        W24354  43.582  24.653  12.036
56137W        W24355  25.931  23.600  11.070
56138W        W24356   0.598   7.120  12.428
56139W        W24357  33.276  42.846  11.181
56140W        W24358  38.364   8.390   3.710
56141W        W24359  43.946  35.469   4.584
56142W        W24360  26.131  25.276   5.168
56143W        W24361  33.086   6.746  14.759
56144W        W24362  26.496   1.916   4.175
56145W        W24363   7.426   9.969   3.037
56146W        W24364  38.969   5.248  13.618
56147W        W24365  21.041  31.069   0.296
56148W        W24366  35.085  42.945   3.551
56149W        W24367  25.628  20.614  12.336
56150W        W24368  12.356  34.119  11.095
56151W        W24369  22.254  10.454  14.904
56152W        W24370  25.504  23.459  12.800
56153W        W24371  35.632  31.109  14.005
56154W        W24372  32.218   5.793   0.344
56155W        W24373   3.828  41.969   2.214
56156W        W24374  20.699  18.224  12.149
56157W        W24375   6.745  12.339   4.627
56158W        W24376   6.262  19.536   9.742
56159W        W24377  21.143   5.755   0.492
56160W        W24378  22.743  18.261   4.093
56161W        W24379  37.905   0.318   5.630
56162W        W24380  10.664  21.019  12.329
56163W        W24381  24.046  23.036   1.517
56164W        W24382  36.382  14.082   0.823
56165W        W24383  38.087  35.870  13.205
56166W        W24384  32.988   6.253  11.154
56167W        W24385  26.063   8.268  14.495
56168W        W24386  40.067  28.284   0.643
56169W        W24387   7.388   6.833   2.391
56170W        W24388  41.302  39.426  14.817
56171W        W24389  27.046   3.091   2.775
56172W        W24390  30.721  31.562  12.017
56173W        W24391  13.577   1.487   4.175
56174W        W24392  40.736   6.288   4.400
56175W        W24393  17.147  37.402  12.565
56176W        W24394  29.643  19.770  13.846
56177W        W24395  31.856   7.851   3.584
56178W        W24396   9.889  19.719  13.038
56179W        W24397   8.403   8.641   3.659
56180W        W24398  31.014  36.935  13.512
56181W        W24399  29.073  44.291   4.158
56182W        W24400  41.881   3.844   2.229
56183W        W24401  16.433  42.832   5.035
56184W        W24402  41.034   2.849  14.954
56185W        W24403   1.878  25.925   5.123
56186W        W24404  34.510  13.388   0.890
56187W        W24405   8.294  26.095  10.671
56188W        W24406  22.764   6.908   2.847
56189W        W24407  29.334  19.592  10.739
56190W        W24408  18.205   7.684   1.169
56191W        W24409   9.717   7.470  12.223
56192W        W24410  37.937   1.976  12.138
56193W        W24411  14.287  29.688  14.880
56194W        W24412  34.878  31.909  11.581
56195W        W24413  23.261  20.079   3.150
56196W        W24414  29.450  35.008   0.836
56197W        W24415  24.751   7.741   0.833
56198W        W24416  31.432  23.502   3.626
56199W        W24417  23.449  17.262   2.646
56200W        W24418  29.639  42.023  10.760
56201W        W24419  30.228  40.965   0.360
56202W        W24420  11.329  16.771  12.559
56203W        W24421   5.717  31.068  10.720
56204W        W24422  14.771  43.985  13.731
56205W        W24423  11.311   3.613   1.689
56206W        W24424   3.920   7.500  11.444
56207W        W24425   7.823  40.891   3.228
56208W        W24426  11.286   0.220   2.939
56209W        W24427  20.117   9.254   1.378
56210W        W24428  31.761  10.190   3.152
56211W        W24429  41.001  31.541   0.591
56212W        W24430   9.601  37.260  10.240
56213W        W24431  21.012  32.658   4.466
56214W        W24432  14.647  40.523  11.928
56215W        W24433   7.875  31.149  11.170
56216W        W24434  44.180   6.961  13.413
56217W        W24435  28.430  14.263  11.600
56218W        W24436  42.338  44.080   0.744
56219W        W24437  16.337  28.267   3.223
56220W        W24438  28.659  41.969  11.866
56221W        W24439  43.231  27.726  11.136
56222W        W24440  29.883  40.745   0.658
56223W        W24441  11.108  23.441  13.433
56224W        W24442  30.221   5.264  10.718
56225W        W24443  39.304  30.014  14.525
56226W        W24444  28.669   8.743  11.646
56227W        W24445  43.516   8.086   2.159
56228W        W24446   4.329  40.028  13.082
56229W        W24447  32.640   4.094  12.534
56230W        W24448   3.432  22.576   1.689
56231W        W24449  31.163  14.370  12.661
56232W        W24450  43.519  41.929  11.940
56233W        W24451  29.394  19.694   0.243
56234W        W24452   2.847   1.318  14.110
56235W        W24453   3.945  22.539  10.654
56236W        W24454  42.232  19.071   4.387
56237W        W24455  28.147  18.646   1.692
56238W        W24456  28.856  19.345   0.372
56239W        W24457   7.705  23.459  12.985
56240W        W24458  36.471  27.153   2.402
56241W        W24459  33.529  37.336  14.598
56242W        W24460   6.486   3.943  11.894
56243W        W24461  21.181  37.480  10.715
56244W        W24462  32.098  21.024  14.993
56245W        W24463  41.276  27.646  12.074
56246W        W24464   3.723  23.512   0.629
56247W        W24465   0.336  23.268  14.963
56248W        W24466  12.988  19.101  10.479
56249W        W24467  34.588  26.643   1.791
56250W        W24468  43.203  14.253   9.923
56251W        W24469  36.673  15.155  11.988
56252W        W24470  10.750  25.200  14.861
56253W        W24471  25.545  27.548  12.821
56254W        W24472  31.793  19.462  11.070
56255W        W24473  42.714  31.390   3.330
56256W        W24474  36.340   3.238  14.536
56257W        W24475   8.356  32.191   3.053
56258W        W24476   1.460   3.983  14.330
56259W        W24477  39.583  35.214  11.581
56260W        W24478   0.284  26.347  13.330
56261W        W24479  44.628  39.148  11.213
56262W        W24480   5.291  31.379  11.664
56263W        W24481  15.752   2.643   4.624
56264W        W24482   3.904   2.710   2.326
56265W        W24483   1.545  34.350  14.330
56266W        W24484  27.228  12.123   0.547
56267W        W24485  25.492   6.978  12.157
56268W        W24486  41.276  30.831   3.229
56269W        W24487   4.440  38.330  12.026
56270W        W24488  15.765  36.465   3.580
56271W        W24489  18.115   3.610   5.042
56272W        W24490   7.408   1.499  12.079
56273W        W24491   2.865  40.771   2.298
56274W        W24492  26.362  30.562  11.524
56275W        W24493  10.598  17.254  13.188
56276W        W24494  30.619  42.691  13.965
56277W        W24495  21.306  36.886   0.880
56278W        W24496  38.013  36.752  10.723
56279W        W24497   5.863   1.428   1.598
56280W        W24498   3.489  11.068  11.038
56281W        W24499  15.795  32.894   3.365
56282W        W24500  23.697  17.080   3.360
56283W        W24501   2.415  40.101   4.425
56284W        W24502  42.939  37.470   3.873
56285W        W24503  27.131  44.753   4.305
56286W        W24504  15.768  36.154  12.685
56287W        W24505  26.481   9.420   2.419
56288W        W24506  10.639  44.263   4.209
56289W        W24507  34.807  10.247  11.751
56290W        W24508   3.205   7.355  10.621
56291W        W24509   5.780   1.395  13.379
56292W        W24510  19.206   0.975   0.826
56293W        W24511   5.012   3.529  12.093
56294W        W24512  20.491   6.764   0.584
56295W        W24513   8.530  37.430   4.560
56296W        W24514   0.931  23.402  12.435
56297W        W24515  13.307   2.013  13.481
56298W        W24516   3.946   7.291  11.912
56299W        W24517  43.471   5.209   2.866
56300W        W24518  28.016  44.756   0.412
56301W        W24519  33.965  37.819  14.040
56302W        W24520  17.227  18.060  12.288
56303W        W24521  25.419  39.013   2.957
56304W        W24522  18.607  21.191   0.024
56305W        W24523  14.634   7.205   0.764
56306W        W24524  19.810   2.274  14.521
56307W        W24525   5.603   6.555  13.307
56308W        W24526  23.605   8.233   3.170
56309W        W24527   3.444  17.994   1.786
56310W        W24528  11.562  14.920  11.904
56311W        W24529  26.708   2.009  12.840
56312W        W24530  39.099  20.516  13.969
56313W        W24531  36.604   7.784  11.992
56314W        W24532  11.325  24.433  14.941
56315W        W24533   6.077  33.803   2.428
56316W        W24534  27.971  38.765   1.857
56317W        W24535  25.213  19.971   1.734
56318W        W24536  25.500  33.029  11.346
56319W        W24537   5.724   7.719  14.994
56320W        W24538  12.100   5.932   3.382
56321W        W24539  43.823  20.225  10.739
56322W        W24540  39.303  16.512   0.382
56323W        W24541  31.131  19.136   1.303
56324W        W24542  31.368  28.010  13.966
56325W        W24543   8.863  24.447   3.722
56326W        W24544  32.452   9.452  13.507
56327W        W24545  24.786   3.255  10.687
56328W        W24546  10.401   8.021   0.348
56329W        W24547  36.455  11.144  11.509
56330W        W24548   2.286  22.654   2.722
56331W        W24549  34.411  24.564  13.864
56332W        W24550  11.148  24.957   2.114
56333W        W24551  17.367   0.827   1.351
56334W        W24552  11.935  14.719  12.428
56335W        W24553  43.974  29.170  11.151
56336W        W24554  41.268  37.242  11.176
56337W        W24555   2.725  17.810  12.001
56338W        W24556  27.707  17.733   1.714
56339W        W24557  31.616  25.146  14.310
56340W        W24558  33.505   0.404   3.939
56341W        W24559  12.690  37.601   4.666
56342W        W24560  43.093  34.563   2.973
56343W        W24561   0.676  12.798   1.424
56344W        W24562  26.100  10.588   1.296
56345W        W24563  12.926  20.252   2.789
56346W        W24564   4.855  15.520  13.182
56347W        W24565  16.528   1.999  12.018
56348W        W24566  44.038   4.910  11.153
56349W        W24567  24.220   5.311  14.795
56350W        W24568  15.242  10.618   4.573
56351W        W24569  44.908  26.071   0.625
56352W        W24570   5.978  32.259  11.585
56353W        W24571  37.921   9.462   0.578
56354W        W24572  33.569  25.435  12.679
56355W        W24573   3.503  10.025   0.074
56356W        W24574  15.270   5.407   3.375
56357W        W24575  32.401  19.604  13.384
56358W        W24576   3.627  29.462  14.057
56359W        W24577  30.378  25.528  14.294
56360W        W24578  44.592  44.405  12.073
56361W        W24579  33.447  44.841   1.298
56362W        W24580  43.511  37.599  10.489
56363W        W24581  19.366  34.353  14.496
56364W        W24582  26.777  40.384  12.907
56365W        W24583  42.245  37.827  12.629
56366W        W24584  14.819   0.483  10.741
56367W        W24585  19.225  25.013   1.368
56368W        W24586  25.436  14.406  10.671
56369W        W24587  29.037  36.515   1.250
56370W        W24588  42.446  24.731   2.676
56371W        W24589  24.418  16.630  11.530
56372W        W24590  25.482  41.292   1.422
56373W        W24591   8.324  24.115   1.688
56374W        W24592  27.078  22.442   3.608
56375W        W24593   7.195  41.093  11.458
56376W        W24594  23.851  23.132   9.879
56377W        W24595  19.134   5.098   3.097
56378W        W24596  21.541   9.802   3.946
56379W        W24597  12.398  30.077   1.019
56380W        W24598  30.610   8.400  13.893
56381W        W24599  36.151  32.221  10.138
56382W        W24600  25.028  34.610  13.280
56383W        W24601  34.412  32.921  10.760
56384W        W24602   0.310  12.338  12.365
56385W        W24603  26.739  38.365   1.429
56386W        W24604   1.440  34.818  13.879
56387W        W24605   9.341  28.102   4.857
56388W        W24606  19.623   2.832   4.581
56389W        W24607  42.271  12.312  14.386
56390W        W24608  22.615   1.377   0.774
56391W        W24609  35.022  14.042  14.536
56392W        W24610  24.778  10.674   4.492
56393W        W24611  33.883  36.639   3.787
56394W        W24612   4.213  31.038  10.736
56395W        W24613  23.945  29.612   4.632
56396W        W24614  43.401  24.537  11.556
56397W        W24615  12.576   7.191  11.071
56398W        W24616  39.415  39.410   1.058
56399W        W24617  25.521  14.677   4.974
56400W        W24618  12.733  13.179  12.340
56401W        W24619   2.952  21.505   4.165
56402W        W24620  26.269   2.452  11.071
56403W        W24621  19.628   9.952  12.850
56404W        W24622  41.360  25.599  13.933
56405W        W24623  23.552  36.842   0.791
56406W        W24624  12.908  44.469  11.518
56407W        W24625  34.626  11.223  10.703
56408W        W24626   4.988  25.582   1.452
56409W        W24627   4.674  29.470  12.270
56410W        W24628   6.293   9.278   1.221
56411W        W24629   0.284  16.654   3.106
56412W        W24630  13.080  32.218   0.785
56413W        W24631  42.296  43.751  14.997
56414W        W24632  43.723  12.289   4.570
56415W        W24633   3.329  40.528  13.816
56416W        W24634  23.666  31.712   2.346
56417W        W24635  20.367  15.609  13.358
56418W        W24636  35.313  11.719  10.688
56419W        W24637   4.696   0.949  14.328
56420W        W24638  37.537  11.202   4.133
56421W        W24639  21.605  10.663   2.386
56422W        W24640  11.239  16.050  14.431
56423W        W24641  20.100  22.488   4.789
56424W        W24642  37.789  29.583   4.183
56425W        W24643  13.172  29.647  11.659
56426W        W24644  33.580  32.104   4.547
56427W        W24645  39.007  39.536   3.430
56428W        W24646  26.396  23.170  12.851
56429W        W24647   6.399  39.075  13.183
56430W        W24648   1.916  19.275   2.755
56431W        W24649  11.751  23.248   3.179
56432W        W24650  12.156  11.531   0.321
56433W        W24651   4.541  23.782   3.383
56434W        W24652  43.877   3.293  12.484
56435W        W24653  43.152  14.173   4.594
56436W        W24654  32.364  13.265   4.550
56437W        W24655  32.200  13.429   1.274
56438W        W24656  23.654  35.133   5.146
56439W        W24657  19.218  23.646   3.223
56440W        W24658  20.057  12.744  14.079
56441W        W24659  28.728  26.140  11.803
56442W        W24660  16.067  15.921   3.685
56443W        W24661  41.833  15.684  10.188
56444W        W24662  19.569  19.118  14.518
56445W        W24663  24.039   7.336   0.529
56446W        W24664  41.917  32.586   3.326
56447W        W24665   0.253  21.630   0.364
56448W        W24666   8.216  14.061  12.069
56449W        W24667   7.643  32.583  12.984
56450W        W24668  17.609  22.528   0.907
56451W        W24669  37.388  18.135   1.499
56452W        W24670  10.127  20.375  12.021
56453W        W24671  34.506   5.494   4.335
56454W        W24672  36.639  39.774   1.826
56455W        W24673   3.893  34.426   1.839
56456W        W24674  33.786  42.090  13.849
56457W        W24675  39.908   2.259   1.172
56458W        W24676  14.764  27.498  10.621
56459W        W24677  30.460  44.846   4.748
56460W        W24678  41.820  39.831  12.607
56461W        W24679  19.734   8.366  11.142
56462W        W24680  35.019   4.145   3.744
56463W        W24681  19.948  15.292   0.090
56464W        W24682  27.600  28.650  12.782
56465W        W24683  17.493  18.086   2.332
56466W        W24684  30.879  17.219   2.915
56467W        W24685  27.530  39.921  12.829
56468W        W24686  26.534  18.685  10.549
56469W        W24687   2.771  30.564   2.170
56470W        W24688  43.458  15.652  13.318
56471W        W24689  43.350  14.322   2.189
56472W        W24690   9.402  17.138  11.568
56473W        W24691   3.276  35.152  11.092
56474W        W24692   1.752  12.469  11.779
56475W        W24693  28.990   9.718  11.516
56476W        W24694  44.887  20.102  12.064
56477W        W24695  35.351  35.917   0.192
56478W        W24696   8.644  35.862   3.783
56479W        W24697  27.597  23.707  14.458
56480W        W24698  42.279  43.496  11.633
56481W        W24699   4.743  31.983  12.532
56482W        W24700  28.486   9.979  14.967
56483W        W24701  37.320  10.436   0.181
56484W        W24702  36.605  23.576   1.336
56485W        W24703   3.066   5.647  12.640
56486W        W24704  16.072  33.665   4.837
56487W        W24705   5.476  35.608  13.387
56488W        W24706  14.922  11.212   3.032
56489W        W24707  25.319  31.406  13.984
56490W        W24708  24.594  14.347  10.847
56491W        W24709  28.485  15.805  11.166
56492W        W24710  13.649  28.638  14.389
56493W        W24711   2.851  33.709  13.939
56494W        W24712   3.469  39.240   1.249
56495W        W24713   9.325  26.713  11.116
56496W        W24714   1.962  15.010   2.268
56497W        W24715   9.207  29.715   1.494
56498W        W24716   7.071  36.073   3.773
56499W        W24717  32.073  16.664  10.743
56500W        W24718  21.546  29.155  10.662
56501W        W24719  40.785   9.804  12.477
56502W        W24720  43.487  41.379   3.709
56503W        W24721   6.546   6.924  10.739
56504W        W24722  25.715  21.840   4.905
56505W        W24723   3.247  38.636   2.121
56506W        W24724  23.118  33.962  12.539
56507W        W24725  20.658  32.997   1.442
56508W        W24726   1.043  32.999  10.361
56509W        W24727   4.335  30.743   2.421
56510W        W24728   2.063   6.904   2.663
56511W        W24729  12.034   8.796  10.411
56512W        W24730  29.583  36.522   1.418
56513W        W24731  32.535  36.339  12.937
56514W        W24732   6.422  13.835   0.896
56515W        W24733  44.216  39.335   0.372
56516W        W24734  24.208  35.000   3.785
56517W        W24735  24.179   4.422  10.625
56518W        W24736   6.765  32.181  12.026
56519W        W24737   2.399  36.414  12.007
56520W        W24738  31.107  16.851   3.283
56521W        W24739  38.348  16.408  13.475
56522W        W24740   5.618  40.457  11.213
56523W        W24741   3.213  10.325  13.633
56524W        W24742   0.682  10.327   4.190
56525W        W24743  29.032   7.404  14.315
56526W        W24744  23.635   4.963   4.482
56527W        W24745   1.161  41.764  12.024
56528W        W24746  41.884  11.420  11.130
56529W        W24747  11.329  36.985  11.461
56530W        W24748   9.034  28.508   4.921
56531W        W24749  44.501  20.982   1.665
56532W        W24750   8.276  12.352  13.367
56533W        W24751   1.281   6.480  11.446
56534W        W24752   5.885  12.712   4.912
56535W        W24753  34.912  43.717  13.423
56536W        W24754  10.031   8.180   0.007
56537W        W24755   6.407  26.754   0.950
56538W        W24756   2.272  12.880   1.367
56539W        W24757  12.058   4.519  12.180
56540W        W24758  23.224  24.625  11.453
56541W        W24759  15.647   8.345  11.116
56542W        W24760  19.812   0.717   0.410
56543W        W24761  11.793   1.040  10.001
56544W        W24762  10.574  40.484  13.902
56545W        W24763  22.030  41.765   2.742
56546W        W24764   4.130   2.344   1.910
56547W        W24765  36.924  37.983  10.553
56548W        W24766  38.535  34.897   3.681
56549W        W24767  14.173  35.890  10.540
56550W        W24768   1.991   7.744  10.481
56551W        W24769  14.704   0.914  13.412
56552W        W24770  15.400   6.730  11.552
56553W        W24771   8.159   7.841  10.588
56554W        W24772  35.844  18.732   2.757
56555W        W24773   0.313  26.483  12.356
56556W        W24774  40.358  30.021   2.162
56557W        W24775  19.715  20.694  12.120
56558W        W24776   2.345  10.373  11.673
56559W        W24777  24.546   4.342  14.841
56560W        W24778  31.486   2.871   1.060
56561W        W24779  18.629  36.055   1.814
56562W        W24780  31.843  14.052   1.861
56563W        W24781  34.961  43.451   0.961
56564W        W24782  14.150   7.091   4.383
56565W        W24783   4.710  24.472   1.232
56566W        W24784  27.976   5.579  10.765
56567W        W24785  32.084  37.173   1.351
56568W        W24786  36.773  28.427  12.756
56569W        W24787  10.635   2.810   2.583
56570W        W24788  20.033  36.814  14.336
56571W        W24789  22.967  27.038  14.903
56572W        W24790  24.661  42.788  10.666
56573W        W24791  14.291  14.714   1.375
56574W        W24792  41.868  40.861  13.067
56575W        W24793   7.426  14.389  14.983
56576W        W24794  40.155  19.566  12.586
56577W        W24795   1.723  25.218  11.626
56578W        W24796  28.725   0.377  10.997
56579W        W24797   4.600  18.849   0.875
56580W        W24798   0.882  27.441   1.868
56581W        W24799   0.317  12.177   1.357
56582W        W24800   3.873   5.156  13.355
56583W        W24801   7.904   9.636  12.078
56584W        W24802  25.223  39.049   0.244
56585W        W24803  31.676  15.731   3.291
56586W        W24804   6.409  12.896   1.170
56587W        W24805  40.401  21.024   9.687
56588W        W24806  25.583  44.209  12.508
56589W        W24807  32.750   0.099  12.581
56590W        W24808  19.756  19.840   1.441
56591W        W24809   8.191  32.069  14.326
56592W        W24810  10.272  22.215  12.133
56593W        W24811   2.654  13.648  14.855
56594W        W24812  26.601  25.504   5.094
56595W        W24813  16.852  35.292   1.454
56596W        W24814  18.248  29.683  14.083
56597W        W24815  37.483  41.431   3.824
56598W        W24816  17.034  23.480  13.244
56599W        W24817  18.677  40.308  10.400
56600W        W24818  40.989  26.094  10.581
56601W        W24819  20.674  24.041  14.287
56602W        W24820  43.266  17.688   0.770
56603W        W24821  15.842  38.377   3.596
56604W        W24822   9.846  38.819   2.636
56605W        W24823  27.619  14.175   2.293
56606W        W24824  37.890  14.646   2.422
56607W        W24825  35.645  14.709   3.232
56608W        W24826   6.236  11.790   4.044
56609W        W24827  32.847   3.996  13.059
56610W        W24828  18.536   3.873  14.372
56611W        W24829  18.685  24.633  14.325
56612W        W24830  25.624  31.131   3.166
56613W        W24831   7.064   1.467   3.122
56614W        W24832  15.023   3.552  13.768
56615W        W24833  21.498   6.768   4.027
56616W        W24834  16.279  15.264  13.381
56617W        W24835  40.530  18.319   0.025
56618W        W24836  13.239  31.737   0.916
56619W        W24837   4.197   1.512  14.396
56620W        W24838  20.808  25.063   3.147
56621W        W24839  19.099  16.589   3.688
56622W        W24840  26.470  32.825   3.903
56623W        W24841  12.692  22.286   4.649
56624W        W24842  14.076  44.506  13.435
56625W        W24843  23.189  20.841   4.307
56626W        W24844  28.444  14.434  14.462
56627W        W24845  24.441  25.618  10.710
56628W        W24846  23.873  41.889   3.602
56629W        W24847  12.361  24.602  14.951
56630W        W24848   0.310  41.309  11.700
56631W        W24849   3.903  43.061  12.707
56632W        W24850  29.043  15.408  10.956
56633W        W24851  40.892   2.038  11.750
56634W        W24852  38.920  15.037   0.120
56635W        W24853  12.138  34.402   0.444
56636W        W24854  37.380  26.130   0.178
56637W        W24855  23.569  21.647   1.863
56638W        W24856   8.711  30.165   2.805
56639W        W24857   3.274  34.590   1.939
56640W        W24858  17.750   3.923   2.335
56641W        W24859  30.604  30.363  10.438
56642W        W24860  13.129   6.195   2.474
56643W        W24861  27.323  39.913  11.974
56644W        W24862  25.391  24.410  13.578
56645W        W24863   4.286  13.653   0.776
56646W        W24864  29.464  37.501  10.068
56647W        W24865  29.192  42.251  10.579
56648W        W24866  32.522  40.312   1.817
56649W        W24867   9.174  19.479  13.445
56650W        W24868  44.744  32.885   3.822
56651W        W24869  26.538  11.219  10.667
56652W        W24870   6.869  38.958  12.984
56653W        W24871  18.524  12.201   4.055
56654W        W24872  20.725  24.495  14.531
56655W        W24873   3.732  11.565  10.881
56656W        W24874  39.448  41.457  11.876
56657W        W24875  28.981   9.026   3.196
56658W        W24876  40.801   8.021  12.535
56659W        W24877  26.891  41.615   5.264
56660W        W24878   7.988  25.571   4.768
56661W        W24879  27.051   0.196   0.982
56662W        W24880  12.460  24.869   4.679
56663W        W24881  17.054  32.372  14.813
56664W        W24882  31.942  28.814   1.417
56665W        W24883  44.679  20.120   2.817
56666W        W24884   6.809  14.065  13.792
56667W        W24885  15.311  43.474   0.841
56668W        W24886  10.235  22.794   2.157
56669W        W24887  20.759  35.931  13.849
56670W        W24888  21.197  33.263  13.945
56671W        W24889   6.869  38.133   4.221
56672W        W24890  30.714  43.189  13.873
56673W        W24891  28.632  20.243   3.639
56674W        W24892  38.530  13.781  10.838
56675W        W24893   4.405  35.362   2.378
56676W        W24894  13.155  26.285   4.176
56677W        W24895   4.712  20.853   0.943
56678W        W24896   7.687  36.310  11.886
56679W        W24897   0.901   7.603  13.835
56680W        W24898  23.474  17.273  13.041
56681W        W24899  31.581  39.510  14.049
56682W        W24900  29.353  37.932   2.884
56683W        W24901  40.860   3.722   0.231
56684W        W24902  21.005  39.999  14.813
56685W        W24903  15.110  38.748  11.049
56686W        W24904  34.829  38.390   3.573
56687W        W24905  38.754  24.577   1.352
56688W        W24906   6.646  38.843   3.170
56689W        W24907  38.987  31.056  13.113
56690W        W24908   9.790  19.234   3.294
56691W        W24909   6.243  33.084  10.612
56692W        W24910  40.805  41.272  12.999
56693W        W24911  43.812  27.905   4.614
56694W        W24912  37.614  38.113  12.005
56695W        W24913   5.013   9.727  11.956
56696W        W24914  15.588  39.866   1.513
56697W        W24915  24.241  20.655   2.650
56698W        W24916  15.642   8.744   1.810
56699W        W24917  41.432  10.396   1.599
56700W        W24918  25.707  20.201  12.899
56701W        W24919  36.770   4.527  13.954
56702W        W24920  23.334  29.238  14.063
56703W        W24921  15.728   2.777   4.098
56704W        W24922  34.589  35.045  11.049
56705W        W24923  27.390  40.974   2.426
56706W        W24924   5.309  23.701  10.460
56707W        W24925  42.988  14.686   4.722
56708W        W24926   3.545  40.123   0.489
56709W        W24927   1.536   8.375  12.344
56710W        W24928   3.758  27.413  12.656
56711W        W24929  29.934  29.434  14.892
56712W        W24930  10.550  44.525  13.782
56713W        W24931  35.132  35.553   3.792
56714W        W24932   3.914   4.131  11.385
56715W        W24933  25.443  32.493   1.749
56716W        W24934  27.591  18.914  14.390
56717W        W24935   7.788  28.686   2.421
56718W        W24936  14.243  15.154  14.817
56719W        W24937  11.971  22.089  10.203
56720W        W24938   2.310  13.167   0.613
56721W        W24939  28.176  15.333  11.285
56722W        W24940  41.248   6.372   0.534
56723W        W24941  11.418   7.332   0.356
56724W        W24942  17.816   4.400  11.191
56725W        W24943   2.717  22.632  13.431
56726W        W24944  31.021  31.195   3.866
56727W        W24945   6.473  28.795  12.991
56728W        W24946  29.553  35.220   4.056
56729W        W24947  37.097  20.788   0.193
56730W        W24948  23.881   0.789  13.706
56731W        W24949  16.067  26.544  11.879
56732W        W24950  37.541   9.332   1.351
56733W        W24951  19.067  30.109  11.535
56734W        W24952  16.207  44.489   4.387
56735W        W24953  23.446   7.315   3.324
56736W        W24954   0.252  43.470  12.373
56737W        W24955  26.727  19.143   2.248
56738W        W24956  41.076  14.347   2.098
56739W        W24957  17.215  18.118  14.009
56740W        W24958  14.068   7.719   1.666
56741W        W24959  11.599   7.988  14.568
56742W        W24960  44.050  36.023  12.045
56743W        W24961  34.088  28.418   1.158
56744W        W24962  37.814  15.826   0.933
56745W        W24963   6.306  20.630   2.322
56746W        W24964  28.370  17.246  12.002
56747W        W24965  34.549  28.393  12.062
56748W        W24966   4.832   8.383   0.264
56749W        W24967  10.884   9.045   3.337
56750W        W24968  21.418  32.510   4.726
56751W        W24969  19.933  42.466  10.701
56752W        W24970  11.382  44.372  11.573
56753W        W24971  29.613  42.490   2.110
56754W        W24972  32.405  10.624  12.430
56755W        W24973  28.089  28.945   3.670
56756W        W24974  40.503  14.154   1.982
56757W        W24975  42.802  35.730   4.359
56758W        W24976   5.925   5.721  14.219
56759W        W24977  34.558  39.219   1.208
56760W        W24978  25.870  26.121  12.169
56761W        W24979   0.928   1.794   4.152
56762W        W24980  20.568  20.211  10.663
56763W        W24981  22.442  23.725  12.897
56764W        W24982  38.706  18.053   3.418
56765W        W24983  14.194  37.696  12.137
56766W        W24984  36.570  25.067   5.022
56767W        W24985   7.789   4.894  12.418
56768W        W24986  27.044  36.722  11.635
56769W        W24987   8.381  21.733   1.774
56770W        W24988  27.543   7.090  13.816
56771W        W24989  40.271  27.698   3.300
56772W        W24990  25.651  22.572  12.845
56773W        W24991  17.849   7.262   0.759
56774W        W24992  34.055  24.044  13.158
56775W        W24993  39.460   5.217   0.934
56776W        W24994  26.882   4.316  11.651
56777W        W24995   2.831  39.614  12.860
56778W        W24996  34.577  18.580  10.686
56779W        W24997  29.036  24.507   3.450
56780W        W24998   3.276   3.218   2.898
56781W        W24999  16.621   7.039  14.827
56782W        W25000  38.936  34.147  11.213
56783W        W25001  40.284  25.165  11.111
56784W        W25002   7.748  26.021  11.969
56785W        W25003  13.286  13.949  14.684
56786W        W25004   1.113  43.904   3.135
56787W        W25005  24.105  37.830   2.297
56788W        W25006  43.791  18.139  13.877
56789W        W25007  37.300  22.581  11.327
56790W        W25008  38.304  23.975  10.947
56791W        W25009  12.179  17.056   1.870
56792W        W25010  18.645  36.867   3.166
56793W        W25011  30.594   5.423  12.584
56794W        W25012  34.778  37.853  14.406
56795W        W25013  25.686  14.566   3.100
56796W        W25014  31.451   3.751   0.598
56797W        W25015   2.688  14.202  13.592
56798W        W25016  23.964  31.108   0.583
56799W        W25017  11.009  41.748   3.662
56800W        W25018   9.436  25.697   4.078
56801W        W25019  11.819  14.143   5.061
56802W        W25020  11.643  26.922  11.469
56803W        W25021  31.209  31.912   2.251
56804W        W25022  36.672  12.152  14.300
56805W        W25023  25.975  25.576   1.676
56806W        W25024  37.837  38.969  13.003
56807W        W25025  14.953  13.719   1.955
56808W        W25026  29.138  17.670  11.944
56809W        W25027  44.589  11.839  10.921
56810W        W25028  41.286  44.847  12.236
56811W        W25029  11.900  40.463  11.258
56812W        W25030   3.392  42.474  10.068
56813W        W25031   6.470  42.253  10.769
56814W        W25032  44.835   1.176  14.274
56815W        W25033  16.314  24.447  11.621
56816W        W25034  31.307   2.905  14.218
56817W        W25035  25.433  10.979  11.182
56818W        W25036  36.819  44.953   3.780
56819W        W25037  18.186  30.614  14.509
56820W        W25038  19.738  37.530   2.400
56821W        W25039  42.385  14.355   3.722
56822W        W25040  29.314  29.728   1.775
56823W        W25041  32.786  32.878  10.925
56824W        W25042   9.649  37.547   2.290
56825W        W25043   1.707  19.169   1.745
56826W        W25044  41.156  21.145  11.372
56827W        W25045  41.959  21.259  13.082
56828W        W25046  14.722   9.148   3.020
56829W        W25047  44.854  30.098  14.483
56830W        W25048  27.381   3.789   1.702
56831W        W25049  44.571  30.399   4.600
56832W        W25050   8.158  40.323   0.635
56833W        W25051  20.496  38.368  13.099
56834W        W25052   7.629  23.724  11.223
56835W        W25053  20.768  11.128  10.900
56836W        W25054  22.726  41.475   1.492
56837W        W25055  12.617   7.100  12.572
56838W        W25056   9.716  17.139   0.945
56839W        W25057  12.845   0.479  11.691
56840W        W25058  23.800  35.391   3.859
56841W        W25059  20.977  24.088  11.124
56842W        W25060  21.655  18.014  12.410
56843W        W25061   9.970  38.374  11.457
56844W        W25062  28.070   4.918  14.789
56845W        W25063   8.261  39.328  12.227
56846W        W25064  13.542   2.835   3.074
56847W        W25065   1.620  41.949   3.161
56848W        W25066  44.920   0.447  11.626
56849W        W25067   1.865  15.678   2.779
56850W        W25068   3.897  41.445   2.716
56851W        W25069  13.799  13.305   0.794
56852W        W25070  39.341  44.504  11.121
56853W        W25071  18.574  21.145   3.371
56854W        W25072  41.518  23.608   0.265
56855W        W25073  41.605   3.372  11.417
56856W        W25074  16.071   7.895   4.638
56857W        W25075   0.823  26.277   3.297
56858W        W25076  40.460  28.113   3.564
56859W        W25077   5.388  20.230  12.860
56860W        W25078  25.289   4.312   1.367
56861W        W25079   5.528  33.534   2.353
56862W        W25080  42.276   0.916  10.580
56863W        W25081  39.910  37.131  10.971
56864W        W25082  22.513  14.885   3.724
56865W        W25083  36.977  10.171  10.806
56866W        W25084  24.691  29.735   1.744
56867W        W25085   6.886  20.169  14.251
56868W        W25086  38.102  27.039   2.265
56869W        W25087  15.564   7.170  13.514
56870W        W25088   9.047   0.390   2.920
56871W        W25089  28.902  29.360  10.469
56872W        W25090  32.453  38.031  10.672
56873W        W25091  12.958   2.893   4.227
56874W        W25092  17.774   5.524   0.354
56875W        W25093  36.417  11.419   2.189
56876W        W25094  14.162  27.747   0.892
56877W        W25095  41.915   6.171  11.507
56878W        W25096  15.445  13.646   1.653
56879W        W25097  37.614   5.609   0.877
56880W        W25098  27.028  22.324   4.555
56881W        W25099   5.862  10.288  11.947
56882W        W25100   6.883  34.438  14.923
56883W        W25101   9.916  28.696  14.852
56884W        W25102  34.343  25.049   0.939
56885W        W25103  31.086   5.261   2.254
56886W        W25104   4.907  20.014   3.975
56887W        W25105  28.381  22.301   3.707
56888W        W25106  32.417  10.832   0.260
56889W        W25107  23.307  42.539  14.308
56890W        W25108  32.394  17.136   4.780
56891W        W25109   6.160   7.438   0.393
56892W        W25110  33.898  29.605  14.824
56893W        W25111  24.217  25.021   3.793
56894W        W25112  39.147  34.507  13.242
56895W        W25113   6.475  14.394  10.485
56896W        W25114  29.175  24.119   0.490
56897W        W25115  35.847  19.467   3.725
56898W        W25116  37.264  25.382  12.477
56899W        W25117   9.740  22.658  10.688
56900W        W25118  38.562  13.205  13.141
56901W        W25119  32.553  16.069   4.166
56902W        W25120  25.572  14.794   0.315
56903W        W25121  36.810  29.155   1.721
56904W        W25122  26.247  38.896  13.713
56905W        W25123   9.691   5.384   3.514
56906W        W25124  15.712  30.217   1.338
56907W        W25125  35.811  20.089  13.788
56908W        W25126  27.207  41.447  11.995
56909W        W25127  33.333  28.021  10.900
56910W        W25128  15.819  42.903  13.410
56911W        W25129  35.747  27.946   0.872
56912W        W25130   4.699  39.091   3.711
56913W        W25131   6.503  35.289  11.161
56914W        W25132   5.724   1.849   1.879
56915W        W25133  35.090  34.544   0.850
56916W        W25134  42.796  41.010  13.137
56917W        W25135   3.087  23.989   4.071
56918W        W25136  10.220  36.946   1.166
56919W        W25137  44.527  26.996   0.068
56920W        W25138   7.701  16.846   0.797
56921W        W25139  32.453  43.234  13.391
56922W        W25140  16.484   6.662   1.704
56923W        W25141  11.679  16.566  14.817
56924W        W25142  24.021  16.199   4.306
56925W        W25143  39.327  37.504  10.795
56926W        W25144  44.827  43.258  14.300
56927W        W25145  40.912  39.433   3.450
56928W        W25146  33.096  11.320  14.267
56929W        W25147  44.710  44.445  14.317
56930W        W25148  35.127  18.985   3.243
56931W        W25149  17.193  27.206   3.207
56932W        W25150  27.628  42.104  12.860
56933W        W25151  19.263  29.574   3.566
56934W        W25152   4.770  33.810   1.787
56935W        W25153  17.910  38.465  12.152
56936W        W25154  23.716  33.857  12.926
56937W        W25155   8.796  10.635  11.566
56938W        W25156  11.361  14.130  12.490
56939W        W25157   6.547  34.001   2.327
56940W        W25158  18.357   3.251  11.079
56941W        W25159  42.319  43.022   2.259
56942W        W25160  29.182  25.021   2.125
56943W        W25161  31.575  21.444   2.245
56944W        W25162   6.413  44.699   1.835
56945W        W25163  30.334  23.828  11.221
56946W        W25164  16.253  16.939   3.829
56947W        W25165  21.448   1.477   4.832
56948W        W25166  31.633  41.586  14.508
56949W        W25167  42.350  39.541  13.848
56950W        W25168  32.131  42.346   2.052
56951W        W25169  10.338  41.601   1.595
56952W        W25170   0.830  29.729  14.755
56953W        W25171  43.005  17.242   3.692
56954W        W25172  10.403  44.561  11.051
56955W        W25173  41.511  27.145   4.151
56956W        W25174  38.335  33.804  11.912
56957W        W25175  14.339  20.950  14.915
56958W        W25176  15.218  28.183  13.891
56959W        W25177   1.901   3.237  10.932
56960W        W25178  21.252  41.582   1.239
56961W        W25179  14.135  31.818   3.341
56962W        W25180  31.043  26.444  10.303
56963W        W25181   3.746   0.357  10.344
56964W        W25182   7.770  18.534   4.103
56965W        W25183  27.190  43.860  13.982
56966W        W25184  31.563  43.492  14.313
56967W        W25185  40.490  29.606  13.038
56968W        W25186  24.110  44.072  12.562
56969W        W25187  37.772   8.698   4.856
56970W        W25188  29.455   8.166   4.745
56971W        W25189  32.909  31.592  13.751
56972W        W25190   9.820  20.268   4.636
56973W        W25191   6.280   9.556   1.702
56974W        W25192  28.198  25.267   3.255
56975W        W25193  26.701  44.380  14.290
56976W        W25194  21.302  39.763   0.201
56977W        W25195  27.458  27.886   1.696
56978W        W25196   9.588  42.318   1.991
56979W        W25197  19.354  15.563  10.705
56980W        W25198  37.589  28.184  11.056
56981W        W25199   5.916  17.692   5.478
56982W        W25200  34.976  18.464   2.498
56983W        W25201   8.278   3.792   2.185
56984W        W25202  23.756  44.638   2.434
56985W        W25203  26.243  38.626   3.808
56986W        W25204  26.145  13.686   3.728
56987W        W25205  34.580  44.467  11.701
56988W        W25206  29.595  26.166  13.406
56989W        W25207   4.853   6.721  10.202
56990W        W25208  31.459   7.721  10.913
56991W        W25209  29.930  12.385   4.072
56992W        W25210  14.558  29.065   3.968
56993W        W25211  20.382   3.268   4.573
56994W        W25212  21.503  33.557  11.861
56995W        W25213  10.735   3.914   4.283
56996W        W25214   7.260  15.392  10.674
56997W        W25215   2.803   1.410  14.602
56998W        W25216  29.194  19.233   0.769
56999W        W25217   1.296  23.565   4.444
57000W        W25218  11.723  20.694   1.848
57001W        W25219  17.667  17.801  13.961
57002W        W25220  42.454  23.092  12.631
57003W        W25221  18.704  40.147  14.884
57004W        W25222  28.898   7.174  11.106
57005W        W25223   3.513  42.745   0.794
57006W        W25224  31.224  36.716   4.316
57007W        W25225  20.258  39.883   3.347
57008W        W25226   3.627  21.140   4.686
57009W        W25227   3.438  43.760  12.527
57010W        W25228  38.820  44.318  13.571
57011W        W25229  15.360  16.473   1.222
57012W        W25230  23.489  31.540  11.568
57013W        W25231  12.308  19.128  12.570
57014W        W25232   9.625  22.673   4.471
57015W        W25233   9.964  25.780   4.963
57016W        W25234  35.068  29.137  14.233
57017W        W25235   4.945   6.611   4.172
57018W        W25236  22.084  18.138   4.651
57019W        W25237  28.579   6.397  14.019
57020W        W25238  18.195   7.909   3.240
57021W        W25239  35.022   5.797   1.334
57022W        W25240   7.737  42.001   2.415
57023W        W25241  44.329   2.106   2.783
57024W        W25242   6.375  10.707  14.241
57025W        W25243  10.702   8.711  14.350
57026W        W25244  11.612  16.662  12.044
57027W        W25245  21.192   0.600  10.291
57028W        W25246  37.049  13.495  14.987
57029W        W25247  15.207  26.515   4.296
57030W        W25248   7.981   8.338  10.613
57031W        W25249  17.178  19.098   4.550
57032W        W25250   2.387   6.160  14.383
57033W        W25251  37.019  33.335  14.364
57034W        W25252   2.744  30.797  11.261
57035W        W25253  10.928  22.127   2.669
57036W        W25254  42.092  13.650  13.020
57037W        W25255  16.275   7.913  11.961
57038W        W25256  26.065  42.157   2.187
57039W        W25257  12.141  43.322  10.203
57040W        W25258  39.197   6.613  11.096
57041W        W25259  13.647  22.189  11.156
57042W        W25260  15.572  35.577  11.021
57043W        W25261  25.331   9.782   2.841
57044W        W25262  43.777   5.175  12.394
57045W        W25263  37.107  25.077   5.070
57046W        W25264  43.955  31.709   1.958
57047W        W25265  39.310  29.419  14.326
57048W        W25266  43.224  38.923   1.747
57049W        W25267  24.430  27.647  14.406
57050W        W25268  22.137  25.626   3.399
57051W        W25269  19.712   2.863  12.157
57052W        W25270  22.232  36.635   4.732
57053W        W25271  38.340  14.705   4.314
57054W        W25272  44.305  30.676   4.163
57055W        W25273  23.675  11.560  12.384
57056W        W25274  14.452  30.544  13.096
57057W        W25275   7.395   8.967  14.276
57058W        W25276  38.294  44.924  13.290
57059W        W25277  36.069  43.531   1.880
57060W        W25278  19.158   9.968  13.132
57061W        W25279  33.571  17.319   2.281
57062W        W25280   0.420  36.398  14.057
57063W        W25281   5.870  11.344   2.883
57064W        W25282  27.156  25.271  14.005
57065W        W25283  30.221  11.792  11.928
57066W        W25284  17.180  37.084  14.963
57067W        W25285   4.267  33.589   2.858
57068W        W25286   3.999  33.537   2.260
57069W        W25287  24.646   2.948  13.749
57070W        W25288  21.703  33.599  10.963
57071W        W25289  30.488  37.833   4.663
57072W        W25290  35.083   8.340   2.208
57073W        W25291  27.957  43.718  11.157
57074W        W25292  19.565  12.991  14.807
57075W        W25293   6.781   0.293  11.786
57076W        W25294  32.374  25.907   1.512
57077W        W25295  27.121  44.786   3.788
57078W        W25296  38.400  11.563   0.434
57079W        W25297  13.180   7.710  13.164
57080W        W25298   9.881  29.962   2.853
57081W        W25299  16.955  17.700  13.871
57082W        W25300  33.633  19.821   4.220
57083W        W25301   0.481  43.740  14.969
57084W        W25302  10.686   8.006  10.606
57085W        W25303  24.475  25.152   0.812
57086W        W25304  24.697  11.165  14.776
57087W        W25305   0.590   9.966   0.849
57088W        W25306  36.084  22.623   1.668
57089W        W25307   4.810  10.168   0.871
57090W        W25308  31.899  14.427   2.699
57091W        W25309  41.360   2.504  12.381
57092W        W25310   4.511  38.902   0.191
57093W        W25311  16.113  37.572  13.394
57094W        W25312  14.369   3.546   1.277
57095W        W25313  42.072  21.121  10.782
57096W        W25314  25.646  16.539  11.986
57097W        W25315  31.737  34.849   2.711
57098W        W25316  26.286   9.356  14.519
57099W        W25317  30.486  31.840   2.737
57100W        W25318  19.213  35.304  14.256
57101W        W25319  24.081  10.173  14.174
57102W        W25320  42.246   4.747  11.654
57103W        W25321   3.836  36.643   2.347
57104W        W25322  12.106  31.019  13.068
57105W        W25323  35.064  17.684  13.772
57106W        W25324  24.522  30.518  11.836
57107W        W25325  31.099   6.773   4.996
57108W        W25326  32.165  37.104  14.430
57109W        W25327   1.059  14.755  11.386
57110W        W25328  26.306  34.023  11.965
57111W        W25329   1.259   3.273  13.370
57112W        W25330   9.788   7.410   4.254
57113W        W25331  38.340  31.683   2.347
57114W        W25332  10.981  36.504   0.282
57115W        W25333  35.049  14.763  13.106
57116W        W25334   1.462  16.035   2.879
57117W        W25335   2.359   0.659  11.092
57118W        W25336  35.067  40.266  10.767
57119W        W25337   8.736  42.988   2.457
57120W        W25338  32.857  39.024  11.790
57121W        W25339  35.007  12.136  10.752
57122W        W25340  44.779  18.829   4.292
57123W        W25341  18.718  24.047  14.380
57124W        W25342  22.446  18.287  13.327
57125W        W25343  40.513  43.842   2.885
57126W        W25344   2.468   9.586   1.436
57127W        W25345   3.718  32.301  11.611
57128W        W25346  23.611  30.884  13.449
57129W        W25347  31.345  30.641   3.617
57130W        W25348   1.550  34.349   0.221
57131W        W25349   9.774  35.397   2.879
57132W        W25350  13.363  31.524   3.127
57133W        W25351   1.200  20.646   0.326
57134W        W25352  43.299  39.577  12.351
57135W        W25353  35.019  38.488  11.317
57136W        W25354  42.781  23.570  14.848
57137W        W25355  12.630  26.102  10.605
57138W        W25356  32.636  39.993  11.502
57139W        W25357  41.454  36.452   4.105
57140W        W25358  44.391  35.360   4.336
57141W        W25359  36.529  26.961  12.158
57142W        W25360  21.260   7.005   2.782
57143W        W25361  35.758  37.481   3.537
57144W        W25362  16.790  25.670   2.055
57145W        W25363  35.031  41.475   0.935
57146W        W25364  14.352  38.504  12.550
57147W        W25365  30.440   2.276   2.567
57148W        W25366  24.206  28.230   0.795
57149W        W25367  17.621  20.501   1.355
57150W        W25368  24.584  44.302  14.976
57151W        W25369  11.834  37.602  12.009
57152W        W25370  16.851  42.384  12.002
57153W        W25371   1.862  16.268   3.153
57154W        W25372  23.063  33.607   4.232
57155W        W25373  36.961  44.888  11.185
57156W        W25374  36.994  27.147   2.296
57157W        W25375  12.869  37.522  11.881
57158W        W25376  25.379   7.961   1.517
57159W        W25377  38.276  38.014  12.550
57160W        W25378  13.640  42.311   2.967
57161W        W25379  12.066   4.252  14.610
57162W        W25380   8.792  37.466   1.341
57163W        W25381  27.982  32.748  11.815
57164W        W25382  17.608  44.467   1.195
57165W        W25383   9.321  39.317  13.991
57166W        W25384  17.171   4.426   2.915
57167W        W25385  40.365  41.560  11.313
57168W        W25386  33.783   1.350  10.624
57169W        W25387  12.431   3.258   3.610
57170W        W25388   3.641  31.140   4.560
57171W        W25389  15.524   4.198  10.726
57172W        W25390  25.506  16.594   0.188
57173W        W25391  27.374  43.101   4.817
57174W        W25392  34.093  29.605   2.254
57175W        W25393  11.401  37.253  14.320
57176W        W25394  37.081  43.942  13.927
57177W        W25395  32.162  22.466  10.973
57178W        W25396  26.996  34.501   1.777
57179W        W25397   2.374  20.691   2.721
57180W        W25398  25.027  11.764  14.082
57181W        W25399  19.280  24.763  14.501
57182W        W25400  17.233   7.886   4.593
57183W        W25401  22.646  19.964  14.335
57184W        W25402  41.100   7.423  10.765
57185W        W25403  11.837   4.794  11.713
57186W        W25404  20.790  21.490   2.167
57187W        W25405  13.288  23.674  13.330
57188W        W25406  16.351  40.278   4.182
57189W        W25407   7.029  44.119   5.224
57190W        W25408  17.955  15.612   4.329
57191W        W25409  15.849  24.489  14.456
57192W        W25410   4.997  10.250   3.243
57193W        W25411   6.306   1.294   4.415
57194W        W25412  36.714  37.057   0.436
57195W        W25413  12.078  39.722   4.251
57196W        W25414  24.196  42.280  14.246
57197W        W25415  10.717  29.944  11.881
57198W        W25416  10.755  11.727  11.694
57199W        W25417  39.897  16.652  12.831
57200W        W25418  39.623  27.704  14.824
57201W        W25419  29.641  17.706  11.968
57202W        W25420  18.499  37.883   1.759
57203W        W25421  18.735  36.342  12.921
57204W        W25422  43.330  12.848   5.044
57205W        W25423  20.634  11.665  13.906
57206W        W25424   1.748  41.404  14.261
57207W        W25425   4.891   1.686   3.631
57208W        W25426  15.527  23.253   3.195
57209W        W25427  11.189  30.684   1.266
57210W        W25428   4.256  20.780  11.352
57211W        W25429   4.211  41.024   4.518
57212W        W25430  22.223  18.722  10.826
57213W        W25431  13.730  22.907   1.822
57214W        W25432   5.355  36.296   0.445
57215W        W25433   8.152  14.566   2.258
57216W        W25434   8.406  24.574  13.139
57217W        W25435  36.630  14.515   3.276
57218W        W25436  30.709  22.521  10.682
57219W        W25437  38.148   3.599   5.031
57220W        W25438  44.930  14.397  14.802
57221W        W25439  30.338   8.483   1.994
57222W        W25440  35.136   4.851   2.070
57223W        W25441   8.908  29.365   0.705
57224W        W25442  33.562  24.656   2.400
57225W        W25443  22.024   0.474   3.706
57226W        W25444  37.779  21.683   4.321
57227W        W25445   2.348  19.264  10.617
57228W        W25446  21.785  40.735   0.990
57229W        W25447  11.914  42.244  12.443
57230W        W25448   4.178  44.229   5.014
57231W        W25449  38.342  38.033  14.438
57232W        W25450   2.733  23.827  13.991
57233W        W25451  43.779  33.082   4.812
57234W        W25452  20.931  29.462   2.877
57235W        W25453  16.523  21.975   0.874
57236W        W25454  11.784  29.003   2.335
57237W        W25455  44.698  37.938  10.832
57238W        W25456  14.320  12.124   2.204
57239W        W25457  43.681  35.401  13.112
57240W        W25458  26.933  39.416   3.394
57241W        W25459   2.324  24.998   2.863
57242W        W25460  25.304   3.604  11.414
57243W        W25461  15.304  13.564   2.738
57244W        W25462  18.782  39.915   1.601
57245W        W25463  44.172  12.185  10.824
57246W        W25464   2.166  16.152  13.983
57247W        W25465  44.844  31.173  12.040
57248W        W25466  42.025  23.669   4.063
57249W        W25467  31.923  36.995  13.557
57250W        W25468  11.959  10.532  13.574
57251W        W25469  28.072  36.015  14.435
57252W        W25470  21.734  16.549   0.630
57253W        W25471  28.665  44.042   3.954
57254W        W25472  30.989  31.988   1.322
57255W        W25473  14.825  29.195  12.111
57256W        W25474  10.734  43.079   1.858
57257W        W25475  30.885   0.920  10.656
57258W        W25476  38.442  34.303  11.225
57259W        W25477  19.521  17.097  11.472
57260W        W25478   1.355  32.685   4.585
57261W        W25479  35.496   8.722   2.859
57262W        W25480  23.930   7.425   3.249
57263W        W25481  17.691   8.216   4.154
57264W        W25482  24.116  31.346   3.276
57265W        W25483  20.066   3.208  12.005
57266W        W25484  10.352   8.149  13.520
57267W        W25485  13.153  26.034   0.720
57268W        W25486  39.278  29.241  12.824
57269W        W25487  18.097  24.492   3.661
57270W        W25488  22.149  30.432  11.699
57271W        W25489   5.962  40.352   2.915
57272W        W25490  11.844  23.222   0.856
57273W        W25491   3.119  39.542  14.655
57274W        W25492  10.865  18.070   5.138
57275W        W25493  32.516  23.307   3.361
57276W        W25494  26.175  19.061  11.925
57277W        W25495  10.894  32.440   2.008
57278W        W25496  40.934  35.082  13.479
57279W        W25497   5.136  28.450  11.570
57280W        W25498  41.346   2.255  13.821
57281W        W25499  26.169   3.225  12.949
57282W        W25500  26.518   3.737  14.876
57283W        W25501  18.949  33.040   1.840
57284W        W25502  14.574   0.784   0.414
57285W        W25503  26.164  12.651  11.070
57286W        W25504  34.522  40.040  14.006
57287W        W25505  36.776  12.319   2.827
57288W        W25506  37.154  31.039  11.164
57289W        W25507  41.999   1.536   1.762
57290W        W25508  28.569  35.769  11.964
57291W        W25509  23.047  10.799   2.312
57292W        W25510  43.824  20.708  10.379
57293W        W25511   1.444  43.464   1.008
57294W        W25512  33.423  36.489   1.072
57295W        W25513   8.882  39.049   0.337
57296W        W25514   9.562  35.867  13.150
57297W        W25515  24.207  25.870   1.195
57298W        W25516  18.745   0.871   3.544
57299W        W25517   3.226  27.592  10.625
57300W        W25518   1.409  10.943  13.788
57301W        W25519  44.959  21.194  13.109
57302W        W25520  27.952  32.916   2.699
57303W        W25521  24.530  29.619  10.571
57304W        W25522  20.018  25.659   0.369
57305W        W25523  18.674  28.628  10.861
57306W        W25524  24.587  24.443  12.885
57307W        W25525  37.469  41.557  14.202
57308W        W25526  15.820  24.126  13.902
57309W        W25527  16.144   1.734   0.441
57310W        W25528  33.898   9.989   0.198
57311W        W25529  44.519  25.268  13.030
57312W        W25530  22.725   3.582  10.743
57313W        W25531  13.386  42.041  14.081
57314W        W25532  15.204  11.326   3.887
57315W        W25533  24.500   1.450  11.479
57316W        W25534   3.621  25.156   1.304
57317W        W25535  29.857  39.358  14.762
57318W        W25536  12.934   8.741  11.561
57319W        W25537  20.520  32.038   0.712
57320W        W25538  23.483  44.458  11.486
57321W        W25539  37.007  41.854   2.423
57322W        W25540   6.446  13.763  12.535
57323W        W25541  18.276  15.660  14.287
57324W        W25542  20.363  42.792  12.923
57325W        W25543  30.367  44.814  12.891
57326W        W25544  43.997  29.647  14.308
57327W        W25545  25.837  10.953   3.589
57328W        W25546   7.202  23.813  11.500
57329W        W25547  19.981  24.007  14.813
57330W        W25548  43.704  13.201   2.781
57331W        W25549  22.246  28.094  10.501
57332W        W25550  35.200  43.946  14.761
57333W        W25551  36.820  25.719  10.663
57334W        W25552  13.149  35.068   3.643
57335W        W25553  13.291   5.461  13.866
57336W        W25554  27.730  27.060  10.437
57337W        W25555  44.370  26.571  12.359
57338W        W25556  28.401  21.627  14.381
57339W        W25557  31.894  25.264  11.227
57340W        W25558  12.707  16.584  11.875
57341W        W25559  25.059  34.536   4.734
57342W        W25560  30.596  23.186   0.067
57343W        W25561  32.721  19.764   4.187
57344W        W25562  41.508  29.184   0.361
57345W        W25563  20.112  26.215   4.646
57346W        W25564  33.396   2.388  13.902
57347W        W25565  33.324  31.997   3.733
57348W        W25566  23.196   7.326   0.768
57349W        W25567  19.161  16.106  12.923
57350W        W25568  23.557   9.658  10.991
57351W        W25569   8.473   6.798   4.558
57352W        W25570  35.910  17.310   3.612
57353W        W25571  37.451  41.052   2.242
57354W        W25572   9.843  30.963  12.357
57355W        W25573  11.326   2.013  14.864
57356W        W25574  38.071  13.365   3.745
57357W        W25575  29.367  13.646  11.668
57358W        W25576  17.920  42.418   2.082
57359W        W25577   0.518  28.943   3.118
57360W        W25578  23.062  30.229  13.387
57361W        W25579  36.638  32.974  13.502
57362W        W25580  43.973  43.336  14.785
57363W        W25581  20.780   9.596  12.949
57364W        W25582  29.561   5.584  14.138
57365W        W25583  43.550  11.801  14.736
57366W        W25584  42.883  21.350  12.940
57367W        W25585  15.193   3.221  11.127
57368W        W25586  33.163   5.937   3.571
57369W        W25587   9.717  23.418  11.471
57370W        W25588   5.860  16.114  12.580
57371W        W25589  27.877   6.974   1.332
57372W        W25590  37.631  10.158  11.577
57373W        W25591  13.744  37.943  11.962
57374W        W25592  36.744  42.902   4.222
57375W        W25593   6.660  32.019  13.851
57376W        W25594   8.470   5.668   1.427
57377W        W25595  23.757  32.953   4.661
57378W        W25596  31.392  21.715  14.367
57379W        W25597   9.804  14.640   4.267
57380W        W25598  23.686  40.106  13.268
57381W        W25599  16.558  21.582  13.214
57382W        W25600   1.806  33.896   4.748
57383W        W25601  16.063  10.907  13.509
57384W        W25602  25.404  17.065  14.981
57385W        W25603  27.043  29.496  11.265
57386W        W25604  15.347  16.163  10.650
57387W        W25605  36.478  32.852   2.743
57388W        W25606  43.276  34.845   3.770
57389W        W25607   9.630  33.404  14.306
57390W        W25608  35.116  18.989  14.011
57391W        W25609  27.838  20.630  11.657
57392W        W25610  17.823  31.442  12.026
57393W        W25611  14.113  39.946   1.972
57394W        W25612  25.992  42.517  13.476
57395W        W25613   6.848  12.307  14.563
57396W        W25614  40.938   6.388   4.865
57397W        W25615  14.257  18.064   1.442
57398W        W25616  11.352   2.459   0.463
57399W        W25617  24.720  31.935  11.624
57400W        W25618  25.821  11.399   4.339
57401W        W25619  32.100  20.189   0.079
57402W        W25620  17.781  21.278  12.591
57403W        W25621  39.840   6.750  11.205
57404W        W25622  12.184  33.655  13.316
57405W        W25623   6.381  13.439  11.520
57406W        W25624  27.436   6.140   4.489
57407W        W25625  31.603  31.472  12.467
57408W        W25626  35.427  34.026   0.081
57409W        W25627   5.897   5.391   2.347
57410W        W25628  14.395  44.377  12.672
57411W        W25629  40.761   5.655   1.620
57412W        W25630  34.052  42.018  10.712
57413W        W25631  42.512  31.008  13.386
57414W        W25632  13.619   7.737   1.393
57415W        W25633   1.497  19.255   3.124
57416W        W25634  37.380  25.009  10.966
57417W        W25635   4.880   4.057  11.991
57418W        W25636  27.728   8.113  11.157
57419W        W25637  24.179  38.365  13.416
57420W        W25638  13.008  38.539  14.117
57421W        W25639  34.122  15.597  12.110
57422W        W25640  30.588  14.045   2.839
57423W        W25641  23.142   4.624  11.274
57424W        W25642  17.325  10.863  14.986
57425W        W25643  30.459  37.898  11.969
57426W        W25644  33.679  42.807   2.609
57427W        W25645  39.876  34.380   4.119
57428W        W25646  28.049  27.941   3.235
57429W        W25647  37.153  32.337  11.489
57430W        W25648   7.245  27.045   3.361
57431W        W25649  44.940  16.893  14.186
57432W        W25650   0.299  16.266  12.541
57433W        W25651  43.541  33.522   4.144
57434W        W25652   3.740  42.326  13.161
57435W        W25653  37.625  15.587  10.128
57436W        W25654  31.694  17.859  11.925
57437W        W25655  43.931  27.473   4.998
57438W        W25656  40.770  27.924  11.054
57439W        W25657  22.250  16.862   3.161
57440W        W25658  23.982  19.451  14.403
57441W        W25659  27.452  32.848   3.220
57442W        W25660   7.307  22.594   3.761
57443W        W25661  29.951   8.593  12.913
57444W        W25662  28.619  13.631   5.064
57445W        W25663  44.857  21.340  11.078
57446W        W25664  41.979  27.691   0.243
57447W        W25665  25.933  33.331   0.951
57448W        W25666  33.052  17.690   3.600
57449W        W25667  21.072  17.949  11.197
57450W        W25668  13.830   5.256   3.138
57451W        W25669  24.728  42.282  11.367
57452W        W25670  39.017  17.795  14.382
57453W        W25671  34.611   7.627   3.202
57454W        W25672  25.541  43.818  14.636
57455W        W25673  12.001  44.306   1.275
57456W        W25674  34.741   3.317   0.801
57457W        W25675  41.618  44.793   3.752
57458W        W25676  44.753  12.170   0.176
57459W        W25677  24.877   5.869  12.501
57460W        W25678  44.914  36.992  14.291
57461W        W25679  29.674  35.003   0.367
57462W        W25680  15.117  23.031   1.637
57463W        W25681  25.976  11.850   4.119
57464W        W25682  30.881  25.263  12.039
57465W        W25683  23.601  22.463   2.364
57466W        W25684  18.445  23.627  11.942
57467W        W25685  35.968  36.191  10.501
57468W        W25686  14.476  10.479   1.908
57469W        W25687   4.843  26.216  12.523
57470W        W25688  36.694  28.783   2.675
57471W        W25689  18.045   8.462   1.817
57472W        W25690   4.862  17.102   5.060
57473W        W25691  14.268  19.570  13.365
57474W        W25692  44.009  11.377   0.367
57475W        W25693  23.892  12.657   3.559
57476W        W25694  19.407  13.865   2.832
57477W        W25695  11.084  14.113   1.736
57478W        W25696  19.076  30.767   4.286
57479W        W25697  42.332  22.056   0.295
57480W        W25698   9.948  39.693  14.814
57481W        W25699  11.191  28.415   1.293
57482W        W25700  11.956  27.628  12.700
57483W        W25701   9.890  33.130   4.223
57484W        W25702  18.329  41.453   2.802
57485W        W25703  37.807  24.490   2.816
57486W        W25704  21.731  20.646   1.919
57487W        W25705  21.074  30.122   3.774
57488W        W25706  36.388  20.394  11.572
57489W        W25707  39.646  42.408   1.846
57490W        W25708   2.701   9.735   2.377
57491W        W25709  43.760  44.983  12.313
57492W        W25710   1.408  34.046   3.747
57493W        W25711  18.782  26.686   2.778
57494W        W25712  25.631  14.582  13.391
57495W        W25713  41.617  12.800  14.926
57496W        W25714  36.278  32.113  11.100
57497W        W25715  15.619  38.523   1.245
57498W        W25716   3.909  13.046  13.977
57499W        W25717  44.259  14.994   2.971
57500W        W25718  28.194   4.754   4.012
57501W        W25719  40.978   5.734  11.888
57502W        W25720  10.180  10.144   0.729
57503W        W25721  24.242  26.263  14.820
57504W        W25722  12.725  13.285   3.860
57505W        W25723  29.181   2.520   3.804
57506W        W25724   5.657  42.659  13.166
57507W        W25725  39.611  44.774   1.217
57508W        W25726  17.124  40.275   1.357
57509W        W25727  20.495  35.143  11.190
57510W        W25728  22.036  12.175  13.931
57511W        W25729  13.540  21.723   4.069
57512W        W25730   7.174   3.729   0.844
57513W        W25731  22.486  18.055   4.993
57514W        W25732  11.763   4.042  14.968
57515W        W25733  15.217  16.595  13.232
57516W        W25734  29.152  34.936   4.406
57517W        W25735  15.664  22.525  14.960
57518W        W25736  21.665  19.264  13.968
57519W        W25737   6.665   0.323   2.650
57520W        W25738  16.353  27.634  13.760
57521W        W25739  40.952  43.436   0.946
57522W        W25740   1.306  14.149  10.614
57523W        W25741  38.842  12.518  14.492
57524W        W25742  19.891   5.940  10.737
57525W        W25743  17.204  38.016  11.244
57526W        W25744  37.507  27.225   4.751
57527W        W25745  29.201  18.157  12.060
57528W        W25746  38.312  42.784  11.873
57529W        W25747  15.691  39.072  12.393
57530W        W25748  36.467  28.187  13.820
57531W        W25749   0.765   1.894   3.656
57532W        W25750  41.765  18.755   2.966
57533W        W25751  40.522  21.750   0.855
57534W        W25752   3.936  36.012  10.981
57535W        W25753  18.934  29.195  14.921
57536W        W25754  24.049  33.628  14.465
57537W        W25755  25.287  30.506  11.480
57538W        W25756   7.261  20.575  10.764
57539W        W25757  34.537   3.366  12.687
57540W        W25758   1.674   1.667  11.654
57541W        W25759  29.019  20.642  14.524
57542W        W25760  32.096  41.361   4.537
57543W        W25761   2.052  20.193  14.372
57544W        W25762  17.238  23.470  12.414
57545W        W25763  13.835  13.522   1.331
57546W        W25764  26.441  32.975   2.488
57547W        W25765  38.785   6.533  11.785
57548W        W25766   1.765  32.049  14.975
57549W        W25767  22.792  44.060   1.104
57550W        W25768  22.274  14.499   1.957
57551W        W25769   9.257  33.419  10.888
57552W        W25770  19.068  35.345  13.370
57553W        W25771  33.848  11.609   0.901
57554W        W25772  19.069   5.655   0.365
57555W        W25773  10.651  17.848   0.194
57556W        W25774  33.008   7.676  11.599
57557W        W25775  14.751   5.045  12.536
57558W        W25776  38.772   9.627  10.810
57559W        W25777  30.031  42.531  12.872
57560W        W25778  30.410  27.477  12.411
57561W        W25779   1.839  16.265   1.769
57562W        W25780  44.756  34.041   3.188
57563W        W25781   2.358  38.748   2.866
57564W        W25782  21.117  24.436   4.259
57565W        W25783  11.597  38.768  13.457
57566W        W25784  35.592   8.227   1.985
57567W        W25785  15.403  17.454  11.503
57568W        W25786   4.697   8.120  11.521
57569W        W25787   1.006   4.702   2.358
57570W        W25788  25.181   1.536  14.987
57571W        W25789  34.505   4.406   1.768
57572W        W25790  21.582  21.873   3.454
57573W        W25791  42.356  44.530  13.832
57574W        W25792   7.917  19.328   2.809
57575W        W25793   8.902  22.999   0.903
57576W        W25794  20.111   2.691  12.870
57577W        W25795  31.636  40.766   3.394
57578W        W25796   1.027  29.497   3.666
57579W        W25797   2.245  40.767  14.912
57580W        W25798   7.665  23.035  14.202
57581W        W25799  36.536  15.756  11.206
57582W        W25800  14.150   7.830   4.999
57583W        W25801  13.765  39.571  14.070
57584W        W25802  30.610  32.931   3.500
57585W        W25803  32.012   4.220   0.335
57586W        W25804  31.113  37.050   3.212
57587W        W25805  29.781  22.556  13.792
57588W        W25806  25.134  29.399  12.905
57589W        W25807  13.650  25.736  11.970
57590W        W25808  33.857  27.117  13.407
57591W        W25809  30.084  30.013  14.752
57592W        W25810  11.740  38.606   3.811
57593W        W25811  34.276  40.513  13.829
57594W        W25812  30.929  16.679  11.562
57595W        W25813  23.196  21.488  14.846
57596W        W25814  12.733  40.071   3.109
57597W        W25815   7.947  18.022   4.116
57598W        W25816  15.192   9.622  13.066
57599W        W25817  35.356  19.123  13.440
57600W        W25818  42.136   1.774  13.844
57601W        W25819  16.758  14.279   1.700
57602W        W25820   1.574  23.182  12.358
57603W        W25821  28.164  29.004  10.497
57604W        W25822  38.612  18.671   3.282
57605W        W25823  15.608   3.158   1.363
57606W        W25824  31.550  35.462   3.900
57607W        W25825  34.257  41.545   2.322
57608W        W25826  29.775  28.216  12.513
57609W        W25827  27.066  34.992   1.653
57610W        W25828  13.310  39.878  14.022
57611W        W25829   1.398   9.697   1.778
57612W        W25830  29.421   4.576  10.334
57613W        W25831  11.807  29.339   3.728
57614W        W25832  43.246   0.060  13.031
57615W        W25833  44.895  35.471  10.506
57616W        W25834  18.482  11.700   3.315
57617W        W25835  10.817  36.918  13.564
57618W        W25836  10.135  21.020  10.365
57619W        W25837  14.153  38.902   2.748
57620W        W25838  34.342  30.045  12.227
57621W        W25839  13.936  38.836   3.720
57622W        W25840  13.590  12.390  13.923
57623W        W25841   4.831  21.973   1.399
57624W        W25842  28.513  18.617   3.114
57625W        W25843  23.153  39.655  12.517
57626W        W25844  44.475   1.702   3.735
57627W        W25845  27.574  29.917   4.545
57628W        W25846  25.905  41.784   3.841
57629W        W25847  41.850   6.652   4.707
57630W        W25848  11.359  12.906  14.806
57631W        W25849  10.272  14.651  14.927
57632W        W25850  28.413  12.664  12.564
57633W        W25851  25.937  19.870   1.389
57634W        W25852   9.832  34.816  14.333
57635W        W25853  29.216  44.433  11.112
57636W        W25854  29.687  28.919  14.380
57637W        W25855  27.973  13.796   2.180
57638W        W25856  15.321  28.960   4.465
57639W        W25857  10.318  32.978   2.284
57640W        W25858  29.323  29.659   0.784
57641W        W25859  10.251   2.876  12.419
57642W        W25860  40.487   3.027   4.524
57643W        W25861  42.895  19.636   3.565
57644W        W25862  41.278   0.841  14.867
57645W        W25863  36.079  20.677   3.291
57646W        W25864  41.043  13.190   2.868
57647W        W25865  38.997   8.610   4.506
57648W        W25866   6.807  16.916  14.980
57649W        W25867  17.791  23.655   1.484
57650W        W25868   0.563  40.389   3.194
57651W        W25869  21.112  23.256   1.453
57652W        W25870  23.566  34.917   3.205
57653W        W25871  10.296  26.453  14.892
57654W        W25872  28.929  29.229  12.073
57655W        W25873  38.431   8.285  11.067
57656W        W25874  44.911  12.332   5.013
57657W        W25875  35.376  27.123  10.637
57658W        W25876  44.911   4.995  13.982
57659W        W25877  11.285  14.413  10.745
57660W        W25878  27.084  31.062   0.055
57661W        W25879  14.548  36.143   3.845
57662W        W25880  34.864  15.661  12.754
57663W        W25881  43.293  31.366  12.609
57664W        W25882  19.016  11.855   2.357
57665W        W25883  25.908  26.941   4.223
57666W        W25884   4.504  41.949  12.829
57667W        W25885  16.317  26.002   0.333
57668W        W25886   3.270  23.016   3.694
57669W        W25887  16.603  14.796   5.431
57670W        W25888  24.559   1.311  10.857
57671W        W25889  38.782  21.563  13.087
57672W        W25890  14.014  24.880  10.346
57673W        W25891   2.312  37.308   3.735
57674W        W25892   2.926  28.388  13.113
57675W        W25893   9.524  43.767  14.785
57676W        W25894  21.202  22.546  12.704
57677W        W25895  13.024  37.883   0.100
57678W        W25896  22.455  35.173   4.053
57679W        W25897  16.066  33.932   4.136
57680W        W25898  37.782  37.010   3.063
57681W        W25899  26.398  43.065  14.826
57682W        W25900  11.644   1.984   3.507
57683W        W25901  38.888  29.898   1.276
57684W        W25902   1.327  41.736   4.227
57685W        W25903  38.973   2.741  10.841
57686W        W25904  18.641  16.982  14.617
57687W        W25905   7.450   7.621   2.138
57688W        W25906  21.198  34.562   1.426
57689W        W25907  25.206  21.287  11.641
57690W        W25908   3.015  23.415  13.911
57691W        W25909  18.042  24.990  11.173
57692W        W25910  23.157   6.005  12.967
57693W        W25911  25.650   0.983   2.263
57694W        W25912  19.630  30.737  12.852
57695W        W25913   5.479  24.662  11.148
57696W        W25914   2.228   7.881   0.419
57697W        W25915  17.629  32.643  14.393
57698W        W25916  27.882  27.181  11.193
57699W        W25917  10.162  16.758   3.638
57700W        W25918  12.382  21.231   2.833
57701W        W25919  27.958   7.087   3.764
57702W        W25920   1.140  41.779   3.220
57703W        W25921  30.854  31.604   2.455
57704W        W25922   3.887  36.110   3.576
57705W        W25923  22.097  23.292  11.618
57706W        W25924  12.142  29.127   1.974
57707W        W25925  26.430   0.001  11.061
57708W        W25926  35.298  11.398  14.842
57709W        W25927  18.145   1.865  12.342
57710W        W25928  21.791   2.934   1.675
57711W        W25929  28.796  37.200   3.888
57712W        W25930  32.631   3.673   4.224
57713W        W25931  29.964  31.860   3.132
57714W        W25932  25.732  11.180  12.988
57715W        W25933  22.010  38.479   4.091
57716W        W25934   2.321  33.191  12.972
57717W        W25935  23.203  13.913  13.906
57718W        W25936  18.871  27.013  13.449
57719W        W25937   0.783  28.158  14.039
57720W        W25938  38.887  11.197   3.721
57721W        W25939  17.355   6.336  12.953
57722W        W25940  28.389  11.272   2.744
57723W        W25941  20.317  37.938  12.146
57724W        W25942  11.682  21.278  13.842
57725W        W25943  40.944  38.896   4.262
57726W        W25944   5.411  30.706  13.381
57727W        W25945  23.520  24.087   4.557
57728W        W25946  24.169  28.378  11.181
57729W        W25947  10.750  14.763  13.394
57730W        W25948  20.046  10.041  10.793
57731W        W25949   4.964  19.884  13.369
57732W        W25950  36.557   2.307  14.431
57733W        W25951   0.779   6.184   2.487
57734W        W25952   1.011  21.905  14.836
57735W        W25953  26.688  22.052  11.284
57736W        W25954   2.634  10.502   1.239
57737W        W25955  37.834  29.107   3.409
57738W        W25956   2.827   5.870  13.892
57739W        W25957  15.074  17.202   1.629
57740W        W25958  43.270  19.214  13.937
57741W        W25959  18.166  42.515  11.943
57742W        W25960  34.439   5.470   0.284
57743W        W25961  43.544   2.840  13.121
57744W        W25962  22.781  28.342   4.425
57745W        W25963  31.546  27.936   0.849
57746W        W25964  20.079   5.187  10.061
57747W        W25965   3.202  18.043  14.832
57748W        W25966  39.371  42.415   3.401
57749W        W25967  19.812  31.365  11.614
57750W        W25968   3.497  12.827   3.323
57751W        W25969  44.041   5.808   1.287
57752W        W25970   5.476  23.500   1.720
57753W        W25971  24.971  13.740   2.740
57754W        W25972   6.230  34.477   4.841
57755W        W25973  29.677  28.558  11.965
57756W        W25974  19.465  41.168  11.926
57757W        W25975  33.626  40.246  10.135
57758W        W25976  10.212  25.971   1.857
57759W        W25977   5.100  12.052  11.966
57760W        W25978  27.969  38.577  11.502
57761W        W25979  23.010  33.326   3.310
57762W        W25980  19.549   2.675   1.321
57763W        W25981   6.710  27.177  14.481
57764W        W25982  20.065   1.919   4.559
57765W        W25983   3.301  28.612  14.477
57766W        W25984  26.035  34.818  10.880
57767W        W25985  21.180   4.231  12.323
57768W        W25986   4.727  20.552   4.066
57769W        W25987   6.056  25.975  12.043
57770W        W25988  34.852  19.685  13.782
57771W        W25989  17.124  12.810  12.007
57772W        W25990  27.090  13.609   4.649
57773W        W25991  40.817  43.933  13.331
57774W        W25992  39.827   0.768   4.699
57775W        W25993  34.409  19.872  12.820
57776W        W25994   7.170  15.624   3.762
57777W        W25995  21.278   7.077   0.273
57778W        W25996  17.954   4.705  12.011
57779W        W25997  25.080  18.602   2.422
57780W        W25998  25.852  40.930   3.128
57781W        W25999  39.570  16.028   2.166
57782W        W26000  16.340  28.020   4.520
57783W        W26001  31.260  11.311   4.586
57784W        W26002  36.402  29.884   1.479
57785W        W26003   0.166  44.489  14.552
57786W        W26004  11.540  30.614   0.891
57787W        W26005   2.464   1.873  10.309
57788W        W26006  30.009   2.239   0.240
57789W        W26007  34.511  22.290  12.681
57790W        W26008  32.598  17.583  11.512
57791W        W26009  22.480   6.355  13.553
57792W        W26010  13.292  11.259  14.735
57793W        W26011  33.509   9.282  14.393
57794W        W26012  20.952  17.343   2.499
57795W        W26013  16.856   6.866   1.407
57796W        W26014  38.179  18.820   1.474
57797W        W26015  36.115  19.262  14.921
57798W        W26016  38.753  14.860  13.489
57799W        W26017  36.396  35.997   3.853
57800W        W26018  11.370  26.942  13.974
57801W        W26019  20.067  29.340  10.697
57802W        W26020  24.946   5.313   2.710
57803W        W26021  18.012  12.507   5.677
57804W        W26022  26.335  35.341  12.290
57805W        W26023  17.308  35.178  13.356
57806W        W26024  41.929  36.014  14.782
57807W        W26025  20.581  15.346   1.402
57808W        W26026  11.130   9.677   2.790
57809W        W26027  44.879  38.024   2.816
57810W        W26028  29.384  43.637   1.361
57811W        W26029  16.182  10.132   3.847
57812W        W26030  43.514   0.278   2.616
57813W        W26031   1.977   6.434   3.764
57814W        W26032  17.328  23.017   0.669
57815W        W26033   7.519  21.283   4.999
57816W        W26034  30.370  11.791  10.699
57817W        W26035  20.628  38.274  14.829
57818W        W26036  21.535  17.048   3.216
57819W        W26037  13.296  14.672   2.256
57820W        W26038   0.474  34.859   0.772
57821W        W26039  37.907  25.639  11.280
57822W        W26040  44.875  42.737   1.257
57823W        W26041  12.034  26.430   1.288
57824W        W26042  11.283  39.795   3.708
57825W        W26043  21.469   7.409  11.457
57826W        W26044  34.389  32.556  11.126
57827W        W26045  39.981   7.305   1.902
57828W        W26046  37.787   1.578   3.370
57829W        W26047  40.902  32.033   4.662
57830W        W26048  44.975  37.167   2.579
57831W        W26049  32.316  14.702   2.776
57832W        W26050  10.729   3.554  10.649
57833W        W26051  13.834  10.864  12.864
57834W        W26052  36.518  30.168   3.698
57835W        W26053  15.983   9.476   3.237
57836W        W26054  33.526  15.352   3.379
57837W        W26055   5.650  42.983   3.386
57838W        W26056  18.544  21.619  13.844
57839W        W26057  13.311  19.459   1.846
57840W        W26058  29.543  18.452  11.210
57841W        W26059  36.316  36.582  12.932
57842W        W26060  36.540  28.749   1.907
57843W        W26061  43.969  33.037   2.668
57844W        W26062  27.667  12.723   1.307
57845W        W26063  31.374  39.307   0.920
57846W        W26064  32.809  40.847  14.554
57847W        W26065  20.779  34.850   1.315
57848W        W26066  43.344  12.343  12.503
57849W        W26067   6.949  15.543   1.288
57850W        W26068  24.071  30.949  12.977
57851W        W26069  11.742  10.302   4.146
57852W        W26070   6.747   6.036  13.275
57853W        W26071  15.851  25.498  12.502
57854W        W26072  19.835   4.245  14.801
57855W        W26073  14.556   6.977   4.052
57856W        W26074  36.061   6.815  14.766
57857W        W26075  37.649  27.387   1.808
57858W        W26076  16.424  37.757   3.180
57859W        W26077  40.945  44.486  13.749
57860W        W26078  19.116  30.614  14.359
57861W        W26079  32.718  18.308  11.003
57862W        W26080  27.410  34.646  13.419
57863W        W26081   5.133  24.173  10.272
57864W        W26082   8.106  40.037  10.756
57865W        W26083  28.673  21.600  13.923
57866W        W26084  30.667  43.467   0.445
57867W        W26085  43.831  15.081  12.039
57868W        W26086  41.030  20.584  13.018
57869W        W26087  27.187  40.681  11.584
57870W        W26088  18.003   8.656   3.702
57871W        W26089   5.801  32.321   2.032
57872W        W26090   6.487  21.479   4.312
57873W        W26091  28.641  42.348   3.234
57874W        W26092  26.468  33.570  12.185
57875W        W26093  38.645  13.781   1.765
57876W        W26094   1.294  38.574  12.433
57877W        W26095   6.961   8.455   0.891
57878W        W26096  27.447  21.992   4.575
57879W        W26097  27.692  40.246  14.827
57880W        W26098  41.038  14.251  10.730
57881W        W26099  18.683  40.487  13.947
57882W        W26100   2.196  14.526   3.233
57883W        W26101  12.287  16.052  11.424
57884W        W26102   9.624  21.753   3.976
57885W        W26103  40.778  30.825   3.330
57886W        W26104  37.902  40.816  13.301
57887W        W26105   7.354  10.255  11.966
57888W        W26106  31.846  11.240  14.089
57889W        W26107  29.586   6.692  10.692
57890W        W26108  12.093  16.001   2.220
57891W        W26109  25.820  42.836   4.050
57892W        W26110   2.168  21.191   1.241
57893W        W26111   2.465  17.312  14.455
57894W        W26112   8.397  23.305   2.815
57895W        W26113   6.197  44.075   3.800
57896W        W26114  42.440   8.403   1.146
57897W        W26115  35.473  40.038  11.231
57898W        W26116  43.544  31.654  12.090
57899W        W26117  28.961   1.334   0.299
57900W        W26118  32.597   2.583   3.110
57901W        W26119  22.983  26.476   3.959
57902W        W26120  20.621   6.762   0.070
57903W        W26121  41.780  40.887  14.917
57904W        W26122  14.839  27.912  11.552
57905W        W26123  19.070  31.636  11.530
57906W        W26124  24.217   6.308  13.899
57907W        W26125   0.389  25.114  12.180
57908W        W26126  41.404  12.799   2.002
57909W        W26127  40.601  11.225   4.183
57910W        W26128  36.566  30.053  14.991
57911W        W26129  20.659  10.196  14.297
57912W        W26130  39.450   2.765  13.088
57913W        W26131  32.137  40.043   4.541
57914W        W26132   9.143   0.066  11.208
57915W        W26133  18.638   0.520   3.162
57916W        W26134  38.569   9.444  14.346
57917W        W26135  18.773  31.662   3.181
57918W        W26136   0.699  11.626  11.585
57919W        W26137   4.440   0.480  11.622
57920W        W26138  31.104   6.798  14.792
57921W        W26139  26.024  41.514   0.851
57922W        W26140  15.286  21.658   4.131
57923W        W26141  25.496  41.808   4.195
57924W        W26142   8.835   4.942  11.596
57925W        W26143  20.084  28.585  11.119
57926W        W26144  18.324  24.205  12.418
57927W        W26145  20.965  37.229   9.900
57928W        W26146  31.418   0.724   1.908
57929W        W26147  31.417  17.732  12.338
57930W        W26148  41.524   0.889  13.503
57931W        W26149  10.812  26.980   3.901
57932W        W26150  24.555  11.779   3.948
57933W        W26151  16.788  31.180   1.387
57934W        W26152  41.020  18.152   2.798
57935W        W26153  10.078  18.346   4.375
57936W        W26154  24.487  33.385   0.250
57937W        W26155  33.549  26.907   2.229
57938W        W26156  15.413  32.587  12.357
57939W        W26157  39.378   6.885   1.334
57940W        W26158  41.237  24.453   2.214
57941W        W26159   7.581  27.709  14.596
57942W        W26160   9.366  35.488   2.522
57943W        W26161   1.829  26.672   4.631
57944W        W26162  19.560  20.421   4.048
57945W        W26163  24.110  32.592   4.715
57946W        W26164  43.545  42.834  13.813
57947W        W26165  17.235  23.352  14.387
57948W        W26166  16.097  43.027   2.717
57949W        W26167   0.778   8.083   1.305
57950W        W26168  22.513  21.750   3.787
57951W        W26169  23.557   6.282   3.307
57952W        W26170   9.327  14.543   4.096
57953W        W26171  36.415  33.529   0.988
57954W        W26172  19.083  14.696   3.723
57955W        W26173  27.554  34.628   3.815
57956W        W26174  11.093   4.432  10.703
57957W        W26175  10.301  43.196   0.218
57958W        W26176  26.262  38.581   1.259
57959W        W26177   9.738  35.361   1.836
57960W        W26178  14.262  30.656  11.458
57961W        W26179  37.432  26.298  13.326
57962W        W26180  24.128   9.458   3.266
57963W        W26181  10.198   4.765  13.580
57964W        W26182  18.274  25.430   3.768
57965W        W26183  10.967  16.768   4.360
57966W        W26184  10.383  18.532  14.467
57967W        W26185   6.239   2.991   4.077
57968W        W26186  22.494  38.146  13.794
57969W        W26187  39.069  10.239  12.971
57970W        W26188   2.044  11.072  10.660
57971W        W26189   1.233   2.123   3.871
57972W        W26190  36.419  44.357   0.825
57973W        W26191   4.398  38.251  11.174
57974W        W26192  44.816   7.220   2.220
57975W        W26193  24.509   3.415  13.891
57976W        W26194  42.538  33.346  10.873
57977W        W26195  32.026   8.129   3.183
57978W        W26196  16.453  21.035   3.080
57979W        W26197  25.878   4.782   3.746
57980W        W26198  14.911  10.308  10.724
57981W        W26199   1.251  29.587   4.111
57982W        W26200   6.122   6.635  13.295
57983W        W26201   9.760  22.214  10.394
57984W        W26202  44.951  23.363   1.307
57985W        W26203  38.689  15.565   0.285
57986W        W26204  10.728  16.555  12.575
57987W        W26205  16.712  21.573   1.406
57988W        W26206   1.655  11.290  12.677
57989W        W26207   5.814  22.997  12.585
57990W        W26208   8.139  24.260  12.832
57991W        W26209  29.082  35.037  13.485
57992W        W26210  13.534  27.927   1.739
57993W        W26211   9.843  20.911   4.213
57994W        W26212   0.102  28.012   4.695
57995W        W26213  22.487  26.904  14.796
57996W        W26214  18.323   6.163  14.951
57997W        W26215  44.829  10.872   4.683
57998W        W26216  21.208  33.539  12.549
57999W        W26217  36.279   6.486   3.743
58000W        W26218  32.365   0.935   1.952
58001W        W26219  39.626   4.818  11.584
58002W        W26220  31.677  29.118  10.601
58003W        W26221   4.627  31.002  13.046
58004W        W26222  37.593  39.268   3.220
58005W        W26223  30.639  12.797   4.937
58006W        W26224  12.036  10.673   3.849
58007W        W26225   8.206  15.446   2.299
58008W        W26226   6.727  13.687   4.686
58009W        W26227   1.892  24.151  13.968
58010W        W26228   5.373  12.112   4.528
58011W        W26229  28.510   8.141   4.650
58012W        W26230   3.504  43.529   3.436
58013W        W26231  28.480  26.687  13.336
58014W        W26232  21.471  34.860   3.626
58015W        W26233  28.534  13.860   0.363
58016W        W26234  27.039   8.400  13.587
58017W        W26235  12.820  30.600  11.638
58018W        W26236  42.043  29.072   1.407
58019W        W26237   4.876  40.923   3.118
58020W        W26238  12.470  29.048   4.878
58021W        W26239  21.573  26.830   4.568
58022W        W26240   3.754  27.850   4.619
58023W        W26241  34.053  37.442  14.715
58024W        W26242  23.715  36.589   2.313
58025W        W26243  12.617  31.152   4.291
58026W        W26244   8.734  18.593   0.215
58027W        W26245  15.112  42.497  10.829
58028W        W26246  25.925   2.837   3.249
58029W        W26247  20.157  37.464   1.722
58030W        W26248  11.618  21.524   0.749
58031W        W26249  26.547  43.142  11.644
58032W        W26250  34.502  36.916   1.024
58033W        W26251  19.115   3.430   1.251
58034W        W26252   1.949   9.876  11.324
58035W        W26253  28.925  20.521  11.613
58036W        W26254  42.510  35.363   4.590
58037W        W26255   4.568  38.948   2.029
58038W        W26256  37.995   5.823   1.671
58039W        W26257  35.526  18.700   4.305
58040W        W26258  44.193   9.762  13.904
58041W        W26259  19.041  25.931  12.121
58042W        W26260  32.361   2.712   4.466
58043W        W26261  36.263  38.980  11.419
58044W        W26262  22.076  38.866   1.695
58045W        W26263  37.444  19.846  14.091
58046W        W26264   0.305  43.913   2.232
58047W        W26265  20.824  20.823   3.588
58048W        W26266  31.643  31.011  11.174
58049W        W26267  18.658  41.526   3.300
58050W        W26268  23.517  37.532  13.924
58051W        W26269  18.493   8.743   3.082
58052W        W26270  40.287  18.689   3.725
58053W        W26271  39.749  30.010  11.126
58054W        W26272  17.393  27.752   2.099
58055W        W26273   3.824   2.580  10.530
58056W        W26274  37.726  13.388   4.123
58057W        W26275   6.270  33.169   2.852
58058W        W26276  37.967   3.650  14.414
58059W        W26277   4.287  23.587   3.789
58060W        W26278  44.071  38.498   3.696
58061W        W26279  28.053  12.272  11.020
58062W        W26280  18.056   6.076   1.345
58063W        W26281  27.741  26.188  13.401
58064W        W26282  25.557  31.915  11.193
58065W        W26283  36.451  23.049   2.475
58066W        W26284  26.583  29.476  13.810
58067W        W26285  23.280  12.291  13.330
58068W        W26286  12.312  11.846   1.794
58069W        W26287   7.780   2.923  12.020
58070W        W26288  39.177   1.996  14.354
58071W        W26289  28.876  17.236  12.006
58072W        W26290   3.222  36.820   2.314
58073W        W26291  40.462  42.886   0.467
58074W        W26292  25.605  15.657   1.781
58075W        W26293   6.167   6.242   2.412
58076W        W26294   0.279  21.225   4.990
58077W        W26295  40.189   1.044  13.928
58078W        W26296  28.709  44.612  14.481
58079W        W26297  36.889  31.907   4.174
58080W        W26298  34.367  32.953   3.045
58081W        W26299  23.989  29.623  14.858
58082W        W26300   3.454  42.790  13.334
58083W        W26301  32.024  19.940  11.150
58084W        W26302  21.203  17.081  12.138
58085W        W26303  11.862   3.287   1.284
58086W        W26304  37.449  35.151   2.816
58087W        W26305   1.038  18.516  12.590
58088W        W26306   0.810  42.892  12.281
58089W        W26307  33.129  24.141   4.902
58090W        W26308  38.061  34.763   0.723
58091W        W26309  10.202  37.895  11.486
58092W        W26310   1.309  16.592  11.398
58093W        W26311  27.516  37.271   3.391
58094W        W26312   5.948   0.248  11.423
58095W        W26313  21.076   5.202   1.871
58096W        W26314  36.131  16.376   0.943
58097W        W26315  18.780  25.557  10.689
58098W        W26316  31.705  17.663  14.039
58099W        W26317  20.202  37.081  12.948
58100W        W26318  41.975  38.203   4.561
58101W        W26319  15.532  21.338   0.688
58102W        W26320  12.440  34.713   0.103
58103W        W26321  17.260  24.249  14.186
58104W        W26322  33.704  16.320  12.867
58105W        W26323  15.810  44.391  14.428
58106W        W26324  30.369   5.211   1.396
58107W        W26325  18.528  44.742  10.921
58108W        W26326  20.766  20.000  13.114
58109W        W26327  28.699  12.750   1.864
58110W        W26328  21.208   3.237   3.526
58111W        W26329   4.244   4.211  10.522
58112W        W26330   4.296  23.594  12.940
58113W        W26331  36.042   8.561  14.033
58114W        W26332  10.846   1.825  13.714
58115W        W26333  19.224  38.941  12.980
58116W        W26334   7.674  39.071  11.581
58117W        W26335   4.196  17.885   3.702
58118W        W26336  15.378  43.400   3.572
58119W        W26337  20.865  12.281  13.140
58120W        W26338   6.196   5.773   3.252
58121W        W26339  16.727  18.064   1.674
58122W        W26340   4.311  39.902   4.116
58123W        W26341  20.236  37.449  10.632
58124W        W26342  21.006  13.825   2.336
58125W        W26343  29.578   4.650   1.754
58126W        W26344   9.897  42.083  12.020
58127W        W26345  30.105  24.646  11.558
58128W        W26346  34.173   8.308  12.014
58129W        W26347   7.815  37.609   2.343
58130W        W26348  19.716  25.569   3.616
58131W        W26349  26.055   6.413   4.464
58132W        W26350  24.838  20.984   1.594
58133W        W26351  22.414   5.653   2.673
58134W        W26352  37.255  34.386   3.181
58135W        W26353  40.725  32.644  14.335
58136W        W26354   4.686  17.865  14.824
58137W        W26355  43.696  34.644   1.179
58138W        W26356  17.671   8.622   3.120
58139W        W26357  37.295  12.349   2.810
58140W        W26358  44.929  37.618  12.919
58141W        W26359  38.069  42.061   3.788
58142W        W26360   7.650  21.298   3.195
58143W        W26361  18.620  44.238  10.998
58144W        W26362  40.390  39.763   5.075
58145W        W26363  43.256   9.214   4.396
58146W        W26364  33.215  12.131   2.374
58147W        W26365  10.502  33.893   0.071
58148W        W26366   7.844  18.818   2.772
58149W        W26367  35.893   9.068   3.399
58150W        W26368  28.726  44.525   4.478
58151W        W26369   0.548  40.475   1.482
58152W        W26370  21.412   1.782   1.843
58153W        W26371  21.323  25.945   3.261
58154W        W26372   6.634  13.689  14.416
58155W        W26373   1.641   2.836  11.125
58156W        W26374  21.843   3.477  14.345
58157W        W26375  23.055   9.297  13.052
58158W        W26376  38.335  28.714  11.581
58159W        W26377  38.533   5.714  14.957
58160W        W26378   2.419  25.700   4.214
58161W        W26379  25.016  36.168  11.117
58162W        W26380  37.461  27.614  14.239
58163W        W26381  15.585  14.683   0.848
58164W        W26382  37.976  36.541   3.175
58165W        W26383   2.862  24.259  14.878
58166W        W26384  42.519   9.258   0.480
58167W        W26385  20.285   2.296   2.754
58168W        W26386  41.937  35.936  10.704
58169W        W26387  10.945  34.835  12.980
58170W        W26388  42.601   3.510  11.720
58171W        W26389  22.481  10.858   3.176
58172W        W26390  19.578  40.405   1.249
58173W        W26391   9.881  24.553  14.975
58174W        W26392  12.972   6.903  12.233
58175W        W26393  42.014   4.783  14.843
58176W        W26394  26.404   6.651   2.459
58177W        W26395  18.569  40.083   3.055
58178W        W26396  18.828  13.241  13.557
58179W        W26397  42.405  34.359  14.928
58180W        W26398  31.049  37.105  12.481
58181W        W26399  29.490   9.049   0.007
58182W        W26400  31.916   6.817   4.385
58183W        W26401   9.596   1.212   2.651
58184W        W26402  32.241  30.665  14.540
58185W        W26403  39.309  12.124   3.700
58186W        W26404  22.729  33.352  12.986
58187W        W26405   2.060  10.816  11.591
58188W        W26406  44.433  24.289   4.056
58189W        W26407  38.996  18.149   2.388
58190W        W26408   4.715  21.526   0.317
58191W        W26409  34.687  16.069   3.407
58192W        W26410  40.222  35.703  10.568
58193W        W26411  43.138  41.464   0.358
58194W        W26412  28.508  44.954   0.683
58195W        W26413  35.218  36.574   0.796
58196W        W26414  16.107  24.349  11.125
58197W        W26415  17.007  34.501   3.326
58198W        W26416  20.620  24.867  14.882
58199W        W26417  27.078  16.310  13.537
58200W        W26418  34.077  20.864  12.893
58201W        W26419  36.574  27.983  12.979
58202W        W26420  28.198  38.394  13.767
58203W        W26421  27.535  34.628   4.399
58204W        W26422   2.724   0.363   3.231
58205W        W26423  29.895  18.178   4.077
58206W        W26424   4.016  39.075  14.901
58207W        W26425   1.536  44.956  14.861
58208W        W26426  43.504  11.418   1.488
58209W        W26427   5.404  28.588   3.668
58210W        W26428   8.072  38.954   3.143
58211W        W26429  32.881   2.299  13.909
58212W        W26430  44.387  37.806  13.935
58213W        W26431   7.311  33.758  13.823
58214W        W26432  15.107  15.044  11.091
58215W        W26433   9.051   5.936   2.236
58216W        W26434  10.801   8.866  13.488
58217W        W26435  42.471  44.036   1.983
58218W        W26436  31.817  39.098   4.580
58219W        W26437  21.176  15.153  13.079
58220W        W26438   9.308   0.641  13.946
58221W        W26439  28.421  37.503   1.950
58222W        W26440  28.078  28.150   2.206
58223W        W26441  21.535  28.118  14.328
58224W        W26442  14.798  28.564   4.096
58225W        W26443  20.979  22.610   2.419
58226W        W26444  20.685   4.333  12.140
58227W        W26445  36.532  36.568   3.669
58228W        W26446  28.268  35.536  14.294
58229W        W26447  43.522  32.734  12.997
58230W        W26448  10.266  16.891  13.378
58231W        W26449  12.066  29.501   3.264
58232W        W26450  27.956  22.485   9.927
58233W        W26451   2.807  41.176   0.446
58234W        W26452   0.973  13.683  14.303
58235W        W26453  37.089  37.371  11.588
58236W        W26454  12.736  29.371   2.762
58237W        W26455  20.107   8.360   4.676
58238W        W26456   0.238  38.555  11.177
58239W        W26457  42.697  36.768  11.224
58240W        W26458  29.982  33.351  11.403
58241W        W26459  16.530  40.197   3.257
58242W        W26460   3.777   1.755   3.238
58243W        W26461  18.187  18.153   2.677
58244W        W26462  18.808  22.124  10.680
58245W        W26463   5.915  23.045   4.215
58246W        W26464  23.043  31.451   5.080
58247W        W26465  41.035  39.562  10.660
58248W        W26466  44.926  37.656   1.416
58249W        W26467  42.219  42.083  13.330
58250W        W26468  19.821  41.795   2.338
58251W        W26469  38.818  23.516  14.468
58252W        W26470  10.721  31.852  12.881
58253W        W26471   9.714   9.421  12.509
58254W        W26472  29.845  26.409   4.124
58255W        W26473  32.444  13.353   4.056
58256W        W26474   0.315  15.307  13.026
58257W        W26475  30.983   7.405   2.696
58258W        W26476  22.431  14.067  13.315
58259W        W26477  18.560  32.727   3.130
58260W        W26478  24.369  42.306  13.613
58261W        W26479   0.971  16.314  11.702
58262W        W26480   1.384   5.414  12.809
58263W        W26481  35.375  22.524   2.322
58264W        W26482  24.033  22.542   1.928
58265W        W26483  17.556  38.504  11.308
58266W        W26484  41.100  26.655  14.940
58267W        W26485  44.368  27.197  14.610
58268W        W26486  39.897   0.021  12.857
58269W        W26487   7.955   2.872  13.384
58270W        W26488  41.448  17.221   0.706
58271W        W26489  29.179  41.399  14.604
58272W        W26490  42.925  30.416  13.955
58273W        W26491  30.548  39.139  12.779
58274W        W26492  11.926   1.946  11.945
58275W        W26493  41.575   4.935   2.175
58276W        W26494   3.954   2.015   3.667
58277W        W26495  35.319  31.647  11.656
58278W        W26496  36.497  26.531  14.628
58279W        W26497  21.360  16.898   4.820
58280W        W26498  31.269  11.556  12.579
58281W        W26499  32.779  31.482   2.775
58282W        W26500  19.578  39.171   4.129
58283W        W26501  28.450  15.683   4.503
58284W        W26502  35.835  27.932  10.997
58285W        W26503   0.044  41.738   2.348
58286W        W26504  26.828   9.246   4.107
58287W        W26505   5.891  14.529   2.415
58288W        W26506   1.369  15.054  11.072
58289W        W26507   1.798  31.342   0.736
58290W        W26508  17.265  42.125  10.616
58291W        W26509   4.975   3.295  14.731
58292W        W26510  25.632  19.765   3.718
58293W        W26511   0.509  14.719  13.803
58294W        W26512   5.089  27.634   3.018
58295W        W26513   1.209   0.390   1.945
58296W        W26514  15.289  32.843   3.223
58297W        W26515  23.006  17.001  12.891
58298W        W26516  41.244  23.010  12.963
58299W        W26517  37.103  23.596  11.200
58300W        W26518  43.786  13.388   3.272
58301W        W26519  36.082  10.688   3.423
58302W        W26520   1.172  36.764   1.036
58303W        W26521  15.945  32.868  14.012
58304W        W26522  23.973  15.631   2.184
58305W        W26523  20.532  35.858   3.756
58306W        W26524  41.799  30.887   3.279
58307W        W26525  13.239  44.496  13.831
58308W        W26526  30.698  40.326  10.740
58309W        W26527  10.293  20.977  12.730
58310W        W26528  24.519  23.607  12.885
58311W        W26529  37.262   7.946   0.026
58312W        W26530   3.844  22.540  12.116
58313W        W26531  32.148  27.881   1.767
58314W        W26532  39.930  21.930  14.698
58315W        W26533  14.692  13.197   0.624
58316W        W26534  33.123   3.649   0.188
58317W        W26535  34.605  44.874  12.013
58318W        W26536  29.015  30.461   3.379
58319W        W26537   2.545   6.752   2.862
58320W        W26538  29.677  33.668  14.478
58321W        W26539  44.843  12.419   1.380
58322W        W26540   2.428  31.918  12.962
58323W        W26541  38.566   1.253  13.957
58324W        W26542  44.073  16.053   3.276
58325W        W26543  18.064  32.960   3.116
58326W        W26544   8.406   9.200  12.887
58327W        W26545  28.934  10.804  12.966
58328W        W26546  25.512  16.275   1.091
58329W        W26547   9.734  28.811  11.176
58330W        W26548  43.354   6.865  14.964
58331W        W26549  30.599  28.216  12.802
58332W        W26550  38.320   6.255  10.644
58333W        W26551  22.294  34.585   2.245
58334W        W26552  40.245   5.716  14.274
58335W        W26553  29.995  36.374   0.178
58336W        W26554  16.821  43.462   4.318
58337W        W26555  36.465  17.734   3.286
58338W        W26556  28.867  16.782   5.055
58339W        W26557  19.929  32.960   2.894
58340W        W26558  28.496  21.987   4.120
58341W        W26559  37.806  44.429  11.135
58342W        W26560  16.349  44.325  14.480
58343W        W26561  17.077  36.087   1.620
58344W        W26562  23.265  30.211  11.661
58345W        W26563   3.306   1.773  10.721
58346W        W26564  28.113  31.254   3.757
58347W        W26565   2.395   0.656   0.666
58348W        W26566  34.656   5.003   4.302
58349W        W26567  11.281   1.328   1.993
58350W        W26568  40.102  29.434  10.957
58351W        W26569  34.990   0.334   2.109
58352W        W26570   1.128  44.347   3.397
58353W        W26571  37.021  18.716  13.448
58354W        W26572  23.234   6.139   2.739
58355W        W26573  25.775   5.428  14.726
58356W        W26574  13.906  25.514  12.481
58357W        W26575  29.670  36.568   2.647
58358W        W26576   2.521  34.883  12.330
58359W        W26577  29.069  14.059  10.796
58360W        W26578  20.499  32.479  12.028
58361W        W26579  21.320  22.526   4.204
58362W        W26580   0.214   0.886   3.678
58363W        W26581  42.859  21.540  10.336
58364W        W26582  44.856   4.285  14.836
58365W        W26583  38.432   1.245  12.580
58366W        W26584  20.208   5.200   2.920
58367W        W26585  24.974  13.324  13.867
58368W        W26586  36.416  32.883  11.526
58369W        W26587  15.070  38.180   2.369
58370W        W26588  34.557  37.421  10.431
58371W        W26589  30.635  26.008  13.387
58372W        W26590  16.205  30.618   2.718
58373W        W26591  24.883  14.400   0.904
58374W        W26592  41.259  22.391   1.766
58375W        W26593  29.659  12.814   1.716
58376W        W26594  36.422  14.634   2.739
58377W        W26595  39.019  15.111  10.520
58378W        W26596   4.924  41.288   2.648
58379W        W26597  25.646  30.938  12.165
58380W        W26598  20.174  19.783  10.505
58381W        W26599  32.417   8.442  14.873
58382W        W26600   7.656  20.147   0.283
58383W        W26601   3.375  34.507   0.484
58384W        W26602  19.553  37.734  11.924
58385W        W26603  35.870  29.941  10.089
58386W        W26604  17.191  12.672   0.451
58387W        W26605   2.510  41.966  14.328
58388W        W26606   1.349  36.973  14.464
58389W        W26607   4.786   9.648   2.149
58390W        W26608  41.084  13.850  12.998
58391W        W26609  44.577  33.907   1.784
58392W        W26610  44.637   5.533  13.437
58393W        W26611  38.836   9.126   2.695
58394W        W26612   5.780  35.786  12.886
58395W        W26613  28.169   9.811   4.630
58396W        W26614  15.069  27.435  12.670
58397W        W26615   6.456  17.720   5.406
58398W        W26616  25.617  34.427  14.497
58399W        W26617  19.188  11.919  14.984
58400W        W26618  32.809  28.460  13.537
58401W        W26619  18.352  28.067   3.068
58402W        W26620  29.587  38.073  11.106
58403W        W26621  37.459  35.528   0.969
58404W        W26622  30.580  19.486   2.805
58405W        W26623   8.648  39.331  11.508
58406W        W26624  10.187  34.943  12.530
58407W        W26625  32.375  18.093   2.063
58408W        W26626  19.600  22.324   1.729
58409W        W26627  19.168  24.502   4.588
58410W        W26628  42.775  22.315  12.069
58411W        W26629  28.248  12.411   2.681
58412W        W26630  12.799  43.291  13.554
58413W        W26631  25.523   5.320  14.302
58414W        W26632   1.743   1.732   0.798
58415W        W26633  33.488  11.414   0.551
58416W        W26634  13.741  34.388  12.329
58417W        W26635  41.544  23.745  10.477
58418W        W26636  36.497  29.906  10.715
58419W        W26637  10.280  20.653  11.113
58420W        W26638   8.231   0.208   4.658
58421W        W26639  26.731  38.250   4.445
58422W        W26640  33.053   5.741  11.394
58423W        W26641  43.059  34.267  14.265
58424W        W26642  34.289  29.894   0.759
58425W        W26643   6.145  35.371   2.099
58426W        W26644  27.251   1.159  14.321
58427W        W26645  13.082  26.413  14.387
58428W        W26646  40.875   4.676  11.962
58429W        W26647   0.349  28.194  13.334
58430W        W26648  13.750  14.583   1.385
58431W        W26649  41.752  38.499   4.194
58432W        W26650  17.012  42.419  10.959
58433W        W26651  25.934  21.824   1.272
58434W        W26652   6.829   2.844   4.904
58435W        W26653   3.221  19.764   4.084
58436W        W26654  27.045  30.437  12.054
58437W        W26655   9.140   7.354  13.869
58438W        W26656  28.450  15.395   3.666
58439W        W26657  10.389  10.327  13.392
58440W        W26658  18.340  36.033   0.822
58441W        W26659  16.868  14.735   0.303
58442W        W26660  39.539  17.607   1.443
58443W        W26661  28.189  26.121  13.106
58444W        W26662  36.147  15.807  13.068
58445W        W26663  27.764  35.012  13.990
58446W        W26664  29.368  24.605  14.258
58447W        W26665  21.317  29.886  13.983
58448W        W26666  35.166  11.131   2.787
58449W        W26667  12.871   3.827   1.887
58450W        W26668  12.078  11.452   3.707
58451W        W26669  16.045   9.112   1.238
58452W        W26670  29.290  26.358  14.465
58453W        W26671  29.469  17.969  14.846
58454W        W26672  41.422   5.917   2.240
58455W        W26673  42.537  32.519   3.835
58456W        W26674  24.152  21.655  12.139
58457W        W26675  33.027   3.734  11.665
58458W        W26676  18.500  13.939  14.521
58459W        W26677  30.969  12.556  10.374
58460W        W26678   0.293  42.943   0.380
58461W        W26679  11.910   4.576  11.259
58462W        W26680   3.699  33.018  14.422
58463W        W26681  37.763  22.577   2.490
58464W        W26682  44.123  18.512  14.078
58465W        W26683  26.247  23.193  10.893
58466W        W26684  21.518  31.768  10.810
58467W        W26685   3.878  15.180   2.750
58468W        W26686  41.928  38.087   0.777
58469W        W26687  29.443  13.838   0.754
58470W        W26688   7.166  28.125   1.272
58471W        W26689  12.327  28.916  12.984
58472W        W26690  20.923  13.820   5.296
58473W        W26691  12.568  31.308   4.784
58474W        W26692  36.872  41.001   3.559
58475W        W26693  25.052  15.409   3.129
58476W        W26694  20.205   7.658  12.179
58477W        W26695  32.588  11.208  13.507
58478W        W26696  17.382  33.485  12.012
58479W        W26697  16.647   5.193  13.846
58480W        W26698   0.209  35.410   0.074
58481W        W26699  34.473   7.893   3.832
58482W        W26700  35.856  19.108  13.268
58483W        W26701  24.999  37.678   1.984
58484W        W26702  30.949   9.188   3.439
58485W        W26703  13.520  18.970   2.828
58486W        W26704  21.605   4.691   2.484
58487W        W26705   9.195  29.519  11.469
58488W        W26706  35.168  11.556   0.833
58489W        W26707  43.527  33.592  13.318
58490W        W26708  18.865  22.575   4.428
58491W        W26709  36.908   5.814   2.206
58492W        W26710  16.918  36.326  12.949
58493W        W26711  18.020  19.829   0.197
58494W        W26712   7.732  21.257  11.087
58495W        W26713   8.723   0.346   3.306
58496W        W26714  28.526   4.922   0.103
58497W        W26715  10.290  34.809   0.413
58498W        W26716  25.433  42.939   0.072
58499W        W26717   6.878  14.699  14.375
58500W        W26718  11.969   6.776  10.627
58501W        W26719  28.200  11.243   1.884
58502W        W26720  14.546  32.146  12.141
58503W        W26721  12.333  38.407  13.485
58504W        W26722  35.690  43.424   2.728
58505W        W26723  41.773  39.072   2.841
58506W        W26724  13.653  41.152   2.282
58507W        W26725   8.924  20.673  11.091
58508W        W26726  37.522  33.490  11.995
58509W        W26727  19.292   8.347  11.680
58510W        W26728  44.668   7.869   2.709
58511W        W26729  15.653  10.858   4.851
58512W        W26730   9.675  38.969  14.113
58513W        W26731  41.889  43.455  14.834
58514W        W26732  26.555   7.429  12.008
58515W        W26733  16.299  29.672  14.724
58516W        W26734  32.810  39.863  12.413
58517W        W26735  38.865  23.147   3.120
58518W        W26736  22.525  20.717  11.516
58519W        W26737  15.327  16.756   1.707
58520W        W26738  39.095   6.678   2.837
58521W        W26739  41.262  39.078  14.420
58522W        W26740  33.434  10.614   1.808
58523W        W26741  27.728   6.918   2.845
58524W        W26742  38.616  36.969   2.750
58525W        W26743   9.098  29.741   3.264
58526W        W26744  41.647  30.696  13.418
58527W        W26745   1.405  39.057  11.553
58528W        W26746  13.791  39.786   4.450
58529W        W26747  42.566   6.621   2.853
58530W        W26748  18.112   3.700  11.081
58531W        W26749  20.778  22.205   0.693
58532W        W26750  12.795   3.522   4.375
58533W        W26751  35.925  21.505  11.100
58534W        W26752  20.319  19.968  13.848
58535W        W26753  40.447   3.895  13.054
58536W        W26754  32.877  40.319  13.123
58537W        W26755  44.490  38.414  10.711
58538W        W26756   6.614   7.324   2.232
58539W        W26757  29.386  28.578   3.276
58540W        W26758   0.364  41.271  12.500
58541W        W26759   4.522  19.820   1.657
58542W        W26760  38.517  24.813   2.357
58543W        W26761  16.059  16.746  13.006
58544W        W26762   0.661  13.183   4.827
58545W        W26763   3.739  29.203   3.752
58546W        W26764  44.506  23.774  11.884
58547W        W26765   8.731  40.863   1.294
58548W        W26766   3.172  33.771  13.083
58549W        W26767  25.079   7.833   4.275
58550W        W26768  31.574   9.706  11.572
58551W        W26769   3.739  35.953   4.573
58552W        W26770  10.230  32.481  12.552
58553W        W26771  44.743  33.511   3.214
58554W        W26772  32.960  12.683  11.206
58555W        W26773  42.978   7.422   2.917
58556W        W26774  15.105  40.996   1.797
58557W        W26775  10.178   4.817  14.108
58558W        W26776  22.483  43.390  12.393
58559W        W26777  12.095  14.052  11.599
58560W        W26778  25.535  29.604   0.785
58561W        W26779  21.246   4.145  14.215
58562W        W26780  24.873  13.877   0.844
58563W        W26781  21.169  18.853   4.808
58564W        W26782  35.169  18.287   0.113
58565W        W26783  20.955  11.250   0.863
58566W        W26784   4.264  19.187   1.050
58567W        W26785  19.677   4.423   2.891
58568W        W26786  18.169  32.707  11.375
58569W        W26787   9.956  15.507   0.511
58570W        W26788  38.469   6.926  11.851
58571W        W26789  27.186   4.317   4.931
58572W        W26790  39.316  12.297  14.566
58573W        W26791   3.610  19.002   1.879
58574W        W26792   5.156  24.370   4.659
58575W        W26793  43.281  36.807  13.910
58576W        W26794   7.753  28.046  13.749
58577W        W26795  35.884  20.273   0.872
58578W        W26796   0.579  32.054   4.853
58579W        W26797  25.067  43.391   0.318
58580W        W26798  38.861  23.010   0.561
58581W        W26799  32.687  40.981  11.483
58582W        W26800  11.477  34.048  12.900
58583W        W26801  27.560   7.261  11.546
58584W        W26802  35.908  20.495  14.490
58585W        W26803  29.771  42.135   0.341
58586W        W26804  38.155  25.557   2.297
58587W        W26805  22.548  19.146  10.837
58588W        W26806  27.079  15.860   0.391
58589W        W26807  16.190  43.553   2.623
58590W        W26808   5.389  39.255  14.839
58591W        W26809  33.714  40.654   1.374
58592W        W26810  33.284  13.162   4.008
58593W        W26811  27.424   5.326  14.075
58594W        W26812  12.196  37.507   2.305
58595W        W26813  39.824  32.478   3.191
58596W        W26814  24.857  25.664  14.211
58597W        W26815  19.093  21.282   0.251
58598W        W26816   0.908  23.222   4.220
58599W        W26817  31.940  32.395  13.687
58600W        W26818  11.626  15.219   3.547
58601W        W26819  14.872   8.035   3.994
58602W        W26820  20.620  22.149  12.565
58603W        W26821   6.632  23.466  12.983
58604W        W26822  18.133  27.682  13.494
58605W        W26823  44.950   4.203  10.504
58606W        W26824  35.575  33.570   4.721
58607W        W26825  32.484  21.727   3.186
58608W        W26826   9.860  40.273  10.949
58609W        W26827  17.354   2.920  11.856
58610W        W26828  32.722  26.038  11.811
58611W        W26829  38.662  24.103   4.388
58612W        W26830   6.310  37.001   1.787
58613W        W26831  19.572  16.770   1.267
58614W        W26832   8.036  33.626  11.590
58615W        W26833  31.173  22.109   3.487
58616W        W26834  41.113  33.472   4.256
58617W        W26835  23.226  44.949   1.892
58618W        W26836   2.241  42.512  13.364
58619W        W26837  40.394  21.264   0.805
58620W        W26838  18.081  34.169   4.604
58621W        W26839  13.233  24.588  11.525
58622W        W26840  14.487  19.764   1.382
58623W        W26841  36.567   5.478  13.450
58624W        W26842   2.003  33.077   4.003
58625W        W26843  10.171  44.313   0.978
58626W        W26844  21.050  42.598  11.242
58627W        W26845  27.330   9.864   3.694
58628W        W26846  27.900  20.807   2.884
58629W        W26847  23.597  20.258  13.404
58630W        W26848  13.827  22.226  12.729
58631W        W26849  30.057  39.077   3.808
58632W        W26850  33.011  28.019   1.919
58633W        W26851  20.316  35.703  10.659
58634W        W26852  41.948  26.119  10.352
58635W        W26853  12.492  23.158  13.131
58636W        W26854  34.514   1.898  13.965
58637W        W26855  11.338  15.662  12.502
58638W        W26856  39.069  18.298  14.438
58639W        W26857   7.393   6.383   2.139
58640W        W26858   9.330  21.990  10.602
58641W        W26859   0.908   2.343  12.573
58642W        W26860   6.233  41.515  13.440
58643W        W26861  34.162  44.711   3.455
58644W        W26862  33.045  21.496   2.363
58645W        W26863  38.128  43.509  12.502
58646W        W26864  17.509  33.646  13.553
58647W        W26865  33.507  24.550  10.602
58648W        W26866  15.307   4.439   3.818
58649W        W26867  16.861  42.075   2.145
58650W        W26868  24.173  37.398   2.014
58651W        W26869  23.159   3.457   3.199
58652W        W26870   9.392   7.967  11.684
58653W        W26871  11.854  28.348  11.522
58654W        W26872   6.649  14.231  13.323
58655W        W26873  21.960   9.920  13.252
58656W        W26874  31.903   1.976   4.976
58657W        W26875  22.293  12.761   1.954
58658W        W26876  14.313  22.041  12.727
58659W        W26877  40.851  14.735  13.405
58660W        W26878  31.375  18.538   4.140
58661W        W26879   2.851  23.932  12.188
58662W        W26880  30.675  17.979   1.640
58663W        W26881  33.909   6.936   2.098
58664W        W26882  25.288  29.224   3.161
58665W        W26883   3.938  13.113   3.311
58666W        W26884  10.401   8.361  11.176
58667W        W26885  21.598  43.693  14.329
58668W        W26886   3.271  15.556   1.818
58669W        W26887  25.380  16.271   4.107
58670W        W26888  21.744   4.980   0.777
58671W        W26889  22.257  15.612  12.047
58672W        W26890  24.553  42.352  10.895
58673W        W26891  28.052  25.266   4.155
58674W        W26892  43.726  37.059  10.770
58675W        W26893  33.850  17.232   4.596
58676W        W26894  12.446  21.996  12.255
58677W        W26895  21.209  21.513   3.354
58678W        W26896  40.060  24.933   1.838
58679W        W26897  20.501  44.472  12.366
58680W        W26898   8.843   9.177   3.270
58681W        W26899   9.569   5.936   2.295
58682W        W26900   4.354  35.135   0.023
58683W        W26901   8.894  31.244  10.756
58684W        W26902   9.353  14.625   3.233
58685W        W26903  11.659  37.497   2.262
58686W        W26904  17.251  17.563  10.501
58687W        W26905  38.505  36.856  12.773
58688W        W26906  26.008  20.977   3.079
58689W        W26907  37.336  33.369   1.664
58690W        W26908  43.241   9.877   2.674
58691W        W26909   9.611  38.160  11.767
58692W        W26910  36.706   3.021   1.952
58693W        W26911  34.070  28.168  13.500
58694W        W26912  23.187  32.767  11.114
58695W        W26913  17.342  28.037   3.268
58696W        W26914  24.790  33.020  13.904
58697W        W26915  37.029  23.109   3.144
58698W        W26916  23.472  43.347  10.531
58699W        W26917  32.141  18.351  14.778
58700W        W26918  36.857  24.611  10.717
58701W        W26919  26.372   5.845  11.649
58702W        W26920  33.411  16.247   3.180
58703W        W26921  38.304  10.835  12.093
58704W        W26922  29.457  13.191  13.680
58705W        W26923   3.823  27.277  13.151
58706W        W26924   7.310  22.285  13.290
58707W        W26925  23.177  28.491  12.149
58708W        W26926  36.475   7.824  10.704
58709W        W26927   2.227   0.915   4.194
58710W        W26928  33.651  38.057  12.778
58711W        W26929  29.542  32.641  10.747
58712W        W26930  33.157  42.361  11.281
58713W        W26931  14.241  42.318  13.700
58714W        W26932  26.716  22.995   3.277
58715W        W26933   9.765  23.938   3.295
58716W        W26934  19.238  39.465   4.841
58717W        W26935   7.734  23.174  14.701
58718W        W26936  22.880  13.825  10.657
58719W        W26937  22.675   2.958  13.685
58720W        W26938   8.114  23.346   1.347
58721W        W26939  26.576  14.653  12.929
58722W        W26940   7.587  19.113  12.988
58723W        W26941  38.956  18.608  12.107
58724W        W26942  24.734  23.336  14.524
58725W        W26943  38.442  20.567   3.881
58726W        W26944  21.284  25.346   4.480
58727W        W26945  43.483  20.747   2.245
58728W        W26946   3.726   6.961   1.414
58729W        W26947  44.367  12.689   0.684
58730W        W26948  14.074  34.110   1.416
58731W        W26949   2.862   9.148   3.638
58732W        W26950  26.947   3.455   5.146
58733W        W26951  42.708  18.091   1.362
58734W        W26952  41.988   4.729   1.952
58735W        W26953   6.343  23.576   5.068
58736W        W26954  25.942  42.883  11.167
58737W        W26955  37.975  30.891  12.099
58738W        W26956  27.778  42.280  11.074
58739W        W26957  11.338   9.575  13.773
58740W        W26958  32.443  37.268   3.871
58741W        W26959  23.969  36.626   2.823
58742W        W26960  17.739  22.334   0.132
58743W        W26961  19.109   5.324  11.681
58744W        W26962  34.491  26.012   3.661
58745W        W26963  22.177  43.974  11.128
58746W        W26964   3.287  11.274   4.020
58747W        W26965   9.636  11.658  12.643
58748W        W26966  12.155  10.307   1.749
58749W        W26967  28.149  41.365  14.358
58750W        W26968  27.330  20.247  14.591
58751W        W26969   2.865   5.341   1.209
58752W        W26970   2.797  13.341  12.994
58753W        W26971   2.803   6.989   4.541
58754W        W26972  17.385  44.516  12.367
58755W        W26973  23.447  37.234   1.387
58756W        W26974  43.951  44.550   3.561
58757W        W26975  37.122  33.670  14.789
58758W        W26976  26.429  41.265   0.345
58759W        W26977   3.235  39.069  14.848
58760W        W26978  13.761  36.024  12.969
58761W        W26979  36.139  43.072  14.735
58762W        W26980  19.715  31.464  10.750
58763W        W26981   7.626   9.077  13.815
58764W        W26982   1.722  29.831  12.041
58765W        W26983  25.239   4.908   2.914
58766W        W26984  20.357  26.383  11.604
58767W        W26985   7.840   6.506   2.366
58768W        W26986  20.852   6.315   3.612
58769W        W26987  44.023  15.143  14.935
58770W        W26988  41.458  12.157  12.734
58771W        W26989  23.677   1.734  10.590
58772W        W26990  36.871  31.762   1.352
58773W        W26991   3.096  18.843  13.252
58774W        W26992  22.962   2.271   2.833
58775W        W26993  39.922   9.901  12.087
58776W        W26994  10.554  38.875   5.352
58777W        W26995  37.397   5.235   0.001
58778W        W26996  39.283   2.713  12.611
58779W        W26997  14.526  22.466   0.844
58780W        W26998   1.017   0.907  12.865
58781W        W26999  27.930  34.045   0.449
58782W        W27000  11.046  38.157   4.157
58783W        W27001   5.217  36.688  11.719
58784W        W27002  36.944   5.985  14.798
58785W        W27003  14.412  18.541  13.019
58786W        W27004  16.266  43.872   5.074
58787W        W27005  29.048  42.538  12.551
58788W        W27006  33.619  24.812  13.416
58789W        W27007  37.839  36.779  12.507
58790W        W27008  40.594  16.664  13.955
58791W        W27009   3.010   4.370   3.236
58792W        W27010   3.472  33.636   2.253
58793W        W27011  11.812  31.439  13.022
58794W        W27012  17.591  42.074  11.033
58795W        W27013  26.239  35.559   4.734
58796W        W27014   9.048  26.514  14.501
58797W        W27015   1.788  20.635  14.256
58798W        W27016  36.835  27.055  11.461
58799W        W27017  43.026  44.816  14.452
58800W        W27018  19.135  30.409   0.987
58801W        W27019  34.062  39.267   2.807
58802W        W27020  29.294  30.653   2.640
58803W        W27021  19.026  33.008   4.499
58804W        W27022   9.290   1.644   2.691
58805W        W27023  12.216  37.642  10.201
58806W        W27024   9.697  12.714  13.971
58807W        W27025  19.707  31.589   2.744
58808W        W27026  19.684  13.083   3.853
58809W        W27027  27.893   7.335  12.987
58810W        W27028  40.107   2.746   4.254
58811W        W27029  39.312  26.597  10.729
58812W        W27030   6.266  27.055  10.586
58813W        W27031  14.808  16.710   0.430
58814W        W27032  24.457   0.820  10.991
58815W        W27033  33.383  24.001  14.856
58816W        W27034  42.036  34.055   2.404
58817W        W27035  24.672  14.111  13.027
58818W        W27036  38.928   3.748  13.598
58819W        W27037   4.483   2.084   4.936
58820W        W27038  14.846  29.969  13.898
58821W        W27039  34.017  11.809   2.756
58822W        W27040  21.995  43.236  13.425
58823W        W27041  35.525  15.846   0.876
58824W        W27042  20.566   1.665  11.625
58825W        W27043  26.276  12.274  14.065
58826W        W27044  35.449  32.223   3.256
58827W        W27045   9.469  28.531   0.783
58828W        W27046  40.473  32.230  14.540
58829W        W27047  13.851  41.367   0.897
58830W        W27048  12.389  39.360  13.890
58831W        W27049  19.677  41.784  11.116
58832W        W27050  18.767   7.492   2.715
58833W        W27051  37.845  40.834   3.293
58834W        W27052  22.107  38.501   2.455
58835W        W27053  13.588  10.648  14.670
58836W        W27054  29.999  18.259  11.392
58837W        W27055  29.538  35.074  13.248
58838W        W27056   7.833   5.171  10.664
58839W        W27057  30.034  23.096   0.325
58840W        W27058   0.965  24.526  10.550
58841W        W27059   3.721  11.747   0.757
58842W        W27060   3.392  32.859   1.762
58843W        W27061  14.646  14.793   2.744
58844W        W27062  30.396   8.914  13.082
58845W        W27063  12.417  41.413   0.374
58846W        W27064  36.140   2.475  13.600
58847W        W27065  25.941  14.396  11.901
58848W        W27066  14.631  42.992   2.665
58849W        W27067  28.999  15.299  14.439
58850W        W27068  26.219   5.460   3.129
58851W        W27069  18.877  43.337  13.575
58852W        W27070   8.381  44.291   1.208
58853W        W27071   7.592   6.354   3.195
58854W        W27072  36.037  29.937  12.897
58855W        W27073  44.403  19.723  10.803
58856W        W27074  41.380  12.225   4.069
58857W        W27075  38.110  36.052  11.268
58858W        W27076  22.265  24.409  12.389
58859W        W27077  36.496  43.692   4.527
58860W        W27078  28.186  36.667   4.933
58861W        W27079  16.551  16.595  14.387
58862W        W27080   0.187  20.315  11.140
58863W        W27081   3.405  22.808   4.149
58864W        W27082   5.204  29.165   4.735
58865W        W27083  30.446   8.824  13.634
58866W        W27084  14.561   3.837  14.686
58867W        W27085  33.687  30.622  13.875
58868W        W27086  39.057  17.567  10.939
58869W        W27087  15.838  34.591   0.013
58870W        W27088  43.530  24.872  12.972
58871W        W27089  19.730  31.934  11.035
58872W        W27090  38.906  30.673   1.639
58873W        W27091  12.687  26.540   2.323
58874W        W27092  40.368  10.807   0.921
58875W        W27093   6.821  18.430  13.634
58876W        W27094  10.827  18.527  12.385
58877W        W27095  27.555   4.650  12.359
58878W        W27096  33.106  29.989   4.121
58879W        W27097  28.463  32.439   3.900
58880W        W27098   2.308  35.566   1.753
58881W        W27099  13.200  34.863  11.644
58882W        W27100  22.557  44.790  13.569
58883W        W27101  43.414   0.709   4.531
58884W        W27102  10.105  17.301  13.831
58885W        W27103  31.545  42.386   4.140
58886W        W27104   7.156   0.314  10.804
58887W        W27105   9.929  24.381  13.726
58888W        W27106  42.072   1.576   2.328
58889W        W27107  35.932  21.198   3.325
58890W        W27108   9.062   8.734  12.606
58891W        W27109  26.959  42.471   1.307
58892W        W27110  24.011  39.755   1.883
58893W        W27111  39.346  39.827  11.872
58894W        W27112  14.162  36.648   3.088
58895W        W27113  25.947  31.186   4.280
58896W        W27114  44.402  42.960   0.484
58897W        W27115   6.900  42.786   1.866
58898W        W27116   5.679  34.119   1.747
58899W        W27117  27.285  13.654   2.897
58900W        W27118  34.578  16.067   1.880
58901W        W27119  38.454  44.477  12.073
58902W        W27120  17.349  12.608  13.954
58903W        W27121  13.795  15.539   3.179
58904W        W27122  33.883  18.647  10.709
58905W        W27123   8.779  22.733  14.504
58906W        W27124  16.327  27.918  12.638
58907W        W27125  10.680  12.141  13.424
58908W        W27126  25.558  16.072   2.125
58909W        W27127  33.646  34.430  12.105
58910W        W27128   4.065  12.790  11.209
58911W        W27129   8.283  42.390   1.812
58912W        W27130  16.877  41.514   0.926
58913W        W27131  15.482  12.063  12.933
58914W        W27132  43.007  34.412  11.104
58915W        W27133  41.840  15.799  14.427
58916W        W27134  12.009  30.174  14.362
58917W        W27135  43.343   5.109  13.569
58918W        W27136  33.141   6.956  12.879
58919W        W27137  44.651  25.234   2.279
58920W        W27138  22.795   1.494   3.209
58921W        W27139   7.546  35.907   5.261
58922W        W27140   2.923   6.146  14.359
58923W        W27141   9.615  32.396  13.285
58924W        W27142   3.272  22.044  11.261
58925W        W27143  10.386  44.551   4.549
58926W        W27144  26.532  21.652  10.023
58927W        W27145  44.818  19.837   4.103
58928W        W27146   4.997   6.343   1.717
58929W        W27147  10.083  32.538   4.041
58930W        W27148  37.402  10.066   0.576
58931W        W27149   1.357  19.825  12.977
58932W        W27150  43.890  27.371  10.560
58933W        W27151   3.272  23.896  11.466
58934W        W27152  15.279  38.342  12.869
58935W        W27153  18.617  12.313   1.870
58936W        W27154  21.813  16.830  14.781
58937W        W27155  13.122  14.202  12.922
58938W        W27156   2.478  36.945   1.203
58939W        W27157   9.217  42.896   2.301
58940W        W27158  15.668  33.384   3.019
58941W        W27159  32.833   5.280   1.292
58942W        W27160  26.099  21.649   2.145
58943W        W27161  18.120  41.117   0.910
58944W        W27162  33.899  26.086  14.243
58945W        W27163  34.628  10.296  14.516
58946W        W27164  37.346   5.066   2.682
58947W        W27165   8.201  39.557  14.112
58948W        W27166  36.861  15.886  13.730
58949W        W27167  22.039   5.301  11.529
58950W        W27168  40.704   4.731   4.207
58951W        W27169  16.877  43.897  11.050
58952W        W27170  43.772  14.533   1.354
58953W        W27171  10.169  33.463   2.406
58954W        W27172  18.099  43.355  11.431
58955W        W27173  30.852  12.332  11.697
58956W        W27174  13.295  33.991   2.833
58957W        W27175  38.958   1.735   0.318
58958W        W27176  11.760  12.160  10.617
58959W        W27177  18.726  28.110  13.466
58960W        W27178  44.915  15.266   4.642
58961W        W27179  35.743   4.822   2.853
58962W        W27180  18.256  37.127  12.910
58963W        W27181  27.994  16.372   1.253
58964W        W27182  23.716  23.546   4.667
58965W        W27183  15.708  19.949   0.418
58966W        W27184   2.941  33.492  13.477
58967W        W27185  31.912  21.308   2.632
58968W        W27186  18.559  37.808   0.333
58969W        W27187  42.471   6.734   0.029
58970W        W27188  32.685  35.657   4.115
58971W        W27189  26.687  12.321  14.423
58972W        W27190  44.750   3.627   0.754
58973W        W27191  44.486   1.256   0.952
58974W        W27192  11.455  30.646   2.156
58975W        W27193  11.824  24.504   3.249
58976W        W27194  35.157  25.748   0.461
58977W        W27195  24.736  32.564  14.781
58978W        W27196  17.283  35.075  13.876
58979W        W27197  31.439  26.825  14.964
58980W        W27198  38.816  25.420  12.411
58981W        W27199  23.978   2.000   1.829
58982W        W27200  13.750  38.426  12.545
58983W        W27201  23.173   9.199  10.728
58984W        W27202   8.687  12.824  13.757
58985W        W27203  31.707   6.405  12.282
58986W        W27204  29.928  10.496   4.539
58987W        W27205  25.504  29.991   1.127
58988W        W27206   5.777  19.373  12.868
58989W        W27207  26.108  20.365   5.026
58990W        W27208  17.081  23.891   0.893
58991W        W27209  44.146  31.934  14.973
58992W        W27210  30.883  33.440  12.588
58993W        W27211  43.364  33.286  10.425
58994W        W27212   5.642  34.111  11.473
58995W        W27213  29.125  41.564  13.463
58996W        W27214  38.517   6.268   2.883
58997W        W27215  36.054  11.776  13.067
58998W        W27216  35.252   4.914   1.576
58999W        W27217  25.736  32.794   0.851
59000W        W27218  40.420   3.647  13.523
59001W        W27219  39.507  42.703   4.136
59002W        W27220  14.844  10.277   4.578
59003W        W27221  33.453  25.076   2.783
59004W        W27222  17.809   3.256   1.654
59005W        W27223   5.016  32.436  14.410
59006W        W27224  21.813  32.377   0.682
59007W        W27225  32.171  38.737   2.249
59008W        W27226  14.131  35.950   1.367
59009W        W27227  35.926  44.785   1.346
59010W        W27228  12.261  39.418   0.317
59011W        W27229  12.142  19.754  13.469
59012W        W27230  24.749   0.823  13.391
59013W        W27231  26.179  29.670   0.473
59014W        W27232  38.140   4.339   0.611
59015W        W27233  25.122  16.936   3.152
59016W        W27234   7.381  10.826  14.555
59017W        W27235  11.893  38.562  12.160
59018W        W27236   7.193  30.380   1.704
59019W        W27237  40.919  25.754   2.416
59020W        W27238  36.374  38.891   2.942
59021W        W27239  32.024  30.342   1.746
59022W        W27240  27.989   3.749  13.487
59023W        W27241  18.630  11.541   2.417
59024W        W27242  21.980  32.468  14.343
59025W        W27243  36.802   6.280  12.626
59026W        W27244  23.344  44.402   1.305
59027W        W27245  16.574  37.910   3.662
59028W        W27246  17.204  30.364   2.676
59029W        W27247  35.452  34.886  12.177
59030W        W27248  26.797   8.704  12.350
59031W        W27249   6.354  37.913  10.584
59032W        W27250  18.571  17.472  11.716
59033W        W27251  37.036  33.002   2.565
59034W        W27252  24.279   7.301  13.034
59035W        W27253  42.814  15.598   2.438
59036W        W27254   7.125  15.267  13.147
59037W        W27255  26.771  20.257  14.527
59038W        W27256   3.237  14.261   3.316
59039W        W27257   0.478  14.216  13.921
59040W        W27258  10.539  18.290   2.159
59041W        W27259   4.968  12.183  11.487
59042W        W27260  36.353  40.543   2.895
59043W        W27261  34.563  12.235  14.661
59044W        W27262   6.233  39.792   5.471
59045W        W27263  28.128  33.647  11.311
59046W        W27264  37.608  38.381  13.097
59047W        W27265  44.202  34.313  11.566
59048W        W27266  31.066  10.205   1.884
59049W        W27267  33.634  35.778   0.745
59050W        W27268  33.968  19.807  14.009
59051W        W27269  36.763  32.722  14.848
59052W        W27270  38.828  26.257   1.086
59053W        W27271  41.393  29.438  11.589
59054W        W27272   3.781  12.685  14.848
59055W        W27273  25.489  25.701  12.415
59056W        W27274  12.335  28.712   2.209
59057W        W27275  40.935   2.900   1.735
59058W        W27276  38.044  20.823  13.041
59059W        W27277  15.065  22.729  14.750
59060W        W27278  34.851   8.414  12.989
59061W        W27279  37.801  12.363   2.736
59062W        W27280  23.187   8.559   1.870
59063W        W27281   8.157  24.767  12.003
59064W        W27282  29.518  25.260   4.945
59065W        W27283   0.768  22.405  14.016
59066W        W27284   9.869  11.633  13.127
59067W        W27285   4.439  19.568   3.266
59068W        W27286  27.652   9.812  13.541
59069W        W27287  35.553  39.561  14.372
59070W        W27288  29.987  31.897  11.619
59071W        W27289  34.585  33.085   2.149
59072W        W27290  18.700  14.580   2.201
59073W        W27291  24.246  43.337   3.964
59074W        W27292  44.595  28.411   1.271
59075W        W27293  40.307  28.050  10.833
59076W        W27294  42.072  42.570  13.364
59077W        W27295  30.085  13.030  12.130
59078W        W27296   9.678   5.940  13.524
59079W        W27297  10.372  17.639  10.287
59080W        W27298  34.859   0.482  11.066
59081W        W27299  37.415  27.813   2.729
59082W        W27300  44.524  17.472   2.444
59083W        W27301  21.786  25.048   3.408
59084W        W27302  22.662  36.931   2.268
59085W        W27303  14.367  16.378  10.755
59086W        W27304  23.632  19.954   0.100
59087W        W27305  32.287  16.092   3.713
59088W        W27306  15.173  19.690  11.536
59089W        W27307  23.256  24.335  14.510
59090W        W27308  29.610  34.221   0.222
59091W        W27309   1.405  14.176  13.806
59092W        W27310   3.932  30.705   2.763
59093W        W27311   2.761  36.571  11.683
59094W        W27312   4.328  19.399  13.005
59095W        W27313  13.555   0.838  13.998
59096W        W27314  23.486   7.176  11.400
59097W        W27315   5.433  38.945  11.395
59098W        W27316  15.687  41.652  11.484
59099W        W27317  24.430  38.607  13.786
59100W        W27318  32.414  11.674  14.852
59101W        W27319  35.522   6.645  10.696
59102W        W27320   0.466  31.785   0.105
59103W        W27321  37.214   8.388   2.402
59104W        W27322  34.045  16.840  10.795
59105W        W27323  10.282   7.415   5.028
59106W        W27324  19.730  12.662   5.139
59107W        W27325  37.578  23.231   3.059
59108W        W27326  43.763  12.459  10.674
59109W        W27327  30.458  12.715  10.448
59110W        W27328  23.672   8.643   0.790
59111W        W27329  24.120  30.487   3.877
59112W        W27330  40.447  24.088   1.930
59113W        W27331   4.348   3.156   1.374
59114W        W27332   6.645  13.354   2.825
59115W        W27333   1.192  43.339   1.444
59116W        W27334   4.734  17.678  13.041
59117W        W27335  17.334   8.838   2.250
59118W        W27336  42.494  22.659   1.378
59119W        W27337  42.969   0.179   0.382
59120W        W27338  44.414  19.819   3.262
59121W        W27339  44.223  34.073   1.437
59122W        W27340   6.901  11.183   0.755
59123W        W27341  35.406   4.623  13.871
59124W        W27342   7.249   2.763  14.261
59125W        W27343  21.269  16.687  13.429
59126W        W27344  24.218  28.064   2.718
59127W        W27345   7.636   7.027   1.987
59128W        W27346   9.180  40.361  12.638
59129W        W27347   4.452  24.642  13.866
59130W        W27348  16.857  19.579  12.160
59131W        W27349  27.318  16.627  12.633
59132W        W27350  32.123  28.507   0.275
59133W        W27351  25.189  34.628  11.601
59134W        W27352   0.049   4.783   4.637
59135W        W27353   5.814  44.870  10.317
59136W        W27354   1.921  42.938  11.925
59137W        W27355  26.520  21.533  14.907
59138W        W27356  37.653  20.730   1.766
59139W        W27357  37.920  35.073   4.536
59140W        W27358   0.409  19.272  14.351
59141W        W27359  26.308  27.067  14.310
59142W        W27360  20.699  24.225   0.545
59143W        W27361  44.287  28.555   0.035
59144W        W27362  43.983   8.868  10.642
59145W        W27363  13.482   7.114  11.119
59146W        W27364  14.139  34.456   2.210
59147W        W27365  14.099  31.483  11.048
59148W        W27366  24.202   9.704   3.714
59149W        W27367  27.629  14.297   0.498
59150W        W27368   5.386  31.595   0.407
59151W        W27369   7.917   3.974  10.996
59152W        W27370  19.540   5.658   0.161
59153W        W27371  10.898  15.364   3.044
59154W        W27372  33.547  32.887  11.082
59155W        W27373  10.643  21.214   1.351
59156W        W27374   9.974  35.013  13.856
59157W        W27375  35.580  18.367  10.681
59158W        W27376  44.497  36.124  12.910
59159W        W27377  31.239   8.893  10.111
59160W        W27378   1.548  25.816  10.813
59161W        W27379  31.227   2.724   3.234
59162W        W27380  27.333  28.495   2.511
59163W        W27381   2.462  20.062  13.875
59164W        W27382  33.399  19.146  11.576
59165W        W27383  36.849  21.205   3.613
59166W        W27384   3.942  23.212  11.434
59167W        W27385   9.728  33.404   3.116
59168W        W27386   8.361  32.415   2.255
59169W        W27387   8.675  28.489   3.350
59170W        W27388  26.532   2.493   4.877
59171W        W27389  17.126  20.299   4.185
59172W        W27390  19.313  31.380   3.059
59173W        W27391  37.481  35.020   2.326
59174W        W27392  35.034  39.977  12.920
59175W        W27393   4.835  29.116   0.972
59176W        W27394  11.747  15.714   0.999
59177W        W27395  24.630  28.490   2.775
59178W        W27396  13.075  39.049  14.342
59179W        W27397   8.425   0.113  13.854
59180W        W27398   5.524   0.045   2.776
59181W        W27399   6.228  35.548  12.812
59182W        W27400  17.685   0.967   0.160
59183W        W27401  43.526   6.685   1.949
59184W        W27402   0.249  44.981  13.758
59185W        W27403   5.768  28.615   4.850
59186W        W27404  29.697   3.371   2.820
59187W        W27405  23.133  25.132   3.441
59188W        W27406   6.483   1.950   9.869
59189W        W27407  38.982  40.969   3.170
59190W        W27408   8.959   5.998  11.174
59191W        W27409  32.384  15.756   1.151
59192W        W27410  12.871   8.650   4.075
59193W        W27411  44.705  30.968  11.543
59194W        W27412  19.835  10.124   0.917
59195W        W27413   2.144  37.571   1.459
59196W        W27414   5.367  32.256  13.574
59197W        W27415  13.675  35.155  10.571
59198W        W27416   5.868  13.672   3.217
59199W        W27417  24.546  11.078  13.487
59200W        W27418  21.556  35.416  11.956
59201W        W27419   2.188  17.242  13.025
59202W        W27420  44.202  15.260  14.467
59203W        W27421  38.991  30.739  10.448
59204W        W27422  31.931  32.586  10.720
59205W        W27423  39.365  11.033  13.838
59206W        W27424  20.868  15.755  11.553
59207W        W27425  44.266  27.633   4.612
59208W        W27426  11.228  39.920   3.152
59209W        W27427   3.470  34.838  11.920
59210W        W27428  16.290  14.187   2.461
59211W        W27429   3.944  18.105   1.699
59212W        W27430  10.848  27.631   0.849
59213W        W27431  24.457  27.595  12.980
59214W        W27432  25.074  32.873  13.482
59215W        W27433   6.786   8.910  11.112
59216W        W27434  44.457  32.178  13.458
59217W        W27435  12.353  26.170  13.551
59218W        W27436  38.828  41.822   0.780
59219W        W27437  34.199   5.946   0.424
59220W        W27438  39.231  43.997  12.640
59221W        W27439  18.603   9.368   2.427
59222W        W27440   1.747  21.044   3.251
59223W        W27441  37.671  23.645  11.420
59224W        W27442  31.864   1.075   1.178
59225W        W27443   8.256  36.831   2.238
59226W        W27444  10.805  34.529   3.692
59227W        W27445  10.826  42.809   2.339
59228W        W27446   4.775   1.285   3.960
59229W        W27447  42.794  43.995  14.812
59230W        W27448  21.865  44.023  12.131
59231W        W27449  15.253   5.385   1.876
59232W        W27450   8.285   6.196   1.452
59233W        W27451   7.793  21.779  11.092
59234W        W27452  15.411   3.912   0.413
59235W        W27453  40.113  41.013  13.411
59236W        W27454   9.832  21.251  13.497
59237W        W27455  30.584  19.715  14.780
59238W        W27456  30.591  26.241   4.229
59239W        W27457  30.561  19.022   1.443
59240W        W27458   7.725   0.421  12.110
59241W        W27459   2.904  43.122   3.740
59242W        W27460  21.316   2.350   3.619
59243W        W27461   5.596  22.338   4.667
59244W        W27462  31.392   4.295   2.213
59245W        W27463   4.155  33.398   4.127
59246W        W27464  23.165  28.223  13.500
59247W        W27465  11.085   0.647  11.022
59248W        W27466  25.081  40.449   0.182
59249W        W27467   0.761  33.489   3.982
59250W        W27468  35.222  12.599  10.794
59251W        W27469  14.213  13.068   4.671
59252W        W27470  25.713  44.908  13.887
59253W        W27471  28.966  10.868   4.601
59254W        W27472   4.966  25.026   2.705
59255W        W27473  43.317  29.870  11.079
59256W        W27474   3.807  13.072  10.450
59257W        W27475  41.734  38.011   4.995
59258W        W27476  40.961  26.681   4.701
59259W        W27477   8.269  20.935   1.791
59260W        W27478  39.518  37.524   2.579
59261W        W27479  37.403  14.367  13.682
59262W        W27480  22.748  15.092  12.543
59263W        W27481  43.707  30.495  13.815
59264W        W27482  41.479  27.522  13.461
59265W        W27483  21.625  10.542  13.943
59266W        W27484  31.570  24.791  12.423
59267W        W27485  11.248   8.355   0.344
59268W        W27486  24.531  27.070   3.373
59269W        W27487  29.905  27.238  12.041
59270W        W27488  31.108  14.594   3.306
59271W        W27489   8.801  34.799   3.718
59272W        W27490  31.841  41.812  11.130
59273W        W27491  30.615   6.792  11.994
59274W        W27492  19.819  36.477   1.657
59275W        W27493  34.990  25.977   0.888
59276W        W27494   6.655  34.356   4.045
59277W        W27495  35.185  24.609   3.319
59278W        W27496  33.608  40.115   3.193
59279W        W27497  21.457  38.938  12.406
59280W        W27498  31.813  11.743  14.261
59281W        W27499  12.164   1.213   3.301
59282W        W27500  23.801  29.894  13.609
59283W        W27501  39.963  29.840  10.639
59284W        W27502  40.558  37.336   3.797
59285W        W27503  31.402  42.404   1.049
59286W        W27504  42.488   6.106  11.556
59287W        W27505  21.220   1.196   2.507
59288W        W27506  38.898  41.393  13.883
59289W        W27507  25.182  15.225  12.850
59290W        W27508   9.629  28.933   2.781
59291W        W27509  11.204  10.199   0.188
59292W        W27510  16.132  28.256  13.041
59293W        W27511  20.625   0.078   4.774
59294W        W27512  39.598  35.425   1.296
59295W        W27513   3.385  17.701  12.066
59296W        W27514  14.233  12.660  14.268
59297W        W27515  43.654  14.055   4.565
59298W        W27516  41.095  38.355  12.959
59299W        W27517   6.309  28.194   4.987
59300W        W27518  18.715   5.507  13.760
59301W        W27519  27.427  10.946   2.899
59302W        W27520  20.772  15.765   5.085
59303W        W27521  43.201   8.679  14.965
59304W        W27522  18.533  30.663  12.127
59305W        W27523  11.146  17.778   0.785
59306W        W27524   3.390  14.189   4.362
59307W        W27525  12.081  27.651   3.723
59308W        W27526  12.805  27.412  14.333
59309W        W27527  18.785  39.327  11.359
59310W        W27528  11.894  30.355  12.663
59311W        W27529  22.124  20.035   4.661
59312W        W27530  19.088  12.177  14.547
59313W        W27531  32.109  17.671   1.890
59314W        W27532  17.276  41.346  13.831
59315W        W27533  37.900  14.076  14.463
59316W        W27534  20.500  42.575   0.821
59317W        W27535  20.282   1.712  12.602
59318W        W27536  44.827  41.359  12.446
59319W        W27537  29.996  38.620   1.505
59320W        W27538   8.946  33.276  13.616
59321W        W27539   7.645  35.417  11.967
59322W        W27540   1.262  30.560  10.538
59323W        W27541  32.398  44.412   1.667
59324W        W27542  32.399  24.029   4.526
59325W        W27543  23.412  27.677   0.272
59326W        W27544  13.272   6.141  11.872
59327W        W27545  24.721   8.376   0.353
59328W        W27546  33.125  34.476   2.677
59329W        W27547   2.404   3.167   3.191
59330W        W27548  28.748  25.746   4.580
59331W        W27549  35.226  26.473  13.228
59332W        W27550   9.878  23.035  12.348
59333W        W27551   9.631  18.657   0.730
59334W        W27552  21.156  40.493   4.060
59335W        W27553  16.031  10.775  12.356
59336W        W27554  34.453   0.127  14.509
59337W        W27555  22.608   0.280  12.620
59338W        W27556  27.442  36.375   3.313
59339W        W27557  15.678  37.429  12.015
59340W        W27558  23.624  22.618   9.803
59341W        W27559   4.344  39.859   5.653
59342W        W27560  31.516   5.322  11.058
59343W        W27561  10.888  32.989  11.959
59344W        W27562  28.299  37.182   4.026
59345W        W27563   5.628  21.575   0.263
59346W        W27564  17.188  10.845  12.989
59347W        W27565  14.221  43.962  12.416
59348W        W27566  36.963   4.951   4.599
59349W        W27567   6.081  26.748   2.148
59350W        W27568   6.963  39.536  11.627
59351W        W27569  10.741  15.038   4.977
59352W        W27570  37.307  36.060  10.305
59353W        W27571  19.157  24.564   2.311
59354W        W27572   9.417  41.928  11.895
59355W        W27573   2.037  38.584  12.034
59356W        W27574  21.648  32.259  10.684
59357W        W27575  10.955  30.637   1.952
59358W        W27576  12.423   7.238   2.435
59359W        W27577  12.733  16.177   4.103
59360W        W27578  26.698   2.826   4.522
59361W        W27579  17.044  37.929   2.520
59362W        W27580  28.652  23.051  14.544
59363W        W27581  42.777  14.720   0.513
59364W        W27582  16.359   8.215   4.362
59365W        W27583   5.948  12.705   0.261
59366W        W27584  29.100  13.284  10.109
59367W        W27585  26.548  24.492   0.972
59368W        W27586  30.969  26.211  10.761
59369W        W27587   1.254  32.487  12.521
59370W        W27588  40.840  38.798  11.630
59371W        W27589  19.217   0.892   4.293
59372W        W27590   1.779  16.670   2.766
59373W        W27591  14.784   9.307  14.504
59374W        W27592  26.363  41.740   2.221
59375W        W27593  29.257   6.114  12.448
59376W        W27594  20.158  44.221  13.344
59377W        W27595  25.762   7.328   2.771
59378W        W27596  35.775   1.734   0.565
59379W        W27597  32.578  43.219   2.742
59380W        W27598   0.427  17.194   2.936
59381W        W27599  22.980   4.881   4.510
59382W        W27600  26.049   8.081  11.407
59383W        W27601  44.532  22.386  11.142
59384W        W27602  24.981  42.607  11.042
59385W        W27603  29.908  17.042   0.874
59386W        W27604  22.472  11.196   1.976
59387W        W27605  28.044  14.896  12.375
59388W        W27606  26.664  25.151   0.166
59389W        W27607  27.878   7.414   1.701
59390W        W27608  19.457  22.173   0.100
59391W        W27609  28.589  28.947   3.864
59392W        W27610  44.389  40.765  14.343
59393W        W27611   4.901  11.531   2.819
59394W        W27612  42.887  32.274   3.290
59395W        W27613   5.508  32.669   2.347
59396W        W27614   7.137   6.890  13.374
59397W        W27615  24.618  41.307   1.107
59398W        W27616  41.107  31.784  12.861
59399W        W27617  42.354  36.570   1.889
59400W        W27618  36.657   1.376   3.810
59401W        W27619  16.218  31.018  13.734
59402W        W27620  20.341   3.297   0.796
59403W        W27621  35.428   5.256   4.779
59404W        W27622  15.416  12.787  11.594
59405W        W27623  10.568  29.785   3.400
59406W        W27624  25.010   4.496  11.034
59407W        W27625  29.470  32.592   4.170
59408W        W27626  33.173   2.854  12.875
59409W        W27627  14.709  30.454   0.259
59410W        W27628  39.048  39.032  12.470
59411W        W27629   1.649  29.654  10.820
59412W        W27630  32.817  21.494   1.417
59413W        W27631  13.680  36.468   3.246
59414W        W27632  15.791  38.038  13.489
59415W        W27633  14.092   6.284   0.493
59416W        W27634  42.990  24.626  13.761
59417W        W27635  23.285  17.690  11.879
59418W        W27636  28.131  43.527   3.260
59419W        W27637  26.191  29.456  14.589
59420W        W27638  26.404  28.001  14.025
59421W        W27639  32.942  17.127  14.879
59422W        W27640   3.844   9.994   5.006
59423W        W27641  27.563  15.365   0.744
59424W        W27642   1.991  43.847  13.467
59425W        W27643   1.268  36.336   0.457
59426W        W27644  22.767  12.259  12.012
59427W        W27645  35.082  12.327   1.346
59428W        W27646  29.641  24.213  14.558
59429W        W27647   3.203   1.681   1.792
59430W        W27648  17.722   1.569  13.344
59431W        W27649  38.519  16.176   2.385
59432W        W27650   2.450  40.826  11.152
59433W        W27651  38.527  19.189  12.998
59434W        W27652   2.796  22.208   1.645
59435W        W27653  34.533  11.808  14.367
59436W        W27654  10.206  44.996  11.935
59437W        W27655  36.664  17.136   2.865
59438W        W27656  37.094   9.541   2.809
59439W        W27657   1.115  14.074  12.028
59440W        W27658  22.148  17.370   3.160
59441W        W27659   2.732  43.823   0.846
59442W        W27660  27.182   5.873  13.592
59443W        W27661  27.479   2.808   0.040
59444W        W27662  42.539  19.687  11.102
59445W        W27663  11.343  34.089  14.780
59446W        W27664   9.173  11.436   2.256
59447W        W27665  20.313  36.632   4.230
59448W        W27666  35.959  36.726  12.573
59449W        W27667   5.378   0.382  12.815
59450W        W27668  41.062  21.253   4.204
59451W        W27669  35.762  26.699  11.780
59452W        W27670  34.503   5.883   4.011
59453W        W27671  41.336   4.163  13.510
59454W        W27672   1.262  25.584  11.159
59455W        W27673   5.979  13.865  12.344
59456W        W27674   8.965  39.909   2.270
59457W        W27675   6.310  19.846  11.162
59458W        W27676   1.699   0.057  12.070
59459W        W27677  15.806   9.318  13.839
59460W        W27678  24.181   0.812   4.535
59461W        W27679  14.618  38.967   2.555
59462W        W27680  11.336  14.080  13.302
59463W        W27681   2.941   3.189  13.991
59464W        W27682  33.107   3.888  12.152
59465W        W27683  16.285   8.069  14.741
59466W        W27684  43.425   7.842   0.435
59467W        W27685  17.933   9.514  14.968
59468W        W27686  42.445  26.702  14.852
59469W        W27687  14.169  22.192  10.423
59470W        W27688  17.058   6.195  11.566
59471W        W27689  23.224  25.615  13.300
59472W        W27690  19.242  40.894   2.326
59473W        W27691  20.135  43.524   3.734
59474W        W27692  39.338  43.599   2.458
59475W        W27693  10.355   2.632  14.303
59476W        W27694  39.651  20.770   4.298
59477W        W27695   0.393  20.143  10.696
59478W        W27696  40.978   8.677  13.034
59479W        W27697  22.623  18.802   2.337
59480W        W27698  21.701  13.322   4.586
59481W        W27699  26.567   1.066  12.545
59482W        W27700  27.978  10.720   4.812
59483W        W27701   0.124  37.579  12.071
59484W        W27702  12.628   2.611  14.147
59485W        W27703   5.674   1.853   1.365
59486W        W27704  13.332  43.226   3.301
59487W        W27705   4.880  44.526  11.562
59488W        W27706  29.510  18.645   2.282
59489W        W27707  42.008  26.429  14.695
59490W        W27708  20.268  40.465  14.065
59491W        W27709  28.922  12.121   4.087
59492W        W27710  27.203  42.412  13.875
59493W        W27711  18.219   8.395   2.299
59494W        W27712  15.707  36.816   0.668
59495W        W27713   3.696  37.794   3.727
59496W        W27714   3.721  18.853   3.214
59497W        W27715   2.357  40.015  10.723
59498W        W27716  28.435  24.077   2.749
59499W        W27717  27.490  36.866   3.087
59500W        W27718  32.366  13.769  14.039
59501W        W27719  28.438  32.941  10.628
59502W        W27720  11.786   4.581   0.800
59503W        W27721   8.435   6.670   3.657
59504W        W27722  20.182  38.750  13.834
59505W        W27723  17.028  43.658  10.607
59506W        W27724  14.059  35.928   1.874
59507W        W27725  42.340  39.104   2.796
59508W        W27726   3.646  10.048  10.236
59509W        W27727   3.798  31.386   1.828
59510W        W27728  22.180   4.680   3.536
59511W        W27729  18.142  27.031   2.818
59512W        W27730  32.498  31.346   2.361
59513W        W27731  36.523   6.046  14.414
59514W        W27732  43.527  28.020   1.935
59515W        W27733  27.241  15.386  13.750
59516W        W27734  11.285  33.555   3.044
59517W        W27735  16.249  43.254   2.192
59518W        W27736   9.893   0.038   3.316
59519W        W27737  40.444   3.656  12.583
59520W        W27738  28.926  27.646   0.895
59521W        W27739  35.448  23.804   2.808
59522W        W27740  14.035  42.815   0.834
59523W        W27741   3.464   0.301   2.752
59524W        W27742  20.192  41.782   3.224
59525W        W27743  20.781  31.949   3.731
59526W        W27744   3.390  23.659   4.339
59527W        W27745   8.662  14.850   2.767
59528W        W27746  23.125  28.561  11.105
59529W        W27747  34.343  39.042  12.235
59530W        W27748  20.919   3.153  12.739
59531W        W27749  40.268  35.050   0.901
59532W        W27750  12.312  25.629   1.807
59533W        W27751   5.330  10.160  13.412
59534W        W27752   8.274  32.589  14.429
59535W        W27753  19.173   9.962   2.881
59536W        W27754  19.478  16.535   0.133
59537W        W27755  18.547  16.231   4.623
59538W        W27756  42.880  32.136  14.863
59539W        W27757  22.827  41.951   3.430
59540W        W27758  12.185  33.457  13.951
59541W        W27759  38.958  27.920  11.167
59542W        W27760  38.322  28.066   2.175
59543W        W27761  10.865  11.968  14.469
59544W        W27762  18.037  21.035  13.413
59545W        W27763   6.558   6.293   5.135
59546W        W27764   6.044   1.592  11.601
59547W        W27765  14.346  41.393   4.018
59548W        W27766  20.479  33.937  11.876
59549W        W27767   1.807  42.344   0.826
59550W        W27768   1.213  35.329  11.131
59551W        W27769  32.345  39.539   4.655
59552W        W27770  35.277  10.053  11.654
59553W        W27771  32.705  16.401   3.770
59554W        W27772  25.990   4.677  14.746
59555W        W27773  17.752  34.045  14.210
59556W        W27774  37.223   1.842  12.668
59557W        W27775  17.203   1.554  13.992
59558W        W27776  43.491  26.669   4.104
59559W        W27777   0.189  25.359   1.817
59560W        W27778  30.178  11.258  12.962
59561W        W27779  30.256  24.674   0.874
59562W        W27780  32.163   5.272   0.337
59563W        W27781  12.146  29.480  13.941
59564W        W27782  20.486  22.091   4.089
59565W        W27783  31.052  22.473  11.616
59566W        W27784  41.313   7.264  11.675
59567W        W27785  36.691  37.588  14.827
59568W        W27786  36.295  29.370   4.193
59569W        W27787  33.672  32.949   3.902
59570W        W27788  20.888  18.470  11.601
59571W        W27789   0.303  11.184   1.905
59572W        W27790  22.221  31.661  11.088
59573W        W27791  22.773  44.032  13.918
59574W        W27792  41.722  16.309   0.417
59575W        W27793   8.148  41.970   4.217
59576W        W27794  30.145  26.104  13.414
59577W        W27795  11.859  38.963  13.878
59578W        W27796  40.600   7.418   1.455
59579W        W27797   2.984  25.194   0.721
59580W        W27798  14.601  33.869  12.500
59581W        W27799  24.082  38.071   4.985
59582W        W27800  43.853  39.171  13.031
59583W        W27801  42.396  44.516   1.052
59584W        W27802  20.658   7.858  12.289
59585W        W27803  19.083  32.900  12.999
59586W        W27804  40.868  17.772   4.992
59587W        W27805   6.605  37.955  11.031
59588W        W27806   5.129  34.128  11.422
59589W        W27807  37.562  27.172  11.876
59590W        W27808  22.609  35.628  13.576
59591W        W27809  36.104  15.702  12.056
59592W        W27810   6.834  27.608   0.611
59593W        W27811  29.971  14.082  13.608
59594W        W27812  22.777  21.986  10.698
59595W        W27813  38.244  40.835  12.853
59596W        W27814   1.930  36.141   2.295
59597W        W27815  34.480  13.905   0.864
59598W        W27816  17.691  33.895  11.648
59599W        W27817  17.514  21.722   2.714
59600W        W27818  24.758  19.571   2.426
59601W        W27819  31.498  33.513  13.694
59602W        W27820  42.964  37.298  13.186
59603W        W27821  32.858  44.381   3.143
59604W        W27822  28.222  42.011  11.562
59605W        W27823  25.510   9.679   4.123
59606W        W27824  28.003  12.869  12.839
59607W        W27825   7.408  11.258   2.851
59608W        W27826  35.699  34.080   1.469
59609W        W27827  40.988  41.498  14.810
59610W        W27828   2.779  31.838   1.181
59611W        W27829   5.228  26.092   0.678
59612W        W27830  13.642  28.910  14.839
59613W        W27831   4.256  19.568  14.330
59614W        W27832   2.470  22.630   0.252
59615W        W27833  25.948  32.201  13.995
59616W        W27834  43.847  37.574  14.936
59617W        W27835   6.946  23.764   0.866
59618W        W27836  36.540  30.039   1.012
59619W        W27837  26.691  34.825  13.011
59620W        W27838   0.240  39.823  11.565
59621W        W27839  35.437  33.689   3.348
59622W        W27840  19.099  43.597   1.674
59623W        W27841  34.200  28.981  13.572
59624W        W27842  35.867  14.588   1.829
59625W        W27843  38.054   9.273   3.001
59626W        W27844  31.108  11.740  13.584
59627W        W27845  35.701  17.061   2.387
59628W        W27846  41.366   4.697  11.212
59629W        W27847   4.775  38.210   2.352
59630W        W27848   3.307   8.244  13.046
59631W        W27849  13.027  43.150   4.084
59632W        W27850  14.732  36.288  12.451
59633W        W27851  33.612  11.405   2.705
59634W        W27852  40.851  19.066   0.013
59635W        W27853  34.818   3.268  11.525
59636W        W27854   9.590  42.589  14.766
59637W        W27855   3.765  13.365   3.801
59638W        W27856  26.432  28.606  12.432
59639W        W27857  33.433  41.781   0.380
59640W        W27858  22.914   5.743   2.804
59641W        W27859  17.139  38.657  14.951
59642W        W27860  39.122  22.048  11.555
59643W        W27861   6.457   3.411  14.387
59644W        W27862  19.095  15.291   0.447
59645W        W27863  43.879  26.168  13.856
59646W        W27864   5.966  22.071   1.006
59647W        W27865   4.362  39.098  12.981
59648W        W27866  31.345   7.014   3.374
59649W        W27867  17.984  29.187   2.312
59650W        W27868  18.339   1.401   1.700
59651W        W27869  39.462  18.593   1.249
59652W        W27870  38.392  27.656   3.374
59653W        W27871  18.247  32.874   4.122
59654W        W27872  16.625  33.516  10.806
59655W        W27873  37.114  18.080   4.916
59656W        W27874  33.958  16.284  12.431
59657W        W27875   6.265  44.753   5.482
59658W        W27876  14.320  36.890   4.245
59659W        W27877  15.544  14.907   1.730
59660W        W27878  30.697  43.827  14.248
59661W        W27879  33.018  25.020   4.652
59662W        W27880  34.967   4.446  14.215
59663W        W27881  42.296  39.434   2.237
59664W        W27882  12.263  43.337  14.263
59665W        W27883  40.916  27.711   3.846
59666W        W27884  18.547  39.016  10.527
59667W        W27885  18.541  21.179  10.365
59668W        W27886  38.919  13.932  11.928
59669W        W27887  42.963  26.949  10.646
59670W        W27888  16.771  12.712   3.165
59671W        W27889   5.426  29.531  10.634
59672W        W27890  42.898  38.492   0.810
59673W        W27891   6.798   4.942  10.622
59674W        W27892  38.263  33.562   1.829
59675W        W27893  12.660  41.877   2.177
59676W        W27894  30.136   0.700   3.502
59677W        W27895  44.887   1.986   1.446
59678W        W27896   6.877  38.026  10.555
59679W        W27897  17.576  16.339   2.288
59680W        W27898  29.340  14.294  11.152
59681W        W27899  37.760  20.242   3.770
59682W        W27900  32.943  42.370   3.648
59683W        W27901  18.616   6.533   0.305
59684W        W27902  34.936  11.874   1.774
59685W        W27903  33.142  37.323  14.985
59686W        W27904   8.780  23.190  10.933
59687W        W27905  12.720  35.133   0.835
59688W        W27906  38.217  13.253   2.460
59689W        W27907  21.436   5.363  12.958
59690W        W27908  33.613  36.449   2.583
59691W        W27909   8.832  12.132   0.469
59692W        W27910   4.668  34.428  13.989
59693W        W27911   5.744  31.496   1.251
59694W        W27912  43.249   0.598   0.352
59695W        W27913  33.908  25.160   4.890
59696W        W27914  28.859  16.841   2.261
59697W        W27915  42.822  44.500  13.512
59698W        W27916   9.627   7.081   0.811
59699W        W27917  21.830   2.069  14.330
59700W        W27918   8.999  25.458   3.125
59701W        W27919  15.801   1.706  14.368
59702W        W27920  42.331   4.454   1.175
59703W        W27921   5.220   3.431  13.491
59704W        W27922  35.401  33.260   3.715
59705W        W27923   7.195  17.266   0.432
59706W        W27924  43.994  26.685  12.978
59707W        W27925  22.166  21.691  14.535
59708W        W27926   7.586  40.813   4.200
59709W        W27927  21.076  17.228  10.620
59710W        W27928   3.026  13.093   5.158
59711W        W27929  18.264  22.400  14.387
59712W        W27930  31.074   0.968  14.779
59713W        W27931   2.374  20.621  11.677
59714W        W27932  22.228  16.382   0.922
59715W        W27933  33.655   3.011  11.438
59716W        W27934   8.179  25.537  12.947
59717W        W27935  41.457  16.292   1.799
59718W        W27936  32.428  28.715   1.650
59719W        W27937  30.789   5.660  11.691
59720W        W27938  36.066   5.445  10.550
59721W        W27939  41.104  15.829  13.355
59722W        W27940   0.428  25.477   1.349
59723W        W27941   2.195  26.728   1.806
59724W        W27942  27.459  32.016  11.366
59725W        W27943  16.275  18.997  10.569
59726W        W27944  27.897  30.992  12.312
59727W        W27945  14.655  41.792   3.217
59728W        W27946   8.709  32.819  12.384
59729W        W27947  37.849   7.649   2.753
59730W        W27948  11.137  35.782  13.946
59731W        W27949   9.818  13.879  10.566
59732W        W27950  28.429   2.235   3.401
59733W        W27951  30.199  15.689   4.128
59734W        W27952  10.463  32.910   1.274
59735W        W27953  41.375  14.246  12.077
59736W        W27954  41.676  36.486  14.945
59737W        W27955  33.807  16.549   3.325
59738W        W27956  19.297   5.658  12.446
59739W        W27957  34.427  30.071   4.351
59740W        W27958  33.564   0.678   4.931
59741W        W27959  17.354   8.333   4.997
59742W        W27960  18.229  20.761  10.701
59743W        W27961  23.001  22.307   0.791
59744W        W27962  35.191  41.597  10.424
59745W        W27963   0.918  20.939  13.492
59746W        W27964  19.623   0.746  14.504
59747W        W27965  14.287   9.246   3.857
59748W        W27966  32.526  37.620  10.331
59749W        W27967   6.344  32.572   4.298
59750W        W27968   5.235   8.700  13.850
59751W        W27969   5.629  12.667  12.500
59752W        W27970  15.757  43.751   0.916
59753W        W27971  11.358  26.601   4.259
59754W        W27972   6.044  26.643  13.803
59755W        W27973   7.670   6.400   0.854
59756W        W27974  43.941  10.191   4.391
59757W        W27975  26.195  38.120   3.235
59758W        W27976  36.420   9.979  12.442
59759W        W27977  32.101  11.876   2.729
59760W        W27978  34.625  30.404  13.823
59761W        W27979   1.266  10.876  10.682
59762W        W27980  13.889   3.929   1.922
59763W        W27981  29.981  16.327   2.756
59764W        W27982   6.903  43.856  14.723
59765W        W27983  34.946  42.462  12.877
59766W        W27984  10.320  39.847   4.817
59767W        W27985  14.877   4.206  13.896
59768W        W27986  29.098  17.113   0.462
59769W        W27987  38.881  18.643   2.269
59770W        W27988  17.046  35.731   1.266
59771W        W27989  18.275  24.242  10.690
59772W        W27990   6.134  36.193  10.713
59773W        W27991  10.659  29.393  13.057
59774W        W27992  31.192  38.304   1.873
59775W        W27993  11.733  44.809  14.949
59776W        W27994  25.071   8.912   2.654
59777W        W27995   4.818   5.407   3.799
59778W        W27996  13.621   6.855   1.465
59779W        W27997  12.312  20.061  12.166
59780W        W27998   6.064  13.230  13.438
59781W        W27999  38.579  23.911   1.254
59782W        W28000  31.814  15.071  13.287
59783W        W28001  32.321  32.120   1.688
59784W        W28002   7.596   5.278   0.454
59785W        W28003  13.143  30.665  12.646
59786W        W28004   3.319  12.072  14.421
59787W        W28005  39.379  29.085  14.927
59788W        W28006   5.376  12.716  13.094
59789W        W28007  14.551  26.016  14.985
59790W        W28008  30.171  33.522  13.788
59791W        W28009  35.236  16.954  10.320
59792W        W28010  13.900   2.799   2.690
59793W        W28011  16.605  43.312  12.943
59794W        W28012   9.696  11.242   2.390
59795W        W28013  41.496  18.664  12.343
59796W        W28014  29.216  26.095  11.673
59797W        W28015  44.806   1.723   4.196
59798W        W28016  17.183   3.344  10.123
59799W        W28017  31.509   4.350   1.170
59800W        W28018   3.644  29.806  11.281
59801W        W28019  31.001   3.469  11.194
59802W        W28020  17.234   3.927   0.700
59803W        W28021  30.107  18.300   4.522
59804W        W28022  22.134  25.241  11.352
59805W        W28023  38.870  31.119   0.545
59806W        W28024   5.886   9.603   1.337
59807W        W28025  16.232  34.147  11.037
59808W        W28026  21.610  39.911  11.020
59809W        W28027  21.625  31.494   2.640
59810W        W28028  20.509  33.026   1.931
59811W        W28029   6.439  18.311  10.299
59812W        W28030  26.522  26.590  13.613
59813W        W28031  36.412  38.032  14.914
59814W        W28032   9.329  10.580  11.593
59815W        W28033  28.087  25.810   3.284
59816W        W28034  12.389  26.014   1.395
59817W        W28035  42.486  38.137  12.977
59818W        W28036  41.005  36.533  11.905
59819W        W28037  28.581  29.638   4.506
59820W        W28038  13.765  29.626   0.570
59821W        W28039  31.173  32.048   4.409
59822W        W28040  12.878  32.014  13.563
59823W        W28041  19.552  15.633  14.250
59824W        W28042  26.224  36.420  13.907
59825W        W28043  29.683  19.275  12.429
59826W        W28044  43.662  31.769  14.872
59827W        W28045  10.285   3.886  12.063
59828W        W28046   8.936   2.218   0.473
59829W        W28047  15.087  22.201   4.696
59830W        W28048   6.906  19.680   1.367
59831W        W28049   8.691  26.218   4.251
59832W        W28050  30.818  32.500   3.676
59833W        W28051   0.728  24.001   3.596
59834W        W28052  44.177  24.984  11.551
59835W        W28053  40.606  16.499  14.880
59836W        W28054  13.483  34.368  10.131
59837W        W28055  39.410   2.414   0.314
59838W        W28056   8.765  13.749   3.204
59839W        W28057   0.879  25.530   0.392
59840W        W28058  32.461  18.470   0.221
59841W        W28059  15.344   6.416   4.824
59842W        W28060  23.147  13.696  13.440
59843W        W28061  37.736  26.652   2.363
59844W        W28062  39.420  24.694  11.016
59845W        W28063   2.698  10.849   2.124
59846W        W28064  34.045  29.441   1.771
59847W        W28065  32.677  31.949  13.445
59848W        W28066  44.517   4.021   0.977
59849W        W28067  25.459  10.264  14.445
59850W        W28068   8.678  34.877  12.432
59851W        W28069  18.780   0.969   4.529
59852W        W28070   5.751   8.187   2.347
59853W        W28071   9.784  24.469  12.416
59854W        W28072  10.800  24.503   3.985
59855W        W28073  23.629  21.260   3.611
59856W        W28074  40.760  33.193   1.852
59857W        W28075  36.919  42.978   1.519
59858W        W28076  27.513   3.525  13.400
59859W        W28077   8.398   4.650  12.953
59860W        W28078  43.218  33.098   4.109
59861W        W28079  15.635  22.493  12.530
59862W        W28080  40.868  11.287  12.498
59863W        W28081  41.983  24.611  10.619
59864W        W28082  16.127  17.241   2.612
59865W        W28083  15.527   9.661   3.410
59866W        W28084  42.277   4.824   0.321
59867W        W28085  12.140   3.212   0.847
59868W        W28086  26.359   5.738  14.188
59869W        W28087  41.411  17.791   2.734
59870W        W28088  34.381  36.564   3.723
59871W        W28089  41.425  14.267  13.002
59872W        W28090  23.497  35.919  11.100
59873W        W28091  29.465  31.774  13.538
59874W        W28092  42.957  44.450   2.611
59875W        W28093  18.785   2.271  14.926
59876W        W28094   9.212   9.965  13.179
59877W        W28095   1.377   8.379   2.206
59878W        W28096  17.155  19.178   3.716
59879W        W28097  13.166  32.182   1.708
59880W        W28098  37.465  23.586   1.056
59881W        W28099   6.113  43.331  13.730
59882W        W28100   6.478   5.733  12.936
59883W        W28101  42.479  15.073   3.213
59884W        W28102  22.553   1.228  13.604
59885W        W28103  35.654  21.225  14.512
59886W        W28104  38.468  42.066  12.407
59887W        W28105  19.145  42.552   3.675
59888W        W28106  10.775  28.723   1.432
59889W        W28107  10.734   9.892  10.383
59890W        W28108  31.968  41.411   1.654
59891W        W28109  33.119  25.474  11.033
59892W        W28110  41.134   8.407   2.243
59893W        W28111   4.173  28.048   2.474
59894W        W28112  28.193   2.687  11.137
59895W        W28113   8.434   9.793   4.887
59896W        W28114  19.249   8.531   1.303
59897W        W28115  23.946   1.049  12.955
59898W        W28116   7.654  35.886   4.628
59899W        W28117  10.355  37.943   2.170
59900W        W28118  27.122  21.655  11.892
59901W        W28119  30.121  18.156  14.071
59902W        W28120  22.582   4.266   4.858
59903W        W28121   0.353   9.763   1.258
59904W        W28122  29.606  19.534   4.154
59905W        W28123   2.437  36.577   3.282
59906W        W28124  27.397   4.546  11.031
59907W        W28125   7.315  28.487   4.152
59908W        W28126  14.617  39.955  11.157
59909W        W28127  13.666   2.974  11.487
59910W        W28128   3.429  34.970   4.795
59911W        W28129  36.468  41.732   0.945
59912W        W28130  14.152  40.483  13.876
59913W        W28131  21.021  22.069   4.165
59914W        W28132  23.111  35.535   3.289
59915W        W28133  29.571  14.911   1.403
59916W        W28134   1.420  20.945  13.718
59917W        W28135  14.680  43.327  12.076
59918W        W28136  44.517  15.282   2.599
59919W        W28137  25.098  19.093  13.281
59920W        W28138  29.100  10.696  14.895
59921W        W28139  24.558   5.154   1.140
59922W        W28140  37.719  32.312   1.015
59923W        W28141  13.901  27.921  12.585
59924W        W28142   0.407  33.593  11.318
59925W        W28143   1.191  15.050   1.868
59926W        W28144   3.755  44.330  12.055
59927W        W28145  35.889  19.261   4.647
59928W        W28146  14.087   4.781  12.177
59929W        W28147   7.904  34.051   2.806
59930W        W28148  23.667  13.285   4.776
59931W        W28149  14.260  39.285  11.318
59932W        W28150  11.734  14.081   2.767
59933W        W28151  30.454  43.536  11.758
59934W        W28152  16.672   2.196   4.127
59935W        W28153  21.246  13.660   2.816
59936W        W28154  11.653  31.201  10.991
59937W        W28155  17.458   8.174   1.088
59938W        W28156  20.733  20.799   4.541
59939W        W28157  26.677  34.508  11.433
59940W        W28158  33.122  42.874  13.884
59941W        W28159  33.588   9.129  12.118
59942W        W28160  31.225   6.861   2.761
59943W        W28161  36.905  32.781   1.192
59944W        W28162  13.086  13.011  13.294
59945W        W28163  21.990  36.988   4.154
59946W        W28164   6.869  38.055   3.717
59947W        W28165   6.814   5.227   4.333
59948W        W28166  12.913  25.791  11.640
59949W        W28167  17.250   7.129  14.385
59950W        W28168  37.833  43.003  14.019
59951W        W28169  28.907   3.695   3.930
59952W        W28170  36.920  14.731   0.465
59953W        W28171  34.990  28.821  13.806
59954W        W28172  12.299  17.618   1.979
59955W        W28173  30.640  38.330   2.678
59956W        W28174  35.425  42.568   0.306
59957W        W28175  38.368  30.644   1.377
59958W        W28176  44.464  35.575  11.239
59959W        W28177  26.726  34.452   2.214
59960W        W28178  43.464  29.023  10.974
59961W        W28179  21.297  42.743  12.392
59962W        W28180  30.102  41.878   4.359
59963W        W28181  22.701  10.015  11.121
59964W        W28182  33.971  25.043  10.141
59965W        W28183   1.037  32.544  14.066
59966W        W28184   6.868  30.009  14.051
59967W        W28185  21.174  19.358   2.541
59968W        W28186  26.404  42.898   0.802
59969W        W28187  10.001  38.213  13.985
59970W        W28188  21.826  33.022  13.088
59971W        W28189  16.149  23.993   1.862
59972W        W28190   4.546   3.309  11.090
59973W        W28191  36.052  16.271  13.807
59974W        W28192  39.429   0.452  13.847
59975W        W28193   6.772  37.787   0.339
59976W        W28194   7.418  31.036  14.298
59977W        W28195  43.934  25.685   5.128
59978W        W28196  14.006  24.208   4.603
59979W        W28197  16.243  25.023   0.250
59980W        W28198  36.830  33.412  12.495
59981W        W28199  26.675  22.454   1.834
59982W        W28200   0.722  17.685  14.872
59983W        W28201   6.424  37.890  12.686
59984W        W28202  17.735  12.473  14.286
59985W        W28203  18.852   5.904   1.909
59986W        W28204   3.486  43.156  14.342
59987W        W28205  35.091   7.568   0.692
59988W        W28206   3.427  30.930   4.994
59989W        W28207  19.542  41.993   2.733
59990W        W28208  24.980  28.941   1.861
59991W        W28209   7.679  42.325  14.769
59992W        W28210  44.362   7.582  10.488
59993W        W28211  38.412   1.870  11.933
59994W        W28212  14.173   3.170  11.524
59995W        W28213  21.668  36.806   0.512
59996W        W28214  20.258  41.347  13.957
59997W        W28215  33.979  43.261  14.893
59998W        W28216   1.762  43.326   2.314
59999W        W28217   9.286   0.134  14.045
60000W        W28218   9.768   1.569  12.577
60001W        W28219  40.784  20.323   3.270
60002W        W28220   6.387   6.774   4.823
60003W        W28221  35.113  13.280  13.589
60004W        W28222  36.115  24.909  13.889
60005W        W28223  18.632  12.411  12.877
60006W        W28224  14.771   3.302  10.832
60007W        W28225  29.173  39.201   3.643
60008W        W28226  20.277   1.236  13.327
60009W        W28227  35.464  30.081  13.996
60010W        W28228  34.770  37.395   4.093
60011W        W28229   7.737  44.858  12.911
60012W        W28230  25.949  44.808  11.049
60013W        W28231  22.484   9.974   4.216
60014W        W28232  14.982  26.717  10.988
60015W        W28233  42.374  44.581   1.942
60016W        W28234  25.067  18.568   4.653
60017W        W28235   9.348  30.095   3.575
60018W        W28236  20.155  42.094   3.665
60019W        W28237  32.941  44.015  10.730
60020W        W28238  16.240  27.685   3.994
60021W        W28239   8.744  40.858   0.363
60022W        W28240  19.217   6.676  11.565
60023W        W28241  33.263  16.076  13.043
60024W        W28242  23.694   2.881   2.700
60025W        W28243  24.493  41.725  14.961
60026W        W28244  43.184   2.280  11.020
60027W        W28245  37.977  25.554  14.508
60028W        W28246  27.181  16.175   2.248
60029W        W28247  21.248  12.889   2.206
60030W        W28248   7.167  44.009  13.122
60031W        W28249  37.936   3.807   4.567
60032W        W28250  42.404  37.192  11.348
60033W        W28251  38.091  44.924   1.900
60034W        W28252  35.292   1.355  11.660
60035W        W28253   4.383  19.926   4.779
60036W        W28254  14.310  39.991   0.983
60037W        W28255  23.072   7.918  13.767
60038W        W28256  14.639  36.991   1.398
60039W        W28257  34.587  18.907   3.937
60040W        W28258  13.859  16.192  14.766
60041W        W28259  10.018  37.096  11.001
60042W        W28260  22.609   6.858  13.606
60043W        W28261  33.995   7.809  11.872
60044W        W28262   5.739  27.544  11.125
60045W        W28263  29.677  29.231  11.611
60046W        W28264  20.572  25.139   1.422
60047W        W28265  19.197  26.603   3.859
60048W        W28266  20.545  41.805   3.852
60049W        W28267  26.869  41.753   4.311
60050W        W28268  18.697  43.293   0.451
60051W        W28269  14.689  11.605  14.010
60052W        W28270   6.888  36.813   3.121
60053W        W28271  41.027  34.877   3.859
60054W        W28272  43.698  31.709   3.698
60055W        W28273  32.431  13.347   0.387
60056W        W28274   1.775  14.229  12.582
60057W        W28275  17.174  24.134   4.068
60058W        W28276   2.560  37.914  11.956
60059W        W28277  19.591  33.066   1.033
60060W        W28278   6.000  10.163  10.143
60061W        W28279   5.538  11.276   0.682
60062W        W28280  17.576  25.717  14.709
60063W        W28281   8.272   8.044   1.878
60064W        W28282   4.377   0.944  10.499
60065W        W28283  42.096  38.503  14.455
60066W        W28284  14.548  33.160   3.874
60067W        W28285  20.434  27.141   4.972
60068W        W28286  25.630   5.910   1.632
60069W        W28287  27.941   6.770   0.068
60070W        W28288  19.485  10.427   5.012
60071W        W28289  10.381  38.086  13.041
60072W        W28290   8.893  31.996   1.307
60073W        W28291  31.691  42.881   2.689
60074W        W28292  20.610  41.295  11.045
60075W        W28293  32.869  38.873   4.079
60076W        W28294  43.042   3.181  14.031
60077W        W28295  41.438  16.345  13.849
60078W        W28296  20.292  22.405   0.622
60079W        W28297  15.272  21.527   3.587
60080W        W28298  14.752  18.351   2.749
60081W        W28299  24.042  41.318  13.027
60082W        W28300  34.910  21.167  12.942
60083W        W28301  25.263  25.042   2.087
60084W        W28302  39.796  10.148  14.242
60085W        W28303  20.142  42.265   2.294
60086W        W28304  23.959  16.651  13.753
60087W        W28305   4.113   2.785  13.734
60088W        W28306  43.363  36.299   1.917
60089W        W28307   6.145  15.204   2.760
60090W        W28308  38.904  44.987  14.478
60091W        W28309  24.426  28.669  11.502
60092W        W28310  30.561  38.101   3.228
60093W        W28311  22.057  23.801   0.442
60094W        W28312  28.068  20.181  12.428
60095W        W28313  12.445  13.577  12.500
60096W        W28314   6.457  40.076   0.448
60097W        W28315  36.801  34.735  10.995
60098W        W28316  34.470  26.026   0.954
60099W        W28317  18.037  22.712  12.055
60100W        W28318  24.850  24.621   5.202
60101W        W28319  10.209  29.849   0.807
60102W        W28320  31.101  16.396  13.481
60103W        W28321  22.156  30.110   1.730
60104W        W28322  25.877  31.719  11.808
60105W        W28323  24.211   2.911   2.706
60106W        W28324  23.969  42.493  12.001
60107W        W28325  22.628  39.338  14.559
60108W        W28326  21.146  10.759   2.118
60109W        W28327   1.163   6.397   4.029
60110W        W28328  18.677  20.760  13.758
60111W        W28329  24.311   8.112   4.828
60112W        W28330   7.659   2.880  13.817
60113W        W28331  15.229  36.619   0.591
60114W        W28332  40.523  29.490  12.446
60115W        W28333   9.606   4.244  14.483
60116W        W28334  37.744   9.960   4.143
60117W        W28335  42.268  44.568   0.564
60118W        W28336  24.092  22.741   4.128
60119W        W28337  17.494  23.976   2.300
60120W        W28338  16.622  33.103   4.352
60121W        W28339  21.285  37.909  13.938
60122W        W28340   1.572  33.540   3.665
60123W        W28341  19.444   9.113  11.569
60124W        W28342   4.717  16.774  10.446
60125W        W28343   2.693  12.149  13.141
60126W        W28344  28.777  21.667   1.674
60127W        W28345  40.542   0.982   4.581
60128W        W28346   0.606  32.160  10.634
60129W        W28347  25.006  12.912  11.794
60130W        W28348  32.984  44.576  13.454
60131W        W28349   5.770   0.578  11.776
60132W        W28350  23.927  21.110   4.627
60133W        W28351  24.874  40.519   4.681
60134W        W28352  26.773  16.771   3.132
60135W        W28353  40.381  18.004   2.179
60136W        W28354  16.291  36.756   3.055
60137W        W28355  30.080  17.690  13.878
60138W        W28356   4.461  31.091   1.338
60139W        W28357  42.550  37.413  13.529
60140W        W28358  19.192  29.402   3.064
60141W        W28359   8.799  12.173  13.325
60142W        W28360  35.586  17.748  13.540
60143W        W28361  32.054  19.695  14.960
60144W        W28362   4.267  18.771  11.619
60145W        W28363   4.830  41.349   3.974
60146W        W28364   0.657  37.181   9.870
60147W        W28365  20.428  32.373   1.661
60148W        W28366  34.047  39.246   1.283
60149W        W28367  17.253  41.901   1.790
60150W        W28368  39.091  17.533   0.743
60151W        W28369  11.437  13.598  12.474
60152W        W28370  27.118  41.747   0.945
60153W        W28371  26.512   3.381  10.736
60154W        W28372  26.941  28.466  11.551
60155W        W28373  18.717  35.823  12.947
60156W        W28374  25.770  22.164  11.624
60157W        W28375  35.138  22.422  11.179
60158W        W28376  27.193   9.949   2.743
60159W        W28377  17.191  25.749   0.333
60160W        W28378   9.370  37.440   1.091
60161W        W28379  29.563  19.232   1.300
60162W        W28380  18.159  42.023   1.248
60163W        W28381  22.769  23.270   0.854
60164W        W28382  23.158  31.314  14.286
60165W        W28383  16.735  35.868  14.716
60166W        W28384  24.307   9.816  12.905
60167W        W28385  25.952  42.742   1.546
60168W        W28386   4.929  16.327  10.580
60169W        W28387  35.623  28.131  12.863
60170W        W28388   5.318   8.189  14.000
60171W        W28389   8.398  20.712  12.920
60172W        W28390  15.802  39.049   3.215
60173W        W28391  17.915   9.783  12.435
60174W        W28392  42.532  29.846   1.435
60175W        W28393  11.822  41.900  14.964
60176W        W28394  38.573  28.081   3.630
60177W        W28395  23.084  27.467  10.548
60178W        W28396   1.353  34.090  14.776
60179W        W28397  41.504  25.490   2.302
60180W        W28398   1.938  30.854  13.424
60181W        W28399  10.899  34.921  14.175
60182W        W28400  31.343  23.610  11.121
60183W        W28401  23.701  25.935   2.336
60184W        W28402  41.562  16.578  10.609
60185W        W28403  41.878  10.489  10.205
60186W        W28404  34.394   0.534   3.220
60187W        W28405   9.187  10.162  14.737
60188W        W28406  39.806  26.202  13.906
60189W        W28407  24.139   5.439   3.223
60190W        W28408   2.815   3.544   1.145
60191W        W28409  20.226  31.734   4.612
60192W        W28410   4.973  31.361  13.280
60193W        W28411  41.976  33.128   0.524
60194W        W28412  24.666   2.237   2.214
60195W        W28413  21.602  12.237   4.517
60196W        W28414  40.349   1.670  10.767
60197W        W28415  41.982   0.940   5.386
60198W        W28416  31.917   6.834  12.511
60199W        W28417  43.649  35.915   4.574
60200W        W28418  38.431   5.275  11.781
60201W        W28419  21.460  34.949  12.195
60202W        W28420  18.614  27.599  14.925
60203W        W28421  34.122  14.421   1.375
60204W        W28422  11.581  17.497   0.838
60205W        W28423   9.937  31.232   3.915
60206W        W28424  13.100   4.673  10.950
60207W        W28425  24.182  38.142  14.317
60208W        W28426  26.950   3.654  10.855
60209W        W28427   2.594  43.957  13.516
60210W        W28428  12.133  35.113  14.967
60211W        W28429  38.377  40.511  13.478
60212W        W28430   8.218  20.548   0.851
60213W        W28431  11.241  28.631   4.180
60214W        W28432  38.159  17.230  14.983
60215W        W28433  33.505  42.692  11.612
60216W        W28434  32.613  42.958  13.812
60217W        W28435  19.218   0.811   4.809
60218W        W28436   3.327  23.680   3.323
60219W        W28437   2.978  34.112   1.768
60220W        W28438  43.587  10.443  11.725
60221W        W28439  14.525  19.763  14.293
60222W        W28440  41.509  15.287   0.661
60223W        W28441  10.717  12.589   4.704
60224W        W28442  42.985  17.980  12.455
60225W        W28443  41.281  32.881  12.835
60226W        W28444  16.858  10.623   4.456
60227W        W28445   4.033   6.885   0.978
60228W        W28446   7.009   3.351   4.239
60229W        W28447  10.321   2.239  13.580
60230W        W28448   3.019  30.688  13.657
60231W        W28449  23.631  14.645  11.446
60232W        W28450  19.603  39.598  12.175
60233W        W28451  39.305  37.056   3.306
60234W        W28452  42.792  33.052   3.794
60235W        W28453   3.123   2.772   0.236
60236W        W28454   2.397  29.106   1.241
60237W        W28455  23.605  37.248  13.046
60238W        W28456  37.176  11.873   5.137
60239W        W28457  43.988  21.772   2.119
60240W        W28458  18.796  22.939  11.776
60241W        W28459  33.478  38.740   1.338
60242W        W28460  43.346  35.545  13.466
60243W        W28461  28.189  40.550   1.450
60244W        W28462   6.728  11.295  11.993
60245W        W28463  35.113  26.554   3.309
60246W        W28464  26.528   6.521  14.585
60247W        W28465  28.551  13.382   5.501
60248W        W28466   2.818   7.179   0.048
60249W        W28467  43.515  42.413   1.405
60250W        W28468  17.733  33.382   4.938
60251W        W28469  21.094  16.128  12.244
60252W        W28470   1.820  20.785   2.814
60253W        W28471  44.198  29.013   3.761
60254W        W28472  29.716  29.591  12.599
60255W        W28473  37.973  35.390  12.985
60256W        W28474   2.409  35.445   1.243
60257W        W28475  19.035   9.833  14.927
60258W        W28476   6.161  19.296   4.938
60259W        W28477  23.453  33.926   2.158
60260W        W28478  18.949  22.958   1.358
60261W        W28479  41.515  23.468  12.345
60262W        W28480  29.530  38.474   1.755
60263W        W28481  43.325  28.734  13.645
60264W        W28482  28.088  38.534  14.776
60265W        W28483  24.091  30.640   1.392
60266W        W28484  18.826  24.646  14.816
60267W        W28485  22.686  44.963  11.704
60268W        W28486  32.188   9.643   0.191
60269W        W28487  39.208  26.503  13.612
60270W        W28488  40.003  34.852  10.708
60271W        W28489   6.461  14.309  12.553
60272W        W28490  24.662  34.332  11.447
60273W        W28491  13.601   0.329  14.759
60274W        W28492  18.707   6.482  13.947
60275W        W28493  14.155  34.974   1.596
60276W        W28494  33.395  23.286   0.881
60277W        W28495   3.241  14.764  13.860
60278W        W28496   7.618  11.258  12.012
60279W        W28497  38.063  32.948   3.334
60280W        W28498  41.408  39.786  13.311
60281W        W28499  30.499  19.765  11.284
60282W        W28500  21.351  22.159  14.818
60283W        W28501  39.027  35.108   0.481
60284W        W28502  29.239  20.936  11.721
60285W        W28503  37.758  18.642   4.643
60286W        W28504  32.887  42.538   4.129
60287W        W28505  10.631  27.157   1.443
60288W        W28506  10.187  25.995  14.433
60289W        W28507  12.589  40.977  14.523
60290W        W28508  24.534  31.103  12.805
60291W        W28509  32.939   5.449   5.265
60292W        W28510   9.583  10.829  11.991
60293W        W28511  42.151   7.800  12.077
60294W        W28512  12.942   2.537   9.613
60295W        W28513  16.584   3.740   3.788
60296W        W28514  24.158  33.135   3.862
60297W        W28515  23.251  10.468  11.986
60298W        W28516  15.895  36.962  12.039
60299W        W28517  36.169  26.923  14.686
60300W        W28518   8.832  10.415  12.037
60301W        W28519  12.380   0.271   5.037
60302W        W28520  28.077  41.875   0.471
60303W        W28521   7.742  13.715   0.248
60304W        W28522   8.120  25.302  14.880
60305W        W28523  27.909  15.308   1.227
60306W        W28524  35.863  14.625   2.741
60307W        W28525  10.615   5.774   0.713
60308W        W28526   5.494   9.380   2.992
60309W        W28527   9.169  18.285  12.942
60310W        W28528  11.348  12.095   4.265
60311W        W28529  37.403  44.585  11.950
60312W        W28530  11.687  17.286   4.080
60313W        W28531   4.437  21.172   3.583
60314W        W28532   7.913  14.795   1.832
60315W        W28533  16.327  12.107  12.527
60316W        W28534  40.252   5.424  12.921
60317W        W28535   3.258  31.508   2.706
60318W        W28536  40.879  31.359  11.671
60319W        W28537  26.692  31.612  13.928
60320W        W28538  10.368  16.127  14.432
60321W        W28539  19.915  13.361  14.889
60322W        W28540  32.669  24.298   3.172
60323W        W28541  29.536  19.197   0.380
60324W        W28542  11.247  43.809   3.696
60325W        W28543  30.908  20.244   4.279
60326W        W28544   5.727   3.162   3.669
60327W        W28545   7.731  27.736   1.375
60328W        W28546   6.029  31.816   3.637
60329W        W28547  36.819  25.090  13.428
60330W        W28548  21.916  27.062  11.227
60331W        W28549  42.504  23.672   3.789
60332W        W28550  27.893  22.291   3.533
60333W        W28551  26.743  43.814   2.377
60334W        W28552  20.616   3.756   0.924
60335W        W28553  29.163  27.171   2.221
60336W        W28554   7.737  25.044   0.684
60337W        W28555  22.932  34.588  11.395
60338W        W28556  26.059  15.274  10.681
60339W        W28557  40.877  31.954  11.622
60340W        W28558  28.409   8.678   3.729
60341W        W28559  34.980  27.551   3.958
60342W        W28560  38.967  29.865  11.449
60343W        W28561  39.067  17.655   1.250
60344W        W28562  20.487  19.188   0.750
60345W        W28563  38.359  35.048  14.233
60346W        W28564  15.644  42.748   1.035
60347W        W28565  44.276  33.262   2.291
60348W        W28566  18.213  40.759  13.240
60349W        W28567   5.782  17.287   4.161
60350W        W28568  17.698  30.484  11.518
60351W        W28569  34.932   3.718  13.592
60352W        W28570   4.879  42.761   1.377
60353W        W28571  19.601  43.182   0.459
60354W        W28572   6.112  21.106   3.160
60355W        W28573  27.035  12.690   2.431
60356W        W28574  36.897  15.815  11.545
60357W        W28575  17.000  28.668  12.363
60358W        W28576   9.140  33.667   1.811
60359W        W28577   1.013   6.917   4.921
60360W        W28578  32.838  38.080  12.552
60361W        W28579   4.594  38.197  13.331
60362W        W28580  34.054  37.875  13.034
60363W        W28581  18.641  18.127  14.481
60364W        W28582  43.873  40.767  14.431
60365W        W28583  29.552  39.197  10.234
60366W        W28584   6.136  32.458  12.889
60367W        W28585  36.014   7.089  11.711
60368W        W28586   3.427   5.778   3.596
60369W        W28587  29.704  15.286   4.117
60370W        W28588  37.619   2.543  13.028
60371W        W28589  14.610  14.297  10.575
60372W        W28590  15.170   5.737   1.490
60373W        W28591  35.910  27.172  11.537
60374W        W28592  12.659  26.051  14.558
60375W        W28593   6.733  12.272   4.082
60376W        W28594  16.276  22.295  12.160
60377W        W28595   7.584  33.914  14.544
60378W        W28596  38.919  26.272  10.718
60379W        W28597  33.434   8.658   0.073
60380W        W28598   4.367  15.080   0.907
60381W        W28599  30.053   1.946  13.516
60382W        W28600  14.157  11.696  10.707
60383W        W28601  15.585  22.722  11.240
60384W        W28602   5.887  15.112  11.478
60385W        W28603  41.429   9.137  12.988
60386W        W28604  19.322  19.841  12.381
60387W        W28605  15.245  37.737  11.110
60388W        W28606  44.008  23.006  13.187
60389W        W28607  11.635   2.767   2.439
60390W        W28608  18.595  18.118   0.311
60391W        W28609   9.893  25.863   3.919
60392W        W28610  26.510   2.206  13.775
60393W        W28611  39.743  33.570   3.643
60394W        W28612  20.140   6.741   4.768
60395W        W28613  24.867   9.310  13.551
60396W        W28614  22.212  33.220  10.331
60397W        W28615  16.585  13.836  11.188
60398W        W28616  32.738  39.811  14.700
60399W        W28617  29.555   9.238  13.989
60400W        W28618  12.820   4.383   4.548
60401W        W28619  36.756  35.646  13.450
60402W        W28620  41.452  37.323  12.587
60403W        W28621  12.783  24.279  12.115
60404W        W28622  38.103  31.046  14.992
60405W        W28623  32.220  26.957  12.463
60406W        W28624  39.351  23.111  11.982
60407W        W28625   6.753   0.905   1.751
60408W        W28626  34.321  42.052   0.786
60409W        W28627  15.771  29.310   3.635
60410W        W28628  29.668  37.242  11.596
60411W        W28629  23.501  10.053   3.412
60412W        W28630   8.149  31.055   0.696
60413W        W28631   0.378   6.018   1.273
60414W        W28632  31.001  34.864  11.261
60415W        W28633  31.304   6.757  13.418
60416W        W28634  43.691  21.413  14.486
60417W        W28635  20.536  14.836   1.426
60418W        W28636  16.668  25.173   1.989
60419W        W28637   1.038  12.162   3.180
60420W        W28638  23.395  24.863  14.485
60421W        W28639  23.127  16.271   4.137
60422W        W28640   7.744   9.731  12.612
60423W        W28641  37.989  44.938  12.882
60424W        W28642  26.946   6.206   1.299
60425W        W28643  23.729  20.857  11.607
60426W        W28644  26.622   8.028   2.658
60427W        W28645  36.274  31.654  12.017
60428W        W28646  39.431  11.073   4.675
60429W        W28647   2.024  42.380  12.490
60430W        W28648   7.811  21.540   1.280
60431W        W28649  35.318   2.703  10.444
60432W        W28650   7.773  39.571  11.477
60433W        W28651  34.449   7.916  12.167
60434W        W28652  26.665   6.249   4.223
60435W        W28653   2.688  17.016  13.043
60436W        W28654  20.964  20.674  13.097
60437W        W28655  29.431   7.642   3.230
60438W        W28656  13.646   5.986   3.599
60439W        W28657   9.164   7.731  10.778
60440W        W28658  19.272  18.465  14.762
60441W        W28659   5.817   2.794  12.152
60442W        W28660  35.551   7.738   3.208
60443W        W28661  23.281  16.342   3.177
60444W        W28662  31.932  13.717  10.896
60445W        W28663  19.626  11.665   4.162
60446W        W28664   2.129  42.560   0.456
60447W        W28665   2.149  29.215  11.589
60448W        W28666  22.070  24.389  11.916
60449W        W28667  19.152  17.216   4.398
60450W        W28668  35.724   3.695  12.976
60451W        W28669  17.101  44.368  11.485
60452W        W28670  37.925  32.962  11.411
60453W        W28671  27.049   6.664  11.953
60454W        W28672  41.674   3.855  12.505
60455W        W28673   1.660  11.552   0.812
60456W        W28674  35.036  40.672  11.580
60457W        W28675  39.890   6.218   2.809
60458W        W28676  44.828   9.886  13.144
60459W        W28677  15.178  26.187  10.913
60460W        W28678  14.079  36.868   4.731
60461W        W28679   0.093  19.319  12.723
60462W        W28680  16.711  28.550  14.939
60463W        W28681  23.680   5.925  13.423
60464W        W28682  38.059  13.519  12.242
60465W        W28683   4.244   7.291  12.487
60466W        W28684  30.941  23.579   2.760
60467W        W28685  43.970  32.249  13.067
60468W        W28686  20.799  36.882  10.269
60469W        W28687  33.525  28.226   0.455
60470W        W28688  13.284  35.129  11.196
60471W        W28689  32.427  33.446   1.279
60472W        W28690  23.062   9.091  13.539
60473W        W28691  23.630  16.317  14.006
60474W        W28692  27.449  11.957   0.101
60475W        W28693  40.197  29.030   3.184
60476W        W28694  22.599  35.105  13.514
60477W        W28695  37.125  15.022  11.096
60478W        W28696  19.341  24.248  11.681
60479W        W28697   4.906  34.358  14.844
60480W        W28698   3.464  33.496  14.419
60481W        W28699  37.393  14.231  14.515
60482W        W28700  39.401  26.752   3.331
60483W        W28701  21.598  36.514  12.090
60484W        W28702  42.262  16.610  12.087
60485W        W28703   5.961  40.543   4.517
60486W        W28704  22.088  14.067  12.860
60487W        W28705  25.131   1.283   1.013
60488W        W28706  24.459  36.341  13.494
60489W        W28707  39.600  14.067   2.191
60490W        W28708  32.928  28.804   3.158
60491W        W28709  16.019  36.323  14.982
60492W        W28710  38.554   7.409   0.292
60493W        W28711  14.693   0.910  14.467
60494W        W28712  12.988  20.758   0.390
60495W        W28713  17.235  33.953   4.423
60496W        W28714   6.684   3.897  14.031
60497W        W28715   4.791  41.771   2.799
60498W        W28716  29.616  12.656  12.844
60499W        W28717   3.752  30.494  12.041
60500W        W28718   1.784  13.251  12.961
60501W        W28719  43.895   6.080  13.540
60502W        W28720  32.355  22.644  11.400
60503W        W28721  34.750  39.028   1.681
60504W        W28722  38.016  37.035  11.555
60505W        W28723  15.071   9.354  12.629
60506W        W28724  36.872  40.106  14.887
60507W        W28725  23.310  24.349   1.040
60508W        W28726   1.250  36.152   3.648
60509W        W28727  18.664  41.123   2.218
60510W        W28728  14.903  40.111  12.976
60511W        W28729  40.996  14.497  14.118
60512W        W28730   5.903   9.172   0.433
60513W        W28731  19.505  28.960  11.471
60514W        W28732  39.817  33.603   1.859
60515W        W28733   8.296  35.488   3.638
60516W        W28734  42.077   8.145  13.040
60517W        W28735   0.577  34.842  12.972
60518W        W28736  10.204  11.100  10.628
60519W        W28737  43.243  20.178   2.749
60520W        W28738  33.654  24.294  13.453
60521W        W28739  13.583  33.434   1.576
60522W        W28740   2.940   2.238  13.946
60523W        W28741   9.750  42.853   2.142
60524W        W28742  43.594   4.772   1.892
60525W        W28743  17.753  17.394  10.453
60526W        W28744  13.487  17.662   0.173
60527W        W28745  15.800  39.015   1.258
60528W        W28746  20.330  18.788   1.032
60529W        W28747   7.042  22.076   0.394
60530W        W28748  26.366  25.685  14.460
60531W        W28749  32.081   5.698   4.948
60532W        W28750  27.709  19.288   2.309
60533W        W28751  29.280   5.880  11.967
60534W        W28752  34.915  21.425  10.949
60535W        W28753  28.560  26.751   4.598
60536W        W28754  40.132   9.975   4.132
60537W        W28755  31.429  30.693  12.941
60538W        W28756  32.865  32.490   0.364
60539W        W28757  34.052  22.288   1.813
60540W        W28758  20.043  20.239  10.718
60541W        W28759  27.052   4.730   1.226
60542W        W28760  28.914  26.164   0.816
60543W        W28761  30.160  29.919  13.025
60544W        W28762  41.340   5.867   0.792
60545W        W28763   3.734  33.466  10.789
60546W        W28764  19.249  32.911  11.063
60547W        W28765   6.702  40.353  10.211
60548W        W28766   1.446   1.693  12.209
60549W        W28767   9.594   3.479  12.417
60550W        W28768  41.398  26.220  13.657
60551W        W28769  18.589  32.449  14.390
60552W        W28770  40.946  38.039   2.704
60553W        W28771   9.436   2.229   0.436
60554W        W28772  39.268  28.775  11.432
60555W        W28773  22.546  39.549   3.316
60556W        W28774  12.434  16.872   2.264
60557W        W28775  20.109  22.085  14.320
60558W        W28776  31.388   8.244   0.851
60559W        W28777  32.130  18.492   0.632
60560W        W28778  39.508  36.653   0.435
60561W        W28779  23.516  13.709   0.974
60562W        W28780  11.242  40.981   0.033
60563W        W28781  38.578  36.058  13.134
60564W        W28782  24.003  16.748   2.093
60565W        W28783  18.468   2.363  14.521
60566W        W28784  42.857  38.400   9.947
60567W        W28785  38.317  31.468   3.357
60568W        W28786  31.474  30.112  10.171
60569W        W28787  39.249  21.129   2.451
60570W        W28788  21.958  14.227  13.381
60571W        W28789  41.847  25.454   1.323
60572W        W28790  13.303  35.431  11.608
60573W        W28791   1.786   0.925  12.422
60574W        W28792  21.946   6.649  11.130
60575W        W28793  20.036  30.591  12.560
60576W        W28794  16.813  18.593  13.861
60577W        W28795  23.661  34.196  13.312
60578W        W28796  36.595  11.667   3.542
60579W        W28797   8.667  19.722   4.405
60580W        W28798  26.444  11.644   3.679
60581W        W28799  37.329  39.790  12.764
60582W        W28800  33.584  26.181  10.711
60583W        W28801  19.075  12.285   2.099
60584W        W28802  24.410   1.891  11.152
60585W        W28803  26.409  25.128  14.716
60586W        W28804   2.966  15.112  11.107
60587W        W28805  43.549   1.881   4.713
60588W        W28806  43.796  33.165   1.705
60589W        W28807   5.244   1.731   4.594
60590W        W28808  20.648  35.363  10.431
60591W        W28809  39.432  38.616   3.885
60592W        W28810  33.378  25.944   4.542
60593W        W28811  41.031   6.946   2.413
60594W        W28812  26.498  37.067   0.864
60595W        W28813  12.740  33.631  13.133
60596W        W28814  26.916  35.080   3.670
60597W        W28815  38.368  39.157   0.346
60598W        W28816  36.880  22.154   1.706
60599W        W28817  25.259  38.392   0.953
60600W        W28818  27.735   5.033  13.814
60601W        W28819  18.773   6.426   3.573
60602W        W28820  21.334  12.618   1.761
60603W        W28821  13.400   2.297  14.388
60604W        W28822  32.834  31.993   2.898
60605W        W28823  44.772   1.069   1.464
60606W        W28824  44.965  13.671  12.903
60607W        W28825  30.682  25.730  10.763
60608W        W28826  14.194  37.831   0.388
60609W        W28827  10.485  38.364  13.910
60610W        W28828  42.508  17.029  13.613
60611W        W28829  25.668  19.656   2.756
60612W        W28830   9.753  42.887  11.287
60613W        W28831  25.433  17.288   4.398
60614W        W28832  40.961  19.916  10.729
60615W        W28833  15.179  12.827  13.887
60616W        W28834  22.198  37.862  14.108
60617W        W28835  16.109  21.162  11.095
60618W        W28836   0.177  33.102   1.344
60619W        W28837  44.381  18.644   2.865
60620W        W28838   4.767   3.737  10.493
60621W        W28839   7.878  40.927  14.489
60622W        W28840  20.068  38.405  12.755
60623W        W28841  32.600   2.417   0.350
60624W        W28842  18.052  41.569   4.574
60625W        W28843   8.830  28.886   0.483
60626W        W28844  27.694   5.403   0.472
60627W        W28845  32.222  25.478   3.797
60628W        W28846  34.387  12.643   4.282
60629W        W28847  23.664  43.804  10.734
60630W        W28848  24.468  43.249  14.833
60631W        W28849  33.569  13.601  11.941
60632W        W28850  20.597   2.182  13.388
60633W        W28851  13.029  14.228   2.376
60634W        W28852  21.921  15.527  13.572
60635W        W28853  20.711  12.556  10.027
60636W        W28854   5.929  23.532  14.975
60637W        W28855  22.032  34.648  13.871
60638W        W28856  30.970   7.720   4.106
60639W        W28857  14.048  11.866  11.180
60640W        W28858   3.557   0.646  11.180
60641W        W28859  22.979  41.073  14.620
60642W        W28860   5.892   6.304  10.427
60643W        W28861  35.332   6.457   2.162
60644W        W28862  40.794  32.910   0.698
60645W        W28863  15.405   8.278  10.660
60646W        W28864  42.786  33.390  14.001
60647W        W28865  38.004  40.970   4.604
60648W        W28866  13.125  41.759   1.265
60649W        W28867  32.461  24.158   0.877
60650W        W28868  35.159  21.026  12.496
60651W        W28869  36.334  37.923   4.901
60652W        W28870  11.735  11.909   0.959
60653W        W28871  13.344   4.941   4.134
60654W        W28872  33.094  25.844   0.975
60655W        W28873  40.364  26.169  12.267
60656W        W28874  22.483  11.222   3.776
60657W        W28875   9.877  29.956   1.743
60658W        W28876  38.430  20.561   2.392
60659W        W28877  39.387  16.131  12.617
60660W        W28878  18.468  28.216   1.334
60661W        W28879  19.122  12.116  11.820
60662W        W28880   5.464  20.060  13.333
60663W        W28881   2.879  11.801  14.412
60664W        W28882  32.819  12.202  13.366
60665W        W28883  15.220  30.147   1.642
60666W        W28884  12.528  14.821   0.592
60667W        W28885  10.609  34.087  10.857
60668W        W28886  40.512   2.874  12.112
60669W        W28887  31.581   1.447  12.071
60670W        W28888  38.585  27.344  10.428
60671W        W28889  13.587  15.734  14.469
60672W        W28890  22.990  44.526   2.774
60673W        W28891  26.964  13.292   1.146
60674W        W28892  34.488  37.802  14.881
60675W        W28893  32.406   1.829   4.908
60676W        W28894  36.277   0.674  11.144
60677W        W28895  23.537   1.659   4.905
60678W        W28896   8.275   0.978  14.312
60679W        W28897  19.016  44.254   0.831
60680W        W28898  19.045   0.439   0.923
60681W        W28899  44.463  41.825   1.570
60682W        W28900  25.668  11.694   0.523
60683W        W28901   3.008  37.026   3.949
60684W        W28902   7.316  26.787   2.413
60685W        W28903  23.945  41.286   4.751
60686W        W28904  15.208  27.765   2.354
60687W        W28905  27.597  33.985  13.187
60688W        W28906  28.097   6.330  12.843
60689W        W28907  39.961  14.430   4.741
60690W        W28908  30.844  27.846   1.369
60691W        W28909  21.750  17.559  13.486
60692W        W28910  25.644   5.196   4.312
60693W        W28911  40.001  33.477  13.751
60694W        W28912  44.518   1.288   4.166
60695W        W28913  16.035   2.680  11.584
60696W        W28914  38.867  14.872  10.963
60697W        W28915  33.092  13.582  14.469
60698W        W28916  18.147  21.404  12.268
60699W        W28917  26.958  17.573  11.517
60700W        W28918  37.824  35.853  12.741
60701W        W28919  40.619  19.813   0.099
60702W        W28920  38.057  16.677  10.342
60703W        W28921   6.357  41.774   0.689
60704W        W28922   6.777  10.256  14.427
60705W        W28923  39.602  17.073   4.743
60706W        W28924  28.021  44.936   3.678
60707W        W28925   4.284  13.430   2.421
60708W        W28926  26.004  13.182   3.779
60709W        W28927  10.424  43.610  14.727
60710W        W28928  26.554  42.565  14.847
60711W        W28929  22.005  25.060  12.923
60712W        W28930  32.174  10.889  11.144
60713W        W28931   7.265  44.329  13.558
60714W        W28932  32.674  27.442  13.065
60715W        W28933  27.155  26.645   2.737
60716W        W28934   7.503   4.936   0.817
60717W        W28935  31.107  28.604   1.655
60718W        W28936  20.624  25.535   3.145
60719W        W28937  39.921  15.835  14.338
60720W        W28938   6.892  25.628   1.406
60721W        W28939  12.660  17.244  14.869
60722W        W28940  13.150   0.487   4.109
60723W        W28941   1.314  29.159  12.421
60724W        W28942  26.743  24.705  10.788
60725W        W28943  29.760   9.424   4.253
60726W        W28944  18.154  29.988   3.305
60727W        W28945  22.789  10.610   0.316
60728W        W28946  30.530  11.071   4.136
60729W        W28947  17.892   6.578  13.413
60730W        W28948   1.259  13.576   2.769
60731W        W28949  27.390  19.343   4.521
60732W        W28950  20.178  43.041  13.361
60733W        W28951  39.574  40.878  10.505
60734W        W28952  17.025  37.115   2.677
60735W        W28953  36.608  24.088   0.856
60736W        W28954  37.017  32.007   1.775
60737W        W28955  16.822  43.992   0.330
60738W        W28956  29.436  32.429  12.098
60739W        W28957  26.594   8.262   4.457
60740W        W28958  35.102  16.192   0.778
60741W        W28959  16.825  18.504   0.794
60742W        W28960  37.531  26.635  12.943
60743W        W28961  15.845  23.060   2.847
60744W        W28962  23.465   7.589  13.847
60745W        W28963  43.516  39.503  14.854
60746W        W28964   3.454  16.857  12.379
60747W        W28965  33.070  19.782  12.651
60748W        W28966  17.993   5.251  12.023
60749W        W28967  14.325   4.769  12.648
60750W        W28968  43.974  44.368  10.244
60751W        W28969  15.080   2.705  14.369
60752W        W28970  41.204  27.496  14.985
60753W        W28971  42.150  13.737   4.733
60754W        W28972  23.282  27.381   1.970
60755W        W28973  25.607  41.932   2.211
60756W        W28974  44.515  34.980   2.251
60757W        W28975  18.469  18.289   5.003
60758W        W28976  43.179   1.874  10.692
60759W        W28977   4.295  27.172   2.339
60760W        W28978  44.377  32.670   4.666
60761W        W28979   9.928   2.194   0.355
60762W        W28980  35.507  44.346   2.684
60763W        W28981  43.739  15.792   3.817
60764W        W28982  16.920  33.554   4.297
60765W        W28983   6.453  13.784   1.393
60766W        W28984  23.374  17.185   1.677
60767W        W28985  10.261  18.577  10.377
60768W        W28986   9.653  13.798  14.835
60769W        W28987  30.552  20.362   1.917
60770W        W28988   1.462  18.504   3.834
60771W        W28989  14.693   2.315  12.070
60772W        W28990  36.520  20.197   0.604
60773W        W28991  43.874   4.690  12.572
60774W        W28992  29.534  40.737   1.339
60775W        W28993  25.441  24.078  12.919
60776W        W28994  21.090  26.597  12.327
60777W        W28995   9.291  43.288  14.788
60778W        W28996  34.557   0.311  13.264
60779W        W28997  29.585  27.446   2.213
60780W        W28998  43.384   5.972  13.078
60781W        W28999  43.501   3.728  13.463
60782W        W29000   2.311  41.477  14.310
60783W        W29001  43.544  17.796   0.321
60784W        W29002  16.364   7.451  14.059
60785W        W29003  14.020  17.316   4.493
60786W        W29004  22.099  31.958  14.477
60787W        W29005  32.912   3.369  13.928
60788W        W29006  34.294  39.311  11.365
60789W        W29007  42.586   9.308  11.234
60790W        W29008   7.306  40.288  12.810
60791W        W29009  32.766  36.087   0.040
60792W        W29010  14.782  42.820   1.209
60793W        W29011   9.380  14.675   4.584
60794W        W29012  42.457  17.986  11.942
60795W        W29013  26.339  27.588   4.977
60796W        W29014   6.282  42.042   1.482
60797W        W29015  37.574  16.074  12.992
60798W        W29016  32.681  39.494   0.426
60799W        W29017  13.380  19.842  10.773
60800W        W29018  38.920  41.441   2.293
60801W        W29019  12.720   0.465   0.102
60802W        W29020  28.629  17.759  11.926
60803W        W29021  30.937  38.398  14.017
60804W        W29022  19.563  22.616   0.910
60805W        W29023  34.874   4.328   2.165
60806W        W29024  18.847  14.655   1.248
60807W        W29025  40.576  17.078   4.934
60808W        W29026  28.931   0.419  14.891
60809W        W29027  17.748   6.289  11.896
60810W        W29028   0.189  17.615   2.714
60811W        W29029  16.394  28.473  11.565
60812W        W29030  18.104   5.512  13.291
60813W        W29031  15.200  32.206   4.550
60814W        W29032   9.887  14.313  10.871
60815W        W29033  38.043   0.912   2.893
60816W        W29034  25.109  16.270   1.962
60817W        W29035   2.538  26.160   4.434
60818W        W29036  35.693  21.266  13.998
60819W        W29037   4.688  21.769   4.610
60820W        W29038  17.752  21.272   0.924
60821W        W29039  44.532  13.520  12.596
60822W        W29040   0.237  37.824   0.848
60823W        W29041  11.456  26.482   2.723
60824W        W29042   1.178  44.317  13.589
60825W        W29043  12.128  18.136   1.044
60826W        W29044  16.667  22.083  13.073
60827W        W29045   5.950  40.089  10.983
60828W        W29046   2.424  23.073  13.529
60829W        W29047  28.525  30.784  13.982
60830W        W29048   5.393  43.018   3.823
60831W        W29049   2.215  39.844   2.250
60832W        W29050  39.570  15.491   0.489
60833W        W29051  40.032   0.371   4.129
60834W        W29052  27.618  11.665   1.368
60835W        W29053   9.885  27.024   0.205
60836W        W29054  24.491  21.088   3.076
60837W        W29055  11.898  23.938  11.169
60838W        W29056  44.847   0.736  12.475
60839W        W29057   6.301   1.431   1.330
60840W        W29058  28.578  39.011  13.244
60841W        W29059  40.925   8.102   0.751
60842W        W29060  30.761  39.805  11.277
60843W        W29061  25.033   0.029  11.219
60844W        W29062  21.181  23.585   4.609
60845W        W29063   9.687  10.402   0.741
60846W        W29064   2.274  39.922  14.113
60847W        W29065  29.058  23.910   4.270
60848W        W29066  23.714  43.941   2.905
60849W        W29067  15.740  19.935   4.120
60850W        W29068  11.391  26.794   2.113
60851W        W29069  31.503  28.124  13.470
60852W        W29070   8.678   7.586   3.594
60853W        W29071  28.368  25.411  12.063
60854W        W29072   1.235   8.393  11.930
60855W        W29073  16.163  29.130   0.850
60856W        W29074  30.979  20.388   0.753
60857W        W29075  17.463  20.104   0.513
60858W        W29076  25.844   6.627   0.892
60859W        W29077  35.497  33.777  13.644
60860W        W29078  26.954  13.069  11.512
60861W        W29079  13.434  35.084   4.956
60862W        W29080  14.660  15.378  10.993
60863W        W29081  25.027   1.434   2.579
60864W        W29082  36.507  23.486   3.768
60865W        W29083   6.653  14.895  14.799
60866W        W29084  42.780  21.840  11.818
60867W        W29085  23.341  28.839  10.714
60868W        W29086  29.571  35.582   1.666
60869W        W29087   2.676  12.576   1.229
60870W        W29088   3.883   1.269  12.639
60871W        W29089  13.762  24.187   0.821
60872W        W29090  28.227  42.958  11.562
60873W        W29091  35.957  27.458   1.000
60874W        W29092  17.750  28.513  12.865
60875W        W29093  10.570   0.807  11.481
60876W        W29094  15.885  27.488   3.332
60877W        W29095  12.792   5.144   1.398
60878W        W29096  27.278  18.799  11.601
60879W        W29097  27.586  20.095   2.803
60880W        W29098  23.993  18.083  10.346
60881W        W29099  31.624  16.115   4.103
60882W        W29100   7.878  32.962  10.912
60883W        W29101   7.149  41.555   2.254
60884W        W29102  44.699  19.033   1.233
60885W        W29103  21.451  13.619   3.311
60886W        W29104   0.482  24.423   3.787
60887W        W29105  17.764  33.850  13.161
60888W        W29106  25.963  42.835  13.876
60889W        W29107  39.410  14.119  12.023
60890W        W29108  10.426   8.673   4.459
60891W        W29109  36.497  27.142  12.976
60892W        W29110  14.354  26.978   4.557
60893W        W29111  40.922  18.590  14.789
60894W        W29112   5.147   8.858   4.968
60895W        W29113  31.160  14.176   0.968
60896W        W29114  11.241   5.955  12.968
60897W        W29115  13.682  37.848  14.511
60898W        W29116  16.336  33.174   1.304
60899W        W29117  36.569  13.600  10.702
60900W        W29118  11.937   9.283   1.169
60901W        W29119   9.964  23.618  12.078
60902W        W29120  14.091  31.064  14.785
60903W        W29121  40.124  44.894  11.265
60904W        W29122  33.455  13.118  11.788
60905W        W29123  25.749  10.128   4.103
60906W        W29124  32.694   5.294   4.382
60907W        W29125  36.402  19.659   1.335
60908W        W29126  26.737  38.503  13.512
60909W        W29127  37.223   4.250  14.030
60910W        W29128  43.895   8.833   4.928
60911W        W29129  34.739  15.382   1.236
60912W        W29130  32.120   9.716   4.836
60913W        W29131  14.818  18.074   3.217
60914W        W29132  42.170  20.804  13.305
60915W        W29133  41.480   5.913  14.764
60916W        W29134  18.627  44.081  11.486
60917W        W29135  36.175   9.710  13.283
60918W        W29136  24.195  43.383   4.476
60919W        W29137   1.185  23.480   3.873
60920W        W29138  23.944  25.561   4.698
60921W        W29139  36.094  38.542   2.629
60922W        W29140   9.775  37.313  14.421
60923W        W29141  21.089   5.696  14.481
60924W        W29142  32.045   1.851   0.524
60925W        W29143  40.863  25.262   4.627
60926W        W29144  35.312  11.854  12.527
60927W        W29145   7.256  24.879   0.447
60928W        W29146  26.115   3.381   2.386
60929W        W29147  14.284  32.498   1.271
60930W        W29148  37.763   5.319   1.769
60931W        W29149  25.593  36.554   1.280
60932W        W29150  24.482  15.290  14.944
60933W        W29151  20.602   2.949  12.111
60934W        W29152   6.560   2.211  14.558
60935W        W29153  14.175  26.234  11.655
60936W        W29154  14.553  34.417   3.682
60937W        W29155  32.157  40.497   2.740
60938W        W29156   8.739  22.015  13.910
60939W        W29157   0.755  36.598  10.851
60940W        W29158  16.774  14.135   3.818
60941W        W29159  11.776   4.342   3.167
60942W        W29160  13.648  41.457   3.532
60943W        W29161   4.982  15.154  11.093
60944W        W29162  10.334  38.603   2.744
60945W        W29163  11.898   8.365  14.753
60946W        W29164  40.050  20.335   4.465
60947W        W29165  26.341  14.834  10.657
60948W        W29166  32.092  11.346   2.753
60949W        W29167  17.428   2.532   5.150
60950W        W29168  27.971  30.117   2.815
60951W        W29169  42.042  15.995   3.972
60952W        W29170  32.942  39.955  11.914
60953W        W29171  44.043   4.993   3.701
60954W        W29172  18.551  10.735  13.373
60955W        W29173  31.613  26.685  11.220
60956W        W29174   0.520  38.470  12.877
60957W        W29175  32.841  24.568   4.048
60958W        W29176  35.385  39.871  14.766
60959W        W29177  43.362  33.827   1.494
60960W        W29178  23.604  27.173   1.526
60961W        W29179  13.049  44.830  11.164
60962W        W29180  24.199  35.502   9.933
60963W        W29181   3.307  32.345  10.218
60964W        W29182  43.007  14.301   0.791
60965W        W29183  32.732  25.690  10.423
60966W        W29184   6.905  31.201  11.743
60967W        W29185  41.384  18.080   0.933
60968W        W29186  19.020  13.389   1.703
60969W        W29187  27.598  44.228   2.616
60970W        W29188  27.505  33.604   3.626
60971W        W29189  13.994  21.584  14.055
60972W        W29190  43.317  31.189  12.124
60973W        W29191  34.595   5.037   3.126
60974W        W29192  39.782  37.423  10.559
60975W        W29193   9.198  40.324  12.091
60976W        W29194   9.865  15.823   0.965
60977W        W29195  42.783   4.340  13.453
60978W        W29196   0.929  19.486   0.066
60979W        W29197  22.703   4.976   0.967
60980W        W29198   5.369  44.342  14.222
60981W        W29199  35.557  39.108   3.648
60982W        W29200  26.468  18.026   4.759
60983W        W29201  41.551  40.790   3.188
60984W        W29202   3.156  29.239   0.632
60985W        W29203  10.724   6.141   4.618
60986W        W29204  34.639  37.079   1.477
60987W        W29205  42.940   6.399   1.305
60988W        W29206  27.986  36.930  14.574
60989W        W29207  44.687   4.754   0.429
60990W        W29208   8.371  22.761   2.850
60991W        W29209  26.053   2.259   4.914
60992W        W29210  19.357  32.320   5.089
60993W        W29211  40.980  32.844   3.159
60994W        W29212  24.982   9.705   4.120
60995W        W29213  20.701  30.994   3.007
60996W        W29214  44.880  22.544   3.850
60997W        W29215  17.575  17.237   2.256
60998W        W29216  28.038   0.252   0.668
60999W        W29217  33.212  41.428   2.304
61000W        W29218  31.490   0.485   3.799
61001W        W29219  11.150  12.634   2.486
61002W        W29220  24.296  19.224  10.616
61003W        W29221   8.634  23.606  12.970
61004W        W29222  27.050  29.867   1.948
61005W        W29223  25.223  30.555  13.760
61006W        W29224   6.976  27.251   0.225
61007W        W29225  25.664  27.039   3.299
61008W        W29226   3.927   5.041  14.851
61009W        W29227  12.397  20.612  10.501
61010W        W29228  18.873  21.996   2.337
61011W        W29229  38.942  22.753   4.607
61012W        W29230  27.734  28.604  12.087
61013W        W29231   3.273  20.270  12.599
61014W        W29232  44.408   3.733  11.521
61015W        W29233   7.968  21.002  12.856
61016W        W29234  22.212  19.177   3.259
61017W        W29235   9.757   5.528  11.634
61018W        W29236  33.088   2.989   1.696
61019W        W29237  21.999  23.504   2.320
61020W        W29238  21.049   9.110   2.847
61021W        W29239   4.755  16.150   4.165
61022W        W29240  27.155  10.929  14.863
61023W        W29241  26.824  37.603  14.154
61024W        W29242  14.011  15.792   4.182
61025W        W29243  39.500  15.112   3.665
61026W        W29244  44.958   2.660   2.398
61027W        W29245   3.814   9.237  12.312
61028W        W29246  13.717   2.623  12.355
61029W        W29247  25.702  41.368   4.347
61030W        W29248  42.061  17.049  11.262
61031W        W29249  35.865  19.992   3.720
61032W        W29250  29.425   4.196  12.504
61033W        W29251  14.559   0.930   1.825
61034W        W29252  31.845  10.777  10.784
61035W        W29253  27.366  37.423   2.481
61036W        W29254   8.824  42.529  12.107
61037W        W29255  16.140   5.933   1.294
61038W        W29256  17.984  21.114  11.116
61039W        W29257  32.479  38.776   1.017
61040W        W29258  36.905  31.455   4.488
61041W        W29259  21.125  40.548  14.468
61042W        W29260  31.474   2.487   4.107
61043W        W29261   7.838  20.738   2.508
61044W        W29262  39.013  29.429  13.871
61045W        W29263   9.944  36.054  10.167
61046W        W29264  28.960  28.852   3.186
61047W        W29265   4.900   3.397   3.257
61048W        W29266  12.133  11.094   0.786
61049W        W29267  21.826  25.324  14.825
61050W        W29268  11.616   5.825  12.069
61051W        W29269  36.667  32.945  14.367
61052W        W29270   3.600   9.166  10.938
61053W        W29271   9.354  27.931  12.846
61054W        W29272  32.283  44.735  10.615
61055W        W29273  36.748   9.438   1.925
61056W        W29274  12.965  30.970   1.715
61057W        W29275  34.153   2.915   4.746
61058W        W29276  43.281  10.760  10.970
61059W        W29277  42.942  27.343  12.490
61060W        W29278  27.497  17.053   4.143
61061W        W29279  15.972  43.031  12.483
61062W        W29280  18.093   9.273   2.345
61063W        W29281  22.040  11.709  10.789
61064W        W29282  36.511  38.434  14.483
61065W        W29283   7.148  35.983   4.567
61066W        W29284  31.625   3.836  12.184
61067W        W29285   3.754  43.228  13.375
61068W        W29286  19.190  33.065   4.983
61069W        W29287  22.514  12.671   2.891
61070W        W29288  32.623  11.642  13.843
61071W        W29289  33.435  24.244   4.221
61072W        W29290  40.389  24.041   0.322
61073W        W29291  18.998  40.484   4.495
61074W        W29292   6.209  44.526  10.505
61075W        W29293  24.138  38.039  10.842
61076W        W29294  12.060   0.984   1.809
61077W        W29295   5.388  25.251   0.431
61078W        W29296  25.672  39.603   0.387
61079W        W29297  36.974  26.801   2.693
61080W        W29298  42.196  37.357   1.339
61081W        W29299  18.886  12.451  10.541
61082W        W29300  39.383  24.075   4.674
61083W        W29301  20.333  10.298   1.817
61084W        W29302  34.740   7.394  11.933
61085W        W29303  11.706   8.787  12.499
61086W        W29304   0.560  30.467  14.022
61087W        W29305  34.115  19.248   1.300
61088W        W29306  20.753   5.384  10.907
61089W        W29307  30.561   1.508  12.984
61090W        W29308  22.250   7.999  13.385
61091W        W29309  32.853  37.010  13.136
61092W        W29310  33.853  11.111  13.153
61093W        W29311  17.278   5.571   4.131
61094W        W29312  31.999  31.948  13.986
61095W        W29313  29.935  16.467   4.681
61096W        W29314  18.697   7.390   4.519
61097W        W29315  13.867   9.641   0.189
61098W        W29316  24.155  25.544   0.276
61099W        W29317  40.883  29.961  12.554
61100W        W29318  14.112  28.449   3.824
61101W        W29319   9.954  35.664  10.724
61102W        W29320   8.761  34.459  14.842
61103W        W29321  30.663   5.236  14.574
61104W        W29322  26.134  35.517   1.939
61105W        W29323  10.576  25.284   4.221
61106W        W29324  23.076  39.812   4.040
61107W        W29325  21.628   4.250   4.942
61108W        W29326   9.293  26.880  14.771
61109W        W29327  37.848  30.624   1.454
61110W        W29328  33.034  32.977   0.347
61111W        W29329  14.129  13.583   4.586
61112W        W29330  35.440  23.781  13.357
61113W        W29331  13.319   9.901  13.529
61114W        W29332  35.630  10.790   3.194
61115W        W29333  33.086  34.318   0.235
61116W        W29334  14.293  32.479  10.899
61117W        W29335  15.463  25.831   4.699
61118W        W29336  40.367   1.153  12.550
61119W        W29337  39.362  15.826   0.040
61120W        W29338  37.648  18.129  11.422
61121W        W29339  27.649  17.898   0.864
61122W        W29340  31.936  22.668   3.089
61123W        W29341  27.846   2.399  13.381
61124W        W29342  32.339  22.513  14.837
61125W        W29343  37.324   8.738  12.493
61126W        W29344  28.089   2.713   3.116
61127W        W29345  24.140   7.016   2.551
61128W        W29346  26.995  20.037  12.810
61129W        W29347  30.932  27.032   2.368
61130W        W29348   5.744   4.549   2.439
61131W        W29349  38.534  36.023   4.337
61132W        W29350  25.804  24.062   4.232
61133W        W29351  19.644   7.262  11.098
61134W        W29352  12.200  28.413  12.983
61135W        W29353  37.495  23.710   3.746
61136W        W29354  34.021   5.265  10.099
61137W        W29355   1.399  22.440   0.443
61138W        W29356   6.210  28.913  13.422
61139W        W29357   5.974  37.917  12.448
61140W        W29358  29.890  16.268  13.853
61141W        W29359   9.862  40.955  11.498
61142W        W29360  11.805   6.314  12.008
61143W        W29361  21.682  26.429   3.565
61144W        W29362  23.763  10.422   0.459
61145W        W29363  42.040  17.142   5.110
61146W        W29364   0.872   4.469   1.398
61147W        W29365  29.914  38.067   1.512
61148W        W29366  37.914  17.632  11.519
61149W        W29367  41.513  27.140  10.745
61150W        W29368   0.821  16.368   0.875
61151W        W29369  35.927  37.511  14.321
61152W        W29370  11.309  32.052   4.505
61153W        W29371   5.271  15.811   1.444
61154W        W29372  27.100   3.920  13.609
61155W        W29373  17.320   9.226   4.517
61156W        W29374  26.163  35.844  14.263
61157W        W29375  15.136  30.637  12.366
61158W        W29376   0.740  31.564  10.719
61159W        W29377  12.760   5.856   2.128
61160W        W29378  18.875  25.761   4.062
61161W        W29379  13.972  39.290  10.544
61162W        W29380  42.265  17.686   4.635
61163W        W29381  10.695   2.652   0.304
61164W        W29382  19.681  17.533  13.872
61165W        W29383  18.805  26.876   1.393
61166W        W29384  13.248  39.768   4.229
61167W        W29385  35.117  23.753  14.457
61168W        W29386  39.171  22.744  14.274
61169W        W29387   9.217  43.832  10.416
61170W        W29388   8.706  41.268  14.002
61171W        W29389  22.636  43.034  13.777
61172W        W29390  35.019  12.858   1.444
61173W        W29391  21.890  41.567   2.276
61174W        W29392  24.587  40.501   3.924
61175W        W29393  12.415  40.531   2.271
61176W        W29394  19.571  40.371   1.746
61177W        W29395  14.481   1.828   3.281
61178W        W29396  29.981  39.944   4.880
61179W        W29397  28.032  23.566   0.759
61180W        W29398  13.680  11.878  12.975
61181W        W29399   0.751  34.910   3.268
61182W        W29400  30.552   1.310   1.874
61183W        W29401   9.806  20.386   4.111
61184W        W29402   3.986  41.373  14.523
61185W        W29403   2.919  26.128   1.854
61186W        W29404  26.787   2.920  12.917
61187W        W29405  29.009  39.035  11.903
61188W        W29406  39.778   4.355   4.912
61189W        W29407  21.579   5.450   0.603
61190W        W29408  20.642   4.007   4.241
61191W        W29409   0.264   1.991   1.804
61192W        W29410  35.762   7.623   1.878
61193W        W29411  27.577  43.504  13.961
61194W        W29412  18.653  33.487   2.850
61195W        W29413  35.627  26.680  13.980
61196W        W29414  13.780  26.748   2.646
61197W        W29415  23.570  40.855   2.278
61198W        W29416  13.160  36.471  10.711
61199W        W29417   8.138  13.525  14.770
61200W        W29418  18.700  44.751   3.656
61201W        W29419  30.175  44.827   0.068
61202W        W29420  21.165   6.393  11.671
61203W        W29421  42.961  24.606   2.833
61204W        W29422   0.691  35.365   0.981
61205W        W29423  37.884  21.474   2.271
61206W        W29424  16.701  28.481   2.938
61207W        W29425  10.250  12.705   1.504
61208W        W29426  10.766  13.607  14.321
61209W        W29427  10.231  20.373   3.616
61210W        W29428  30.605   5.412   3.234
61211W        W29429  20.370  43.055   2.708
61212W        W29430  13.751  23.522   4.656
61213W        W29431  31.715  14.266  10.242
61214W        W29432  38.270  11.253   3.188
61215W        W29433   8.171  37.883   0.791
61216W        W29434  33.164  32.138  13.532
61217W        W29435   7.354  35.611  10.730
61218W        W29436  10.730  14.470   5.000
61219W        W29437   8.419  27.391   2.283
61220W        W29438  42.717  13.214  11.993
61221W        W29439   2.327  25.411   0.337
61222W        W29440  24.103   8.312   3.365
61223W        W29441  25.170  39.365   1.847
61224W        W29442   2.182  13.009  12.095
61225W        W29443  32.488   5.195   5.254
61226W        W29444  39.587   3.452  13.518
61227W        W29445  29.381  31.752   0.529
61228W        W29446   0.735  19.724  11.980
61229W        W29447  18.976  20.130  12.066
61230W        W29448  37.546  18.486   0.744
61231W        W29449  21.081  26.142  11.475
61232W        W29450  31.576  15.770   2.441
61233W        W29451   4.798   0.280  12.637
61234W        W29452   7.916  29.173   2.217
61235W        W29453  34.382   5.394   3.410
61236W        W29454  39.367   5.847  12.470
61237W        W29455  38.875  33.703   0.926
61238W        W29456  24.483   6.225  10.403
61239W        W29457  44.629  10.959  12.616
61240W        W29458   0.289  16.164   0.879
61241W        W29459  29.202   8.842  11.575
61242W        W29460  12.815  11.204  12.448
61243W        W29461   8.979  10.001   1.278
61244W        W29462  28.093   4.895   2.255
61245W        W29463   5.689  20.559  11.597
61246W        W29464   7.312  20.008  14.477
61247W        W29465   2.529   2.902   0.441
61248W        W29466  39.494  42.930   3.131
61249W        W29467  15.668  36.143   2.430
61250W        W29468  10.595   8.189   4.612
61251W        W29469  22.206  13.252  14.415
61252W        W29470   0.436  42.735   4.152
61253W        W29471  43.509  19.077   1.712
61254W        W29472  39.973   1.145  11.942
61255W        W29473   1.386  30.024   1.947
61256W        W29474   2.820  36.465   1.618
61257W        W29475  10.694   7.466  10.648
61258W        W29476  13.695   4.225  13.998
61259W        W29477  41.365   1.807  14.129
61260W        W29478  32.860   4.342   2.399
61261W        W29479  22.673  16.575   3.200
61262W        W29480   4.411  28.609   1.749
61263W        W29481  10.097   9.336  14.709
61264W        W29482   5.287  35.361   2.337
61265W        W29483  29.281  29.817  14.456
61266W        W29484  21.176  11.262  11.514
61267W        W29485  26.443  13.228  14.797
61268W        W29486  11.302   9.962   2.383
61269W        W29487   4.961   6.458  14.877
61270W        W29488  12.793  41.984  14.026
61271W        W29489  40.331  20.960   0.223
61272W        W29490   4.562  42.390  13.572
61273W        W29491   0.469  29.903  12.814
61274W        W29492  38.505  19.708  13.046
61275W        W29493   2.226  32.199  12.515
61276W        W29494  10.028   4.645   1.332
61277W        W29495  17.171  44.042  12.462
61278W        W29496  17.270  35.119  11.514
61279W        W29497   3.253  14.000  11.167
61280W        W29498   5.301   5.668   3.148
61281W        W29499  38.036  19.543  11.417
61282W        W29500  22.681  26.691  13.868
61283W        W29501  35.624  30.598   4.829
61284W        W29502  25.120   0.553  11.214
61285W        W29503   4.379   4.185  12.050
61286W        W29504  31.694   5.645   9.893
61287W        W29505  25.458   8.939   5.071
61288W        W29506   1.839  21.252  13.869
61289W        W29507  30.183   4.398  14.866
61290W        W29508  39.281  38.844   1.822
61291W        W29509  26.807  10.630   3.792
61292W        W29510   8.451  29.178   2.236
61293W        W29511  34.473  33.885   2.771
61294W        W29512  31.881  24.422  13.283
61295W        W29513  23.737   1.796   3.358
61296W        W29514  42.254   1.015   2.267
61297W        W29515  28.455  10.667   1.179
61298W        W29516  34.814   2.451  11.062
61299W        W29517  37.865  37.495   4.753
61300W        W29518  17.707  10.698  10.659
61301W        W29519  42.458  29.737   3.283
61302W        W29520   3.488  36.902   0.697
61303W        W29521  28.200  36.580  12.598
61304W        W29522  24.500  41.979   0.419
61305W        W29523  40.053  15.448   9.971
61306W        W29524  12.247  23.111   3.764
61307W        W29525  16.089   6.714   4.164
61308W        W29526   6.877   3.226  11.122
61309W        W29527   1.419  44.728   4.229
61310W        W29528   7.850  15.587   4.536
61311W        W29529  10.196  15.290   1.772
61312W        W29530  28.122  34.111  12.942
61313W        W29531  40.091   5.013  11.508
61314W        W29532  23.225  14.924  11.329
61315W        W29533  25.011   4.989  11.115
61316W        W29534   8.262  21.812  11.634
61317W        W29535   0.288   6.202  12.324
61318W        W29536  43.553  39.727   2.728
61319W        W29537   1.447   9.671   2.674
61320W        W29538  21.114  17.673  14.271
61321W        W29539  43.230  18.273  13.535
61322W        W29540  35.886   6.113   4.641
61323W        W29541  32.360  30.357  14.924
61324W        W29542  33.303   3.784  13.013
61325W        W29543  14.456  44.807   4.132
61326W        W29544  23.000  11.396  11.903
61327W        W29545   5.917  16.523   2.867
61328W        W29546   6.804  10.795   1.488
61329W        W29547   6.446   0.817  12.025
61330W        W29548  15.110  36.978  12.974
61331W        W29549  36.565  42.447   3.824
61332W        W29550  10.845   8.928  10.729
61333W        W29551  30.761  18.635   2.602
61334W        W29552  13.755  44.754   2.818
61335W        W29553   2.464   5.399  12.837
61336W        W29554  35.551  28.569  11.118
61337W        W29555  26.145  22.987   3.865
61338W        W29556  30.938   8.890   0.417
61339W        W29557  14.101   0.971  12.657
61340W        W29558  21.729  22.917   4.150
61341W        W29559   5.842   9.405  14.508
61342W        W29560  16.780   0.012   0.340
61343W        W29561  35.079  17.113   1.054
61344W        W29562  20.253  35.362  11.603
61345W        W29563   6.832  34.950  10.433
61346W        W29564  11.321  42.530  14.446
61347W        W29565  37.742  27.593  13.450
61348W        W29566  20.590  32.848  14.531
61349W        W29567  42.119  11.856  13.637
61350W        W29568  25.122  16.314  12.044
61351W        W29569   9.301  28.900  12.072
61352W        W29570   1.838  15.273   1.795
61353W        W29571   2.344  21.088  14.784
61354W        W29572  20.033  27.179  14.023
61355W        W29573  14.856  20.249   4.170
61356W        W29574   6.934  11.182  14.557
61357W        W29575  21.196   0.286   3.077
61358W        W29576  13.658  10.700   3.593
61359W        W29577   6.863  40.355   0.327
61360W        W29578  26.336  37.325  14.269
61361W        W29579   6.312  41.883   1.960
61362W        W29580   6.303  11.749  12.981
61363W        W29581   2.038  11.888   4.612
61364W        W29582  23.189   7.594   4.190
61365W        W29583  22.883  14.925   2.674
61366W        W29584   0.901  40.431   3.605
61367W        W29585   0.565  35.332   4.799
61368W        W29586  31.352   1.077  10.257
61369W        W29587  28.674  31.258  14.058
61370W        W29588   0.725  30.037   3.884
61371W        W29589  25.342   7.278  14.073
61372W        W29590  17.209  38.116  14.957
61373W        W29591  40.830  19.678  11.191
61374W        W29592  15.842  19.211  12.595
61375W        W29593  32.839  23.053   1.377
61376W        W29594   6.453  44.193   1.877
61377W        W29595  25.697   0.904   3.331
61378W        W29596  39.099   3.464  12.796
61379W        W29597  25.380   9.791  11.949
61380W        W29598  42.344   5.757   1.769
61381W        W29599  25.737  38.505  10.568
61382W        W29600  28.970  29.895   1.412
61383W        W29601  24.659  20.628   4.373
61384W        W29602  40.670  29.104  13.017
61385W        W29603   0.326  37.678  11.244
61386W        W29604  32.163  23.791   0.347
61387W        W29605   8.143  38.548  14.021
61388W        W29606  37.802   8.453   0.337
61389W        W29607  20.765  24.697   0.351
61390W        W29608  40.800   8.621  14.833
61391W        W29609  11.223  30.077   4.542
61392W        W29610  30.843  25.442  11.168
61393W        W29611  27.908  42.475   3.727
61394W        W29612  25.025  17.081   4.109
61395W        W29613   8.148  12.799  12.430
61396W        W29614  23.760  42.477   4.278
61397W        W29615   1.818  36.069   4.621
61398W        W29616  20.181   8.395   5.269
61399W        W29617  17.861  23.465  13.576
61400W        W29618  11.243  17.060  14.407
61401W        W29619  29.093  44.708   0.441
61402W        W29620  38.198  33.456  10.173
61403W        W29621  10.585  10.359  11.104
61404W        W29622  39.029  24.484  14.595
61405W        W29623   8.701   8.464  11.195
61406W        W29624  10.574  30.647  11.574
61407W        W29625  35.835   0.318  14.426
61408W        W29626  30.269  40.883   2.836
61409W        W29627  41.033  15.111   4.077
61410W        W29628  15.247  43.782  14.982
61411W        W29629  34.920  10.314   0.391
61412W        W29630   3.863  40.903  14.365
61413W        W29631   6.292  42.000  12.765
61414W        W29632  23.000  33.892   2.422
61415W        W29633  27.574  11.284  10.707
61416W        W29634  21.243  18.689  12.849
61417W        W29635  13.757   8.675   1.410
61418W        W29636  15.317  40.481   4.099
61419W        W29637  18.150  39.579  14.519
61420W        W29638  21.837  35.101   2.842
61421W        W29639  39.503  37.845  14.906
61422W        W29640  11.703   1.561   9.968
61423W        W29641  41.306  14.753  12.166
61424W        W29642  20.080   3.504  12.434
61425W        W29643  19.207  22.216  11.568
61426W        W29644  14.135  26.760  11.657
61427W        W29645  26.182  17.771  10.041
61428W        W29646  14.899  26.134  13.130
61429W        W29647  27.465  25.705   3.875
61430W        W29648  10.504  27.847  11.610
61431W        W29649  26.091  25.216   2.957
61432W        W29650   4.540  14.017  14.283
61433W        W29651  18.283   3.374  14.953
61434W        W29652  42.486   2.774  11.970
61435W        W29653   0.146  14.174  12.051
61436W        W29654  36.878  26.470   3.348
61437W        W29655   4.940  39.486  14.062
61438W        W29656  33.059  10.367  13.939
61439W        W29657   8.441  35.457  11.522
61440W        W29658  21.306  34.119   1.706
61441W        W29659  37.309  33.888   1.697
61442W        W29660   5.355  28.203   9.887
61443W        W29661  44.444  29.227   4.149
61444W        W29662  21.672  23.013  14.730
61445W        W29663  14.854   6.673  13.573
61446W        W29664  38.625  24.645  11.213
61447W        W29665  26.920  43.970   2.847
61448W        W29666  11.429  37.057   3.548
61449W        W29667  27.210   0.051   0.503
61450W        W29668  41.019  28.669  13.894
61451W        W29669  20.273  34.655   1.444
61452W        W29670  16.661  20.167  10.487
61453W        W29671   3.501  11.167   3.160
61454W        W29672   9.758  15.293  13.433
61455W        W29673  44.830  28.952   4.366
61456W        W29674  12.071  30.472  11.112
61457W        W29675  21.694   2.223   1.779
61458W        W29676  28.880  41.983   1.310
61459W        W29677   1.062  26.597  12.548
61460W        W29678  39.460   0.769   0.709
61461W        W29679  22.310  30.567  14.498
61462W        W29680  44.263   3.358   2.336
61463W        W29681  10.134   7.344  13.814
61464W        W29682  26.756  18.294  13.939
61465W        W29683  32.601   9.532   3.542
61466W        W29684  34.946   1.007   2.856
61467W        W29685  16.393   9.828  14.811
61468W        W29686  40.531  33.769  11.790
61469W        W29687  35.124  36.105  11.399
61470W        W29688   5.988   1.467   3.114
61471W        W29689  24.285  31.407  13.130
61472W        W29690   7.822  19.573   0.183
61473W        W29691  41.327  22.073   0.309
61474W        W29692  26.955   6.651  12.468
61475W        W29693  16.264  11.058  10.143
61476W        W29694  36.361   1.641   3.053
61477W        W29695  28.447  22.720  11.430
61478W        W29696  18.031   7.953   2.123
61479W        W29697  36.883  39.372  14.425
61480W        W29698  30.212  26.657  14.556
61481W        W29699   3.704   8.594   2.884
61482W        W29700   3.128  28.967  12.632
61483W        W29701  12.291  33.466  12.837
61484W        W29702  17.877  11.512  14.543
61485W        W29703  16.213   7.128   2.477
61486W        W29704   7.952  34.442   3.157
61487W        W29705   5.723  31.414   3.735
61488W        W29706   5.039  14.223   0.873
61489W        W29707  38.329  11.002   1.783
61490W        W29708  26.189  32.918   1.135
61491W        W29709  18.104  41.697  12.523
61492W        W29710  15.548  19.870   3.669
61493W        W29711  38.748  38.485  12.085
61494W        W29712  31.223  34.871   2.767
61495W        W29713  32.936  31.433   4.532
61496W        W29714  24.667  16.614  12.181
61497W        W29715  10.877  27.608  12.072
61498W        W29716  24.012  27.079   4.603
61499W        W29717  10.214  20.317   1.781
61500W        W29718  12.254  13.085  13.833
61501W        W29719   9.324  25.096   1.464
61502W        W29720  16.674  22.452  13.887
61503W        W29721  20.717  21.719   3.557
61504W        W29722  36.427   6.448  13.072
61505W        W29723  12.335  10.094   3.023
61506W        W29724  16.339   2.235   0.450
61507W        W29725  41.939   3.880   5.281
61508W        W29726  20.043   4.853   4.512
61509W        W29727  15.522  10.979  11.710
61510W        W29728  34.923  42.460   4.857
61511W        W29729  10.254  16.805   2.722
61512W        W29730  32.391  36.460  11.981
61513W        W29731  13.824   7.260  12.956
61514W        W29732   4.358  28.518   2.678
61515W        W29733  21.983  21.425  10.523
61516W        W29734   0.302  16.766   3.608
61517W        W29735  26.586  20.645   4.888
61518W        W29736  24.532   7.197   0.613
61519W        W29737   6.435  42.937   3.647
61520W        W29738  11.497  33.032  12.450
61521W        W29739   4.944  11.651  12.620
61522W        W29740  41.009  20.685   0.508
61523W        W29741  20.803   3.189   2.773
61524W        W29742  34.556  28.559   1.618
61525W        W29743  14.838  35.476  12.927
61526W        W29744   9.280   9.667  11.655
61527W        W29745  33.496  16.821  11.770
61528W        W29746  32.575   2.825  11.660
61529W        W29747  19.421  32.656   1.317
61530W        W29748  19.710   9.167  12.448
61531W        W29749   1.557  27.928   4.944
61532W        W29750  17.378  35.467   1.685
61533W        W29751  22.143   3.317   0.274
61534W        W29752   5.953  34.290  14.326
61535W        W29753  31.168  36.645   0.767
61536W        W29754   4.224   7.286   2.327
61537W        W29755  36.062  13.068   3.800
61538W        W29756  42.580  23.543  11.413
61539W        W29757  37.249   7.428  11.270
61540W        W29758   2.729  27.880  12.145
61541W        W29759  31.332  42.960  11.233
61542W        W29760  36.257  27.737   1.793
61543W        W29761  33.597   0.030  11.623
61544W        W29762  39.484  37.113   3.795
61545W        W29763  41.279  39.313   4.298
61546W        W29764  27.144   2.345   3.229
61547W        W29765  11.686   0.189   0.847
61548W        W29766   2.702  21.858   0.803
61549W        W29767  31.396  30.424  10.585
61550W        W29768  10.836  19.075  12.244
61551W        W29769   7.517  32.476   3.546
61552W        W29770  30.109  33.945  12.567
61553W        W29771  20.478  27.641  14.824
61554W        W29772  17.105   5.915  11.993
61555W        W29773  28.996  35.103  14.450
61556W        W29774  25.698  39.201   0.026
61557W        W29775  19.116   8.782   0.847
61558W        W29776   7.708   0.793  11.555
61559W        W29777  15.670  30.868   4.697
61560W        W29778  39.960  39.791  11.400
61561W        W29779  44.080  34.954   4.701
61562W        W29780  39.538  33.632  13.000
61563W        W29781  27.563   7.228   2.174
61564W        W29782  33.114   8.028  14.313
61565W        W29783  11.430   0.928  10.763
61566W        W29784  30.607  36.946   3.128
61567W        W29785  28.111   3.494   4.100
61568W        W29786   8.406  40.008  12.788
61569W        W29787  44.957  19.174  11.683
61570W        W29788  30.482  13.074   1.951
61571W        W29789  43.186  41.177   1.761
61572W        W29790  42.840  21.443   2.661
61573W        W29791  19.279  27.114   1.076
61574W        W29792  23.339  26.712   2.606
61575W        W29793  35.267  27.160   4.205
61576W        W29794   7.801   6.550   1.838
61577W        W29795  22.620  30.932  13.746
61578W        W29796  14.078  11.592  11.602
61579W        W29797  43.185  24.444   0.239
61580W        W29798  36.392  17.115  10.679
61581W        W29799  12.884  23.467  12.418
61582W        W29800  11.156   7.218  14.372
61583W        W29801  29.523  11.797   3.087
61584W        W29802  37.882   5.992   0.033
61585W        W29803   4.131   0.678   2.198
61586W        W29804   1.993  12.560   3.295
61587W        W29805  14.197  21.098  14.064
61588W        W29806  31.659   6.826  11.995
61589W        W29807   3.224  23.925  13.874
61590W        W29808  27.206  44.697  13.598
61591W        W29809  42.295  39.692  12.530
61592W        W29810  38.982  37.152  10.652
61593W        W29811  19.083   3.773   2.882
61594W        W29812  28.143  21.610   4.269
61595W        W29813  31.535   8.741   0.731
61596W        W29814   6.684  29.641   0.753
61597W        W29815  34.391  16.289  10.564
61598W        W29816  42.061  34.447   1.622
61599W        W29817  31.072   3.866  14.954
61600W        W29818  42.614   5.735  12.444
61601W        W29819  28.672  23.266  12.470
61602W        W29820  35.818  29.102  11.482
61603W        W29821  12.730  11.101   1.345
61604W        W29822  41.071  17.542   1.912
61605W        W29823  44.443  18.045  13.024
61606W        W29824  11.574   4.107   0.882
61607W        W29825  38.826   7.456   0.984
61608W        W29826   7.067   0.371  14.223
61609W        W29827  15.075  32.526   1.785
61610W        W29828   4.323  36.923   0.704
61611W        W29829  33.685  34.549  13.894
61612W        W29830  43.833  16.357   2.918
61613W        W29831  40.915  25.539  14.512
61614W        W29832  27.646  29.440  13.435
61615W        W29833  34.320  35.522   1.724
61616W        W29834  20.153   8.215   0.223
61617W        W29835  16.505  11.163  11.506
61618W        W29836  10.651  29.689  11.436
61619W        W29837  15.999   9.104   1.762
61620W        W29838   4.206  18.095   2.168
61621W        W29839  41.916  41.425  12.801
61622W        W29840  43.414  36.244  10.331
61623W        W29841  15.192  38.840  12.981
61624W        W29842  14.210  42.302   2.866
61625W        W29843  36.115  21.283  12.432
61626W        W29844  42.005  31.070  13.519
61627W        W29845  37.077   9.707  10.996
61628W        W29846   3.828  13.890   3.824
61629W        W29847  19.085  42.929  13.349
61630W        W29848  15.852  29.066  11.116
61631W        W29849  25.682   6.913  13.968
61632W        W29850  17.694  23.095   3.719
61633W        W29851  21.566  33.535   0.241
61634W        W29852  14.692   8.702  11.246
61635W        W29853  35.484  39.675  11.598
61636W        W29854   9.524  17.627  11.692
61637W        W29855  26.000  40.821  13.817
61638W        W29856  34.640   8.414   0.833
61639W        W29857  20.518   3.955   2.309
61640W        W29858  10.133  18.323   0.856
61641W        W29859  27.038  11.150  14.388
61642W        W29860  26.682  27.638  11.097
61643W        W29861   7.282   6.983  14.226
61644W        W29862   4.548  29.185  10.326
61645W        W29863   5.822  26.530  11.091
61646W        W29864  29.277  18.328  14.498
61647W        W29865  12.402  22.688   2.925
61648W        W29866  18.168  12.098   2.088
61649W        W29867  19.711  23.256  13.011
61650W        W29868  19.687  10.659   0.906
61651W        W29869  38.558  40.342  14.420
61652W        W29870  24.059  21.493   0.233
61653W        W29871  19.658  12.668   4.143
61654W        W29872  21.499   7.696  12.055
61655W        W29873   5.163  44.930  11.416
61656W        W29874  18.421  23.038   0.464
61657W        W29875  19.967   8.381   3.208
61658W        W29876   0.098   6.599  11.052
61659W        W29877   4.993  25.737  11.653
61660W        W29878   6.892  25.384  13.396
61661W        W29879  31.189  42.511  14.279
61662W        W29880   8.804  18.240  12.573
61663W        W29881  29.596   9.992  14.744
61664W        W29882  42.982  20.986   4.064
61665W        W29883  27.648  17.107   2.335
61666W        W29884  15.359   2.967   0.702
61667W        W29885  26.332   6.750  13.287
61668W        W29886  29.341  13.672   3.563
61669W        W29887  42.663  18.550   0.876
61670W        W29888   5.279  14.823   3.110
61671W        W29889  34.929  27.431  13.331
61672W        W29890   4.218  44.972   3.713
61673W        W29891   5.745  29.828   0.672
61674W        W29892  33.945  17.499  11.483
61675W        W29893  37.350  40.042   4.923
61676W        W29894   9.352   7.670  11.269
61677W        W29895  20.586  15.857   1.309
61678W        W29896  25.186  32.086   1.996
61679W        W29897   7.184   1.774   0.908
61680W        W29898  26.123  10.138   1.564
61681W        W29899   8.605  27.253  13.410
61682W        W29900  11.793  17.763  11.504
61683W        W29901   2.355  44.643  12.029
61684W        W29902  39.633  42.450  12.283
61685W        W29903   3.797  18.612   0.512
61686W        W29904  40.938  16.321   0.799
61687W        W29905  17.711  12.075   9.670
61688W        W29906  15.013  14.403   2.778
61689W        W29907  26.150  27.461  11.947
61690W        W29908  40.951   1.473   0.977
61691W        W29909  28.664  22.150   0.802
61692W        W29910  38.018   8.820   0.669
61693W        W29911  37.922  13.115   4.519
61694W        W29912  34.590  41.289  11.042
61695W        W29913  28.664  28.069   3.871
61696W        W29914  32.805   8.928   2.223
61697W        W29915  44.088   0.016   2.220
61698W        W29916  29.331  40.599  13.376
61699W        W29917   8.043  34.121   3.806
61700W        W29918  38.285   2.702  11.655
61701W        W29919  13.939  16.833   4.106
61702W        W29920  26.688  39.757   4.243
61703W        W29921  42.996  13.272  10.632
61704W        W29922  25.566   7.477  14.866
61705W        W29923  29.417  44.350   3.793
61706W        W29924  22.115  36.815   1.269
61707W        W29925  17.261  22.640  10.272
61708W        W29926  34.130  37.660   3.150
61709W        W29927  14.584  20.133   0.964
61710W        W29928  44.478   1.943   3.255
61711W        W29929   6.614  33.527   4.590
61712W        W29930  20.558  32.698   3.360
61713W        W29931  17.112   9.167  10.899
61714W        W29932  35.611  14.172  11.175
61715W        W29933  35.347  10.857   2.350
61716W        W29934   8.993  17.640   1.323
61717W        W29935  18.949  16.809  10.090
61718W        W29936  40.431   5.334   4.411
61719W        W29937   0.954  19.921  11.533
61720W        W29938   6.676   1.159  11.236
61721W        W29939  32.781  30.456   3.514
61722W        W29940  24.224   6.233  11.681
61723W        W29941  23.514  33.839  10.673
61724W        W29942  41.680   8.363  12.483
61725W        W29943  41.047  33.154  14.470
61726W        W29944  16.633  23.779  13.536
61727W        W29945  15.233   8.444  14.044
61728W        W29946  39.519   8.806  10.726
61729W        W29947  19.117   6.218  13.783
61730W        W29948  32.138  24.557   4.855
61731W        W29949  35.947  10.185  11.136
61732W        W29950  23.570  14.988  14.433
61733W        W29951  24.204  19.289  12.163
61734W        W29952  38.601  28.579  11.158
61735W        W29953  15.219  37.420   1.765
61736W        W29954   9.389  11.800  13.107
61737W        W29955  23.413  39.906  14.170
61738W        W29956  33.984  38.791   3.050
61739W        W29957  44.210  39.911  13.893
61740W        W29958  28.219  22.821   1.779
61741W        W29959  41.906   3.425  12.250
61742W        W29960  38.121  22.952   2.271
61743W        W29961  37.497  27.154  10.974
61744W        W29962   0.916  20.305   4.620
61745W        W29963  36.883  21.570  13.958
61746W        W29964  28.179  19.218   0.798
61747W        W29965  31.575   6.184   5.521
61748W        W29966  35.107  15.152   2.673
61749W        W29967   1.986   1.938   4.179
61750W        W29968   7.115  13.238  13.276
61751W        W29969   4.671  13.284  10.445
61752W        W29970  33.948   9.657  14.771
61753W        W29971  32.391  38.957  13.431
61754W        W29972   3.123  18.130  12.004
61755W        W29973   7.857  21.566   2.449
61756W        W29974  16.300  15.844  11.383
61757W        W29975  34.667  26.511  11.396
61758W        W29976   0.371  17.201  12.543
61759W        W29977  43.587  30.948  12.476
61760W        W29978   6.783  17.069   3.718
61761W        W29979   0.260   2.781  14.401
61762W        W29980  36.254   2.003   2.670
61763W        W29981  30.195  35.047   2.776
61764W        W29982  25.479   6.986   0.798
61765W        W29983  38.433  31.713  12.878
61766W        W29984  44.984   4.930   1.791
61767W        W29985  39.056  33.399  12.987
61768W        W29986  29.775  17.301   0.388
61769W        W29987  27.840  10.354  13.413
61770W        W29988  30.934  19.986   1.671
61771W        W29989  44.449   5.248  13.945
61772W        W29990   4.003  24.125  12.597
61773W        W29991   4.669  28.177   2.406
61774W        W29992   9.526   0.244  12.532
61775W        W29993  38.990  30.238  10.591
61776W        W29994  42.947   8.664   4.846
61777W        W29995  30.570  19.272  12.503
61778W        W29996  32.684  27.960  12.464
61779W        W29997  16.110  31.181   0.186
61780W        W29998   2.048  10.441   4.695
61781W        W29999  37.312  17.695  14.791
61782W        W30000  27.606  37.312  10.205
61783W        W30001  38.986  31.880   2.280
61784W        W30002  24.796  15.230   2.688
61785W        W30003   4.212  13.121   2.860
61786W        W30004  34.802  19.346   2.327
61787W        W30005  20.545   1.364   2.889
61788W        W30006   3.219   2.198   1.780
61789W        W30007  19.309  13.398  13.538
61790W        W30008   1.739   2.339   4.441
61791W        W30009  28.965  26.570   4.941
61792W        W30010  16.833  11.850   0.969
61793W        W30011  18.536  43.824  10.661
61794W        W30012  39.367  20.307   4.112
61795W        W30013   9.294  35.554   2.005
61796W        W30014   5.416  32.848  11.976
61797W        W30015  21.584  40.337  14.350
61798W        W30016  15.243  10.833   3.063
61799W        W30017   0.505   2.380   2.819
61800W        W30018   9.684  23.027   0.015
61801W        W30019  33.475  21.445   0.970
61802W        W30020  18.740  12.007  10.224
61803W        W30021  15.387  34.453  14.772
61804W        W30022  28.736  22.762   0.031
61805W        W30023  14.041  19.080   2.742
61806W        W30024   3.499  40.003  12.065
61807W        W30025  29.397  12.428   4.115
61808W        W30026   0.749   7.921   2.874
61809W        W30027  24.950  20.562  11.114
61810W        W30028  29.503  23.901  13.750
61811W        W30029  28.419  20.821   1.475
61812W        W30030  37.625   0.978  12.387
61813W        W30031  27.202  35.047  10.759
61814W        W30032  17.262  37.836  14.513
61815W        W30033  32.442  29.960  12.134
61816W        W30034  10.928  41.931  12.132
61817W        W30035  42.474  32.174  12.590
61818W        W30036  19.498   3.945  13.782
61819W        W30037   6.350  43.277   4.064
61820W        W30038   9.626  39.945   4.136
61821W        W30039  34.205  42.369  11.081
61822W        W30040  27.419   3.041  13.565
61823W        W30041  14.270  13.713   0.625
61824W        W30042  34.048  40.263  10.833
61825W        W30043   0.569   4.705   0.756
61826W        W30044  22.526  35.852   0.826
61827W        W30045  13.899  43.559  12.505
61828W        W30046   7.857  12.185  11.612
61829W        W30047  29.447  33.003   0.019
61830W        W30048  35.213  31.815  11.166
61831W        W30049  26.737  21.527   1.690
61832W        W30050  19.429   9.529  13.072
61833W        W30051  13.544  29.096  11.253
61834W        W30052  30.225  40.517   4.061
61835W        W30053  27.678  41.807   0.156
61836W        W30054  41.775   5.176   4.578
61837W        W30055  16.768  30.987  12.379
61838W        W30056  26.761  38.901  11.661
61839W        W30057  29.594  30.116   0.807
61840W        W30058  43.431  24.303   0.692
61841W        W30059  26.468   1.941   4.696
61842W        W30060  36.361  14.330   4.988
61843W        W30061  38.495  24.739  13.510
61844W        W30062  17.280  12.220   9.915
61845W        W30063  41.402  43.657  11.700
61846W        W30064  44.811  43.429  12.118
61847W        W30065  35.806  29.683   0.910
61848W        W30066  27.070  18.645   0.694
61849W        W30067  35.995   4.440  13.492
61850W        W30068  12.117  18.377   3.153
61851W        W30069  24.290   2.208  13.961
61852W        W30070  34.596  43.027   3.672
61853W        W30071  15.702  24.254   1.774
61854W        W30072   5.878   9.083  10.492
61855W        W30073  14.793  33.362  11.213
61856W        W30074  28.522  12.852   2.827
61857W        W30075  39.564   6.835   4.458
61858W        W30076  37.367  26.497   4.570
61859W        W30077  19.693  15.161  10.725
61860W        W30078  43.844  39.376  11.683
61861W        W30079   7.752  42.256   0.882
61862W        W30080  39.868   3.334  14.261
61863W        W30081  11.754   9.470  11.927
61864W        W30082  16.678  42.800  12.988
61865W        W30083  20.720   0.716   0.430
61866W        W30084  15.629  21.994  10.694
61867W        W30085  43.535   5.378  10.649
61868W        W30086  27.856  27.941   1.374
61869W        W30087   3.696   6.560  14.475
61870W        W30088  25.437   6.674  14.416
61871W        W30089  27.360  30.928   2.757
61872W        W30090  25.972  18.222  13.547
61873W        W30091   1.844  22.400   2.609
61874W        W30092  21.800  15.244   2.793
61875W        W30093  16.362  28.153  14.854
61876W        W30094  41.895  13.627   0.659
61877W        W30095  31.663  25.552   0.276
61878W        W30096  25.985   1.871   9.981
61879W        W30097  29.641  10.837  12.102
61880W        W30098  10.839  37.507  12.381
61881W        W30099   4.777  34.916  10.792
61882W        W30100  16.215   9.413  12.148
61883W        W30101  35.862  27.446   0.459
61884W        W30102  39.841   7.971  12.103
61885W        W30103  33.268   0.289  11.895
61886W        W30104  24.680  41.078  13.971
61887W        W30105   3.784  26.427  11.182
61888W        W30106  32.655  15.445   3.212
61889W        W30107   0.112  34.007  10.683
61890W        W30108  29.715  38.116  13.344
61891W        W30109  39.416  33.051  13.286
61892W        W30110  32.621   6.972  12.058
61893W        W30111  33.602  19.362  11.999
61894W        W30112  10.091  27.015  14.487
61895W        W30113  14.240  14.991  12.243
61896W        W30114  37.862  34.967  14.346
61897W        W30115  22.409  40.574   0.897
61898W        W30116  30.441  10.877  13.875
61899W        W30117  13.226  13.332  11.202
61900W        W30118  43.912  42.028  13.798
61901W        W30119  14.151  12.106   0.250
61902W        W30120   5.716  11.806  10.702
61903W        W30121  23.950  44.530  11.284
61904W        W30122  35.088  38.404  12.437
61905W        W30123  37.943  40.830   0.915
61906W        W30124  27.472   2.973   0.545
61907W        W30125  21.095   4.306   2.024
61908W        W30126  32.472   2.275   2.695
61909W        W30127   6.336  22.219   2.533
61910W        W30128  20.554  38.788   1.998
61911W        W30129  16.131  23.736  13.807
61912W        W30130  27.536   8.883  14.870
61913W        W30131  33.103   9.235   2.539
61914W        W30132  40.339  26.754  10.590
61915W        W30133   9.188   8.751   4.101
61916W        W30134  14.143  29.462   3.184
61917W        W30135   3.993  31.427   3.291
61918W        W30136  24.715  15.731  11.537
61919W        W30137  17.347   7.925   0.573
61920W        W30138  33.538  25.595   2.303
61921W        W30139  24.048   4.203   4.563
61922W        W30140  25.992  19.413   1.167
61923W        W30141  41.294   8.906  12.510
61924W        W30142   4.392  19.711   1.118
61925W        W30143   0.136  18.568   4.008
61926W        W30144   8.279  43.021  14.843
61927W        W30145   9.371  24.563  10.643
61928W        W30146  26.058  21.797  10.298
61929W        W30147  29.867  36.438   1.001
61930W        W30148  15.358  37.007   0.295
61931W        W30149  33.907  25.290  13.580
61932W        W30150  35.789  12.602  11.648
61933W        W30151  21.783  32.880  11.968
61934W        W30152  13.958  34.121  11.924
61935W        W30153   3.348  28.034   1.885
61936W        W30154   3.936  13.587  13.870
61937W        W30155  22.958   8.443  14.947
61938W        W30156  17.713   1.080   9.794
61939W        W30157  37.494  34.904   0.863
61940W        W30158   8.693  36.208  13.031
61941W        W30159   9.629   8.185   2.651
61942W        W30160  36.692  28.454   0.513
61943W        W30161  22.976  14.134   4.159
61944W        W30162  17.176  33.122  10.290
61945W        W30163  26.359   8.418   2.462
61946W        W30164   3.053  10.855  14.853
61947W        W30165   8.894   3.732  11.001
61948W        W30166   3.422   4.319  12.048
61949W        W30167  27.956  35.483  13.894
61950W        W30168  40.964  16.055  12.024
61951W        W30169  29.654  30.908   2.358
61952W        W30170  32.588  36.470  11.508
61953W        W30171  14.666  17.253   3.660
61954W        W30172   1.969  43.005  11.421
61955W        W30173  38.333  44.540  11.164
61956W        W30174  27.539  41.097   0.881
61957W        W30175   9.371   3.847  12.043
61958W        W30176   0.805  26.526  10.680
61959W        W30177  44.717  40.992  14.683
61960W        W30178  19.583  21.375  11.545
61961W        W30179   0.383   4.421   1.155
61962W        W30180  43.344  16.287   4.636
61963W        W30181  29.568   5.011   4.070
61964W        W30182  26.390  21.926   1.833
61965W        W30183  44.699  13.755   4.233
61966W        W30184  35.398  40.981   1.716
61967W        W30185   4.510   9.611  13.450
61968W        W30186   1.993  29.625  14.310
61969W        W30187  14.387  10.156   4.394
61970W        W30188  13.786  28.080   3.103
61971W        W30189  25.207  24.385  11.572
61972W        W30190  14.251  14.346   1.819
61973W        W30191  17.758   5.932  13.928
61974W        W30192  19.601  22.218   4.270
61975W        W30193  40.864  34.353   2.216
61976W        W30194   3.144  33.030   2.217
61977W        W30195  23.728  27.988  13.843
61978W        W30196  16.981  35.315   3.679
61979W        W30197  19.766  12.603  10.422
61980W        W30198   1.680  38.380  13.389
61981W        W30199   4.308  35.630   3.640
61982W        W30200  31.609   0.178  11.391
61983W        W30201  37.108   1.592  10.260
61984W        W30202  18.122   2.665  13.097
61985W        W30203  25.118  37.893   2.440
61986W        W30204  32.541  13.869   1.407
61987W        W30205  44.098   4.276   0.793
61988W        W30206  13.374  23.616   2.833
61989W        W30207   3.844  30.333   1.919
61990W        W30208  33.138   2.524   1.475
61991W        W30209  44.861   4.221   4.353
61992W        W30210   8.394  43.739   1.446
61993W        W30211   1.998  16.779   3.254
61994W        W30212  32.457  19.954   3.138
61995W        W30213  23.347  11.899  14.476
61996W        W30214  31.628  33.861  11.071
61997W        W30215  29.986  43.303  13.564
61998W        W30216   3.216  27.555   1.739
61999W        W30217  20.828  41.520  12.881
62000W        W30218   7.472  36.938  14.124
62001W        W30219   4.257   8.800  13.051
62002W        W30220   4.411  24.302   4.207
62003W        W30221  35.246   7.918  11.132
62004W        W30222  30.477   4.931   3.114
62005W        W30223  21.258   4.190  11.073
62006W        W30224  12.511  24.317   1.284
62007W        W30225  16.867  35.388   0.926
62008W        W30226  39.986   4.809   2.100
62009W        W30227  29.758  33.439  14.982
62010W        W30228  12.862  38.023  14.111
62011W        W30229  39.816  29.391   3.156
62012W        W30230  39.915  35.025   3.280
62013W        W30231  39.956   4.352  13.326
62014W        W30232  37.750  31.879   2.788
62015W        W30233   2.824  44.727   2.186
62016W        W30234  43.824  21.576  11.335
62017W        W30235  18.751  19.503  10.672
62018W        W30236   0.916   1.508   2.240
62019W        W30237  29.572  11.882  11.231
62020W        W30238   5.945  10.896  14.501
62021W        W30239  12.860   3.316   0.218
62022W        W30240   9.395  26.627  12.523
62023W        W30241   5.168  14.734  10.587
62024W        W30242  17.190   9.191  14.248
62025W        W30243  37.325  36.914   3.281
62026W        W30244   5.686  21.414   3.198
62027W        W30245  44.902  10.825   3.056
62028W        W30246  26.473  26.642  14.638
62029W        W30247  36.371  29.680  11.164
62030W        W30248  39.869  34.880   4.309
62031W        W30249   6.520  32.462  12.530
62032W        W30250  24.553  19.229   2.759
62033W        W30251   8.447   2.898  13.415
62034W        W30252  10.745  39.964   3.348
62035W        W30253  20.485  22.520  11.027
62036W        W30254  38.960   0.494   4.113
62037W        W30255   5.532  28.608  12.932
62038W        W30256  27.247  14.099  14.036
62039W        W30257  18.510   2.752  11.080
62040W        W30258  41.223  39.512   4.775
62041W        W30259  41.764   3.948  13.941
62042W        W30260  12.725   3.863  14.942
62043W        W30261  19.142  16.241   4.054
62044W        W30262   9.271  41.518   2.950
62045W        W30263  23.152  36.809   1.411
62046W        W30264   8.593  19.107  12.054
62047W        W30265   3.677  26.533   5.099
62048W        W30266  21.002  35.455   5.426
62049W        W30267   2.803  14.882  14.128
62050W        W30268   1.846  28.966  12.588
62051W        W30269  11.604  20.072   2.244
62052W        W30270  29.257  32.614  11.657
62053W        W30271  41.242   0.958   3.128
62054W        W30272  10.327  40.878   4.616
62055W        W30273  24.686  43.658  11.631
62056W        W30274   0.908  44.036   9.584
62057W        W30275  27.305  17.793   4.643
62058W        W30276  34.285  23.588  12.929
62059W        W30277  41.813  11.837   3.400
62060W        W30278   0.306  34.598  11.162
62061W        W30279  12.363  27.758   1.910
62062W        W30280  13.665  39.292   3.844
62063W        W30281  26.590  37.418   4.516
62064W        W30282   0.525  24.229  11.116
62065W        W30283  34.399   9.226   4.519
62066W        W30284  14.081  35.558   4.619
62067W        W30285   5.146   9.824  12.450
62068W        W30286   8.905  12.577   3.672
62069W        W30287  17.856   2.917  11.680
62070W        W30288  25.776  20.696   0.524
62071W        W30289  10.440  12.801  11.077
62072W        W30290  17.312  30.652   3.619
62073W        W30291  32.653  20.690   3.806
62074W        W30292   3.892  40.053  10.017
62075W        W30293  28.162  41.238  10.297
62076W        W30294   6.220   8.284  13.796
62077W        W30295  29.339  24.124  10.263
62078W        W30296   1.001  14.251  11.262
62079W        W30297  21.858  31.353   4.251
62080W        W30298   3.882  11.117  12.465
62081W        W30299  20.643  28.007  12.495
62082W        W30300  32.693  35.190  11.666
62083W        W30301  40.782   9.203  11.183
62084W        W30302   7.874   1.372   3.356
62085W        W30303   6.660  27.951   1.270
62086W        W30304  22.602  31.874   1.819
62087W        W30305  43.626  41.647  11.103
62088W        W30306  43.440  29.754   4.229
62089W        W30307  34.975  24.771   2.859
62090W        W30308  19.774   1.342  13.160
62091W        W30309   6.835  43.605  12.975
62092W        W30310  30.943  10.725  12.908
62093W        W30311  13.590  44.830   1.882
62094W        W30312  18.324   6.271   4.527
62095W        W30313  26.561  43.594  12.909
62096W        W30314   0.991  41.698  13.400
62097W        W30315  38.854  11.677   2.386
62098W        W30316   9.816  35.488   0.790
62099W        W30317  30.766   4.104   4.215
62100W        W30318  35.891   2.965  14.446
62101W        W30319   0.327   1.974  10.607
62102W        W30320  43.535  32.169   4.669
62103W        W30321   4.529   4.514   1.991
62104W        W30322  11.174  19.894  14.313
62105W        W30323  18.051  42.715  12.414
62106W        W30324  30.944  15.892  13.338
62107W        W30325  39.031   4.976   0.790
62108W        W30326  39.375  29.614   1.284
62109W        W30327  44.514  13.089  11.623
62110W        W30328  44.205  23.461   2.794
62111W        W30329  10.562  17.793  14.688
62112W        W30330  19.499  13.524   1.559
62113W        W30331  16.875   6.873   1.947
62114W        W30332  24.755   4.207   2.283
62115W        W30333  35.495   6.386  11.490
62116W        W30334  15.225   6.968   2.276
62117W        W30335  40.546  42.920  14.214
62118W        W30336  28.636  17.591   1.735
62119W        W30337   1.883  11.344  13.776
62120W        W30338  43.024  31.167  14.211
62121W        W30339  14.675   8.870   4.266
62122W        W30340  19.775  40.057   4.306
62123W        W30341   8.635   4.454  11.613
62124W        W30342   5.841  18.738   3.773
62125W        W30343  24.039  17.262  14.540
62126W        W30344  39.228   8.553  11.094
62127W        W30345  30.138  18.160  10.580
62128W        W30346  36.820  25.366  12.195
62129W        W30347   3.320  30.192   0.722
62130W        W30348   9.247  23.178  13.583
62131W        W30349   4.726  10.830   4.506
62132W        W30350  41.250  44.448   0.872
62133W        W30351  14.890   2.165   3.364
62134W        W30352   5.300  20.275   1.200
62135W        W30353  10.026  43.951  14.744
62136W        W30354   3.433  41.687   2.806
62137W        W30355  13.908  31.189  13.939
62138W        W30356  17.127  34.920  12.383
62139W        W30357   5.274  27.947  11.468
62140W        W30358   4.280  39.791  10.254
62141W        W30359  43.871  21.609  11.839
62142W        W30360   6.216  27.514   3.828
62143W        W30361  18.251   7.835   0.682
62144W        W30362  23.194   9.670  12.412
62145W        W30363  11.217  40.843   0.933
62146W        W30364  34.341   7.748  12.692
62147W        W30365  21.052  44.178   2.854
62148W        W30366   7.258  24.118  14.043
62149W        W30367  36.613  39.467  12.449
62150W        W30368  22.148   1.667  14.300
62151W        W30369  12.261  43.224   3.446
62152W        W30370   0.242   0.764   2.266
62153W        W30371  42.970  11.813  10.823
62154W        W30372  34.598  36.325   3.320
62155W        W30373  11.386  20.593  10.787
62156W        W30374  34.084  34.607   2.873
62157W        W30375  26.086   1.058  13.330
62158W        W30376  25.147  25.014  10.734
62159W        W30377  23.820  20.706   1.721
62160W        W30378   7.269  34.519   3.333
62161W        W30379   4.640  43.387   0.505
62162W        W30380  12.705  31.933   1.685
62163W        W30381   8.833  19.140   4.617
62164W        W30382  25.968  29.854  11.591
62165W        W30383  35.386   0.450   0.753
62166W        W30384  42.060  22.025   4.570
62167W        W30385  25.506  33.384  12.924
62168W        W30386  24.170  42.761   2.715
62169W        W30387  24.214  21.962   3.671
62170W        W30388  12.339  42.257  14.105
62171W        W30389  41.068  43.031  14.953
62172W        W30390  26.020  32.451  13.534
62173W        W30391  36.394  12.826   4.105
62174W        W30392  14.373   2.710  13.729
62175W        W30393  30.158   5.433   0.942
62176W        W30394  12.649  21.996   4.148
62177W        W30395  37.909   7.152  10.569
62178W        W30396  30.491  40.707  11.035
62179W        W30397  13.491  17.922  13.224
62180W        W30398  32.746  25.396   3.783
62181W        W30399   7.485  41.396   3.682
62182W        W30400  30.155  39.313   2.840
62183W        W30401   4.168  15.840   3.330
62184W        W30402  28.781   1.350  13.479
62185W        W30403  16.864  27.127   4.110
62186W        W30404  39.382  12.240  11.408
62187W        W30405  34.608  43.787   3.216
62188W        W30406   0.842  32.931   0.736
62189W        W30407  28.208  19.332  12.343
62190W        W30408   2.633  10.899   1.610
62191W        W30409  14.613   7.891   4.765
62192W        W30410   3.830  16.314  14.910
62193W        W30411  41.373   0.275   3.706
62194W        W30412  19.039  18.302  10.688
62195W        W30413  15.166  24.264   2.342
62196W        W30414   2.742  31.512   1.941
62197W        W30415  32.047  23.743   4.248
62198W        W30416  38.454  43.974  11.951
62199W        W30417  35.128  26.017  12.911
62200W        W30418   0.962   4.455   0.468
62201W        W30419  24.622  27.093  11.652
62202W        W30420  34.373  38.322  12.023
62203W        W30421  17.072   6.604  12.430
62204W        W30422   6.974   3.249   1.272
62205W        W30423  12.397  16.269   0.487
62206W        W30424  11.257   2.769  12.701
62207W        W30425  22.507  20.749  12.390
62208W        W30426  16.381  29.514  10.566
62209W        W30427  23.458  19.052   0.418
62210W        W30428  19.381  44.606   0.903
62211W        W30429   9.295  16.033   0.038
62212W        W30430  23.681  26.777   3.654
62213W        W30431  40.231  44.901   4.166
62214W        W30432  19.027   1.333  12.379
62215W        W30433   5.595  26.444  13.985
62216W        W30434  19.759  35.934   1.845
62217W        W30435   6.830  20.175   1.541
62218W        W30436  37.246  41.525   0.718
62219W        W30437   5.686  29.407   4.546
62220W        W30438  15.829  17.470  12.073
62221W        W30439  11.331  10.191  11.437
62222W        W30440  33.678  30.883   4.452
62223W        W30441  27.812  26.425  13.897
62224W        W30442  36.453  30.469   3.224
62225W        W30443  17.729  41.802  10.597
62226W        W30444  44.831  34.058  14.323
62227W        W30445  27.087  31.191  12.444
62228W        W30446  26.635  15.593  14.267
62229W        W30447  21.775  37.314  13.549
62230W        W30448   7.826  33.825   1.395
62231W        W30449   6.758  12.800   4.328
62232W        W30450   6.496  43.399   2.757
62233W        W30451  11.338  29.573   3.792
62234W        W30452  40.069  37.823   1.891
62235W        W30453   9.285  42.922  11.029
62236W        W30454  31.518  14.544  10.652
62237W        W30455  31.408  30.652   4.139
62238W        W30456  42.942  30.932   3.148
62239W        W30457  10.845   4.861   0.869
62240W        W30458   9.271  13.695   3.121
62241W        W30459  13.356  17.552   4.081
62242W        W30460  18.762   3.499   1.650
62243W        W30461   2.030  29.790   2.775
62244W        W30462   4.687  37.180  12.455
62245W        W30463   1.978   2.949  14.442
62246W        W30464  32.803  15.112  10.477
62247W        W30465   8.384  12.616   3.563
62248W        W30466   3.782  17.555   3.532
62249W        W30467  24.039  41.791   4.639
62250W        W30468  38.452  18.701  12.092
62251W        W30469  15.190  23.281   1.190
62252W        W30470  29.092   1.092  14.458
62253W        W30471   1.896  19.715  10.676
62254W        W30472  13.606  13.878  10.714
62255W        W30473  25.202  24.251  14.016
62256W        W30474  31.426  12.730  14.230
62257W        W30475   9.471   8.391   3.121
62258W        W30476  44.168  36.585   2.269
62259W        W30477  17.481  42.693   2.080
62260W        W30478  30.655  23.712   4.367
62261W        W30479   7.803  14.281  10.300
62262W        W30480  35.019   2.279  10.614
62263W        W30481   5.684  21.351   1.515
62264W        W30482  44.007   2.729  14.383
62265W        W30483   4.671   6.180   1.341
62266W        W30484  35.457  40.915  13.463
62267W        W30485  40.027  43.866   4.909
62268W        W30486  17.012   7.554  10.208
62269W        W30487  41.817  10.726   3.085
62270W        W30488  24.878  26.426  10.525
62271W        W30489  27.932  19.935   5.006
62272W        W30490   5.909  29.566   1.175
62273W        W30491  29.646  42.353  14.496
62274W        W30492  32.209  36.843   4.075
62275W        W30493  27.111   8.909  13.642
62276W        W30494  10.108  15.154   3.393
62277W        W30495  27.507  16.029  13.452
62278W        W30496  20.808  36.042   1.697
62279W        W30497   9.370  44.473   0.391
62280W        W30498  36.553  42.251   4.846
62281W        W30499   8.014  34.613  12.539
62282W        W30500   4.984  28.474   3.960
62283W        W30501  43.072  37.564   3.308
62284W        W30502  36.526   3.723  10.687
62285W        W30503  43.280  41.851  12.371
62286W        W30504  33.427   1.608   3.028
62287W        W30505  15.230   0.976   3.699
62288W        W30506  11.736   5.963   4.616
62289W        W30507  34.030   0.847  11.429
62290W        W30508  34.053  21.768  14.693
62291W        W30509  35.828   4.223  13.018
62292W        W30510  31.363  15.537  10.846
62293W        W30511  43.222  23.764   3.139
62294W        W30512   6.911  31.939  13.387
62295W        W30513   4.381  21.832  14.369
62296W        W30514  17.361   4.197  13.388
62297W        W30515  37.007  13.665   3.412
62298W        W30516  23.060  18.275  13.814
62299W        W30517  36.004  24.561   4.321
62300W        W30518  30.858  44.987  12.925
62301W        W30519  23.711  16.555   3.352
62302W        W30520  23.663  21.008   4.088
62303W        W30521   8.961  39.941  11.043
62304W        W30522  26.541  36.503   2.919
62305W        W30523  18.719  19.627  10.162
62306W        W30524  16.780  44.021  13.476
62307W        W30525  29.002  42.363  14.532
62308W        W30526  21.512  15.861   1.272
62309W        W30527  43.950  29.386   2.282
62310W        W30528  39.391  30.151   2.206
62311W        W30529   7.916  33.458  13.200
62312W        W30530  39.601  34.573  12.343
62313W        W30531  27.463   6.718  12.298
62314W        W30532  27.010  24.502  12.198
62315W        W30533  36.026  24.081  12.551
62316W        W30534   3.741  32.179  13.807
62317W        W30535   8.870  11.033   3.009
62318W        W30536  30.315   7.798   3.153
62319W        W30537  14.812  42.758  11.429
62320W        W30538  30.520  11.983   3.036
62321W        W30539   7.735  34.078   1.843
62322W        W30540  40.893  42.666   1.476
62323W        W30541  18.624  27.722   1.783
62324W        W30542   3.445  37.755   2.398
62325W        W30543  22.125   6.126   4.003
62326W        W30544  23.129  34.997  11.158
62327W        W30545   3.914   5.353  12.866
62328W        W30546   1.884   7.240  13.756
62329W        W30547  29.592  22.122  11.211
62330W        W30548   9.187  28.547   1.255
62331W        W30549  15.790   3.793  12.459
62332W        W30550  32.988   2.537  10.517
62333W        W30551  28.241  30.519   1.236
62334W        W30552  15.585  40.879   4.345
62335W        W30553  13.773  31.080   3.731
62336W        W30554  31.587  43.384   0.501
62337W        W30555  44.206  29.907  12.029
62338W        W30556  35.078  12.326   2.862
62339W        W30557  13.310  40.809   2.489
62340W        W30558  11.663  19.720  14.480
62341W        W30559  23.564  36.590  13.660
62342W        W30560  24.611  30.900   0.123
62343W        W30561   0.378  16.179  14.026
62344W        W30562   9.474  19.686   3.618
62345W        W30563  11.271  11.493  13.846
62346W        W30564   3.968  33.400  13.422
62347W        W30565  29.525  42.011  14.888
62348W        W30566  41.553  27.277   2.799
62349W        W30567  30.401   2.368   4.152
62350W        W30568  34.000  26.404   5.062
62351W        W30569  12.084  15.359   3.749
62352W        W30570  13.360  22.330  14.015
62353W        W30571  31.138  10.882   2.838
62354W        W30572   8.951   6.907  11.062
62355W        W30573  35.876  28.506   0.885
62356W        W30574   5.100  43.271  13.410
62357W        W30575  28.025  39.575  11.562
62358W        W30576  10.390  12.158  14.419
62359W        W30577  20.284  20.699  10.693
62360W        W30578  13.375  22.476   4.048
62361W        W30579   9.799  22.272   1.290
62362W        W30580  32.717  23.781   4.832
62363W        W30581  11.256  25.866  14.000
62364W        W30582  14.374   4.302   4.138
62365W        W30583   2.893  21.260   1.756
62366W        W30584  34.854  19.738   0.183
62367W        W30585  23.593  34.160   0.830
62368W        W30586  26.800  26.123   4.551
62369W        W30587  12.781  35.437  11.014
62370W        W30588  24.399   3.275  11.579
62371W        W30589  24.168  20.688  11.923
62372W        W30590   8.370   1.329   4.568
62373W        W30591  18.266  31.927  14.039
62374W        W30592  31.848  25.622   0.820
62375W        W30593  18.693  33.677  14.797
62376W        W30594  42.780  28.989  14.778
62377W        W30595  41.729  16.501   4.083
62378W        W30596  20.978  19.635   3.472
62379W        W30597  12.565  39.317   1.898
62380W        W30598  17.588  11.785  14.898
62381W        W30599  42.726  34.804   2.224
62382W        W30600  43.008  22.964  10.939
62383W        W30601  18.835   4.526   1.874
62384W        W30602   1.448  40.493  11.838
62385W        W30603  43.933  18.807   1.845
62386W        W30604  29.171  27.672  13.761
62387W        W30605  37.262   9.017   2.765
62388W        W30606  15.101  36.520  12.188
62389W        W30607  23.118  28.670   2.816
62390W        W30608  30.736   8.414  10.863
62391W        W30609  38.347  40.506   0.977
62392W        W30610  33.880   5.855   0.010
62393W        W30611  29.133  20.141  11.923
62394W        W30612  27.618  13.710  13.992
62395W        W30613  15.821  39.910  12.040
62396W        W30614  33.100  14.758  14.849
62397W        W30615  38.007  26.278  12.916
62398W        W30616   1.508  29.637   4.563
62399W        W30617   5.785   0.792  10.409
62400W        W30618  31.491  17.621   3.700
62401W        W30619  31.636  32.453   4.781
62402W        W30620   9.043  22.511   1.881
62403W        W30621  42.457  16.294   0.778
62404W        W30622   3.381  13.279  12.413
62405W        W30623  13.606  16.673   0.029
62406W        W30624  17.099  31.203   0.464
62407W        W30625  37.937  36.444   0.809
62408W        W30626  14.124  21.739  11.887
62409W        W30627  17.699   4.166   0.751
62410W        W30628  25.170  25.669  13.807
62411W        W30629  34.030  14.035  11.944
62412W        W30630  32.092   7.901   0.598
62413W        W30631  10.239   4.195  12.514
62414W        W30632  28.009  43.054   3.077
62415W        W30633  30.271   0.919   0.451
62416W        W30634  44.655  11.069   2.600
62417W        W30635  37.556  28.146   4.656
62418W        W30636  24.781  38.794   0.768
62419W        W30637  43.921  34.733   0.693
62420W        W30638  11.631   9.184   2.183
62421W        W30639   3.010   1.723  12.908
62422W        W30640   9.974   5.730  13.148
62423W        W30641  31.927  33.109  10.696
62424W        W30642  11.370   0.905   0.778
62425W        W30643  27.361  14.012   0.834
62426W        W30644  27.476  42.593   1.313
62427W        W30645   2.707  11.031   4.497
62428W        W30646  32.194  39.785   3.277
62429W        W30647  40.725  40.314   0.497
62430W        W30648  27.944  33.314   4.532
62431W        W30649   9.676  11.999   3.132
62432W        W30650  23.976  32.702   0.927
62433W        W30651  32.316  34.074  12.125
62434W        W30652  30.643  22.868   3.595
62435W        W30653  26.015   3.035  13.400
62436W        W30654  19.781  36.063   4.178
62437W        W30655  16.936  24.565  14.480
62438W        W30656  20.790  24.015  12.439
62439W        W30657  28.508  41.728  14.944
62440W        W30658  20.978   5.167   4.178
62441W        W30659  30.243  29.674  12.358
62442W        W30660  22.440  10.260  14.065
62443W        W30661  14.292  30.002  10.961
62444W        W30662  26.959  28.690  13.272
62445W        W30663   7.009  31.981  11.581
62446W        W30664   0.792  29.679  14.189
62447W        W30665  41.507  11.935   2.552
62448W        W30666  39.751  35.155   1.921
62449W        W30667  36.165  13.250  11.186
62450W        W30668  35.118  44.019   2.286
62451W        W30669  37.425   3.800  11.020
62452W        W30670  20.924   7.953   4.997
62453W        W30671   1.034  30.668   0.111
62454W        W30672  33.368  35.645   1.377
62455W        W30673  38.980  15.233   1.414
62456W        W30674  28.264   3.857  12.011
62457W        W30675  29.088   2.998  13.783
62458W        W30676  24.057  32.637   3.773
62459W        W30677  36.295  22.586  14.698
62460W        W30678   1.346   4.509  12.352
62461W        W30679   7.911  13.271  12.386
62462W        W30680   2.693  41.578   0.854
62463W        W30681  29.295  31.418  11.127
62464W        W30682  31.926  19.082   1.822
62465W        W30683  11.103   5.738  12.111
62466W        W30684  22.148  13.588  12.686
62467W        W30685  15.801  19.839  10.657
62468W        W30686   2.388  39.946  12.717
62469W        W30687   5.370  44.603   4.544
62470W        W30688  21.949  19.764  14.407
62471W        W30689  27.519  23.912  13.969
62472W        W30690  29.924  42.868  12.354
62473W        W30691   4.202   2.512  14.607
62474W        W30692  28.029  37.452   3.296
62475W        W30693  36.071  31.009   4.769
62476W        W30694  15.570  34.690  11.181
62477W        W30695  28.394  28.667  13.487
62478W        W30696   5.789  31.627   3.204
62479W        W30697  32.461   0.134  11.128
62480W        W30698  17.136  33.549  10.562
62481W        W30699  42.928   2.265   0.551
62482W        W30700  28.859  14.555  13.686
62483W        W30701  37.462  10.558   0.744
62484W        W30702   3.454  30.935   4.096
62485W        W30703  13.749  27.707  13.031
62486W        W30704  33.596  22.992   1.831
62487W        W30705   5.398  37.463  10.685
62488W        W30706  18.070  24.476  11.096
62489W        W30707  31.328  11.680  14.434
62490W        W30708  20.348   7.357   0.948
62491W        W30709  37.622  13.682  10.479
62492W        W30710  33.492  17.781  11.375
62493W        W30711   1.022  29.956  13.481
62494W        W30712   5.373  36.817   4.137
62495W        W30713   0.357  43.823  13.561
62496W        W30714  33.520  30.121   1.429
62497W        W30715   1.265  25.231   4.767
62498W        W30716  35.947  43.041   1.760
62499W        W30717   2.133  13.097  14.329
62500W        W30718  15.356   1.282   1.699
62501W        W30719  27.147  27.175   2.766
62502W        W30720  11.343   5.815   1.239
62503W        W30721  14.409  41.545  10.767
62504W        W30722  42.743   5.711  10.656
62505W        W30723  37.113  28.042  11.645
62506W        W30724  16.199  35.092   4.178
62507W        W30725  35.964  37.809  14.747
62508W        W30726  33.345  14.827   0.313
62509W        W30727  29.309   0.491   1.387
62510W        W30728  15.866  10.767  14.818
62511W        W30729   4.135  29.361   0.243
62512W        W30730   0.925  17.976  10.902
62513W        W30731  44.027  43.824  10.986
62514W        W30732  22.697  11.668  11.546
62515W        W30733   9.361  20.096   1.754
62516W        W30734  13.548   2.475  13.425
62517W        W30735  20.187   2.984   0.290
62518W        W30736  29.674   4.290  14.881
62519W        W30737  21.004   9.101   1.431
62520W        W30738  16.747  39.818  13.009
62521W        W30739   7.669  14.460  11.579
62522W        W30740   0.830   8.809  13.843
62523W        W30741  42.385   8.921  13.735
62524W        W30742  17.146  22.090   2.891
62525W        W30743  12.740  44.333  13.614
62526W        W30744  28.015  40.015  12.678
62527W        W30745   4.296  19.283  11.611
62528W        W30746  25.577  15.747   3.381
62529W        W30747  14.644   6.320  12.099
62530W        W30748  38.229  14.918  13.443
62531W        W30749   6.332  11.146   1.698
62532W        W30750  31.302  38.107  11.510
62533W        W30751  28.441   2.784  10.655
62534W        W30752  41.436  33.976  12.937
62535W        W30753  29.556   0.921   1.171
62536W        W30754  34.392  33.097   1.673
62537W        W30755  12.665  10.279   2.664
62538W        W30756  19.128  44.304  13.532
62539W        W30757  10.644  34.679  12.474
62540W        W30758  35.093  11.778  11.560
62541W        W30759  19.838  25.000  14.309
62542W        W30760  19.419  25.395  11.350
62543W        W30761  15.104   9.540  11.249
62544W        W30762  26.032  16.682  13.794
62545W        W30763  15.290  18.209   4.112
62546W        W30764   6.254  26.079  10.811
62547W        W30765  30.986  17.236  13.122
62548W        W30766  43.685  20.333  11.239
62549W        W30767  43.073  22.203  13.030
62550W        W30768  36.453  27.132   3.314
62551W        W30769  41.887  15.927  11.878
62552W        W30770  39.521  27.171  12.419
62553W        W30771   8.722  20.713   1.931
62554W        W30772  31.458   9.983  14.851
62555W        W30773  42.843  41.088   1.020
62556W        W30774   6.586  15.128   3.628
62557W        W30775  24.536  37.815  13.036
62558W        W30776  29.217  38.752  11.512
62559W        W30777  40.802  41.917   3.989
62560W        W30778  35.856  14.611  11.177
62561W        W30779   1.839  33.445  11.342
62562W        W30780  11.401  31.524   2.930
62563W        W30781  27.193   6.875   4.868
62564W        W30782   7.277   5.362  13.436
62565W        W30783   0.307  11.860  12.610
62566W        W30784  40.763   6.037  13.313
62567W        W30785  33.164  24.050   1.227
62568W        W30786  35.362   9.204  13.636
62569W        W30787  33.153  44.789  11.742
62570W        W30788  11.217   1.518  14.139
62571W        W30789  13.396  32.610   3.228
62572W        W30790  22.048  38.796   0.349
62573W        W30791  38.703  44.581   5.309
62574W        W30792   7.816   4.479   2.770
62575W        W30793  26.494   4.265   4.254
62576W        W30794  33.213  21.967  13.941
62577W        W30795  34.840  16.677   0.735
62578W        W30796  34.125   7.992  10.528
62579W        W30797   0.555  22.360   1.020
62580W        W30798  21.756   8.191  13.425
62581W        W30799  23.027  25.234  14.534
62582W        W30800  11.894  39.364   3.296
62583W        W30801  42.305  44.963  12.976
62584W        W30802  15.097  17.533   3.641
62585W        W30803  29.385   7.225   1.372
62586W        W30804   7.286  18.631  13.487
62587W        W30805  20.397   6.152   2.326
62588W        W30806   6.050  29.432  11.931
62589W        W30807   4.209  17.688  14.411
62590W        W30808  32.630  41.972   3.864
62591W        W30809  35.691  19.113   1.776
62592W        W30810  19.462  37.170  12.525
62593W        W30811  35.517  41.438   2.894
62594W        W30812  19.243   1.161   3.203
62595W        W30813   6.007  27.436  12.007
62596W        W30814  31.387  43.011  14.350
62597W        W30815  33.135   7.822  13.323
62598W        W30816  23.708   3.744  10.491
62599W        W30817  40.415  12.200   0.708
62600W        W30818  35.082  44.461  11.912
62601W        W30819   9.947  41.897  14.371
62602W        W30820  14.684  22.825  12.793
62603W        W30821  27.081  22.700  13.968
62604W        W30822  42.278  18.593   3.089
62605W        W30823  15.895  39.067  13.539
62606W        W30824  10.369  16.235  14.946
62607W        W30825  13.287  17.765  14.480
62608W        W30826  17.202  11.323  14.798
62609W        W30827  33.851  25.211  14.652
62610W        W30828   3.275  23.716   0.425
62611W        W30829  37.808  10.355   0.422
62612W        W30830  17.862   1.274   3.159
62613W        W30831   4.728   7.449   3.037
62614W        W30832   8.872  29.562  12.207
62615W        W30833  30.722  35.494   0.989
62616W        W30834  18.218  21.656   0.699
62617W        W30835   7.238  37.364  11.002
62618W        W30836  43.076  17.758  10.716
62619W        W30837  29.391  21.277   4.565
62620W        W30838  40.352  17.064  14.233
62621W        W30839  11.878  33.418  14.399
62622W        W30840  41.543  32.885  13.788
62623W        W30841   4.295  29.503  10.694
62624W        W30842  37.908  17.671  13.908
62625W        W30843  12.600  28.448   1.380
62626W        W30844  14.029   2.680  11.645
62627W        W30845  20.844  21.244  11.807
62628W        W30846  14.526   0.506  14.945
62629W        W30847  27.878  21.102   4.239
62630W        W30848  14.184  26.677  10.486
62631W        W30849  18.885  18.638   0.721
62632W        W30850   1.329  19.308  13.001
62633W        W30851  43.913  44.211  14.398
62634W        W30852   9.411  43.053   0.515
62635W        W30853   5.768  15.194  12.910
62636W        W30854  21.599  26.093   1.764
62637W        W30855  43.216  10.795  11.479
62638W        W30856  19.742   4.746  14.701
62639W        W30857  11.988  18.582   3.628
62640W        W30858   7.357  43.771   3.459
62641W        W30859  38.297  14.310  14.230
62642W        W30860   3.998  38.785  13.145
62643W        W30861  31.427  34.056   1.190
62644W        W30862  11.313  41.898  14.880
62645W        W30863  17.813  31.596   3.740
62646W        W30864   9.613   5.372   4.021
62647W        W30865  31.405  11.516   3.215
62648W        W30866  26.672   3.800   2.886
62649W        W30867  11.133   9.289  13.391
62650W        W30868  19.315   6.377   3.603
62651W        W30869  42.397  35.189  14.493
62652W        W30870  44.511  15.103   2.122
62653W        W30871  39.501  38.813   2.301
62654W        W30872  30.047  34.857   3.234
62655W        W30873  10.109   1.775  13.394
62656W        W30874  23.234  18.223  11.970
62657W        W30875  27.003  34.869  13.676
62658W        W30876  14.385  31.988   1.460
62659W        W30877  21.760  21.566   4.275
62660W        W30878  33.529  18.621  13.852
62661W        W30879   7.674  35.648  11.128
62662W        W30880  10.215   7.242  10.492
62663W        W30881  17.554  42.945   3.206
62664W        W30882  27.899  27.013  12.096
62665W        W30883  39.062   6.778  10.591
62666W        W30884  15.565   9.806  13.789
62667W        W30885  41.178  42.440   1.887
62668W        W30886   6.335  42.768  14.948
62669W        W30887  29.162  16.655  14.838
62670W        W30888  34.112  21.654  10.668
62671W        W30889  38.851   9.452  14.860
62672W        W30890   9.655  30.527  14.820
62673W        W30891  31.213  15.796   4.166
62674W        W30892  15.245  11.228   4.791
62675W        W30893  10.000  30.896  13.544
62676W        W30894   4.524  25.148  13.880
62677W        W30895  15.160   0.951   0.861
62678W        W30896   6.563  27.458  10.747
62679W        W30897  10.897   3.373  13.197
62680W        W30898   3.712   9.624  13.867
62681W        W30899  26.595  38.342   2.987
62682W        W30900  42.334  26.211  10.679
62683W        W30901  38.531  39.951  13.865
62684W        W30902   0.431  20.082   4.664
62685W        W30903  27.263  42.836   1.728
62686W        W30904   3.754  20.093  11.494
62687W        W30905   6.162  42.806   3.207
62688W        W30906   7.016   0.288  11.335
62689W        W30907  20.795  15.010  14.934
62690W        W30908  20.556   6.435   1.400
62691W        W30909  37.779  39.790  10.750
62692W        W30910  23.083   2.344   4.105
62693W        W30911  17.652   5.440  12.974
62694W        W30912  29.022   7.369  11.582
62695W        W30913  36.631  33.613   2.881
62696W        W30914  15.251  34.804   0.623
62697W        W30915  17.638  35.832  11.190
62698W        W30916  40.147   9.659   4.522
62699W        W30917  26.245  37.543  10.879
62700W        W30918   8.199  19.742   4.698
62701W        W30919   0.020  10.093  12.728
62702W        W30920  35.481  37.797  14.924
62703W        W30921   6.197  30.160   2.446
62704W        W30922  42.976   5.844  11.564
62705W        W30923  15.083  20.750   4.111
62706W        W30924  14.358  20.643  10.361
62707W        W30925  12.620  39.689  13.520
62708W        W30926   8.403  24.740   3.716
62709W        W30927  23.277  24.561   4.659
62710W        W30928  38.068  16.340   2.152
62711W        W30929   1.835  23.083  14.821
62712W        W30930  37.654  23.510   1.527
62713W        W30931  33.981  12.118  12.323
62714W        W30932  24.978  21.103  11.226
62715W        W30933   6.420   8.873  14.324
62716W        W30934  36.625  11.869   2.348
62717W        W30935  21.296  17.224  14.107
62718W        W30936   2.708  28.740   4.671
62719W        W30937   7.936  34.325   1.291
62720W        W30938  24.720  41.979   1.856
62721W        W30939   6.868  24.637  11.056
62722W        W30940  34.145  16.800   4.593
62723W        W30941  20.376  35.380   4.599
62724W        W30942  21.299   5.587  11.920
62725W        W30943  33.916  25.703  13.898
62726W        W30944  43.813  22.732  12.771
62727W        W30945  30.148   1.996   2.920
62728W        W30946  13.207  27.417  12.110
62729W        W30947  14.300  14.597  10.272
62730W        W30948   6.757  15.529   2.227
62731W        W30949  26.963  29.633   1.506
62732W        W30950  33.663   3.019  10.123
62733W        W30951  17.586  31.876  10.370
62734W        W30952   4.697  24.418  12.860
62735W        W30953   7.412  39.816  12.623
62736W        W30954   7.253  16.777  14.255
62737W        W30955  29.797  21.213  10.746
62738W        W30956  30.088  26.453  12.151
62739W        W30957  11.557  20.833   4.035
62740W        W30958  11.665  15.362  11.089
62741W        W30959  26.567   9.687   4.167
62742W        W30960   8.906   7.932  11.194
62743W        W30961  39.361  16.959  12.160
62744W        W30962  18.350   2.207  13.157
62745W        W30963  39.595  27.956   2.756
62746W        W30964  36.163  40.797  14.031
62747W        W30965  31.565  44.924   1.494
62748W        W30966  37.994  31.421  12.028
62749W        W30967  35.351  12.869   4.043
62750W        W30968  24.879  37.508   3.720
62751W        W30969  24.024  22.110   1.661
62752W        W30970   4.866  37.456  10.748
62753W        W30971  10.385  31.489  14.871
62754W        W30972   8.980  16.583   1.853
62755W        W30973   5.431  44.508  11.504
62756W        W30974  19.554  41.316   2.223
62757W        W30975  16.613  28.982   0.216
62758W        W30976  32.985  16.374  12.670
62759W        W30977  25.974  13.704  10.660
62760W        W30978  31.114  13.130   2.803
62761W        W30979  34.230  44.236  14.536
62762W        W30980  29.023  38.042  10.705
62763W        W30981  17.737  26.424   0.870
62764W        W30982  21.154  23.757  11.477
62765W        W30983  17.082  30.562   3.142
62766W        W30984  13.803  26.663   2.142
62767W        W30985  43.087   3.711   2.510
62768W        W30986  36.479  28.625  14.124
62769W        W30987   9.318  18.565   2.860
62770W        W30988  32.174  27.222   3.810
62771W        W30989  17.821  13.795   1.430
62772W        W30990  14.692  33.572   3.090
62773W        W30991  27.936   6.287   4.476
62774W        W30992   7.281  20.481  13.449
62775W        W30993   3.446  28.330   2.940
62776W        W30994  18.952  34.379   2.821
62777W        W30995  27.152  27.687  11.970
62778W        W30996  23.891  34.103  13.759
62779W        W30997  40.335   7.936  11.910
62780W        W30998  17.183   2.962  10.931
62781W        W30999  36.630  29.171  14.406
62782W        W31000  13.727  11.371  14.459
62783W        W31001  15.281  18.202   0.255
62784W        W31002  44.841  16.360  11.571
62785W        W31003  21.469  23.748  13.106
62786W        W31004   1.961  16.478  13.086
62787W        W31005   6.152  36.486   4.339
62788W        W31006  29.438  26.186  14.975
62789W        W31007  15.789  11.341  13.430
62790W        W31008  10.142  31.749  13.573
62791W        W31009   7.886   1.933  14.423
62792W        W31010  34.595  37.773   2.312
62793W        W31011  37.596  13.076  11.181
62794W        W31012   3.262  13.207   1.491
62795W        W31013  20.225  32.337  14.764
62796W        W31014  36.524  16.337   1.904
62797W        W31015   3.835  37.594   0.329
62798W        W31016  22.037  43.923   3.027
62799W        W31017   0.899  13.619  12.010
62800W        W31018  39.053   0.331  14.837
62801W        W31019  29.938  12.294  14.948
62802W        W31020  27.488  27.960  14.914
62803W        W31021  14.673  33.479   0.722
62804W        W31022  25.651   7.904  12.889
62805W        W31023  13.782  13.786   0.416
62806W        W31024   0.269  25.568   2.783
62807W        W31025  28.690  13.387   0.798
62808W        W31026  27.478  11.819  14.096
62809W        W31027  27.587   2.892  14.040
62810W        W31028  22.070  44.002  14.462
62811W        W31029   2.586  17.104  12.537
62812W        W31030  23.839  25.456   3.863
62813W        W31031   5.792  42.054   1.885
62814W        W31032  18.440  20.340  13.975
62815W        W31033  32.010  23.725   2.387
62816W        W31034  27.250  10.174   1.824
62817W        W31035  38.082  24.663  11.083
62818W        W31036  30.527  15.992  13.002
62819W        W31037  38.309  40.295   4.110
62820W        W31038   2.417   8.880  10.716
62821W        W31039   5.704  22.606  14.026
62822W        W31040  24.198  42.558  14.692
62823W        W31041  27.844  34.965  11.981
62824W        W31042   0.236  25.013  10.614
62825W        W31043   4.886   8.354  13.196
62826W        W31044  26.004   5.676   3.618
62827W        W31045  24.123  31.665  14.899
62828W        W31046  26.089   5.717   1.407
62829W        W31047   5.226  17.132  13.559
62830W        W31048  30.654  11.573  12.140
62831W        W31049  32.854  15.683   0.240
62832W        W31050  42.032  36.921  11.629
62833W        W31051  42.863  26.179   1.845
62834W        W31052  42.302  10.643   0.471
62835W        W31053  22.540  27.487  14.043
62836W        W31054  27.246  11.826  12.023
62837W        W31055  22.027   7.791   3.705
62838W        W31056  34.769  27.943   2.251
62839W        W31057  37.010  42.406  12.336
62840W        W31058  22.043   6.835   2.308
62841W        W31059   2.869   8.624   3.849
62842W        W31060  37.504  35.126  10.702
62843W        W31061   6.349  12.749   1.668
62844W        W31062  12.590  31.025   0.232
62845W        W31063  31.708  28.440  14.899
62846W        W31064   7.573   1.931  10.195
62847W        W31065  31.499  12.630   4.405
62848W        W31066  35.939  34.976  12.029
62849W        W31067  16.619   3.427   1.376
62850W        W31068  17.779   3.216   2.161
62851W        W31069  30.209  17.913  11.037
62852W        W31070  19.201   7.860   2.786
62853W        W31071  22.090   1.737  11.518
62854W        W31072  25.062  40.981  14.343
62855W        W31073  14.365  34.934  13.504
62856W        W31074  39.372  29.202   0.435
62857W        W31075  19.962  39.508   0.908
62858W        W31076  25.334  13.626   4.126
62859W        W31077   8.396  22.458   0.426
62860W        W31078  22.441  13.689   0.183
62861W        W31079  13.249  11.119  14.255
62862W        W31080  23.593  11.290  11.962
62863W        W31081  34.261  14.477  14.367
62864W        W31082  20.776  40.462  14.846
62865W        W31083   9.121  10.862  11.199
62866W        W31084   4.791  36.939  14.909
62867W        W31085   1.236  29.674  13.903
62868W        W31086  42.402  16.751   1.048
62869W        W31087  41.274  13.779  13.483
62870W        W31088  30.549   6.792  13.840
62871W        W31089  44.952  39.510   0.857
62872W        W31090  16.350  44.244   0.370
62873W        W31091  21.088  20.539   1.656
62874W        W31092   2.815   8.717  12.604
62875W        W31093  43.035  20.079  11.655
62876W        W31094  42.923  14.617  13.755
62877W        W31095  28.788  27.530  14.702
62878W        W31096   9.132  21.763  12.478
62879W        W31097   9.697  18.102   1.795
62880W        W31098  42.293  34.638   2.753
62881W        W31099  13.441  24.443   4.721
62882W        W31100  41.718  42.368   0.777
62883W        W31101  28.455  21.925   0.353
62884W        W31102  26.842  33.549  13.036
62885W        W31103  35.775  16.801   1.751
62886W        W31104  30.237  23.097   3.410
62887W        W31105  21.980  12.881  11.187
62888W        W31106  39.996  29.947  13.539
62889W        W31107  18.188   8.974   1.816
62890W        W31108  15.088  37.732   2.680
62891W        W31109   4.760  23.105  11.341
62892W        W31110   2.244  10.160  13.547
62893W        W31111  14.380  25.086   3.838
62894W        W31112  27.420   3.056   3.202
62895W        W31113  36.598  14.182  12.115
62896W        W31114  38.332  17.981  14.850
62897W        W31115  27.836  17.676   0.419
62898W        W31116  13.722   9.852  10.664
62899W        W31117  17.734  18.172  11.120
62900W        W31118  12.542  27.965  13.351
62901W        W31119  25.959   0.063   0.900
62902W        W31120   7.430  29.022   2.326
62903W        W31121  10.809  42.236  10.998
62904W        W31122  30.456  14.616   5.496
62905W        W31123  33.710  12.329  10.887
62906W        W31124  35.357  10.682   4.532
62907W        W31125  40.975  28.471  13.378
62908W        W31126  24.598  29.937  13.594
62909W        W31127  12.569  25.419  13.373
62910W        W31128  29.002  36.781  11.063
62911W        W31129   5.446  44.494  12.858
62912W        W31130  12.189  26.372  14.005
62913W        W31131  20.224  12.114   3.597
62914W        W31132   2.422  19.935   0.875
62915W        W31133  25.789  15.268  14.789
62916W        W31134   1.615   5.271   4.091
62917W        W31135  19.187  38.734  13.996
62918W        W31136   9.676  35.887   1.801
62919W        W31137  27.986  29.692   2.416
62920W        W31138  36.809  15.649   1.275
62921W        W31139   5.240  28.566  13.740
62922W        W31140  40.176  40.250   5.138
62923W        W31141  44.362  38.440  12.893
62924W        W31142  27.990  41.785  13.029
62925W        W31143  18.735   4.842   3.294
62926W        W31144  17.283   1.838  13.546
62927W        W31145  13.412  36.410  12.961
62928W        W31146  20.734  19.339  13.768
62929W        W31147  16.330  32.180   2.196
62930W        W31148   5.017   2.254   4.680
62931W        W31149   4.729  36.818   4.804
62932W        W31150  27.392  16.079  14.980
62933W        W31151   0.320  30.914   0.546
62934W        W31152  34.967  13.399   0.333
62935W        W31153  38.921  42.890   2.890
62936W        W31154  39.545  18.466  12.810
62937W        W31155  27.454  30.548  14.368
62938W        W31156  21.188   0.708   2.710
62939W        W31157   8.057  34.138   0.835
62940W        W31158   9.597  33.625   3.569
62941W        W31159  34.618  43.286   1.302
62942W        W31160   3.381  14.119  14.481
62943W        W31161   1.786  32.520  12.501
62944W        W31162  41.941   6.951   2.297
62945W        W31163  36.795   7.021   3.727
62946W        W31164  12.733   6.266   0.403
62947W        W31165  13.595  28.249   4.620
62948W        W31166  29.950  41.203  13.896
62949W        W31167  14.588   3.238  11.824
62950W        W31168   7.777  14.285  13.140
62951W        W31169   9.813  22.032  13.889
62952W        W31170   6.700   8.984  12.925
62953W        W31171  13.004  14.705  12.950
62954W        W31172  40.784  42.981  12.399
62955W        W31173  19.109  11.373   9.711
62956W        W31174  30.980  30.191   4.705
62957W        W31175  19.171   5.162   4.708
62958W        W31176   5.127  30.204   2.395
62959W        W31177  18.103  17.273   4.149
62960W        W31178  37.527  13.891  13.470
62961W        W31179  16.971  34.366  13.520
62962W        W31180  44.818   3.730   4.247
62963W        W31181   9.251  14.233  12.615
62964W        W31182  37.073  23.150   2.176
62965W        W31183  34.058  28.913  11.585
62966W        W31184  29.948  27.170   4.354
62967W        W31185  34.949  15.196  11.425
62968W        W31186   5.801  34.571   0.459
62969W        W31187  33.614  41.530   0.962
62970W        W31188  44.292  28.222  12.469
62971W        W31189  29.654  32.119   1.801
62972W        W31190   8.744  20.465   2.942
62973W        W31191  43.952   9.380  11.685
62974W        W31192   3.766  36.475   4.410
62975W        W31193  22.267   0.666   0.332
62976W        W31194  35.002   1.327   4.149
62977W        W31195  44.610   7.293  13.976
62978W        W31196   3.241  37.425   1.453
62979W        W31197   4.755  20.240  14.741
62980W        W31198  43.843   7.887   3.785
62981W        W31199  36.843  23.983   0.360
62982W        W31200  10.789  15.766   4.280
62983W        W31201  44.456  20.771   1.041
62984W        W31202  11.166  38.389   1.415
62985W        W31203   8.818  33.661  13.254
62986W        W31204  34.068  10.463  13.690
62987W        W31205  30.608  33.444  13.470
62988W        W31206   7.259  26.102  14.015
62989W        W31207  35.930  27.012   4.243
62990W        W31208  15.717  10.284   4.038
62991W        W31209  41.257   3.930   1.792
62992W        W31210   9.886   5.784  12.634
62993W        W31211   2.783  18.626  11.542
62994W        W31212  26.267   8.458   0.344
62995W        W31213  40.160   6.616  10.802
62996W        W31214  33.831  19.235   0.866
62997W        W31215  12.738  29.704  12.884
62998W        W31216  27.397  44.244   0.793
62999W        W31217  22.195  31.308  12.546
63000W        W31218  31.266  42.987  10.522
63001W        W31219  29.176  15.734   3.960
63002W        W31220  16.324  33.610   0.302
63003W        W31221   3.277  28.246   3.434
63004W        W31222   6.817  33.490   1.703
63005W        W31223   3.860  13.123   2.438
63006W        W31224  34.294  40.242  12.541
63007W        W31225   0.557  19.419  12.899
63008W        W31226  10.776  39.741   3.817
63009W        W31227  28.963  14.388  12.393
63010W        W31228   6.830  28.935  10.792
63011W        W31229  40.385   9.689   3.321
63012W        W31230  38.264  18.569   3.758
63013W        W31231  24.488  36.627   3.369
63014W        W31232  18.600  37.932  11.174
63015W        W31233   2.516  25.030  11.086
63016W        W31234  27.701  43.739   1.728
63017W        W31235  37.234  42.256   1.155
63018W        W31236  21.604  26.172   0.872
63019W        W31237  20.178  20.208   3.241
63020W        W31238  23.586  10.246  11.637
63021W        W31239  37.612  23.086   2.317
63022W        W31240   9.552   6.753  14.986
63023W        W31241   1.713  32.438   4.316
63024W        W31242   6.953   6.613  12.516
63025W        W31243  27.978  23.634   1.304
63026W        W31244  30.448  41.737  11.116
63027W        W31245  24.231  15.760  12.427
63028W        W31246  10.331  42.540   0.997
63029W        W31247   2.460  19.357   3.252
63030W        W31248  17.781  37.880   0.734
63031W        W31249  43.029  39.031   0.852
63032W        W31250  38.904  39.933   2.137
63033W        W31251  31.133  40.735  14.434
63034W        W31252  10.850  40.867   1.458
63035W        W31253  22.649  25.657   2.941
63036W        W31254   0.927  43.760   0.261
63037W        W31255  29.580   1.955   0.377
63038W        W31256  41.741   6.406  12.119
63039W        W31257  33.168  16.070   2.179
63040W        W31258  29.167  25.979   1.350
63041W        W31259  36.058  43.840   4.790
63042W        W31260  26.021   1.317   3.206
63043W        W31261   1.668  23.307  13.214
63044W        W31262  34.550  28.001   2.725
63045W        W31263  33.543  23.780  12.513
63046W        W31264  26.503  23.775   3.643
63047W        W31265   1.379  31.861   0.291
63048W        W31266   2.817  28.221   3.167
63049W        W31267  27.938  17.676  10.623
63050W        W31268  26.058  18.233   2.105
63051W        W31269  16.750  42.429   1.383
63052W        W31270  15.661  27.498   2.398
63053W        W31271  39.852   8.684   1.932
63054W        W31272  17.066  33.904  14.394
63055W        W31273   5.739  26.287   3.429
63056W        W31274  29.473   0.368  12.068
63057W        W31275   4.985   2.975  13.112
63058W        W31276  13.583  20.035  11.685
63059W        W31277   7.988  44.375  13.054
63060W        W31278  23.116  34.459  12.398
63061W        W31279  17.826  39.493  14.093
63062W        W31280   4.713  11.772   2.397
63063W        W31281  37.879   7.650   2.199
63064W        W31282  31.004  33.929  11.698
63065W        W31283   3.924  43.241   1.932
63066W        W31284  20.201   6.696   4.220
63067W        W31285   6.199  38.907   0.911
63068W        W31286  43.508  31.956  14.242
63069W        W31287  12.382  20.453  14.392
63070W        W31288   7.555  14.915  11.865
63071W        W31289  15.193  41.875   3.429
63072W        W31290  36.924  38.339   2.291
63073W        W31291  36.824  12.914  12.497
63074W        W31292  13.645  31.980   3.273
63075W        W31293  29.208  18.504  11.616
63076W        W31294   4.434  24.500   3.210
63077W        W31295  25.922  30.026   0.781
63078W        W31296  32.115  17.581  14.378
63079W        W31297   9.356  41.777   4.756
63080W        W31298   4.940  21.756  12.503
63081W        W31299  11.258  44.743   4.642
63082W        W31300   0.783  15.148   1.541
63083W        W31301  19.250   8.876  14.384
63084W        W31302  15.405  11.459   2.229
63085W        W31303  27.317  23.727   0.303
63086W        W31304  42.774  26.099  10.461
63087W        W31305   9.566  25.341  11.965
63088W        W31306   4.043  28.191  14.255
63089W        W31307   9.407  12.693   3.578
63090W        W31308  36.958  17.827  10.700
63091W        W31309   9.245  18.809   4.727
63092W        W31310  13.991  23.174  14.779
63093W        W31311  44.320   1.877  11.286
63094W        W31312  29.663  34.984  10.659
63095W        W31313  14.570   3.864   3.214
63096W        W31314  32.655  22.355  14.013
63097W        W31315   3.694  31.148  10.836
63098W        W31316  35.366   8.167  13.897
63099W        W31317  38.432  12.752  14.258
63100W        W31318  17.280  37.255  12.088
63101W        W31319  20.581  25.479   3.687
63102W        W31320  38.660  29.482  11.613
63103W        W31321  26.678  38.224  14.382
63104W        W31322  43.328  24.690  14.260
63105W        W31323  34.925   0.980  14.391
63106W        W31324  28.455  14.656   4.299
63107W        W31325  24.987  36.048   3.721
63108W        W31326  10.338  40.054   1.242
63109W        W31327  20.013   3.337   2.145
63110W        W31328  15.820  19.499  13.901
63111W        W31329  24.109  13.033  13.438
63112W        W31330  29.426  20.058   3.321
63113W        W31331  12.690  40.992   3.110
63114W        W31332  19.204  41.362  10.991
63115W        W31333   0.284  24.667  12.450
63116W        W31334  41.271  17.527   0.153
63117W        W31335  39.260  28.076  11.532
63118W        W31336  17.033  32.159  11.002
63119W        W31337  32.064   6.355  12.649
63120W        W31338   9.719  42.556  12.124
63121W        W31339   2.028  27.631  13.675
63122W        W31340  26.481  18.006  13.552
63123W        W31341  12.623  38.944   2.640
63124W        W31342  28.670   2.988   3.627
63125W        W31343  15.661  16.641   4.581
63126W        W31344  42.663  37.407   2.186
63127W        W31345  30.137  32.981  11.769
63128W        W31346  26.282   9.807   4.592
63129W        W31347   9.297   1.813   3.645
63130W        W31348  36.899  15.267  11.532
63131W        W31349  42.486   1.906  14.253
63132W        W31350  43.866  38.169   4.880
63133W        W31351  10.139  37.341  10.126
63134W        W31352   3.812   3.414  14.735
63135W        W31353  20.523   2.515   3.184
63136W        W31354  29.708  44.797  11.580
63137W        W31355  19.724   4.796  10.010
63138W        W31356  40.285  30.261   9.837
63139W        W31357  37.552  32.529  10.649
63140W        W31358  38.828  41.246   9.785
63141W        W31359  10.187  17.211   1.773
63142W        W31360  40.235   9.256  11.186
63143W        W31361  27.216   5.789   3.180
63144W        W31362  27.896  28.127  12.339
63145W        W31363   8.226  30.559   0.549
63146W        W31364  38.893   6.114  12.095
63147W        W31365  21.734   4.626  10.707
63148W        W31366  32.157  11.253   0.047
63149W        W31367   8.097   9.280  13.751
63150W        W31368  26.721  17.227  12.525
63151W        W31369  23.623  16.030  14.455
63152W        W31370  32.710  36.470  13.904
63153W        W31371  28.736  34.680  10.620
63154W        W31372  33.947  20.963  13.378
63155W        W31373  14.233  30.407   2.707
63156W        W31374  29.885  44.147   3.998
63157W        W31375  27.175  41.350   4.213
63158W        W31376   2.409  22.759  11.824
63159W        W31377  30.400  10.820   1.737
63160W        W31378  29.448  21.132  12.917
63161W        W31379   3.378  16.647  11.564
63162W        W31380  21.756   7.324  11.034
63163W        W31381   6.996   9.405  13.052
63164W        W31382  24.913  22.068  11.327
63165W        W31383  34.105   2.726  10.238
63166W        W31384  42.175  43.387   3.414
63167W        W31385  40.410   1.205  11.185
63168W        W31386  26.692  29.461  12.321
63169W        W31387   4.867  23.931  14.864
63170W        W31388   8.691   5.691   3.390
63171W        W31389  27.747  29.315  14.910
63172W        W31390  40.326  10.289  14.757
63173W        W31391  40.978  29.241   0.364
63174W        W31392  38.525   3.161   3.321
63175W        W31393   0.473  14.205   4.102
63176W        W31394   4.778  22.617  11.219
63177W        W31395   6.852   7.424  12.876
63178W        W31396   3.274  22.716   2.159
63179W        W31397  12.321   6.716   4.692
63180W        W31398  26.097  36.541   2.636
63181W        W31399   2.553  29.770   4.233
63182W        W31400  35.010  23.279   2.532
63183W        W31401  18.760  20.815   4.435
63184W        W31402  33.638  44.799   1.789
63185W        W31403   3.863  16.698   0.912
63186W        W31404  32.931  16.143  12.187
63187W        W31405   0.470  10.822   0.282
63188W        W31406  38.603  33.437   2.835
63189W        W31407  40.922   6.950  11.582
63190W        W31408  33.175  15.767   3.320
63191W        W31409  39.280  33.331  11.144
63192W        W31410   3.270   1.497  14.802
63193W        W31411   8.563  36.469   3.212
63194W        W31412  26.463   9.858  11.555
63195W        W31413  37.962  14.391  11.529
63196W        W31414  17.610  12.081   2.708
63197W        W31415  36.017  13.040   4.649
63198W        W31416  27.631   9.149  11.034
63199W        W31417  16.707   1.493  10.088
63200W        W31418   1.969  28.087   2.743
63201W        W31419  16.650   2.308  14.993
63202W        W31420  12.390   4.827  12.476
63203W        W31421   5.635   8.432   4.040
63204W        W31422   1.082  40.391   3.124
63205W        W31423  42.492  28.605  14.914
63206W        W31424  14.677  31.944   2.849
63207W        W31425  25.509  25.929  14.624
63208W        W31426  26.979  34.444  12.674
63209W        W31427   2.177   7.562  14.539
63210W        W31428  40.233  16.486   3.321
63211W        W31429  19.340  44.773  13.674
63212W        W31430  35.074  19.294  10.761
63213W        W31431  11.141  36.202   4.222
63214W        W31432  36.830  11.717  10.675
63215W        W31433  25.702   6.979  13.068
63216W        W31434  39.545  24.263  12.566
63217W        W31435  38.949  10.655   1.438
63218W        W31436  24.565  44.641   2.832
63219W        W31437  13.577  29.447  12.448
63220W        W31438  35.157  24.174   1.990
63221W        W31439   8.291  42.983  13.754
63222W        W31440  26.516  21.598  10.528
63223W        W31441  43.765  33.922   3.205
63224W        W31442  33.278  12.393  12.961
63225W        W31443   8.624  11.955   3.488
63226W        W31444  12.335   1.843   0.752
63227W        W31445  24.996  38.340  12.988
63228W        W31446  43.455  38.276   2.822
63229W        W31447  34.088  12.562  12.895
63230W        W31448  29.487  10.192   0.742
63231W        W31449   7.479  42.426   2.730
63232W        W31450  21.310  22.136   2.146
63233W        W31451  26.412  42.750  10.341
63234W        W31452  37.164  41.857  13.016
63235W        W31453  14.068  22.527  12.150
63236W        W31454  27.434  14.538  14.307
63237W        W31455  19.351  37.161   2.298
63238W        W31456  42.518   5.068   1.162
63239W        W31457  16.061  12.749  13.290
63240W        W31458  16.523  10.364   4.144
63241W        W31459  25.103   6.824   4.519
63242W        W31460  31.185  38.915   2.413
63243W        W31461  16.074   9.789  13.825
63244W        W31462  34.885  26.087  14.506
63245W        W31463  23.180  26.984  10.382
63246W        W31464  23.960   7.918   2.058
63247W        W31465  25.659  23.427   0.895
63248W        W31466  11.264  12.882   4.799
63249W        W31467   7.169  23.083   3.693
63250W        W31468  31.376   4.920  13.357
63251W        W31469  26.060   3.905   4.261
63252W        W31470  27.489   2.279   2.845
63253W        W31471   8.176  12.159   3.690
63254W        W31472  42.795   1.015  11.102
63255W        W31473  31.387   0.912   1.417
63256W        W31474  34.147  26.897  13.044
63257W        W31475  44.016  23.397  12.686
63258W        W31476   6.475  11.326   4.107
63259W        W31477  41.313  12.146   0.723
63260W        W31478   8.669  18.295   4.998
63261W        W31479  18.132  38.114  11.345
63262W        W31480  32.220   2.492   1.853
63263W        W31481  13.803  19.608   4.903
63264W        W31482  22.458   6.690  13.135
63265W        W31483  15.424  16.461  12.011
63266W        W31484  33.988  44.032   1.773
63267W        W31485  26.179  29.826  14.963
63268W        W31486  37.264  35.278   0.542
63269W        W31487  33.058  31.557   0.342
63270W        W31488  10.394  11.496  13.824
63271W        W31489   0.771  24.052  14.830
63272W        W31490  20.093   6.767   1.291
63273W        W31491  44.089  23.508  14.504
63274W        W31492   2.942  42.986   1.958
63275W        W31493  13.501  23.531   4.206
63276W        W31494  37.478   3.318   0.243
63277W        W31495   2.451  36.789  13.318
63278W        W31496  28.381   4.101  12.781
63279W        W31497   7.437   0.397  14.601
63280W        W31498  10.237  39.123   2.766
63281W        W31499  40.750   3.711  13.922
63282W        W31500  38.895  41.386  12.089
63283W        W31501  29.878   2.368  12.157
63284W        W31502  16.992  31.821   2.815
63285W        W31503  23.813  33.207  14.081
63286W        W31504  39.614  38.972   0.899
63287W        W31505   4.715  26.054   0.374
63288W        W31506   4.351  18.731   2.786
63289W        W31507  43.804  15.582  11.965
63290W        W31508   2.338  36.613   1.729
63291W        W31509   1.415  39.343   3.071
63292W        W31510  16.757  31.737  13.979
63293W        W31511   3.533  39.769  14.410
63294W        W31512   8.204  15.722  13.935
63295W        W31513  28.175  19.772   0.055
63296W        W31514  19.674  42.974   0.932
63297W        W31515  38.246  34.369  10.747
63298W        W31516  21.597  34.428   0.526
63299W        W31517  17.397  25.416  13.435
63300W        W31518  29.136  27.024  10.712
63301W        W31519  37.396   8.964   5.110
63302W        W31520  37.187   3.578  10.053
63303W        W31521  14.202  39.767  12.056
63304W        W31522  17.756   0.466  12.795
63305W        W31523  16.340  19.339  13.841
63306W        W31524  13.850   7.415  12.019
63307W        W31525  39.291  41.358   1.423
63308W        W31526  39.370  43.316   3.478
63309W        W31527  30.607  26.916   3.772
63310W        W31528   4.299  34.640  10.818
63311W        W31529   8.341  32.832  10.674
63312W        W31530  10.109  15.613   4.024
63313W        W31531   2.962  13.231  14.909
63314W        W31532  30.617  29.948  13.918
63315W        W31533   9.748   0.297  13.858
63316W        W31534  11.266   7.474  11.090
63317W        W31535  44.237  10.561  11.160
63318W        W31536   0.990   1.698   5.175
63319W        W31537  42.268  25.322   5.001
63320W        W31538  16.756  38.756  11.046
63321W        W31539  28.687  19.136   0.900
63322W        W31540  10.796  43.742  11.104
63323W        W31541  41.864  40.440   3.467
63324W        W31542  28.376  11.481  14.155
63325W        W31543  44.286   6.432  11.305
63326W        W31544  25.164  33.670   0.480
63327W        W31545  23.576  42.042  11.144
63328W        W31546  27.169  30.198  11.308
63329W        W31547  22.699  42.215  11.625
63330W        W31548  44.731  27.928  12.541
63331W        W31549  22.730  10.715  12.819
63332W        W31550  11.216   8.376  13.851
63333W        W31551  28.587  15.650   0.893
63334W        W31552   3.615   4.279   2.306
63335W        W31553  24.597  44.289   3.666
63336W        W31554  33.430  17.094   0.863
63337W        W31555  12.322  32.036  12.330
63338W        W31556  25.380  23.475   1.364
63339W        W31557  27.035   7.292   1.454
63340W        W31558  33.520  29.012  13.303
63341W        W31559  23.597  42.495  12.856
63342W        W31560  25.963  36.128   3.437
63343W        W31561  29.511  21.825  14.217
63344W        W31562  33.611   4.401   4.761
63345W        W31563   3.849  15.560   1.560
63346W        W31564  34.749  20.560  11.046
63347W        W31565   3.814  16.688  11.191
63348W        W31566  28.436  40.496  12.085
63349W        W31567  33.611  15.765   2.386
63350W        W31568  20.856  29.645   5.346
63351W        W31569  28.114  11.230  10.583
63352W        W31570   7.633  11.824  12.461
63353W        W31571  13.554  11.681   3.811
63354W        W31572  39.363   4.736   3.749
63355W        W31573  11.903  29.365  12.609
63356W        W31574  32.470  32.814   0.206
63357W        W31575  19.735  20.450   1.674
63358W        W31576  13.229  41.246   1.177
63359W        W31577   0.426   1.894   0.484
63360W        W31578  22.505  18.623  12.460
63361W        W31579  16.595  30.075   2.777
63362W        W31580  10.874  21.974  13.372
63363W        W31581  22.288  38.296  10.190
63364W        W31582  13.072  28.632   0.438
63365W        W31583  34.864  34.372  14.447
63366W        W31584  23.682   3.729   4.608
63367W        W31585  35.258  19.165   2.032
63368W        W31586  24.135   7.748  14.765
63369W        W31587   9.758  13.504  12.920
63370W        W31588  13.670  37.590   2.367
63371W        W31589  11.023  34.892   0.783
63372W        W31590   9.848  38.047   2.266
63373W        W31591  10.869   6.338  14.972
63374W        W31592   7.193  16.911   0.867
63375W        W31593  43.046  41.876  12.811
63376W        W31594  44.730  30.983   1.805
63377W        W31595  22.199  20.554   0.994
63378W        W31596  29.690  42.957   2.442
63379W        W31597  37.516  31.556  13.342
63380W        W31598   6.387  22.319   4.602
63381W        W31599   6.314  28.448  12.130
63382W        W31600  31.929   6.882  10.071
63383W        W31601   3.886  10.563  13.819
63384W        W31602  35.550  17.576  12.927
63385W        W31603  27.169  35.885   0.348
63386W        W31604  33.576   7.142   1.359
63387W        W31605   0.918  44.601  14.942
63388W        W31606  30.448  24.503  12.982
63389W        W31607  32.535  30.009   3.400
63390W        W31608  16.086  25.674  12.025
63391W        W31609   3.406  26.066   5.014
63392W        W31610  32.322  10.387   0.918
63393W        W31611  35.835  34.359   1.951
63394W        W31612  17.044  42.401  11.478
63395W        W31613  15.194  30.221   4.625
63396W        W31614  18.366   5.226  12.366
63397W        W31615  15.460   3.436   3.288
63398W        W31616   2.347  18.340   2.439
63399W        W31617   8.532  24.016  13.677
63400W        W31618  35.606  34.964   1.739
63401W        W31619  37.016   8.686  13.466
63402W        W31620  27.066   4.036   2.671
63403W        W31621  16.756  31.427  10.788
63404W        W31622  12.831  43.481  11.194
63405W        W31623   8.260  44.292  12.601
63406W        W31624  14.811  42.045  12.388
63407W        W31625  12.880  14.082   0.020
63408W        W31626  32.304  35.027  14.507
63409W        W31627  40.421  43.698  13.014
63410W        W31628  33.527  14.292  10.784
63411W        W31629  38.991  22.196   4.249
63412W        W31630  13.306  34.638   1.627
63413W        W31631  37.904  26.369  13.821
63414W        W31632   5.224  13.249  12.559
63415W        W31633   4.479   7.992   4.252
63416W        W31634  36.572  36.575   2.252
63417W        W31635  27.638   1.847  11.746
63418W        W31636  42.272   5.262  13.994
63419W        W31637   8.462  13.760  13.427
63420W        W31638   0.917  42.546   4.013
63421W        W31639  36.996  30.186   0.237
63422W        W31640   1.562  14.666  11.380
63423W        W31641  32.008  24.682   0.739
63424W        W31642  32.616  11.538   3.569
63425W        W31643  40.446  31.155   1.140
63426W        W31644  28.456  27.438  11.627
63427W        W31645  30.596  32.884  10.361
63428W        W31646   6.165  33.894  14.613
63429W        W31647  40.281  13.799  13.522
63430W        W31648  13.393  26.111   3.743
63431W        W31649  35.085  42.008  10.736
63432W        W31650   9.408  33.711   4.049
63433W        W31651  29.590  25.398  11.649
63434W        W31652  38.649  44.752   1.597
63435W        W31653  37.502  16.166   1.276
63436W        W31654  34.031  38.885   3.546
63437W        W31655   8.273  36.577   4.192
63438W        W31656  17.643  42.183   3.836
63439W        W31657  26.151   5.503  13.770
63440W        W31658  37.662  43.082  10.280
63441W        W31659  15.816  27.014  11.182
63442W        W31660  14.755  41.561  12.525
63443W        W31661  34.066  23.920   0.326
63444W        W31662  38.461  15.663  14.824
63445W        W31663  44.705  12.592  14.354
63446W        W31664   6.855   0.701   4.122
63447W        W31665  15.986  40.857   2.263
63448W        W31666   1.286  23.147   0.913
63449W        W31667   3.585  35.446   2.487
63450W        W31668  29.488  27.118   4.611
63451W        W31669  26.638  33.036   1.381
63452W        W31670  19.713   6.655   4.065
63453W        W31671  28.050  35.097  12.887
63454W        W31672  38.892  42.254   4.665
63455W        W31673   3.470   8.688  11.093
63456W        W31674  21.654  29.263   4.912
63457W        W31675   5.079  41.509   3.538
63458W        W31676  15.479  13.118  14.878
63459W        W31677  24.932  11.166  12.352
63460W        W31678  37.278   1.966   2.804
63461W        W31679  28.604   9.339   3.374
63462W        W31680  30.982  27.491   5.436
63463W        W31681  26.273  35.700   3.446
63464W        W31682  10.853  20.718  10.842
63465W        W31683  40.069  15.122  10.371
63466W        W31684  34.293  25.421  14.914
63467W        W31685  32.017  22.139   3.307
63468W        W31686  22.119  36.875   0.251
63469W        W31687  27.016  26.866   5.024
63470W        W31688  16.816   5.359  10.655
63471W        W31689  34.477  34.844  11.919
63472W        W31690  38.822  25.085  14.945
63473W        W31691  12.647   7.298   3.859
63474W        W31692  38.567  12.046  10.544
63475W        W31693  19.160  24.482  11.230
63476W        W31694  32.282   1.252  14.008
63477W        W31695  25.286  29.486   4.505
63478W        W31696   0.599  41.817  14.819
63479W        W31697  19.279  15.070   9.849
63480W        W31698  12.443  37.602   1.391
63481W        W31699   8.368  17.760  12.277
63482W        W31700  21.563   1.396   3.866
63483W        W31701   2.883  17.770   0.242
63484W        W31702  35.558  44.683  11.102
63485W        W31703  42.757  30.582   2.267
63486W        W31704  43.706  33.220  12.989
63487W        W31705  17.164  20.505  13.388
63488W        W31706  37.826  36.154  13.603
63489W        W31707  22.717  17.626   4.813
63490W        W31708  33.388   5.298  12.025
63491W        W31709  16.137  15.242   2.696
63492W        W31710   4.420  25.171   2.729
63493W        W31711  34.484  38.294   2.108
63494W        W31712  35.000  20.651   0.514
63495W        W31713  44.316   4.295   4.618
63496W        W31714   0.448   8.120  12.911
63497W        W31715   0.321  31.679   4.518
63498W        W31716  34.112  21.751  13.825
63499W        W31717  44.576  18.540  13.841
63500W        W31718  14.838   3.259   1.920
63501W        W31719  19.185   4.280  10.679
63502W        W31720   9.128  37.276  13.816
63503W        W31721  27.241  18.570  12.534
63504W        W31722  23.048   6.238   2.250
63505W        W31723  25.928  32.412   2.434
63506W        W31724  11.294  17.059  11.983
63507W        W31725  13.227   5.138   3.655
63508W        W31726  37.880  10.144  10.578
63509W        W31727   2.350  18.022  12.548
63510W        W31728  38.432  38.311   0.518
63511W        W31729  35.440  16.291  14.927
63512W        W31730   3.437  18.660  14.002
63513W        W31731  12.828  17.250   2.290
63514W        W31732  36.895  41.317   4.718
63515W        W31733  23.157  17.647   4.526
63516W        W31734  10.661   8.320   4.105
63517W        W31735  30.015  26.936   1.941
63518W        W31736   2.715  27.104   0.887
63519W        W31737   7.867   4.920   3.055
63520W        W31738  44.716  31.513   3.635
63521W        W31739  36.586  37.068   4.593
63522W        W31740  35.076   6.585   0.537
63523W        W31741  38.343  44.807   4.705
63524W        W31742  28.962   0.067  14.515
63525W        W31743  42.557  12.810   1.443
63526W        W31744  18.694  38.849  13.148
63527W        W31745   2.375  38.699  11.619
63528W        W31746  18.384  22.507   4.633
63529W        W31747  23.160  38.542  13.291
63530W        W31748  14.615  17.850   2.798
63531W        W31749  41.626  42.332   4.072
63532W        W31750  44.755  16.576  10.235
63533W        W31751  16.006  38.542  14.224
63534W        W31752   8.278   3.438  11.091
63535W        W31753   1.634  15.497  11.052
63536W        W31754  20.213  16.877   3.745
63537W        W31755  13.061  15.693  10.105
63538W        W31756  24.751  28.579  14.936
63539W        W31757  22.000  30.730  12.081
63540W        W31758  39.261  44.586   1.524
63541W        W31759  22.773  13.229  11.176
63542W        W31760  23.278   8.149   2.775
63543W        W31761  27.125   9.188   1.761
63544W        W31762   7.202   2.193   1.205
63545W        W31763  26.827  40.301   4.383
63546W        W31764  23.427  16.663  12.962
63547W        W31765  38.063  30.218  11.677
63548W        W31766  44.720   0.030  13.955
63549W        W31767  20.555  42.295   1.279
63550W        W31768  40.358  30.019   2.687
63551W        W31769  21.479  39.823  10.527
63552W        W31770  26.441  38.529  11.118
63553W        W31771  36.840  27.204  12.492
63554W        W31772   1.473  18.262   4.836
63555W        W31773  33.615  39.911   0.372
63556W        W31774  16.003   0.799  11.455
63557W        W31775  36.517   9.886   0.753
63558W        W31776  23.754  17.777   3.636
63559W        W31777   8.444  14.762   1.861
63560W        W31778  15.328   5.455  12.973
63561W        W31779  14.340   1.781  10.064
63562W        W31780  16.768   9.875  14.370
63563W        W31781  26.892  38.623   2.677
63564W        W31782   7.256  42.908   4.632
63565W        W31783  26.070  13.276   1.291
63566W        W31784  39.646  37.705   1.279
63567W        W31785  11.375  38.533   3.163
63568W        W31786   4.761  17.011  12.471
63569W        W31787  30.877  26.467  13.412
63570W        W31788   4.764  21.515  14.046
63571W        W31789   4.842  32.614   3.227
63572W        W31790  30.208   1.755   3.391
63573W        W31791   8.761  21.982   3.909
63574W        W31792  29.273  16.324   4.192
63575W        W31793  25.698  23.937   1.136
63576W        W31794  20.353  10.289  10.456
63577W        W31795   8.777  24.967  13.039
63578W        W31796   4.899   5.377  12.365
63579W        W31797  32.128  36.928   2.280
63580W        W31798  29.089  32.488  11.196
63581W        W31799   4.432  11.148   1.504
63582W        W31800  21.587  11.538  12.974
63583W        W31801  17.122  33.046   2.228
63584W        W31802  36.012   4.410   2.993
63585W        W31803   1.727  10.829  12.427
63586W        W31804   9.171  19.178  14.481
63587W        W31805  21.989   6.758  12.915
63588W        W31806  42.323   2.289  12.064
63589W        W31807  41.837  16.955  12.059
63590W        W31808  18.175  10.096  14.461
63591W        W31809   0.852  17.303  14.475
63592W        W31810  27.722  22.932   3.263
63593W        W31811  32.545  17.097  13.786
63594W        W31812  41.263   5.181   4.717
63595W        W31813  31.185  21.942  11.145
63596W        W31814  23.768  14.766   3.148
63597W        W31815  21.530   6.700  10.446
63598W        W31816  28.467  22.504   4.169
63599W        W31817  25.998  40.847  14.710
63600W        W31818  24.024  14.662  13.205
63601W        W31819  40.801  33.574   3.863
63602W        W31820  18.434   9.338   0.222
63603W        W31821   4.424  21.960   2.234
63604W        W31822  27.490  20.993   2.131
63605W        W31823  27.273  31.351  11.985
63606W        W31824  17.207   0.928  10.762
63607W        W31825  37.838  38.622   3.929
63608W        W31826  28.137  38.951  14.493
63609W        W31827  32.489  44.849  14.887
63610W        W31828  26.272  27.698  13.519
63611W        W31829  35.542  26.881  10.231
63612W        W31830  23.068  30.160  14.710
63613W        W31831  39.101  25.143  10.724
63614W        W31832  22.446  14.667  13.967
63615W        W31833  14.256   1.340   5.272
63616W        W31834  39.019   1.142  10.928
63617W        W31835  31.409  31.119   1.826
63618W        W31836  21.438  31.644   5.504
63619W        W31837  24.880  40.057   0.460
63620W        W31838  35.999  10.657   3.923
63621W        W31839   3.493  25.697  13.326
63622W        W31840  34.560  37.083   3.702
63623W        W31841  38.285  28.132   2.691
63624W        W31842  20.064  35.923  14.288
63625W        W31843  37.293  43.379   4.020
63626W        W31844   2.021  30.556  12.917
63627W        W31845  20.360  25.847  14.279
63628W        W31846  29.181   3.995   2.097
63629W        W31847  17.138  21.871  10.732
63630W        W31848  15.382  40.314   2.801
63631W        W31849   9.892   6.867   0.385
63632W        W31850  12.489  20.741  14.829
63633W        W31851   5.178   3.184  11.729
63634W        W31852  23.267   6.419  11.585
63635W        W31853  34.911   1.587   4.644
63636W        W31854   1.962   9.317   0.716
63637W        W31855  20.781  21.023   2.372
63638W        W31856  36.673  43.511   1.337
63639W        W31857  11.141   8.061  12.444
63640W        W31858  27.568  38.472  12.646
63641W        W31859   0.341   8.841  14.032
63642W        W31860   6.425  29.484   0.292
63643W        W31861  38.006  41.941   4.577
63644W        W31862  41.643  37.516  10.887
63645W        W31863  29.580  33.978   1.778
63646W        W31864  28.247  31.375   3.045
63647W        W31865  41.785  39.383   0.537
63648W        W31866  32.970  34.669   3.260
63649W        W31867  21.600  20.405   2.354
63650W        W31868   0.980   8.823  13.054
63651W        W31869   3.200  35.056   1.718
63652W        W31870  21.761  43.481  10.498
63653W        W31871  33.270  21.794  10.236
63654W        W31872  38.398   9.201   4.182
63655W        W31873  34.481  10.100   4.270
63656W        W31874   5.376   6.456  14.411
63657W        W31875   8.051  42.652   4.860
63658W        W31876   0.316  35.697  11.159
63659W        W31877  29.188  17.099  11.625
63660W        W31878  39.729  33.475  14.175
63661W        W31879  44.512  26.463   1.759
63662W        W31880   3.302  40.339  12.466
63663W        W31881  41.765   1.479   2.734
63664W        W31882  36.570  26.160   3.640
63665W        W31883   1.489  21.069  11.384
63666W        W31884  25.333  40.837   0.949
63667W        W31885  25.761  25.395   4.351
63668W        W31886  40.977  26.277   2.438
63669W        W31887  15.845  31.587   0.391
63670W        W31888  41.745  18.272   1.252
63671W        W31889  20.908  42.957   1.779
63672W        W31890  16.353  10.650  13.883
63673W        W31891   4.432  16.675   4.727
63674W        W31892   1.776  19.736   1.388
63675W        W31893  13.327   8.894   1.211
63676W        W31894   8.602  27.529   2.757
63677W        W31895  12.365  18.817  10.968
63678W        W31896  41.197  30.595  14.534
63679W        W31897  30.491  13.153   3.676
63680W        W31898  28.283  36.409  13.110
63681W        W31899  43.451  38.879  13.163
63682W        W31900  18.273  26.481  10.240
63683W        W31901  36.686  19.222  14.989
63684W        W31902  37.311  29.832   0.474
63685W        W31903  25.294   8.276  12.044
63686W        W31904  33.122   3.849   4.121
63687W        W31905  10.383  39.113  13.907
63688W        W31906  26.584  41.243  14.611
63689W        W31907   0.205  38.561  13.267
63690W        W31908  27.154  24.046  11.474
63691W        W31909  21.641  33.506  13.768
63692W        W31910   6.624  12.876  12.494
63693W        W31911  17.704  31.934   2.395
63694W        W31912  36.822  29.940   2.365
63695W        W31913  18.866  43.032   1.799
63696W        W31914  24.679  34.524   4.382
63697W        W31915  41.829  21.589   4.457
63698W        W31916  16.249  34.423   1.867
63699W        W31917  33.109  38.255  13.367
63700W        W31918  24.669   0.773   3.797
63701W        W31919  16.900  18.737   2.260
63702W        W31920  38.973  14.442  11.887
63703W        W31921   1.946  11.720   1.693
63704W        W31922  28.115  31.863   3.142
63705W        W31923  20.876  21.749   4.565
63706W        W31924   5.989   3.251  12.276
63707W        W31925  28.475  12.679  14.125
63708W        W31926   1.965  19.722  11.605
63709W        W31927  36.114   8.203  14.408
63710W        W31928  30.617   7.509   3.438
63711W        W31929   8.742  10.796  13.617
63712W        W31930  24.205  42.892  10.369
63713W        W31931  30.443  38.564   1.780
63714W        W31932  43.439  20.777   0.184
63715W        W31933   9.708   9.412   4.308
63716W        W31934  27.626  29.386   3.189
63717W        W31935  39.986  24.613  10.349
63718W        W31936  21.177   4.785  14.773
63719W        W31937  39.303  37.821  11.817
63720W        W31938  15.694  19.820  11.987
63721W        W31939  40.872  18.327  10.770
63722W        W31940  42.975  28.989   3.071
63723W        W31941  26.166   3.839   1.419
63724W        W31942  22.198  24.241   4.054
63725W        W31943  40.616   2.512   3.550
63726W        W31944  29.257   8.398   2.876
63727W        W31945  25.760  40.907  12.440
63728W        W31946  21.494   1.872  13.214
63729W        W31947  29.381  12.902   0.901
63730W        W31948  44.181  35.059  10.485
63731W        W31949  31.584  16.761  10.674
63732W        W31950  12.264   0.594   4.027
63733W        W31951  30.509  39.779   0.884
63734W        W31952  37.923  17.236   4.156
63735W        W31953   2.828  16.742   0.926
63736W        W31954   4.282   0.474  14.403
63737W        W31955  13.093  22.865   3.834
63738W        W31956  38.875  23.132  14.101
63739W        W31957  44.909  40.822   2.936
63740W        W31958  39.121   1.357   4.539
63741W        W31959  11.168   7.288   1.179
63742W        W31960  18.695  10.307  11.190
63743W        W31961  20.528  19.710  11.317
63744W        W31962  43.915   8.047   0.382
63745W        W31963   9.518  28.428   1.690
63746W        W31964   8.052   1.873   1.487
63747W        W31965  30.393  10.605   3.951
63748W        W31966  29.625  29.457  11.074
63749W        W31967  16.720  15.651   4.606
63750W        W31968  13.919  41.941  13.990
63751W        W31969  11.643   0.742  12.411
63752W        W31970  16.450  25.130  12.834
63753W        W31971  42.467  15.067  13.510
63754W        W31972  38.374   2.997  13.427
63755W        W31973  17.156  23.254   2.975
63756W        W31974  42.449  35.506   1.859
63757W        W31975   5.830  17.699   2.840
63758W        W31976   3.813  30.192   2.757
63759W        W31977  44.494  40.094   0.801
63760W        W31978  41.181  41.707  11.074
63761W        W31979  11.195   3.309  14.881
63762W        W31980  23.941  33.596   3.830
63763W        W31981  25.748  36.512   4.906
63764W        W31982  43.503   6.183   1.829
63765W        W31983  35.490   5.301   0.536
63766W        W31984  37.457  12.595  11.105
63767W        W31985  23.791  30.532   4.492
63768W        W31986  40.910   7.191   1.861
63769W        W31987   5.877  43.752   3.562
63770W        W31988  38.307  10.667   2.183
63771W        W31989   7.124  32.167   3.356
63772W        W31990  24.859   1.788  13.310
63773W        W31991  44.534  29.013   0.217
63774W        W31992  13.673  31.410  13.543
63775W        W31993  28.581  24.117   4.977
63776W        W31994  15.323  22.608   4.929
63777W        W31995   7.979  17.527  12.701
63778W        W31996  26.030  22.275   3.122
63779W        W31997  21.480  13.114  13.996
63780W        W31998  24.977   0.224  12.578
63781W        W31999  13.025  23.247   2.941
63782W        W32000  15.470  11.653   0.162
63783W        W32001  27.698  23.380  14.936
63784W        W32002   2.013  17.504   0.223
63785W        W32003   3.791   2.760   3.162
63786W        W32004   1.177  17.662   4.201
63787W        W32005  26.034  24.257   0.835
63788W        W32006  14.039  21.314   3.018
63789W        W32007  44.832   7.859  11.625
63790W        W32008  21.770  14.611   4.176
63791W        W32009   8.433  20.549  14.933
63792W        W32010  29.460  34.947   5.040
63793W        W32011  12.475   9.142  14.572
63794W        W32012  17.225   5.755  12.868
63795W        W32013   4.680   1.582   3.183
63796W        W32014  33.373  13.845   2.859
63797W        W32015  11.326  16.491   0.373
63798W        W32016  39.576  11.951   1.704
63799W        W32017  37.547   5.690   4.952
63800W        W32018  27.904  32.230  10.023
63801W        W32019  24.790  21.024   4.972
63802W        W32020  35.514  19.236  14.292
63803W        W32021  13.399  37.321  12.974
63804W        W32022  22.220   7.983   0.603
63805W        W32023  20.082  36.602  12.616
63806W        W32024  23.691  24.145  14.743
63807W        W32025   6.822  40.517   1.840
63808W        W32026   4.733  16.254   2.708
63809W        W32027  29.878  30.514  13.847
63810W        W32028   8.355  10.073   0.759
63811W        W32029  15.381  36.994  12.004
63812W        W32030  33.706  17.821   4.872
63813W        W32031  15.822  37.271  13.768
63814W        W32032  13.298  27.990   0.870
63815W        W32033   4.491  32.992  14.907
63816W        W32034  30.858  33.529  10.967
63817W        W32035  31.006  23.932   4.069
63818W        W32036   8.421  26.732  14.189
63819W        W32037  39.521  43.791   3.312
63820W        W32038  44.949  35.553  14.113
63821W        W32039  34.606  38.270  14.724
63822W        W32040  42.918  24.093  13.918
63823W        W32041   8.740  16.116  13.517
63824W        W32042  21.987  11.138   3.725
63825W        W32043  28.967  10.104  11.176
63826W        W32044  31.948   5.656   3.236
63827W        W32045  42.427  27.760   2.642
63828W        W32046  18.202  41.760   3.186
63829W        W32047  17.035  20.742   0.309
63830W        W32048  33.364  34.495   2.198
63831W        W32049   4.696  26.125  14.423
63832W        W32050  26.081  29.842  10.738
63833W        W32051   5.562  11.747  13.519
63834W        W32052  25.089  42.949   1.307
63835W        W32053  19.831   8.273   2.686
63836W        W32054  35.333  41.320  12.260
63837W        W32055  16.300  38.619  10.394
63838W        W32056  34.538  32.624   3.440
63839W        W32057  23.627  36.257  14.634
63840W        W32058  19.921  42.504   0.761
63841W        W32059   3.113  27.125   2.871
63842W        W32060  32.028  26.237   2.685
63843W        W32061  25.965  37.610  14.520
63844W        W32062  43.760  41.783  13.362
63845W        W32063  11.814  42.753   5.036
63846W        W32064  33.931  34.019   1.800
63847W        W32065  25.322  33.645  10.319
63848W        W32066   6.955  23.056  13.085
63849W        W32067  14.789  26.695   4.536
63850W        W32068   5.844  39.391  10.612
63851W        W32069  14.355  38.087   1.760
63852W        W32070  23.443   3.332  13.972
63853W        W32071  38.094   4.998  10.887
63854W        W32072   7.646  37.492  14.084
63855W        W32073  23.761  25.082  10.175
63856W        W32074   6.504  43.992   1.358
63857W        W32075  44.973  22.134  13.451
63858W        W32076  27.906   3.669   0.930
63859W        W32077   4.953   4.379  11.583
63860W        W32078  18.001   1.807   3.655
63861W        W32079  41.390  22.244  13.393
63862W        W32080  30.876  32.457   4.202
63863W        W32081  36.454  31.204   2.794
63864W        W32082   3.060  13.590   2.793
63865W        W32083   0.011  29.591   3.586
63866W        W32084   5.333  19.686   3.220
63867W        W32085  36.097  16.076  11.204
63868W        W32086   3.844  38.890   0.920
63869W        W32087  19.239  43.520  14.553
63870W        W32088  44.634  10.575  13.547
63871W        W32089   0.820  41.299   0.362
63872W        W32090  36.964  26.617  14.813
63873W        W32091  36.353  11.577   2.688
63874W        W32092  14.805  28.216   1.785
63875W        W32093  12.756  21.042   4.108
63876W        W32094   1.519  31.540   4.136
63877W        W32095  10.192   6.353  11.007
63878W        W32096  38.333  20.346   4.373
63879W        W32097   4.865  13.902  14.660
63880W        W32098  43.379  28.541  11.176
63881W        W32099  34.085  35.642   1.025
63882W        W32100   6.266  40.665  11.504
63883W        W32101  28.908  20.810   1.721
63884W        W32102  38.569  27.211   3.570
63885W        W32103  15.175  16.171  10.138
63886W        W32104  32.415  35.121  10.117
63887W        W32105  35.231  30.946  11.167
63888W        W32106   8.481  10.267   5.081
63889W        W32107  12.722  34.005  13.719
63890W        W32108   0.453  30.577   4.937
63891W        W32109  15.615   9.798  14.753
63892W        W32110  11.253  19.345   0.818
63893W        W32111  29.099  25.073   3.635
63894W        W32112  21.431  20.974   3.632
63895W        W32113  17.857   9.372   1.885
63896W        W32114   4.836  41.855   3.842
63897W        W32115  31.847   5.293   1.251
63898W        W32116  21.022  22.683   3.796
63899W        W32117   9.607  27.602   2.805
63900W        W32118  23.152  19.635  11.277
63901W        W32119  26.840  23.572   0.188
63902W        W32120  19.124   9.219  12.115
63903W        W32121  41.569  39.445  10.591
63904W        W32122  40.579  11.805  11.131
63905W        W32123   3.229  19.481   2.798
63906W        W32124  25.132  44.627   1.829
63907W        W32125  12.706   1.733  12.878
63908W        W32126  12.887   9.446  14.591
63909W        W32127  23.854  34.801  13.108
63910W        W32128  38.821  13.220   1.164
63911W        W32129  20.735  38.803   4.715
63912W        W32130  41.334  37.274  13.560
63913W        W32131  29.586  30.267  11.399
63914W        W32132  44.404  11.156   4.810
63915W        W32133   1.805  29.519   4.976
63916W        W32134   1.940  40.320  12.696
63917W        W32135  40.931  38.305  11.549
63918W        W32136   8.750   9.950  14.933
63919W        W32137  38.511  35.811   3.281
63920W        W32138  16.893  20.541   4.602
63921W        W32139  18.616  38.834   4.119
63922W        W32140  26.186  24.751   0.701
63923W        W32141  37.262  27.000   1.367
63924W        W32142  43.596  23.724  11.695
63925W        W32143  41.064   9.849   4.388
63926W        W32144  35.741  18.087  11.084
63927W        W32145  23.455  34.536  12.866
63928W        W32146  34.916   9.868   4.014
63929W        W32147  21.765  24.211  10.717
63930W        W32148  21.831  37.351  10.289
63931W        W32149  32.232  27.677  12.960
63932W        W32150  26.655   2.942   3.663
63933W        W32151  34.506   3.730   2.412
63934W        W32152  22.522  20.556   3.137
63935W        W32153   9.921  27.463   0.486
63936W        W32154   9.583  39.502  11.416
63937W        W32155  14.248  16.315   3.034
63938W        W32156   6.788  27.754   4.385
63939W        W32157  12.426  40.245  13.649
63940W        W32158  34.167  33.570   1.891
63941W        W32159  21.673  23.031   0.237
63942W        W32160   5.346   0.765  13.910
63943W        W32161   1.024  30.173  10.787
63944W        W32162  44.966  42.855  13.517
63945W        W32163  11.266   8.328   3.954
63946W        W32164   0.492  31.928  11.079
63947W        W32165   6.734   5.177   4.825
63948W        W32166  11.152  39.897   1.737
63949W        W32167   1.653   8.533   1.368
63950W        W32168  11.829   8.375   4.829
63951W        W32169  42.860   0.500  11.194
63952W        W32170  39.363  30.437  11.973
63953W        W32171  39.919  26.032   3.760
63954W        W32172  28.573   5.341   5.067
63955W        W32173  26.714  37.639   0.351
63956W        W32174  37.863  12.357   0.932
63957W        W32175  28.411  18.806   3.986
63958W        W32176  26.694  14.272   4.483
63959W        W32177  16.297   8.769   0.251
63960W        W32178   7.196  37.589  10.501
63961W        W32179   2.248  30.525   2.191
63962W        W32180  15.855  11.305  14.848
63963W        W32181  19.712   0.944   2.684
63964W        W32182  12.001  16.520   2.183
63965W        W32183  32.810  30.087  13.970
63966W        W32184   9.863  14.815  11.057
63967W        W32185  36.379   2.973   2.810
63968W        W32186  42.543  23.270   1.738
63969W        W32187  26.693  43.478   2.829
63970W        W32188  39.573   3.182   0.030
63971W        W32189  37.794  25.128  14.757
63972W        W32190  20.268  28.020   4.695
63973W        W32191  33.345  16.564   4.180
63974W        W32192  24.252   2.013   2.657
63975W        W32193  13.027  24.985   2.629
63976W        W32194  14.369  19.182  11.657
63977W        W32195  42.372  19.526  12.914
63978W        W32196  10.158  12.652   3.472
63979W        W32197  41.908  20.102   3.898
63980W        W32198  34.061  10.018  12.026
63981W        W32199   1.969  25.431  14.962
63982W        W32200  18.769  20.084   1.912
63983W        W32201  18.180  41.431   4.091
63984W        W32202  28.645   9.113   0.157
63985W        W32203   4.612   9.981   1.762
63986W        W32204  29.524  17.019  11.243
63987W        W32205  12.512  42.905  11.963
63988W        W32206  36.328  23.036  14.955
63989W        W32207  31.993  33.193  12.914
63990W        W32208  32.957  24.542  11.343
63991W        W32209  42.039  27.079   0.917
63992W        W32210  24.225  34.175   1.394
63993W        W32211  12.734  18.048  12.508
63994W        W32212  19.826  22.218  13.843
63995W        W32213  43.478  11.870   4.733
63996W        W32214  34.881   3.863   4.297
63997W        W32215  28.007  32.933   0.833
63998W        W32216  15.731   0.161   4.073
63999W        W32217  28.484  22.438   0.397
64000W        W32218  15.981  27.840  14.539
64001W        W32219  15.712   0.793  11.027
64002W        W32220   1.213   9.507   4.178
64003W        W32221   6.869  23.658   4.675
64004W        W32222  27.529  32.496  10.743
64005W        W32223  23.998   5.690   1.869
64006W        W32224   1.038  29.184  12.986
64007W        W32225   5.733  25.781   3.393
64008W        W32226   5.363  20.530   1.891
64009W        W32227  29.393  28.612  11.529
64010W        W32228  43.949  13.636  12.375
64011W        W32229  35.431   1.249  14.510
64012W        W32230  40.357  14.193  11.942
64013W        W32231  35.326  31.891  12.121
64014W        W32232  10.292  30.363   0.807
64015W        W32233  42.325  38.963  11.432
64016W        W32234  30.457  28.511  11.504
64017W        W32235  13.060  19.090   4.188
64018W        W32236  23.262  16.732   3.536
64019W        W32237   4.428   1.385   1.798
64020W        W32238  14.082  22.089   3.764
64021W        W32239  28.638  11.269  12.815
64022W        W32240  11.684  31.778   4.166
64023W        W32241   5.483  10.754   0.774
64024W        W32242  28.561   4.183  10.474
64025W        W32243   0.676  44.229   2.902
64026W        W32244   9.844  42.342   1.196
64027W        W32245   7.416  16.252   2.923
64028W        W32246  17.570  13.671   0.973
64029W        W32247  22.757  33.807   4.601
64030W        W32248  27.125  22.228   4.063
64031W        W32249  43.848  33.604  11.155
64032W        W32250  15.050  37.929  11.924
64033W        W32251  18.496  23.156   3.106
64034W        W32252  33.500   6.291  13.547
64035W        W32253  44.069   1.744  12.514
64036W        W32254  24.046  27.517   1.387
64037W        W32255  11.840   8.324  12.323
64038W        W32256  30.871   7.164   2.269
64039W        W32257  40.950   9.595   1.791
64040W        W32258  43.107  35.990   0.130
64041W        W32259  37.421  20.362  11.535
64042W        W32260   3.451  22.997   0.947
64043W        W32261   2.517  12.317   4.900
64044W        W32262  38.985  22.155  13.733
64045W        W32263  19.106  40.737  12.868
64046W        W32264  40.320  36.090   4.294
64047W        W32265  13.277   2.873  13.851
64048W        W32266  21.710  21.447   2.360
64049W        W32267  14.772  42.464   2.933
64050W        W32268  27.071  17.692  12.387
64051W        W32269  25.103  13.148   4.037
64052W        W32270  36.221   2.914   1.790
64053W        W32271  22.615  36.106   1.275
64054W        W32272   2.974  36.626   2.710
64055W        W32273  43.741  40.165  13.994
64056W        W32274   7.246  43.864  11.679
64057W        W32275  40.665  14.759   4.146
64058W        W32276  40.570  16.109   3.185
64059W        W32277  19.062  39.944   3.727
64060W        W32278  44.965  15.704   4.927
64061W        W32279   5.785  25.353   1.106
64062W        W32280  11.847  41.598  14.524
64063W        W32281  18.535  34.093  10.415
64064W        W32282  28.956  22.695  12.164
64065W        W32283  21.239  41.250  11.643
64066W        W32284   8.973   2.366  14.031
64067W        W32285  22.218  39.907   3.447
64068W        W32286  33.185  25.495   4.731
64069W        W32287  12.767  12.060  14.786
64070W        W32288  20.612  33.436  11.944
64071W        W32289  23.957  22.217  11.153
64072W        W32290  21.709  17.966   2.472
64073W        W32291  32.828   5.358  14.781
64074W        W32292  40.612  20.012   2.453
64075W        W32293  25.049  26.114  14.478
64076W        W32294  44.266  21.787   0.396
64077W        W32295   2.951   4.492   0.765
64078W        W32296  24.651  21.525  12.009
64079W        W32297  38.096  34.152  14.099
64080W        W32298  43.365   0.031  11.360
64081W        W32299  28.027   5.907   4.842
64082W        W32300  44.872   2.947   2.860
64083W        W32301   5.234  20.471  10.534
64084W        W32302  32.865  44.597  12.520
64085W        W32303  35.098  44.812   0.897
64086W        W32304  44.412  22.031  14.498
64087W        W32305  14.033   1.840   4.056
64088W        W32306  25.227  37.510  14.889
64089W        W32307  40.112  26.190  13.489
64090W        W32308  20.447  38.140  10.775
64091W        W32309  36.794   4.435  11.692
64092W        W32310  19.739   1.259   3.235
64093W        W32311  27.443   5.866   0.593
64094W        W32312  35.135  14.378  11.130
64095W        W32313  31.347  37.053  14.987
64096W        W32314   7.040  29.552  12.079
64097W        W32315   4.828  35.874  11.385
64098W        W32316  43.688  39.651  13.150
64099W        W32317   9.256  16.175  13.588
64100W        W32318   4.864  16.684   1.919
64101W        W32319  28.061   9.739   0.897
64102W        W32320   1.719  25.702   1.829
64103W        W32321  35.450  24.573   2.129
64104W        W32322  39.216  13.650   0.513
64105W        W32323  35.138  32.594   1.817
64106W        W32324   4.961  22.866  14.400
64107W        W32325  10.225  42.499   1.499
64108W        W32326  35.963  16.668  14.428
64109W        W32327  43.390  41.079   3.084
64110W        W32328   8.304  37.751   3.611
64111W        W32329   8.297  22.005  12.134
64112W        W32330   3.590  20.541   2.024
64113W        W32331   9.395  19.944  12.359
64114W        W32332  15.441   6.664  12.604
64115W        W32333  40.705  11.611   5.339
64116W        W32334  29.366  40.010   1.898
64117W        W32335  19.120  35.109  12.892
64118W        W32336  40.533  27.679   2.485
64119W        W32337  30.873  41.246   4.060
64120W        W32338  18.015   4.361  13.850
64121W        W32339  21.120  35.405   2.688
64122W        W32340  25.718  34.003  13.797
64123W        W32341  33.927  19.021   1.780
64124W        W32342  34.523  16.612   2.646
64125W        W32343  31.999   2.873   4.804
64126W        W32344   7.659  19.881  11.088
64127W        W32345  29.913  36.756  11.363
64128W        W32346  10.908  33.566   3.780
64129W        W32347  11.302  35.573  13.051
64130W        W32348  40.244  41.233   2.349
64131W        W32349  27.509  14.618   3.961
64132W        W32350   6.671  29.996   1.279
64133W        W32351  37.293  36.044   3.569
64134W        W32352  10.461  33.209  13.325
64135W        W32353   2.761  17.155  13.887
64136W        W32354  26.146  40.282   2.251
64137W        W32355   2.880  33.431  14.375
64138W        W32356   2.460  33.092  11.456
64139W        W32357  17.323   2.037   0.764
64140W        W32358   7.738   1.192  14.393
64141W        W32359  16.006   4.449  10.765
64142W        W32360  33.100  27.101  14.750
64143W        W32361  11.123  28.483  11.108
64144W        W32362  18.498   5.305   2.464
64145W        W32363  33.652  26.032   2.629
64146W        W32364   3.576  20.868   0.320
64147W        W32365   9.990  15.310  10.951
64148W        W32366  10.233   4.733   4.553
64149W        W32367  30.431   7.266   0.900
64150W        W32368  25.984  15.530   3.657
64151W        W32369  23.285  11.817  12.608
64152W        W32370  27.379  35.648   0.919
64153W        W32371  38.704  41.509   4.324
64154W        W32372   1.136  24.569  14.124
64155W        W32373  24.737   6.702  11.642
64156W        W32374  34.401   5.078   1.331
64157W        W32375   5.220  35.352   0.302
64158W        W32376  10.612  38.497  12.845
64159W        W32377  17.845  16.834   0.882
64160W        W32378  15.557  25.548   0.262
64161W        W32379  33.148   4.418  13.040
64162W        W32380  28.430  34.370   3.714
64163W        W32381  32.960   9.264   4.629
64164W        W32382  34.921  44.387   4.119
64165W        W32383   9.930  32.700   4.505
64166W        W32384  25.887  39.411   2.002
64167W        W32385  41.505  22.745  10.639
64168W        W32386   2.835  23.993   0.325
64169W        W32387  27.048  29.400  10.755
64170W        W32388  29.643   8.039  11.734
64171W        W32389  34.328  41.979   4.515
64172W        W32390  16.633  41.667  14.913
64173W        W32391  37.461  17.097   0.732
64174W        W32392   4.779  35.071   0.279
64175W        W32393   7.193  32.092   4.236
64176W        W32394   8.881  10.924  14.099
64177W        W32395  17.115   1.843   2.892
64178W        W32396  23.759   8.614  12.368
64179W        W32397   4.785   5.306   1.382
64180W        W32398  31.839  32.026   4.991
64181W        W32399  27.085   9.848  13.706
64182W        W32400  22.002  14.012  10.576
64183W        W32401  42.389  20.211   1.788
64184W        W32402  11.369  37.410  12.457
64185W        W32403  24.684  16.776  14.845
64186W        W32404   9.663  21.764   4.519
64187W        W32405   2.782  35.325  12.004
64188W        W32406   7.715  23.796   3.408
64189W        W32407  44.553  20.900  12.321
64190W        W32408  21.592  18.612   1.136
64191W        W32409  37.277   7.790   4.523
64192W        W32410  27.958  12.683  14.362
64193W        W32411  21.694  11.773  13.997
64194W        W32412  38.859  34.009   3.430
64195W        W32413  19.685  29.895   0.776
64196W        W32414  26.896  32.584  12.960
64197W        W32415  18.476   1.177   4.880
64198W        W32416   3.474  41.974   3.728
64199W        W32417  42.381   2.522   4.621
64200W        W32418  15.229  26.698  14.794
64201W        W32419   6.963  14.761   0.758
64202W        W32420  31.972   2.202  10.675
64203W        W32421  27.212  19.995  11.909
64204W        W32422  41.751  40.595   1.762
64205W        W32423   1.065  19.384  10.379
64206W        W32424  41.297  32.047   5.025
64207W        W32425   0.572  18.468  13.533
64208W        W32426  37.732  44.990  10.511
64209W        W32427  12.605   2.497   4.249
64210W        W32428  33.587  17.494   0.346
64211W        W32429  22.477   5.170  14.749
64212W        W32430  37.745  35.499  13.472
64213W        W32431   9.314  16.608   3.117
64214W        W32432  17.792  11.838  12.979
64215W        W32433  32.061  30.733   0.807
64216W        W32434  43.843   8.407  14.956
64217W        W32435  25.563  19.020   1.448
64218W        W32436   0.284  34.411   4.270
64219W        W32437  11.019   2.536   3.974
64220W        W32438   6.694  16.340   3.216
64221W        W32439  23.743  27.584  14.907
64222W        W32440  18.299   3.888  14.840
64223W        W32441  33.058  37.861   4.329
64224W        W32442  43.369  41.585  14.407
64225W        W32443  40.334  32.034   0.488
64226W        W32444  38.951  21.559  11.602
64227W        W32445  43.820  27.472  13.433
64228W        W32446   8.938   7.289   0.295
64229W        W32447   6.926  41.097   2.243
64230W        W32448  29.964  36.742   4.272
64231W        W32449  33.642  21.570  14.959
64232W        W32450  23.097  30.210   3.924
64233W        W32451   9.739   2.655   2.169
64234W        W32452  10.700  12.176  12.383
64235W        W32453  12.105  38.885   3.270
64236W        W32454  42.353  42.830   1.390
64237W        W32455  44.708  25.045  14.400
64238W        W32456   7.171   9.693  11.339
64239W        W32457  21.057   2.300   4.068
64240W        W32458  38.794  18.039   4.299
64241W        W32459   7.361   4.318   3.692
64242W        W32460  16.980  36.591  14.914
64243W        W32461  42.427  12.271  13.836
64244W        W32462   2.258   1.835   2.686
64245W        W32463  12.835  31.045  11.354
64246W        W32464  11.683   8.138   0.144
64247W        W32465  38.063   7.241  11.912
64248W        W32466  20.533  26.629  14.578
64249W        W32467  38.097  34.245   0.706
64250W        W32468  33.460  27.709   0.491
64251W        W32469  18.786  28.964  12.183
64252W        W32470  38.787  17.926  13.858
64253W        W32471  37.489  23.586   0.543
64254W        W32472  10.048  10.363  11.102
64255W        W32473  44.237  34.459  14.743
64256W        W32474   3.233  42.931   4.119
64257W        W32475   8.455  28.328  13.027
64258W        W32476  23.716  33.954   0.344
64259W        W32477  21.573  17.383   3.701
64260W        W32478  41.325  33.031   3.929
64261W        W32479  28.985  31.039   1.647
64262W        W32480  33.481   6.170  14.868
64263W        W32481  37.865  17.565   3.447
64264W        W32482  17.078  25.756   4.192
64265W        W32483  41.054  39.569   1.726
64266W        W32484  19.256  35.396   0.720
64267W        W32485  11.404   4.784  10.475
64268W        W32486  36.003  41.912  14.247
64269W        W32487  14.532  32.566  11.860
64270W        W32488  42.823  14.051  14.928
64271W        W32489  11.310  16.803  13.072
64272W        W32490   0.900  25.349   3.612
64273W        W32491  42.448  26.096  14.649
64274W        W32492  33.602   1.907   2.132
64275W        W32493  19.556   7.859   1.270
64276W        W32494  21.881  38.932  13.319
64277W        W32495  44.738   2.453   4.708
64278W        W32496  12.755  32.494   1.615
64279W        W32497   3.211  20.333   4.536
64280W        W32498  25.706  28.991  11.623
64281W        W32499  41.250   0.467  12.462
64282W        W32500  42.850  40.057  12.909
64283W        W32501  30.589   7.844  13.901
64284W        W32502  20.008   3.802  13.785
64285W        W32503   3.792  26.946  11.101
64286W        W32504  35.143  26.558   5.241
64287W        W32505   6.879  31.357   3.913
64288W        W32506  44.286  21.663  11.576
64289W        W32507  37.085   6.725  13.804
64290W        W32508  22.195  27.141  10.769
64291W        W32509  31.098   2.823   4.642
64292W        W32510   9.138  30.504  11.460
64293W        W32511  11.785   2.458   3.274
64294W        W32512  11.645  18.262   3.354
64295W        W32513  40.863   9.611   0.775
64296W        W32514  10.331  21.143   4.367
64297W        W32515  16.097  19.922   3.719
64298W        W32516  36.512  22.254   4.259
64299W        W32517   5.132  42.281   4.036
64300W        W32518   6.115  42.442  12.596
64301W        W32519   2.182  36.771   5.140
64302W        W32520   1.235  11.787   1.225
64303W        W32521  38.150  15.175   4.120
64304W        W32522  24.892  22.148  11.910
64305W        W32523  42.949  30.075   1.632
64306W        W32524  21.064  19.608   3.986
64307W        W32525  40.059  44.672   2.758
64308W        W32526  21.946  40.274   3.651
64309W        W32527  40.550  44.932  13.596
64310W        W32528  17.417  23.292   0.251
64311W        W32529  20.145  34.845  12.459
64312W        W32530  32.495   6.873   1.855
64313W        W32531   4.518  16.943  14.980
64314W        W32532  26.686  33.405   1.777
64315W        W32533   7.235  12.483  11.585
64316W        W32534  17.157  18.281   1.485
64317W        W32535  24.945  11.552   0.117
64318W        W32536  19.656  19.580   3.771
64319W        W32537  17.171  27.733   4.071
64320W        W32538  35.708   9.784   1.260
64321W        W32539  13.033  39.344  13.517
64322W        W32540  38.697  35.450   0.312
64323W        W32541  21.519  14.647   1.251
64324W        W32542  18.113  34.914  14.735
64325W        W32543   4.891   2.041  11.983
64326W        W32544  29.031   8.274   2.440
64327W        W32545  25.968  21.767  14.367
64328W        W32546  23.080  21.840  13.406
64329W        W32547  12.124  27.062   3.623
64330W        W32548   1.880  10.142  10.599
64331W        W32549  19.376  21.086  12.207
64332W        W32550  12.669  24.064   0.411
64333W        W32551  17.078  37.913   1.979
64334W        W32552  17.102   8.322  11.896
64335W        W32553  13.445  41.039  11.609
64336W        W32554  32.374  33.208   2.904
64337W        W32555  20.213  33.586   4.248
64338W        W32556  25.430  10.100  10.310
64339W        W32557  40.337  27.246  10.394
64340W        W32558   3.616  28.990  14.273
64341W        W32559  16.769   0.026   2.421
64342W        W32560   3.489   2.222   3.831
64343W        W32561  31.478  16.747   0.261
64344W        W32562  29.670  33.311   9.943
64345W        W32563  34.950  11.652   2.775
64346W        W32564  26.190  24.707   3.048
64347W        W32565  26.618  44.569  12.895
64348W        W32566  21.100   9.712  13.343
64349W        W32567  21.998   7.822  14.209
64350W        W32568   3.914  16.581   3.582
64351W        W32569   4.831  12.057   3.232
64352W        W32570  23.989  14.330   0.880
64353W        W32571  19.544  11.157   0.836
64354W        W32572  35.362   2.041  14.425
64355W        W32573  29.226  35.504  13.296
64356W        W32574  25.480  10.525   4.310
64357W        W32575  41.853   7.044   0.944
64358W        W32576  38.458  37.762  12.959
64359W        W32577  26.710  39.054  12.154
64360W        W32578  27.731  43.010  11.497
64361W        W32579  14.166  38.646  11.260
64362W        W32580  41.445  36.281  13.735
64363W        W32581   2.143  20.154  10.806
64364W        W32582  40.964   8.353   1.336
64365W        W32583  34.109  40.344  10.332
64366W        W32584  25.066  21.072  14.330
64367W        W32585  25.295  22.029  10.972
64368W        W32586  24.733  19.034   0.071
64369W        W32587  12.392  12.028  13.486
64370W        W32588   0.311  10.064  11.418
64371W        W32589  10.230  29.122  11.078
64372W        W32590  30.327  27.952   1.264
64373W        W32591  19.365  33.354  12.882
64374W        W32592  15.912  31.031   1.912
64375W        W32593   0.285  35.695   1.908
64376W        W32594  13.658   6.151   0.259
64377W        W32595  11.226   0.270  12.103
64378W        W32596  23.217  38.346  12.025
64379W        W32597   3.773  11.652  10.367
64380W        W32598  38.936  27.627   4.651
64381W        W32599  26.634   8.343  12.025
64382W        W32600  18.034   6.881   4.031
64383W        W32601   9.767  34.886   2.794
64384W        W32602  12.796  25.640   2.004
64385W        W32603  38.811  11.438  10.781
64386W        W32604   8.411  41.504   4.205
64387W        W32605  44.909  18.617   3.007
64388W        W32606  33.191  13.907  12.123
64389W        W32607  31.094  13.641   3.192
64390W        W32608  24.126  16.085  12.825
64391W        W32609  20.678  19.082  13.316
64392W        W32610  24.682  17.734  13.111
64393W        W32611   5.210  37.937   2.313
64394W        W32612  35.484  23.478  12.946
64395W        W32613  42.889   8.908   0.771
64396W        W32614  43.485  11.358   3.285
64397W        W32615  43.244   8.968   3.325
64398W        W32616  30.900  30.085  12.553
64399W        W32617  34.851  30.274  13.393
64400W        W32618  44.370   7.752  10.965
64401W        W32619  15.045   3.229  14.179
64402W        W32620  27.715  37.709   3.615
64403W        W32621   1.240  29.794  14.447
64404W        W32622  39.433  14.740   2.732
64405W        W32623   4.272  43.960  14.922
64406W        W32624  14.258  12.381  12.470
64407W        W32625  29.185  36.342  12.472
64408W        W32626  42.750   8.241  11.039
64409W        W32627  27.930  37.577  12.346
64410W        W32628  18.072  34.440   3.381
64411W        W32629  40.354   1.539   4.977
64412W        W32630  18.109  43.440   3.743
64413W        W32631  35.505  14.247  12.609
64414W        W32632   2.981  29.371  13.074
64415W        W32633  28.357  28.568   2.415
64416W        W32634  30.595   7.668  10.620
64417W        W32635  14.843  37.473   0.856
64418W        W32636  14.281  38.067   3.951
64419W        W32637  12.644  22.689   1.962
64420W        W32638   7.202  33.528   3.711
64421W        W32639  40.617  36.469  10.446
64422W        W32640   8.770  21.509   0.862
64423W        W32641  24.722  42.363  14.429
64424W        W32642  32.914  16.711   0.549
64425W        W32643  34.036  30.510  14.930
64426W        W32644  13.167  34.513   0.309
64427W        W32645  22.133  30.201   3.861
64428W        W32646  33.900  31.207   4.059
64429W        W32647  40.700  26.648   3.257
64430W        W32648  18.432  25.281  10.972
64431W        W32649   6.632  13.324  11.044
64432W        W32650   6.755   6.471  10.686
64433W        W32651   0.413  23.555  13.229
64434W        W32652  30.423  31.374  14.705
64435W        W32653   3.249  20.774   2.367
64436W        W32654  18.264   5.899   2.204
64437W        W32655  29.862  12.349   0.828
64438W        W32656  21.180   4.522   4.899
64439W        W32657   2.437  39.562   0.892
64440W        W32658  20.816  11.541  11.206
64441W        W32659  36.957  27.691  12.421
64442W        W32660  24.094  27.325   4.136
64443W        W32661  43.556  31.423  14.205
64444W        W32662  32.088  34.097  12.590
64445W        W32663  26.483   5.885  12.825
64446W        W32664  35.468  29.593   1.859
64447W        W32665  12.813  36.800   4.179
64448W        W32666  32.369  39.832   1.883
64449W        W32667  31.425  13.748   0.250
64450W        W32668  26.527  39.963   4.695
64451W        W32669  21.522  35.797  10.441
64452W        W32670  28.551   4.834  14.583
64453W        W32671  14.123   1.220  14.628
64454W        W32672  26.793   4.281   1.312
64455W        W32673  33.397  39.631   1.305
64456W        W32674  16.130  42.300   3.246
64457W        W32675  43.507  26.145   4.098
64458W        W32676  15.052  42.857  12.603
64459W        W32677  23.037  11.533   0.510
64460W        W32678   0.535  36.148   1.958
64461W        W32679   7.815  14.752  10.549
64462W        W32680   1.568  43.463  13.037
64463W        W32681  43.740  42.979   4.098
64464W        W32682  28.497  29.472  14.596
64465W        W32683   1.241   1.206  13.462
64466W        W32684  22.568  19.007  12.131
64467W        W32685   6.042   6.406   3.372
64468W        W32686  40.484   4.848   1.879
64469W        W32687   0.013  12.480  13.941
64470W        W32688  44.424  41.272  10.189
64471W        W32689  37.973  26.404   1.968
64472W        W32690  15.286  44.511   2.284
64473W        W32691  37.097  38.061  11.992
64474W        W32692  32.835  40.431  11.221
64475W        W32693   2.108   0.245  10.945
64476W        W32694   2.436  17.222   4.557
64477W        W32695  20.841  36.364  10.301
64478W        W32696   9.976  19.687  10.842
64479W        W32697  15.580  29.430   4.385
64480W        W32698  13.770  21.617  10.471
64481W        W32699   3.771  12.313   0.791
64482W        W32700   0.699   3.936  14.787
64483W        W32701   6.758  11.210   4.537
64484W        W32702   6.988  20.991  11.655
64485W        W32703  15.410   3.307  12.970
64486W        W32704   8.332   1.739  14.792
64487W        W32705  43.878  10.328  13.500
64488W        W32706  20.709   6.197  11.585
64489W        W32707  21.993  17.647  11.616
64490W        W32708   6.711  22.247  14.994
64491W        W32709  26.314  18.780  14.479
64492W        W32710  22.153  18.072   0.840
64493W        W32711  42.803   6.984  10.600
64494W        W32712  10.591   1.346  10.714
64495W        W32713  12.845  29.205   1.453
64496W        W32714   1.182  25.489   0.833
64497W        W32715   7.329  30.359   3.214
64498W        W32716  12.107  35.900   1.802
64499W        W32717  30.946  27.449  11.584
64500W        W32718  30.022   6.583   4.043
64501W        W32719  26.209  42.006   3.469
64502W        W32720  29.013  34.142  14.799
64503W        W32721   6.921  37.335   0.573
64504W        W32722  42.087  19.684   4.165
64505W        W32723  10.436  23.093  10.785
64506W        W32724  20.989  33.916   3.525
64507W        W32725   0.277  39.970   3.276
64508W        W32726  37.038  16.697  12.487
64509W        W32727   7.784  29.296  14.174
64510W        W32728  17.433  22.961  11.558
64511W        W32729  19.576  15.472   3.766
64512W        W32730  16.088  37.387  14.277
64513W        W32731  23.540  15.799  13.968
64514W        W32732  34.920  15.793   3.808
64515W        W32733  35.541  43.399  12.508
64516W        W32734  17.029  18.693  14.334
64517W        W32735   3.480  30.568  11.434
64518W        W32736  16.531  18.578  14.347
64519W        W32737  15.291   1.736  14.480
64520W        W32738  15.305  40.028   0.825
64521W        W32739   4.431   3.711  14.058
64522W        W32740  19.969  37.778  10.946
64523W        W32741  41.773  34.826   4.298
64524W        W32742  24.988  26.953  11.235
64525W        W32743  22.459  12.784  12.916
64526W        W32744  41.869  40.290   2.425
64527W        W32745  33.642   2.695  11.037
64528W        W32746  32.954  11.621   0.541
64529W        W32747   2.891   3.964  14.844
64530W        W32748  37.010  11.944  12.554
64531W        W32749  16.391  17.659   1.808
64532W        W32750  11.815  26.970  12.837
64533W        W32751  34.213  39.338   3.721
64534W        W32752   8.640  43.386   5.044
64535W        W32753  42.357   2.439   1.306
64536W        W32754   3.519  17.145   0.287
64537W        W32755  21.154  44.916   4.664
64538W        W32756  35.503  18.060   0.447
64539W        W32757   0.826   1.244  12.516
64540W        W32758  24.478  30.613  12.990
64541W        W32759  26.808  39.956  13.362
64542W        W32760  32.568  30.075  11.200
64543W        W32761  41.785   4.886   3.347
64544W        W32762  23.029   9.639  13.474
64545W        W32763   6.035   6.223   1.615
64546W        W32764  13.294  44.007   0.310
64547W        W32765  28.101  28.620   1.984
64548W        W32766  35.438  30.930   3.240
64549W        W32767  32.888   9.804  12.193
64550W        W32768  34.694  26.587  13.279
64551W        W32769  37.994  15.547   2.251
64552W        W32770  18.962  37.005   4.058
64553W        W32771  35.184  15.261  10.990
64554W        W32772   6.194  44.060  14.518
64555W        W32773  33.845  42.505  10.695
64556W        W32774   8.692  37.945   4.582
64557W        W32775  13.875  38.493  10.482
64558W        W32776  41.868  18.386   0.195
64559W        W32777  22.116  16.620   1.433
64560W        W32778   9.968  42.598  12.834
64561W        W32779  10.617   4.708   1.325
64562W        W32780  35.937  10.601  14.798
64563W        W32781  15.743  32.933  12.562
64564W        W32782  40.870  24.690   4.659
64565W        W32783  26.472  22.641  12.443
64566W        W32784  10.901  31.960   1.372
64567W        W32785   5.871  25.764  11.611
64568W        W32786  25.475   6.424   1.216
64569W        W32787  38.047   5.531  12.054
64570W        W32788   0.861  36.913  14.268
64571W        W32789  31.563  35.344   1.424
64572W        W32790  42.515  20.763   4.056
64573W        W32791  33.491   0.747  13.970
64574W        W32792  35.154  29.793  14.894
64575W        W32793  22.441   1.871  11.136
64576W        W32794  37.291   3.148  10.976
64577W        W32795   5.468  10.208   4.157
64578W        W32796   5.854   6.805   4.354
64579W        W32797  22.447  33.365  14.423
64580W        W32798  39.570  19.013  12.889
64581W        W32799  28.669  34.811   0.442
64582W        W32800  13.197  23.170   3.437
64583W        W32801  15.063   0.288   2.418
64584W        W32802   0.617  38.877  11.089
64585W        W32803  23.206  39.479   4.599
64586W        W32804  21.332  10.378   3.823
64587W        W32805  36.416  37.000   3.125
64588W        W32806  39.233  28.647  13.269
64589W        W32807  34.136  20.621   0.981
64590W        W32808   3.933  35.798   2.663
64591W        W32809   1.984  44.416  13.937
64592W        W32810  25.857   6.620   3.792
64593W        W32811  32.582  26.953  14.302
64594W        W32812  35.708  33.649   0.309
64595W        W32813  14.163  16.358   0.630
64596W        W32814  10.197  17.309   0.825
64597W        W32815  44.152  22.233   3.283
64598W        W32816  40.349  18.679  13.430
64599W        W32817  28.134   8.600   2.275
64600W        W32818  20.458  17.882   1.342
64601W        W32819  22.233  32.339   1.436
64602W        W32820  12.694  28.649   4.326
64603W        W32821  31.033  27.619   0.467
64604W        W32822  42.013  16.102   0.010
64605W        W32823  28.515  37.597  13.439
64606W        W32824  43.881   9.375  14.556
64607W        W32825  43.435  12.626   4.084
64608W        W32826  20.091  44.419   2.657
64609W        W32827  37.097  12.668  14.882
64610W        W32828  30.362  22.939   4.008
64611W        W32829  11.689  44.811  14.434
64612W        W32830  27.574  36.501   1.001
64613W        W32831   7.852  29.632   2.699
64614W        W32832  26.838  36.275  11.516
64615W        W32833  32.651  36.960   0.853
64616W        W32834  10.747  33.100   3.672
64617W        W32835  18.710  33.900   4.021
64618W        W32836   8.914   3.864  13.504
64619W        W32837  37.766   8.316   4.362
64620W        W32838  25.357  44.999   3.596
64621W        W32839  16.226   1.943   1.415
64622W        W32840   9.613  22.589  11.696
64623W        W32841  22.005  14.220  14.805
64624W        W32842  35.123  18.602  11.430
64625W        W32843  22.094   9.290   4.623
64626W        W32844  20.626  35.558   4.161
64627W        W32845  20.759  17.343   4.292
64628W        W32846  31.210  13.206   3.436
64629W        W32847  23.286  32.758  13.439
64630W        W32848  36.930  39.946   4.060
64631W        W32849  35.327   0.665   2.926
64632W        W32850   3.701  24.053   3.188
64633W        W32851  17.709  27.002  12.199
64634W        W32852  44.444  27.117  13.112
64635W        W32853  32.558  40.446   4.607
64636W        W32854  34.866  38.784  10.739
64637W        W32855  43.936  14.816  14.525
64638W        W32856  27.138  25.254  14.523
64639W        W32857   3.842  39.929  10.918
64640W        W32858  38.920   9.461  12.605
64641W        W32859  32.401  11.779   0.890
64642W        W32860  17.316  23.101  13.921
64643W        W32861  42.503   4.701  11.130
64644W        W32862  23.271   3.846  12.901
64645W        W32863  16.953  42.233   4.376
64646W        W32864   8.436   1.939  12.584
64647W        W32865   9.124   5.012   2.187
64648W        W32866  24.590  32.093  12.572
64649W        W32867  12.285  11.308   1.926
64650W        W32868  39.467  31.658   4.107
64651W        W32869  26.784  34.061  11.689
64652W        W32870  15.353  13.123   3.654
64653W        W32871   1.018   8.381  12.414
64654W        W32872  44.075  25.517   0.242
64655W        W32873  42.860  30.920  13.785
64656W        W32874  32.358  25.857  13.850
64657W        W32875  21.314  21.516  13.625
64658W        W32876   0.016  43.352  12.963
64659W        W32877  42.822  40.266   1.381
64660W        W32878   1.280  37.923   3.050
64661W        W32879  37.909  30.109  14.284
64662W        W32880  43.996   2.922  11.623
64663W        W32881  25.572  13.864   9.878
64664W        W32882  35.831   1.231  14.855
64665W        W32883  19.647  19.503   1.836
64666W        W32884  21.023  11.387  12.896
64667W        W32885  37.169   1.426   3.734
64668W        W32886  26.536   1.882  10.678
64669W        W32887   6.209   7.548   2.744
64670W        W32888  37.919  42.287  12.128
64671W        W32889  44.938  17.144  12.945
64672W        W32890  19.400   6.364  14.747
64673W        W32891  11.246  15.863   4.684
64674W        W32892  18.464  34.553   1.650
64675W        W32893  39.953  13.542   4.357
64676W        W32894  18.017  18.598  12.386
64677W        W32895  28.725  15.180   1.983
64678W        W32896  34.876   6.271   3.408
64679W        W32897  28.778  36.535  12.736
64680W        W32898  38.834   2.228  13.524
64681W        W32899  24.451   6.557   2.917
64682W        W32900  43.312  27.991   3.760
64683W        W32901  37.389  21.624   2.311
64684W        W32902  32.562  31.920  14.812
64685W        W32903  19.095  14.392   4.139
64686W        W32904  39.302  44.514   2.306
64687W        W32905  23.669  44.018  11.680
64688W        W32906   4.327  22.408  12.850
64689W        W32907  36.282  31.441  11.541
64690W        W32908  22.116  19.072  13.780
64691W        W32909   8.730  16.840  12.023
64692W        W32910  37.111  19.623   2.648
64693W        W32911  24.005  13.425   2.059
64694W        W32912  23.571   0.394   3.798
64695W        W32913  42.772  20.744  11.393
64696W        W32914  41.800  14.653   2.797
64697W        W32915   8.385   5.703   3.788
64698W        W32916  33.795   5.948  13.239
64699W        W32917  19.118   9.941   4.558
64700W        W32918  38.538  29.942   1.661
64701W        W32919  30.467  30.473  14.641
64702W        W32920  31.414  30.453  14.199
64703W        W32921  33.345  19.809   5.033
64704W        W32922  12.988  40.454   3.844
64705W        W32923  11.374   4.274   3.715
64706W        W32924  42.748  16.544  13.775
64707W        W32925   2.030  12.440   4.666
64708W        W32926  27.262  22.485  13.518
64709W        W32927  23.180  13.966   2.837
64710W        W32928   6.218   9.855   3.616
64711W        W32929  33.668   3.238  14.400
64712W        W32930   4.940  15.784   2.675
64713W        W32931  41.061  10.701  14.882
64714W        W32932  26.307   5.964   3.221
64715W        W32933  29.487  18.290   4.999
64716W        W32934  11.642   7.148  11.315
64717W        W32935  23.641  37.217   0.451
64718W        W32936  18.799  38.426   3.196
64719W        W32937  30.636  39.834   2.260
64720W        W32938  26.078  12.043  13.371
64721W        W32939  31.894  22.061  11.886
64722W        W32940  17.542   6.142   3.125
64723W        W32941   3.256   5.014  12.324
64724W        W32942  33.129  22.591  14.316
64725W        W32943  27.649  31.912   2.403
64726W        W32944  29.212  33.190  13.608
64727W        W32945  17.045  37.089  10.775
64728W        W32946   3.941  10.404   1.256
64729W        W32947  31.940  25.110   1.527
64730W        W32948  14.771  31.451   2.374
64731W        W32949  29.386  13.697  12.862
64732W        W32950  33.974   2.236   0.265
64733W        W32951  27.504  30.331   4.240
64734W        W32952  22.162  37.978  12.497
64735W        W32953  39.050   7.627   3.641
64736W        W32954  23.190   0.318  13.984
64737W        W32955  21.683  39.385  13.244
64738W        W32956  31.525   3.666  14.764
64739W        W32957   9.248   6.441  11.042
64740W        W32958  24.248  35.614   2.712
64741W        W32959  13.656   5.685  11.163
64742W        W32960   0.499  21.998   0.626
64743W        W32961  28.761   5.005   3.431
64744W        W32962   8.910   1.973  11.474
64745W        W32963  20.982  34.382  13.033
64746W        W32964  44.765  31.645   2.278
64747W        W32965  23.081  13.352  13.962
64748W        W32966   7.308  16.243  12.561
64749W        W32967  25.131  13.609   1.188
64750W        W32968  16.799  39.041  13.253
64751W        W32969  12.394  17.932   3.234
64752W        W32970  44.701   6.316  10.952
64753W        W32971  26.693  12.179   0.537
64754W        W32972  15.665  38.203  14.898
64755W        W32973   0.522  44.501  10.892
64756W        W32974  26.978  22.084  13.312
64757W        W32975   4.943  40.014   0.434
64758W        W32976  15.019  13.560   5.499
64759W        W32977  25.158  23.287  12.443
64760W        W32978  43.316  44.364   3.241
64761W        W32979  15.718  41.015  12.594
64762W        W32980  32.131  35.498  14.335
64763W        W32981  34.870  25.110  10.111
64764W        W32982  21.961  31.216  11.089
64765W        W32983  34.016  41.846  11.758
64766W        W32984  34.222   7.277   3.281
64767W        W32985  43.499   3.751   4.350
64768W        W32986   3.827  28.704   2.953
64769W        W32987  14.705  38.448   4.616
64770W        W32988  21.646  37.589   9.472
64771W        W32989  25.223   2.371   0.314
64772W        W32990  14.866   0.931  13.957
64773W        W32991   9.357  33.285  11.855
64774W        W32992  11.534  34.773   4.148
64775W        W32993  41.751  12.081  11.610
64776W        W32994  12.891   5.772  13.716
64777W        W32995  12.774  40.540   3.358
64778W        W32996  39.082  24.492   3.793
64779W        W32997  21.405   5.059  11.965
64780W        W32998  17.566  21.215  10.733
64781W        W32999   5.409  39.492  13.808
64782W        W33000  37.459  26.958   4.300
64783W        W33001  21.714  34.616   1.375
64784W        W33002   3.527  14.776   3.649
64785W        W33003  20.888  43.884  11.580
64786W        W33004  12.674   5.948  11.933
64787W        W33005  36.074  24.457  13.529
64788W        W33006  15.196  18.304  14.731
64789W        W33007  43.963  20.079  13.407
64790W        W33008  25.203   9.788   2.345
64791W        W33009   2.668  26.682   2.559
64792W        W33010  23.213  19.990  13.094
64793W        W33011  16.477  38.268  13.060
64794W        W33012   9.060  20.496  12.593
64795W        W33013  30.485   4.460  12.232
64796W        W33014  36.554  36.837   1.236
64797W        W33015   8.989  23.546   4.623
64798W        W33016  34.026  11.085  14.513
64799W        W33017   9.780  26.980  11.651
64800W        W33018   7.284  13.840  13.915
64801W        W33019  31.969  36.305   1.046
64802W        W33020   5.711  22.560   2.195
64803W        W33021  12.527  42.188   5.065
64804W        W33022  20.640  28.465  11.931
64805W        W33023  25.219  19.169  14.938
64806W        W33024   5.453   2.994  14.259
64807W        W33025  22.012  34.646   2.682
64808W        W33026  22.078  13.721  11.731
64809W        W33027  28.448  17.687   1.254
64810W        W33028   3.723  29.818  12.607
64811W        W33029  38.879  20.961  12.433
64812W        W33030   9.750  37.334  13.534
64813W        W33031   5.745   3.847   0.873
64814W        W33032  17.764  30.996  11.437
64815W        W33033   4.297   2.021  14.431
64816W        W33034  20.507  10.757  10.635
64817W        W33035  44.745   2.374  12.028
64818W        W33036   3.417   0.252  13.595
64819W        W33037  15.597  15.249   1.344
64820W        W33038   9.145   2.835  13.896
64821W        W33039  18.527   6.284   1.173
64822W        W33040  32.039   5.103  11.682
64823W        W33041  30.550  39.839   4.599
64824W        W33042  35.315  29.421   4.298
64825W        W33043   6.214  27.149  13.768
64826W        W33044  44.269   4.807  13.022
64827W        W33045  37.316  10.224   4.336
64828W        W33046  25.665   5.295   4.835
64829W        W33047   9.102   0.307  10.760
64830W        W33048  12.344  18.963   4.832
64831W        W33049  32.704  41.543  11.055
64832W        W33050   5.422  22.179   2.403
64833W        W33051  18.763   9.788  14.418
64834W        W33052   7.157   8.975   3.967
64835W        W33053   7.777  32.895  13.855
64836W        W33054   6.496   2.667   0.835
64837W        W33055   5.695  23.056  14.872
64838W        W33056  27.543  31.565  10.550
64839W        W33057  36.414  20.608   0.931
64840W        W33058   5.007  17.548  13.882
64841W        W33059  43.104  43.064   1.818
64842W        W33060   1.891  26.354  13.816
64843W        W33061  10.547  34.802   1.006
64844W        W33062  30.439  43.950   0.253
64845W        W33063  32.085  41.733  11.945
64846W        W33064   8.155   9.436  13.286
64847W        W33065  39.807  28.988   0.187
64848W        W33066   4.328  11.387  14.511
64849W        W33067  32.865   2.821   0.129
64850W        W33068  39.544  26.962  10.423
64851W        W33069  25.151  41.268  12.069
64852W        W33070  16.363  37.067  12.945
64853W        W33071  40.027  22.442   2.266
64854W        W33072  23.943  19.400  10.944
64855W        W33073  34.610  14.613   1.387
64856W        W33074  36.396   2.763   2.291
64857W        W33075  17.773  14.255  13.500
64858W        W33076   3.822  25.550   2.834
64859W        W33077  42.921  33.199  11.484
64860W        W33078   2.319   9.610   4.109
64861W        W33079  27.163  32.315   2.672
64862W        W33080   2.319   4.519  13.131
64863W        W33081   9.003  18.419  14.727
64864W        W33082  31.861  43.495   4.193
64865W        W33083  17.178  12.709  13.028
64866W        W33084  16.330   7.281  12.942
64867W        W33085  32.128  29.573  12.353
64868W        W33086  12.430   5.510   3.367
64869W        W33087   1.546   3.779   0.729
64870W        W33088  33.124  43.046  11.656
64871W        W33089   2.962  21.936  14.830
64872W        W33090   6.538  18.824  11.037
64873W        W33091  39.155  35.399  14.443
64874W        W33092   4.264   2.396  11.255
64875W        W33093  18.906   9.724   4.126
64876W        W33094  15.125  34.143   1.276
64877W        W33095  41.471  18.260  12.015
64878W        W33096  26.403  15.086   3.204
64879W        W33097   4.100  16.197  11.210
64880W        W33098  13.136  38.680  11.901
64881W        W33099  38.149  41.812  12.103
64882W        W33100  36.941   5.656  12.493
64883W        W33101  22.347  33.535   0.922
64884W        W33102  38.835  17.747   3.864
64885W        W33103  33.623  39.849  13.079
64886W        W33104  24.490  32.934  10.800
64887W        W33105  31.146  16.104   1.211
64888W        W33106  21.172  32.165   9.993
64889W        W33107  36.045  32.912  10.655
64890W        W33108  25.748  24.633  12.653
64891W        W33109  19.167  32.054   3.316
64892W        W33110   7.689  25.145  14.673
64893W        W33111  21.026  42.317   4.629
64894W        W33112  28.212  24.246   4.646
64895W        W33113  21.048  20.669   4.017
64896W        W33114  31.806   3.126  14.378
64897W        W33115  20.797  44.191  13.924
64898W        W33116  17.301  26.247   0.308
64899W        W33117  36.041   2.412  14.121
64900W        W33118  27.982  18.957   2.625
64901W        W33119   4.188  22.219  13.768
64902W        W33120  12.171  31.366   1.911
64903W        W33121  27.347  13.327   5.423
64904W        W33122  13.606   0.794   1.712
64905W        W33123   6.203   9.677  13.401
64906W        W33124  41.896  39.821   2.283
64907W        W33125  33.157  34.867  11.192
64908W        W33126  41.485  38.275  12.120
64909W        W33127   2.256  20.118  14.843
64910W        W33128  19.835  21.666  11.170
64911W        W33129  43.351  12.091  10.161
64912W        W33130  31.439  12.191   2.953
64913W        W33131  41.477  16.116   3.285
64914W        W33132  14.867  32.684  11.490
64915W        W33133  30.598  33.015  12.557
64916W        W33134   6.537  25.543   4.542
64917W        W33135  12.372   3.937  14.324
64918W        W33136   8.419  27.469  11.156
64919W        W33137  12.237  24.722  11.125
64920W        W33138  16.539  28.487  12.533
64921W        W33139  31.077  31.500   0.396
64922W        W33140  19.245  11.829   3.813
64923W        W33141  12.901  31.618   2.881
64924W        W33142   4.204   1.709  12.984
64925W        W33143   6.756  18.673   4.142
64926W        W33144  31.001  39.991   0.830
64927W        W33145   0.182  34.890  10.746
64928W        W33146  36.094  31.133  11.943
64929W        W33147  18.523  11.780  13.806
64930W        W33148  25.541  33.908   0.219
64931W        W33149  12.345  21.255  13.552
64932W        W33150  39.055  41.588  13.038
64933W        W33151  31.105  11.886  11.988
64934W        W33152  15.577  10.385   0.866
64935W        W33153  37.362   9.886  10.593
64936W        W33154  19.200  37.093  12.976
64937W        W33155   2.049  41.064  14.531
64938W        W33156  39.846   2.991   3.341
64939W        W33157  19.470  40.317   4.618
64940W        W33158  25.613  21.757   3.602
64941W        W33159   1.365  10.757   4.103
64942W        W33160  39.781  43.141   4.235
64943W        W33161  29.977  43.106  11.069
64944W        W33162  23.248   5.679  10.484
64945W        W33163  22.218   0.676   4.130
64946W        W33164  34.595   6.280   4.337
64947W        W33165  41.413  41.634   0.555
64948W        W33166   7.001  32.159  10.872
64949W        W33167  24.180  37.577   0.843
64950W        W33168  43.221  44.427   4.182
64951W        W33169  16.820  44.928   1.209
64952W        W33170  15.883  36.734  14.704
64953W        W33171   6.708  29.481  11.224
64954W        W33172  18.508  26.453  12.564
64955W        W33173   8.821  20.092  10.278
64956W        W33174  14.049  22.074  13.196
64957W        W33175  32.071  17.189   4.066
64958W        W33176  41.479  10.578   2.700
64959W        W33177  12.521  44.600   0.432
64960W        W33178  34.816   8.332  14.949
64961W        W33179  26.232  33.126  12.407
64962W        W33180  19.791  13.609  13.553
64963W        W33181  13.197  24.004   1.731
64964W        W33182  41.829   0.685   2.275
64965W        W33183  29.630   2.468  11.118
64966W        W33184  43.892  16.183   4.683
64967W        W33185   4.504  33.544  12.529
64968W        W33186  34.184  21.050  14.258
64969W        W33187  38.449   9.937  14.302
64970W        W33188   8.549  20.170   0.721
64971W        W33189   3.306  26.990  14.935
64972W        W33190  43.526  31.429   2.616
64973W        W33191   5.350   5.218  13.508
64974W        W33192  27.468   0.511   4.134
64975W        W33193  16.604   9.870  11.105
64976W        W33194  20.716  39.207  12.943
64977W        W33195  44.576   8.760   1.700
64978W        W33196  33.890  37.367  11.809
64979W        W33197  40.455  40.052  11.763
64980W        W33198  15.702  22.152   4.856
64981W        W33199  20.590  13.722   9.799
64982W        W33200  25.206   2.350   0.843
64983W        W33201  23.166  12.276  11.104
64984W        W33202  10.824  36.976  14.078
64985W        W33203  30.029  24.477  10.538
64986W        W33204  40.320  21.182  11.520
64987W        W33205  19.432  35.469   1.974
64988W        W33206  13.915   1.521   0.981
64989W        W33207  15.411  42.073   3.852
64990W        W33208   0.947  31.187  12.570
64991W        W33209  21.101  28.491  11.049
64992W        W33210  30.468  41.998  11.552
64993W        W33211  10.706  16.029  11.386
64994W        W33212  30.948  20.706  13.823
64995W        W33213  43.718  34.086  10.338
64996W        W33214  25.036  13.744   4.566
64997W        W33215  22.986  18.682   3.252
64998W        W33216  27.082  37.860  11.969
64999W        W33217   1.701  19.705   4.363
65000W        W33218  40.136  37.146  14.308
65001W        W33219  43.000   3.341   0.646
65002W        W33220  27.545  17.482   3.263
65003W        W33221  22.329   2.057   3.178
65004W        W33222  32.315  13.666  10.533
65005W        W33223  44.309  29.891  14.960
65006W        W33224   1.523  23.226  10.722
65007W        W33225   9.208  28.547   2.228
65008W        W33226   5.507   5.218   3.289
65009W        W33227  14.274   8.708  13.347
65010W        W33228  31.459  28.044  12.006
65011W        W33229  27.859  31.046   2.892
65012W        W33230   7.619  42.046  12.477
65013W        W33231  22.224  42.887  11.898
65014W        W33232   9.368  13.152  12.486
65015W        W33233  11.658   9.018  11.695
65016W        W33234  26.014   3.524   2.900
65017W        W33235  39.764   5.385  11.585
65018W        W33236  13.800  40.173   4.114
65019W        W33237  23.938  10.591   4.898
65020W        W33238   7.360  11.721  12.010
65021W        W33239  11.622  37.107   0.480
65022W        W33240  13.384  42.474  13.368
65023W        W33241   5.592  34.410   1.328
65024W        W33242  27.447  38.953  12.782
65025W        W33243  40.089  30.459   2.344
65026W        W33244  27.538  34.042  10.676
65027W        W33245  42.126   0.310  14.428
65028W        W33246  14.647   0.993  12.532
65029W        W33247   5.764  38.709   2.294
65030W        W33248  29.209  44.568  12.378
65031W        W33249  25.799  39.788  13.434
65032W        W33250  27.921  35.084  14.851
65033W        W33251  20.254  23.468   1.860
65034W        W33252  28.915   5.776  12.860
65035W        W33253  44.590  15.289  12.457
65036W        W33254  12.307  31.235   2.389
65037W        W33255  29.712   3.794   0.329
65038W        W33256  42.194  15.100   1.873
65039W        W33257  25.650  24.017  13.390
65040W        W33258  42.290  13.113  11.412
65041W        W33259  16.690  44.940  11.082
65042W        W33260  31.453   1.404   1.261
65043W        W33261  19.581  11.437   1.277
65044W        W33262  12.198  27.149  10.811
65045W        W33263  29.859   1.580  12.380
65046W        W33264  35.871   7.861   0.236
65047W        W33265  39.392  30.843  12.308
65048W        W33266  18.521  34.676  11.872
65049W        W33267   1.668   9.291   0.260
65050W        W33268  12.974  43.475  12.506
65051W        W33269  12.560  43.924   0.858
65052W        W33270  25.066  25.238  13.554
65053W        W33271   8.946  31.498  13.025
65054W        W33272  36.026  17.696   4.126
65055W        W33273  38.447   8.970  10.682
65056W        W33274  22.168   4.687  13.827
65057W        W33275  30.647   1.389  10.732
65058W        W33276  27.254  34.505   0.816
65059W        W33277  10.630  38.116  14.823
65060W        W33278  43.729  38.878   3.764
65061W        W33279  16.093   5.774   2.134
65062W        W33280  36.112  24.007  14.041
65063W        W33281  33.376  17.334   3.844
65064W        W33282  18.785  26.540   4.607
65065W        W33283  31.855  38.754  11.046
65066W        W33284  41.755  37.743  12.522
65067W        W33285  35.753  43.728   1.483
65068W        W33286  29.661  24.501   4.063
65069W        W33287  13.824  42.900   2.251
65070W        W33288   3.941  25.182  14.844
65071W        W33289  33.151  24.284  13.586
65072W        W33290  30.680  17.225  13.535
65073W        W33291  23.634  26.706   4.559
65074W        W33292  22.855  38.546   1.890
65075W        W33293  43.900   8.732   4.407
65076W        W33294  16.086  44.875  14.497
65077W        W33295   9.186   1.975  11.901
65078W        W33296  28.014  13.775   1.250
65079W        W33297  16.249  23.852   3.918
65080W        W33298  14.106  43.392   1.410
65081W        W33299  11.278  32.421   1.047
65082W        W33300  31.897  38.001   3.789
65083W        W33301   2.206  21.863  12.312
65084W        W33302  34.322   5.355   2.785
65085W        W33303  26.690   5.957  12.345
65086W        W33304  27.161  41.316  14.759
65087W        W33305  22.143   2.897  11.011
65088W        W33306  41.020   0.316   2.406
65089W        W33307  41.598  34.835   0.714
65090W        W33308  32.561  38.970   2.451
65091W        W33309  22.494  25.555  10.368
65092W        W33310  10.167  19.677  12.494
65093W        W33311   5.249   6.182   2.838
65094W        W33312  42.959  38.645  12.458
65095W        W33313  25.061  14.854   2.469
65096W        W33314  28.043  16.332  14.239
65097W        W33315  29.887  42.096   2.334
65098W        W33316  32.279  30.412   3.643
65099W        W33317   7.161  42.383   3.186
65100W        W33318   4.608  18.415   3.139
65101W        W33319  41.556  29.910  11.433
65102W        W33320  11.811  23.565   3.614
65103W        W33321   0.643  18.538   4.157
65104W        W33322  27.065  21.442  13.031
65105W        W33323  11.065  32.384  14.758
65106W        W33324   3.016  24.729  11.558
65107W        W33325  39.709  18.613   2.903
65108W        W33326  38.115  25.204  11.519
65109W        W33327  42.402  27.230   0.008
65110W        W33328  34.454  39.687   2.205
65111W        W33329  30.505  43.099  11.538
65112W        W33330  42.397  37.176  12.795
65113W        W33331  34.022  13.518  14.339
65114W        W33332  28.442  39.127   4.079
65115W        W33333   3.794  24.756  10.570
65116W        W33334  13.480  13.210   3.999
65117W        W33335  35.959  42.020  10.843
65118W        W33336  39.237   5.899   3.307
65119W        W33337  20.018   0.016  12.963
65120W        W33338  18.657  27.069   0.334
65121W        W33339  32.979  42.534  11.712
65122W        W33340  33.696  42.850  12.066
65123W        W33341  11.514   7.161  13.418
65124W        W33342   2.808  40.263   3.167
65125W        W33343  25.105  18.610  13.080
65126W        W33344   5.801  17.806   4.230
65127W        W33345   9.732   2.829  12.962
65128W        W33346  28.718  13.693  10.781
65129W        W33347   9.741   4.668  10.665
65130W        W33348  10.973  13.087   2.235
65131W        W33349  36.866  24.225   2.949
65132W        W33350  41.446  32.511   1.632
65133W        W33351   2.684  19.015  13.919
65134W        W33352  41.475  32.075  14.279
65135W        W33353  32.978  36.065   0.515
65136W        W33354  33.229  27.608  13.924
65137W        W33355   5.849  13.167  10.700
65138W        W33356  13.868  44.760   0.002
65139W        W33357  29.526  44.609  14.119
65140W        W33358   8.098  15.752   4.983
65141W        W33359   8.912   4.235  12.853
65142W        W33360  30.469  44.732  11.038
65143W        W33361  16.175  16.206   0.316
65144W        W33362  41.133  16.877  13.245
65145W        W33363  16.841  43.509  11.366
65146W        W33364  30.640  12.342   2.664
65147W        W33365  22.580  19.262   1.368
65148W        W33366  11.397  17.540  14.386
65149W        W33367  34.647  44.245  14.190
65150W        W33368  25.709  24.664  10.762
65151W        W33369   9.222  27.217   1.940
65152W        W33370  21.187  28.258   1.691
65153W        W33371  21.358  11.688   4.151
65154W        W33372   6.417  22.304  11.172
65155W        W33373  19.005  24.023   3.642
65156W        W33374  37.879  14.358   1.191
65157W        W33375  36.985   3.513  10.806
65158W        W33376  12.381  44.579  11.725
65159W        W33377  32.195  21.696  10.578
65160W        W33378  38.867  24.967   4.684
65161W        W33379   9.793  29.724   4.598
65162W        W33380  16.700  24.381   4.175
65163W        W33381  21.526  39.891  12.021
65164W        W33382  16.782   3.940   2.258
65165W        W33383   7.340  20.381   1.966
65166W        W33384  31.702  36.594   1.917
65167W        W33385   1.226  31.146   4.335
65168W        W33386  41.252  17.885  11.658
65169W        W33387  44.547  42.006  11.197
65170W        W33388  25.575  15.542  12.855
65171W        W33389  16.040   3.798   4.564
65172W        W33390  13.714  11.269  13.851
65173W        W33391   3.941  42.382   4.581
65174W        W33392  42.377  40.023   1.555
65175W        W33393  27.483  42.363  13.389
65176W        W33394  16.561  38.821   2.830
65177W        W33395  24.282  16.970  11.162
65178W        W33396  20.223   0.503  13.889
65179W        W33397  33.422  35.126   1.385
65180W        W33398  24.536  44.348  13.452
65181W        W33399  43.329  18.505   3.180
65182W        W33400  14.602  10.370   2.407
65183W        W33401   1.846  26.825  13.967
65184W        W33402   2.946  27.359  10.987
65185W        W33403   2.042  35.892  14.361
65186W        W33404  21.509  28.330  12.458
65187W        W33405  44.388  27.038   2.858
65188W        W33406  13.235  30.820  14.831
65189W        W33407  40.948  21.615  11.195
65190W        W33408   2.005  36.601  13.016
65191W        W33409  38.951   6.185  12.596
65192W        W33410  18.628  34.032   1.624
65193W        W33411  12.804  23.529  13.312
65194W        W33412  24.950  43.818  14.416
65195W        W33413  12.471  42.828   0.546
65196W        W33414  42.259  12.493   3.758
65197W        W33415  20.106  18.435  10.714
65198W        W33416  13.100   8.692   0.784
65199W        W33417  10.271  23.996  11.887
65200W        W33418  17.994   4.598  12.962
65201W        W33419  18.603  29.325   2.859
65202W        W33420  37.271  22.521   4.333
65203W        W33421  44.430  42.905  13.566
65204W        W33422  32.503  43.704  14.842
65205W        W33423   9.169  14.421  13.073
65206W        W33424  43.285   4.894   1.470
65207W        W33425  27.041   9.136   3.558
65208W        W33426  14.039  11.777   2.456
65209W        W33427  28.886  42.728   4.107
65210W        W33428   9.168  36.923  10.742
65211W        W33429  36.656  14.160   2.665
65212W        W33430   9.222   3.326   3.716
65213W        W33431  17.121  16.728  13.848
65214W        W33432  12.366  18.998  13.524
65215W        W33433  24.504   4.672   2.409
65216W        W33434  13.640  17.683  12.367
65217W        W33435  33.894  41.506  10.601
65218W        W33436   4.488   3.656   5.225
65219W        W33437  36.931  28.428  13.783
65220W        W33438  18.216   3.764  12.414
65221W        W33439   8.207  21.683  12.518
65222W        W33440  24.720  16.793   3.714
65223W        W33441  20.942  16.408  10.302
65224W        W33442  42.719  34.347   2.692
65225W        W33443  35.873   1.932  14.290
65226W        W33444  44.956  38.183   2.173
65227W        W33445   2.982  30.923   0.299
65228W        W33446  23.705  42.233  14.484
65229W        W33447  44.935  37.063  12.080
65230W        W33448   1.871  24.554  12.539
65231W        W33449   0.769  17.848   3.596
65232W        W33450  17.578  39.278  14.500
65233W        W33451  18.119  42.522   1.429
65234W        W33452  29.735  14.280   4.118
65235W        W33453   4.512  19.734   3.735
65236W        W33454  27.285  11.953   3.588
65237W        W33455   7.193  13.699  13.010
65238W        W33456   3.307  15.536   5.270
65239W        W33457  10.129   9.231   0.199
65240W        W33458  27.724  44.721  13.556
65241W        W33459  13.683  20.237   4.286
65242W        W33460  39.919  25.569   3.482
65243W        W33461  28.215  35.315  12.440
65244W        W33462  43.833  37.078  11.703
65245W        W33463   4.629  23.239  14.468
65246W        W33464  25.598  13.189   4.213
65247W        W33465  31.771  26.939   5.048
65248W        W33466  42.478  40.947   2.877
65249W        W33467  24.980  40.715  12.152
65250W        W33468  44.708  17.778   2.812
65251W        W33469  20.049  17.680   4.034
65252W        W33470  21.117  12.090  10.710
65253W        W33471   5.765  14.385   1.374
65254W        W33472   9.371  11.103  11.585
65255W        W33473  33.129  25.398  10.532
65256W        W33474   8.284  40.933  10.504
65257W        W33475   3.505  32.187   3.223
65258W        W33476  20.037  29.753  11.512
65259W        W33477  23.723  40.304  12.522
65260W        W33478  10.756  32.089  13.838
65261W        W33479   8.165  32.131   0.784
65262W        W33480  15.792  29.091  10.600
65263W        W33481  22.069  19.070  11.993
65264W        W33482   3.160   4.962  11.060
65265W        W33483   0.486  35.932  14.341
65266W        W33484  38.980  10.457  12.490
65267W        W33485  25.264  13.547   3.113
65268W        W33486  15.531  12.292   0.836
65269W        W33487   4.892  18.725  10.595
65270W        W33488  39.514  14.889  13.054
65271W        W33489  26.907  20.174   2.291
65272W        W33490  44.815  27.658  13.006
65273W        W33491  10.278  38.261   3.145
65274W        W33492  36.653  28.431   2.306
65275W        W33493   5.064  31.397   2.731
65276W        W33494  26.929   5.831   3.616
65277W        W33495   7.578   1.344   2.938
65278W        W33496  43.496  12.875  13.892
65279W        W33497  27.694  12.235  14.322
65280W        W33498  33.047   1.292   4.437
65281W        W33499  17.023  21.350  11.407
65282W        W33500  35.978  15.289  10.708
65283W        W33501  37.005  20.584   1.583
65284W        W33502  28.603  21.704   4.542
65285W        W33503  44.378  16.630  11.545
65286W        W33504  37.718  29.853  12.136
65287W        W33505  40.432  25.685   2.209
65288W        W33506  39.342   3.248  11.610
65289W        W33507  26.348  31.502   4.114
65290W        W33508  38.396  12.900   2.139
65291W        W33509  40.759  25.477   1.730
65292W        W33510  44.189  37.112  12.900
65293W        W33511  30.104  16.096  10.562
65294W        W33512  27.786  11.640  14.806
65295W        W33513  36.879  31.444   2.623
65296W        W33514   0.776  27.203   0.752
65297W        W33515   5.927  20.198   2.690
65298W        W33516   4.189  23.683   2.393
65299W        W33517  44.649  19.568   1.170
65300W        W33518  42.870  30.914   4.187
65301W        W33519  31.526   6.811   4.729
65302W        W33520  15.634   8.608  11.976
65303W        W33521  29.162   4.444   0.748
65304W        W33522   1.710  21.002  14.669
65305W        W33523   5.706  16.067   1.340
65306W        W33524  43.288  32.917  11.712
65307W        W33525  42.610  34.535   3.154
65308W        W33526  19.788  42.108   3.198
65309W        W33527  20.723  17.364   0.823
65310W        W33528  26.087  31.071   1.227
65311W        W33529  15.500  25.565  11.158
65312W        W33530  43.992  39.341   1.842
65313W        W33531   0.928  33.581   0.076
65314W        W33532   4.773  37.767   2.645
65315W        W33533  31.094  42.763   4.539
65316W        W33534  23.240   8.856   0.054
65317W        W33535  20.031  27.304  11.508
65318W        W33536   0.337  39.349  12.427
65319W        W33537  23.193  15.965   2.819
65320W        W33538   1.957  21.418  14.871
65321W        W33539  34.271   5.791   1.830
65322W        W33540  38.999  19.730  12.795
65323W        W33541  22.622  38.016   4.635
65324W        W33542  10.573  20.670   1.877
65325W        W33543  40.334  11.840  10.687
65326W        W33544  13.266  24.814   5.036
65327W        W33545   4.134  15.003   0.437
65328W        W33546  24.384  40.468   4.937
65329W        W33547  38.897   6.500   0.703
65330W        W33548  42.694   8.554  14.885
65331W        W33549  32.102  43.769  14.049
65332W        W33550  31.845  28.985  14.399
65333W        W33551  35.407  42.494   2.520
65334W        W33552  32.537  43.856  10.413
65335W        W33553  30.694  41.430  14.167
65336W        W33554  21.143  10.053  14.378
65337W        W33555   4.586  37.244  13.447
65338W        W33556  24.508  38.350  11.096
65339W        W33557  36.784  27.115   1.786
65340W        W33558   1.159  23.080   4.663
65341W        W33559  40.878  19.540  12.085
65342W        W33560   7.379  29.479   2.528
65343W        W33561   6.596  19.777   1.797
65344W        W33562  39.058  41.243   4.560
65345W        W33563  38.773  41.319   1.412
65346W        W33564   5.513  14.728   2.090
65347W        W33565  30.932  37.563  12.697
65348W        W33566  43.529  27.717   4.170
65349W        W33567  14.819  33.150  10.738
65350W        W33568   8.732  25.036   4.492
65351W        W33569  36.362  22.175  11.944
65352W        W33570  22.323  35.268   9.304
65353W        W33571  32.405  34.108   0.805
65354W        W33572  39.636  36.534   4.584
65355W        W33573  20.134  35.972  12.809
65356W        W33574   6.268  39.428  10.310
65357W        W33575  13.761   2.386   3.188
65358W        W33576  20.278  39.965   4.264
65359W        W33577   7.862   7.334   1.654
65360W        W33578   1.562  40.321   2.870
65361W        W33579  39.130  35.849  11.126
65362W        W33580  25.046  33.171   0.409
65363W        W33581  28.132  23.109  13.774
65364W        W33582  39.374  42.911   2.633
65365W        W33583  39.136  13.526  11.588
65366W        W33584  29.384  44.486   0.043
65367W        W33585  23.734  38.376  10.749
65368W        W33586  28.907   3.836   0.007
65369W        W33587  29.584  10.081   2.317
65370W        W33588  32.506  39.055   4.814
65371W        W33589  22.564   8.274  12.582
65372W        W33590   5.888  31.425   4.621
65373W        W33591   2.915  26.439  12.407
65374W        W33592  39.399   1.288   4.979
65375W        W33593  13.156  14.113   3.758
65376W        W33594  18.613   1.780  14.828
65377W        W33595  41.446  13.243  11.114
65378W        W33596  29.110  14.782  14.528
65379W        W33597  28.141  12.999  10.325
65380W        W33598  13.299  18.073   4.096
65381W        W33599  26.430  21.664   1.282
65382W        W33600  30.848  35.319  11.048
65383W        W33601  23.113   8.003   1.684
65384W        W33602  27.880  31.839   1.823
65385W        W33603  12.851  38.023  11.723
65386W        W33604  39.366  26.069  12.353
65387W        W33605  40.728  24.385   2.247
65388W        W33606  38.483  23.480   3.108
65389W        W33607  24.736  11.569  10.749
65390W        W33608  25.733   7.894   1.133
65391W        W33609  32.644  21.177   2.377
65392W        W33610   9.585  30.645  14.273
65393W        W33611  38.091  24.974  13.803
65394W        W33612  35.541  18.627  11.123
65395W        W33613  33.665  18.181   1.438
65396W        W33614  17.267   9.214  13.736
65397W        W33615  44.362  10.486  14.671
65398W        W33616  35.192  22.059  13.226
65399W        W33617  25.968  21.181  13.027
65400W        W33618  10.126  41.199   4.977
65401W        W33619   3.200  22.083  12.427
65402W        W33620  31.100  36.105   0.009
65403W        W33621  32.288   1.229   3.705
65404W        W33622   3.602  41.939   1.364
65405W        W33623  20.522  10.180   4.691
65406W        W33624   2.249   2.772   0.015
65407W        W33625   7.586   1.857  12.521
65408W        W33626  34.563  11.295  12.101
65409W        W33627  15.501   3.701  13.553
65410W        W33628  40.787   7.466  11.596
65411W        W33629  42.243   1.877  12.881
65412W        W33630  40.022  12.809  13.850
65413W        W33631  31.883  30.542   4.848
65414W        W33632  21.038  41.453  13.389
65415W        W33633  41.628  21.209   2.210
65416W        W33634  30.015  21.053  11.192
65417W        W33635  20.220  28.059   4.168
65418W        W33636  15.589  20.788   4.070
65419W        W33637  25.638  43.857   1.164
65420W        W33638   4.440  17.126   0.938
65421W        W33639  37.625   5.592   9.972
65422W        W33640  27.959  16.461  11.878
65423W        W33641  21.663   9.289   1.878
65424W        W33642  40.863  17.164   3.286
65425W        W33643  43.842   4.504   3.802
65426W        W33644   7.785  12.228  13.497
65427W        W33645  16.511  22.343   1.702
65428W        W33646  38.787  18.981   4.143
65429W        W33647  26.489  43.913   0.963
65430W        W33648  32.699  33.495   3.192
65431W        W33649  21.534  42.298  12.423
65432W        W33650  17.699  39.489   0.563
65433W        W33651  44.595  36.796   4.992
65434W        W33652   1.374   6.042  10.665
65435W        W33653  22.185  12.725  14.303
65436W        W33654  40.008  17.297   3.521
65437W        W33655  40.382  20.464   2.322
65438W        W33656  13.239   4.494   2.809
65439W        W33657  44.923  15.314  10.762
65440W        W33658  12.617   3.822  11.403
65441W        W33659   1.363  22.868   1.369
65442W        W33660  13.385   7.627  12.066
65443W        W33661  30.200  14.794   4.719
65444W        W33662   6.160  27.345  13.291
65445W        W33663  40.893  29.764   1.821
65446W        W33664  22.028  11.160   1.710
65447W        W33665   0.499  38.923   1.315
65448W        W33666   4.285   3.046   4.902
65449W        W33667  26.597  27.868   2.873
65450W        W33668  31.836  20.808   4.118
65451W        W33669  35.057  29.980   1.235
65452W        W33670  39.770  40.882   0.871
65453W        W33671  27.746  36.326   0.270
65454W        W33672  36.683  21.886  11.697
65455W        W33673  42.580  36.316   2.294
65456W        W33674   8.279   5.034  12.474
65457W        W33675   7.959  29.937   0.024
65458W        W33676  22.098  26.096  11.534
65459W        W33677  44.057  32.631  11.104
65460W        W33678   6.713  24.058   1.348
65461W        W33679   3.258  31.604  13.603
65462W        W33680  22.361  36.928  12.825
65463W        W33681  27.740   9.150   3.132
65464W        W33682  32.365  31.383  10.160
65465W        W33683   9.763  34.610   4.733
65466W        W33684  31.615  37.914   1.219
65467W        W33685   3.845  32.952   3.018
65468W        W33686  25.747  11.390  12.507
65469W        W33687  41.427  11.925   1.468
65470W        W33688  35.640  44.406   3.916
65471W        W33689  19.743   8.133  11.601
65472W        W33690  41.419  42.310   4.538
65473W        W33691  13.669  35.325  14.777
65474W        W33692  43.444  21.557  12.098
65475W        W33693  16.077  25.515   0.277
65476W        W33694   5.157  17.030   4.304
65477W        W33695  35.130   9.200  11.920
65478W        W33696  10.789   9.365  11.154
65479W        W33697   6.566  39.241  14.545
65480W        W33698   2.819  27.576   0.355
65481W        W33699   4.528   2.680   1.957
65482W        W33700  39.715  39.223  11.911
65483W        W33701  27.089   9.689  12.330
65484W        W33702  30.534  32.092   3.840
65485W        W33703  34.117  39.323   2.297
65486W        W33704  31.802  40.276   2.322
65487W        W33705   0.542  15.227  13.823
65488W        W33706  38.918  21.231   9.902
65489W        W33707  14.236   2.015  14.834
65490W        W33708  37.381   1.226   2.440
65491W        W33709   6.914  26.305  11.606
65492W        W33710  40.286  14.747  13.427
65493W        W33711   3.382  40.767   4.137
65494W        W33712  20.801  38.507   0.703
65495W        W33713  44.167  40.745  12.561
65496W        W33714  27.769  17.101   0.425
65497W        W33715   2.021  34.001   1.775
65498W        W33716   7.429  28.633  10.713
65499W        W33717  13.093  21.145   1.385
65500W        W33718   3.847   3.250   0.224
65501W        W33719   0.237  43.499  14.497
65502W        W33720  22.550   8.284  13.093
65503W        W33721  43.291  15.252   2.648
65504W        W33722  44.249  39.509  12.947
65505W        W33723  37.809   3.031  11.697
65506W        W33724  12.808  43.934  13.985
65507W        W33725  15.713  25.725   2.129
65508W        W33726  41.858   3.414   4.151
65509W        W33727  28.097  25.972   1.074
65510W        W33728  20.191  11.059   3.706
65511W        W33729  42.299  37.108   4.296
65512W        W33730   0.442  23.613   2.092
65513W        W33731   3.318  38.376   0.206
65514W        W33732  29.861  22.980  12.961
65515W        W33733  31.874   4.757  13.479
65516W        W33734  18.996  27.501   3.332
65517W        W33735   4.708  14.960  10.701
65518W        W33736  34.665   3.215   2.214
65519W        W33737  37.590  27.175  14.778
65520W        W33738  36.891  21.239  10.652
65521W        W33739   4.027  28.529  14.980
65522W        W33740  24.902  32.448   1.740
65523W        W33741  21.744  27.694   1.656
65524W        W33742  11.759  12.447   4.172
65525W        W33743  32.021  44.890   0.673
65526W        W33744  20.279   1.049   4.550
65527W        W33745  36.792   0.809   0.379
65528W        W33746  19.852  27.504  14.405
65529W        W33747  42.543  10.305   3.309
65530W        W33748   1.401  26.507  12.963
65531W        W33749  21.451  29.005  14.495
65532W        W33750  33.846  14.151   4.111
65533W        W33751  10.429  32.020   2.314
65534W        W33752  34.135  26.958   1.003
65535W        W33753  34.491  25.331  12.431
65536W        W33754  32.363   2.856   0.283
65537W        W33755   3.727   5.129   1.741
65538W        W33756  16.714  25.753  13.806
65539W        W33757  40.580  42.805  13.320
65540W        W33758  19.773  11.760   5.213
65541W        W33759  12.356  35.599  14.964
65542W        W33760  39.475  28.424   2.639
65543W        W33761   7.350  44.426  14.466
65544W        W33762  29.102   1.536   5.337
65545W        W33763  14.555  15.939  11.042
65546W        W33764  14.848  22.806  13.840
65547W        W33765  28.968   9.931   2.819
65548W        W33766  41.498   3.382  11.914
65549W        W33767  24.108  25.775  14.824
65550W        W33768  26.109  29.636  12.514
65551W        W33769  44.401   0.232  14.864
65552W        W33770  12.346   7.386   0.404
65553W        W33771  34.297  18.572  11.108
65554W        W33772  26.812  15.081   3.944
65555W        W33773  21.054  25.021  11.170
65556W        W33774   2.509  32.114  12.087
65557W        W33775  35.215   1.486  11.153
65558W        W33776   0.330  17.297  12.018
65559W        W33777  13.524  30.619  10.893
65560W        W33778  28.505  24.181   5.481
65561W        W33779  38.033  42.257  12.619
65562W        W33780   8.822  38.331   3.807
65563W        W33781   2.402  39.359   0.403
65564W        W33782  33.393  34.599   1.321
65565W        W33783  28.311  44.099  13.657
65566W        W33784   1.070  15.496  14.967
65567W        W33785   1.345   2.403   0.249
65568W        W33786  31.296   5.692  11.917
65569W        W33787   8.326  21.178   9.841
65570W        W33788  41.789  15.769   1.327
65571W        W33789  26.788  11.313  10.214
65572W        W33790  14.491   5.543  11.188
65573W        W33791   7.241  14.312   1.455
65574W        W33792  19.011   0.966   2.258
65575W        W33793  33.674   1.014  11.804
65576W        W33794  15.179  31.440  13.079
65577W        W33795  33.633  19.298   4.177
65578W        W33796  29.747  26.166   3.616
65579W        W33797  31.980  27.600   2.841
65580W        W33798  39.548  31.590   4.640
65581W        W33799  20.176  43.044   3.984
65582W        W33800  32.095  44.629  13.714
65583W        W33801  37.755   8.937  11.074
65584W        W33802   9.746   3.544   4.504
65585W        W33803  18.739  43.605  12.440
65586W        W33804  41.886  21.600  10.728
65587W        W33805  19.180  17.017   1.923
65588W        W33806  11.692  37.517   4.619
65589W        W33807   5.983  40.365  12.199
65590W        W33808  25.726  21.322   4.969
65591W        W33809  42.989  17.669   1.213
65592W        W33810  10.800  25.500   2.860
65593W        W33811  36.633  10.934  11.085
65594W        W33812  34.339  35.853  12.039
65595W        W33813  16.023  14.231   1.355
65596W        W33814  11.099   2.733   3.244
65597W        W33815   4.967  26.085  13.449
65598W        W33816   3.368  29.180   4.119
65599W        W33817  43.411  36.093  14.729
65600W        W33818  36.411  37.041  12.704
65601W        W33819  30.489  28.192   3.689
65602W        W33820  23.170  12.845  12.470
65603W        W33821  23.102  20.113   0.048
65604W        W33822  40.073  14.081  12.384
65605W        W33823  35.892  11.721  12.075
65606W        W33824   6.816  26.661  11.257
65607W        W33825  20.098  20.512   0.800
65608W        W33826  10.743  37.690   9.949
65609W        W33827  27.964  11.274  14.436
65610W        W33828  26.776  27.900   4.234
65611W        W33829  27.424  22.070   2.687
65612W        W33830  16.704  34.416  10.431
65613W        W33831  29.865   1.269   4.277
65614W        W33832  35.009   3.375  11.056
65615W        W33833  15.096   9.354   1.653
65616W        W33834  14.750  28.191  12.459
65617W        W33835  38.710  21.025  10.978
65618W        W33836  11.189  29.781   0.792
65619W        W33837  27.264   1.405  14.813
65620W        W33838   0.274   6.186  13.335
65621W        W33839  24.749  35.455   2.805
65622W        W33840  35.001  20.275   2.616
65623W        W33841   0.045  32.259   1.311
65624W        W33842  43.383  12.237   0.413
65625W        W33843  30.078  24.013  12.152
65626W        W33844   7.874  11.174  10.724
65627W        W33845  32.184  25.131  11.622
65628W        W33846  15.660   6.747  13.875
65629W        W33847   5.217  21.659  12.938
65630W        W33848  17.543  25.199   0.538
65631W        W33849  18.481   2.696  13.968
65632W        W33850  43.856  15.585   3.335
65633W        W33851  17.363  41.315  10.992
65634W        W33852   3.984  28.223   2.912
65635W        W33853   9.795   5.583   2.664
65636W        W33854   7.825   2.401  13.950
65637W        W33855   8.217  28.788  12.897
65638W        W33856  38.009  12.333   1.427
65639W        W33857  41.971  36.904  14.742
65640W        W33858   5.137  37.422   2.857
65641W        W33859  43.814  31.844   4.204
65642W        W33860  24.454  20.190   0.139
65643W        W33861  15.298  38.931   4.151
65644W        W33862  12.866   0.557  14.590
65645W        W33863  30.912  30.493   4.018
65646W        W33864  23.085   0.831   4.460
65647W        W33865  19.631   4.998  11.005
65648W        W33866   3.540   3.860  14.267
65649W        W33867  10.605   0.886   0.256
65650W        W33868  14.642  17.129  11.073
65651W        W33869  32.181  24.117   2.079
65652W        W33870  42.664  18.046  12.838
65653W        W33871  41.243   5.833  13.399
65654W        W33872  27.209  18.045  13.930
65655W        W33873  24.367  12.758   3.684
65656W        W33874   9.958  23.504   4.656
65657W        W33875   3.285  28.122  14.741
65658W        W33876  23.833  18.694   0.919
65659W        W33877  35.747  15.525  12.705
65660W        W33878   0.389  18.103  13.031
65661W        W33879  29.012  44.743  14.089
65662W        W33880  30.224   7.980   0.265
65663W        W33881  17.536  33.468  11.376
65664W        W33882  43.110  26.274  13.517
65665W        W33883  26.421  25.678  10.676
65666W        W33884  41.301  25.719   0.899
65667W        W33885  40.966   2.381   1.662
65668W        W33886  13.356   3.243  11.786
65669W        W33887  35.079  18.505  14.241
65670W        W33888   5.890  10.393  14.506
65671W        W33889   3.787  15.632  11.927
65672W        W33890   6.872  41.767   4.162
65673W        W33891   6.241  10.289   4.559
65674W        W33892  39.070   1.248  13.946
65675W        W33893   8.944   4.234  12.340
65676W        W33894  34.865  36.159   2.903
65677W        W33895  16.217  36.492  13.454
65678W        W33896  30.837  41.000   1.734
65679W        W33897  15.776  20.677  10.667
65680W        W33898   7.316  42.046  11.679
65681W        W33899  17.366  10.391   5.005
65682W        W33900  10.157  24.131  12.367
65683W        W33901   0.783   3.415  11.829
65684W        W33902  32.670  17.076  11.328
65685W        W33903  18.982  27.876  11.154
65686W        W33904  24.168   0.563   4.984
65687W        W33905   1.532  40.345  14.283
65688W        W33906  39.099  17.143   4.630
65689W        W33907  10.575  31.102   3.272
65690W        W33908  27.632  40.328  11.106
65691W        W33909  31.840  22.564  14.762
65692W        W33910  20.322  27.508  12.857
65693W        W33911  11.200  26.686   3.718
65694W        W33912  25.631  13.211  14.573
65695W        W33913  20.933  16.534  10.921
65696W        W33914  17.986  20.729   3.126
65697W        W33915   5.747   3.923   4.163
65698W        W33916   4.881  24.223   1.830
65699W        W33917  14.166  24.624   0.296
65700W        W33918  26.282  27.518   2.232
65701W        W33919  16.403   9.742   2.050
65702W        W33920  23.065  25.004   4.890
65703W        W33921  13.205   7.626   1.740
65704W        W33922  18.790  12.251  13.798
65705W        W33923  22.460  31.742  11.517
65706W        W33924  34.024  40.914  11.484
65707W        W33925   7.077   1.443  13.074
65708W        W33926  28.121   2.322   0.301
65709W        W33927  29.030  17.715  14.976
65710W        W33928   9.341  42.973   4.636
65711W        W33929  20.768  29.923  11.944
65712W        W33930  20.077  32.327   0.728
65713W        W33931  21.582  43.154   0.024
65714W        W33932   5.146  18.126  14.828
65715W        W33933  19.490   1.429   4.793
65716W        W33934  39.358   2.188  14.834
65717W        W33935  24.553  16.907   0.388
65718W        W33936  20.040   5.510  14.734
65719W        W33937  29.489  17.582  14.434
65720W        W33938  24.926  33.338  10.215
65721W        W33939  27.015  20.814  10.692
65722W        W33940  41.402  43.535  13.395
65723W        W33941   8.402  11.685  14.968
65724W        W33942  13.800  38.332  14.345
65725W        W33943   3.614   3.420  11.972
65726W        W33944  25.487  13.597   2.126
65727W        W33945  36.572  31.223  12.926
65728W        W33946  32.818  28.889  14.391
65729W        W33947   6.770  21.117  11.216
65730W        W33948  35.155   1.258  12.514
65731W        W33949  29.644  39.308   2.820
65732W        W33950  29.562  16.260   3.760
65733W        W33951  36.852  22.311  14.311
65734W        W33952  15.811   6.782  10.750
65735W        W33953  23.514   3.988   1.191
65736W        W33954  44.056  19.095  13.393
65737W        W33955  15.207  44.991   3.237
65738W        W33956  26.060   4.683  12.091
65739W        W33957   1.440  32.794   3.171
65740W        W33958   5.309  15.989   1.931
65741W        W33959   4.553  24.052  11.000
65742W        W33960  31.975   2.973   3.603
65743W        W33961  26.722   3.222   0.161
65744W        W33962  36.670   6.548  14.479
65745W        W33963  44.821  17.183   1.244
65746W        W33964  43.985   1.011   3.745
65747W        W33965  33.764   0.333  12.066
65748W        W33966  38.028  38.025  13.048
65749W        W33967  18.298  28.789   2.204
65750W        W33968  20.875  33.025  10.721
65751W        W33969   2.628  43.769  13.019
65752W        W33970  28.127  42.428   3.261
65753W        W33971  33.373  42.986  14.373
65754W        W33972  41.027  26.495   1.979
65755W        W33973  23.863  20.278  11.060
65756W        W33974  17.395  44.553   3.724
65757W        W33975   6.291   3.333  10.121
65758W        W33976   5.147  30.103  12.968
65759W        W33977  15.810  36.073  12.179
65760W        W33978  19.088   6.145   2.340
65761W        W33979   2.918  20.750  12.445
65762W        W33980   0.624  23.071  11.045
65763W        W33981  28.346  34.534   1.662
65764W        W33982  43.124  31.660  14.041
65765W        W33983  40.406  41.096  11.534
65766W        W33984  14.235  19.705   4.612
65767W        W33985  19.438  32.343  11.179
65768W        W33986  12.470  44.494   4.516
65769W        W33987  35.832  15.948   0.031
65770W        W33988  31.514  29.746   3.641
65771W        W33989  29.915  14.170   1.829
65772W        W33990   7.920  32.414  10.768
65773W        W33991  11.263   1.628   4.745
65774W        W33992  18.327   9.713  13.407
65775W        W33993   3.414  44.415   0.979
65776W        W33994  33.938   5.515   5.043
65777W        W33995   9.136  40.728   9.945
65778W        W33996  15.723  23.672   1.215
65779W        W33997  41.453  43.234  14.676
65780W        W33998  38.838  19.836   0.333
65781W        W33999  17.685  19.169  12.105
65782W        W34000  41.343  10.342  11.768
65783W        W34001  31.806  12.444  13.528
65784W        W34002  36.461  18.809   0.723
65785W        W34003  19.206  35.892   0.967
65786W        W34004   5.602  18.181  11.494
65787W        W34005   0.432  39.821   1.765
65788W        W34006  17.810  26.362   0.316
65789W        W34007   9.446   1.778  10.226
65790W        W34008  36.036  30.884   2.882
65791W        W34009  38.852   2.538   3.063
65792W        W34010  29.729   5.406  10.803
65793W        W34011  18.489  11.282   5.012
65794W        W34012  18.135  12.517  14.862
65795W        W34013  12.682  31.840  14.008
65796W        W34014  36.615  18.951  11.477
65797W        W34015  27.455  30.656   3.867
65798W        W34016  35.586  34.501  14.127
65799W        W34017  29.669  25.792  10.939
65800W        W34018  41.404  35.917  12.462
65801W        W34019  35.308  15.654  12.487
65802W        W34020   0.862  37.438   2.130
65803W        W34021   7.383  34.982  12.091
65804W        W34022  12.369   0.355  10.224
65805W        W34023  12.613   3.380  14.769
65806W        W34024  20.547  23.534   3.442
65807W        W34025   1.855  33.647   1.432
65808W        W34026  28.903   6.343  12.081
65809W        W34027  12.691  18.228   4.404
65810W        W34028  23.209  26.159   4.300
65811W        W34029  19.090  32.335   4.279
65812W        W34030   3.315  27.036   4.689
65813W        W34031  19.696  26.046   4.359
65814W        W34032  37.615  25.245  13.940
65815W        W34033  32.483  34.903   3.223
65816W        W34034   5.773  44.404   4.911
65817W        W34035  19.115  12.774   4.144
65818W        W34036  26.562  18.515   4.672
65819W        W34037   8.332  21.796   2.622
65820W        W34038  43.710   7.867   0.862
65821W        W34039  22.733  41.890   0.750
65822W        W34040  44.738  43.245  13.793
65823W        W34041  44.002  10.643   4.123
65824W        W34042  43.583  13.232  13.509
65825W        W34043  26.549   0.617   3.045
65826W        W34044  20.248  31.304   2.302
65827W        W34045   6.484  20.303   1.901
65828W        W34046  41.938  20.865   0.014
65829W        W34047  10.226  35.061  13.391
65830W        W34048  29.800  37.525  14.337
65831W        W34049  30.130  44.744   1.830
65832W        W34050   6.250  44.003  13.113
65833W        W34051  38.162  36.291  13.990
65834W        W34052  28.475  33.988  11.173
65835W        W34053  15.031  23.284   0.716
65836W        W34054  32.623   5.283  13.487
65837W        W34055  37.831  42.819   1.597
65838W        W34056  42.002  14.678  14.080
65839W        W34057  40.000  11.302   2.366
65840W        W34058  10.360   5.393  12.862
65841W        W34059  24.950  42.364  12.383
65842W        W34060  26.548  38.501  13.019
65843W        W34061  16.133  34.915   1.672
65844W        W34062  35.889  41.298   0.390
65845W        W34063  10.816   4.135   4.762
65846W        W34064  27.818  29.420   3.811
65847W        W34065  32.368  30.032   0.371
65848W        W34066  14.122   6.949  13.809
65849W        W34067   7.540   0.285  11.601
65850W        W34068  11.131  27.223   2.133
65851W        W34069  31.497  40.722   1.033
65852W        W34070  43.237  42.044   4.705
65853W        W34071  19.779  35.638  12.476
65854W        W34072  27.868  21.641  14.354
65855W        W34073  29.515  19.814  13.287
65856W        W34074  42.312  15.545   4.156
65857W        W34075  40.018  34.967   2.365
65858W        W34076  30.592   7.311  13.140
65859W        W34077  39.101  12.872   4.833
65860W        W34078  25.000  33.472   3.836
65861W        W34079   6.877  26.421   0.730
65862W        W34080   2.956   1.282  12.597
65863W        W34081  12.674  28.440  10.585
65864W        W34082  38.981  32.966   0.569
65865W        W34083  37.523  21.143   5.028
65866W        W34084  32.570   7.344   1.657
65867W        W34085  13.711  14.306   1.848
65868W        W34086  37.322  31.492   1.334
65869W        W34087  38.882  17.663   3.101
65870W        W34088  28.920  40.444  14.707
65871W        W34089  38.627   3.312   4.171
65872W        W34090  12.371  14.322   4.141
65873W        W34091   0.995  42.972   3.697
65874W        W34092  16.570  23.744   0.928
65875W        W34093  22.043   8.774  14.825
65876W        W34094  27.088  13.754  14.376
65877W        W34095  44.254  23.087   0.011
65878W        W34096  34.890  44.798  12.444
65879W        W34097   7.721  36.664  12.935
65880W        W34098  27.071  14.955  11.172
65881W        W34099  23.741   0.058   4.239
65882W        W34100  17.119  10.707   2.930
65883W        W34101  33.437  18.275  14.345
65884W        W34102  40.193  35.222   0.390
65885W        W34103  32.740  25.074   4.217
65886W        W34104   6.878  27.661   3.399
65887W        W34105  16.040  26.511   1.468
65888W        W34106  22.673  38.819  11.484
65889W        W34107  34.381  43.582  14.909
65890W        W34108  15.134  21.019   1.620
65891W        W34109  25.615  35.079  13.895
65892W        W34110  20.297   0.440  12.897
65893W        W34111  34.122  40.760  10.653
65894W        W34112  39.501  17.099   1.235
65895W        W34113  41.867  10.204  11.637
65896W        W34114  25.536  13.522   4.609
65897W        W34115  41.602  26.595  14.967
65898W        W34116   4.706  24.922  12.937
65899W        W34117  15.714  35.555  14.663
65900W        W34118  19.321  25.079   3.155
65901W        W34119  19.606   2.007   1.805
65902W        W34120   3.327  43.986  10.701
65903W        W34121  22.501  33.732   0.443
65904W        W34122  37.132  29.593   2.575
65905W        W34123  40.295  19.553  10.346
65906W        W34124  35.864  43.156   4.194
65907W        W34125  44.381   3.141   2.821
65908W        W34126  30.579  23.947   2.018
65909W        W34127  19.504   3.982   0.112
65910W        W34128  28.164  26.749  10.652
65911W        W34129   4.261  27.607   2.724
65912W        W34130  13.866  32.270  14.269
65913W        W34131  41.595  21.253   0.029
65914W        W34132  24.989   8.328   2.229
65915W        W34133   8.806  39.836   4.630
65916W        W34134   1.804  13.989   3.577
65917W        W34135  36.448  10.891   2.267
65918W        W34136   8.210  16.185   0.319
65919W        W34137  24.018  13.300   0.725
65920W        W34138  41.462  26.600   4.661
65921W        W34139   7.949   7.430  12.965
65922W        W34140  42.915  33.542  10.556
65923W        W34141   6.709   4.425   1.723
65924W        W34142  42.011  34.612  11.043
65925W        W34143  22.462   3.431  13.775
65926W        W34144  44.012   6.246   1.884
65927W        W34145   0.441   3.920   1.002
65928W        W34146  10.908  23.206   2.998
65929W        W34147  17.215  23.896   3.610
65930W        W34148   4.899  28.608   2.639
65931W        W34149  40.280  22.437  11.154
65932W        W34150   5.204  28.127   4.575
65933W        W34151  19.778  42.402  13.501
65934W        W34152   7.146  10.926   1.869
65935W        W34153  35.403   6.651  12.571
65936W        W34154   1.708  42.339   2.655
65937W        W34155   0.826   0.314  14.601
65938W        W34156  17.188   3.444   0.910
65939W        W34157  43.418   6.586  13.990
65940W        W34158   0.992  41.462  14.893
65941W        W34159  17.761  19.095  11.132
65942W        W34160  39.096  29.457   3.716
65943W        W34161  24.075  27.012  10.836
65944W        W34162   8.320   6.411   1.925
65945W        W34163  42.474  22.651  12.367
65946W        W34164  12.209   7.113   2.897
65947W        W34165  30.594  29.699  12.824
65948W        W34166  22.724  24.227   0.259
65949W        W34167  18.005  32.090  13.639
65950W        W34168  20.473  10.649  14.466
65951W        W34169  30.092  39.226   4.294
65952W        W34170  29.168   7.031   0.844
65953W        W34171  36.425   6.933   2.840
65954W        W34172   1.293   2.027   4.901
65955W        W34173  21.847   8.652  13.654
65956W        W34174  34.524  25.072   4.343
65957W        W34175  39.093   5.512   4.196
65958W        W34176   5.136  17.730   5.064
65959W        W34177   8.764  22.496   0.799
65960W        W34178  38.763  25.507  11.033
65961W        W34179  41.272  31.754   3.710
65962W        W34180   5.387   6.322   0.818
65963W        W34181  24.132  28.049  14.496
65964W        W34182   4.333  41.972   5.248
65965W        W34183  18.771  35.615  10.734
65966W        W34184  39.493  21.087  10.557
65967W        W34185  19.038  43.044  14.414
65968W        W34186   2.338   7.254   2.883
65969W        W34187   3.401  43.006   3.624
65970W        W34188   9.447  25.076  12.445
65971W        W34189  40.779   3.476   4.670
65972W        W34190  37.486   0.688  13.142
65973W        W34191  38.931  21.009  14.833
65974W        W34192  38.341  23.129  12.766
65975W        W34193  38.994  18.992   3.404
65976W        W34194   4.904  36.340   5.040
65977W        W34195  19.993  39.094  13.487
65978W        W34196  25.600  21.004  12.707
65979W        W34197  24.285  34.140  10.579
65980W        W34198  26.879  31.381  11.606
65981W        W34199  14.113  26.452  13.481
65982W        W34200   1.504  22.666  12.408
65983W        W34201  30.166  34.961   1.313
65984W        W34202  40.911   1.876  13.245
65985W        W34203  27.471  31.121   0.411
65986W        W34204  15.852   8.869   4.619
65987W        W34205  39.934  19.269  10.604
65988W        W34206   2.379  11.273  12.614
65989W        W34207  41.525   8.139  12.954
65990W        W34208  27.134  22.067  11.011
65991W        W34209  44.968  35.248   3.534
65992W        W34210  13.116   3.821   2.341
65993W        W34211   7.428  32.158   4.732
65994W        W34212  25.527  33.592   1.170
65995W        W34213  32.102  34.609  11.999
65996W        W34214  29.617  28.258   1.721
65997W        W34215   7.802  38.083   0.460
65998W        W34216  44.411  22.303  12.039
65999W        W34217   2.387   1.420   4.156
66000W        W34218  20.615  39.015   0.018
66001W        W34219   6.154  15.693   3.496
66002W        W34220  13.670  32.999  12.265
66003W        W34221   5.993   5.760  13.139
66004W        W34222  31.644  28.522  13.013
66005W        W34223   2.342  21.824  14.856
66006W        W34224  28.478  14.183   1.853
66007W        W34225  24.899   0.813   1.079
66008W        W34226  12.712  28.136   4.399
66009W        W34227  20.918  13.314   9.805
66010W        W34228  28.973  14.311  11.560
66011W        W34229  10.355  23.798   4.430
66012W        W34230  40.392  24.061   2.464
66013W        W34231  37.394  18.675  10.697
66014W        W34232  21.986  42.235  12.179
66015W        W34233  29.919  20.525   2.594
66016W        W34234  38.505  35.057  11.115
66017W        W34235  37.611  21.202   4.110
66018W        W34236  22.496  35.311   0.843
66019W        W34237   3.330  16.320   3.093
66020W        W34238   8.717  42.940   3.923
66021W        W34239  23.058  30.112   2.078
66022W        W34240  15.831   1.970   2.626
66023W        W34241  30.011   8.419   1.006
66024W        W34242  28.094   4.896  11.484
66025W        W34243  41.344  36.121  14.782
66026W        W34244  28.170   8.884  14.408
66027W        W34245   1.198  20.127   2.625
66028W        W34246  43.069  36.477   0.369
66029W        W34247  24.596  18.093   3.747
66030W        W34248  21.826  43.501   3.732
66031W        W34249  27.404  14.284   2.775
66032W        W34250  35.729  22.703  13.830
66033W        W34251  42.503  31.895   3.240
66034W        W34252  11.759  35.090   2.418
66035W        W34253  29.968  34.112   3.635
66036W        W34254   4.469  29.848  11.984
66037W        W34255  35.020  17.278   4.667
66038W        W34256  44.365  13.265  11.152
66039W        W34257  28.670  21.915   5.007
66040W        W34258  25.474   5.985   4.908
66041W        W34259  15.493   7.845  11.499
66042W        W34260  34.446  43.946  13.392
66043W        W34261  40.795  26.861   1.720
66044W        W34262  19.563  16.524   3.973
66045W        W34263  10.384  42.879   2.833
66046W        W34264  19.175  23.446   1.290
66047W        W34265  35.002  17.620   1.207
66048W        W34266  14.599  37.669  11.816
66049W        W34267  37.181  27.993   3.620
66050W        W34268   3.564  44.783   4.636
66051W        W34269   4.530  42.913   4.915
66052W        W34270   4.729  27.907   0.309
66053W        W34271   3.185  37.104   2.768
66054W        W34272   7.913  35.530   1.928
66055W        W34273  28.653  16.685  14.752
66056W        W34274  13.555  37.567  13.395
66057W        W34275  37.975  36.931   3.563
66058W        W34276  22.690  38.154   1.581
66059W        W34277  35.075  15.080   4.159
66060W        W34278  24.680  17.279   4.980
66061W        W34279  12.443   1.599   5.016
66062W        W34280  27.998  12.804  11.118
66063W        W34281  41.065   5.891   1.264
66064W        W34282  43.369  22.030  13.429
66065W        W34283   2.695  27.538  10.516
66066W        W34284  23.308  31.995  11.616
66067W        W34285  27.084  15.080   0.851
66068W        W34286  29.069  21.583   3.757
66069W        W34287  25.167  32.349   2.866
66070W        W34288  20.817  14.350   0.541
66071W        W34289  44.269  39.361  12.452
66072W        W34290  20.436  15.234   0.262
66073W        W34291  17.110  21.979  11.643
66074W        W34292  34.123  39.003  11.005
66075W        W34293  17.336  27.264   2.258
66076W        W34294   0.163   2.144   4.761
66077W        W34295  36.038  40.994   0.779
66078W        W34296  23.095   7.707   1.200
66079W        W34297  41.479  27.073  14.256
66080W        W34298   3.236  40.424  14.714
66081W        W34299  35.584  27.715  13.878
66082W        W34300  26.760   1.538   2.933
66083W        W34301   5.856  39.138  11.576
66084W        W34302  21.373  37.378   0.309
66085W        W34303   7.019  33.840   9.841
66086W        W34304   5.991  39.045  12.877
66087W        W34305  23.537  16.371  12.523
66088W        W34306  42.930  10.108   3.620
66089W        W34307  12.140  14.389   3.666
66090W        W34308  18.156  13.599   1.781
66091W        W34309   4.266   2.426   4.540
66092W        W34310   3.213   4.581   2.222
66093W        W34311  21.755  43.025   2.723
66094W        W34312   9.282   7.658   1.211
66095W        W34313  21.318  39.242  11.504
66096W        W34314  18.716   3.095  10.743
66097W        W34315  42.370  24.202   2.743
66098W        W34316  17.048  32.409   1.779
66099W        W34317  32.561  35.624  10.912
66100W        W34318  13.779  43.306   0.752
66101W        W34319  24.074   0.871   0.307
66102W        W34320  24.415   8.686  10.817
66103W        W34321   5.889  28.617  12.550
66104W        W34322  30.647  21.624  13.075
66105W        W34323  44.431  10.649  12.993
66106W        W34324  17.181  38.381   3.348
66107W        W34325   6.803  44.438   1.219
66108W        W34326  13.783   6.265   4.842
66109W        W34327  39.541  20.969   2.028
66110W        W34328   3.745   0.823  11.637
66111W        W34329  27.513  18.272   4.680
66112W        W34330  14.721   2.573   2.191
66113W        W34331  23.257   8.315  10.594
66114W        W34332   0.773   6.446  14.496
66115W        W34333   2.754  32.844   0.383
66116W        W34334  44.198  40.292  14.234
66117W        W34335  35.571   1.803   4.308
66118W        W34336   4.798   6.400   3.536
66119W        W34337  43.327  44.204  14.810
66120W        W34338   8.172   5.124  13.035
66121W        W34339   6.470  44.500   0.255
66122W        W34340  21.452  28.840   5.108
66123W        W34341  40.092  31.576   0.359
66124W        W34342  33.615  31.052   3.623
66125W        W34343  36.303  37.298  11.247
66126W        W34344  22.638  20.231   0.336
66127W        W34345  41.417  38.597  12.530
66128W        W34346  33.510  17.329  11.654
66129W        W34347  35.756   2.987  10.549
66130W        W34348  33.882   2.499   4.616
66131W        W34349   3.904   8.753  12.486
66132W        W34350   5.803  40.526  11.728
66133W        W34351  15.128  33.505   1.846
66134W        W34352  31.024  29.752  13.089
66135W        W34353  32.225  34.028  10.502
66136W        W34354   6.372  21.706  12.510
66137W        W34355  39.064   7.123   3.661
66138W        W34356   4.856  13.607  12.887
66139W        W34357   9.373  39.555   1.790
66140W        W34358   1.786  19.529   2.311
66141W        W34359  20.808  11.163   4.717
66142W        W34360   4.860  38.313  10.479
66143W        W34361  13.547  18.687   2.395
66144W        W34362   6.814   8.658  10.654
66145W        W34363  32.076  26.677  11.510
66146W        W34364   0.681  32.581   4.124
66147W        W34365   3.713  36.514  11.648
66148W        W34366   3.671  11.578  13.935
66149W        W34367  31.125   4.342  13.817
66150W        W34368  39.144  34.324  10.415
66151W        W34369   1.449  43.237   4.496
66152W        W34370  30.940   8.141  12.953
66153W        W34371  20.266  42.780   1.235
66154W        W34372  10.850  29.198   4.355
66155W        W34373   4.319  20.255  13.041
66156W        W34374  20.069  41.740   1.007
66157W        W34375  10.784  16.772  13.115
66158W        W34376  34.413  19.115  11.481
66159W        W34377  34.437  35.093   0.380
66160W        W34378   5.233  16.053  14.804
66161W        W34379  29.902   9.307  14.844
66162W        W34380   6.492  34.477   1.711
66163W        W34381   1.010  43.436   2.755
66164W        W34382  14.816  44.189   3.583
66165W        W34383   8.378   7.848  11.922
66166W        W34384  23.625   8.689   4.599
66167W        W34385  23.472   4.164   0.705
66168W        W34386   8.391  41.350  10.763
66169W        W34387   1.039  41.981  10.994
66170W        W34388  31.683  22.600   0.847
66171W        W34389  12.304  29.150   1.451
66172W        W34390  25.456   0.937  11.262
66173W        W34391  16.698  25.982   3.090
66174W        W34392   3.172  11.143  11.450
66175W        W34393  17.706  32.353   4.140
66176W        W34394  25.016  15.803  11.998
66177W        W34395  36.422  27.167   0.944
66178W        W34396  11.189  44.717  14.791
66179W        W34397   5.749  41.443   0.781
66180W        W34398  21.947   3.927   1.445
66181W        W34399  39.022   2.463  13.066
66182W        W34400   4.635  41.302   4.455
66183W        W34401   3.962  32.696   0.818
66184W        W34402  41.581  30.444   0.885
66185W        W34403  27.418  12.879  11.478
66186W        W34404  42.357  42.942  13.577
66187W        W34405  41.605  11.396  14.481
66188W        W34406   0.727   9.143  14.211
66189W        W34407   0.532  44.386   2.201
66190W        W34408  32.589  25.447  11.666
66191W        W34409  39.293   1.580   2.415
66192W        W34410  36.146  31.997  11.617
66193W        W34411  43.876  21.988  13.323
66194W        W34412  34.897   1.315   3.292
66195W        W34413  17.324  22.241  14.420
66196W        W34414  17.986  25.509  11.138
66197W        W34415  18.164  41.384   2.299
66198W        W34416  14.086  41.517   4.441
66199W        W34417  27.865  16.812   0.002
66200W        W34418  31.511   8.641  14.729
66201W        W34419  42.557   1.458  13.997
66202W        W34420  17.714   3.759  10.757
66203W        W34421  42.123   8.756   0.911
66204W        W34422  38.943  33.147   0.090
66205W        W34423  25.552  40.925   4.131
66206W        W34424  10.126   6.967  14.218
66207W        W34425  16.109  40.300  11.565
66208W        W34426  44.213  17.872  14.727
66209W        W34427  31.384  32.115  12.932
66210W        W34428  40.461  32.696  13.410
66211W        W34429   0.785  13.265  13.300
66212W        W34430  18.633  40.565  12.079
66213W        W34431  25.699  17.633   3.118
66214W        W34432   6.145  12.799  14.299
66215W        W34433   3.629  31.900  10.181
66216W        W34434  29.189  37.371  11.435
66217W        W34435  14.070  26.032  12.523
66218W        W34436   0.612  15.631  11.181
66219W        W34437   2.326   0.496   3.813
66220W        W34438  17.207  14.208   4.090
66221W        W34439  13.259  16.806   3.577
66222W        W34440  24.464   9.431   2.847
66223W        W34441  12.895  18.829  14.394
66224W        W34442  36.457  19.723  13.855
66225W        W34443  18.591   8.235   4.388
66226W        W34444   5.278  39.305  12.823
66227W        W34445  28.526  26.523   4.142
66228W        W34446   5.771   5.294  11.044
66229W        W34447   0.716  22.138   0.177
66230W        W34448  30.337  30.952  12.431
66231W        W34449  26.621  25.775   4.140
66232W        W34450  33.611  27.089  13.854
66233W        W34451   1.413  24.123   0.856
66234W        W34452  43.576  20.292  12.570
66235W        W34453  25.450  29.025  10.272
66236W        W34454  26.451  39.559   0.832
66237W        W34455  33.952   6.160   2.587
66238W        W34456  14.241  31.363   3.107
66239W        W34457  26.738   1.303  10.986
66240W        W34458  20.706  10.547  12.814
66241W        W34459  33.887  23.137  13.751
66242W        W34460  39.056   3.901  13.093
66243W        W34461   5.891  43.432   3.153
66244W        W34462  28.056  42.803   4.098
66245W        W34463  42.223   4.186   3.735
66246W        W34464  19.596  27.471   0.284
66247W        W34465  23.809  15.176   2.848
66248W        W34466  38.531   0.801  11.656
66249W        W34467  43.312  16.119  12.433
66250W        W34468  10.927  33.793   3.323
66251W        W34469  13.286  35.644   4.970
66252W        W34470  16.615  42.058  11.009
66253W        W34471  29.994  41.461   3.580
66254W        W34472  12.083  32.917  14.513
66255W        W34473  29.993  16.141  11.057
66256W        W34474  15.737  11.435   1.831
66257W        W34475  18.823  15.843  14.957
66258W        W34476  13.188  22.981  10.707
66259W        W34477  13.514  27.481  13.432
66260W        W34478   7.752  29.124   2.746
66261W        W34479   2.321  27.431  14.185
66262W        W34480   2.552  24.632  11.410
66263W        W34481  31.491  44.358  10.666
66264W        W34482   8.416  11.893   0.894
66265W        W34483  24.785   8.401  10.605
66266W        W34484  26.926  17.649  13.739
66267W        W34485   9.860  42.897   2.681
66268W        W34486  33.004  35.813  13.941
66269W        W34487  31.907  41.484   1.130
66270W        W34488  25.135  39.578   0.410
66271W        W34489  44.979  25.133  11.076
66272W        W34490  17.122   1.660   9.793
66273W        W34491  30.872   9.124   2.428
66274W        W34492   4.731  10.786   1.234
66275W        W34493  33.697  43.409   1.577
66276W        W34494  34.456  31.093   2.417
66277W        W34495   4.993  37.128  14.259
66278W        W34496  18.860  13.119   0.853
66279W        W34497  40.760  25.245   2.450
66280W        W34498  37.425   8.658   4.050
66281W        W34499  41.059  43.147  11.125
66282W        W34500  26.690  40.361  14.748
66283W        W34501  21.728   4.659  13.542
66284W        W34502  42.908  16.572  14.785
66285W        W34503  32.449  22.065  13.612
66286W        W34504   1.493  19.154   4.493
66287W        W34505  34.858  30.181   2.899
66288W        W34506  43.700  17.743  14.693
66289W        W34507  10.103  11.861  14.091
66290W        W34508   9.274  28.639  14.820
66291W        W34509   8.850  22.722   5.035
66292W        W34510  26.266  42.949   4.284
66293W        W34511  29.909  41.124  12.904
66294W        W34512  10.205  36.857  11.413
66295W        W34513  32.477  35.393  14.808
66296W        W34514   6.644  19.531  13.763
66297W        W34515  34.003  26.717   2.357
66298W        W34516  10.159  12.918  14.805
66299W        W34517  13.979   6.689   2.293
66300W        W34518  40.047  38.965  11.036
66301W        W34519   7.303  19.625  14.975
66302W        W34520  37.595  11.290  13.001
66303W        W34521  32.480   2.353  12.412
66304W        W34522  22.563  23.112   1.309
66305W        W34523  11.353  40.760   3.755
66306W        W34524   3.505  21.093  13.023
66307W        W34525  28.040  14.023   9.815
66308W        W34526  10.437   8.232  14.223
66309W        W34527  41.086  26.314   3.338
66310W        W34528  33.049  31.447   2.329
66311W        W34529  39.356  16.036  11.223
66312W        W34530  34.101  19.712   2.086
66313W        W34531  37.805  17.100   0.354
66314W        W34532   4.438  43.774   3.141
66315W        W34533  16.434  19.457   3.813
66316W        W34534  12.728  36.488  10.382
66317W        W34535  43.272  19.216   0.350
66318W        W34536  35.313  31.587  14.862
66319W        W34537  15.707  42.416  12.819
66320W        W34538   4.844  20.470  14.139
66321W        W34539  40.415   8.290   0.480
66322W        W34540  37.502  11.819   0.352
66323W        W34541  32.160  40.804   3.622
66324W        W34542  10.600  35.818  13.973
66325W        W34543  15.080  14.161  13.516
66326W        W34544  12.021  14.913   0.392
66327W        W34545  16.811   1.232  13.986
66328W        W34546  25.588  16.325  13.288
66329W        W34547  23.549  19.319  11.257
66330W        W34548   9.735  14.628  12.159
66331W        W34549   5.864  24.013  10.984
66332W        W34550  22.444  31.439   4.148
66333W        W34551   4.783   4.511   1.515
66334W        W34552  16.337  11.641   1.819
66335W        W34553  19.831  21.603  13.596
66336W        W34554  23.574  29.234  11.356
66337W        W34555   7.998   5.597  13.127
66338W        W34556  36.587  39.291   4.514
66339W        W34557  33.742  27.183   3.230
66340W        W34558  27.517   5.395  10.551
66341W        W34559  25.030   2.492   2.716
66342W        W34560   8.912  16.446  13.896
66343W        W34561  22.165  33.578  10.721
66344W        W34562   9.241  30.528  12.888
66345W        W34563  34.869  15.084  10.606
66346W        W34564   6.827   6.984   0.769
66347W        W34565  23.614   7.114   1.402
66348W        W34566  36.547  11.094   4.565
66349W        W34567  36.402  25.479  10.507
66350W        W34568  43.059  30.561   1.835
66351W        W34569  30.554  28.240   1.627
66352W        W34570  32.192   4.725   2.301
66353W        W34571  13.948  43.357  11.587
66354W        W34572  31.210  20.121   0.330
66355W        W34573  12.052  39.855   2.904
66356W        W34574  18.723  24.232  12.737
66357W        W34575   1.794  12.618  10.790
66358W        W34576   6.400  43.585  10.375
66359W        W34577  30.540  32.816  12.078
66360W        W34578  29.568  20.833   3.495
66361W        W34579  30.974  27.737   2.897
66362W        W34580  28.499  30.026   1.233
66363W        W34581   2.340   8.558   1.769
66364W        W34582  25.226  13.694  11.120
66365W        W34583  36.035  14.126  13.374
66366W        W34584  39.121  38.969   4.597
66367W        W34585  15.017  44.380  11.531
66368W        W34586  18.346  11.121   3.677
66369W        W34587  15.079  29.388   4.269
66370W        W34588  26.091  34.902  13.921
66371W        W34589  39.298  43.305  13.131
66372W        W34590   5.865  33.672   1.952
66373W        W34591   0.889  23.974  13.945
66374W        W34592  44.790  17.859   4.073
66375W        W34593  33.140  35.509   2.849
66376W        W34594  38.454  14.242   3.040
66377W        W34595  41.552  26.153  14.667
66378W        W34596   2.983  15.558  12.461
66379W        W34597   9.464  16.537  13.293
66380W        W34598  12.780   5.167  13.562
66381W        W34599   4.109   3.267  13.327
66382W        W34600  31.589  16.580   1.149
66383W        W34601   1.616  39.939   3.690
66384W        W34602  23.476  20.710  12.581
66385W        W34603  25.072  32.129  11.152
66386W        W34604  26.811  40.605  10.769
66387W        W34605   5.673   0.965   1.727
66388W        W34606   2.788  32.431   4.813
66389W        W34607   5.253  22.607  12.405
66390W        W34608  34.343  16.177   4.618
66391W        W34609  26.403   3.266  12.483
66392W        W34610  39.808  32.823   4.057
66393W        W34611  18.693   3.325  12.899
66394W        W34612  32.821  11.892   1.822
66395W        W34613  12.358  16.835  13.126
66396W        W34614  11.667  26.009   2.882
66397W        W34615  14.435  35.197   2.827
66398W        W34616  24.668  13.246   2.792
66399W        W34617  30.548  26.608   2.820
66400W        W34618  40.066  33.084   0.442
66401W        W34619   8.743  14.113  12.005
66402W        W34620  40.043  40.033   1.029
66403W        W34621   4.723  29.811   4.525
66404W        W34622  10.713  24.817  13.367
66405W        W34623  22.082   5.363   1.238
66406W        W34624   0.344  35.480   1.379
66407W        W34625  24.074  33.800   9.624
66408W        W34626  32.168  42.460  14.345
66409W        W34627  29.507  25.459  13.904
66410W        W34628   1.521  32.930   4.128
66411W        W34629  11.189  34.239  10.749
66412W        W34630   3.236   9.227   2.698
66413W        W34631   8.168  20.145  14.155
66414W        W34632   7.839  10.605  11.565
66415W        W34633   1.275  14.581   3.178
66416W        W34634  30.385   5.267   4.489
66417W        W34635   7.336  36.894   2.176
66418W        W34636   4.836  43.438  12.002
66419W        W34637  35.989   2.196   0.653
66420W        W34638  37.465  10.133  13.747
66421W        W34639  24.480  38.569   4.514
66422W        W34640   8.610  18.959   9.787
66423W        W34641  15.257  15.482   5.027
66424W        W34642   0.967   0.158   1.348
66425W        W34643  38.433  11.375  11.149
66426W        W34644  33.608   5.491  13.366
66427W        W34645   0.900  27.170   3.373
66428W        W34646  30.593  42.457   1.655
66429W        W34647  14.171  37.989   2.984
66430W        W34648  13.378   0.999   4.842
66431W        W34649   5.054  15.196   3.732
66432W        W34650  39.553  24.630   0.302
66433W        W34651  37.617  21.715  10.926
66434W        W34652  40.915   7.781  13.473
66435W        W34653  27.072  26.416  12.297
66436W        W34654   7.266   1.944  11.088
66437W        W34655  12.665  32.508   0.650
66438W        W34656   9.224  33.065  12.647
66439W        W34657  21.658   1.023  12.181
66440W        W34658  18.849  29.769   2.957
66441W        W34659  10.283  24.588   3.879
66442W        W34660  10.398  31.709  14.008
66443W        W34661  36.320   3.774   4.568
66444W        W34662  23.876  36.845  11.146
66445W        W34663  31.945  19.706  10.647
66446W        W34664  26.551  21.667   3.676
66447W        W34665  28.634  39.011   2.372
66448W        W34666  12.847  17.510   3.933
66449W        W34667  42.831  15.638   0.301
66450W        W34668  35.026  35.900  10.750
66451W        W34669  15.081  19.589   1.416
66452W        W34670  14.377  36.782  11.991
66453W        W34671  38.836  10.133   1.446
66454W        W34672   4.027  38.162   1.895
66455W        W34673  19.742   4.784  13.747
66456W        W34674  21.713   7.861   1.944
66457W        W34675   5.108   6.621   3.173
66458W        W34676  36.865  37.864  11.584
66459W        W34677  19.045  29.860  14.000
66460W        W34678   4.927  39.437  11.552
66461W        W34679  34.372   7.210  13.978
66462W        W34680   6.344  37.034  10.737
66463W        W34681  29.375  39.391  10.700
66464W        W34682   0.613   5.681   0.765
66465W        W34683  23.653  23.661   2.653
66466W        W34684  21.710  18.817   4.209
66467W        W34685  30.818  22.264   3.099
66468W        W34686  12.668   5.584   1.674
66469W        W34687  31.517   6.703   3.751
66470W        W34688  16.779  18.117   3.550
66471W        W34689  11.688  28.604   1.183
66472W        W34690  19.981  26.089   2.251
66473W        W34691   1.293  35.996  13.886
66474W        W34692  42.214   9.969  13.509
66475W        W34693   8.629  29.681   4.141
66476W        W34694  36.962   2.363  11.905
66477W        W34695   3.351  11.355  10.286
66478W        W34696  38.469  32.974   0.303
66479W        W34697  44.678   1.836  14.950
66480W        W34698  29.096  36.372  14.741
66481W        W34699   6.690  21.613   3.256
66482W        W34700  17.084   9.427  13.299
66483W        W34701  27.703  26.189   0.825
66484W        W34702  31.502  26.018   3.820
66485W        W34703   6.883  40.038   0.762
66486W        W34704  43.516   8.246  12.825
66487W        W34705  22.064   1.895   3.596
66488W        W34706  22.773   3.313  12.463
66489W        W34707  41.807  37.080  13.874
66490W        W34708  13.554  27.221   4.859
66491W        W34709  10.693   3.492   1.885
66492W        W34710  13.637  41.328  12.292
66493W        W34711  40.100  29.574   0.659
66494W        W34712   8.213   2.956  12.908
66495W        W34713   9.404  17.320   1.325
66496W        W34714  28.032  14.755   4.572
66497W        W34715   1.484  41.520   0.875
66498W        W34716   9.047  38.912   3.049
66499W        W34717   4.393  20.285  10.716
66500W        W34718  14.677   1.708   1.398
66501W        W34719  33.281  24.833   3.269
66502W        W34720  25.418   0.231   2.663
66503W        W34721  42.869  14.266  12.840
66504W        W34722  36.854  12.625  14.413
66505W        W34723  31.608  21.747  13.248
66506W        W34724   3.842   5.693  11.103
66507W        W34725  10.726  19.843   0.934
66508W        W34726   9.168  15.487   0.863
66509W        W34727  31.660  33.168   1.636
66510W        W34728  12.723  35.680  10.552
66511W        W34729   8.362   3.635  11.973
66512W        W34730  30.945  38.523  13.063
66513W        W34731  10.878  33.652  12.491
66514W        W34732  18.946  37.934  13.575
66515W        W34733  25.514  30.596   0.536
66516W        W34734  40.555   1.763  14.116
66517W        W34735  13.249  36.259   2.325
66518W        W34736   3.890  21.196  12.003
66519W        W34737   9.567  12.641   0.365
66520W        W34738   4.261  41.092   1.241
66521W        W34739   3.684  23.636  11.316
66522W        W34740   1.037  25.794  13.632
66523W        W34741  23.476   6.503  10.548
66524W        W34742  32.885  17.173  12.918
66525W        W34743  44.974  20.779   0.914
66526W        W34744  44.717   2.837   0.276
66527W        W34745   3.993   8.352   1.911
66528W        W34746  29.081  38.121   3.640
66529W        W34747  44.691   0.435  14.493
66530W        W34748  24.128  12.787  13.940
66531W        W34749  15.646  21.122  10.880
66532W        W34750  40.368   2.358  12.918
66533W        W34751  24.669  11.317   1.815
66534W        W34752  37.150  20.462  14.771
66535W        W34753  10.979  31.694   4.712
66536W        W34754  28.419  23.502   3.121
66537W        W34755  29.349  34.676   9.841
66538W        W34756  31.124  33.036   2.916
66539W        W34757  14.201   1.401  11.936
66540W        W34758  31.422  12.885  11.992
66541W        W34759   4.653  37.738   4.685
66542W        W34760  41.180  10.864   3.010
66543W        W34761  30.937   5.154  12.908
66544W        W34762  33.314  25.388   0.761
66545W        W34763   6.871   0.404  13.278
66546W        W34764   0.917  14.165   0.298
66547W        W34765  14.199  37.018   1.702
66548W        W34766  14.770   9.863   2.352
66549W        W34767  22.629  12.953  14.447
66550W        W34768  44.342  14.845  14.203
66551W        W34769  21.660  43.839   0.533
66552W        W34770   8.264  37.370  12.526
66553W        W34771   4.233   2.424  14.098
66554W        W34772  25.447  27.659   3.951
66555W        W34773  30.200   3.748  13.909
66556W        W34774  28.952  18.446   0.486
66557W        W34775  13.675   9.302   2.037
66558W        W34776  23.247  22.614  10.202
66559W        W34777  31.583  39.710  11.064
66560W        W34778  25.431  44.038   3.848
66561W        W34779  41.364  34.825   2.849
66562W        W34780  10.894  30.487  13.463
66563W        W34781  33.657  25.185   0.266
66564W        W34782  10.330  23.582   2.731
66565W        W34783   5.340   0.921  11.595
66566W        W34784  13.955  34.609  10.179
66567W        W34785   1.689  15.081   4.101
66568W        W34786  33.137  37.935   4.868
66569W        W34787   3.263  25.136   0.263
66570W        W34788  15.658   4.856   4.085
66571W        W34789  23.987  39.349   2.356
66572W        W34790  32.908  43.253   1.011
66573W        W34791  33.993  11.343   0.418
66574W        W34792  31.640   9.144  12.472
66575W        W34793  14.542  34.135  11.683
66576W        W34794  31.241  40.849   4.048
66577W        W34795  19.679  38.061   0.057
66578W        W34796  40.990  16.803  12.456
66579W        W34797  19.143  23.252  14.270
66580W        W34798  33.658  21.026  11.646
66581W        W34799  20.137  33.578  13.335
66582W        W34800  41.854  12.442  11.161
66583W        W34801  28.209  10.244  10.623
66584W        W34802  44.484  14.499  11.580
66585W        W34803  24.562  26.341  14.361
66586W        W34804  13.832  18.278  11.085
66587W        W34805  22.131  20.078  10.641
66588W        W34806  28.226  23.731   1.759
66589W        W34807  14.885   9.406   4.995
66590W        W34808   6.292  39.419  13.998
66591W        W34809  20.814   2.324   4.523
66592W        W34810  41.464   9.905  13.952
66593W        W34811   9.812  38.056   3.716
66594W        W34812   9.392  11.890   1.842
66595W        W34813  15.249  44.766   2.753
66596W        W34814  39.079  29.530   0.819
66597W        W34815  31.457  32.629  12.899
66598W        W34816  35.600  35.870   3.108
66599W        W34817  25.556  10.740  10.730
66600W        W34818  28.443   2.795   2.743
66601W        W34819   6.800   1.995  13.241
66602W        W34820  20.545   9.186   2.708
66603W        W34821   2.821  17.615  12.524
66604W        W34822  14.245   4.200  13.275
66605W        W34823  25.825  21.484   4.079
66606W        W34824  28.514  17.137  14.465
66607W        W34825  33.190  36.656  13.846
66608W        W34826  17.725  18.117  10.279
66609W        W34827   2.835  23.421  12.102
66610W        W34828   0.259   3.680  11.692
66611W        W34829  23.466  10.984  13.501
66612W        W34830   3.474  23.721   1.376
66613W        W34831   6.201  31.407   0.012
66614W        W34832  30.030  44.806  11.980
66615W        W34833  14.635  37.876  14.597
66616W        W34834  36.867  28.448  11.418
66617W        W34835  13.359  35.756   0.707
66618W        W34836  39.393  35.440  12.859
66619W        W34837   6.198   0.702  12.514
66620W        W34838  16.185  42.286  11.185
66621W        W34839  40.524  28.921  13.919
66622W        W34840   6.611   8.733   1.994
66623W        W34841  32.429  42.521  11.674
66624W        W34842  13.368  20.170   0.378
66625W        W34843  10.416  16.753  14.929
66626W        W34844  28.554  13.659  11.264
66627W        W34845  30.609  42.998   4.534
66628W        W34846   3.976  14.233   0.933
66629W        W34847   9.898  43.392  13.387
66630W        W34848  22.646   6.961  14.509
66631W        W34849  40.490   3.445   2.178
66632W        W34850  30.924   4.679  13.274
66633W        W34851  38.166  41.331   0.968
66634W        W34852  10.239   6.693  11.579
66635W        W34853  17.580  17.102   1.283
66636W        W34854  38.645  10.623  10.655
66637W        W34855  38.160   6.465   0.396
66638W        W34856  28.915  17.082   9.822
66639W        W34857  39.501  20.713   3.797
66640W        W34858  23.719  24.497  14.344
66641W        W34859  28.624  17.307   2.188
66642W        W34860  41.831  28.402   3.708
66643W        W34861  35.940   6.137  13.041
66644W        W34862  34.946  32.971  14.786
66645W        W34863  21.324   2.365   4.522
66646W        W34864   0.270  11.223  10.675
66647W        W34865  34.681  36.803  10.974
66648W        W34866   8.641  25.014  11.292
66649W        W34867  43.746  20.111   2.595
66650W        W34868  25.083  13.633   3.591
66651W        W34869  39.931  13.412  13.522
66652W        W34870  42.322   3.877  11.515
66653W        W34871  42.946  41.297  13.786
66654W        W34872  35.672  13.451  14.822
66655W        W34873  37.576  42.871  13.579
66656W        W34874  26.595  41.097  10.799
66657W        W34875  30.940   7.213   3.163
66658W        W34876  33.026  14.140   4.104
66659W        W34877  18.285  20.595   0.109
66660W        W34878   7.008   2.759   3.624
66661W        W34879  14.326  16.934  13.069
66662W        W34880   7.368   3.650   4.005
66663W        W34881   1.975  40.538  14.456
66664W        W34882  21.584  28.909  13.424
66665W        W34883  19.080  36.117   2.345
66666W        W34884  18.339  43.342  13.621
66667W        W34885   9.987  35.699   2.177
66668W        W34886  19.754   0.089  11.589
66669W        W34887  13.179  30.728   1.322
66670W        W34888  39.030   8.156  13.746
66671W        W34889  20.077   6.805   0.250
66672W        W34890  12.926   7.817  12.140
66673W        W34891  27.468   3.142  12.402
66674W        W34892  13.308  38.610  10.991
66675W        W34893  24.617  15.327  10.706
66676W        W34894  31.142  32.976  11.683
66677W        W34895   1.912   3.890  10.774
66678W        W34896  23.908  26.045  13.909
66679W        W34897  20.990  42.389   0.888
66680W        W34898  34.553  27.650   3.120
66681W        W34899  14.788  42.519  14.863
66682W        W34900  38.914   9.382   4.069
66683W        W34901  30.454  15.691  13.468
66684W        W34902  41.058  28.501   2.375
66685W        W34903   8.846  20.643   1.403
66686W        W34904  23.937  29.230   1.682
66687W        W34905  13.551  27.434   4.249
66688W        W34906  20.504  13.979   2.411
66689W        W34907   8.377  18.807   4.931
66690W        W34908   3.214   8.728   2.897
66691W        W34909   9.638   1.746  12.013
66692W        W34910   8.167  26.860  13.216
66693W        W34911   9.105  43.795  10.982
66694W        W34912   2.171  20.207   2.737
66695W        W34913  31.914   9.112  11.100
66696W        W34914  25.246  33.857  10.782
66697W        W34915  36.154  14.661   3.180
66698W        W34916  32.233  39.865  13.311
66699W        W34917  43.471  23.525   3.509
66700W        W34918  17.698   5.428  12.448
66701W        W34919  15.246  17.307   2.147
66702W        W34920  10.623  35.999  14.979
66703W        W34921  23.703   9.627   3.617
66704W        W34922  24.954  18.536   3.792
66705W        W34923  16.612  44.923  14.470
66706W        W34924  38.090   6.687  13.714
66707W        W34925  13.584  39.467  13.540
66708W        W34926   4.534  31.448  10.643
66709W        W34927  27.768  27.398   1.745
66710W        W34928   6.449  36.493  11.402
66711W        W34929   1.429  44.488  12.411
66712W        W34930  19.517  42.764   1.386
66713W        W34931  27.887  19.079   0.373
66714W        W34932  19.545  22.983  13.444
66715W        W34933  38.416   1.140   4.094
66716W        W34934  40.264  31.207  13.272
66717W        W34935  24.403  39.637  13.879
66718W        W34936  39.103  33.567   1.378
66719W        W34937  18.190   0.280   3.199
66720W        W34938  39.496   3.935   5.031
66721W        W34939  39.496  31.117  11.891
66722W        W34940  18.573  18.694  11.256
66723W        W34941  38.179   3.948  12.727
66724W        W34942   0.161   9.874  14.886
66725W        W34943   0.771  10.769   4.418
66726W        W34944  32.341   7.928  14.759
66727W        W34945  21.473   9.298  11.562
66728W        W34946   3.985  20.430  11.031
66729W        W34947  31.360  31.436  13.615
66730W        W34948  31.071  26.114   2.579
66731W        W34949   9.994   2.085   4.488
66732W        W34950   8.784  10.115  11.601
66733W        W34951  37.773   0.993  10.289
66734W        W34952  17.757  42.903  13.044
66735W        W34953  16.770  39.835  12.046
66736W        W34954  30.089  30.096   0.935
66737W        W34955  15.761  38.579  13.582
66738W        W34956  15.085  18.582  10.723
66739W        W34957  23.973   3.382   2.072
66740W        W34958  36.099  27.871  14.188
66741W        W34959  27.467  24.787  12.026
66742W        W34960  41.765  15.278  14.332
66743W        W34961  28.841  29.769   0.925
66744W        W34962   0.871  43.156   5.002
66745W        W34963  27.674   9.705   2.473
66746W        W34964  42.769  41.477   1.805
66747W        W34965   7.866   4.396   3.753
66748W        W34966  19.124  10.460   4.606
66749W        W34967  19.639  39.334  10.405
66750W        W34968  28.377  30.612  14.801
66751W        W34969   8.171  43.934   3.375
66752W        W34970  12.874   4.649  11.638
66753W        W34971  32.419   7.684  11.652
66754W        W34972  27.687   9.117  14.419
66755W        W34973  40.570  26.693  14.892
66756W        W34974  36.920  16.120   4.059
66757W        W34975   4.171  44.848  13.023
66758W        W34976  18.524  38.425  11.028
66759W        W34977  39.327   7.255  10.749
66760W        W34978  23.465  11.429   3.691
66761W        W34979  15.130   8.946  14.025
66762W        W34980  26.140   6.891  12.809
66763W        W34981  31.986  33.106  12.015
66764W        W34982  37.596  32.094  11.581
66765W        W34983  23.666  33.942   3.549
66766W        W34984   1.045   6.582   3.425
66767W        W34985   7.755  43.759   3.096
66768W        W34986   8.644  44.071   2.439
66769W        W34987  33.606  15.591  11.149
66770W        W34988  16.319  14.759  13.318
66771W        W34989  13.348  18.474   2.823
66772W        W34990  42.441   7.305   2.202
66773W        W34991   8.676  30.485  11.190
66774W        W34992   9.238  42.137  12.851
66775W        W34993  34.276   8.949   2.830
66776W        W34994  42.428  14.952   1.434
66777W        W34995   2.698  44.915  13.965
66778W        W34996  12.100  27.002   3.069
66779W        W34997  16.583   8.806  12.080
66780W        W34998   5.841   1.437  12.510
66781W        W34999  32.983  27.813  11.891
66782W        W35000  32.747  14.537  11.173
66783W        W35001  12.894  18.096   3.276
66784W        W35002  37.297   0.910   3.741
66785W        W35003  40.994  27.453  11.605
66786W        W35004  17.554   6.587   4.104
66787W        W35005  12.269   8.138  12.974
66788W        W35006  21.334  32.399   5.233
66789W        W35007  12.267  14.099   2.786
66790W        W35008   7.020  11.774   1.737
66791W        W35009  40.945   1.839   3.595
66792W        W35010  15.199  13.388  12.953
66793W        W35011  23.561  39.623   0.671
66794W        W35012   7.223   8.358  11.747
66795W        W35013  43.089  27.157  11.999
66796W        W35014   5.184   3.960   4.668
66797W        W35015  15.005  42.296   2.278
66798W        W35016   4.644  31.369  12.339
66799W        W35017  25.230  10.291  12.175
66800W        W35018  21.567  31.748  11.714
66801W        W35019  42.381  13.133   4.281
66802W        W35020   2.917  42.497  14.961
66803W        W35021   8.221  35.815   4.595
66804W        W35022  27.864  43.778   3.629
66805W        W35023  37.555  15.178  14.778
66806W        W35024  12.130  43.911  12.574
66807W        W35025   4.986  23.906   3.603
66808W        W35026  15.118  27.371   0.820
66809W        W35027   6.831  34.381  11.142
66810W        W35028  12.917  12.628   3.677
66811W        W35029  36.712  23.496   4.715
66812W        W35030  28.044  41.296  12.836
66813W        W35031  27.323  26.476  14.117
66814W        W35032  28.275  18.595  11.653
66815W        W35033  39.909  18.181   2.402
66816W        W35034  38.517  13.313  14.348
66817W        W35035  24.428   9.468  13.784
66818W        W35036  26.252  15.788   1.146
66819W        W35037  38.689  17.439  11.270
66820W        W35038   9.264  37.286   3.914
66821W        W35039  34.197  12.182   4.035
66822W        W35040  32.870  17.703   1.182
66823W        W35041  14.245  41.521   0.277
66824W        W35042  23.454  16.470  11.056
66825W        W35043  21.705  37.650  13.185
66826W        W35044  19.673  19.587   0.926
66827W        W35045  22.145  31.963   4.788
66828W        W35046   0.816  17.341  12.763
66829W        W35047  30.443  20.562   0.761
66830W        W35048  10.282   1.556   4.584
66831W        W35049  13.225  26.580  13.901
66832W        W35050  34.586  33.627  12.450
66833W        W35051   9.978  12.180   4.180
66834W        W35052  41.593  13.765  13.914
66835W        W35053  17.126  34.288   4.799
66836W        W35054   0.499  40.173  10.759
66837W        W35055  32.970  32.954   1.942
66838W        W35056  40.701  40.985   2.251
66839W        W35057  25.733  13.100   0.922
66840W        W35058  20.531  39.779  13.947
66841W        W35059  35.685  31.635  13.089
66842W        W35060  22.053  26.666  11.925
66843W        W35061  24.510  21.213   0.233
66844W        W35062  11.306  44.059   0.425
66845W        W35063   7.262   2.499  12.940
66846W        W35064  23.437   3.262  11.655
66847W        W35065  22.186  37.131   2.281
66848W        W35066  29.714  41.911   3.635
66849W        W35067  10.492  29.073  14.441
66850W        W35068  37.371  32.108   4.116
66851W        W35069  44.745  23.448   0.834
66852W        W35070   4.698  22.035  14.007
66853W        W35071  38.326   0.755   1.202
66854W        W35072  34.980  31.212  14.473
66855W        W35073   4.229  23.902   0.162
66856W        W35074  33.560  10.772  11.695
66857W        W35075  27.887  24.646   4.608
66858W        W35076  15.190  16.069   3.998
66859W        W35077  24.220  11.030  13.871
66860W        W35078   9.879   0.424  14.817
66861W        W35079  30.177   0.376   3.094
66862W        W35080   7.805  27.993   0.921
66863W        W35081  26.137  31.404  10.504
66864W        W35082  40.859  23.047   3.268
66865W        W35083   6.799  29.372  12.524
66866W        W35084  33.614  20.332   4.154
66867W        W35085  31.844  14.770  12.873
66868W        W35086  36.093  42.054   4.952
66869W        W35087  10.201  26.525   0.837
66870W        W35088   6.362   7.632  12.951
66871W        W35089  38.912  36.096  11.527
66872W        W35090  18.098   0.974  14.471
66873W        W35091  29.600  10.528  14.799
66874W        W35092  11.662  19.317   0.487
66875W        W35093  43.827   9.435  12.166
66876W        W35094  27.526   4.786   1.452
66877W        W35095  23.196  33.591   5.083
66878W        W35096  43.337  15.097  13.043
66879W        W35097  16.072  28.010  13.517
66880W        W35098  35.534  36.221   0.578
66881W        W35099  31.597  11.715   2.767
66882W        W35100  30.144  15.100   3.897
66883W        W35101  29.492  19.244  13.923
66884W        W35102  16.256  13.396  10.243
66885W        W35103  34.848  29.041   2.256
66886W        W35104  16.558  44.503  11.388
66887W        W35105   8.949  33.921   4.208
66888W        W35106  44.279   5.047  13.504
66889W        W35107  10.203  39.431   4.502
66890W        W35108  10.889  18.708  11.905
66891W        W35109  14.206  39.473   1.172
66892W        W35110  27.007  35.438   2.324
66893W        W35111  36.774  34.081   1.613
66894W        W35112  25.226  37.107   1.331
66895W        W35113  29.755   2.941   4.597
66896W        W35114  36.314   3.864   3.648
66897W        W35115   0.822   6.212   1.520
66898W        W35116  33.190  42.919  12.157
66899W        W35117   8.289  15.144   0.444
66900W        W35118  26.748  20.096   1.389
66901W        W35119   6.185  39.100   3.363
66902W        W35120  10.855  11.240   2.326
66903W        W35121  43.307  29.471  11.698
66904W        W35122   4.334   5.324  13.137
66905W        W35123  34.891  37.953   4.813
66906W        W35124  15.410  43.844   0.467
66907W        W35125  30.928  42.902   1.514
66908W        W35126  19.020   5.255   0.699
66909W        W35127   4.417  17.901   0.403
66910W        W35128  42.233  25.475   3.549
66911W        W35129  26.205  14.684   9.876
66912W        W35130  30.926  34.836   1.756
66913W        W35131  44.392  26.276  10.093
66914W        W35132  22.894  18.058   3.630
66915W        W35133  23.166   4.573  13.353
66916W        W35134  14.849  20.155  14.422
66917W        W35135  18.544  21.567   3.681
66918W        W35136  11.330  37.772  14.312
66919W        W35137  20.132   2.911  11.528
66920W        W35138  31.091  26.995   0.759
66921W        W35139  40.741   6.752  13.757
66922W        W35140  34.849  16.127  11.456
66923W        W35141  23.482   2.355  13.042
66924W        W35142  12.973  34.722  14.879
66925W        W35143   9.932  25.262  13.388
66926W        W35144  43.265  41.449   4.188
66927W        W35145  42.947   1.785  14.506
66928W        W35146  34.099  18.745  12.407
66929W        W35147  13.238  26.599   3.660
66930W        W35148  32.237   3.260  13.117
66931W        W35149  43.639  40.677  11.636
66932W        W35150  26.090  35.025   2.219
66933W        W35151  19.612   3.508  13.538
66934W        W35152  21.172  42.369   4.114
66935W        W35153  32.533  44.129  11.249
66936W        W35154  35.069  18.131  12.933
66937W        W35155   6.666  32.037   2.211
66938W        W35156  35.553  42.259  12.477
66939W        W35157  19.781  22.538  14.899
66940W        W35158  12.566  31.459  13.666
66941W        W35159  29.889  16.975   2.691
66942W        W35160  30.110  25.441  14.907
66943W        W35161  18.735  38.355  14.838
66944W        W35162  31.454  42.223  13.916
66945W        W35163   6.915   3.157   2.199
66946W        W35164  39.913   9.117   2.251
66947W        W35165  26.365  44.086  14.961
66948W        W35166  37.376   1.221   3.301
66949W        W35167  16.608   8.293  12.034
66950W        W35168  43.165   0.741  12.494
66951W        W35169  13.689  26.225  14.374
66952W        W35170  13.206  22.769   3.132
66953W        W35171   3.750   0.431  14.449
66954W        W35172  30.180  25.771   2.736
66955W        W35173  44.961  28.055   4.201
66956W        W35174  19.189   3.734  12.049
66957W        W35175  15.263   3.373  10.631
66958W        W35176   5.014  23.257  13.540
66959W        W35177  23.101   7.772  14.793
66960W        W35178  37.559  33.642   2.607
66961W        W35179  39.847  31.390  13.502
66962W        W35180   4.987  24.940  13.822
66963W        W35181   6.908  14.691  11.072
66964W        W35182  12.801  37.463  14.827
66965W        W35183  16.534  18.675  10.903
66966W        W35184   9.882  12.189   1.309
66967W        W35185  36.794  40.019   2.266
66968W        W35186  30.824  14.351   4.131
66969W        W35187  16.720  24.621  13.576
66970W        W35188  28.151  11.729  11.810
66971W        W35189  16.144  32.156  11.188
66972W        W35190  34.538  34.397   2.701
66973W        W35191  29.812  37.381   4.402
66974W        W35192  43.863  39.811   3.653
66975W        W35193  31.900   1.475  11.239
66976W        W35194  21.709   8.737   4.453
66977W        W35195  40.969  19.720   1.339
66978W        W35196  15.682  12.920  12.014
66979W        W35197   8.421   5.828   4.613
66980W        W35198  13.826   9.154  13.065
66981W        W35199  13.784  20.705   1.696
66982W        W35200  10.454  12.302  11.143
66983W        W35201  17.204  23.708  11.123
66984W        W35202  40.438  15.514   1.492
66985W        W35203  14.637  36.970   2.874
66986W        W35204  40.834  31.158   0.293
66987W        W35205   5.667  32.133   3.133
66988W        W35206   1.381  28.659   3.217
66989W        W35207  16.708  20.597   2.928
66990W        W35208  28.543  34.141   0.847
66991W        W35209  39.085  19.677   1.607
66992W        W35210   9.199  14.076   3.932
66993W        W35211  42.580  34.781   3.686
66994W        W35212   4.093  44.254  11.195
66995W        W35213  20.023  12.610   3.134
66996W        W35214  35.501   6.102  12.735
66997W        W35215  16.774  24.475   1.454
66998W        W35216  41.356  15.571  14.313
66999W        W35217  10.755  19.623  11.620
67000W        W35218  43.786  16.870   0.714
67001W        W35219  28.028   5.370  11.275
67002W        W35220   8.497  31.956  12.390
67003W        W35221  40.594  20.530  13.926
67004W        W35222  26.419  16.954   1.730
67005W        W35223   2.499  34.420  12.051
67006W        W35224   9.774  40.675   4.854
67007W        W35225   2.980   9.121  11.639
67008W        W35226  23.212  41.407   1.221
67009W        W35227  25.875  15.979   0.819
67010W        W35228  40.424  24.100   1.307
67011W        W35229   2.942   6.399  13.920
67012W        W35230   1.828  16.344  12.006
67013W        W35231  43.982  29.070  13.413
67014W        W35232  15.820  25.250   2.015
67015W        W35233  16.249   2.215   2.806
67016W        W35234   8.468  44.197  13.055
67017W        W35235   7.275  19.611   0.979
67018W        W35236  22.950  10.684   0.789
67019W        W35237  18.819  33.012  13.443
67020W        W35238  17.494  21.533   3.743
67021W        W35239  38.479  27.644   3.886
67022W        W35240   5.640   8.162  11.207
67023W        W35241   4.335   6.465  12.326
67024W        W35242  27.323   5.920  11.218
67025W        W35243  33.946  23.013   0.167
67026W        W35244  44.264  25.199  10.476
67027W        W35245  12.139  15.043   2.834
67028W        W35246  16.781  33.375   0.523
67029W        W35247  38.445  34.966   4.575
67030W        W35248  39.360  24.212   2.352
67031W        W35249  31.212   0.294   1.773
67032W        W35250  19.555   8.931  12.027
67033W        W35251  17.224  38.811   4.536
67034W        W35252  33.389  32.899  10.229
67035W        W35253  14.402  18.086  13.942
67036W        W35254  24.910  19.085   2.331
67037W        W35255  14.096   8.654  11.573
67038W        W35256  18.456  17.250  12.485
67039W        W35257  36.824  28.823   3.612
67040W        W35258  19.173  24.673   0.966
67041W        W35259  15.050   7.122  13.429
67042W        W35260  20.606  17.764  14.239
67043W        W35261  28.363  10.207   0.915
67044W        W35262  37.348  13.844  12.547
67045W        W35263   7.035  28.620  11.635
67046W        W35264  34.632  40.891  10.689
67047W        W35265  37.462  42.370  13.769
67048W        W35266  33.394  41.167   3.276
67049W        W35267   3.356  41.989  10.814
67050W        W35268  40.966  18.798   2.361
67051W        W35269  19.745  30.720   0.408
67052W        W35270   8.481   5.205   0.764
67053W        W35271  12.992  19.079  11.879
67054W        W35272  11.728  11.404   0.756
67055W        W35273   5.279  24.699   0.412
67056W        W35274  42.348   1.763  11.987
67057W        W35275  21.222  21.485  12.045
67058W        W35276  24.415  43.505  13.829
67059W        W35277  15.565   3.558   4.561
67060W        W35278  12.272  39.920   3.363
67061W        W35279  15.291   8.833  10.662
67062W        W35280   7.116  37.851  10.982
67063W        W35281   5.350  22.185   2.902
67064W        W35282  38.892  19.355   3.769
67065W        W35283   3.391  40.727  14.292
67066W        W35284  20.838  39.033   2.358
67067W        W35285  10.078  18.760  10.851
67068W        W35286  13.252   2.042   0.706
67069W        W35287   8.237  20.105  13.650
67070W        W35288  34.105  22.378   0.840
67071W        W35289  21.810  20.157   0.960
67072W        W35290  40.918  43.447   2.794
67073W        W35291  42.559   7.457   3.229
67074W        W35292  32.215  34.462  11.211
67075W        W35293  30.519  27.508  14.435
67076W        W35294   7.303  33.392   2.786
67077W        W35295  31.484  40.221  11.081
67078W        W35296  31.118  23.096   0.282
67079W        W35297  11.224   0.645   3.257
67080W        W35298  29.037  23.484  14.406
67081W        W35299  37.493   0.735   4.176
67082W        W35300  12.330   2.323   0.542
67083W        W35301  43.223   8.675   2.845
67084W        W35302  11.506  20.399   0.737
67085W        W35303  11.117  14.815  14.696
67086W        W35304   9.539  27.500  14.285
67087W        W35305   1.040  44.101   4.852
67088W        W35306  36.531  23.289   5.187
67089W        W35307  20.824  18.621   1.892
67090W        W35308  25.726  17.672  14.477
67091W        W35309  27.078   7.176   3.390
67092W        W35310  30.075  15.159  11.215
67093W        W35311   8.104  35.270  13.907
67094W        W35312  12.683  15.170   1.564
67095W        W35313  15.278   7.644   1.286
67096W        W35314  25.442   0.443  12.562
67097W        W35315  14.268  18.000  12.992
67098W        W35316  25.439  17.269  10.811
67099W        W35317  22.237  30.584   0.394
67100W        W35318  14.864  29.588   3.855
67101W        W35319  30.891   8.058  12.065
67102W        W35320  10.334  33.794  14.580
67103W        W35321  26.113   1.977   0.438
67104W        W35322  23.579  12.668  14.983
67105W        W35323  29.987  15.222  13.089
67106W        W35324  12.578  39.925  12.928
67107W        W35325   4.302  42.020   4.725
67108W        W35326   6.604  12.639   3.142
67109W        W35327  16.083   3.408   1.380
67110W        W35328   2.874  31.150  13.874
67111W        W35329  13.180   2.025  10.614
67112W        W35330   5.958  24.734  11.655
67113W        W35331  43.776  23.202   2.222
67114W        W35332  15.190  38.863   0.383
67115W        W35333  26.746  27.670  10.254
67116W        W35334  27.463  34.602  13.928
67117W        W35335  36.598  17.842  12.041
67118W        W35336  43.844   0.944  13.012
67119W        W35337   1.117  34.894   1.418
67120W        W35338  19.014  44.555  10.847
67121W        W35339  30.456  32.836  13.073
67122W        W35340  20.632   5.479   0.749
67123W        W35341  23.258  27.223  11.435
67124W        W35342  38.781  33.247   2.361
67125W        W35343  17.591  32.477  12.032
67126W        W35344  41.494   3.374  10.169
67127W        W35345  39.993   0.515  14.908
67128W        W35346  34.371   4.578   4.193
67129W        W35347  22.683  28.604  12.098
67130W        W35348   9.886  39.757  10.857
67131W        W35349  29.931  11.851   1.848
67132W        W35350  30.058  19.051  10.781
67133W        W35351  33.083  26.594  13.459
67134W        W35352  36.965  30.026   4.278
67135W        W35353  11.247  18.143  11.262
67136W        W35354  31.096  16.708  14.902
67137W        W35355   4.477  15.619  11.573
67138W        W35356  13.938  44.445  12.465
67139W        W35357   8.252  21.955  10.849
67140W        W35358  44.083  26.135   1.356
67141W        W35359  38.051   4.882  13.843
67142W        W35360  22.176   0.250   2.241
67143W        W35361   5.236  43.794   4.160
67144W        W35362  21.623  25.684   2.095
67145W        W35363  25.651  14.403  14.862
67146W        W35364  23.110  43.214  14.831
67147W        W35365  32.029  30.092  11.012
67148W        W35366  15.782  34.848  10.706
67149W        W35367  41.968  33.797  14.182
67150W        W35368  29.225  42.278   4.100
67151W        W35369  44.372  24.813   4.041
67152W        W35370   4.122  33.490  14.972
67153W        W35371  34.849  42.996  12.952
67154W        W35372  39.885  38.161   4.698
67155W        W35373   3.730  35.155   1.293
67156W        W35374  31.365  38.514   0.515
67157W        W35375   6.308  25.589  12.616
67158W        W35376  40.030  43.399  12.335
67159W        W35377  36.944  12.481  11.224
67160W        W35378   9.306  11.281   1.330
67161W        W35379  18.182  26.585   1.402
67162W        W35380  14.348  37.506  14.994
67163W        W35381  26.561  18.650  11.084
67164W        W35382  42.330  12.259  11.062
67165W        W35383   5.622  16.059   2.336
67166W        W35384  16.275  20.938  12.066
67167W        W35385  37.331  21.666   4.094
67168W        W35386   8.871   6.208  14.198
67169W        W35387   5.809  16.837   0.863
67170W        W35388  42.255   8.331  10.975
67171W        W35389   7.848   8.348   1.939
67172W        W35390  13.084   1.416  14.414
67173W        W35391   4.897  44.755   4.373
67174W        W35392  33.533  14.329  12.994
67175W        W35393  37.425  39.580   4.663
67176W        W35394   8.335  24.019   2.204
67177W        W35395  32.221  34.581  13.810
67178W        W35396   0.012  15.795   0.339
67179W        W35397  18.268   3.434  14.419
67180W        W35398  34.127  29.713  10.500
67181W        W35399  41.055  41.086  12.582
67182W        W35400  36.068   7.702  14.243
67183W        W35401  12.162  10.323  13.132
67184W        W35402  27.080  37.111   2.835
67185W        W35403  30.495  35.620  14.240
67186W        W35404  17.943  22.806   4.536
67187W        W35405  38.418  28.425  14.762
67188W        W35406   1.837   6.197  14.537
67189W        W35407  28.709  11.475   0.859
67190W        W35408   3.530  42.393  12.472
67191W        W35409  38.639  36.635   0.879
67192W        W35410  32.488   4.960  12.831
67193W        W35411  34.296  18.195   4.333
67194W        W35412  13.355  19.655   2.319
67195W        W35413   7.785   7.211  14.534
67196W        W35414  44.036  35.487   0.212
67197W        W35415  44.952  30.509   3.232
67198W        W35416  29.025  34.268  12.769
67199W        W35417  28.325   4.447   1.141
67200W        W35418  19.097  35.792   3.698
67201W        W35419  41.809  16.135  10.459
67202W        W35420   7.655  22.764   1.966
67203W        W35421  22.215  33.663   0.014
67204W        W35422  24.935  22.763  12.461
67205W        W35423  15.135  29.266  13.019
67206W        W35424  32.384  30.046   1.370
67207W        W35425   1.220  33.170   3.760
67208W        W35426  12.876   4.256   1.243
67209W        W35427  19.611   2.113   0.393
67210W        W35428  38.506  13.079  13.869
67211W        W35429  40.366  19.574   3.714
67212W        W35430  10.438  37.488   1.921
67213W        W35431  19.005  29.386   0.663
67214W        W35432   1.306  10.335  10.683
67215W        W35433  30.435  14.085   1.930
67216W        W35434  15.574   9.175   1.453
67217W        W35435  25.137   6.976   2.243
67218W        W35436  13.370  17.289   2.361
67219W        W35437   3.344  22.668  12.042
67220W        W35438  38.779  27.405  11.264
67221W        W35439  26.826  36.977  13.564
67222W        W35440  10.161   9.946   2.830
67223W        W35441   5.422  17.398   2.956
67224W        W35442  24.900   5.969   0.820
67225W        W35443  35.947  39.107   1.002
67226W        W35444  26.488   1.267   0.517
67227W        W35445  41.964  29.369   0.952
67228W        W35446  43.964  29.146   2.763
67229W        W35447  29.760  25.423   0.308
67230W        W35448  37.550   3.407   1.445
67231W        W35449  23.626  38.373  14.758
67232W        W35450  20.643  36.472   1.968
67233W        W35451  29.540  21.298   3.710
67234W        W35452  43.098  11.136  14.331
67235W        W35453   6.721  31.177  10.674
67236W        W35454   8.709  33.567   4.502
67237W        W35455  29.088  21.041   3.631
67238W        W35456   5.406  13.948  14.064
67239W        W35457  27.511   1.953   5.040
67240W        W35458  34.896  20.132   0.521
67241W        W35459  20.387  29.579   2.790
67242W        W35460  38.129   5.329   2.154
67243W        W35461  31.364  41.745   3.204
67244W        W35462  25.488  27.173   1.975
67245W        W35463  22.436  26.161  14.074
67246W        W35464  11.217  25.129  14.570
67247W        W35465  37.548  12.208   3.239
67248W        W35466  31.682  42.393   2.415
67249W        W35467  14.564  11.396  11.629
67250W        W35468   8.365   9.730   2.753
67251W        W35469  32.181  39.566  14.576
67252W        W35470  33.077  19.111  10.987
67253W        W35471  20.097  28.078  10.193
67254W        W35472  23.553  12.160   2.217
67255W        W35473  35.218  26.463   3.808
67256W        W35474   2.346  28.882  13.331
67257W        W35475  36.477  44.803  10.950
67258W        W35476  16.704  19.493  14.887
67259W        W35477  36.397  21.576   2.381
67260W        W35478  19.389  28.686   3.585
67261W        W35479  44.988  29.492  12.487
67262W        W35480  33.110  33.427   1.788
67263W        W35481  14.074  11.631   3.780
67264W        W35482  35.639  17.238  11.165
67265W        W35483  14.217  44.022   1.901
67266W        W35484  16.785  42.991   0.209
67267W        W35485   2.892  13.309   4.707
67268W        W35486  31.412  13.333  14.283
67269W        W35487  43.900   1.365  14.796
67270W        W35488   2.949  37.777   3.374
67271W        W35489  11.809  35.449  12.395
67272W        W35490   6.647  18.254  11.577
67273W        W35491  22.288   0.273  11.247
67274W        W35492  20.731  23.068  12.953
67275W        W35493  16.151  42.095  10.702
67276W        W35494   0.687  24.186   4.582
67277W        W35495  10.196  37.036  13.639
67278W        W35496  24.226   3.150   1.239
67279W        W35497  24.535  40.874  14.441
67280W        W35498  30.143   8.913   1.191
67281W        W35499   4.606  44.409   2.267
67282W        W35500  33.879  41.556  12.272
67283W        W35501  38.633  31.470  14.269
67284W        W35502  24.972  36.655  13.430
67285W        W35503  33.442  15.592  14.292
67286W        W35504  31.012  35.705   4.604
67287W        W35505  43.541  40.684  14.016
67288W        W35506   2.628  12.849  12.929
67289W        W35507  37.430   7.386   2.253
67290W        W35508  37.146  19.207   2.296
67291W        W35509  11.583  27.203   2.372
67292W        W35510  29.201  24.606   1.764
67293W        W35511   7.710  38.036   3.391
67294W        W35512  23.582  33.439   4.669
67295W        W35513   7.267   9.304  12.120
67296W        W35514  19.943  30.517   2.706
67297W        W35515  29.697  31.016  14.022
67298W        W35516  12.201  41.756   3.097
67299W        W35517   9.904  20.705  10.730
67300W        W35518  14.243  40.274  12.105
67301W        W35519  23.529  18.205   4.633
67302W        W35520  38.458   2.987   1.416
67303W        W35521  38.510  42.261  12.875
67304W        W35522  26.460  20.001   2.758
67305W        W35523  44.774  24.749   2.214
67306W        W35524   7.105  18.588   3.374
67307W        W35525  25.587  35.083   1.311
67308W        W35526  34.435   6.275   0.765
67309W        W35527  24.617  37.075  13.778
67310W        W35528  23.279  23.254  13.563
67311W        W35529  15.972   7.777   1.915
67312W        W35530   3.141   9.186   4.138
67313W        W35531   1.210  18.349  14.508
67314W        W35532  30.527  13.596   0.713
67315W        W35533  23.084   7.001   0.331
67316W        W35534   8.695  43.080   0.775
67317W        W35535  39.719  28.794  12.027
67318W        W35536  19.112  10.804  12.542
67319W        W35537  42.679  14.232   0.383
67320W        W35538  21.128  30.044   0.864
67321W        W35539  19.470  12.792   0.410
67322W        W35540  26.299  27.118   2.589
67323W        W35541  43.468  16.556  10.681
67324W        W35542  32.895  41.883  11.435
67325W        W35543  23.283   2.803  11.911
67326W        W35544  27.507  29.147  10.586
67327W        W35545   7.372  44.384   2.214
67328W        W35546  10.899  23.522   4.158
67329W        W35547  13.179   2.775   3.430
67330W        W35548  17.296  39.732   1.702
67331W        W35549   4.167  36.561   1.924
67332W        W35550  38.644  21.010   0.696
67333W        W35551  21.210  32.302   3.149
67334W        W35552  12.900   6.199  13.998
67335W        W35553  17.798  28.693   2.276
67336W        W35554  24.257  14.983   4.295
67337W        W35555  39.613  33.029   3.228
67338W        W35556  15.374   9.467  11.697
67339W        W35557  12.691  28.068   4.936
67340W        W35558  42.901   0.169  12.628
67341W        W35559  10.373  18.262  14.951
67342W        W35560  36.030  42.092  10.327
67343W        W35561   4.911   0.353   4.596
67344W        W35562  39.566   4.680   1.823
67345W        W35563  26.614  19.472  12.921
67346W        W35564  32.347  33.577   0.382
67347W        W35565  23.712  36.318  11.719
67348W        W35566  37.547  20.079   0.875
67349W        W35567  12.092  17.634   0.771
67350W        W35568  11.877  42.453   1.377
67351W        W35569  13.649  42.882  13.974
67352W        W35570  18.880  15.840   4.686
67353W        W35571   2.726   2.488  12.877
67354W        W35572  13.850  34.968  13.436
67355W        W35573  29.178  16.760  12.046
67356W        W35574   3.387  32.418  12.040
67357W        W35575  37.137   4.943   2.210
67358W        W35576   7.670  41.895  12.998
67359W        W35577   7.961  37.554   0.413
67360W        W35578   5.445  14.731  14.341
67361W        W35579  16.642  25.941  12.412
67362W        W35580  42.945  36.368  14.575
67363W        W35581  30.821   8.660   4.254
67364W        W35582  15.069  36.643  14.070
67365W        W35583  33.362  19.493   2.739
67366W        W35584   7.377  28.552   2.107
67367W        W35585   9.990   2.928  13.385
67368W        W35586  10.596   3.354  14.055
67369W        W35587  21.177  36.186   2.833
67370W        W35588  35.130  41.844   1.869
67371W        W35589  16.878  40.416   0.901
67372W        W35590   8.772  33.176  11.431
67373W        W35591  31.855  35.183   1.870
67374W        W35592  13.431  27.194   0.212
67375W        W35593  38.252  13.606  13.056
67376W        W35594  12.927  27.450  12.550
67377W        W35595  41.958  17.795   2.840
67378W        W35596   9.169  38.797  10.010
67379W        W35597  32.559   5.688  11.535
67380W        W35598  18.600  19.544  11.390
67381W        W35599  36.992  11.392  14.200
67382W        W35600  11.943  35.020  12.005
67383W        W35601  20.760  15.521  14.979
67384W        W35602  15.865  30.132  12.936
67385W        W35603   7.406  34.217  14.950
67386W        W35604  27.467  34.479   2.743
67387W        W35605  35.004  32.672  11.105
67388W        W35606  28.036   3.580   1.713
67389W        W35607  16.217  41.091  12.619
67390W        W35608  27.103  23.632   2.694
67391W        W35609  36.238  44.344   3.281
67392W        W35610  42.911  20.103  10.605
67393W        W35611  24.684  16.689  10.485
67394W        W35612   5.758  31.543  10.942
67395W        W35613   8.335  30.066   3.856
67396W        W35614  32.663  34.392   4.446
67397W        W35615  21.657  13.912  11.966
67398W        W35616  10.881  34.315   1.854
67399W        W35617  31.681  35.871   1.333
67400W        W35618  27.753  42.144   2.723
67401W        W35619   2.880   1.582   4.286
67402W        W35620  14.268  19.035   1.459
67403W        W35621   8.944   4.726   3.143
67404W        W35622   9.479   0.748  12.427
67405W        W35623  42.763  38.810   2.636
67406W        W35624  30.174  21.732  12.323
67407W        W35625  38.848  39.037   2.695
67408W        W35626  35.470  32.752  11.323
67409W        W35627  40.232  10.317   3.756
67410W        W35628  36.669  34.041  12.825
67411W        W35629   8.178  35.943  12.629
67412W        W35630  38.400   8.925   3.705
67413W        W35631   5.696  36.443  11.619
67414W        W35632  30.647   8.611  14.566
67415W        W35633  40.966  14.859   4.551
67416W        W35634  36.622  34.390   0.829
67417W        W35635  31.900  12.616   4.046
67418W        W35636  32.142  21.119  12.105
67419W        W35637  40.773  20.684  13.464
67420W        W35638  23.982  25.604   1.630
67421W        W35639  14.900  19.567  12.351
67422W        W35640  17.273  30.181  11.589
67423W        W35641  12.463  18.801   3.587
67424W        W35642  28.009  15.337   2.475
67425W        W35643  24.027  23.648  14.199
67426W        W35644   4.540  10.277  11.039
67427W        W35645  25.004   6.431  14.264
67428W        W35646  19.735   0.658  13.968
67429W        W35647  39.801  13.150   1.420
67430W        W35648  19.964  36.372  14.074
67431W        W35649  19.030  18.478   1.208
67432W        W35650  17.814  10.559  11.978
67433W        W35651  38.036   6.689  13.204
67434W        W35652   8.265  21.978   0.259
67435W        W35653  10.111  36.102  10.979
67436W        W35654  11.678   9.160   3.847
67437W        W35655  29.969  16.510   0.921
67438W        W35656  16.881   3.799  12.092
67439W        W35657  39.818   1.272  13.483
67440W        W35658  29.968  21.727  14.858
67441W        W35659  11.562  33.731  12.140
67442W        W35660  33.154   5.390  10.621
67443W        W35661  39.811  44.005   4.441
67444W        W35662   6.891  37.621   2.219
67445W        W35663  22.570  13.824  12.868
67446W        W35664  20.646  37.408   1.881
67447W        W35665  36.423  40.937   3.811
67448W        W35666  10.748  43.843   4.682
67449W        W35667  32.300   6.139  10.305
67450W        W35668  30.553  23.551   3.310
67451W        W35669  24.655  35.353  11.661
67452W        W35670  27.931  14.593  10.784
67453W        W35671  43.984   8.217  13.957
67454W        W35672   9.428  10.353  12.894
67455W        W35673   2.467  13.168   2.136
67456W        W35674  29.080  12.633   3.215
67457W        W35675  38.923  20.820  14.350
67458W        W35676  44.299  42.501  12.129
67459W        W35677   9.137  37.485   2.902
67460W        W35678  32.744  28.677   1.248
67461W        W35679   3.463   6.949   1.861
67462W        W35680   3.431   7.429  12.623
67463W        W35681   2.304  12.404   2.820
67464W        W35682  32.539  26.448   5.037
67465W        W35683   7.312  17.742   2.230
67466W        W35684  15.709  18.091  12.830
67467W        W35685  12.736  37.113  11.123
67468W        W35686  10.748   7.832  13.428
67469W        W35687  39.779  25.436  11.332
67470W        W35688   1.828  20.046   2.302
67471W        W35689  30.203  17.042   2.301
67472W        W35690  42.198  11.484   3.567
67473W        W35691   1.259  15.615   0.878
67474W        W35692  20.211  23.740   4.734
67475W        W35693  26.682  14.255  11.129
67476W        W35694  40.116   8.223   2.231
67477W        W35695  40.568  38.619   3.176
67478W        W35696  36.037  26.389   1.848
67479W        W35697  25.598  19.253  13.075
67480W        W35698  34.064   5.896  11.577
67481W        W35699   2.994  25.403   2.432
67482W        W35700  30.569  28.510   2.916
67483W        W35701  11.100   3.553  13.989
67484W        W35702   4.183  15.576  10.649
67485W        W35703   0.744  21.415   4.011
67486W        W35704  31.098  25.080   3.280
67487W        W35705   0.708  10.718  14.838
67488W        W35706  35.388  39.070  14.352
67489W        W35707  10.070   0.337   1.757
67490W        W35708  21.676  38.522   0.890
67491W        W35709  35.375  14.639   0.089
67492W        W35710  18.979  30.629   2.425
67493W        W35711   8.638  23.164   4.826
67494W        W35712  28.535  14.665   2.079
67495W        W35713  23.924  34.342  12.875
67496W        W35714  11.300  24.994   0.572
67497W        W35715  37.847   8.661  12.387
67498W        W35716  34.010  24.261   1.533
67499W        W35717   5.974  34.326  13.441
67500W        W35718  20.170  16.364  13.869
67501W        W35719  25.945   9.702   0.832
67502W        W35720  18.780  38.653   2.737
67503W        W35721  15.678  28.584  14.189
67504W        W35722   0.025   0.454  14.125
67505W        W35723  18.740  23.752  14.966
67506W        W35724   5.861  13.286   1.942
67507W        W35725   7.771  33.089  12.367
67508W        W35726  39.374   5.232  12.884
67509W        W35727  37.017  22.082   4.200
67510W        W35728  34.940  11.501  14.480
67511W        W35729  22.676  30.874   3.355
67512W        W35730  12.718  31.334   3.823
67513W        W35731  15.150   2.172  12.338
67514W        W35732  39.001  17.481  14.803
67515W        W35733  38.579   4.786  13.873
67516W        W35734  35.507  24.068  14.811
67517W        W35735  16.692  31.431  11.346
67518W        W35736  40.022  10.652   2.708
67519W        W35737  35.466  32.553   0.543
67520W        W35738  22.753   9.458   0.854
67521W        W35739  14.040   7.905  12.630
67522W        W35740  41.256   4.722  12.620
67523W        W35741   6.597  14.374   0.665
67524W        W35742   5.754  42.244  11.662
67525W        W35743  29.687  31.621   1.905
67526W        W35744   7.874  14.769   2.945
67527W        W35745  31.815  34.914  11.546
67528W        W35746  26.534  37.651  12.860
67529W        W35747  26.166   8.842  14.488
67530W        W35748  10.237  21.314   2.621
67531W        W35749  27.889  34.414   1.863
67532W        W35750   3.888  14.246   4.186
67533W        W35751  26.143  39.306   2.449
67534W        W35752  15.610  16.284   3.183
67535W        W35753  44.733  23.531   2.800
67536W        W35754  31.748  42.271   1.453
67537W        W35755  25.491   3.978  13.303
67538W        W35756  31.419  18.708   0.462
67539W        W35757  38.053  32.456  13.491
67540W        W35758  26.560  21.751  13.810
67541W        W35759  13.472   0.740  13.402
67542W        W35760  41.408   1.010  10.708
67543W        W35761  17.414  41.572  12.995
67544W        W35762  44.325   7.659  14.177
67545W        W35763  19.466  43.313  10.744
67546W        W35764  19.652  44.731  14.068
67547W        W35765  32.531   0.972  10.661
67548W        W35766  14.535  35.391  13.330
67549W        W35767  24.456  30.558  10.425
67550W        W35768  26.339  15.163  14.126
67551W        W35769  27.704  15.737  13.830
67552W        W35770  39.906   9.689   2.687
67553W        W35771   9.476  14.760   1.684
67554W        W35772   4.184   3.604   0.046
67555W        W35773  11.228  14.065   2.651
67556W        W35774  41.988   8.191   1.357
67557W        W35775  42.051  15.100   4.098
67558W        W35776  22.893   6.922   0.848
67559W        W35777  35.388  27.333  14.371
67560W        W35778   5.863  37.313   4.668
67561W        W35779  11.817  36.466   4.666
67562W        W35780  36.054  21.269   0.650
67563W        W35781  15.529   5.585  11.603
67564W        W35782  37.443  15.649  14.962
67565W        W35783  40.462  20.346  13.197
67566W        W35784   1.216  38.658   0.117
67567W        W35785   1.878  21.138  11.038
67568W        W35786  13.642   0.801  12.491
67569W        W35787  35.423  37.690  14.341
67570W        W35788   7.883  42.475   3.592
67571W        W35789  15.481   2.895   5.571
67572W        W35790  41.589  19.723   4.058
67573W        W35791  26.500  36.122  11.129
67574W        W35792  27.699  13.792   1.737
67575W        W35793   9.700   7.578   1.759
67576W        W35794  14.675  41.856  10.408
67577W        W35795   8.374  10.720   3.122
67578W        W35796  40.938  28.787  14.417
67579W        W35797  24.702  15.310   3.608
67580W        W35798   5.207  32.685   0.673
67581W        W35799   0.650  19.079   2.050
67582W        W35800  24.260  36.042  12.195
67583W        W35801  37.272  30.136  12.083
67584W        W35802  20.661  11.596   2.750
67585W        W35803  37.857  31.186  12.502
67586W        W35804   0.480  19.173   4.564
67587W        W35805  30.066  18.223  13.566
67588W        W35806  24.195  32.970   3.359
67589W        W35807  27.936  37.473  12.857
67590W        W35808  17.874  36.382   1.889
67591W        W35809  32.380  12.603   2.812
67592W        W35810  25.536   4.427   4.712
67593W        W35811   6.084  40.381   1.694
67594W        W35812  29.062  33.661   3.713
67595W        W35813  40.937  40.803   4.108
67596W        W35814  12.134  12.719   2.859
67597W        W35815  32.101  40.742  12.175
67598W        W35816  11.054   7.359   1.667
67599W        W35817  22.594  36.932   3.740
67600W        W35818  37.104  16.968   3.079
67601W        W35819  16.764  22.638  11.001
67602W        W35820   3.372  38.498   3.923
67603W        W35821  22.624   5.229   0.535
67604W        W35822  19.590   1.791  11.099
67605W        W35823  21.998  36.489  10.358
67606W        W35824  28.463   8.466  13.530
67607W        W35825  32.589  44.238  14.793
67608W        W35826   7.157  31.715   3.145
67609W        W35827  37.468  40.498   3.094
67610W        W35828  37.165  15.736   3.833
67611W        W35829  32.406  25.162   3.374
67612W        W35830  21.001  11.740  11.629
67613W        W35831   9.334  10.234   4.399
67614W        W35832  12.855  36.414  12.930
67615W        W35833  30.517  40.278  12.098
67616W        W35834  43.746  24.419  10.641
67617W        W35835  10.373   5.290   3.162
67618W        W35836  19.307  20.155   3.200
67619W        W35837  17.203  19.143  12.275
67620W        W35838  36.958  36.614  14.597
67621W        W35839   9.864   5.744   4.874
67622W        W35840   7.988  27.217  12.345
67623W        W35841  35.419  43.520   0.014
67624W        W35842   6.211  15.032  10.673
67625W        W35843  23.665  38.793   4.288
67626W        W35844  23.465  23.982  12.458
67627W        W35845  13.999  10.148   2.408
67628W        W35846  38.049  11.678   4.942
67629W        W35847  43.178  33.098  13.163
67630W        W35848  36.459  26.995   0.466
67631W        W35849  15.675   0.865  12.069
67632W        W35850  22.733  26.120  14.496
67633W        W35851  13.034  30.155  12.841
67634W        W35852  32.449   8.885   0.866
67635W        W35853  20.864  31.344   4.210
67636W        W35854  42.451  15.244  14.811
67637W        W35855  12.166  42.406  11.175
67638W        W35856  14.552  21.145  11.046
67639W        W35857   3.046  17.707   0.886
67640W        W35858  14.270   3.838  12.865
67641W        W35859  31.436  40.880  14.015
67642W        W35860  24.507  39.061  14.850
67643W        W35861  37.352   9.754  14.082
67644W        W35862  14.341  36.359  11.449
67645W        W35863  29.701  25.733   4.924
67646W        W35864  22.552  16.643  13.948
67647W        W35865  30.062  41.937   1.012
67648W        W35866   1.291  43.781  14.797
67649W        W35867  16.615   2.851   4.176
67650W        W35868  23.739  15.301   0.940
67651W        W35869  37.575  14.190   0.053
67652W        W35870   0.527   2.789   3.168
67653W        W35871  16.844  10.810  13.912
67654W        W35872   0.920  43.258   1.872
67655W        W35873  38.725   0.408   1.267
67656W        W35874  22.606  31.143  10.690
67657W        W35875  21.308   8.778  11.766
67658W        W35876  38.568  16.289   4.643
67659W        W35877  33.367  17.219  13.127
67660W        W35878  15.348  23.019   2.104
67661W        W35879  31.132   9.626   3.235
67662W        W35880   1.714   8.184   1.004
67663W        W35881  35.166  39.348   1.892
67664W        W35882  40.746  34.634  12.079
67665W        W35883   3.996  25.499   2.348
67666W        W35884  15.835   6.896   2.798
67667W        W35885  38.564   7.431  11.964
67668W        W35886  36.017  26.502  14.990
67669W        W35887  21.796  22.207   0.817
67670W        W35888  33.864  37.587   4.340
67671W        W35889  43.464  36.737  11.583
67672W        W35890  17.760  34.560   3.766
67673W        W35891  19.259   9.649  11.194
67674W        W35892  15.825   7.375  12.820
67675W        W35893  15.898  21.392   9.922
67676W        W35894   2.301   1.837  13.469
67677W        W35895  12.681  39.707   2.218
67678W        W35896  34.539  17.733   0.274
67679W        W35897  18.806  15.488  11.036
67680W        W35898  30.886   9.928  12.041
67681W        W35899  24.542   5.674  13.034
67682W        W35900  17.640  12.740  11.777
67683W        W35901  31.477  19.329  13.140
67684W        W35902  18.544  29.672   0.904
67685W        W35903  35.174  10.358   2.212
67686W        W35904   5.364   7.624   1.801
67687W        W35905  12.298   4.173  13.820
67688W        W35906  15.320  12.888   1.211
67689W        W35907   3.656  35.991   3.138
67690W        W35908  10.787  27.928   1.882
67691W        W35909   0.297  43.979   4.724
67692W        W35910  10.865  44.790  11.000
67693W        W35911  14.968  15.055  13.382
67694W        W35912  11.051  24.525   2.950
67695W        W35913  14.849  34.536   3.169
67696W        W35914  15.003  22.091  14.338
67697W        W35915   3.301  18.569  14.911
67698W        W35916  13.818  17.669  12.844
67699W        W35917   3.784  32.014  14.796
67700W        W35918  42.585  16.079  13.619
67701W        W35919   6.918  18.796   2.912
67702W        W35920   9.249  31.795   2.870
67703W        W35921  40.799  39.408   4.467
67704W        W35922   6.998  11.297   4.079
67705W        W35923  29.958  39.825  12.537
67706W        W35924  28.656  22.566   1.856
67707W        W35925   8.317   2.254  14.821
67708W        W35926  25.556  16.880  13.849
67709W        W35927  15.146   0.497   3.442
67710W        W35928   2.945  14.773   0.751
67711W        W35929  28.658  20.475   4.091
67712W        W35930  24.048   3.303   4.110
67713W        W35931  35.066  10.458   4.954
67714W        W35932   8.352  30.366   1.891
67715W        W35933  41.927  17.669   1.215
67716W        W35934   9.880   4.483   2.200
67717W        W35935  13.898   2.385   4.560
67718W        W35936  22.775  26.703  13.357
67719W        W35937  36.733  10.661  13.853
67720W        W35938  25.235   7.906  12.587
67721W        W35939  38.011  26.378  14.756
67722W        W35940   2.807  19.606  13.090
67723W        W35941  43.095  19.166   1.994
67724W        W35942  16.247  40.937   3.585
67725W        W35943   2.723  10.321  13.498
67726W        W35944  39.358  35.384  11.146
67727W        W35945  21.793  39.978  11.553
67728W        W35946  20.710  16.276  13.985
67729W        W35947  30.688  27.623   3.298
67730W        W35948  12.501  38.381  14.021
67731W        W35949  17.291  40.281  11.467
67732W        W35950  16.275  23.317   3.020
67733W        W35951  26.103   2.530  13.917
67734W        W35952   6.503  42.127  14.489
67735W        W35953  26.526  42.340  13.468
67736W        W35954  37.429  24.729  13.967
67737W        W35955  26.157   0.899   0.324
67738W        W35956  39.671  22.237  14.995
67739W        W35957  27.501  10.225   1.308
67740W        W35958  14.653  10.279   0.524
67741W        W35959  34.875  23.353   1.496
67742W        W35960  19.194   0.847   1.771
67743W        W35961  19.696  32.405   2.253
67744W        W35962  10.879  35.586  14.348
67745W        W35963  25.897  20.089  14.755
67746W        W35964   4.901  27.459   2.169
67747W        W35965  26.585  17.702  12.637
67748W        W35966   2.001  39.847  12.382
67749W        W35967  23.069   7.515   0.264
67750W        W35968  37.018  11.732   0.541
67751W        W35969  19.780  33.853  13.816
67752W        W35970  38.358  12.449   3.583
67753W        W35971  40.237  31.860   2.172
67754W        W35972  32.005  43.541  10.755
67755W        W35973  36.892   0.747   1.204
67756W        W35974  21.799  41.034   0.538
67757W        W35975  38.495  32.083   1.510
67758W        W35976  10.221  41.128   3.722
67759W        W35977  21.167  11.909  12.074
67760W        W35978  43.938  16.318  10.697
67761W        W35979  23.194  11.777   4.527
67762W        W35980  31.564  14.040  10.751
67763W        W35981  30.135  28.122   4.579
67764W        W35982   2.839   2.918   2.980
67765W        W35983   6.406   3.475  11.049
67766W        W35984   6.277   2.267  12.720
67767W        W35985  10.240  20.874  12.076
67768W        W35986  22.686   8.224  11.609
67769W        W35987  12.840  38.935  10.998
67770W        W35988  28.364   1.413   4.170
67771W        W35989  44.940   6.207   1.537
67772W        W35990  13.881  35.152   1.206
67773W        W35991  33.042  36.164  11.623
67774W        W35992  29.534  37.773  11.514
67775W        W35993  10.690  28.461   0.127
67776W        W35994  10.565  29.756   4.161
67777W        W35995  24.711  17.123  12.323
67778W        W35996  24.326  17.507   2.766
67779W        W35997   2.911  40.228  13.615
67780W        W35998  10.686  38.063   2.846
67781W        W35999  34.978  37.955   2.921
67782W        W36000   6.262  19.212  11.560
67783W        W36001  32.996  35.422   2.357
67784W        W36002  35.613  37.881   1.461
67785W        W36003  34.534   9.823  11.049
67786W        W36004  21.261  33.389  10.820
67787W        W36005  42.567   0.663   1.768
67788W        W36006  29.454  10.764   3.388
67789W        W36007  13.253  32.446   0.330
67790W        W36008  21.695  24.938  11.558
67791W        W36009  21.688  41.364   4.674
67792W        W36010  38.790  24.000   3.883
67793W        W36011   9.621  20.829  14.370
67794W        W36012  30.572  33.380   3.742
67795W        W36013  28.230  16.188   2.249
67796W        W36014  30.343  44.805   3.330
67797W        W36015  22.241  10.144   9.980
67798W        W36016  43.119  19.501   0.836
67799W        W36017  19.975  40.152  14.811
67800W        W36018   7.486  27.740   2.251
67801W        W36019  40.613  32.474   4.571
67802W        W36020  34.130  17.697  14.400
67803W        W36021   6.814  26.183  14.290
67804W        W36022  42.935  11.160   0.792
67805W        W36023   5.630   1.187  12.928
67806W        W36024  23.321  15.481  11.936
67807W        W36025  27.131  16.298   3.621
67808W        W36026  17.599   3.867   2.810
67809W        W36027  19.654  44.503   2.897
67810W        W36028  40.982  38.963  14.873
67811W        W36029  34.091  22.531   1.356
67812W        W36030  37.000  23.718   2.888
67813W        W36031  34.559  13.697   1.923
67814W        W36032  33.572   7.877  11.576
67815W        W36033  13.238   8.362   1.182
67816W        W36034  21.212  41.222   4.460
67817W        W36035  43.473   6.298   0.454
67818W        W36036  10.612   5.289  11.597
67819W        W36037  27.951  32.612   0.344
67820W        W36038  41.318  31.131   2.808
67821W        W36039  29.236   8.722  14.687
67822W        W36040   4.637  35.107   3.282
67823W        W36041  27.526  22.029   0.253
67824W        W36042  15.281  44.606  13.270
67825W        W36043  41.952  15.325   0.372
67826W        W36044  28.940  29.662  12.754
67827W        W36045  20.094  17.063  13.044
67828W        W36046  24.903  28.273  12.796
67829W        W36047   5.291  26.178   2.114
67830W        W36048   2.239  37.537  14.985
67831W        W36049   7.981  13.080  14.529
67832W        W36050  17.133  40.816   3.072
67833W        W36051  17.031  43.915   9.782
67834W        W36052  31.881   7.328  14.889
67835W        W36053  29.858  31.364   3.202
67836W        W36054   4.825  24.600  10.275
67837W        W36055  18.644  32.106  11.172
67838W        W36056  39.427  26.511  14.081
67839W        W36057  14.247  28.045   1.289
67840W        W36058   1.871  33.480   0.414
67841W        W36059  34.400  16.757  11.263
67842W        W36060   8.580  30.067  13.442
67843W        W36061  31.078  18.160  11.504
67844W        W36062  37.147  21.072  12.590
67845W        W36063  27.040   0.561  12.037
67846W        W36064  17.135  21.092   3.714
67847W        W36065  31.594  15.324   3.650
67848W        W36066  32.196   3.302   0.465
67849W        W36067  25.551  34.395   4.608
67850W        W36068  13.706   9.403   3.039
67851W        W36069  28.085  38.966  10.494
67852W        W36070  17.025  41.060   0.752
67853W        W36071  40.711  13.582   2.844
67854W        W36072  31.197  26.672  12.112
67855W        W36073  37.876  41.382   2.372
67856W        W36074   5.008  32.934  10.684
67857W        W36075  38.011  39.293   2.178
67858W        W36076  40.999  11.537   4.267
67859W        W36077   0.615  20.246   1.906
67860W        W36078  16.582  18.706   4.399
67861W        W36079  21.858  11.804   1.733
67862W        W36080   5.602  13.793   2.795
67863W        W36081  21.187  25.748  13.328
67864W        W36082  38.357  31.512   1.298
67865W        W36083   6.006   0.200   2.617
67866W        W36084  14.608  38.526   2.271
67867W        W36085  24.562  38.869   4.090
67868W        W36086  24.327  35.114   2.775
67869W        W36087  25.629   4.203  13.978
67870W        W36088  33.373   9.937  12.351
67871W        W36089   1.957  42.060   2.285
67872W        W36090  22.019  28.842   2.167
67873W        W36091  41.012  24.956   1.167
67874W        W36092  10.069  10.700  13.544
67875W        W36093  32.637  29.128   4.717
67876W        W36094  42.330  35.364   0.281
67877W        W36095  31.451  31.970  14.461
67878W        W36096  10.119  39.461  12.802
67879W        W36097  21.670  37.880   5.011
67880W        W36098  28.395  23.349   1.114
67881W        W36099  17.096   7.360  11.134
67882W        W36100   1.300  42.054   0.723
67883W        W36101  10.607   1.927  13.280
67884W        W36102  40.295   8.229  12.556
67885W        W36103  36.060  44.214  12.178
67886W        W36104  44.018  38.893   4.202
67887W        W36105   9.224   7.921   0.750
67888W        W36106  15.532  41.370   4.157
67889W        W36107  18.256  42.023  13.839
67890W        W36108  33.122  18.308  13.921
67891W        W36109  44.316   5.818   1.882
67892W        W36110   0.377  33.542  11.830
67893W        W36111  19.170   6.448  14.243
67894W        W36112  38.887   9.126   3.607
67895W        W36113  11.542  43.791   0.825
67896W        W36114  37.018  44.939   4.262
67897W        W36115  19.799  15.778   0.865
67898W        W36116  24.741  21.532   3.238
67899W        W36117  41.494  28.554  13.435
67900W        W36118  21.053   8.741  12.948
67901W        W36119   2.977   7.588  14.084
67902W        W36120   2.952  29.068   2.751
67903W        W36121  28.235  35.980  13.933
67904W        W36122  14.875   5.835   0.737
67905W        W36123   4.720  26.594   4.177
67906W        W36124  18.095  14.326   4.412
67907W        W36125   4.394  16.862  12.144
67908W        W36126  30.331  24.254   4.599
67909W        W36127  35.162   4.317   0.727
67910W        W36128  16.797  38.386   3.680
67911W        W36129  31.188  22.773   4.613
67912W        W36130  37.356  16.681  14.740
67913W        W36131  22.577  27.710  10.321
67914W        W36132  14.690  29.464   3.147
67915W        W36133  44.509  11.177   3.107
67916W        W36134  20.262  12.297  11.627
67917W        W36135  37.843  22.131  13.417
67918W        W36136  29.179  21.674  13.858
67919W        W36137   9.796   1.875  11.137
67920W        W36138  13.796   2.343   2.175
67921W        W36139  20.068  34.970  13.906
67922W        W36140   8.900  26.107  14.857
67923W        W36141  31.525  27.180  13.531
67924W        W36142  43.778  11.823   4.310
67925W        W36143  21.597  37.171  10.707
67926W        W36144  37.088  18.266   3.515
67927W        W36145  12.233   2.878  14.361
67928W        W36146   2.652   5.683  14.339
67929W        W36147  35.875   9.912  12.349
67930W        W36148   6.055   3.876   1.292
67931W        W36149  37.983  19.197  11.049
67932W        W36150  17.528  40.796  14.002
67933W        W36151  43.892   6.768  12.951
67934W        W36152  19.704  30.899   1.879
67935W        W36153  37.846  37.295   2.353
67936W        W36154  24.086  28.292  14.055
67937W        W36155  33.034  13.576  11.141
67938W        W36156  14.135  14.623  14.472
67939W        W36157  33.174  39.158   1.405
67940W        W36158   2.444  12.163   0.751
67941W        W36159   4.957  42.455   2.731
67942W        W36160  43.467  35.465   0.745
67943W        W36161  44.977   2.466  12.862
67944W        W36162   7.176  16.060   4.115
67945W        W36163  21.725  37.390   1.819
67946W        W36164  44.358  30.234   5.074
67947W        W36165  37.024   2.937  13.935
67948W        W36166  20.316  17.691   3.181
67949W        W36167  17.338  44.904   1.189
67950W        W36168  14.291  30.429  14.083
67951W        W36169  38.124  33.090  12.397
67952W        W36170  34.894  39.635  14.942
67953W        W36171  10.222  28.856  11.978
67954W        W36172  34.540   7.131   1.387
67955W        W36173  34.649  11.215  13.007
67956W        W36174   7.116  33.545   0.365
67957W        W36175  29.527  44.285  12.649
67958W        W36176  10.228  20.014   2.327
67959W        W36177  23.044  44.410  11.168
67960W        W36178   4.504  17.278  12.830
67961W        W36179  40.894  39.336  14.160
67962W        W36180  40.836  18.807  13.390
67963W        W36181  10.850  35.325   4.109
67964W        W36182   1.900  21.538   0.363
67965W        W36183  33.920   4.759  11.512
67966W        W36184   4.288  32.415   4.807
67967W        W36185  11.108   4.475  11.206
67968W        W36186  40.487  10.849  10.603
67969W        W36187   1.217  41.151  14.012
67970W        W36188  20.255  31.888   3.747
67971W        W36189   0.487  29.915  13.830
67972W        W36190   7.131  17.389  12.394
67973W        W36191  28.715  11.806   0.393
67974W        W36192   7.131  27.092   3.873
67975W        W36193  44.906  44.445   1.438
67976W        W36194  36.006  34.842   2.714
67977W        W36195  24.213  21.238   0.663
67978W        W36196  42.769   8.741   2.604
67979W        W36197  13.818  36.422  12.629
67980W        W36198  40.991  43.690  11.087
67981W        W36199  18.661  22.716   0.044
67982W        W36200  12.168  11.011   3.464
67983W        W36201   8.252  16.759   1.389
67984W        W36202  32.840  38.573   0.319
67985W        W36203   3.748   5.904  12.900
67986W        W36204  42.481   9.748   4.052
67987W        W36205  27.254  21.740   4.100
67988W        W36206   4.759  27.712   2.636
67989W        W36207  22.424  17.800   3.275
67990W        W36208  36.489  39.766  12.952
67991W        W36209  31.134  25.928  13.360
67992W        W36210  26.986  31.440   3.605
67993W        W36211  24.528  18.470  12.388
67994W        W36212  18.024  28.673  12.432
67995W        W36213  25.003  43.278  14.351
67996W        W36214   4.039   8.201   4.096
67997W        W36215  26.084   7.377   2.352
67998W        W36216  25.534  16.575   1.926
67999W        W36217   9.577  15.068   2.682
68000W        W36218  35.358  41.000   0.342
68001W        W36219  33.822  43.066   1.982
68002W        W36220  40.350  26.397   4.970
68003W        W36221  20.518  23.526  14.148
68004W        W36222  44.478  44.204  10.289
68005W        W36223  10.736   2.283  14.477
68006W        W36224   7.274  39.390   3.804
68007W        W36225   5.822  19.737   3.394
68008W        W36226  24.183  33.383   1.974
68009W        W36227  29.156  30.725   0.760
68010W        W36228  18.311  33.792  10.754
68011W        W36229   6.890   4.282   1.237
68012W        W36230  39.135   7.278   2.248
68013W        W36231  10.581  29.148  12.543
68014W        W36232  14.215  40.543  11.642
68015W        W36233  11.385   7.078  12.338
68016W        W36234  29.849   1.750   1.971
68017W        W36235   5.515  25.083   5.084
68018W        W36236  31.493  21.509   1.230
68019W        W36237  20.358  18.240   3.792
68020W        W36238  26.431  18.247   1.699
68021W        W36239   8.195   5.750  11.396
68022W        W36240   7.580  19.463   1.971
68023W        W36241  32.468  33.826   2.223
68024W        W36242  22.923  29.072   0.759
68025W        W36243  20.638   7.855  14.812
68026W        W36244  12.718  34.695   3.673
68027W        W36245   0.470  21.160   0.351
68028W        W36246  43.951  19.782  10.484
68029W        W36247  21.593   2.460  11.623
68030W        W36248   9.749   0.007   1.484
68031W        W36249   2.906   3.449  11.149
68032W        W36250  10.727  39.505   4.297
68033W        W36251  44.049  11.628  11.547
68034W        W36252  31.458  40.083  12.895
68035W        W36253  23.652  32.155  12.539
68036W        W36254  16.001  16.674   4.957
68037W        W36255  16.351   0.965  14.851
68038W        W36256  43.805  35.853  12.485
68039W        W36257  12.888  15.056  10.667
68040W        W36258  35.564  35.846   1.143
68041W        W36259   6.892  25.936   3.649
68042W        W36260  26.125   0.537  13.376
68043W        W36261  17.709  11.275  14.964
68044W        W36262   0.540   6.734   3.324
68045W        W36263   8.337  24.303   0.737
68046W        W36264   2.716  23.486   2.110
68047W        W36265  15.204  21.735  10.444
68048W        W36266  16.411  28.585  10.676
68049W        W36267  40.492  26.143   1.238
68050W        W36268  42.822   9.278  14.306
68051W        W36269  38.473  12.763  14.775
68052W        W36270  10.607   7.279   3.143
68053W        W36271  10.122  14.098   0.410
68054W        W36272  44.174  21.786  13.668
68055W        W36273  20.614  13.123  14.375
68056W        W36274  16.174  43.535   5.464
68057W        W36275  33.512   7.671  13.031
68058W        W36276  28.653  31.876   4.727
68059W        W36277  39.561   9.896  11.162
68060W        W36278  25.414   4.819   5.069
68061W        W36279  20.508  39.516  14.894
68062W        W36280  26.150  26.986  12.446
68063W        W36281  14.575  26.344  10.143
68064W        W36282  29.077  35.404   1.697
68065W        W36283   6.724  17.353   3.174
68066W        W36284  29.709  13.874  11.989
68067W        W36285   3.264   7.188   4.775
68068W        W36286   5.106  26.978   2.691
68069W        W36287  14.342  30.036   4.172
68070W        W36288  37.257   5.781   1.203
68071W        W36289  23.516  30.670  13.928
68072W        W36290   6.339   1.288  14.826
68073W        W36291   4.422   7.239  12.973
68074W        W36292   0.386  14.301  11.512
68075W        W36293   3.826  12.187   4.593
68076W        W36294  19.075  44.778   3.240
68077W        W36295  42.499  22.239   0.839
68078W        W36296  33.399  21.435   5.162
68079W        W36297   3.580  18.490   1.848
68080W        W36298  39.013  30.342   3.674
68081W        W36299  35.053   6.735   3.207
68082W        W36300  33.639  28.603   1.386
68083W        W36301  12.506  39.920   2.672
68084W        W36302  40.420  13.667   2.269
68085W        W36303  23.156  22.345  11.645
68086W        W36304  19.568  41.413  13.365
68087W        W36305  34.968  28.915   1.350
68088W        W36306   1.289  23.643  13.275
68089W        W36307  28.452  15.282   0.519
68090W        W36308  15.806  26.050   4.381
68091W        W36309  17.636  33.546   1.758
68092W        W36310   5.007  44.460  12.583
68093W        W36311  27.078  32.187   1.759
68094W        W36312  27.508  37.600  12.057
68095W        W36313  35.972  13.645   1.430
68096W        W36314  21.101  24.987  12.852
68097W        W36315  25.013  36.667   1.958
68098W        W36316   1.415  38.699  14.638
68099W        W36317  24.430  18.362  11.386
68100W        W36318  19.775  22.736  13.856
68101W        W36319   6.018  35.426   4.357
68102W        W36320  37.975   4.995  14.843
68103W        W36321   8.785  40.550   3.939
68104W        W36322   1.415  44.654  11.030
68105W        W36323   0.736  44.760  11.455
68106W        W36324  32.083  43.285   2.876
68107W        W36325  20.023  21.972   1.837
68108W        W36326   2.826  12.867   2.340
68109W        W36327  14.311  21.205  12.123
68110W        W36328  24.578  15.322  13.579
68111W        W36329   9.818  38.496   4.443
68112W        W36330  22.547  17.540   0.519
68113W        W36331  19.070  40.886   3.183
68114W        W36332  30.104  37.172   4.043
68115W        W36333  30.531   8.202   4.999
68116W        W36334  39.930  38.374   0.205
68117W        W36335  14.601  14.629   0.969
68118W        W36336  43.547   9.822   3.690
68119W        W36337  16.251  18.642   1.787
68120W        W36338  14.995  30.027   0.205
68121W        W36339   0.882  43.905  12.503
68122W        W36340   6.407  12.578  10.554
68123W        W36341   6.886   4.933  12.578
68124W        W36342  12.933  13.132  12.815
68125W        W36343  24.932  15.627  11.049
68126W        W36344  42.925   9.921   3.129
68127W        W36345  26.714   7.769  10.699
68128W        W36346   4.537  17.154  14.333
68129W        W36347  13.672  29.190   0.283
68130W        W36348  14.590  15.569   2.370
68131W        W36349  41.838  42.279  12.201
68132W        W36350  33.914   6.856   3.325
68133W        W36351   4.719   0.827  13.480
68134W        W36352  10.239  21.268   3.868
68135W        W36353  41.892  41.745   2.151
68136W        W36354  17.806  26.694   3.668
68137W        W36355  12.990  19.310   1.447
68138W        W36356  39.844   7.736   1.563
68139W        W36357  19.925  11.907   1.366
68140W        W36358   2.508  17.405   0.290
68141W        W36359  18.720   7.621  13.137
68142W        W36360  15.972   3.696  13.369
68143W        W36361  28.020  19.216   3.074
68144W        W36362  14.304  39.386   2.158
68145W        W36363  25.450  22.718  14.929
68146W        W36364   9.599  41.688   3.910
68147W        W36365  25.790  39.089  11.180
68148W        W36366   6.850  33.419  14.772
68149W        W36367  14.090   5.655   2.606
68150W        W36368  27.943  34.985   3.646
68151W        W36369  24.499  11.607   2.380
68152W        W36370  31.448  19.248   2.689
68153W        W36371   0.868   1.338   4.417
68154W        W36372  32.628  20.495   2.692
68155W        W36373  29.634  15.100  11.489
68156W        W36374  11.563  32.006   3.125
68157W        W36375   5.182  34.861   0.510
68158W        W36376  34.301  30.503  11.993
68159W        W36377  10.621   1.538   1.462
68160W        W36378  27.741  30.407  13.973
68161W        W36379  37.260  28.893   1.759
68162W        W36380  13.041   7.046  10.907
68163W        W36381  39.946  25.099   3.698
68164W        W36382   1.231  41.172   2.876
68165W        W36383  34.151  25.979  12.106
68166W        W36384  30.610  36.191  10.937
68167W        W36385  40.818   5.982  10.626
68168W        W36386  34.028  35.399   0.563
68169W        W36387  11.262  29.674   0.308
68170W        W36388  29.118  34.995   3.904
68171W        W36389  29.132  15.004  13.997
68172W        W36390  26.943  13.743   2.500
68173W        W36391   8.075  28.697  14.477
68174W        W36392  26.450  38.415  13.942
68175W        W36393  11.212  31.943   3.527
68176W        W36394  21.820  14.699  11.594
68177W        W36395  16.135  13.166  11.975
68178W        W36396  36.647  19.263  10.683
68179W        W36397  36.869   2.249   4.023
68180W        W36398  42.853  36.335   1.836
68181W        W36399  31.991   4.479  13.992
68182W        W36400  31.694  25.534   3.794
68183W        W36401  27.240   8.624   3.685
68184W        W36402  20.679  35.616  11.463
68185W        W36403  12.681  24.060  10.770
68186W        W36404  18.133  16.689  11.700
68187W        W36405  32.040  44.496  11.888
68188W        W36406  39.319  11.473   3.794
68189W        W36407  12.476  13.791   1.768
68190W        W36408  43.104   0.976   3.631
68191W        W36409   0.799  30.946   4.120
68192W        W36410  29.960  23.447  11.087
68193W        W36411   3.499  11.257  14.790
68194W        W36412  29.125  34.054   0.341
68195W        W36413   3.267  10.353  11.899
68196W        W36414   3.315  15.753  12.823
68197W        W36415  14.289   7.862   0.118
68198W        W36416  38.436   7.170   4.171
68199W        W36417   9.302   8.913   1.858
68200W        W36418   0.266  14.304  14.388
68201W        W36419  41.671  32.143   3.851
68202W        W36420  36.051  17.304  12.894
68203W        W36421  28.915  10.762   0.387
68204W        W36422  20.798  18.785  11.199
68205W        W36423  21.572  40.822  14.640
68206W        W36424  40.318  40.425  12.675
68207W        W36425  25.735  38.814  11.887
68208W        W36426  26.066  22.217   2.209
68209W        W36427  37.621   5.093   0.853
68210W        W36428  39.880  36.411   0.716
68211W        W36429  42.813   7.917  13.188
68212W        W36430  32.201  33.552  10.742
68213W        W36431  11.853  34.825   0.309
68214W        W36432  32.365  10.578   1.830
68215W        W36433  43.992  36.194  12.896
68216W        W36434   3.331   6.767  11.412
68217W        W36435  17.839   6.999  13.951
68218W        W36436  30.277   6.852  14.292
68219W        W36437   2.679   3.621  13.905
68220W        W36438  32.833  19.182  14.452
68221W        W36439  39.597  11.424  11.976
68222W        W36440  23.716   6.668   1.670
68223W        W36441  11.923  22.904   0.395
68224W        W36442  11.751   0.162   2.721
68225W        W36443   7.411  27.247  14.916
68226W        W36444  38.325  12.176  13.568
68227W        W36445  28.499  37.342  13.895
68228W        W36446  36.816  16.775   1.804
68229W        W36447  35.546   4.029  10.633
68230W        W36448  20.649  30.421   4.864
68231W        W36449  38.666  42.836  11.515
68232W        W36450  35.275  33.385  10.674
68233W        W36451   8.686   5.281   2.174
68234W        W36452  32.443   1.313  12.414
68235W        W36453  37.283  17.675   1.823
68236W        W36454  23.574  29.342  12.378
68237W        W36455  19.253  33.973  13.625
68238W        W36456  36.450  38.543  13.511
68239W        W36457  16.824  29.479  11.310
68240W        W36458  38.154  39.482  13.346
68241W        W36459  22.854  15.034  13.373
68242W        W36460  36.668  21.380  11.654
68243W        W36461  19.834  27.975   2.723
68244W        W36462  41.977  42.249   3.298
68245W        W36463  25.873  20.949   2.592
68246W        W36464  38.122  20.138   0.883
68247W        W36465  21.315  25.462  12.895
68248W        W36466   4.010  35.523  13.017
68249W        W36467   1.940   0.408   0.701
68250W        W36468  10.350  15.221   5.285
68251W        W36469   6.669  10.261   1.482
68252W        W36470  35.607  42.344  13.000
68253W        W36471  19.057  24.596   3.299
68254W        W36472   5.623  20.541  13.578
68255W        W36473  21.274   6.235   2.659
68256W        W36474  23.747  37.376  14.931
68257W        W36475  35.396  30.298  13.481
68258W        W36476   1.461  39.839  14.371
68259W        W36477  13.091  18.674  12.711
68260W        W36478  30.986  11.591   0.458
68261W        W36479   2.216   8.086   1.893
68262W        W36480  17.898  39.975  12.363
68263W        W36481  18.271   9.880  10.698
68264W        W36482  20.191  23.486  12.385
68265W        W36483  28.941   6.377  10.669
68266W        W36484   8.304  30.818   3.265
68267W        W36485  11.104  16.380   2.200
68268W        W36486  40.848  27.038   3.589
68269W        W36487  41.872  31.205  11.581
68270W        W36488  33.944  10.287   0.632
68271W        W36489  41.634  31.942   0.981
68272W        W36490  25.930  15.196   0.328
68273W        W36491  12.386  43.680   0.413
68274W        W36492  31.216   1.922   3.457
68275W        W36493  21.339   7.752   1.599
68276W        W36494  43.481  24.611   2.871
68277W        W36495  38.101  32.416   1.412
68278W        W36496  33.109  13.765   0.896
68279W        W36497  28.661   0.268   3.523
68280W        W36498  16.063  25.217  10.695
68281W        W36499   8.561  33.630  11.553
68282W        W36500  38.410  10.981  14.521
68283W        W36501  38.801  16.184  11.149
68284W        W36502  33.907  15.838  14.332
68285W        W36503   5.982  36.440  11.172
68286W        W36504   7.755  15.263   2.010
68287W        W36505  33.379  21.961   0.755
68288W        W36506   4.783  18.487   2.656
68289W        W36507  13.014  13.114   4.670
68290W        W36508  32.896  34.162   3.011
68291W        W36509  24.641  16.146  14.168
68292W        W36510  33.150  23.081  14.472
68293W        W36511  19.259   0.502  14.203
68294W        W36512  36.450  30.037  13.489
68295W        W36513  38.509  33.170  14.800
68296W        W36514  29.672  10.454   1.306
68297W        W36515   1.327  11.070   0.050
68298W        W36516  14.093   6.371  11.464
68299W        W36517  42.007   4.265  10.623
68300W        W36518  12.766  13.847  12.788
68301W        W36519  24.874  33.427   3.328
68302W        W36520  32.432  42.795   4.173
68303W        W36521  23.041  30.043  11.237
68304W        W36522  30.264  30.994   3.394
68305W        W36523  35.041  22.236   5.065
68306W        W36524  18.969  41.863   3.609
68307W        W36525  28.983  31.138  11.433
68308W        W36526  27.712  14.176   1.394
68309W        W36527  15.383   8.716   4.485
68310W        W36528   4.897  16.766  13.412
68311W        W36529  34.015  13.015   0.999
68312W        W36530   7.314   9.300  11.625
68313W        W36531  23.733  35.315  10.189
68314W        W36532  17.251  35.118   2.461
68315W        W36533  13.797   9.159   0.012
68316W        W36534   3.335  17.767  14.384
68317W        W36535  19.980   6.386  14.862
68318W        W36536  44.934  26.677   3.101
68319W        W36537  24.067   8.314  13.073
68320W        W36538  40.006   4.631  13.756
68321W        W36539  39.902   3.646   4.773
68322W        W36540  13.299   7.226  13.955
68323W        W36541   0.022  12.193  10.661
68324W        W36542  14.205   4.481   0.021
68325W        W36543  41.753  13.164  11.574
68326W        W36544  36.048  37.417  10.792
68327W        W36545  17.291   5.755   0.285
68328W        W36546  18.706  37.121   3.615
68329W        W36547   0.789  41.456  12.979
68330W        W36548   8.868  31.049  14.861
68331W        W36549   8.257  30.446  14.538
68332W        W36550  26.397  32.154  13.299
68333W        W36551  36.012  27.916   1.333
68334W        W36552   0.864  29.193  14.039
68335W        W36553  35.527  30.386   0.396
68336W        W36554   0.066   9.256   4.565
68337W        W36555  15.402   2.829   2.614
68338W        W36556   6.784  10.890  11.113
68339W        W36557  21.074   2.348  12.553
68340W        W36558  35.411  15.954   2.191
68341W        W36559   6.619   4.972   0.816
68342W        W36560  13.400  26.346   2.834
68343W        W36561  12.034  13.562  12.952
68344W        W36562   3.297  36.452  10.408
68345W        W36563  19.874  38.657   2.861
68346W        W36564  14.383  39.486  10.858
68347W        W36565  36.250   6.180  11.119
68348W        W36566  22.593  10.839  14.891
68349W        W36567   6.027  15.808   2.107
68350W        W36568  25.138  19.452   1.751
68351W        W36569  13.854  30.455   0.290
68352W        W36570  20.403  13.347   4.081
68353W        W36571   5.366  17.177   3.848
68354W        W36572  22.128  23.804  11.734
68355W        W36573   6.795  30.444  11.090
68356W        W36574  44.952  23.863   1.413
68357W        W36575  12.422  24.707  10.644
68358W        W36576  34.873  35.385  14.468
68359W        W36577   2.295   9.209   2.884
68360W        W36578  16.232  34.098   4.592
68361W        W36579  20.256  24.208   1.402
68362W        W36580  38.916  29.870   3.404
68363W        W36581  13.311   5.016  13.622
68364W        W36582  18.176  34.167   3.815
68365W        W36583  22.553  33.652   4.116
68366W        W36584  39.255   8.750  14.723
68367W        W36585  20.556  42.559   2.084
68368W        W36586   4.943  12.439  14.945
68369W        W36587  34.034  40.410   4.573
68370W        W36588  31.351  26.533   0.834
68371W        W36589   6.750  40.644   2.343
68372W        W36590  15.503  40.864   2.442
68373W        W36591  24.151   2.434  14.396
68374W        W36592  18.213  40.384  10.602
68375W        W36593  38.282  20.047   3.917
68376W        W36594  32.065  25.486  12.557
68377W        W36595  16.372  29.027  11.924
68378W        W36596  14.579  25.906   0.898
68379W        W36597   6.467  10.190  12.462
68380W        W36598   8.986  12.821  11.229
68381W        W36599  23.319   6.704  11.143
68382W        W36600  22.269  12.417  12.039
68383W        W36601  27.369  37.752  12.539
68384W        W36602  40.913   0.779  10.705
68385W        W36603  16.522  15.219  12.931
68386W        W36604  10.887  19.342   1.199
68387W        W36605  41.563  36.267  12.010
68388W        W36606  20.734   2.454   0.869
68389W        W36607   3.952  32.566  14.518
68390W        W36608  38.055  16.254   2.660
68391W        W36609  33.087   0.525   1.364
68392W        W36610  22.992   9.421  11.140
68393W        W36611  31.517   4.985  12.566
68394W        W36612  43.441  30.478  12.631
68395W        W36613  43.525  43.351  14.482
68396W        W36614  35.441  13.909   3.748
68397W        W36615  35.306   2.912  13.586
68398W        W36616  15.038  34.593  11.163
68399W        W36617  25.183  19.230  14.297
68400W        W36618  20.631  19.593   1.456
68401W        W36619   5.254  22.848  13.951
68402W        W36620  37.464  17.595   0.903
68403W        W36621  33.054  29.088   3.912
68404W        W36622  13.719  40.300   4.625
68405W        W36623  13.973  12.518   1.169
68406W        W36624   6.426  15.619   1.846
68407W        W36625  22.656  17.572   1.935
68408W        W36626   3.206  21.465   2.741
68409W        W36627  22.081   2.764  10.511
68410W        W36628  36.036  41.217  14.901
68411W        W36629  32.070  37.327  12.560
68412W        W36630  10.849  23.190   1.682
68413W        W36631   6.678   8.886   3.841
68414W        W36632  35.116  42.521  14.314
68415W        W36633  29.584  22.150  13.506
68416W        W36634  12.258  29.540  11.040
68417W        W36635   4.051  42.343   5.486
68418W        W36636  22.591  33.696   3.216
68419W        W36637  43.683  15.640   2.802
68420W        W36638  29.439  29.587  13.978
68421W        W36639  33.937  41.778   3.603
68422W        W36640  38.005  17.743   0.944
68423W        W36641  10.830  40.600   0.190
68424W        W36642  19.561  15.817   3.358
68425W        W36643  38.541  37.617   1.634
68426W        W36644  11.201  29.652   2.119
68427W        W36645  21.972  35.612   5.612
68428W        W36646  24.477  40.480   0.905
68429W        W36647   7.111   3.960  13.081
68430W        W36648  13.084  38.805   3.312
68431W        W36649  17.778   0.740   2.722
68432W        W36650  10.082  40.225  14.790
68433W        W36651  43.699  40.908  13.567
68434W        W36652   1.233   1.746   1.886
68435W        W36653  26.758   7.835  14.952
68436W        W36654   4.022  15.146   1.848
68437W        W36655  27.726  25.228  10.574
68438W        W36656  33.171  17.611   2.135
68439W        W36657  36.466  37.219   5.078
68440W        W36658  28.419  14.376  10.211
68441W        W36659  31.727  17.570   4.196
68442W        W36660  37.894   0.421   4.282
68443W        W36661  30.396  43.292   0.870
68444W        W36662   2.247  17.838  10.796
68445W        W36663  32.507  20.821  14.719
68446W        W36664  17.834  37.551   2.826
68447W        W36665   9.683  42.531   0.260
68448W        W36666  30.630   3.503  14.758
68449W        W36667   0.741   3.802   3.708
68450W        W36668  38.393   9.176   0.722
68451W        W36669  16.127  31.767   3.125
68452W        W36670  10.330  14.789  11.219
68453W        W36671  18.924  43.916   2.278
68454W        W36672  42.525  40.287  11.933
68455W        W36673   6.061  32.679  12.417
68456W        W36674  36.527  13.146   4.542
68457W        W36675  19.562   0.511   0.003
68458W        W36676  35.535  24.960   1.722
68459W        W36677   6.893  20.067  11.508
68460W        W36678  23.298  41.445  13.557
68461W        W36679  25.733   2.724  14.259
68462W        W36680  26.261  32.070   2.794
68463W        W36681  25.391  28.046   1.307
68464W        W36682   8.836   5.218   3.256
68465W        W36683  41.803  19.501   0.917
68466W        W36684  19.250  28.628   4.074
68467W        W36685   6.856  41.481  10.598
68468W        W36686  41.621  10.523   2.079
68469W        W36687  28.471  31.851   0.409
68470W        W36688  36.557   9.466   1.447
68471W        W36689   9.238  37.225   5.032
68472W        W36690  23.441  20.405   0.289
68473W        W36691  31.112   8.947  12.275
68474W        W36692  42.446  31.306   1.678
68475W        W36693   0.188   2.838  11.186
68476W        W36694  13.594  38.722   0.303
68477W        W36695  10.077  23.136   3.974
68478W        W36696  18.932   6.320  10.563
68479W        W36697  26.679   0.587  12.742
68480W        W36698   9.612   8.932   2.297
68481W        W36699  13.831  14.793  12.537
68482W        W36700  20.199  17.783   0.014
68483W        W36701  21.729   7.917  12.498
68484W        W36702  27.026  37.753  13.249
68485W        W36703  22.919  32.057   9.810
68486W        W36704  25.651  44.824   1.673
68487W        W36705   4.147  21.670  10.796
68488W        W36706  22.119  40.009   2.964
68489W        W36707  28.709  35.375  13.331
68490W        W36708  31.084  34.515  10.894
68491W        W36709  19.371  23.631  12.025
68492W        W36710  33.177  31.696  13.299
68493W        W36711  11.720  27.655  11.092
68494W        W36712  41.475  40.273   2.077
68495W        W36713  25.204  26.111  10.818
68496W        W36714  39.317  28.505  14.250
68497W        W36715  26.959  26.691  13.366
68498W        W36716   2.794  36.855   1.965
68499W        W36717  36.157  21.686  10.673
68500W        W36718  32.011  22.169  14.245
68501W        W36719  22.160   5.488  12.514
68502W        W36720  19.544   6.771  14.464
68503W        W36721   2.793  14.673   1.692
68504W        W36722  30.379   6.099   0.415
68505W        W36723   9.650  44.115   4.997
68506W        W36724   6.744  43.089  14.307
68507W        W36725  22.529   0.284   0.013
68508W        W36726   9.303  38.542  10.469
68509W        W36727  28.841  33.957  11.984
68510W        W36728  24.437  26.234  13.360
68511W        W36729  13.410  44.887  12.093
68512W        W36730  30.879   1.271  10.275
68513W        W36731  15.484  27.140  10.770
68514W        W36732  39.137  13.838   3.242
68515W        W36733  29.911  39.141   1.646
68516W        W36734  21.974  21.716   1.398
68517W        W36735  34.566  24.062  13.831
68518W        W36736  11.800   6.731  13.340
68519W        W36737  39.755  15.829   1.711
68520W        W36738  19.221   9.854  12.087
68521W        W36739  27.601  37.259  14.622
68522W        W36740  38.824  36.532   4.236
68523W        W36741  36.926  22.561  10.529
68524W        W36742  41.242   7.659  11.999
68525W        W36743  41.938  21.441  12.178
68526W        W36744  35.502  29.648   3.848
68527W        W36745  10.445  30.580   2.088
68528W        W36746  21.951  10.856   4.180
68529W        W36747   9.891  39.999  14.383
68530W        W36748  23.364   9.964  12.010
68531W        W36749  22.533  33.787  11.143
68532W        W36750  20.781  19.179   1.182
68533W        W36751  33.823   4.260   2.493
68534W        W36752  42.506  23.676   4.363
68535W        W36753  34.001  24.990  11.235
68536W        W36754  17.854   2.445   0.150
68537W        W36755  31.936   6.234   1.725
68538W        W36756  35.000   1.800  13.369
68539W        W36757  28.167  13.652   5.303
68540W        W36758  21.648  19.318   1.333
68541W        W36759  30.255  27.164  13.825
68542W        W36760   7.824  17.386  13.814
68543W        W36761   1.387  42.436   4.874
68544W        W36762  22.532  44.545   3.698
68545W        W36763  21.499  41.793  12.462
68546W        W36764  16.131  23.248   4.866
68547W        W36765  28.193  40.069  12.213
68548W        W36766  24.087  28.659   4.877
68549W        W36767   8.645   8.456   1.450
68550W        W36768  15.625  32.707   0.900
68551W        W36769  21.157  28.781   1.720
68552W        W36770  38.948  32.642  11.019
68553W        W36771  41.865   5.203   1.765
68554W        W36772  16.301  42.282   0.426
68555W        W36773   6.157  40.747  12.509
68556W        W36774  31.055  13.625  11.530
68557W        W36775  43.790  11.920  10.604
68558W        W36776  44.983  40.331   1.377
68559W        W36777   1.399  34.886  11.301
68560W        W36778  26.436  16.695  12.847
68561W        W36779  10.828  10.730   2.719
68562W        W36780  19.199  11.864   2.828
68563W        W36781  17.841  28.401  11.538
68564W        W36782  29.883   8.735   2.160
68565W        W36783  40.955  19.577   4.548
68566W        W36784  15.325  38.310  12.368
68567W        W36785  42.026  31.613  14.749
68568W        W36786  33.397  30.373  14.813
68569W        W36787  18.946  39.247   1.944
68570W        W36788  35.599  42.637   3.534
68571W        W36789   8.732   2.421  13.385
68572W        W36790  28.887  12.862  12.696
68573W        W36791  27.715  27.113  14.384
68574W        W36792  26.018  36.579  12.561
68575W        W36793  14.148  16.030   4.800
68576W        W36794   1.016   5.947  14.475
68577W        W36795  28.677   8.749   4.183
68578W        W36796  42.088   3.680   3.729
68579W        W36797  33.613   8.331  10.323
68580W        W36798  25.656   2.339   0.031
68581W        W36799   3.746  32.532   4.099
68582W        W36800  37.316  44.885   3.760
68583W        W36801  17.724  36.505  14.371
68584W        W36802  38.350   0.971  11.194
68585W        W36803  27.083  41.332  13.858
68586W        W36804  42.329  31.662  12.490
68587W        W36805  20.704  13.264  12.081
68588W        W36806   6.985  25.424   3.701
68589W        W36807   8.329  36.292   0.996
68590W        W36808  42.769  41.883   3.779
68591W        W36809   5.433  27.507  14.735
68592W        W36810  21.737  10.849  14.357
68593W        W36811   3.420  23.467  12.900
68594W        W36812   6.821  22.162   1.771
68595W        W36813  10.778  30.079  13.761
68596W        W36814   3.509  41.925  12.694
68597W        W36815  17.984  30.030   0.254
68598W        W36816  39.384  34.480   3.981
68599W        W36817  29.763  37.849  11.970
68600W        W36818   0.408   9.900  13.614
68601W        W36819  28.510  33.541  10.937
68602W        W36820   9.106  30.446   5.033
68603W        W36821   4.765  42.214   4.582
68604W        W36822  34.136  18.609   0.773
68605W        W36823  22.549  23.570   0.434
68606W        W36824  42.525  21.839  12.402
68607W        W36825   8.901   5.806   3.850
68608W        W36826  44.877  33.407  12.002
68609W        W36827  37.988  13.599   4.724
68610W        W36828  38.553   9.108  12.615
68611W        W36829   9.689  20.320  14.517
68612W        W36830   4.198  27.482   1.804
68613W        W36831  43.525  19.511   3.199
68614W        W36832   6.168  40.774   0.891
68615W        W36833   9.693  40.048  10.487
68616W        W36834  28.640  22.770   3.757
68617W        W36835  26.051  25.120   1.425
68618W        W36836   4.000  29.050  14.810
68619W        W36837  34.494   3.957  13.478
68620W        W36838  32.128  32.571   1.192
68621W        W36839   3.036   9.656   3.411
68622W        W36840   7.255  36.376   0.487
68623W        W36841  37.749  33.192  10.398
68624W        W36842  26.079  24.806   4.956
68625W        W36843  41.010  13.554   1.966
68626W        W36844  29.714  11.159   3.623
68627W        W36845  14.685  16.064  14.412
68628W        W36846  15.345  32.057   1.940
68629W        W36847  22.107  27.575  14.718
68630W        W36848  16.773   3.426  12.511
68631W        W36849  20.284  20.555   4.461
68632W        W36850  23.105   3.056   4.557
68633W        W36851  12.152  27.174  13.524
68634W        W36852  31.446  41.754   1.774
68635W        W36853  14.665  39.250  13.880
68636W        W36854  23.081  41.496  12.604
68637W        W36855  37.387  14.321  11.633
68638W        W36856  39.886  22.409  13.257
68639W        W36857  42.245  25.990  11.132
68640W        W36858  21.301  38.039  12.966
68641W        W36859   7.732  25.474  10.990
68642W        W36860  29.984  11.657  11.021
68643W        W36861  27.001  21.314  10.704
68644W        W36862  34.424  12.797   3.040
68645W        W36863  12.347  10.312   0.788
68646W        W36864  21.075  18.192   4.585
68647W        W36865  23.115  40.944   0.996
68648W        W36866   5.565  13.555   0.336
68649W        W36867  14.344  18.063  10.663
68650W        W36868  13.996  17.852   0.212
68651W        W36869   2.284   0.897   2.757
68652W        W36870  16.301  18.103   0.386
68653W        W36871  22.530  14.399   4.237
68654W        W36872  26.135  16.685  11.959
68655W        W36873  41.355  33.103  13.290
68656W        W36874  20.745  26.731   5.057
68657W        W36875   6.397  37.585   1.337
68658W        W36876  22.791  10.839   3.646
68659W        W36877  27.474  37.513   1.006
68660W        W36878  22.591   5.993  11.161
68661W        W36879  10.772  22.901   3.381
68662W        W36880  37.428   2.377   0.083
68663W        W36881  13.987  38.387  13.851
68664W        W36882   3.983  19.931   1.768
68665W        W36883  20.050  27.458   1.903
68666W        W36884   4.435  42.391  12.567
68667W        W36885  25.630  15.794  12.391
68668W        W36886  42.030  35.056  10.468
68669W        W36887  14.883   1.905   2.901
68670W        W36888  16.373  20.657  11.450
68671W        W36889  29.023  43.237   0.198
68672W        W36890  22.889  10.763   1.796
68673W        W36891  22.975  31.516   1.813
68674W        W36892  16.109  30.551  14.006
68675W        W36893  34.060  37.999   0.466
68676W        W36894  32.070  33.660   4.134
68677W        W36895  32.101  13.859  14.528
68678W        W36896  32.777   3.818  14.843
68679W        W36897  26.104  43.132  14.289
68680W        W36898  16.157  29.967   3.969
68681W        W36899   6.853  24.241  11.377
68682W        W36900   1.962  19.632   3.758
68683W        W36901  42.420   9.776   0.875
68684W        W36902  23.217  32.420   2.691
68685W        W36903  10.259  28.107  14.306
68686W        W36904  42.771  20.602   9.810
68687W        W36905  43.400   8.144  14.846
68688W        W36906  18.814  36.175   0.816
68689W        W36907  30.850  43.861   1.684
68690W        W36908  39.972  42.899   1.931
68691W        W36909  33.795  10.851  10.530
68692W        W36910  13.728  30.775   4.125
68693W        W36911   1.530  12.722   3.504
68694W        W36912  42.877  26.639   2.790
68695W        W36913  29.607  38.588  11.088
68696W        W36914  26.670  39.856   0.399
68697W        W36915  37.497  30.359   2.844
68698W        W36916  29.983   7.449  14.794
68699W        W36917  13.294  10.129  11.516
68700W        W36918  13.341  17.006  14.274
68701W        W36919  37.863  38.077   2.713
68702W        W36920  24.084  43.282   2.771
68703W        W36921  16.473  37.320   4.608
68704W        W36922  42.385  21.719   3.110
68705W        W36923  38.988  24.586  14.083
68706W        W36924  20.231   1.752   3.115
68707W        W36925   9.983  28.537   2.837
68708W        W36926  20.948   1.381   4.734
68709W        W36927  20.141  37.087   4.551
68710W        W36928  39.447  25.697   2.672
68711W        W36929   3.031  16.614   3.842
68712W        W36930  34.669  22.594   3.051
68713W        W36931  25.452   4.117   0.921
68714W        W36932  39.465  15.393  12.939
68715W        W36933  13.773  41.833  12.105
68716W        W36934  26.456  34.929  12.011
68717W        W36935  40.544  24.495  12.486
68718W        W36936  31.862   5.893  12.599
68719W        W36937  17.382  28.141  11.556
68720W        W36938  19.477  17.985  14.792
68721W        W36939  28.035   5.420   1.340
68722W        W36940   4.116  40.956  12.605
68723W        W36941  23.496  36.808   2.726
68724W        W36942   6.407  22.660  13.577
68725W        W36943  23.636  44.457  14.968
68726W        W36944  31.461  24.575   0.372
68727W        W36945   2.827  40.282   1.715
68728W        W36946  33.314  28.908   0.720
68729W        W36947   4.302  29.025  11.616
68730W        W36948  24.024   9.627  13.352
68731W        W36949  43.258  38.480  13.946
68732W        W36950   7.675  42.978  11.585
68733W        W36951  44.151  24.164  12.521
68734W        W36952  42.805  24.193   0.505
68735W        W36953  40.667  17.198   4.161
68736W        W36954  10.709  14.847   3.599
68737W        W36955   1.506  27.532   0.677
68738W        W36956  40.831  26.173   4.725
68739W        W36957  31.445  43.867   0.354
68740W        W36958   8.430   8.234   3.252
68741W        W36959  20.141  22.356   2.689
68742W        W36960  11.899  37.977  13.825
68743W        W36961  28.324   6.478  13.307
68744W        W36962  10.348  30.928   2.838
68745W        W36963  39.331  39.236  14.494
68746W        W36964  41.975  15.910  12.887
68747W        W36965   5.493  37.471   0.854
68748W        W36966   3.840  28.115   0.210
68749W        W36967  43.719  22.034  11.134
68750W        W36968  17.031  17.016   1.867
68751W        W36969  37.841  26.788   3.217
68752W        W36970   4.944   6.719  14.389
68753W        W36971  43.694  17.207   2.305
68754W        W36972  38.056   6.796  11.570
68755W        W36973   7.440   0.839   1.508
68756W        W36974  29.709  18.742  12.495
68757W        W36975  17.529   8.813   3.590
68758W        W36976  25.432  27.492   0.675
68759W        W36977  19.648   4.027   0.837
68760W        W36978  19.550  36.965   0.416
68761W        W36979   4.834  21.480   1.262
68762W        W36980  26.290  13.299   2.121
68763W        W36981  38.309  38.384   4.270
68764W        W36982  23.460   8.287  14.997
68765W        W36983   8.845  16.346  11.923
68766W        W36984   2.450  31.450   1.259
68767W        W36985  23.668  26.647  13.370
68768W        W36986   2.857  16.158   4.688
68769W        W36987   5.378  12.523  13.756
68770W        W36988  35.604   9.106   2.409
68771W        W36989  17.083  29.508   1.680
68772W        W36990  29.597  12.313  12.074
68773W        W36991  31.373  42.478   2.810
68774W        W36992  23.266  27.523   4.982
68775W        W36993   1.032  39.981   4.299
68776W        W36994  33.377  43.712  10.633
68777W        W36995  33.839  29.095   4.611
68778W        W36996  25.684  44.579  14.398
68779W        W36997  15.176  28.669  12.977
68780W        W36998  40.563  34.883  10.762
68781W        W36999  32.193  31.129  12.930
68782W        W37000  27.176  31.000   2.260
68783W        W37001  19.307  25.646  14.952
68784W        W37002  12.972  26.262  11.371
68785W        W37003  32.416   4.277   3.578
68786W        W37004   0.772  26.179  12.415
68787W        W37005  21.302   4.758  13.246
68788W        W37006  19.701  12.676  10.928
68789W        W37007  36.962  22.366   2.576
68790W        W37008  43.253  16.815   0.680
68791W        W37009  20.289  15.954   0.836
68792W        W37010  18.643  18.931   5.227
68793W        W37011  11.098  25.344   2.474
68794W        W37012  16.295  43.035  10.788
68795W        W37013  21.819   5.380  11.987
68796W        W37014  33.478  35.658  11.914
68797W        W37015  18.090  31.908   0.941
68798W        W37016  10.275  18.280   2.610
68799W        W37017   4.922  11.563   4.119
68800W        W37018  39.133  20.126  11.041
68801W        W37019  28.533  16.328   0.290
68802W        W37020   6.589  38.945   5.307
68803W        W37021  24.456   2.848   0.418
68804W        W37022  41.660  37.570  13.859
68805W        W37023  24.350  32.325   4.296
68806W        W37024   5.693  35.575   4.717
68807W        W37025  16.475   4.398   2.260
68808W        W37026  28.563  34.087   1.792
68809W        W37027  26.114  39.002  10.420
68810W        W37028  20.588  33.873  14.328
68811W        W37029  42.961  25.011   1.494
68812W        W37030  28.499  39.240   0.237
68813W        W37031  12.235  11.233   1.389
68814W        W37032   3.941  26.331   2.161
68815W        W37033   1.977  14.289   2.748
68816W        W37034   7.462  15.726   2.744
68817W        W37035  34.421  24.411   2.447
68818W        W37036  17.175  42.178  12.444
68819W        W37037   6.796  11.105   0.231
68820W        W37038   5.425   2.965  14.795
68821W        W37039   3.274  32.697  12.494
68822W        W37040  28.707  14.533  11.940
68823W        W37041  32.872  16.141  10.641
68824W        W37042  41.672  36.527   4.565
68825W        W37043  17.646   5.927  13.152
68826W        W37044   8.469  18.594   1.023
68827W        W37045   5.119   1.159  12.019
68828W        W37046  41.570  14.496  12.563
68829W        W37047  35.347  28.954   4.086
68830W        W37048   2.503   9.317  11.632
68831W        W37049  33.439  25.298  13.317
68832W        W37050  29.610  23.854  11.121
68833W        W37051  35.756   0.185   5.053
68834W        W37052  11.858  28.031  14.903
68835W        W37053   4.950   9.804  13.288
68836W        W37054   6.755   3.454  10.666
68837W        W37055  14.857   1.370   1.772
68838W        W37056  19.228  37.990  14.530
68839W        W37057  20.448  18.772  11.614
68840W        W37058  38.348  29.908  14.073
68841W        W37059  38.169  15.389   4.592
68842W        W37060  27.681  13.002   0.824
68843W        W37061   6.377   6.188  14.918
68844W        W37062  32.964  30.707   0.719
68845W        W37063   9.097  43.456   2.706
68846W        W37064  19.176   8.991  13.000
68847W        W37065  22.531  19.773   1.368
68848W        W37066  26.182  19.704   3.725
68849W        W37067  36.651  22.174  14.767
68850W        W37068  28.119   4.026  14.458
68851W        W37069   2.394   5.818  13.389
68852W        W37070   6.719  43.399  12.136
68853W        W37071  18.280   4.729  11.151
68854W        W37072  13.269  23.180   1.249
68855W        W37073  16.885  41.131   1.281
68856W        W37074  16.275  19.814  14.856
68857W        W37075   1.737  44.970  11.283
68858W        W37076  19.921  26.237  11.867
68859W        W37077  22.520  13.852  11.983
68860W        W37078  18.219  39.504   0.317
68861W        W37079   8.830  28.244  12.620
68862W        W37080   2.890   9.813   4.706
68863W        W37081  20.143   1.868  14.045
68864W        W37082  43.759  37.064  13.980
68865W        W37083  10.169   6.657   3.138
68866W        W37084  13.621  31.682   0.083
68867W        W37085  19.104  31.881  13.676
68868W        W37086  42.299   3.134  12.657
68869W        W37087  44.284  41.740  13.424
68870W        W37088  41.373  18.797   4.772
68871W        W37089  20.606  30.079   3.439
68872W        W37090  28.548  10.036  11.468
68873W        W37091  29.555  12.419  13.539
68874W        W37092   6.127  42.759   2.194
68875W        W37093  26.493  29.672   4.541
68876W        W37094   9.900  29.441  13.583
68877W        W37095  15.372   1.329   3.245
68878W        W37096  10.785  28.551  10.673
68879W        W37097   9.409   0.229  11.615
68880W        W37098  31.392   0.855  10.711
68881W        W37099  27.191  11.937   1.417
68882W        W37100  26.738  44.680   5.002
68883W        W37101   7.281  22.985   1.699
68884W        W37102  26.210  27.747   1.238
68885W        W37103   2.306  14.068  14.034
68886W        W37104  15.795   7.305  12.300
68887W        W37105   5.189  24.665   1.286
68888W        W37106  15.684   6.910  13.054
68889W        W37107  24.311   7.897  11.922
68890W        W37108  20.251  14.229   3.170
68891W        W37109   0.765  36.362   3.690
68892W        W37110  43.337  15.610   4.114
68893W        W37111  12.805  16.238   1.823
68894W        W37112  33.450   2.369  10.688
68895W        W37113  26.801  20.234  11.785
68896W        W37114  40.570  38.078   3.230
68897W        W37115   2.280   5.803   3.383
68898W        W37116  24.438  27.183   2.175
68899W        W37117  11.597  25.194   0.940
68900W        W37118  16.696  36.663  11.639
68901W        W37119   0.911  43.737   1.631
68902W        W37120   4.676  23.837   5.094
68903W        W37121  11.198   6.702  11.880
68904W        W37122  37.350  14.710  13.323
68905W        W37123  20.072   2.064  14.975
68906W        W37124  10.782  25.484  13.871
68907W        W37125  18.177  11.604   3.766
68908W        W37126  16.327  36.081   4.248
68909W        W37127  32.572  36.010  11.709
68910W        W37128  11.394  19.527  12.959
68911W        W37129  44.204  41.069  14.745
68912W        W37130   5.689  28.127  13.089
68913W        W37131  15.313   9.597   4.802
68914W        W37132   2.300   9.184   4.410
68915W        W37133  38.951  24.532   2.355
68916W        W37134   8.977   3.402   5.036
68917W        W37135  26.732  28.548  14.773
68918W        W37136  15.637  23.867  10.347
68919W        W37137  32.069  18.492   4.658
68920W        W37138   6.424   0.276  13.479
68921W        W37139  30.425   2.174   9.786
68922W        W37140  35.769  24.718  11.667
68923W        W37141  37.378  20.765  14.363
68924W        W37142   6.076  39.848   3.848
68925W        W37143  30.143   9.278  13.411
68926W        W37144  44.111  18.862   3.227
68927W        W37145  19.560  14.946   3.683
68928W        W37146  31.535  24.245   1.340
68929W        W37147  27.982  17.518   2.398
68930W        W37148  43.406  42.938  12.173
68931W        W37149  11.578   2.397   2.797
68932W        W37150  16.662  44.264   0.803
68933W        W37151  26.994  39.507   3.900
68934W        W37152  35.963  35.579   1.403
68935W        W37153  17.208  38.522   3.971
68936W        W37154   5.469  26.498   3.811
68937W        W37155  40.839  26.613  10.716
68938W        W37156  26.510  33.487   3.305
68939W        W37157  38.568  42.237   0.950
68940W        W37158  42.348  31.022  13.895
68941W        W37159  31.981  20.992  11.162
68942W        W37160   7.706  24.985  12.128
68943W        W37161  10.042  13.694   3.938
68944W        W37162  33.248  28.727   3.573
68945W        W37163  39.062  41.888   3.680
68946W        W37164  20.659   8.280  12.566
68947W        W37165  30.692   3.982  12.399
68948W        W37166  21.034  22.777   2.913
68949W        W37167  41.012  30.310  11.595
68950W        W37168  35.180  19.392   0.435
68951W        W37169  31.600  37.086   2.282
68952W        W37170   8.658  41.431  14.477
68953W        W37171  24.349  13.367  10.687
68954W        W37172  16.845  27.102  11.234
68955W        W37173  18.072  13.896   2.174
68956W        W37174  17.359  11.069   1.283
68957W        W37175  15.757  31.384   4.563
68958W        W37176  18.084  25.525   2.412
68959W        W37177  35.659  15.974  12.926
68960W        W37178   5.698  41.827  11.272
68961W        W37179   2.438   1.418  10.686
68962W        W37180  21.336  19.319   3.644
68963W        W37181  39.924  14.263   3.870
68964W        W37182  20.321  30.064  13.352
68965W        W37183   9.292  39.824   1.338
68966W        W37184   6.260  35.656  14.230
68967W        W37185  29.630   9.321   2.861
68968W        W37186  11.897  20.017   0.826
68969W        W37187  32.621  29.091   2.872
68970W        W37188   4.806  42.453   5.070
68971W        W37189  28.183   7.255   0.264
68972W        W37190  40.909  30.905  12.920
68973W        W37191   5.939  43.554  13.305
68974W        W37192  30.502  32.449  11.125
68975W        W37193  25.037  33.460  14.043
68976W        W37194  37.827   8.109   1.714
68977W        W37195   1.047   0.098   0.052
68978W        W37196   3.801   2.402  11.016
68979W        W37197  13.231  13.135  13.840
68980W        W37198  34.594  25.055   3.818
68981W        W37199  11.245  44.960   4.148
68982W        W37200  25.544  30.432   2.424
68983W        W37201  30.696  20.103  12.595
68984W        W37202   3.031  33.587   0.991
68985W        W37203  33.681  30.374   4.275
68986W        W37204  34.375  11.588   1.268
68987W        W37205  41.308  15.089  11.672
68988W        W37206   5.682  25.283   3.235
68989W        W37207  30.078  19.547  13.999
68990W        W37208   9.338  19.485  12.103
68991W        W37209   9.392  31.369   3.835
68992W        W37210  39.302   3.979  14.421
68993W        W37211  14.747  13.782  11.884
68994W        W37212   4.027  23.658  13.911
68995W        W37213  17.684  43.801   1.370
68996W        W37214  18.017  22.658  14.733
68997W        W37215  30.898  32.567  12.932
68998W        W37216  18.304   9.096  14.788
68999W        W37217  36.813  30.491   1.129
69000W        W37218  39.944  20.984   3.672
69001W        W37219   5.366  27.168  14.336
69002W        W37220  33.554  35.446  14.860
69003W        W37221  33.803   4.231   1.989
69004W        W37222  31.879  30.520  10.743
69005W        W37223  41.832  12.358   0.772
69006W        W37224   9.413  32.910   4.455
69007W        W37225   5.198  29.437  13.803
69008W        W37226  42.797  16.198  12.394
69009W        W37227  34.518  22.004   4.227
69010W        W37228   3.873  30.059  14.804
69011W        W37229   0.921   1.928   9.856
69012W        W37230  10.378  12.722  11.913
69013W        W37231   8.896  41.872  11.482
69014W        W37232  10.316  15.597  14.397
69015W        W37233  19.516  41.062  12.883
69016W        W37234  41.290  15.252   1.927
69017W        W37235   9.904  34.487   0.266
69018W        W37236   9.213   1.347   2.260
69019W        W37237   4.736   1.879   1.734
69020W        W37238   4.215  22.593   0.643
69021W        W37239  22.733  17.157   4.586
69022W        W37240  12.115  18.014   4.541
69023W        W37241   8.217  25.083   4.068
69024W        W37242   8.484   4.261  13.420
69025W        W37243   6.122  40.565  11.001
69026W        W37244  42.238  34.640  12.961
69027W        W37245  12.782  42.494  14.240
69028W        W37246  11.698  19.546  10.680
69029W        W37247  20.047  16.241  11.550
69030W        W37248  39.275  32.420  14.008
69031W        W37249  25.115  24.171  14.518
69032W        W37250   5.374  11.624  11.038
69033W        W37251  35.423  37.006   1.829
69034W        W37252   4.660  24.689   1.798
69035W        W37253  17.014  36.977   1.763
69036W        W37254   0.508  19.055   2.559
69037W        W37255  34.804  18.521  12.038
69038W        W37256  18.658   5.937  10.739
69039W        W37257   6.916  15.822  14.375
69040W        W37258  39.525  25.663   2.145
69041W        W37259  17.665  41.331  12.606
69042W        W37260  26.147  25.160   1.933
69043W        W37261  24.091  44.622  14.815
69044W        W37262   3.316  11.764  10.645
69045W        W37263  26.718  33.802  14.986
69046W        W37264  17.693  37.372   9.973
69047W        W37265  41.874  30.068   4.097
69048W        W37266  36.850  30.448  12.015
69049W        W37267  31.090  12.192   4.984
69050W        W37268  15.833  43.526  12.501
69051W        W37269   4.436   4.823  13.209
69052W        W37270  30.666  12.247   0.390
69053W        W37271  44.897  25.689  13.799
69054W        W37272  11.202  16.442   4.013
69055W        W37273  10.719  34.115  14.505
69056W        W37274  42.164  18.156   4.838
69057W        W37275  23.602  22.684   4.842
69058W        W37276  13.829  41.762   0.588
69059W        W37277  27.939  18.826   1.239
69060W        W37278  13.211  43.905   4.408
69061W        W37279  29.421  16.629  14.333
69062W        W37280  38.529  18.230   4.706
69063W        W37281  16.535  14.213   1.243
69064W        W37282   1.991  41.570  14.696
69065W        W37283   9.859  20.643  12.940
69066W        W37284  28.673  20.082   2.783
69067W        W37285  16.579  10.738  14.335
69068W        W37286  11.836  34.065  12.424
69069W        W37287  22.213  39.745   4.411
69070W        W37288  19.329  22.417  14.631
69071W        W37289  24.698  19.360   1.060
69072W        W37290  40.835  14.382   3.771
69073W        W37291  43.054  27.927   4.185
69074W        W37292  44.074   2.234  14.354
69075W        W37293  21.592   3.970   3.606
69076W        W37294  12.603  29.702  13.827
69077W        W37295  20.191  35.146  14.934
69078W        W37296  20.600  36.763   2.793
69079W        W37297  26.588  11.359   3.062
69080W        W37298  24.491  11.779  12.873
69081W        W37299  32.066  13.129  12.052
69082W        W37300  34.273  37.649  10.798
69083W        W37301  30.631  32.398  10.641
69084W        W37302  19.561   5.636  10.466
69085W        W37303   3.965  10.620  11.836
69086W        W37304   0.791  30.426  13.550
69087W        W37305  39.600   2.422  11.958
69088W        W37306  43.390   0.863  13.302
69089W        W37307   7.869  27.968   1.828
69090W        W37308   4.150   3.698   1.838
69091W        W37309  24.418  37.934   2.918
69092W        W37310  14.717  11.167   0.323
69093W        W37311  27.569  27.069  14.896
69094W        W37312  23.224  19.016  13.401
69095W        W37313   5.927  22.458   1.350
69096W        W37314  11.116  27.195   0.734
69097W        W37315  28.372  36.421   4.498
69098W        W37316   6.726   9.678  10.659
69099W        W37317   5.197   6.141   3.352
69100W        W37318  24.589  37.241   0.148
69101W        W37319  18.042   2.230  12.706
69102W        W37320   1.560   5.757   1.694
69103W        W37321  18.718  28.544   0.319
69104W        W37322   9.578  39.409  10.594
69105W        W37323  41.610   2.507   5.039
69106W        W37324  37.681  37.018   4.672
69107W        W37325  25.322   5.791  14.450
69108W        W37326  13.913  30.441  11.178
69109W        W37327  34.140   3.956   1.728
69110W        W37328  16.323  25.665   0.733
69111W        W37329   4.270  25.599  13.886
69112W        W37330  26.016   9.133  12.244
69113W        W37331  20.586  19.911  14.547
69114W        W37332  16.865  25.509   2.910
69115W        W37333  26.275  44.961   0.497
69116W        W37334  26.109  10.157   3.310
69117W        W37335   2.993   1.876  11.152
69118W        W37336  13.497  38.445   1.499
69119W        W37337  18.091  33.466   2.177
69120W        W37338  24.759  14.195   4.535
69121W        W37339  19.721  22.018   2.796
69122W        W37340  31.551   4.378  10.828
69123W        W37341  43.167  26.081  14.010
69124W        W37342  23.503   5.278  11.723
69125W        W37343  23.650  15.693   0.450
69126W        W37344  42.854  12.948   5.231
69127W        W37345  43.436  14.884  13.981
69128W        W37346  39.620  33.644  11.607
69129W        W37347   6.394   5.838   1.670
69130W        W37348  34.091  33.080   1.236
69131W        W37349  33.534  28.957   2.802
69132W        W37350  13.158  20.935   0.887
69133W        W37351  31.406  24.519   2.444
69134W        W37352  11.233   9.750  11.172
69135W        W37353  29.481  14.555   5.078
69136W        W37354  38.950  23.702   3.312
69137W        W37355  10.110  23.271   2.337
69138W        W37356  18.596  30.078   4.742
69139W        W37357  21.334  33.628   4.742
69140W        W37358   4.588  28.680   0.839
69141W        W37359   3.870  43.503   4.678
69142W        W37360   9.672  26.448   1.799
69143W        W37361  40.113  44.788  12.413
69144W        W37362  17.234  15.670   1.964
69145W        W37363  21.170  27.926  12.479
69146W        W37364  36.131  37.463   3.066
69147W        W37365  19.504  31.465  14.996
69148W        W37366  18.923  23.462   4.519
69149W        W37367  30.183   8.915   0.681
69150W        W37368  32.014   9.193   3.085
69151W        W37369  10.619  20.507  12.087
69152W        W37370  38.441   2.479  14.371
69153W        W37371  15.872  44.965   0.430
69154W        W37372  23.018  39.587  11.466
69155W        W37373  30.409  33.881  12.024
69156W        W37374  25.452  22.786  10.866
69157W        W37375   8.242  17.052   4.471
69158W        W37376  42.430  33.825  13.934
69159W        W37377  30.725  31.448  11.065
69160W        W37378  26.496  30.398  13.361
69161W        W37379  44.083  40.280   3.752
69162W        W37380   6.332   4.506  11.527
69163W        W37381  20.930  42.531  12.096
69164W        W37382  19.247  23.117   0.808
69165W        W37383   9.940  18.173   3.045
69166W        W37384  41.349  24.168   2.864
69167W        W37385  34.812   7.165  14.260
69168W        W37386   3.238  11.532   1.897
69169W        W37387  18.536  41.034   1.725
69170W        W37388   6.520  21.418   4.825
69171W        W37389   9.095  27.628   2.874
69172W        W37390   0.866  33.494   4.501
69173W        W37391  21.638  41.266  10.748
69174W        W37392  28.884  20.176  14.298
69175W        W37393  29.690  22.982  10.997
69176W        W37394  44.887   8.951   3.750
69177W        W37395  12.418   2.162  11.194
69178W        W37396   8.326  28.738  10.711
69179W        W37397  33.687   4.744   3.346
69180W        W37398  11.367  36.149   4.687
69181W        W37399   0.804  38.543   2.816
69182W        W37400  12.266   5.258   4.604
69183W        W37401  23.789   2.973  13.119
69184W        W37402  41.033   9.364   4.129
69185W        W37403  32.088  28.788  11.038
69186W        W37404   4.416  25.688  14.806
69187W        W37405   9.814  33.089   2.281
69188W        W37406  26.742  34.301   0.850
69189W        W37407  10.735  24.952  10.567
69190W        W37408   6.693  21.958   1.317
69191W        W37409  10.037  34.388   2.084
69192W        W37410  37.583  18.622  11.611
69193W        W37411  30.176  35.338  12.407
69194W        W37412  15.713  32.852  14.691
69195W        W37413   6.200  32.985  14.074
69196W        W37414  34.439  21.498   4.173
69197W        W37415  21.311   0.996   4.606
69198W        W37416  35.493  31.386  11.229
69199W        W37417  43.835   1.962   1.531
69200W        W37418  13.906  13.406  13.060
69201W        W37419  14.063   1.463   2.772
69202W        W37420  23.984  36.055   4.079
69203W        W37421  36.846  39.588  14.899
69204W        W37422   8.652  28.169  13.490
69205W        W37423  16.759  21.069   4.603
69206W        W37424   5.803  17.651  11.093
69207W        W37425  12.185  30.483   2.823
69208W        W37426  12.834  24.074  14.451
69209W        W37427   9.197  37.404   3.406
69210W        W37428  22.103  40.873  13.450
69211W        W37429  40.757  10.342   3.722
69212W        W37430   5.374  17.073   5.076
69213W        W37431  12.690   8.649  13.360
69214W        W37432  40.709  41.559  10.895
69215W        W37433  34.093  38.353   1.768
69216W        W37434  22.266  25.908  14.522
69217W        W37435   4.971   0.495   1.820
69218W        W37436   6.006  13.517   1.483
69219W        W37437  17.193  40.614  10.467
69220W        W37438  28.615  26.031  13.833
69221W        W37439  19.814  22.691   4.131
69222W        W37440   8.936  20.331   5.573
69223W        W37441  33.341   9.163  13.434
69224W        W37442  39.923  30.425   4.664
69225W        W37443  37.346  38.532   3.796
69226W        W37444  30.512  36.372   1.485
69227W        W37445  20.777  44.481  14.863
69228W        W37446  10.857   5.793  11.653
69229W        W37447  44.714  34.497   2.377
69230W        W37448  41.528   2.971   4.269
69231W        W37449  29.195  41.994  11.424
69232W        W37450  35.892   2.856   2.326
69233W        W37451  33.543  40.880   3.686
69234W        W37452   9.388   3.616  13.364
69235W        W37453   7.235  32.605   4.568
69236W        W37454  31.883  12.589   2.220
69237W        W37455  10.387  11.219   2.049
69238W        W37456  23.004   8.709  10.832
69239W        W37457  13.695  11.892   0.450
69240W        W37458   2.630  22.363   0.717
69241W        W37459  31.030  30.433   3.249
69242W        W37460  36.542  21.125   2.143
69243W        W37461  12.587  30.979  13.323
69244W        W37462  11.983  40.436  11.776
69245W        W37463  37.449  24.199   4.566
69246W        W37464  15.893  28.858   3.058
69247W        W37465  35.557  41.947  10.538
69248W        W37466  10.739  10.345  10.629
69249W        W37467  39.374   5.187  14.007
69250W        W37468  12.462   0.923   3.630
69251W        W37469  11.830  28.167   4.390
69252W        W37470   3.377  12.893   2.314
69253W        W37471  29.235   3.007   1.437
69254W        W37472   8.203  22.801   1.362
69255W        W37473  41.320  21.700   4.155
69256W        W37474  41.566  44.650   1.263
69257W        W37475  38.584  11.770  14.988
69258W        W37476  37.254  36.619   2.816
69259W        W37477   0.048  26.103   3.927
69260W        W37478  43.368  29.595  14.856
69261W        W37479   8.407   1.782   4.778
69262W        W37480  15.749  32.936   3.877
69263W        W37481   0.771  16.620   2.918
69264W        W37482  23.712  43.743  12.627
69265W        W37483   8.278   1.526  13.471
69266W        W37484  41.271  40.170   4.649
69267W        W37485  16.762  11.244  13.493
69268W        W37486  22.627  36.631  13.546
69269W        W37487   7.401   2.733  14.748
69270W        W37488   5.372  37.054   2.099
69271W        W37489  16.101   9.128  11.258
69272W        W37490  29.535  22.703   3.099
69273W        W37491  26.342   6.515   3.929
69274W        W37492   8.216  13.892   0.171
69275W        W37493  16.306  17.656   2.349
69276W        W37494  34.866  34.052   0.826
69277W        W37495  14.901  17.795  10.070
69278W        W37496  32.470  25.444  14.754
69279W        W37497  10.350  21.477  13.461
69280W        W37498  10.731  11.189  10.538
69281W        W37499  38.250  21.677   4.116
69282W        W37500  21.634  22.257  13.471
69283W        W37501  25.426  43.927  11.048
69284W        W37502   3.805  38.406   1.114
69285W        W37503  37.416  40.729   1.364
69286W        W37504  21.354   3.673  13.443
69287W        W37505   6.353  32.374  14.943
69288W        W37506  41.501  38.948  14.911
69289W        W37507  37.142  30.013   1.862
69290W        W37508  18.712  36.018  14.774
69291W        W37509  18.126  30.667  10.595
69292W        W37510  27.510  37.989   1.768
69293W        W37511  33.916  33.017  14.759
69294W        W37512  20.702  39.490   2.695
69295W        W37513  41.608   6.060  10.548
69296W        W37514   3.881  24.652   2.341
69297W        W37515  41.934  31.168  13.013
69298W        W37516  18.342  36.357   2.725
69299W        W37517  14.846  21.949  12.361
69300W        W37518  42.556  19.815  11.591
69301W        W37519  33.835  43.450  10.806
69302W        W37520   3.355  10.800   0.710
69303W        W37521  41.315  15.275  13.031
69304W        W37522  19.063  21.539   3.655
69305W        W37523   5.917   3.384   1.255
69306W        W37524  22.848  18.664  10.120
69307W        W37525  36.561  10.207  12.894
69308W        W37526  22.512   2.573  10.719
69309W        W37527  19.238  30.856   3.797
69310W        W37528  11.221   8.748  11.635
69311W        W37529   2.039  30.068  10.719
69312W        W37530  36.989  30.117   0.776
69313W        W37531  20.101  36.636   3.765
69314W        W37532   2.754  30.208   3.433
69315W        W37533  31.344  13.196  11.464
69316W        W37534  36.973  31.653  12.616
69317W        W37535   8.918  26.439   3.111
69318W        W37536  21.140  33.348  10.319
69319W        W37537  35.896  33.341   2.615
69320W        W37538  30.447  33.554  11.537
69321W        W37539  22.575  26.610  11.991
69322W        W37540  40.307  33.163   4.099
69323W        W37541  26.034   8.573   1.681
69324W        W37542  40.593  32.906  12.433
69325W        W37543  15.241  42.050   4.855
69326W        W37544  20.059  38.584  13.322
69327W        W37545  37.396  26.801  10.626
69328W        W37546  35.522   2.817  12.179
69329W        W37547   9.247  12.330   3.110
69330W        W37548  33.588  31.767  13.617
69331W        W37549  13.311  29.070   4.510
69332W        W37550  31.922  14.754   3.713
69333W        W37551  25.662  28.900   0.581
69334W        W37552  41.575  23.364   4.608
69335W        W37553   9.338   5.483   2.196
69336W        W37554  19.540   7.886  11.178
69337W        W37555  31.899  34.074   0.869
69338W        W37556   0.274  35.078  13.333
69339W        W37557  23.233  38.018  12.416
69340W        W37558   4.326  34.092   2.965
69341W        W37559   8.150   0.227  12.343
69342W        W37560   3.438  35.399  14.985
69343W        W37561   2.366   4.829  14.955
69344W        W37562  18.799  15.314   0.876
69345W        W37563  23.094  10.360  12.847
69346W        W37564  33.430  37.179  11.932
69347W        W37565  36.147  26.593   0.494
69348W        W37566  40.896  33.364  14.032
69349W        W37567  41.432  40.919   4.292
69350W        W37568   9.123  36.042  13.361
69351W        W37569   4.795  28.514   1.288
69352W        W37570  25.435  15.639  11.121
69353W        W37571  16.745  12.224  11.486
69354W        W37572  15.298  40.979   3.421
69355W        W37573  12.529   5.084  10.756
69356W        W37574  24.061   3.999  13.481
69357W        W37575  18.761  31.045   3.859
69358W        W37576   3.319  36.358   0.975
69359W        W37577   6.237  41.616   1.196
69360W        W37578  39.039  12.178   2.320
69361W        W37579  14.720   0.140  10.344
69362W        W37580  27.140   8.237   1.764
69363W        W37581  12.976   1.915   3.083
69364W        W37582   7.380  22.095  11.967
69365W        W37583   1.329  38.168   4.043
69366W        W37584  20.275  22.589  12.576
69367W        W37585  10.111  41.462  13.784
69368W        W37586   3.728  38.901  10.267
69369W        W37587  20.229  12.476   5.019
69370W        W37588  36.638  25.248   2.383
69371W        W37589  29.647  14.186  12.834
69372W        W37590  10.331  27.716   0.270
69373W        W37591   3.078   8.232   4.074
69374W        W37592  30.427  18.238   4.084
69375W        W37593  27.164   7.209   0.418
69376W        W37594   8.330  27.219   1.795
69377W        W37595  36.756  19.582   4.537
69378W        W37596  10.563  23.926  11.469
69379W        W37597   9.799  10.228   3.650
69380W        W37598  27.868  10.251   4.631
69381W        W37599  38.043  40.078  12.118
69382W        W37600  29.696   5.784   4.574
69383W        W37601  10.386  28.337  11.598
69384W        W37602  26.008  26.767  12.894
69385W        W37603   7.714   2.331  13.440
69386W        W37604  10.080   1.351  10.751
69387W        W37605  18.059  44.128   1.811
69388W        W37606  27.681  41.008  10.734
69389W        W37607  24.622  41.391  11.242
69390W        W37608  15.760   7.773   2.774
69391W        W37609  31.189   2.065   5.256
69392W        W37610   0.722  21.044  14.904
69393W        W37611  19.920  38.146  14.080
69394W        W37612  39.512  41.114  12.678
69395W        W37613  11.810  24.709  12.369
69396W        W37614  44.614  32.209  14.914
69397W        W37615   2.322   3.481   2.790
69398W        W37616  28.381   8.628  10.659
69399W        W37617   8.602  10.646   2.658
69400W        W37618  31.902  29.563   2.707
69401W        W37619  36.137  43.978   0.041
69402W        W37620  18.382  16.870  12.115
69403W        W37621   2.236  38.448   2.129
69404W        W37622  20.292   4.320   0.611
69405W        W37623   2.494  41.525  13.838
69406W        W37624   0.400   3.515  14.881
69407W        W37625   4.275  31.599  12.592
69408W        W37626   7.003   4.218  11.090
69409W        W37627  11.084  22.510  11.108
69410W        W37628  12.092   2.640   4.235
69411W        W37629  26.119   0.091  12.070
69412W        W37630  38.601  28.617   0.824
69413W        W37631   4.313  11.607   3.855
69414W        W37632  35.446  22.112  14.095
69415W        W37633  12.525   8.636   3.143
69416W        W37634  29.447  41.512   0.032
69417W        W37635  30.044  43.812  13.429
69418W        W37636  17.056   1.480   4.635
69419W        W37637  15.200  38.806   1.276
69420W        W37638  11.883  33.517  12.505
69421W        W37639  36.853   9.144   1.177
69422W        W37640  39.401   4.179  10.712
69423W        W37641  41.883  36.359  12.459
69424W        W37642   1.192  35.150  10.276
69425W        W37643  21.114  21.075  10.203
69426W        W37644   1.916  18.801   3.921
69427W        W37645  39.013  41.790   1.279
69428W        W37646  36.626  16.946   3.353
69429W        W37647   6.059  28.198   4.520
69430W        W37648  38.524  41.553  12.483
69431W        W37649  33.627   5.351   4.617
69432W        W37650   0.488   1.553   0.876
69433W        W37651  41.326  27.480   0.925
69434W        W37652  43.871  10.170   2.326
69435W        W37653  32.828  27.655  11.174
69436W        W37654  23.162  11.275   1.438
69437W        W37655  10.653  24.973  13.861
69438W        W37656   0.541  41.865  10.885
69439W        W37657  44.388  43.746  12.918
69440W        W37658  22.878  38.984  13.300
69441W        W37659  25.078   0.834  11.634
69442W        W37660   8.894  35.863   2.679
69443W        W37661  25.505   3.860   2.166
69444W        W37662  39.784  19.189   4.064
69445W        W37663  16.633   1.609   5.397
69446W        W37664  23.993   3.647   3.735
69447W        W37665  11.178  25.999  14.953
69448W        W37666   4.731  41.725  14.941
69449W        W37667  23.139  29.436  12.994
69450W        W37668  30.427  37.750   0.429
69451W        W37669  10.846  43.314   1.426
69452W        W37670  16.842  20.124  11.373
69453W        W37671   9.707  15.011   1.291
69454W        W37672  17.733  39.048   1.388
69455W        W37673  27.028  23.045  12.926
69456W        W37674  28.699  42.067  11.372
69457W        W37675   5.045   1.356  14.331
69458W        W37676  18.348  37.603  13.049
69459W        W37677  37.760  14.754  13.651
69460W        W37678  17.566  25.104   0.033
69461W        W37679  30.868  25.961  11.243
69462W        W37680  39.865  22.692   0.120
69463W        W37681   1.379  18.785   2.076
69464W        W37682  17.299  33.257   2.693
69465W        W37683   4.451  21.209  13.773
69466W        W37684  12.160  38.808   4.122
69467W        W37685   6.730   7.256  13.356
69468W        W37686  27.013  26.090   0.458
69469W        W37687  35.828  23.656   1.837
69470W        W37688   1.259  26.637   2.753
69471W        W37689  12.143  33.574  14.830
69472W        W37690  24.110  16.211   0.823
69473W        W37691  19.104   8.488  13.164
69474W        W37692  43.303  21.086  14.291
69475W        W37693   2.805  22.925  13.891
69476W        W37694   6.786  21.075   3.999
69477W        W37695   6.722   9.677   3.318
69478W        W37696  21.629   8.911   2.685
69479W        W37697  26.053  38.782  10.885
69480W        W37698   4.876  32.847  12.879
69481W        W37699  37.224   9.628   1.872
69482W        W37700   4.683  11.392  13.993
69483W        W37701  36.451   0.868   0.957
69484W        W37702   0.060  24.730   0.977
69485W        W37703  35.502  41.729  12.533
69486W        W37704  12.515   2.165   5.072
69487W        W37705  38.392   3.368  13.814
69488W        W37706  44.504  23.227  14.570
69489W        W37707  42.093  37.937   4.107
69490W        W37708  15.521   4.742  11.576
69491W        W37709  29.610  11.893  13.556
69492W        W37710  41.272  16.547   3.087
69493W        W37711  43.504  12.957  10.644
69494W        W37712  26.801   1.537  13.064
69495W        W37713  27.016  23.406   3.175
69496W        W37714  32.554  27.171   0.231
69497W        W37715  14.730   2.833  14.726
69498W        W37716  23.560   3.305   1.775
69499W        W37717   6.950  18.291   0.283
69500W        W37718  24.618  42.146   2.333
69501W        W37719  10.813  37.507  11.859
69502W        W37720  30.460  37.568  11.268
69503W        W37721  19.782  37.442   0.435
69504W        W37722  30.691   8.708  12.552
69505W        W37723   6.319  34.600   1.222
69506W        W37724  39.955   4.210   0.415
69507W        W37725  42.550   7.372  12.025
69508W        W37726  14.811  14.966   0.028
69509W        W37727  35.151  26.693   0.293
69510W        W37728   4.509   0.233  13.075
69511W        W37729   2.362   3.646   1.390
69512W        W37730  35.165  21.288   4.580
69513W        W37731   5.248  44.050   2.733
69514W        W37732  11.364  34.901  11.249
69515W        W37733  33.737   4.878  14.818
69516W        W37734  16.687   7.669  12.922
69517W        W37735  36.548  43.238  11.540
69518W        W37736  29.719  41.467  14.589
69519W        W37737  35.663  18.244   2.765
69520W        W37738  34.831   4.379   4.184
69521W        W37739  13.939  23.806   4.218
69522W        W37740  32.045  34.000   2.655
69523W        W37741  40.832  20.998   0.960
69524W        W37742  42.471   5.174  10.554
69525W        W37743  40.338  39.385   4.148
69526W        W37744  31.444  32.458  13.605
69527W        W37745  26.111  12.268  11.870
69528W        W37746  29.032  21.446   1.288
69529W        W37747   6.831  41.855  11.812
69530W        W37748   8.235  44.494  14.896
69531W        W37749  12.232   8.561  13.629
69532W        W37750  30.194  29.468  11.865
69533W        W37751  12.278   0.918   0.818
69534W        W37752   2.311  32.648  11.749
69535W        W37753  18.142  35.137  11.316
69536W        W37754  39.761  37.622  11.042
69537W        W37755   6.684  35.333  14.932
69538W        W37756  20.438  32.165  12.449
69539W        W37757  29.072  43.976   3.649
69540W        W37758   9.418  26.659   1.365
69541W        W37759  31.218   3.385   3.665
69542W        W37760  11.323  40.583  10.574
69543W        W37761  13.633  40.994   3.311
69544W        W37762   2.117  37.068   4.694
69545W        W37763  37.397  14.813   2.632
69546W        W37764  41.820   5.902  12.118
69547W        W37765  37.606  38.833   1.770
69548W        W37766   0.953   9.833  14.411
69549W        W37767  16.707  26.601   0.882
69550W        W37768  25.749  40.506   1.890
69551W        W37769  32.687  20.054  12.458
69552W        W37770  17.466  42.560  11.215
69553W        W37771  21.559  27.983   3.897
69554W        W37772  14.300  39.071  14.246
69555W        W37773  29.494  35.076   1.780
69556W        W37774  27.134   4.384  14.970
69557W        W37775  35.630  44.893   0.051
69558W        W37776  11.850  44.432   4.697
69559W        W37777  15.277   7.220  10.737
69560W        W37778  32.359  14.260  14.256
69561W        W37779  44.524   4.245   0.484
69562W        W37780   7.598   4.304  13.304
69563W        W37781  28.702  40.459   3.173
69564W        W37782  29.706  17.527  12.974
69565W        W37783  10.443  18.752  12.149
69566W        W37784  21.565  12.326  11.384
69567W        W37785  32.800  17.085  10.766
69568W        W37786  19.581  22.870   1.792
69569W        W37787  31.828  36.581  12.630
69570W        W37788   3.793  23.947  13.055
69571W        W37789  12.984  21.237   3.670
69572W        W37790  20.475  22.946  11.317
69573W        W37791  39.840  42.295  14.404
69574W        W37792  24.596  23.569   3.070
69575W        W37793   7.745  38.966  10.192
69576W        W37794   4.732  20.677   4.563
69577W        W37795  36.988  42.239  11.050
69578W        W37796   2.183   5.854  12.901
69579W        W37797  13.362  30.438   2.782
69580W        W37798   7.092  41.837   3.416
69581W        W37799  39.949  25.032  12.168
69582W        W37800  23.233  42.283   3.119
69583W        W37801  27.480  37.367  13.637
69584W        W37802  37.674   1.943  14.362
69585W        W37803  42.488  24.729  10.643
69586W        W37804  27.423  39.331   3.674
69587W        W37805  12.464   6.727  10.809
69588W        W37806  14.831  32.597  13.333
69589W        W37807  43.203  31.361   3.019
69590W        W37808   6.679  13.672  10.675
69591W        W37809  12.131   3.687  13.937
69592W        W37810   0.572  37.676  14.314
69593W        W37811  26.198  30.575   1.276
69594W        W37812  14.347   1.437   1.814
69595W        W37813  27.885  32.144  13.021
69596W        W37814  12.235  17.447   3.279
69597W        W37815  27.574  35.848   2.304
69598W        W37816  42.787  17.576  11.081
69599W        W37817  13.081   0.173  12.547
69600W        W37818   7.503  44.467   4.612
69601W        W37819   3.695  39.729   1.796
69602W        W37820  25.045  23.510   0.517
69603W        W37821  14.837  24.182   2.739
69604W        W37822  18.291  14.817   0.545
69605W        W37823  34.362  17.773   3.548
69606W        W37824  13.700  16.825  13.501
69607W        W37825  21.309  36.432   0.604
69608W        W37826  43.951   3.983  11.536
69609W        W37827   5.910  20.413  14.518
69610W        W37828  11.338  18.482   1.281
69611W        W37829  22.546   7.495  14.885
69612W        W37830  23.118  26.652   4.430
69613W        W37831   0.486  13.604  12.517
69614W        W37832  44.530  26.001  11.692
69615W        W37833  32.865  35.325  13.836
69616W        W37834  19.769  30.168  13.170
69617W        W37835  37.439  37.394  13.388
69618W        W37836  16.362  32.025  14.929
69619W        W37837  35.101   5.322  10.467
69620W        W37838   1.495  31.147  12.143
69621W        W37839  43.469   5.925  11.637
69622W        W37840  16.618  15.364   4.168
69623W        W37841  16.814  17.199   4.650
69624W        W37842  37.166   6.667  11.897
69625W        W37843   8.957  29.852  11.750
69626W        W37844  28.003  12.866   2.746
69627W        W37845  42.984  32.940  14.208
69628W        W37846  14.095   1.973   0.340
69629W        W37847  16.041  33.486   3.880
69630W        W37848  22.800  42.362  14.506
69631W        W37849  30.772   7.745   5.007
69632W        W37850  38.984   7.916  12.496
69633W        W37851  23.618  20.179   4.513
69634W        W37852  28.508  40.236   0.012
69635W        W37853  34.561  37.885   0.409
69636W        W37854  21.757  35.322   3.649
69637W        W37855  32.531  31.618   4.273
69638W        W37856  28.063  34.654   4.036
69639W        W37857   4.902   4.785   0.712
69640W        W37858  16.741  41.922  13.367
69641W        W37859  43.301  44.077   2.741
69642W        W37860   5.388  34.064  11.921
69643W        W37861  16.019  15.009   4.721
69644W        W37862   4.181  32.076   1.318
69645W        W37863   8.405  41.319   2.798
69646W        W37864  18.844  34.483  14.427
69647W        W37865  27.752  26.254  12.876
69648W        W37866  31.127  42.863   3.451
69649W        W37867  11.955   2.616  14.743
69650W        W37868  12.394  44.246   9.694
69651W        W37869  12.743  20.794  12.515
69652W        W37870  32.192  32.115   2.170
69653W        W37871  37.123   8.338   3.779
69654W        W37872  29.928  19.195   4.407
69655W        W37873  13.610  42.722  14.463
69656W        W37874   4.723  27.335  11.717
69657W        W37875  12.139  17.093   2.863
69658W        W37876   2.527  14.086   4.081
69659W        W37877  32.114   2.295  12.861
69660W        W37878  14.194  15.650   1.515
69661W        W37879  21.575  41.694   3.508
69662W        W37880  22.330  32.946  12.999
69663W        W37881  25.238  15.203   0.686
69664W        W37882   0.215  40.347   4.153
69665W        W37883  26.155  10.209  14.912
69666W        W37884  33.130   0.875  13.170
69667W        W37885   1.895  19.243  11.872
69668W        W37886  35.523  16.675  12.271
69669W        W37887  11.093   8.592   5.330
69670W        W37888  15.803   1.008   2.305
69671W        W37889  15.708   0.815  14.502
69672W        W37890  23.429  44.478  12.152
69673W        W37891  28.423  21.458  12.016
69674W        W37892  39.978   5.247   1.368
69675W        W37893  30.464  11.797   1.097
69676W        W37894  11.598  11.604   3.585
69677W        W37895   0.598  39.977   2.786
69678W        W37896  44.500  42.896  14.080
69679W        W37897  20.234   5.643   3.178
69680W        W37898   0.669   7.284  10.702
69681W        W37899  12.277  36.373   4.913
69682W        W37900  11.931   5.444   3.280
69683W        W37901  25.646   6.470  13.096
69684W        W37902  42.921   6.698  14.762
69685W        W37903  20.330  18.546   4.887
69686W        W37904  12.090  40.291   2.598
69687W        W37905  37.099  21.989   1.175
69688W        W37906   7.791  22.055  13.076
69689W        W37907  38.045  29.413  13.927
69690W        W37908   0.917  33.527   1.511
69691W        W37909  30.444  12.795   0.735
69692W        W37910   9.120  40.582   1.050
69693W        W37911  24.932   5.092  11.661
69694W        W37912  13.133  42.445   4.657
69695W        W37913  44.788   0.175   1.788
69696W        W37914  36.112  25.165   3.186
69697W        W37915  40.766  20.757   1.425
69698W        W37916  35.824  23.216  12.312
69699W        W37917  35.475  27.146   0.283
69700W        W37918  34.574   6.723  13.962
69701W        W37919   9.212   7.924   4.721
69702W        W37920  21.168  38.624  14.295
69703W        W37921   0.416  25.563   4.739
69704W        W37922   5.346   0.053  14.965
69705W        W37923  25.249  18.266  13.912
69706W        W37924  23.023  32.145  12.019
69707W        W37925  34.698  22.064   2.955
69708W        W37926  42.356  41.434   2.153
69709W        W37927   9.473  19.259   4.777
69710W        W37928  15.427  15.929   2.820
69711W        W37929  10.797  41.769  10.743
69712W        W37930  37.629  26.138  11.142
69713W        W37931  26.167  41.073  14.263
69714W        W37932   9.805   1.851  14.333
69715W        W37933  29.222   7.262  12.888
69716W        W37934  32.353   4.088  13.128
69717W        W37935  14.146  42.784   2.646
69718W        W37936  44.683   2.786  11.123
69719W        W37937  37.931  39.590   2.724
69720W        W37938   2.227   9.393  11.203
69721W        W37939  24.538  21.133   2.015
69722W        W37940  38.820   5.375   4.614
69723W        W37941   3.231  12.864  14.018
69724W        W37942   2.339  29.021  12.836
69725W        W37943  27.021  23.652  13.928
69726W        W37944  40.499  12.352   4.142
69727W        W37945  37.311  14.375   0.479
69728W        W37946   8.407  33.327  13.077
69729W        W37947  30.984  37.856   4.846
69730W        W37948   7.844  30.158   3.627
69731W        W37949  35.427   4.168  12.095
69732W        W37950  21.230  39.887   0.712
69733W        W37951  10.337  11.589   4.276
69734W        W37952  16.507  10.276  14.566
69735W        W37953  37.790   2.011   0.268
69736W        W37954  23.282  28.227   0.289
69737W        W37955  37.239  19.968  11.836
69738W        W37956  24.019  24.809   3.345
69739W        W37957   1.739  22.184   3.597
69740W        W37958  32.837  38.053   2.516
69741W        W37959  28.261  42.824  13.097
69742W        W37960   6.444  15.224  13.586
69743W        W37961  10.391  13.253   5.260
69744W        W37962  38.805  30.632   0.682
69745W        W37963   7.748   6.240  10.669
69746W        W37964  33.776   5.298   2.668
69747W        W37965  33.696  12.617  11.737
69748W        W37966  33.338  11.810   1.764
69749W        W37967  17.063  41.463  11.732
69750W        W37968   1.173  19.726   1.324
69751W        W37969   2.297  29.168   0.697
69752W        W37970  17.074  18.968   0.852
69753W        W37971  32.344  44.575   1.179
69754W        W37972  17.278  14.038  13.474
69755W        W37973   4.267  12.349   1.765
69756W        W37974   0.274  18.189  11.508
69757W        W37975  14.282  21.173  12.681
69758W        W37976   3.309  19.194  11.422
69759W        W37977  34.552   8.196   0.373
69760W        W37978  26.236  26.771   1.417
69761W        W37979  34.630  35.923  12.943
69762W        W37980  19.712  44.320  11.253
69763W        W37981   7.224   6.765   1.817
69764W        W37982  20.237  44.120  10.064
69765W        W37983  30.852  44.808  12.431
69766W        W37984  22.614  20.242  13.869
69767W        W37985  12.148  21.523   2.152
69768W        W37986   1.253   3.576   3.805
69769W        W37987  39.078  44.404  14.945
69770W        W37988   8.839  24.565  10.851
69771W        W37989  14.289  41.129   2.766
69772W        W37990  14.036  24.645   4.981
69773W        W37991  16.011  31.134   3.835
69774W        W37992   6.892  13.379  11.492
69775W        W37993  43.949  20.606  13.437
69776W        W37994  37.974  19.686   2.307
69777W        W37995  21.286  40.767   2.323
69778W        W37996   3.727  36.289   1.860
69779W        W37997  15.237  40.271  12.606
69780W        W37998  31.531  44.048  13.462
69781W        W37999  10.113   4.271   1.793
69782W        W38000   5.990  20.736   4.266
69783W        W38001  44.672  25.995  10.467
69784W        W38002   8.296  11.627   3.745
69785W        W38003  34.429  33.885   4.557
69786W        W38004  41.067  37.004   2.861
69787W        W38005  41.569  15.239   1.178
69788W        W38006  17.848  11.796   4.724
69789W        W38007  33.601  12.754  13.179
69790W        W38008  25.526  33.035  14.882
69791W        W38009  31.568  20.742  11.460
69792W        W38010  19.054  11.562   1.391
69793W        W38011  13.624   9.777   4.671
69794W        W38012  13.568  29.441  10.476
69795W        W38013  14.259   0.367   0.405
69796W        W38014  13.876  16.484  10.975
69797W        W38015  36.341  26.105  14.884
69798W        W38016  32.950  37.577  12.601
69799W        W38017  15.321  10.656   1.675
69800W        W38018   9.220   0.264   1.250
69801W        W38019  20.021  35.495  13.549
69802W        W38020  21.100  14.612  11.974
69803W        W38021  23.536   6.389   4.638
69804W        W38022  44.383   5.395   1.179
69805W        W38023  32.493   5.283   0.913
69806W        W38024  22.267  33.615   4.692
69807W        W38025  30.416   1.191  12.459
69808W        W38026   9.385   5.020  12.984
69809W        W38027  38.523   8.396  11.971
69810W        W38028  10.871  27.064   0.004
69811W        W38029  26.209   2.377   3.328
69812W        W38030  25.270  31.469   3.302
69813W        W38031  37.944  29.410  11.415
69814W        W38032   7.875  16.330   0.770
69815W        W38033  25.500  32.868   0.375
69816W        W38034  30.680  28.391  14.657
69817W        W38035   5.508  36.063   2.727
69818W        W38036  12.180   0.001   0.758
69819W        W38037   8.120  29.844   3.368
69820W        W38038  27.512  35.741   4.509
69821W        W38039  19.049  39.455  13.391
69822W        W38040  33.916  29.961   1.736
69823W        W38041  40.760  21.153   0.451
69824W        W38042  36.980  15.234   2.284
69825W        W38043  26.642  38.736  14.435
69826W        W38044  35.376  44.419   4.375
69827W        W38045   9.468  18.479  13.338
69828W        W38046  12.693  37.655  10.395
69829W        W38047  24.040   7.226  14.826
69830W        W38048  28.829   2.182  11.435
69831W        W38049  25.330  14.085   0.793
69832W        W38050  20.087  26.938   1.347
69833W        W38051   2.612   0.266   0.272
69834W        W38052  18.449  19.819   3.564
69835W        W38053   2.085  33.359   3.559
69836W        W38054   4.808  33.084   0.311
69837W        W38055  10.552  16.300   0.833
69838W        W38056   6.858  22.481  11.374
69839W        W38057  43.770   4.129  11.076
69840W        W38058  38.259  21.090  11.196
69841W        W38059  41.542  34.883   3.839
69842W        W38060   5.183   6.161   1.269
69843W        W38061  18.638  33.933  14.353
69844W        W38062  12.295  41.590  12.644
69845W        W38063  10.296  43.003  10.522
69846W        W38064   0.718  34.263  13.734
69847W        W38065  36.482  26.638   4.499
69848W        W38066   1.772  17.527   2.293
69849W        W38067  27.140  16.726  11.962
69850W        W38068   4.740   9.262  11.931
69851W        W38069   1.384  42.000  13.522
69852W        W38070   7.436  39.996  14.154
69853W        W38071  37.489  24.236  14.157
69854W        W38072   1.040  12.168  12.514
69855W        W38073  29.591  32.620  11.255
69856W        W38074  42.222  43.402   2.622
69857W        W38075  23.842  22.865  11.596
69858W        W38076  37.909  14.721   3.947
69859W        W38077  42.652   5.694   0.467
69860W        W38078   6.450  43.841  14.986
69861W        W38079  13.385   3.370   2.239
69862W        W38080   0.765  22.318  11.936
69863W        W38081  13.941  10.210   4.638
69864W        W38082  14.759  14.325  12.787
69865W        W38083  36.363   5.415   3.634
69866W        W38084  36.641  19.773   0.884
69867W        W38085  11.690  35.588  13.907
69868W        W38086   2.527  10.626   0.284
69869W        W38087  34.155  30.957   0.704
69870W        W38088   7.192  24.545   1.738
69871W        W38089  15.923  15.078  13.847
69872W        W38090  27.629   3.241   3.700
69873W        W38091   5.525  19.555   3.791
69874W        W38092  19.995  33.897   0.026
69875W        W38093  18.895  33.454   3.800
69876W        W38094  30.867  24.588  14.212
69877W        W38095   0.193  25.563  12.333
69878W        W38096  28.908  16.648   0.781
69879W        W38097  16.579  33.410   1.799
69880W        W38098   0.733  36.761   4.024
69881W        W38099  15.874   2.981   0.660
69882W        W38100   6.258  16.577  14.654
69883W        W38101   6.328  15.088   1.846
69884W        W38102   2.109  22.451  10.621
69885W        W38103  30.618  24.660  14.837
69886W        W38104  23.197  21.693   0.325
69887W        W38105  12.355  22.045   3.222
69888W        W38106  25.431  42.866  12.073
69889W        W38107  38.772   7.211  14.530
69890W        W38108  19.182  10.969  11.502
69891W        W38109   0.363  26.413  11.350
69892W        W38110  22.720  14.350   0.584
69893W        W38111   8.579  28.882   1.810
69894W        W38112  22.971   9.948   4.073
69895W        W38113  32.603   4.790   4.100
69896W        W38114  22.809   9.141  14.395
69897W        W38115   6.470  36.059   2.689
69898W        W38116  25.246   1.272   3.549
69899W        W38117   0.217   4.880   0.388
69900W        W38118  16.647  37.018   3.638
69901W        W38119  21.984  39.740  10.677
69902W        W38120  14.354  40.402  12.829
69903W        W38121  30.664  24.212  14.522
69904W        W38122  41.384   8.117   4.407
69905W        W38123  31.276  13.748  12.019
69906W        W38124  11.814   0.948   1.223
69907W        W38125   4.984  38.977   4.189
69908W        W38126  35.410   5.240   2.812
69909W        W38127   0.417   6.905   4.234
69910W        W38128  14.857  40.634   0.083
69911W        W38129  43.462  25.911   0.494
69912W        W38130  20.532  20.773   4.036
69913W        W38131  35.509  13.265   0.777
69914W        W38132  34.868  39.933  12.220
69915W        W38133   1.256  12.617   3.090
69916W        W38134   2.032   7.337  12.420
69917W        W38135   5.751  17.759  14.327
69918W        W38136  36.535   0.987  10.821
69919W        W38137  42.593  40.103  12.426
69920W        W38138  41.182  17.264   4.154
69921W        W38139  33.412  31.270   4.150
69922W        W38140  44.132  16.136  14.816
69923W        W38141  17.302  43.137  12.091
69924W        W38142   8.603   6.607  14.361
69925W        W38143  17.564   3.221   1.213
69926W        W38144  21.257   0.364  13.905
69927W        W38145  34.625   4.435  12.511
69928W        W38146   6.368  13.891  13.986
69929W        W38147   3.178  26.836  12.017
69930W        W38148  36.502  28.265   4.823
69931W        W38149  10.716  30.178   1.862
69932W        W38150   0.465  27.097   3.069
69933W        W38151  27.009  21.805  10.591
69934W        W38152  40.278  37.419   4.211
69935W        W38153   7.239   7.731   4.442
69936W        W38154   4.596  15.780  14.995
69937W        W38155   0.939  32.152   0.316
69938W        W38156  31.195   0.012  13.839
69939W        W38157  36.129  19.350  10.675
69940W        W38158  11.828  25.672  10.671
69941W        W38159   4.335   5.398  14.552
69942W        W38160  25.194  17.534  11.194
69943W        W38161   7.758  33.594   0.065
69944W        W38162  35.173   8.779   5.100
69945W        W38163  12.658  34.157  11.511
69946W        W38164  32.444  14.694  13.958
69947W        W38165  37.019   3.036   4.140
69948W        W38166  29.433  27.130  14.938
69949W        W38167   2.936  12.910   0.927
69950W        W38168  16.805  13.213   3.328
69951W        W38169  42.333  19.713   1.883
69952W        W38170   0.861  25.105  11.966
69953W        W38171  21.660   5.936  13.880
69954W        W38172  26.521  14.056   1.317
69955W        W38173  16.085  34.336  13.486
69956W        W38174  42.254  22.710   0.922
69957W        W38175  35.416   7.893  14.964
69958W        W38176  12.433  19.333   3.548
69959W        W38177  34.905  36.744  13.200
69960W        W38178   4.992  24.639  11.629
69961W        W38179   4.726  26.957  14.924
69962W        W38180   2.003  31.661  13.841
69963W        W38181  11.286  11.639   0.871
69964W        W38182  24.788   0.121   0.272
69965W        W38183  40.848  23.307   1.502
69966W        W38184  14.734  24.999  11.410
69967W        W38185  34.045  22.829   4.090
69968W        W38186  22.089  14.286  11.028
69969W        W38187  12.159   2.947  11.463
69970W        W38188  15.221  31.169  14.963
69971W        W38189  18.044  40.326  12.938
69972W        W38190   5.398  13.780   0.809
69973W        W38191  37.252   0.295   5.078
69974W        W38192  16.783  20.009  14.819
69975W        W38193  42.221  38.804  13.354
69976W        W38194  24.247  33.111   4.753
69977W        W38195  26.232   8.690  12.049
69978W        W38196  25.445  34.921   3.980
69979W        W38197   7.496  17.359   0.849
69980W        W38198  27.208  41.582   0.295
69981W        W38199  27.772  30.114  14.419
69982W        W38200   7.393  37.084  14.994
69983W        W38201  10.731  30.615  11.093
69984W        W38202  21.548   5.224  10.647
69985W        W38203  43.926  16.873   1.842
69986W        W38204  12.679  22.733   0.711
69987W        W38205   0.345   0.439  10.879
69988W        W38206  23.963  12.731  11.085
69989W        W38207   3.192  37.628   2.837
69990W        W38208   5.652  17.165  10.951
69991W        W38209   5.588   1.487   4.974
69992W        W38210   6.968  31.297  14.363
69993W        W38211   4.792   6.446  12.660
69994W        W38212  37.161  37.685  11.194
69995W        W38213  21.985  12.175  10.573
69996W        W38214  43.240  17.317   0.399
69997W        W38215  19.667  38.613  12.283
69998W        W38216   0.333  30.039   2.559
69999W        W38217   4.176   1.402  12.026
70000W        W38218  20.275  31.956  11.085
70001W        W38219  15.776  44.916  14.020
70002W        W38220  42.776  35.007   1.741
70003W        W38221   8.621  14.747   3.641
70004W        W38222   8.902  23.926   3.692
70005W        W38223  13.946   7.311  11.112
70006W        W38224  26.513   0.274  13.714
70007W        W38225  11.785  37.026   4.400
70008W        W38226  29.178   6.947   3.561
70009W        W38227  35.539  19.205  12.376
70010W        W38228  34.103  17.821  13.353
70011W        W38229  26.428  32.497   2.256
70012W        W38230  16.152   3.990  11.455
70013W        W38231  26.217  12.286   4.271
70014W        W38232  15.742   5.530   1.825
70015W        W38233   8.692  24.642   3.280
70016W        W38234  40.480  28.253  11.796
70017W        W38235  18.959  38.556   0.304
70018W        W38236   9.324  16.766  13.753
70019W        W38237  42.980  29.215   4.684
70020W        W38238  30.946  21.770   3.172
70021W        W38239  10.159  20.513   2.269
70022W        W38240  40.875  31.440   1.072
70023W        W38241  15.242  13.131  13.444
70024W        W38242  27.504  37.530   1.996
70025W        W38243   7.877  12.991  12.842
70026W        W38244  43.393  34.178   0.016
70027W        W38245   6.162  41.949   0.238
70028W        W38246   0.851   2.316   4.671
70029W        W38247  38.382  28.209  11.514
70030W        W38248   4.469  44.512  13.263
70031W        W38249  31.173  44.782  13.290
70032W        W38250  21.188  22.428  13.713
70033W        W38251  42.834  18.331  12.120
70034W        W38252  14.688  44.303   1.709
70035W        W38253   1.926  15.361   0.727
70036W        W38254  23.152  33.388   0.191
70037W        W38255   7.902  22.552  10.654
70038W        W38256  25.965  36.985   4.119
70039W        W38257  15.743  41.202   3.720
70040W        W38258  18.519  12.586   1.452
70041W        W38259  22.104  30.947  11.537
70042W        W38260  29.992  39.959  11.637
70043W        W38261  22.906  13.933   3.688
70044W        W38262   9.215  12.009   4.528
70045W        W38263  42.944   4.230   0.507
70046W        W38264  31.726  15.288  11.593
70047W        W38265  11.100  18.758  13.787
70048W        W38266  20.245  19.322  10.758
70049W        W38267  26.121  20.798  10.298
70050W        W38268  32.273  12.383  12.764
70051W        W38269  13.308  26.924  12.049
70052W        W38270  13.232  18.273  12.414
70053W        W38271  38.251   1.656  14.032
70054W        W38272  14.370  27.595  11.470
70055W        W38273  36.371   6.004   2.915
70056W        W38274  18.065  43.525  14.031
70057W        W38275   9.379  41.191  11.603
70058W        W38276  20.210  27.325  10.608
70059W        W38277  30.912  21.724  12.126
70060W        W38278  34.880  42.177  12.066
70061W        W38279   3.805  10.590  10.399
70062W        W38280   1.884  44.509  14.868
70063W        W38281   0.771  39.003  13.882
70064W        W38282  10.683   4.645   3.646
70065W        W38283  38.638  15.177   4.349
70066W        W38284  39.421   7.701   2.882
70067W        W38285  25.464  15.326   1.281
70068W        W38286   4.824   3.701  12.543
70069W        W38287  43.299   3.229   2.602
70070W        W38288  36.047  24.215  10.652
70071W        W38289   4.888  28.356   4.951
70072W        W38290  16.402   5.963  12.952
70073W        W38291  34.682  31.495   3.323
70074W        W38292  42.311   1.878  11.124
70075W        W38293   1.356   0.918  10.668
70076W        W38294   1.721  22.021   0.371
70077W        W38295  19.047  43.819   3.269
70078W        W38296  10.337   5.945  14.250
70079W        W38297  35.654   1.443   3.659
70080W        W38298  41.804  13.303   0.274
70081W        W38299  31.687  40.486  11.461
70082W        W38300   9.346  44.960  12.967
70083W        W38301   9.433  40.130   2.229
70084W        W38302  44.749  21.950   1.913
70085W        W38303   3.403  10.249  13.107
70086W        W38304  14.437   1.484   0.981
70087W        W38305  13.079  44.260   3.239
70088W        W38306   4.486  28.543  12.334
70089W        W38307  20.065  21.217  14.313
70090W        W38308  16.681  43.406   2.854
70091W        W38309   4.776  32.188  13.382
70092W        W38310  24.494  38.099  12.592
70093W        W38311  41.136  31.745  11.991
70094W        W38312   1.217  32.500   4.116
70095W        W38313  18.091  11.985  14.931
70096W        W38314  43.400  17.028  13.016
70097W        W38315  25.977  22.733  10.987
70098W        W38316  27.481  30.210   1.924
70099W        W38317  10.820  35.096   3.656
70100W        W38318  11.331  40.940  11.564
70101W        W38319   0.088  22.091   0.927
70102W        W38320  19.238  38.505   2.925
70103W        W38321  16.944  23.435  13.760
70104W        W38322   0.930   2.910   3.477
70105W        W38323   4.722  42.915   2.882
70106W        W38324  26.737  36.976   4.757
70107W        W38325  34.442  14.453  11.187
70108W        W38326   1.866  10.873  11.129
70109W        W38327  18.076  27.030   1.759
70110W        W38328   9.433  33.122  13.927
70111W        W38329   5.964  21.466  12.718
70112W        W38330  17.404   2.315  14.259
70113W        W38331  25.025  21.577  14.396
70114W        W38332   1.806   9.168   2.238
70115W        W38333  40.905  18.644   4.589
70116W        W38334   9.255  14.162   4.465
70117W        W38335   9.218  22.314  11.907
70118W        W38336  19.532  15.001  11.562
70119W        W38337  43.091  42.321  13.506
70120W        W38338  44.543  12.212  10.472
70121W        W38339  31.004  22.003   2.703
70122W        W38340  18.856  25.112  14.413
70123W        W38341  16.763  18.198  11.241
70124W        W38342  27.127  24.560   0.692
70125W        W38343  31.202  30.485  11.640
70126W        W38344  14.222  20.115   3.339
70127W        W38345  11.240  20.056  10.888
70128W        W38346  24.953  25.706   3.601
70129W        W38347  41.073  40.352  12.874
70130W        W38348  43.933   0.449  14.840
70131W        W38349   9.444  11.900   0.924
70132W        W38350  18.553   6.403  12.504
70133W        W38351  32.824  26.135   0.090
70134W        W38352  39.179  23.914  12.557
70135W        W38353  35.230  16.819   4.552
70136W        W38354  27.007  30.407   1.838
70137W        W38355  29.145  41.496  11.250
70138W        W38356  14.568  18.560   4.121
70139W        W38357  12.287  16.880  11.737
70140W        W38358  44.177  41.760  10.231
70141W        W38359  43.904  25.094   0.490
70142W        W38360   2.277   8.710   0.103
70143W        W38361   9.195  37.939   1.037
70144W        W38362   9.190  21.879  13.047
70145W        W38363  37.931  28.360  13.136
70146W        W38364  10.300  22.559   0.489
70147W        W38365  19.244  21.506  14.339
70148W        W38366  35.925   6.551   4.960
70149W        W38367   8.414  34.937  11.180
70150W        W38368  15.546  16.675  14.028
70151W        W38369  29.548  21.685  11.477
70152W        W38370  41.487  15.586   0.222
70153W        W38371  38.888  34.083  14.734
70154W        W38372  42.766  19.207  12.134
70155W        W38373  22.563  39.284  11.658
70156W        W38374   8.604  44.309  10.488
70157W        W38375  41.239  39.077   0.346
70158W        W38376   1.242   9.676  13.085
70159W        W38377  21.916  40.884   3.368
70160W        W38378  25.653  23.010   1.193
70161W        W38379  22.407  27.092   4.187
70162W        W38380   8.699  36.572   4.611
70163W        W38381  30.900   5.733  13.830
70164W        W38382  17.543  13.554  13.987
70165W        W38383  17.007  40.313  13.422
70166W        W38384   6.929  14.714  12.063
70167W        W38385   2.429  18.685  11.185
70168W        W38386  16.739  37.870  13.848
70169W        W38387  21.352   4.692  11.059
70170W        W38388  20.562   2.816   3.629
70171W        W38389  16.002   8.768   2.698
70172W        W38390   8.601   8.376   2.759
70173W        W38391  42.411  41.948  10.375
70174W        W38392  18.763  10.084  10.734
70175W        W38393   1.293   4.836   2.819
70176W        W38394  35.627  26.355  14.395
70177W        W38395  40.022  39.888  12.664
70178W        W38396  25.439  39.452   0.851
70179W        W38397  33.106  20.590  12.175
70180W        W38398  37.032  11.544   1.399
70181W        W38399  10.239  32.898  14.822
70182W        W38400  40.295  30.639  10.510
70183W        W38401   0.940  22.583   1.368
70184W        W38402   3.339   6.672   2.282
70185W        W38403   6.961  40.022  12.457
70186W        W38404  25.042  44.030  14.896
70187W        W38405   7.263   1.084   4.174
70188W        W38406  38.942  22.629   0.188
70189W        W38407  41.298  20.203   3.215
70190W        W38408   6.320   6.694  14.925
70191W        W38409   0.870  41.790   1.973
70192W        W38410  39.335  20.191  10.578
70193W        W38411  26.020   1.776   3.422
70194W        W38412  18.409   4.242   1.974
70195W        W38413  15.609  21.427  12.476
70196W        W38414   6.437  43.431  13.283
70197W        W38415   2.792  23.994   2.213
70198W        W38416   7.667  20.810  14.321
70199W        W38417  13.135  15.044   2.602
70200W        W38418  20.911  15.825   3.295
70201W        W38419   2.637  21.184   3.386
70202W        W38420  15.911  24.654   0.370
70203W        W38421  12.652  44.452  12.603
70204W        W38422  19.701  26.550   4.648
70205W        W38423   2.851  35.506   4.209
70206W        W38424   3.459   5.696  10.519
70207W        W38425  28.987  24.771  12.988
70208W        W38426  18.023  19.146  13.395
70209W        W38427  28.626  16.155  11.518
70210W        W38428   9.210  42.030   2.790
70211W        W38429  36.991   9.310  11.287
70212W        W38430  28.468  21.540   3.183
70213W        W38431  43.934  44.983  13.400
70214W        W38432  43.746  26.063   3.186
70215W        W38433  12.134  21.589  13.897
70216W        W38434  18.689  41.204  10.189
70217W        W38435  19.209  22.804   2.865
70218W        W38436  41.298  27.980   4.613
70219W        W38437  27.597  30.957  11.212
70220W        W38438   2.199  38.420  12.517
70221W        W38439  25.699  27.157   1.023
70222W        W38440  26.960  24.565   1.280
70223W        W38441  16.001   9.576   0.706
70224W        W38442  15.063  31.630   1.893
70225W        W38443  22.808   0.847   1.479
70226W        W38444   8.678  22.131   3.428
70227W        W38445   7.051  21.535   0.422
70228W        W38446  38.888  31.536   1.285
70229W        W38447  13.682  39.336   1.011
70230W        W38448  15.190  13.390   0.744
70231W        W38449  41.647   8.644   1.255
70232W        W38450  25.612  24.662  13.967
70233W        W38451  21.130  29.572  12.544
70234W        W38452  14.600  41.345   1.388
70235W        W38453   9.244   7.610  14.326
70236W        W38454  17.657  38.568   2.285
70237W        W38455   8.236  40.004   2.826
70238W        W38456  34.451  30.012   1.633
70239W        W38457  33.807   6.984   0.925
70240W        W38458  19.667  17.900   4.330
70241W        W38459  19.971   3.682   3.921
70242W        W38460  17.831  15.875  10.621
70243W        W38461  37.986  39.003  13.502
70244W        W38462   3.489  18.514  10.794
70245W        W38463  15.278  42.909  13.469
70246W        W38464   1.848  32.485  11.554
70247W        W38465  11.270  17.193   4.369
70248W        W38466   3.649  12.835  12.400
70249W        W38467  26.658  32.346   3.797
70250W        W38468  39.302  27.149   4.218
70251W        W38469  16.940   5.965   4.062
70252W        W38470  37.306  41.307   5.061
70253W        W38471  25.628  23.622  11.494
70254W        W38472  15.955  28.178   2.857
70255W        W38473  42.439  36.598  12.102
70256W        W38474  41.920  10.705  10.678
70257W        W38475  10.796  13.718   4.328
70258W        W38476   8.991   8.352   4.899
70259W        W38477  34.768  26.131  13.996
70260W        W38478  39.935  42.725  13.374
70261W        W38479  37.856  12.110   3.641
70262W        W38480  43.060   5.904  13.743
70263W        W38481   8.069  27.865  13.058
70264W        W38482  18.289  20.041  11.217
70265W        W38483  26.004  17.328   1.772
70266W        W38484  36.904  22.447  11.035
70267W        W38485  42.701   1.018   0.950
70268W        W38486  40.395  33.617   1.041
70269W        W38487  36.196  23.536  11.085
70270W        W38488  14.349  11.886   1.742
70271W        W38489  42.225  33.554   0.329
70272W        W38490  39.405  35.821   0.024
70273W        W38491  15.082  36.998  10.712
70274W        W38492  12.842   4.413   4.048
70275W        W38493  20.284  26.841  10.730
70276W        W38494  24.060   3.370  12.957
70277W        W38495  42.945  21.800   4.579
70278W        W38496   0.911   1.715  10.938
70279W        W38497  24.638  19.268  13.067
70280W        W38498  19.593   6.658   0.482
70281W        W38499   4.453  13.656  13.835
70282W        W38500   0.971  28.192   1.737
70283W        W38501  36.836  33.521  10.057
70284W        W38502  20.942  23.135   4.534
70285W        W38503  23.039  20.557  11.382
70286W        W38504  30.878  38.468   1.462
70287W        W38505  15.929   4.284  14.776
70288W        W38506  35.081   7.876   1.311
70289W        W38507  19.188  19.660  10.406
70290W        W38508  43.876  41.453   4.669
70291W        W38509   9.449  18.050   2.736
70292W        W38510   8.673  40.184  14.807
70293W        W38511   8.249   2.247   1.188
70294W        W38512  24.658  22.598   2.682
70295W        W38513  39.945  12.624  10.687
70296W        W38514  15.744  14.398   1.773
70297W        W38515   6.668  14.299   2.797
70298W        W38516  31.423   7.891  12.931
70299W        W38517   9.037  13.763  11.071
70300W        W38518  14.910  31.365   0.717
70301W        W38519  40.120  23.653   0.020
70302W        W38520  17.775  37.397   3.836
70303W        W38521  13.809  34.873   5.264
70304W        W38522  37.034  40.933   2.542
70305W        W38523  27.196  22.151  11.999
70306W        W38524   0.396  20.315   3.356
70307W        W38525  31.204  40.405   4.307
70308W        W38526   4.570   8.227  12.270
70309W        W38527  16.275  16.249  11.714
70310W        W38528  42.005  14.542   0.869
70311W        W38529  37.620  30.401   1.887
70312W        W38530  20.669  15.350  12.993
70313W        W38531  10.088  20.659  14.435
70314W        W38532  27.995  23.229   2.369
70315W        W38533   5.246   3.303   1.965
70316W        W38534  21.530  22.158  11.132
70317W        W38535   9.382  32.959  14.455
70318W        W38536  23.381  41.499   2.735
70319W        W38537   8.347  23.975  14.718
70320W        W38538  27.079  22.214   0.812
70321W        W38539  21.046  26.719  14.543
70322W        W38540  22.649   7.129  11.693
70323W        W38541  33.904  29.939  12.476
70324W        W38542   9.232   2.793   4.855
70325W        W38543  40.727  11.311  11.364
70326W        W38544   6.238  40.273   0.004
70327W        W38545  40.601  30.692   0.346
70328W        W38546   8.353  35.953   3.329
70329W        W38547  11.423   1.841  11.940
70330W        W38548  18.142  15.873  11.632
70331W        W38549   4.899  10.223  12.040
70332W        W38550  19.169  17.502  13.881
70333W        W38551  34.534  24.031  12.933
70334W        W38552   6.952  41.922  14.352
70335W        W38553  38.667  34.236   2.382
70336W        W38554  28.932   1.164  13.950
70337W        W38555  15.248   0.392  12.880
70338W        W38556   0.344   5.944  10.658
70339W        W38557  25.026  38.401   2.416
70340W        W38558  43.994  35.554   3.593
70341W        W38559  11.386   9.725   0.103
70342W        W38560  15.300   1.836   4.620
70343W        W38561  36.591  44.268   4.137
70344W        W38562   4.699   0.874  12.130
70345W        W38563  40.799  13.604  13.564
70346W        W38564   0.344  19.730  13.802
70347W        W38565  41.745  32.912   1.840
70348W        W38566  41.640  29.990   5.133
70349W        W38567  22.488  23.857  14.511
70350W        W38568  26.392  28.043   3.320
70351W        W38569   3.837  34.510  12.595
70352W        W38570  11.346  35.573   0.071
70353W        W38571  14.646   5.110   0.832
70354W        W38572  14.324  34.189   0.962
70355W        W38573  27.882  36.012   2.896
70356W        W38574  38.575  37.367   4.620
70357W        W38575   8.854   3.770  12.074
70358W        W38576   8.903   0.805  10.832
70359W        W38577  43.871  12.135   2.698
70360W        W38578   9.355  44.440  13.103
70361W        W38579  33.283  19.625   3.267
70362W        W38580   9.767  33.614   2.120
70363W        W38581  29.424  43.465   4.287
70364W        W38582   6.449  34.630  14.278
70365W        W38583  12.355  36.352  11.152
70366W        W38584  33.453  32.649   0.943
70367W        W38585  43.759  16.593  11.111
70368W        W38586  12.925   5.928  14.493
70369W        W38587  32.103   3.150   4.354
70370W        W38588  34.693  32.031   4.078
70371W        W38589   2.890  11.188   3.587
70372W        W38590  23.680  35.293  14.983
70373W        W38591  31.443  20.728  13.537
70374W        W38592   7.391  17.486   2.684
70375W        W38593  38.920   8.216  13.222
70376W        W38594  12.808  44.890  13.525
70377W        W38595  29.233   1.090   2.867
70378W        W38596  35.164  40.518   0.486
70379W        W38597  24.579  36.516   1.689
70380W        W38598  42.867  42.836   1.416
70381W        W38599   8.171  12.988  10.649
70382W        W38600  10.124  24.268   4.529
70383W        W38601  30.157  25.721   0.533
70384W        W38602  12.245   0.288  12.325
70385W        W38603  26.990  29.577   2.419
70386W        W38604  28.003   6.861  13.534
70387W        W38605  42.079   9.885  11.109
70388W        W38606  19.609  39.139  14.385
70389W        W38607   2.971  36.724  14.832
70390W        W38608  10.734  18.133  14.347
70391W        W38609  36.468  43.265  12.935
70392W        W38610  44.830  19.545   3.123
70393W        W38611   0.275  20.506  14.985
70394W        W38612  14.390   9.626  13.131
70395W        W38613  17.487  22.132   3.327
70396W        W38614   4.346  24.637  13.185
70397W        W38615  34.937  36.338  12.881
70398W        W38616  27.207  38.801  13.551
70399W        W38617  22.816  25.646   2.159
70400W        W38618  20.046  17.116  14.710
70401W        W38619   5.637  42.308  13.529
70402W        W38620  13.376   0.309   1.729
70403W        W38621  32.621  18.671   0.710
70404W        W38622  42.850  24.014   4.118
70405W        W38623  35.897  26.151   0.480
70406W        W38624   6.750  38.442   4.616
70407W        W38625  36.806   7.483  14.994
70408W        W38626  41.193  21.526   2.185
70409W        W38627  28.007  41.836   4.899
70410W        W38628  35.382  23.963  11.158
70411W        W38629  41.552  32.397  10.784
70412W        W38630  31.863  31.120   2.063
70413W        W38631  39.478  16.562   3.575
70414W        W38632  31.916  31.926   3.134
70415W        W38633  36.893  33.628  11.579
70416W        W38634  12.741  10.308  14.066
70417W        W38635  38.988  22.998   2.110
70418W        W38636  24.738  18.506   4.250
70419W        W38637  24.419  32.186  12.000
70420W        W38638  39.053  32.084   1.773
70421W        W38639  18.596  27.251   3.552
70422W        W38640  26.573  36.791  12.461
70423W        W38641  24.267  39.939  11.324
70424W        W38642  14.765  23.698  12.842
70425W        W38643  34.144  43.942   0.637
70426W        W38644  13.247  21.144   4.138
70427W        W38645  39.982  32.400   1.195
70428W        W38646  11.605   3.678  13.930
70429W        W38647  27.500  32.641   3.699
70430W        W38648  33.466   3.602   4.479
70431W        W38649  23.019  27.105  12.384
70432W        W38650  41.135   2.756  12.960
70433W        W38651  34.517  36.253   2.452
70434W        W38652  35.228   8.249   4.249
70435W        W38653  37.053  18.880   0.720
70436W        W38654  10.511   3.158   3.367
70437W        W38655  33.917  22.966  12.411
70438W        W38656  17.338  16.454   4.212
70439W        W38657  36.056  17.956   4.576
70440W        W38658  20.656  15.094   2.469
70441W        W38659  39.271  35.522  11.870
70442W        W38660  30.916  12.112  13.889
70443W        W38661   4.866  13.104   3.265
70444W        W38662  27.191   0.514   4.738
70445W        W38663   1.889  20.039  12.971
70446W        W38664  39.902  17.269   3.013
70447W        W38665   0.282  22.455   4.135
70448W        W38666   9.582  20.507  12.525
70449W        W38667  32.348  39.681   0.051
70450W        W38668  18.809  44.029   1.765
70451W        W38669  13.556  16.625  13.989
70452W        W38670  39.442  10.724  11.408
70453W        W38671  14.335  14.188   0.839
70454W        W38672  20.174  25.417  12.339
70455W        W38673  13.623   3.502  12.174
70456W        W38674  41.885  13.972  11.274
70457W        W38675  14.046   8.252  13.459
70458W        W38676  14.857  13.295   3.630
70459W        W38677   8.271  44.883  10.652
70460W        W38678  25.413   5.723  12.599
70461W        W38679  26.494  29.582   1.209
70462W        W38680  41.756   7.717  14.940
70463W        W38681  37.804  16.542  12.986
70464W        W38682  24.946  30.953  13.113
70465W        W38683  32.991   0.542  12.454
70466W        W38684   0.228  42.966  14.508
70467W        W38685  29.668  15.418   3.281
70468W        W38686   2.265  17.370   2.452
70469W        W38687  23.021  17.829   0.545
70470W        W38688   7.644   2.242   0.304
70471W        W38689   1.948  31.072  12.950
70472W        W38690  10.809  12.634  12.178
70473W        W38691  21.913  39.658  13.912
70474W        W38692   9.635   2.020  13.317
70475W        W38693  27.548  26.959   0.414
70476W        W38694   9.784   3.930  13.845
70477W        W38695  21.718  36.428  11.156
70478W        W38696  33.077  24.019  12.603
70479W        W38697   4.393  11.633   4.346
70480W        W38698  37.056   5.007  10.681
70481W        W38699  35.789  35.617   4.405
70482W        W38700  29.888  10.980   0.400
70483W        W38701  21.130   9.034   0.008
70484W        W38702  11.105  37.577  13.805
70485W        W38703  36.477   1.752   2.260
70486W        W38704  31.916  29.642   4.326
70487W        W38705  40.451  43.346  14.516
70488W        W38706   7.610  38.733  13.962
70489W        W38707  38.720  29.081   3.666
70490W        W38708   8.782  27.412  10.407
70491W        W38709  34.357   3.708  14.945
70492W        W38710  18.220  10.878  12.946
70493W        W38711  43.860  40.070   4.540
70494W        W38712  29.044  25.070   1.601
70495W        W38713  35.361  14.337   1.797
70496W        W38714  25.986  11.328   2.331
70497W        W38715  39.907  43.756   1.431
70498W        W38716  32.517   0.738   3.873
70499W        W38717  24.612  32.701   4.628
70500W        W38718  22.726  32.122   3.683
70501W        W38719   3.894  40.778  10.408
70502W        W38720  22.956   7.413  13.880
70503W        W38721   2.245  19.905   9.814
70504W        W38722  12.372  39.906   3.867
70505W        W38723  15.837  37.768  11.658
70506W        W38724   7.418  30.402  10.528
70507W        W38725  23.641  25.864  14.493
70508W        W38726  39.321  32.543   0.005
70509W        W38727  43.135  32.805   2.924
70510W        W38728  30.674   4.514  14.981
70511W        W38729  13.890  36.359   1.149
70512W        W38730  31.513  22.116   0.961
70513W        W38731  42.552  19.865   1.442
70514W        W38732  22.031  44.944  13.008
70515W        W38733  42.577  19.614   0.228
70516W        W38734  40.283   8.146  14.422
70517W        W38735  36.161  25.630  11.537
70518W        W38736   0.361  24.959  13.194
70519W        W38737   7.835  29.024  13.355
70520W        W38738   7.976  19.167   0.510
70521W        W38739  26.616  10.392   3.223
70522W        W38740  25.140  27.453  11.134
70523W        W38741  21.414  38.750  10.107
70524W        W38742  13.879  30.560   3.672
70525W        W38743  15.258  11.035  13.130
70526W        W38744  15.272  20.734  11.563
70527W        W38745  11.726   6.125   3.685
70528W        W38746   8.920  10.918   0.089
70529W        W38747   7.835  40.758  10.707
70530W        W38748  23.122  30.566  11.225
70531W        W38749  39.362  33.087  14.249
70532W        W38750   8.789  30.933  11.462
70533W        W38751  39.415  20.467   0.439
70534W        W38752   8.809  21.806   4.534
70535W        W38753  36.013  43.258  11.284
70536W        W38754  38.838  21.281   2.105
70537W        W38755  18.198  24.458   4.570
70538W        W38756  19.950  25.685  14.008
70539W        W38757  19.419  18.691  10.706
70540W        W38758  24.539  22.956  13.576
70541W        W38759  26.027  11.207  10.753
70542W        W38760  11.264   9.066   2.598
70543W        W38761  16.689  36.449   3.664
70544W        W38762   1.369  39.746  13.005
70545W        W38763  30.270   9.349  12.187
70546W        W38764  21.516   0.985  11.253
70547W        W38765   0.888   2.802   3.969
70548W        W38766   4.301   0.483  12.575
70549W        W38767   9.236  38.932   2.123
70550W        W38768  16.977   2.249  13.345
70551W        W38769  11.954  33.881  12.890
70552W        W38770  22.929  38.352   3.753
70553W        W38771  12.578   4.667   1.411
70554W        W38772  14.051  43.921   1.418
70555W        W38773  38.607  31.485   0.807
70556W        W38774  30.547   4.872  13.956
70557W        W38775  25.396  25.668  10.636
70558W        W38776  14.927  29.023  13.783
70559W        W38777  19.666  13.291  13.160
70560W        W38778  27.510   5.649  12.612
70561W        W38779  32.482  32.455  11.572
70562W        W38780  28.631  27.545   2.204
70563W        W38781  39.186   4.922   2.617
70564W        W38782  22.359  27.921  12.427
70565W        W38783  12.870  35.625  14.986
70566W        W38784  17.533  10.597  13.486
70567W        W38785  10.348  15.739  11.130
70568W        W38786   9.607   4.481   4.078
70569W        W38787  17.145   0.394  12.421
70570W        W38788  10.650  41.920   0.454
70571W        W38789  38.364  30.051  12.488
70572W        W38790  13.263  44.637   2.277
70573W        W38791  25.947  15.002  13.508
70574W        W38792  44.782  20.721  14.264
70575W        W38793  22.658  14.102   2.910
70576W        W38794  40.856  33.969   3.114
70577W        W38795  22.717   3.908   1.830
70578W        W38796  44.956  11.610  14.339
70579W        W38797  22.327  28.962  14.862
70580W        W38798  33.022  18.171   3.774
70581W        W38799  30.674   7.758   0.438
70582W        W38800  16.158   7.202  14.971
70583W        W38801  14.665   9.245  11.156
70584W        W38802  40.449  13.369   0.265
70585W        W38803  44.413  18.348   0.737
70586W        W38804   5.756  29.114  14.259
70587W        W38805  43.612  17.744  11.937
70588W        W38806  11.828  24.127  12.974
70589W        W38807  22.671  33.966  14.964
70590W        W38808   0.533  38.306   3.801
70591W        W38809   7.991  10.155   4.215
70592W        W38810  19.759  41.191   3.633
70593W        W38811  16.740   6.907   3.423
70594W        W38812  10.403  35.815  11.659
70595W        W38813   3.389  34.987   2.752
70596W        W38814   1.969   1.948  14.798
70597W        W38815  28.152  41.443   2.349
70598W        W38816  11.162   0.900  12.483
70599W        W38817   2.545  34.559   2.618
70600W        W38818  17.904  18.024  11.566
70601W        W38819  38.760  33.654   3.823
70602W        W38820  22.908  19.123  10.457
70603W        W38821   3.317  14.555   0.422
70604W        W38822  32.211   5.939   2.879
70605W        W38823  26.679  42.074  14.938
70606W        W38824   1.573  34.503  11.024
70607W        W38825   8.665  11.786  12.491
70608W        W38826   4.801  17.041  13.888
70609W        W38827  36.837  26.190   1.346
70610W        W38828  14.115  36.856  12.605
70611W        W38829  42.790  41.885   1.426
70612W        W38830  16.056  35.422   0.072
70613W        W38831  36.064  14.369  14.024
70614W        W38832  18.591  41.544  14.903
70615W        W38833  35.120  44.898   0.010
70616W        W38834  16.009   2.604   3.127
70617W        W38835  41.430   2.685  14.672
70618W        W38836  39.910  16.765  14.225
70619W        W38837  41.217  19.652   2.629
70620W        W38838  36.020  40.293   3.186
70621W        W38839  26.396  19.286   0.297
70622W        W38840   1.069  18.631  10.955
70623W        W38841  22.730   0.063  13.972
70624W        W38842   2.421  43.239  11.261
70625W        W38843   8.773  36.848  12.516
70626W        W38844  40.311  26.615   0.843
70627W        W38845  34.974  33.715   2.857
70628W        W38846   4.457   8.517   4.140
70629W        W38847  22.306  26.074   4.173
70630W        W38848  43.004   2.806  13.127
70631W        W38849  37.811   4.169  11.646
70632W        W38850  13.403   7.130  14.847
70633W        W38851  40.103  36.830  13.205
70634W        W38852  16.777  39.581   2.591
70635W        W38853  41.126  44.044  14.469
70636W        W38854  43.572  25.052   4.611
70637W        W38855  30.457   7.835   4.148
70638W        W38856  26.026  44.805   4.575
70639W        W38857   5.543   4.425   3.310
70640W        W38858  34.936  27.363   1.476
70641W        W38859  32.429  42.906   1.706
70642W        W38860  15.702  18.523   1.835
70643W        W38861  44.297  17.522   4.798
70644W        W38862   8.775   6.323  11.508
70645W        W38863  30.055  42.321  11.505
70646W        W38864  25.025  15.472  14.839
70647W        W38865  17.056  40.907  10.903
70648W        W38866   8.990  11.574   2.746
70649W        W38867  31.666  44.407   4.632
70650W        W38868  14.833  25.196   0.037
70651W        W38869  32.999   2.881  11.966
70652W        W38870  43.735   3.911   0.700
70653W        W38871  44.445  41.317  10.711
70654W        W38872   2.559  25.695  12.956
70655W        W38873  41.508  27.955   0.860
70656W        W38874  25.685  43.819  13.771
70657W        W38875  38.645  25.043  11.585
70658W        W38876  32.194  18.990   0.696
70659W        W38877   6.666  37.287   3.102
70660W        W38878  33.067  15.240  14.049
70661W        W38879  14.256  29.965   3.199
70662W        W38880  42.968  33.018  13.653
70663W        W38881  15.670  34.514   0.495
70664W        W38882  19.546  40.669  11.983
70665W        W38883  30.288   2.510  12.484
70666W        W38884  19.549   2.255   4.131
70667W        W38885  10.899  11.242  11.038
70668W        W38886   8.790  32.560  12.850
70669W        W38887   7.651  11.764  13.325
70670W        W38888  39.480  23.126   3.946
70671W        W38889   3.275  16.829   2.942
70672W        W38890   1.920   1.588  14.428
70673W        W38891  16.126   2.884   1.250
70674W        W38892  19.887   8.982   4.134
70675W        W38893  21.707   0.424   4.507
70676W        W38894  30.588  32.425   4.682
70677W        W38895  15.769  37.972   4.299
70678W        W38896  18.793  21.114   0.784
70679W        W38897  13.119  21.134  14.247
70680W        W38898  15.348  24.362   2.823
70681W        W38899   0.170  36.969  12.983
70682W        W38900  35.449  20.316  12.088
70683W        W38901   9.354  19.970  14.735
70684W        W38902  33.925  38.014   0.956
70685W        W38903  23.988  14.883  11.740
70686W        W38904  13.079  34.381   1.181
70687W        W38905  25.099   2.625   3.548
70688W        W38906  44.507  28.867  11.174
70689W        W38907  19.186   8.336   0.494
70690W        W38908   3.729  40.442  14.578
70691W        W38909  15.052  23.863  13.248
70692W        W38910   5.859  18.960   2.342
70693W        W38911  27.515  11.778   4.262
70694W        W38912  18.707  30.147   0.776
70695W        W38913  32.734  27.015  12.397
70696W        W38914   9.607  10.737   2.599
70697W        W38915   4.808   8.111   2.369
70698W        W38916  27.571   9.016   3.660
70699W        W38917  20.519  25.287   1.896
70700W        W38918  22.357  32.757  13.488
70701W        W38919  23.650   2.526   2.291
70702W        W38920   6.366   7.111  13.004
70703W        W38921  33.970  40.888  14.109
70704W        W38922  42.535  41.591  13.946
70705W        W38923  10.620  28.728   3.223
70706W        W38924  19.958   6.888  12.781
70707W        W38925  41.137  38.542  10.734
70708W        W38926  35.067  28.027   2.674
70709W        W38927  23.628   7.143   1.915
70710W        W38928  13.759   3.375   4.340
70711W        W38929  36.084  41.653  13.176
70712W        W38930  29.613  31.934  10.584
70713W        W38931  43.887   0.855  14.037
70714W        W38932  30.161  12.464   0.412
70715W        W38933   2.955  44.369  14.319
70716W        W38934   3.193  20.130   5.025
70717W        W38935  33.423  14.224  13.504
70718W        W38936  28.893   7.778  13.990
70719W        W38937  25.438  42.812  11.163
70720W        W38938  31.477  12.053  13.377
70721W        W38939  10.127  32.122   0.895
70722W        W38940  11.189  17.501   1.226
70723W        W38941  37.605   0.204  13.922
70724W        W38942  24.950  25.198  14.997
70725W        W38943  26.472  21.618   4.458
70726W        W38944  27.227  23.737   9.770
70727W        W38945   0.048  33.817   3.541
70728W        W38946  16.982  38.346   4.948
70729W        W38947   1.746   8.406  11.739
70730W        W38948  22.647   4.655  14.041
70731W        W38949  13.650  14.252   3.857
70732W        W38950  43.109   4.379  10.688
70733W        W38951  41.448  30.011  10.566
70734W        W38952  20.909  40.368  11.542
70735W        W38953  43.340   2.284  13.828
70736W        W38954  31.417   1.027  11.232
70737W        W38955   9.190  18.854   3.829
70738W        W38956   8.346  22.420  14.545
70739W        W38957  38.479  18.234   2.246
70740W        W38958  18.072  17.264  11.085
70741W        W38959  36.658  24.665  14.378
70742W        W38960  16.124  32.841   0.040
70743W        W38961  30.848   9.383   4.397
70744W        W38962  41.856  17.575   4.321
70745W        W38963  20.817   0.463  11.997
70746W        W38964  44.036  11.857   4.788
70747W        W38965  10.229   5.395   3.751
70748W        W38966  43.040  29.126  10.652
70749W        W38967  44.885  23.602  14.110
70750W        W38968  36.109  30.358   2.841
70751W        W38969   3.408  20.253   0.934
70752W        W38970  40.167  43.021   4.552
70753W        W38971  19.007  21.211  10.773
70754W        W38972  23.422  29.216   1.711
70755W        W38973   7.252   7.341   2.590
70756W        W38974   2.396  33.672   0.363
70757W        W38975  41.690  35.488  11.173
70758W        W38976  38.955  16.758  10.386
70759W        W38977  14.951  43.687   3.506
70760W        W38978  37.443  30.886   5.059
70761W        W38979  33.639  29.624   1.379
70762W        W38980  25.198  16.130  11.112
70763W        W38981  25.486  40.582   5.022
70764W        W38982   7.442  44.350  11.596
70765W        W38983  13.015  11.619  11.552
70766W        W38984  22.684  12.482  14.205
70767W        W38985   9.202  26.176   4.354
70768W        W38986  43.383  24.021   4.952
70769W        W38987  14.173  17.890  11.123
70770W        W38988  31.086  13.595  13.946
70771W        W38989  31.687   5.719   0.495
70772W        W38990  42.519  26.233   2.665
70773W        W38991  30.596   7.141  10.680
70774W        W38992  41.262  31.640  11.469
70775W        W38993  34.832  25.512   3.724
70776W        W38994  12.892  31.618   0.515
70777W        W38995   7.201  15.123  11.099
70778W        W38996  39.644  40.010  14.260
70779W        W38997  37.070  34.335   3.850
70780W        W38998  12.474   3.010   4.141
70781W        W38999  24.473  19.991  14.668
70782W        W39000  32.820  29.659  12.328
70783W        W39001   9.787  10.809  11.507
70784W        W39002  25.114  34.328   1.281
70785W        W39003  38.522  35.263  11.586
70786W        W39004  23.574  35.190  12.543
70787W        W39005  17.609  29.485  12.881
70788W        W39006  24.396  26.383   4.993
70789W        W39007  27.803   0.742   3.336
70790W        W39008  44.431  36.825   1.459
70791W        W39009  31.128  23.801   2.322
70792W        W39010  38.425  34.498   0.402
70793W        W39011  27.757  44.392  14.380
70794W        W39012   4.791  22.486   1.371
70795W        W39013   0.282   5.762  14.791
70796W        W39014   4.549   1.023  10.987
70797W        W39015   7.251  25.277   2.215
70798W        W39016  14.260  31.887   3.828
70799W        W39017  16.059  31.457   2.723
70800W        W39018  27.691  21.096  11.430
70801W        W39019   5.686  34.003  14.748
70802W        W39020   1.819  44.039  10.514
70803W        W39021   6.006  38.466  12.770
70804W        W39022  44.341   1.201   0.064
70805W        W39023  21.712  12.781  12.292
70806W        W39024  42.898  44.704  11.658
70807W        W39025  14.089   3.929  14.997
70808W        W39026   9.680  27.212  14.712
70809W        W39027  26.954  23.995   3.625
70810W        W39028  33.515  40.285  13.718
70811W        W39029   3.489  37.368  10.550
70812W        W39030   9.229  15.511   3.262
70813W        W39031   1.711  11.807  13.966
70814W        W39032  27.510   2.347  14.779
70815W        W39033  34.326  40.816   4.096
70816W        W39034  37.864  40.474  12.949
70817W        W39035  12.617   2.103  14.204
70818W        W39036  32.631   6.741   0.014
70819W        W39037  12.622  14.743  14.308
70820W        W39038   0.984  29.469   4.540
70821W        W39039  42.981  28.375   2.363
70822W        W39040  16.041  41.451   1.200
70823W        W39041  35.411  30.023   5.163
70824W        W39042  38.553  35.893  12.123
70825W        W39043  36.974  18.815  13.968
70826W        W39044   4.055  30.094  12.206
70827W        W39045  20.896   3.395  14.911
70828W        W39046  12.646  44.819   0.887
70829W        W39047  22.230  25.728  11.208
70830W        W39048  29.418   9.604   3.297
70831W        W39049  18.322  40.497  14.810
70832W        W39050  18.832  30.243   4.298
70833W        W39051  33.752  29.586  10.161
70834W        W39052  22.541  10.611  10.050
70835W        W39053   9.543  27.121   0.642
70836W        W39054  22.293   3.752  12.035
70837W        W39055  14.754  30.457   2.799
70838W        W39056  37.064  29.701  11.661
70839W        W39057  10.754  25.195   1.858
70840W        W39058   5.415  16.606   4.517
70841W        W39059   6.139  19.246   4.420
70842W        W39060  36.575   1.421  11.143
70843W        W39061  11.178  44.881   1.701
70844W        W39062  11.105  18.204   2.184
70845W        W39063   4.882  24.127   4.083
70846W        W39064  13.375   6.301   4.333
70847W        W39065   8.923  26.603   0.025
70848W        W39066  26.302  18.471   1.225
70849W        W39067  39.782  26.618   4.123
70850W        W39068  23.107  24.126   3.189
70851W        W39069   5.683  44.501  10.635
70852W        W39070  29.111  23.626   3.649
70853W        W39071   0.096   9.100   0.307
70854W        W39072   7.817  44.303  11.213
70855W        W39073  30.583  12.587   1.827
70856W        W39074   9.483  36.300  11.539
70857W        W39075  30.161  41.876   5.240
70858W        W39076  18.682   5.993   3.259
70859W        W39077  23.561  39.617   2.173
70860W        W39078   6.013  33.186   1.775
70861W        W39079  32.105  29.602   0.276
70862W        W39080   7.307  27.513   3.104
70863W        W39081  30.378  44.443   2.233
70864W        W39082  12.058  30.926   0.235
70865W        W39083  40.636  16.835  13.441
70866W        W39084  23.565  24.296   5.026
70867W        W39085  31.110  26.483   4.574
70868W        W39086   6.652  44.026  14.296
70869W        W39087  19.839  31.868   2.291
70870W        W39088  21.521  23.578   3.251
70871W        W39089   0.046   6.981  13.962
70872W        W39090   2.178  26.574   2.307
70873W        W39091   6.700  23.532   2.241
70874W        W39092  14.656  35.115   1.832
70875W        W39093  34.878  24.895   1.497
70876W        W39094  37.866  30.370   4.658
70877W        W39095  42.511  23.171   0.837
70878W        W39096  41.488  13.127  12.413
70879W        W39097  24.902  21.720  13.520
70880W        W39098   2.327  27.433   2.750
70881W        W39099   2.431   6.312   3.204
70882W        W39100  39.044  16.633  11.884
70883W        W39101  36.531   7.105   0.240
70884W        W39102  20.484   2.949   1.568
70885W        W39103  22.595   6.755   0.448
70886W        W39104  44.288   6.829   1.335
70887W        W39105  42.233  39.342  13.384
70888W        W39106  26.925  35.028  12.194
70889W        W39107  44.419  16.833   3.117
70890W        W39108   8.794  10.094   2.226
70891W        W39109  37.932  38.520  14.797
70892W        W39110  33.212  26.622   1.966
70893W        W39111   7.179  14.338  11.616
70894W        W39112  20.285  12.110  11.163
70895W        W39113  14.738  43.573  10.259
70896W        W39114  37.585  32.087  14.998
70897W        W39115   2.185  29.975   1.377
70898W        W39116  41.768  15.750  11.122
70899W        W39117  37.629  22.273  11.618
70900W        W39118  31.640  20.620  10.963
70901W        W39119  18.380  29.649   3.619
70902W        W39120  37.994   6.192  13.381
70903W        W39121   0.360  10.792   1.253
70904W        W39122   0.323  34.050  12.038
70905W        W39123   5.930  14.746   0.765
70906W        W39124  38.450  31.383   1.847
70907W        W39125  11.838  35.544  14.907
70908W        W39126  44.226  24.630   1.367
70909W        W39127  17.530  29.672   1.412
70910W        W39128   6.088  14.335  11.733
70911W        W39129   3.837  40.757  13.404
70912W        W39130   5.444   0.587   1.988
70913W        W39131  34.109  23.126   3.670
70914W        W39132  38.881   1.307   2.318
70915W        W39133   0.968   6.417   4.653
70916W        W39134  29.390  30.045   2.869
70917W        W39135  14.200  14.294  13.961
70918W        W39136  39.258  12.823  12.581
70919W        W39137   1.945  23.597   3.634
70920W        W39138  21.730  44.517   2.335
70921W        W39139  26.181  16.187   2.427
70922W        W39140  21.937  25.599   3.867
70923W        W39141  16.123  18.210  13.110
70924W        W39142  16.055  39.552  13.542
70925W        W39143  12.296  42.258  13.586
70926W        W39144  10.122   0.764  14.475
70927W        W39145  33.431  13.516  11.458
70928W        W39146  42.337  22.555   3.733
70929W        W39147  23.702  17.962  11.987
70930W        W39148  19.510   7.649  11.643
70931W        W39149  10.593  22.702  13.169
70932W        W39150  19.911  13.537   3.950
70933W        W39151  10.237  43.654  13.079
70934W        W39152   3.325  22.559  13.021
70935W        W39153   7.609  40.639   2.617
70936W        W39154  31.401   9.803  12.969
70937W        W39155  18.129  26.553   4.174
70938W        W39156   3.849  38.297   3.791
70939W        W39157  11.340  15.100   3.110
70940W        W39158  44.950  20.527   3.197
70941W        W39159   6.194  23.876   3.122
70942W        W39160  34.107  27.727  14.838
70943W        W39161  28.420  35.319  14.773
70944W        W39162   8.776   5.290   1.206
70945W        W39163  11.611  26.586  11.862
70946W        W39164  20.265  13.973  11.032
70947W        W39165  41.717  32.219  10.143
70948W        W39166  13.203  43.203   4.908
70949W        W39167   3.299   7.721   1.516
70950W        W39168  25.523   2.818   0.359
70951W        W39169  28.370  17.610  12.368
70952W        W39170  30.858  42.746  13.522
70953W        W39171   4.607  36.667  10.072
70954W        W39172  17.841  14.732  14.761
70955W        W39173  28.434   3.301   4.487
70956W        W39174   8.348  36.948   4.566
70957W        W39175   0.951   5.931   0.378
70958W        W39176  38.980  15.822   1.401
70959W        W39177  15.855  21.322   2.223
70960W        W39178  28.165   1.348  14.316
70961W        W39179  21.665  31.316  13.869
70962W        W39180  37.701  19.068   1.429
70963W        W39181   5.160  40.837   2.696
70964W        W39182  10.959  31.065   0.969
70965W        W39183   6.626  37.764   2.801
70966W        W39184   5.332  29.642  12.888
70967W        W39185  10.946  32.026   2.307
70968W        W39186  36.356   1.007  11.988
70969W        W39187  13.264  33.094  11.245
70970W        W39188  12.709  37.193   3.841
70971W        W39189  42.716  10.962  11.566
70972W        W39190  40.479  24.954   2.821
70973W        W39191  22.905  18.052   1.935
70974W        W39192  22.465   9.082   4.299
70975W        W39193  24.225  32.841   4.279
70976W        W39194  23.221  29.043  12.629
70977W        W39195  17.637   4.235   3.161
70978W        W39196  20.456  25.254  10.336
70979W        W39197  37.553  17.069   2.252
70980W        W39198  15.766  37.271   1.831
70981W        W39199  16.503  31.698   2.735
70982W        W39200  11.173  26.733  14.400
70983W        W39201   2.574   8.975  11.219
70984W        W39202   6.381   5.783   3.729
70985W        W39203  39.688  14.984   2.209
70986W        W39204   4.843  42.747  14.906
70987W        W39205  35.866  44.867   3.732
70988W        W39206   9.398  40.363  10.205
70989W        W39207  36.946   3.793   2.822
70990W        W39208  37.448  19.466   0.833
70991W        W39209  24.669  22.906  12.059
70992W        W39210  27.147  24.727  13.992
70993W        W39211   3.411  13.730   4.071
70994W        W39212  22.619  19.646   4.572
70995W        W39213  28.552   1.173  11.523
70996W        W39214  22.144  11.409  14.801
70997W        W39215  24.944   6.711  14.734
70998W        W39216  14.598  23.558   0.773
70999W        W39217  36.495  10.984  12.401
71000W        W39218  28.700   7.919  14.484
71001W        W39219  38.638  22.700  14.291
71002W        W39220  42.428  13.823   1.934
71003W        W39221   3.704  44.472   5.047
71004W        W39222  21.258  33.850  10.595
71005W        W39223  18.758  27.092  14.817
71006W        W39224  17.210  17.241  14.005
71007W        W39225  14.011  10.657   0.003
71008W        W39226  11.395  40.400  11.065
71009W        W39227  20.958   5.532  12.768
71010W        W39228   0.236  29.939  11.125
71011W        W39229  17.085  28.787   4.946
71012W        W39230  10.636  27.653  14.411
71013W        W39231   9.566  10.556  11.100
71014W        W39232  17.195  19.680  13.061
71015W        W39233   7.367  11.792   0.741
71016W        W39234  40.406  13.324   3.195
71017W        W39235  37.996  15.115   3.123
71018W        W39236   2.159  10.869   0.005
71019W        W39237   6.834  18.511   2.473
71020W        W39238  31.103  33.525   2.754
71021W        W39239  20.836  23.014  14.741
71022W        W39240  21.568  30.627  13.452
71023W        W39241  21.493   7.149  14.807
71024W        W39242  20.245  33.440  14.900
71025W        W39243  38.376  38.827   2.902
71026W        W39244  39.499  35.054  10.753
71027W        W39245   6.302  35.330   4.804
71028W        W39246  11.347   1.558   2.440
71029W        W39247  19.580   1.933  14.878
71030W        W39248  38.458  35.454  12.442
71031W        W39249  11.079  36.953  12.457
71032W        W39250  11.420  39.284  14.885
71033W        W39251  31.631  30.221   3.451
71034W        W39252  16.194   4.721  14.903
71035W        W39253  19.218  20.574  10.460
71036W        W39254  10.056  30.971   3.379
71037W        W39255  30.691  38.372  12.193
71038W        W39256  29.397  20.516  12.151
71039W        W39257  13.659  44.144   2.838
71040W        W39258  27.469  11.988   0.990
71041W        W39259  35.434  10.149   0.413
71042W        W39260  33.043  18.052  11.949
71043W        W39261  30.409  30.646   3.820
71044W        W39262  41.988  37.870   0.267
71045W        W39263  21.223  12.809  10.641
71046W        W39264   4.803  15.746   1.656
71047W        W39265  39.465  17.920   2.283
71048W        W39266  40.362  24.160  11.179
71049W        W39267  27.524  42.519  11.535
71050W        W39268  44.421   3.512  14.457
71051W        W39269  40.900   3.232   0.392
71052W        W39270  41.089  26.179  13.238
71053W        W39271  29.951  31.408  11.465
71054W        W39272  34.654  19.714  14.600
71055W        W39273   8.209  28.404  11.100
71056W        W39274  20.055  11.163  11.643
71057W        W39275   2.505  34.004   1.911
71058W        W39276  36.193   6.363   1.993
71059W        W39277  29.294   5.087   1.781
71060W        W39278  36.230  21.667  13.194
71061W        W39279  36.463  16.775  14.437
71062W        W39280  20.047  33.139  12.558
71063W        W39281  38.474  40.584   0.394
71064W        W39282   8.512  34.124  11.699
71065W        W39283   7.280  16.072  11.226
71066W        W39284   3.134   0.026   3.165
71067W        W39285  29.897  43.607   4.122
71068W        W39286   2.658  32.510   2.829
71069W        W39287  33.580   6.660  12.966
71070W        W39288  16.761  44.492   2.217
71071W        W39289  22.556  28.915   1.117
71072W        W39290  16.776  18.898  10.498
71073W        W39291  24.797  26.367  11.031
71074W        W39292  31.490   4.934   2.827
71075W        W39293   4.718  38.838  13.271
71076W        W39294  36.970   6.143   4.491
71077W        W39295  11.013  36.631  11.681
71078W        W39296   8.702  22.742   4.533
71079W        W39297  20.766  14.279   5.490
71080W        W39298  29.427  13.618  12.352
71081W        W39299  15.414  21.686   1.126
71082W        W39300   1.598  18.669  10.782
71083W        W39301  43.723  41.479   3.256
71084W        W39302  21.712   8.859   4.997
71085W        W39303   2.400  30.875  13.121
71086W        W39304  14.814  33.935   5.026
71087W        W39305  15.741  31.007  12.115
71088W        W39306   1.363  41.336   3.343
71089W        W39307  23.212  25.113   1.455
71090W        W39308  43.402  13.648  10.307
71091W        W39309   4.524   2.501   0.766
71092W        W39310  37.307  29.052   3.574
71093W        W39311  11.886   8.174   3.583
71094W        W39312  32.426  26.942  11.983
71095W        W39313  42.512   4.716  10.254
71096W        W39314   1.390  34.437  10.560
71097W        W39315  29.845  43.905  12.938
71098W        W39316   8.176  24.975  10.655
71099W        W39317   0.393   4.318   3.526
71100W        W39318  20.168  19.670   1.174
71101W        W39319   3.822  33.600   0.372
71102W        W39320  30.736  44.330  11.318
71103W        W39321  13.975  26.953   1.371
71104W        W39322  24.774   0.967   3.331
71105W        W39323  16.032  24.115  11.918
71106W        W39324  43.779  13.256   1.660
71107W        W39325  11.796   1.714   0.728
71108W        W39326  36.429  21.158  12.042
71109W        W39327  11.185   5.298   4.755
71110W        W39328  25.201  34.241  14.949
71111W        W39329   8.502   9.671  14.533
71112W        W39330  28.563  40.461  14.321
71113W        W39331  19.488  40.379  10.995
71114W        W39332  16.133  18.850   3.308
71115W        W39333  11.729  24.554  13.321
71116W        W39334   2.825  14.305  11.752
71117W        W39335   5.420   5.965  12.092
71118W        W39336  41.003  25.284   3.413
71119W        W39337   3.865  10.579   2.696
71120W        W39338  28.484  41.226  14.835
71121W        W39339   1.262   9.768   3.601
71122W        W39340   3.103  19.991  11.160
71123W        W39341  21.485  21.230  10.569
71124W        W39342  20.639  33.540  13.479
71125W        W39343  29.357  10.893  14.487
71126W        W39344   2.651   6.249  13.532
71127W        W39345  36.151  33.073  12.871
71128W        W39346  20.228  37.308   2.293
71129W        W39347   4.084  24.055   3.918
71130W        W39348  41.812  37.794   3.588
71131W        W39349   3.190  28.171   0.941
71132W        W39350  43.710  23.776   2.874
71133W        W39351   4.295   0.815   4.573
71134W        W39352  23.575   6.967   4.644
71135W        W39353   1.960  23.626  11.163
71136W        W39354  26.196   6.266   0.853
71137W        W39355  23.167  32.062  14.930
71138W        W39356   8.645  24.136  10.437
71139W        W39357  39.330  41.807   3.217
71140W        W39358   3.424  26.131   2.056
71141W        W39359  25.145  30.725   1.308
71142W        W39360  44.000  13.162   3.669
71143W        W39361  21.807  44.456  13.066
71144W        W39362  32.265  23.729   1.094
71145W        W39363  43.516  24.120   1.161
71146W        W39364  34.661  11.207   2.727
71147W        W39365   5.422  12.209  14.209
71148W        W39366  37.387  33.455   3.273
71149W        W39367   4.854  27.983   4.114
71150W        W39368  22.524   5.298  10.667
71151W        W39369   0.756  28.716   0.871
71152W        W39370  41.280  12.147   3.568
71153W        W39371  44.861  41.089  11.559
71154W        W39372  18.683  37.406   3.192
71155W        W39373  33.049  12.348  13.837
71156W        W39374  31.518  11.305  14.726
71157W        W39375  19.775  24.152   1.249
71158W        W39376  17.727  39.330   2.738
71159W        W39377   4.995  18.787   0.028
71160W        W39378   0.032   6.435   2.776
71161W        W39379   1.811   2.741   4.768
71162W        W39380  40.535  34.173  11.473
71163W        W39381  41.820   3.841  11.463
71164W        W39382   7.839   3.934   2.860
71165W        W39383  32.525  23.980  13.054
71166W        W39384  10.324   8.648  12.608
71167W        W39385  13.057   2.527   0.810
71168W        W39386  22.674  41.145   2.226
71169W        W39387  34.357  37.019   0.007
71170W        W39388  27.655  42.484   4.182
71171W        W39389  19.614  31.889   4.937
71172W        W39390  42.500  18.480   2.628
71173W        W39391   0.473  11.562   4.689
71174W        W39392  19.457  16.774  10.184
71175W        W39393   8.237   8.167   3.751
71176W        W39394  15.675  18.630  14.830
71177W        W39395  35.621  12.932  14.816
71178W        W39396  16.712   2.013  10.979
71179W        W39397  18.150  31.124  14.458
71180W        W39398  37.410   7.155   0.930
71181W        W39399   2.010  10.128   3.314
71182W        W39400  15.352   4.941  13.909
71183W        W39401  34.468   7.368   1.844
71184W        W39402   9.849   3.251   1.360
71185W        W39403  32.546  37.061   2.729
71186W        W39404  29.514  20.763  14.379
71187W        W39405  13.216  24.098   3.550
71188W        W39406   1.706  14.097  13.327
71189W        W39407  41.421  26.053   2.229
71190W        W39408  33.595  17.800  14.475
71191W        W39409  39.479  40.846  11.808
71192W        W39410  32.236  42.988  11.500
71193W        W39411  28.887  36.876   1.941
71194W        W39412   4.274   7.455  14.390
71195W        W39413  42.447  32.936  11.565
71196W        W39414  34.308  38.802   5.070
71197W        W39415  32.599   3.311  12.454
71198W        W39416   0.313  22.844   3.057
71199W        W39417  16.279  17.220   0.194
71200W        W39418   1.580  39.761   1.246
71201W        W39419  17.728  35.234   2.314
71202W        W39420   7.392  22.987   4.147
71203W        W39421  14.115  29.146   4.237
71204W        W39422  18.609  40.325   0.384
71205W        W39423  22.318  44.318  12.188
71206W        W39424  44.884  26.462  10.590
71207W        W39425  17.019  42.607  10.470
71208W        W39426   9.364   9.185  11.490
71209W        W39427  26.856  17.275   1.855
71210W        W39428  34.824  17.982   2.486
71211W        W39429   2.290  36.918  10.625
71212W        W39430  12.409  27.528  11.092
71213W        W39431  19.077  31.640   0.270
71214W        W39432  29.062  40.726   1.035
71215W        W39433  15.178  39.007   4.665
71216W        W39434  18.780  35.633  12.037
71217W        W39435   8.364   6.423  12.684
71218W        W39436  21.467  19.242  10.754
71219W        W39437  20.683  39.575   3.242
71220W        W39438  10.029  35.055   4.164
71221W        W39439  17.229  31.100  11.836
71222W        W39440  10.233   6.149   3.148
71223W        W39441   6.299   3.123  14.997
71224W        W39442  24.824   1.681  12.816
71225W        W39443   1.824  42.570   3.900
71226W        W39444   9.777   2.616  12.457
71227W        W39445  14.346   4.231  10.655
71228W        W39446   6.308  20.323   0.442
71229W        W39447  19.523  10.781  10.592
71230W        W39448  29.680  22.549  10.068
71231W        W39449   0.129  30.364   4.588
71232W        W39450   4.545  22.680  14.644
71233W        W39451  20.628   5.289   2.118
71234W        W39452   0.401   0.840   1.753
71235W        W39453  44.253  18.288  13.426
71236W        W39454  13.819  29.440   1.474
71237W        W39455  28.120   0.708   4.269
71238W        W39456  25.025  25.794  12.811
71239W        W39457  29.193   0.833  12.802
71240W        W39458  40.785   0.504   4.549
71241W        W39459  38.467  26.170   3.904
71242W        W39460  30.759   9.772  14.129
71243W        W39461  42.072  23.063  10.962
71244W        W39462  22.812  36.005  13.929
71245W        W39463  38.945   1.097  11.676
71246W        W39464  17.654  25.012  11.514
71247W        W39465  19.655  16.647  10.682
71248W        W39466  11.691   1.472  13.881
71249W        W39467  38.581  36.322   0.464
71250W        W39468   2.097  23.335  11.588
71251W        W39469   5.025   5.899  10.649
71252W        W39470  14.585  13.672  12.351
71253W        W39471  28.500  39.142  11.169
71254W        W39472  29.380   0.004  13.800
71255W        W39473  19.613  43.899  13.311
71256W        W39474  30.663   0.159  13.805
71257W        W39475  18.749  34.782  13.983
71258W        W39476  44.215  42.894   4.298
71259W        W39477  35.077   0.790  14.893
71260W        W39478  26.733  31.686   3.255
71261W        W39479  19.313  21.525  11.111
71262W        W39480  14.789   7.459  12.522
71263W        W39481  35.088   6.378   4.193
71264W        W39482   2.208  26.931  14.319
71265W        W39483  35.022   2.451   1.471
71266W        W39484   8.394  21.355   2.880
71267W        W39485   8.145  20.196   2.475
71268W        W39486  12.201   2.970   1.738
71269W        W39487  43.237  25.522   2.014
71270W        W39488  29.195  28.835  14.516
71271W        W39489   5.688   8.182  14.765
71272W        W39490   1.469  32.868  11.581
71273W        W39491  25.109  30.072  13.600
71274W        W39492   9.950  21.219   2.190
71275W        W39493  25.049  26.413  12.699
71276W        W39494  34.318  41.247   1.403
71277W        W39495  16.594  24.506  11.183
71278W        W39496  12.543  24.538   2.457
71279W        W39497  17.016   8.906   0.909
71280W        W39498  29.417  35.952  13.459
71281W        W39499   7.889  40.664   0.928
71282W        W39500  43.081   9.751   0.895
71283W        W39501  21.829  11.412  12.523
71284W        W39502   2.824   7.231   0.722
71285W        W39503  35.493  16.517   2.615
71286W        W39504  11.104   6.922  12.743
71287W        W39505   3.967  27.614   0.864
71288W        W39506   2.215  19.655   4.252
71289W        W39507  17.152  21.497  13.880
71290W        W39508  29.997   8.978   4.449
71291W        W39509  31.646   3.314   3.361
71292W        W39510  13.520  14.664  12.933
71293W        W39511   9.430   9.299  10.727
71294W        W39512   6.462  31.678   3.952
71295W        W39513  44.277  22.086   1.319
71296W        W39514   2.396  27.002   4.042
71297W        W39515  22.813  23.058   2.232
71298W        W39516  23.884  36.074   1.399
71299W        W39517   1.255  33.545   4.133
71300W        W39518   5.435  40.792   3.123
71301W        W39519  44.837   6.439  12.433
71302W        W39520  27.612   1.828  12.250
71303W        W39521  15.512  39.910  14.814
71304W        W39522  15.868  10.765  10.289
71305W        W39523  29.796  18.178  14.486
71306W        W39524  31.391   5.934  12.368
71307W        W39525  41.284  33.621  12.400
71308W        W39526  17.990  13.894  13.830
71309W        W39527  16.703   0.480   5.101
71310W        W39528  21.226  31.974   2.344
71311W        W39529  22.728  42.336   3.110
71312W        W39530   2.791  24.573  12.664
71313W        W39531   2.472  10.180  14.911
71314W        W39532  14.583  32.557  13.810
71315W        W39533  12.613  43.004  14.424
71316W        W39534   8.537  30.528  12.225
71317W        W39535  36.311   6.350  12.094
71318W        W39536  11.612  42.011   1.284
71319W        W39537  39.451   0.547   2.382
71320W        W39538  10.381  18.118  11.584
71321W        W39539  16.819  39.799   3.049
71322W        W39540  18.118  10.641  14.353
71323W        W39541  44.877  44.005  10.598
71324W        W39542  26.554   2.606   1.386
71325W        W39543  43.118   1.257   2.347
71326W        W39544  14.327  15.923  13.860
71327W        W39545  44.481  30.310   3.379
71328W        W39546  10.927   0.876   3.627
71329W        W39547  14.141  16.196   1.632
71330W        W39548  36.443  31.151   1.856
71331W        W39549  44.388   7.358   1.292
71332W        W39550  14.697  29.878   3.464
71333W        W39551  31.335  14.224  11.199
71334W        W39552  25.391  26.131  13.004
71335W        W39553  31.877   8.285  14.831
71336W        W39554  44.980   3.010  12.831
71337W        W39555   5.769  28.066   0.748
71338W        W39556  15.478   8.241   2.742
71339W        W39557  17.599  29.042   0.187
71340W        W39558  17.677  43.281   4.390
71341W        W39559  40.027  17.252   2.525
71342W        W39560  25.195  23.364  11.525
71343W        W39561  31.985  15.010   1.478
71344W        W39562  14.548  21.683   3.103
71345W        W39563   3.168  21.180  12.621
71346W        W39564  39.910  21.013   5.065
71347W        W39565  38.821  27.206  14.783
71348W        W39566  35.084  18.563  13.735
71349W        W39567  29.479   1.904  12.001
71350W        W39568  31.595  34.141   3.877
71351W        W39569   8.125  40.397  11.149
71352W        W39570  30.030  34.416   4.107
71353W        W39571  11.845  19.446  11.445
71354W        W39572  28.198  10.019   4.132
71355W        W39573  17.765  30.074  12.385
71356W        W39574  13.735  35.657  13.325
71357W        W39575  42.395  37.903   2.155
71358W        W39576  26.512  10.762  10.957
71359W        W39577   0.786  37.519   2.658
71360W        W39578  18.778  10.229  12.693
71361W        W39579  29.116  31.397   3.178
71362W        W39580   7.880  37.095  13.824
71363W        W39581  14.545  15.271   1.400
71364W        W39582   0.819  18.572  14.902
71365W        W39583  14.411  24.240  12.593
71366W        W39584  44.898   0.469   0.513
71367W        W39585   0.316  31.960  14.108
71368W        W39586  22.509  38.758  10.059
71369W        W39587   2.247  43.388  12.570
71370W        W39588  25.553  43.145   2.852
71371W        W39589  33.292  24.532  13.132
71372W        W39590   1.765  13.877   0.899
71373W        W39591   4.939  29.746  14.321
71374W        W39592   7.543  19.839  10.129
71375W        W39593  10.724  25.699   0.091
71376W        W39594  24.583   5.121   2.130
71377W        W39595  18.281  31.437   0.733
71378W        W39596  19.117   0.671   3.117
71379W        W39597  43.480  42.583  11.515
71380W        W39598  18.740  22.657   4.985
71381W        W39599   3.541   8.661   4.647
71382W        W39600  32.445  38.913  14.371
71383W        W39601   8.184  37.464  13.048
71384W        W39602  44.563  32.617  13.719
71385W        W39603  19.030   1.858  10.834
71386W        W39604   7.398  26.549   3.395
71387W        W39605  33.023  29.033   0.007
71388W        W39606  15.339  39.783   2.918
71389W        W39607  41.992  43.924   0.386
71390W        W39608  43.400  39.270  12.821
71391W        W39609  43.953  35.685   2.310
71392W        W39610  36.403  23.005   1.492
71393W        W39611   6.308   3.336  13.536
71394W        W39612  12.368   3.325   1.329
71395W        W39613  31.883  33.408  11.123
71396W        W39614  42.722  43.427   2.722
71397W        W39615  32.101  27.507   0.263
71398W        W39616  31.067  33.378   1.726
71399W        W39617  26.263   4.979  13.791
71400W        W39618  43.745   8.222   4.253
71401W        W39619   4.795  24.652  13.420
71402W        W39620  22.517  44.039   3.682
71403W        W39621  39.274  41.470   2.710
71404W        W39622   3.284  20.257   2.344
71405W        W39623  22.523  22.457  11.168
71406W        W39624   5.858  44.504  14.261
71407W        W39625  43.910  22.900  10.941
71408W        W39626  27.306   3.888   0.375
71409W        W39627  35.826  30.565   1.565
71410W        W39628  13.232   2.266  11.622
71411W        W39629  14.276  38.735   4.533
71412W        W39630  16.684  19.720   4.785
71413W        W39631  14.871  34.867   4.181
71414W        W39632   2.721  19.040   2.111
71415W        W39633  36.912  40.245   1.785
71416W        W39634  11.156  35.608   3.648
71417W        W39635  15.387   1.205  11.072
71418W        W39636   7.431   4.930   3.792
71419W        W39637   9.698  17.144   1.958
71420W        W39638  39.526   1.195   1.007
71421W        W39639   5.229  28.857   2.950
71422W        W39640  18.372   5.725   1.106
71423W        W39641  30.929  21.717   4.661
71424W        W39642  10.690  17.318   1.864
71425W        W39643  38.899  34.413  11.667
71426W        W39644  30.211  31.786  14.044
71427W        W39645  38.938   0.773   2.464
71428W        W39646  41.076  32.890  14.006
71429W        W39647  39.831  39.340  14.268
71430W        W39648  27.364  31.757   1.762
71431W        W39649   6.929   6.428  13.544
71432W        W39650   8.674   4.702  12.500
71433W        W39651  12.026  24.721  11.586
71434W        W39652  14.748  17.233   1.218
71435W        W39653  20.400  19.268   2.844
71436W        W39654  23.126  16.837  13.361
71437W        W39655  15.560   1.273  13.410
71438W        W39656  42.205  24.691   3.140
71439W        W39657  22.857  26.548  14.746
71440W        W39658   5.794   8.877   3.670
71441W        W39659   9.646  38.862  10.705
71442W        W39660  33.382   3.457   2.760
71443W        W39661   7.790  32.562   4.718
71444W        W39662   7.816  38.915  13.528
71445W        W39663  40.178   4.066   4.651
71446W        W39664  22.984  21.064  12.001
71447W        W39665  43.135  36.605   3.304
71448W        W39666  21.084  26.205  10.616
71449W        W39667  18.167   3.530   4.224
71450W        W39668  43.062   2.448  12.750
71451W        W39669  20.574  31.289   0.241
71452W        W39670  26.088  43.485  14.698
71453W        W39671  44.306  27.299   3.302
71454W        W39672   2.624  23.126  12.994
71455W        W39673  39.436  31.379  12.364
71456W        W39674  34.711  15.038   2.055
71457W        W39675  34.357  40.117  13.507
71458W        W39676  19.588  34.412   3.216
71459W        W39677  31.367  33.896  12.053
71460W        W39678   0.902  14.907  12.399
71461W        W39679  35.327  31.407   3.924
71462W        W39680  41.387   8.541  12.060
71463W        W39681  14.364  30.366   3.737
71464W        W39682  21.414  19.598   3.178
71465W        W39683  24.413  29.104  11.791
71466W        W39684   9.167  32.489  14.547
71467W        W39685  13.601  36.825   1.399
71468W        W39686  28.431  31.894  14.454
71469W        W39687  14.207  29.421   1.833
71470W        W39688   2.546  24.636  14.196
71471W        W39689   3.937  32.488   3.276
71472W        W39690  28.036  19.263  11.464
71473W        W39691   8.908  40.044  14.359
71474W        W39692  11.980  12.716  14.924
71475W        W39693  37.554  35.076  12.962
71476W        W39694  42.870  35.500   1.516
71477W        W39695  34.610  14.013  13.531
71478W        W39696  17.644  44.489  11.178
71479W        W39697  39.153  21.168   3.606
71480W        W39698  13.173   7.788   4.889
71481W        W39699  16.839  29.024   1.686
71482W        W39700  25.913   8.348  12.865
71483W        W39701   8.650   2.754  11.912
71484W        W39702   2.179  36.418   3.704
71485W        W39703  32.902  14.123   3.207
71486W        W39704  30.702   4.979   0.221
71487W        W39705  38.457  42.710   2.229
71488W        W39706  29.712  17.123   2.180
71489W        W39707  17.657  38.747   3.816
71490W        W39708  29.923  14.274   0.058
71491W        W39709  21.927  34.453   0.924
71492W        W39710  44.786  27.700  14.844
71493W        W39711   7.638  29.543   0.084
71494W        W39712   1.436  21.927  13.485
71495W        W39713  20.477  12.953  11.050
71496W        W39714  19.095   9.750   1.693
71497W        W39715  25.662  29.548   1.873
71498W        W39716  14.803   4.427   2.625
71499W        W39717  10.989  23.424   1.235
71500W        W39718  28.157   8.785   0.695
71501W        W39719  34.293  17.726   4.057
71502W        W39720  38.412   0.864   4.620
71503W        W39721  33.343  19.683   1.575
71504W        W39722  38.869  35.088  13.966
71505W        W39723  19.987  17.836  12.512
71506W        W39724  29.113  32.600  14.915
71507W        W39725  20.817  27.720  13.779
71508W        W39726  17.089  43.445   0.753
71509W        W39727  13.346  11.417   5.312
71510W        W39728   7.666   7.866   0.786
71511W        W39729  26.848  15.158  14.017
71512W        W39730  18.794  32.100  12.175
71513W        W39731  36.440  37.852   2.412
71514W        W39732   9.596  28.332  11.297
71515W        W39733  34.274  33.934  12.992
71516W        W39734  27.001  37.302   0.892
71517W        W39735  11.801  32.198   4.584
71518W        W39736   0.449  16.573   1.683
71519W        W39737  20.553   4.327  11.633
71520W        W39738  29.132   5.630   2.581
71521W        W39739  16.367  40.122  10.755
71522W        W39740   0.270  36.569   0.455
71523W        W39741  24.487  38.434   2.774
71524W        W39742  29.141  28.613  11.058
71525W        W39743  40.350   8.823  11.820
71526W        W39744  37.240   0.037   2.325
71527W        W39745  41.507  29.659   4.748
71528W        W39746  23.058  16.887   2.559
71529W        W39747   8.290  15.332   4.149
71530W        W39748  20.203  37.529   3.893
71531W        W39749  30.240  13.085   4.677
71532W        W39750  24.496   2.464   2.666
71533W        W39751  29.557  32.187  11.539
71534W        W39752  20.952  25.649  11.545
71535W        W39753  15.382  11.507   4.349
71536W        W39754  15.328  35.139   4.177
71537W        W39755  24.049  43.138  13.897
71538W        W39756  27.518  39.319  11.242
71539W        W39757  15.207  31.883   0.977
71540W        W39758  37.438  32.877   1.779
71541W        W39759  32.079  43.411   3.725
71542W        W39760  39.665  25.113   4.194
71543W        W39761   2.377  37.305  13.317
71544W        W39762  28.955  25.948  14.443
71545W        W39763  19.945   4.119   3.652
71546W        W39764  39.392  33.452   0.054
71547W        W39765  20.648  10.589   2.825
71548W        W39766  24.300  18.198   4.162
71549W        W39767  29.565  22.161  14.891
71550W        W39768  41.777  10.992   0.288
71551W        W39769  36.063  42.744  13.905
71552W        W39770  36.419  37.992   1.910
71553W        W39771  14.901  38.531  12.145
71554W        W39772  12.550  33.910   4.113
71555W        W39773  11.721  30.209   2.975
71556W        W39774  18.623  16.961  11.668
71557W        W39775  24.134   7.386  12.038
71558W        W39776  30.667  11.410   4.531
71559W        W39777  26.920  13.091  13.925
71560W        W39778  23.488   1.009  11.094
71561W        W39779  20.326  10.163   3.879
71562W        W39780  36.191  26.710   2.246
71563W        W39781   9.658   5.553  10.697
71564W        W39782  20.966  37.879  14.791
71565W        W39783  16.530   0.753   3.737
71566W        W39784  13.148  44.461  12.803
71567W        W39785  23.630   6.808   3.231
71568W        W39786  28.919  42.809  13.430
71569W        W39787  36.795   5.523  12.979
71570W        W39788  32.843  29.146   1.015
71571W        W39789   0.642  25.616  12.683
71572W        W39790  14.313  15.702  14.744
71573W        W39791  42.465  44.687  11.141
71574W        W39792  39.729  43.337   1.731
71575W        W39793  43.293   9.203   0.063
71576W        W39794  43.016   3.033   1.855
71577W        W39795   6.902  30.167   4.061
71578W        W39796  12.582  26.524  14.311
71579W        W39797  44.898  15.546  12.798
71580W        W39798  25.746   7.769   3.035
71581W        W39799  42.019   3.264   0.900
71582W        W39800  11.879  11.098   0.312
71583W        W39801  21.614   8.372   1.909
71584W        W39802   6.673  37.377   1.790
71585W        W39803  25.121   4.273  13.943
71586W        W39804  27.161  44.679   0.988
71587W        W39805  12.713  18.834   0.854
71588W        W39806  25.073  43.933   3.020
71589W        W39807  27.994  15.167  10.815
71590W        W39808   1.287  37.349   2.625
71591W        W39809  40.559  10.731  14.973
71592W        W39810  27.154  23.433  10.747
71593W        W39811  22.591  13.288   0.798
71594W        W39812  28.944  40.439   0.234
71595W        W39813  25.520  44.270  14.920
71596W        W39814  19.411  40.706   2.778
71597W        W39815  15.271  31.172   4.504
71598W        W39816  15.064  44.986   0.720
71599W        W39817  22.022  44.725  13.483
71600W        W39818  11.445  14.118  14.280
71601W        W39819  19.776   4.855  12.235
71602W        W39820  15.752  14.315  11.378
71603W        W39821  42.006  14.054   1.687
71604W        W39822  22.302  18.809  14.674
71605W        W39823  12.157  44.427   2.592
71606W        W39824   9.899  12.812   0.757
71607W        W39825   4.668  10.564   4.063
71608W        W39826  26.656  41.331  13.569
71609W        W39827  23.043  10.185  12.375
71610W        W39828  29.368   0.204  11.589
71611W        W39829  37.408  44.349   0.077
71612W        W39830  17.154  16.250   4.693
71613W        W39831   5.261  42.005   3.600
71614W        W39832  39.949  13.374   0.025
71615W        W39833  44.435  24.587   4.489
71616W        W39834  33.683   6.646   2.454
71617W        W39835  13.751   9.172   1.534
71618W        W39836  10.463  12.061   4.085
71619W        W39837   9.246  20.129  13.304
71620W        W39838   0.206   8.352  13.377
71621W        W39839  39.003   2.981  12.976
71622W        W39840  44.265   6.103  10.884
71623W        W39841  25.361   4.830   3.655
71624W        W39842  12.670   2.021  14.791
71625W        W39843  11.363  33.533   3.549
71626W        W39844  43.515  31.263  13.322
71627W        W39845  39.036  19.761  10.523
71628W        W39846   6.850  27.282   3.025
71629W        W39847   3.323  22.704   3.287
71630W        W39848  12.650  32.558   4.295
71631W        W39849   1.030   5.487  13.536
71632W        W39850  17.145  14.123  11.293
71633W        W39851  10.877  40.376  10.705
71634W        W39852  44.106   4.864  12.145
71635W        W39853  20.637   0.448   4.406
71636W        W39854  16.024  28.010   3.598
71637W        W39855   3.838   9.778  12.342
71638W        W39856  41.602   2.987  12.918
71639W        W39857  25.546  42.671   2.700
71640W        W39858  26.543  40.005  11.632
71641W        W39859  10.460   9.095  10.423
71642W        W39860  40.452  38.966  12.613
71643W        W39861  26.454  13.293   1.635
71644W        W39862  25.515  35.382   4.434
71645W        W39863  20.747  15.692   1.776
71646W        W39864  12.926  14.272  11.232
71647W        W39865   0.006  35.601  11.912
71648W        W39866   8.662  43.361   1.716
71649W        W39867   7.902  27.226  11.852
71650W        W39868  23.726  13.143   2.411
71651W        W39869  33.671  22.644  13.077
71652W        W39870   0.931  13.964  13.859
71653W        W39871   2.338  19.006  11.610
71654W        W39872  22.114  39.297  12.011
71655W        W39873  11.148  37.367   3.206
71656W        W39874  22.509  33.174   3.174
71657W        W39875  34.396   9.885   3.764
71658W        W39876  35.069  39.469  14.490
71659W        W39877  21.562  27.966   0.313
71660W        W39878  29.093  19.507   4.805
71661W        W39879  26.138  38.035  14.820
71662W        W39880  13.583  27.539   3.744
71663W        W39881  40.973   1.306   2.803
71664W        W39882   2.491   6.142  11.236
71665W        W39883  43.945  24.282   3.702
71666W        W39884   3.350  25.014  10.707
71667W        W39885   4.822  39.373  12.563
71668W        W39886   4.303   6.233  13.831
71669W        W39887  36.505  23.590  11.928
71670W        W39888   9.300  26.694  13.440
71671W        W39889  11.454  19.645  11.152
71672W        W39890  11.836  39.128   0.226
71673W        W39891  27.275  15.114   1.697
71674W        W39892   4.410  15.736  12.514
71675W        W39893  34.450  40.043   0.937
71676W        W39894  16.635   1.895   9.734
71677W        W39895  35.137  25.123   3.231
71678W        W39896   0.556  35.019  12.466
71679W        W39897  32.295  17.721   2.974
71680W        W39898  35.230  42.295   0.709
71681W        W39899  39.136  33.319   2.707
71682W        W39900  42.404  16.791  14.056
71683W        W39901  12.784  18.390   1.797
71684W        W39902  12.567   0.311   2.434
71685W        W39903  30.772  16.151  12.567
71686W        W39904  14.229  35.731  13.549
71687W        W39905  27.158  20.634   2.295
71688W        W39906  32.033  34.912  11.029
71689W        W39907   9.823  22.785   1.348
71690W        W39908  43.837  26.159   3.687
71691W        W39909  33.836  10.348   1.174
71692W        W39910  22.503   8.913   3.258
71693W        W39911   0.203   9.613  12.893
71694W        W39912  17.965  43.755  12.974
71695W        W39913  39.268  23.048   3.429
71696W        W39914   2.699  18.264  11.133
71697W        W39915  30.512  31.993   3.265
71698W        W39916   0.339  15.017   4.818
71699W        W39917  21.408  17.856   0.794
71700W        W39918  13.887  19.930   0.429
71701W        W39919  28.923  18.263   5.064
71702W        W39920  17.858  25.456  12.988
71703W        W39921  31.194   3.875   4.045
71704W        W39922  35.612  38.470  12.933
71705W        W39923  35.272  36.616   4.634
71706W        W39924  20.953  42.804  10.447
71707W        W39925   9.781  12.833   4.701
71708W        W39926  14.845  25.207   4.156
71709W        W39927  42.707  11.640   2.870
71710W        W39928   4.893  44.439   2.685
71711W        W39929  20.065  39.104   4.343
71712W        W39930  10.184  25.723   0.415
71713W        W39931  26.695  16.616  13.331
71714W        W39932  32.033  21.843   0.302
71715W        W39933  30.368   4.425   4.117
71716W        W39934  14.616  29.699  14.287
71717W        W39935   4.512  33.207  10.692
71718W        W39936  11.311  40.957  13.577
71719W        W39937  12.636  35.055   1.943
71720W        W39938   9.856   9.762  14.931
71721W        W39939  15.672  34.223   2.237
71722W        W39940  35.954  23.963   0.098
71723W        W39941  43.491  27.436  13.023
71724W        W39942  18.443  14.531   1.509
71725W        W39943  38.220  30.477  12.711
71726W        W39944   3.472  19.525   0.074
71727W        W39945  28.416  12.732   4.173
71728W        W39946  35.294  40.043  12.503
71729W        W39947  18.786  35.034  14.451
71730W        W39948  31.351  18.095  12.674
71731W        W39949   6.256   9.405  11.692
71732W        W39950  40.799  24.474   0.419
71733W        W39951   2.698  17.059   1.304
71734W        W39952  39.429   4.667   0.935
71735W        W39953   1.329   4.186  11.966
71736W        W39954   3.237  16.860  10.403
71737W        W39955  19.808  14.124   0.705
71738W        W39956  43.412  17.810  13.695
71739W        W39957  44.862  17.883  11.521
71740W        W39958  14.671   5.150   4.091
71741W        W39959  27.121  12.352  14.735
71742W        W39960  11.668  15.739   4.390
71743W        W39961  25.495   9.502   1.012
71744W        W39962  34.934   3.099   3.716
71745W        W39963  12.444  18.096  10.691
71746W        W39964  35.554   0.234  11.983
71747W        W39965  36.192  39.969  14.533
71748W        W39966   8.699  24.427   1.867
71749W        W39967   6.455  18.861   3.145
71750W        W39968  11.098   4.520  13.687
71751W        W39969  31.947   7.303  14.374
71752W        W39970  11.322  21.767   0.381
71753W        W39971  14.323  15.183  11.444
71754W        W39972  44.320  27.994   1.354
71755W        W39973  29.977  12.236  12.676
71756W        W39974  25.386   3.679   0.148
71757W        W39975  25.262  41.754  11.959
71758W        W39976  21.695  33.707  12.337
71759W        W39977  26.960  35.345   0.821
71760W        W39978  39.372   8.824   0.768
71761W        W39979  35.540  14.518  13.967
71762W        W39980  27.591  21.128   3.616
71763W        W39981  43.270  32.470  14.285
71764W        W39982  28.156   0.360   3.416
71765W        W39983   3.699  10.371   1.931
71766W        W39984  10.318  26.168  11.226
71767W        W39985   8.382  40.515   1.081
71768W        W39986  42.437  15.778  14.851
71769W        W39987   1.664  36.884   0.909
71770W        W39988  14.698  31.866   0.813
71771W        W39989  39.897  11.279   0.029
71772W        W39990  34.221  16.131   2.704
71773W        W39991  17.809  43.029  13.555
71774W        W39992  30.508  14.868  10.494
71775W        W39993   9.001  30.659   4.189
71776W        W39994  11.834  17.008  12.484
71777W        W39995   9.598  43.304   4.040
71778W        W39996  37.336  41.611   1.654
71779W        W39997  42.056  22.083  10.652
71780W        W39998  33.338  44.211   0.735
71781W        W39999  40.952  20.455  10.791
71782W        W40000  35.608  31.940   4.076
71783W        W40001  35.519  30.507  12.384
71784W        W40002  31.561  16.166   0.226
71785W        W40003  15.073   2.006   4.212
71786W        W40004   0.396  19.014   4.093
71787W        W40005  14.858   8.262  14.377
71788W        W40006  14.211   8.751   4.026
71789W        W40007  15.682  16.380  13.099
71790W        W40008  26.200  36.510   2.115
71791W        W40009   8.068  32.314   1.813
71792W        W40010  36.352  34.425  12.918
71793W        W40011  37.144  41.973  12.047
71794W        W40012  36.621  15.938   4.950
71795W        W40013  34.682  33.052  11.202
71796W        W40014   9.752  41.631  12.887
71797W        W40015  13.367  24.546   0.843
71798W        W40016  10.258  36.330  11.399
71799W        W40017  20.891   8.930   2.404
71800W        W40018  22.775  11.253   2.388
71801W        W40019  26.888   4.303  13.894
71802W        W40020  36.311  29.161  14.843
71803W        W40021   4.833  35.255   2.138
71804W        W40022  16.615  11.269  13.987
71805W        W40023  32.492   6.759  14.100
71806W        W40024  20.776  42.427   5.096
71807W        W40025  30.452  37.292  10.448
71808W        W40026  14.527   7.655  12.972
71809W        W40027  14.598  31.547   1.703
71810W        W40028   3.428  33.155   5.201
71811W        W40029  20.025  20.555  12.543
71812W        W40030  21.217  18.645  14.734
71813W        W40031  39.496  24.001   1.278
71814W        W40032  31.152  35.829  13.453
71815W        W40033  43.859   2.064   1.026
71816W        W40034  15.228  40.255   1.288
71817W        W40035   6.320  24.154   2.188
71818W        W40036   9.274  42.678  12.359
71819W        W40037  29.050  33.765  14.430
71820W        W40038  19.648  23.671   1.416
71821W        W40039  30.681  30.270  11.722
71822W        W40040  20.037   8.471  13.818
71823W        W40041  12.193  21.603  12.419
71824W        W40042  26.467  12.371  13.573
71825W        W40043  26.268  36.961   2.920
71826W        W40044  36.500  39.969   3.731
71827W        W40045  32.363  32.329   3.756
71828W        W40046   2.340  12.217  12.415
71829W        W40047  39.496  29.969   4.625
71830W        W40048  33.750  12.878   2.360
71831W        W40049   4.134  17.597  13.047
71832W        W40050   5.698  11.229   3.703
71833W        W40051   8.225  23.543   2.367
71834W        W40052  16.818   1.832   0.787
71835W        W40053  44.831  42.426  13.793
71836W        W40054  35.271   7.610  13.980
71837W        W40055  27.777  28.102   4.125
71838W        W40056  17.397   9.770  12.444
71839W        W40057  33.705  10.661  13.357
71840W        W40058  32.916   7.331  13.998
71841W        W40059   9.737  34.614  10.565
71842W        W40060  13.833  38.570   3.306
71843W        W40061  16.589  12.145   3.805
71844W        W40062  33.477  39.445  12.811
71845W        W40063  41.429   8.863   3.237
71846W        W40064   7.404  28.029  11.470
71847W        W40065  22.603  19.525  12.079
71848W        W40066  39.354  13.871  12.489
71849W        W40067  10.186   6.314  10.466
71850W        W40068  26.132  28.216  13.551
71851W        W40069  33.400  37.903  11.110
71852W        W40070  16.839  33.895   2.718
71853W        W40071  38.006  23.475   3.749
71854W        W40072   4.424  39.556  13.282
71855W        W40073  42.318  12.321   2.338
71856W        W40074  11.443  27.011  12.121
71857W        W40075  22.197  25.182   3.139
71858W        W40076   5.810  11.816  11.204
71859W        W40077  26.329   6.886   3.224
71860W        W40078  13.547   3.870   4.117
71861W        W40079  34.258  10.079   1.087
71862W        W40080  36.364  26.416  10.464
71863W        W40081  28.333  21.121  10.595
71864W        W40082  36.150  44.033  13.776
71865W        W40083   4.127   2.961  14.305
71866W        W40084  42.549  21.119   4.848
71867W        W40085  25.252  20.774  14.739
71868W        W40086  15.157   3.416   1.482
71869W        W40087  38.427   9.819   1.360
71870W        W40088   0.745  10.439   2.807
71871W        W40089  11.697  36.573   3.650
71872W        W40090  19.724  33.214   4.900
71873W        W40091  27.146  23.071   2.352
71874W        W40092   2.222  22.041   0.854
71875W        W40093  12.848  22.239  14.135
71876W        W40094  14.089  42.456  14.686
71877W        W40095  42.355  42.568  13.949
71878W        W40096  20.898  35.443  14.704
71879W        W40097  17.729  19.136   0.498
71880W        W40098  25.688  13.108  12.262
71881W        W40099  32.638  18.346  10.476
71882W        W40100  18.062  26.030  13.992
71883W        W40101  21.284   5.193  11.079
71884W        W40102  41.938  43.063   3.756
71885W        W40103   8.427  42.266   1.309
71886W        W40104  39.065  31.527  13.320
71887W        W40105  31.042  34.313   1.745
71888W        W40106  23.626   3.480   3.403
71889W        W40107  16.087   8.621   4.236
71890W        W40108  10.248  16.825  13.911
71891W        W40109   2.747  26.110  14.667
71892W        W40110  34.421  41.037   1.877
71893W        W40111  30.862  42.022  11.122
71894W        W40112  14.462   1.315  14.240
71895W        W40113  13.608  37.957   4.693
71896W        W40114  26.170  18.627  12.392
71897W        W40115  12.534  43.578   3.701
71898W        W40116  26.579  27.138   1.575
71899W        W40117  43.581  25.061   3.113
71900W        W40118  10.194  25.219   2.373
71901W        W40119  29.019   6.094   2.772
71902W        W40120   2.250  42.339   1.780
71903W        W40121  23.088   4.998  14.261
71904W        W40122  26.668  25.117   4.470
71905W        W40123   8.492   5.959  13.939
71906W        W40124  31.208   9.440  12.296
71907W        W40125   4.141  42.495  14.497
71908W        W40126  10.867  43.730   2.690
71909W        W40127  34.742   4.883   1.742
71910W        W40128  15.664  17.593   4.734
71911W        W40129  28.719  24.941   4.917
71912W        W40130   5.541  38.136  11.990
71913W        W40131  41.274   9.646  13.536
71914W        W40132  25.120  21.835   2.119
71915W        W40133  15.704  23.686   0.334
71916W        W40134   1.262   2.110   4.399
71917W        W40135  26.438   8.852   1.481
71918W        W40136  34.567  43.086  14.952
71919W        W40137  15.045  26.353  11.384
71920W        W40138  23.340  31.365   4.650
71921W        W40139  40.429   0.733   0.935
71922W        W40140   5.614  13.221   1.047
71923W        W40141  38.825   1.611  11.718
71924W        W40142   1.830  37.849   0.008
71925W        W40143  18.391  12.114  13.427
71926W        W40144  41.763  35.456  10.680
71927W        W40145  11.987  15.128  14.824
71928W        W40146   5.655  44.785   3.676
71929W        W40147  14.780  23.917   3.207
71930W        W40148  21.779  14.484   2.116
71931W        W40149   9.449  27.107   4.199
71932W        W40150  41.829   1.740   3.310
71933W        W40151  23.942  13.119   3.821
71934W        W40152   7.789  38.884   1.680
71935W        W40153  21.245  39.354   4.716
71936W        W40154  19.007  38.733  11.156
71937W        W40155  37.103  14.018  14.897
71938W        W40156   1.528  32.211  12.153
71939W        W40157   6.091  10.322   2.250
71940W        W40158  36.620  34.048   2.430
71941W        W40159  21.321   0.363   3.571
71942W        W40160  15.295   8.348   1.807
71943W        W40161  19.158  29.497   1.702
71944W        W40162   0.485  19.641  12.411
71945W        W40163  39.366  33.873   1.708
71946W        W40164  33.142  38.289   2.158
71947W        W40165  31.077   5.982   0.896
71948W        W40166   8.161  22.776   3.711
71949W        W40167  22.946   2.791  10.554
71950W        W40168  17.702  39.849   2.804
71951W        W40169  35.807  13.873   4.353
71952W        W40170   1.491   1.162  12.962
71953W        W40171  19.468  11.807  11.551
71954W        W40172   3.623  28.970  10.593
71955W        W40173  27.649  27.713   2.169
71956W        W40174  25.680  41.275  12.833
71957W        W40175  40.677  12.351  14.358
71958W        W40176   5.482  25.212   2.727
71959W        W40177  36.063  36.433  14.787
71960W        W40178  32.552   8.999  14.946
71961W        W40179  33.946  21.530  14.254
71962W        W40180  17.405  21.155  10.216
71963W        W40181  16.272  41.321  12.112
71964W        W40182  17.668  13.687  13.462
71965W        W40183  14.254   1.355  10.441
71966W        W40184  14.759  13.250  12.601
71967W        W40185  32.890   7.341   0.466
71968W        W40186  25.404  29.133  12.015
71969W        W40187  12.342  31.820   4.819
71970W        W40188  24.387  20.137  13.121
71971W        W40189  38.901  18.835   0.365
71972W        W40190  28.051   3.073   1.881
71973W        W40191  43.476  37.857   3.848
71974W        W40192  25.197  31.008  10.719
71975W        W40193  35.452  27.234  12.987
71976W        W40194  42.320  16.362   3.686
71977W        W40195  21.488  29.474  14.268
71978W        W40196  12.145   5.206   3.716
71979W        W40197  42.276   1.306   2.713
71980W        W40198  10.092  24.760   4.763
71981W        W40199  27.276  15.076  14.887
71982W        W40200  20.646  34.642   3.166
71983W        W40201   8.915   7.732   2.151
71984W        W40202  22.739  26.116  12.160
71985W        W40203  35.903  36.828   0.094
71986W        W40204  17.029  10.369  13.247
71987W        W40205  27.611   8.618  12.943
71988W        W40206  29.938  34.629  14.977
71989W        W40207  32.936   7.182   2.767
71990W        W40208  44.983  39.550  11.212
71991W        W40209  44.080   9.305   5.086
71992W        W40210   9.205  30.579  13.398
71993W        W40211  28.805  13.108   4.277
71994W        W40212  23.053  27.702  11.537
71995W        W40213  10.854  10.735   0.287
71996W        W40214  22.009  39.778   1.495
71997W        W40215  32.082  24.899  14.390
71998W        W40216  27.441   1.414   4.095
71999W        W40217  23.415  17.221   3.776
72000W        W40218  34.286  28.481   0.670
72001W        W40219   1.159  43.426  13.366
72002W        W40220  40.025   5.978   2.278
72003W        W40221  31.416  11.852   4.005
72004W        W40222  24.922  27.686   3.981
72005W        W40223  43.792  15.911   0.765
72006W        W40224  28.110  18.782   4.434
72007W        W40225   3.671  10.137   2.866
72008W        W40226   8.387  17.357   4.013
72009W        W40227   9.979  33.434  12.560
72010W        W40228  25.053   3.444   0.941
72011W        W40229  18.274  22.929  13.764
72012W        W40230   1.462  36.384  11.976
72013W        W40231  37.019  13.298   4.526
72014W        W40232  25.298  23.819  12.488
72015W        W40233   5.853  14.546   0.271
72016W        W40234  18.153  44.029   1.264
72017W        W40235  32.389  18.731   1.173
72018W        W40236  32.513  41.066   3.251
72019W        W40237  21.489  13.258  14.812
72020W        W40238  37.350  11.777  12.930
72021W        W40239   8.176  38.385  12.126
72022W        W40240   6.510  20.864  13.864
72023W        W40241  35.802   7.794   3.682
72024W        W40242  43.212  39.777  11.079
72025W        W40243  33.184  15.860  11.387
72026W        W40244  39.924  40.784   0.371
72027W        W40245   1.212  20.181  14.753
72028W        W40246  27.119  37.317  11.805
72029W        W40247  36.959  29.895   4.780
72030W        W40248  18.690   2.779   3.163
72031W        W40249  38.040  31.027   3.320
72032W        W40250  12.812  17.059  14.364
72033W        W40251  10.740  12.406   3.805
72034W        W40252  32.717  22.639  12.909
72035W        W40253  25.360   4.416  13.505
72036W        W40254  21.692  30.644   4.685
72037W        W40255  22.762   4.789  13.044
72038W        W40256   4.516   7.966   2.980
72039W        W40257  36.373  16.418  13.235
72040W        W40258  37.016   7.248   0.414
72041W        W40259   5.714   4.049   2.279
72042W        W40260   5.972  25.579  13.001
72043W        W40261  27.585  24.597   3.081
72044W        W40262   8.331   8.239  12.684
72045W        W40263  22.820  10.934  11.041
72046W        W40264  27.097  41.560  13.398
72047W        W40265  17.068   0.717  11.953
72048W        W40266  12.306   0.873   1.331
72049W        W40267  37.170  34.219  12.997
72050W        W40268  32.374  12.866   2.329
72051W        W40269  42.847   4.822  12.376
72052W        W40270  34.586  10.840  14.577
72053W        W40271  23.414  35.588   5.081
72054W        W40272  41.536  10.771  13.414
72055W        W40273  16.523  23.010  12.528
72056W        W40274  11.232  35.318   2.679
72057W        W40275  41.840  16.858   3.725
72058W        W40276  14.718  27.507   2.403
72059W        W40277   6.285  32.323   5.044
72060W        W40278  14.651  34.131   0.094
72061W        W40279  17.224   9.207  14.764
72062W        W40280   5.553   9.648  14.895
72063W        W40281  32.334  19.959   1.994
72064W        W40282  33.059   6.107   0.709
72065W        W40283  27.454  20.038  10.655
72066W        W40284  43.263  16.561  12.817
72067W        W40285  34.161   3.193   2.369
72068W        W40286   0.263  22.887   3.841
72069W        W40287  27.095   3.291   3.527
72070W        W40288  18.269   5.939   4.130
72071W        W40289  20.038  42.834  13.822
72072W        W40290  33.099   8.620   3.335
72073W        W40291  16.267  31.486   1.285
72074W        W40292  23.988  41.995  11.467
72075W        W40293  16.240  39.382   3.788
72076W        W40294   6.765  34.503   0.969
72077W        W40295  36.521   8.368  14.130
72078W        W40296  42.280  19.761  13.931
72079W        W40297  26.734  42.766  12.479
72080W        W40298  11.755  41.541  12.933
72081W        W40299  17.569  38.844  12.154
72082W        W40300   8.599  21.272   1.996
72083W        W40301   7.116  35.426  11.973
72084W        W40302  16.212  23.635  11.839
72085W        W40303   3.738  33.525   3.129
72086W        W40304  22.949  18.125  13.328
72087W        W40305  42.365   2.910   0.550
72088W        W40306   2.811  33.993  11.947
72089W        W40307  23.556   8.192   1.887
72090W        W40308   3.815  14.130   4.690
72091W        W40309  40.161  29.172   2.172
72092W        W40310  38.807  32.078  12.010
72093W        W40311  19.078  28.514   1.130
72094W        W40312   5.371  16.850  14.534
72095W        W40313  21.054  44.885  14.680
72096W        W40314   9.394  13.328  14.938
72097W        W40315   1.658  43.252   0.531
72098W        W40316  25.477  36.429  11.657
72099W        W40317  20.610   4.726  12.792
72100W        W40318   1.234   6.503  13.766
72101W        W40319  14.165  41.928   0.938
72102W        W40320  26.143  39.633  12.658
72103W        W40321   0.957   3.891  13.468
72104W        W40322  25.876  21.009   1.502
72105W        W40323  30.778  35.445   0.120
72106W        W40324   5.838  44.033  13.438
72107W        W40325  20.075  36.115   3.749
72108W        W40326  20.951  23.199   3.659
72109W        W40327  25.219  39.923   0.830
72110W        W40328  30.121  12.197  11.081
72111W        W40329  43.366  33.624   2.820
72112W        W40330  35.313  19.455   2.456
72113W        W40331  38.985  36.071   0.783
72114W        W40332  26.470  32.580   0.459
72115W        W40333  18.673  15.769   3.627
72116W        W40334  35.981  17.622  11.212
72117W        W40335  31.958  20.818   2.821
72118W        W40336   1.891   5.259  13.976
72119W        W40337  10.052  20.667   5.049
72120W        W40338  21.431  40.280  13.508
72121W        W40339  23.211  43.102   2.867
72122W        W40340   6.302  10.569   5.020
72123W        W40341  32.431  32.035   0.845
72124W        W40342  44.921  32.590   1.701
72125W        W40343  34.424  43.216  12.691
72126W        W40344  26.794  15.377  11.325
72127W        W40345  32.391  15.652  14.327
72128W        W40346  22.624   0.791  13.339
72129W        W40347  19.672  27.249   3.235
72130W        W40348  41.626   1.272  14.843
72131W        W40349  22.305   5.193  12.050
72132W        W40350   9.365  25.219   2.777
72133W        W40351  24.942   8.304  12.448
72134W        W40352   0.866  12.438  11.178
72135W        W40353  30.671  26.683  12.111
72136W        W40354   9.827  20.798  14.868
72137W        W40355  15.771  26.190  12.112
72138W        W40356  32.903  24.161   2.716
72139W        W40357   0.202  15.310  14.213
72140W        W40358   4.819  37.919  12.936
72141W        W40359  37.404  29.634  13.009
72142W        W40360  14.902  24.092  13.679
72143W        W40361  44.578   1.320   2.346
72144W        W40362  42.816  19.995  14.081
72145W        W40363  35.587   4.664  12.034
72146W        W40364  41.551   0.973   1.760
72147W        W40365  28.497  41.599  12.987
72148W        W40366   2.770  26.143  13.223
72149W        W40367   9.703  32.893   3.147
72150W        W40368   5.675  19.115  13.305
72151W        W40369  25.149  25.639   0.226
72152W        W40370   4.784  30.486   0.111
72153W        W40371  13.078  15.693   2.175
72154W        W40372  18.584  40.299  11.434
72155W        W40373  14.100   9.107   2.297
72156W        W40374  34.622  21.600  13.525
72157W        W40375  21.515  39.942   3.746
72158W        W40376  44.052  13.348  13.340
72159W        W40377  29.672  42.272  12.131
72160W        W40378  19.665  14.743   2.519
72161W        W40379  19.341  36.877  12.082
72162W        W40380  15.279   9.771  10.825
72163W        W40381  37.218  12.924   1.256
72164W        W40382  13.884  22.382   1.222
72165W        W40383   9.701  44.886  13.365
72166W        W40384  25.722  40.434   3.013
72167W        W40385  39.621   8.654   3.385
72168W        W40386  26.938  11.112   2.745
72169W        W40387  43.673  26.097   4.947
72170W        W40388  29.299  16.280  12.444
72171W        W40389  28.499  10.795  12.697
72172W        W40390  29.191  34.668  13.084
72173W        W40391  29.769   5.675  11.660
72174W        W40392  42.923   6.834  11.423
72175W        W40393  19.041  38.911   0.823
72176W        W40394   3.277  30.411  11.855
72177W        W40395  40.371   5.188  13.410
72178W        W40396  35.268   8.350  14.706
72179W        W40397  16.783  20.225   1.096
72180W        W40398  37.455  11.237  14.419
72181W        W40399  39.637  18.634   1.771
72182W        W40400  28.832  13.813   3.386
72183W        W40401   0.936  19.785   4.682
72184W        W40402  31.572  44.473  13.157
72185W        W40403  18.207   6.847   0.519
72186W        W40404  26.887  25.704  14.562
72187W        W40405  29.501  32.540   0.276
72188W        W40406  33.829  22.097   0.472
72189W        W40407   0.753   9.880   4.952
72190W        W40408  42.513  28.948   1.833
72191W        W40409   3.163  26.303  11.982
72192W        W40410  43.264   5.909   2.706
72193W        W40411  19.579  14.223  12.822
72194W        W40412  30.941  15.924   3.707
72195W        W40413  33.504  40.919  12.784
72196W        W40414  12.103  25.712   2.720
72197W        W40415  32.190  12.621  11.592
72198W        W40416  26.404   2.975  11.998
72199W        W40417  13.867  22.615  10.557
72200W        W40418  42.340   3.362   1.333
72201W        W40419  26.384  27.130   4.224
72202W        W40420   6.908  17.345   0.872
72203W        W40421  36.576  14.239   4.065
72204W        W40422  37.025  22.200  12.993
72205W        W40423   1.516  18.107  14.850
72206W        W40424  27.203  36.030   1.243
72207W        W40425   3.773  12.083  10.701
72208W        W40426  20.953  19.125  12.888
72209W        W40427  19.079  19.227  12.626
72210W        W40428   3.754  31.811  12.533
72211W        W40429  20.799   2.357   3.611
72212W        W40430  29.928  26.739   0.578
72213W        W40431  16.851  32.352   5.024
72214W        W40432  31.543  10.890   0.717
72215W        W40433  27.960  15.509   3.096
72216W        W40434  33.829  27.920  10.729
72217W        W40435  24.963  39.962  12.516
72218W        W40436  25.937  33.080  12.835
72219W        W40437   4.139  31.868  13.914
72220W        W40438  17.043  20.181  12.969
72221W        W40439  16.464  14.947  13.778
72222W        W40440   4.750  35.990   1.981
72223W        W40441  29.983  38.046   0.507
72224W        W40442  27.442   0.961   2.193
72225W        W40443  17.583  28.762   1.211
72226W        W40444  32.693  19.522   3.310
72227W        W40445   5.972  17.810   0.788
72228W        W40446  40.752  12.308   4.637
72229W        W40447  23.735  42.447   2.738
72230W        W40448  28.196   7.817   3.274
72231W        W40449  33.753  13.344  12.708
72232W        W40450  11.819   7.895  12.971
72233W        W40451  20.750   9.741   0.331
72234W        W40452  40.569  33.284  11.628
72235W        W40453   1.444  41.455   4.699
72236W        W40454  27.664   8.364  12.028
72237W        W40455  22.191  44.801  12.501
72238W        W40456  10.256  11.104   4.068
72239W        W40457  24.064  25.770   4.207
72240W        W40458  13.361  10.605  12.840
72241W        W40459  30.348   8.809   4.087
72242W        W40460  19.469  17.866  12.486
72243W        W40461   1.005   9.292  13.310
72244W        W40462  21.574  25.929   2.803
72245W        W40463   3.239  21.548  10.355
72246W        W40464   5.144  21.194   2.335
72247W        W40465  29.697  13.722  10.296
72248W        W40466   6.473   2.142  14.048
72249W        W40467  21.335  18.598   1.961
72250W        W40468  21.021  10.557  14.453
72251W        W40469  44.462  14.521  10.738
72252W        W40470  20.808  11.659   3.905
72253W        W40471  12.456  22.466   0.049
72254W        W40472  36.022  27.009  10.101
72255W        W40473   6.886  20.640   3.236
72256W        W40474   6.126   8.162   0.680
72257W        W40475  42.993  29.150   1.710
72258W        W40476   2.263  29.034   4.942
72259W        W40477  30.912  42.783  12.437
72260W        W40478  40.864   0.248  11.134
72261W        W40479  42.902  39.795  14.429
72262W        W40480  38.743  21.744   4.241
72263W        W40481  15.955  11.361   0.896
72264W        W40482  18.618  32.823  12.549
72265W        W40483  42.027  42.478   5.077
72266W        W40484  24.281  41.221   1.519
72267W        W40485  23.744   1.975   2.318
72268W        W40486   4.783  27.913  12.188
72269W        W40487  24.117  39.142   2.843
72270W        W40488   4.916  23.020  13.067
72271W        W40489  16.232   8.184   0.811
72272W        W40490   1.962  10.561  12.023
72273W        W40491  39.831   7.397   3.264
72274W        W40492  37.098  33.892  12.588
72275W        W40493   3.775   3.125  11.572
72276W        W40494  28.189  36.512  14.360
72277W        W40495   5.931  29.581  14.377
72278W        W40496  27.040  13.241  13.405
72279W        W40497   7.112  39.475   0.407
72280W        W40498  30.622  29.934  14.451
72281W        W40499  25.228  41.351   2.839
72282W        W40500  11.198  34.688  11.692
72283W        W40501  10.322   0.999  12.944
72284W        W40502  23.464  19.966   4.065
72285W        W40503   3.096   9.107   1.281
72286W        W40504   7.237  23.511  14.064
72287W        W40505  39.934  19.761  12.995
72288W        W40506  35.281  24.510   1.611
72289W        W40507   1.899  17.708  11.665
72290W        W40508  28.106  42.484  12.751
72291W        W40509  35.590  40.677   1.331
72292W        W40510  15.269   7.373   1.979
72293W        W40511  36.530  40.466  11.148
72294W        W40512   6.940  30.787  14.268
72295W        W40513  27.699  39.463   0.988
72296W        W40514   1.615  42.690  12.566
72297W        W40515   6.357  37.409  12.933
72298W        W40516   1.571  15.867   2.378
72299W        W40517   1.699  36.410  12.606
72300W        W40518  17.295  17.056  10.541
72301W        W40519  27.486  14.064  14.521
72302W        W40520  22.737  33.906   3.710
72303W        W40521  28.143  38.882   5.165
72304W        W40522  21.054  34.902  11.271
72305W        W40523  37.889  13.237   0.840
72306W        W40524   2.831  17.383  13.442
72307W        W40525  35.581  22.637   1.847
72308W        W40526  21.028  34.618  10.804
72309W        W40527   7.115  22.551  12.875
72310W        W40528   8.770  43.211  14.873
72311W        W40529   9.162  36.298  13.827
72312W        W40530  44.002   0.710   0.553
72313W        W40531  10.682  40.093   2.837
72314W        W40532  33.586  25.671   5.010
72315W        W40533   5.605  26.677  13.023
72316W        W40534  16.648  44.802   4.373
72317W        W40535  16.670  44.318  13.037
72318W        W40536   7.671  16.206   0.317
72319W        W40537  36.381  14.040  11.647
72320W        W40538  23.860  34.965  11.667
72321W        W40539  21.943  23.541  14.498
72322W        W40540   8.653  10.405   1.339
72323W        W40541  35.798   3.733   3.682
72324W        W40542  21.690  14.624   3.302
72325W        W40543  10.751  14.376  12.038
72326W        W40544  20.491  37.784   0.006
72327W        W40545  25.658  40.423  12.245
72328W        W40546   2.661  43.554   3.877
72329W        W40547  17.502  27.767  12.440
72330W        W40548  41.640  36.003   4.565
72331W        W40549   4.891  16.775  12.017
72332W        W40550  29.912   7.173   1.452
72333W        W40551  13.591  42.809   1.687
72334W        W40552  18.593  27.047  11.152
72335W        W40553  40.809  26.618   0.931
72336W        W40554  37.574  11.673   3.928
72337W        W40555   3.874   1.899  10.086
72338W        W40556   3.275  29.825  13.907
72339W        W40557  28.445  17.673  10.680
72340W        W40558   9.653  28.179  11.811
72341W        W40559  23.753  24.129   0.760
72342W        W40560  36.108  13.974  12.067
72343W        W40561  32.076  33.131   0.365
72344W        W40562   1.485  41.845  14.392
72345W        W40563  24.103  11.164   0.120
72346W        W40564  10.114  31.540  11.672
72347W        W40565  29.859   5.291   4.544
72348W        W40566   2.691   2.517   4.775
72349W        W40567  13.580  41.489  10.300
72350W        W40568   2.319   3.018  10.647
72351W        W40569  16.059   2.667  12.586
72352W        W40570  37.532   6.831   0.000
72353W        W40571  10.527   6.520  13.450
72354W        W40572   7.152  28.410   3.623
72355W        W40573  10.184  26.535  12.928
72356W        W40574   6.304   1.786   4.582
72357W        W40575  16.978  24.092   0.131
72358W        W40576   0.984  35.583  14.045
72359W        W40577  35.312   5.690  14.871
72360W        W40578  22.282  30.426  12.870
72361W        W40579   7.882  13.852   1.813
72362W        W40580  32.377  36.985  10.939
72363W        W40581  22.908  16.259   0.213
72364W        W40582  24.587  11.053   0.825
72365W        W40583  43.560  35.890  12.954
72366W        W40584  30.269  30.095   3.255
72367W        W40585   5.914  26.612  12.607
72368W        W40586  14.056  25.208  14.588
72369W        W40587   3.699  11.590   4.080
72370W        W40588  23.998  22.947  12.876
72371W        W40589  33.675  37.898   1.424
72372W        W40590  34.771  32.998  13.851
72373W        W40591  22.758  44.273   0.498
72374W        W40592  43.901   9.375  14.029
72375W        W40593  21.651   5.353   3.726
72376W        W40594   7.690  27.662   0.090
72377W        W40595  24.112  15.668  14.677
72378W        W40596  37.192   2.437   1.259
72379W        W40597  23.697  21.444   2.314
72380W        W40598  16.184   0.286  12.572
72381W        W40599   7.212  25.200  12.119
72382W        W40600  38.620  43.504  12.372
72383W        W40601   6.029  37.061   0.430
72384W        W40602   9.995  33.312  13.530
72385W        W40603  12.182   9.679  10.851
72386W        W40604   2.665  35.027   4.142
72387W        W40605  39.423  37.287  11.656
72388W        W40606  38.740  43.090  11.970
72389W        W40607  26.114   2.340   1.326
72390W        W40608  20.797  25.591  10.634
72391W        W40609  19.129  39.385   1.014
72392W        W40610  40.014  17.280  13.914
72393W        W40611  11.902   5.761   2.841
72394W        W40612  40.848  10.445   3.175
72395W        W40613   8.350   8.559   1.895
72396W        W40614   9.668  16.229   2.412
72397W        W40615  40.585  43.252   0.018
72398W        W40616  23.329  33.682  13.350
72399W        W40617  19.602  32.211   4.093
72400W        W40618  31.075   7.709   3.168
72401W        W40619  38.277  31.465   0.336
72402W        W40620   7.126  16.284  14.310
72403W        W40621  28.321  41.882  10.725
72404W        W40622  35.866  19.030  10.991
72405W        W40623   2.882  21.763  11.010
72406W        W40624  12.216  33.095  13.582
72407W        W40625  32.467  22.859  13.999
72408W        W40626  27.631  36.187   4.740
72409W        W40627  35.038  18.709   3.696
72410W        W40628  14.810  12.733  13.515
72411W        W40629  20.063  17.309  12.509
72412W        W40630  31.617  44.768   3.459
72413W        W40631   7.997  35.006  13.031
72414W        W40632   9.255  12.120  11.641
72415W        W40633   8.782  15.179   0.170
72416W        W40634  44.810  31.215  14.707
72417W        W40635   8.872  38.005   0.048
72418W        W40636  15.204  35.459  14.515
72419W        W40637  42.482  37.467   5.130
72420W        W40638  26.704  39.503  14.837
72421W        W40639  44.807   2.862   1.945
72422W        W40640  16.705  24.247   0.941
72423W        W40641  12.666  27.658   4.618
72424W        W40642   6.506   9.431   3.765
72425W        W40643  26.853  19.614   4.288
72426W        W40644  29.058   3.365   0.125
72427W        W40645   2.642  28.875  10.787
72428W        W40646  35.428  31.572   1.996
72429W        W40647  16.304  17.592  11.886
72430W        W40648  44.928   4.422  11.863
72431W        W40649  14.716  35.040   3.231
72432W        W40650   9.131  30.443  14.266
72433W        W40651  43.983   1.518   3.793
72434W        W40652  37.309  30.210   3.310
72435W        W40653   2.913  44.200  10.453
72436W        W40654  16.777   6.270   0.803
72437W        W40655  15.797  12.810   2.159
72438W        W40656  41.899  31.157   0.418
72439W        W40657  36.223  10.251   3.662
72440W        W40658   5.749  32.529  11.211
72441W        W40659  22.503  20.663   0.569
72442W        W40660  26.165  20.607  13.766
72443W        W40661  41.495  44.403  11.145
72444W        W40662   8.247  10.423  13.319
72445W        W40663  19.758  23.988   0.764
72446W        W40664  39.085   7.899   4.087
72447W        W40665  40.863  23.284  14.684
72448W        W40666  18.307   6.192   3.558
72449W        W40667  34.621  16.284  13.066
72450W        W40668  29.947  29.008  11.221
72451W        W40669  31.504   2.551  12.491
72452W        W40670  28.759  33.494  14.805
72453W        W40671  20.043  29.466  14.112
72454W        W40672  21.519  33.877  14.411
72455W        W40673  16.832  14.872  11.005
72456W        W40674  44.367  19.944   4.506
72457W        W40675  18.066  35.857  12.483
72458W        W40676   1.610  27.910  12.756
72459W        W40677  37.459  10.702   4.179
72460W        W40678  12.292  28.851   0.047
72461W        W40679  34.863   3.943  12.804
72462W        W40680  35.230  11.568  12.054
72463W        W40681  21.026  28.067   0.321
72464W        W40682  39.430  26.103  13.378
72465W        W40683  39.829   1.504  14.787
72466W        W40684   9.875   7.377   0.432
72467W        W40685  30.900  25.473   4.239
72468W        W40686  16.523   0.371   2.787
72469W        W40687  13.818   0.749   1.216
72470W        W40688  11.636  25.410   3.646
72471W        W40689  29.959  21.576   3.825
72472W        W40690  29.417  23.393  10.998
72473W        W40691  42.234  30.192  11.884
72474W        W40692  34.739  23.364  11.110
72475W        W40693   0.980   3.035   2.995
72476W        W40694  23.546   4.498  14.890
72477W        W40695  42.028   6.893   1.409
72478W        W40696   7.224   4.657  13.828
72479W        W40697  16.756   3.228   2.786
72480W        W40698  11.074  32.419  11.170
72481W        W40699  35.307  31.881   3.667
72482W        W40700  34.276  35.368   3.351
72483W        W40701   9.223  33.797   2.313
72484W        W40702  39.852   3.826  10.772
72485W        W40703  41.489   1.476   4.554
72486W        W40704  44.003  29.583   3.621
72487W        W40705  31.639   9.460   1.888
72488W        W40706  17.270  31.098  14.863
72489W        W40707  10.788  15.329  10.643
72490W        W40708  23.435  15.685   4.668
72491W        W40709  33.370  40.913   4.714
72492W        W40710  21.808   4.395   4.375
72493W        W40711  26.483  35.913  11.599
72494W        W40712  26.046  29.533   0.958
72495W        W40713  33.515  35.866  10.544
72496W        W40714  19.862  14.674  10.599
72497W        W40715   8.169   9.128   0.980
72498W        W40716   7.251  16.028  12.090
72499W        W40717  37.508  42.241  12.434
72500W        W40718  38.615  25.456  12.970
72501W        W40719  34.573  38.891  11.219
72502W        W40720  35.895  35.844  12.053
72503W        W40721  44.367  34.846   0.933
72504W        W40722  30.139  44.256   3.570
72505W        W40723  14.411  32.100   2.424
72506W        W40724  22.645   3.957   4.412
72507W        W40725  19.611  35.857   3.733
72508W        W40726  38.550   6.844   0.461
72509W        W40727  25.944   2.741  12.066
72510W        W40728  31.166  20.791  10.779
72511W        W40729   7.253  40.003  10.783
72512W        W40730  10.634  43.918   2.258
72513W        W40731  36.864  25.654  12.663
72514W        W40732   3.921  21.362   2.802
72515W        W40733  37.265  24.467   1.320
72516W        W40734  40.703  38.753   1.873
72517W        W40735   3.009  18.230   4.833
72518W        W40736  40.483  21.993   1.342
72519W        W40737  33.954   6.425  14.868
72520W        W40738  14.344   9.054  14.343
72521W        W40739  36.660  17.016  11.133
72522W        W40740   1.166  20.382  11.565
72523W        W40741   3.523  24.713  14.329
72524W        W40742  16.629   2.686  14.019
72525W        W40743  15.273  27.681  11.416
72526W        W40744  34.240  29.398   2.728
72527W        W40745   2.436  23.070   0.528
72528W        W40746  25.771   5.137  13.858
72529W        W40747  18.092  31.681  11.614
72530W        W40748  24.692   7.329   1.127
72531W        W40749  36.844   2.709   3.778
72532W        W40750  21.341  29.700   3.716
72533W        W40751  16.104  31.657  12.501
72534W        W40752  22.851   1.083  13.995
72535W        W40753   8.997  35.397  11.549
72536W        W40754  11.049   2.492   2.791
72537W        W40755  21.387   1.322   0.291
72538W        W40756  30.612  10.911   1.178
72539W        W40757   4.292   9.920  13.068
72540W        W40758  33.812  40.484   0.299
72541W        W40759  12.498   4.652  13.772
72542W        W40760  40.333  28.413   0.160
72543W        W40761   0.566   3.741  13.010
72544W        W40762   4.026  17.082   2.260
72545W        W40763  37.902  10.659  10.748
72546W        W40764  40.820  29.062  12.530
72547W        W40765  26.696  44.070   4.103
72548W        W40766   9.440  43.886   2.800
72549W        W40767  24.272  17.236   0.691
72550W        W40768  11.518  32.467   0.058
72551W        W40769   7.249  37.376  14.387
72552W        W40770  17.138  20.769   1.365
72553W        W40771  43.489  42.682  12.619
72554W        W40772  18.830  11.233  12.399
72555W        W40773  27.411   9.444   0.335
72556W        W40774  23.168  27.566  11.045
72557W        W40775   0.739  37.944   0.883
72558W        W40776   7.750  18.965  11.500
72559W        W40777  19.893  15.734  11.487
72560W        W40778  12.201  13.123   3.173
72561W        W40779  16.540  27.080   0.939
72562W        W40780  42.566  19.845   4.257
72563W        W40781  12.347  36.096   2.251
72564W        W40782  28.005   6.424  11.102
72565W        W40783   3.906  28.529  10.499
72566W        W40784  15.145  16.262   2.471
72567W        W40785  36.911  38.511   0.859
72568W        W40786   0.868   8.735  12.055
72569W        W40787  17.602  27.711   3.748
72570W        W40788  19.494  38.295   3.761
72571W        W40789  15.754  14.634   3.155
72572W        W40790  36.311  25.445   2.750
72573W        W40791  21.282  20.030   0.916
72574W        W40792  26.514  11.433   5.112
72575W        W40793  18.721  15.080  12.145
72576W        W40794  39.983  27.735  12.825
72577W        W40795  23.612  32.382   0.133
72578W        W40796  15.831  39.537   1.201
72579W        W40797  42.802  43.870   0.598
72580W        W40798   7.212  27.152  13.601
72581W        W40799  34.477  22.633   2.152
72582W        W40800  29.624  27.676  11.889
72583W        W40801  41.609  10.070  12.102
72584W        W40802  44.239  27.314   1.841
72585W        W40803  19.937  32.745   1.282
72586W        W40804  14.324  12.799   4.192
72587W        W40805  41.850   6.294   1.373
72588W        W40806  38.918  13.852   4.566
72589W        W40807  38.068  28.198  14.400
72590W        W40808  18.579  30.874  14.276
72591W        W40809   4.800  10.899   0.265
72592W        W40810  19.666  10.043  14.806
72593W        W40811  13.604  17.004  12.084
72594W        W40812  29.110  23.712  11.249
72595W        W40813  23.579  16.287   0.779
72596W        W40814  44.674   1.657  14.377
72597W        W40815  19.547  26.674  11.170
72598W        W40816   6.736   3.006  12.884
72599W        W40817  17.316  24.205   0.528
72600W        W40818  11.662   2.803   1.396
72601W        W40819   5.840  33.511  14.831
72602W        W40820  37.080  42.901   2.029
72603W        W40821  26.584  23.445   0.919
72604W        W40822  34.426  15.148   2.471
72605W        W40823  24.080  25.338   3.421
72606W        W40824  42.537  26.984  10.934
72607W        W40825  11.014   5.883  14.296
72608W        W40826  31.422   0.527  12.388
72609W        W40827  43.524  20.715  13.880
72610W        W40828  12.066  15.493   4.612
72611W        W40829  15.578  38.304   5.107
72612W        W40830  39.489  29.910  13.560
72613W        W40831  26.236  30.654  12.428
72614W        W40832   8.610  27.670   1.425
72615W        W40833  25.136  27.828  12.625
72616W        W40834   2.297   2.824  13.546
72617W        W40835  33.351  17.815   4.043
72618W        W40836  38.893   6.737   1.493
72619W        W40837  23.473   9.700  14.977
72620W        W40838  27.430  20.133  13.119
72621W        W40839  30.403  42.112  14.034
72622W        W40840  32.980   1.675  11.529
72623W        W40841  23.441  30.491   2.617
72624W        W40842  37.261  40.456   4.097
72625W        W40843  24.276   6.272  13.058
72626W        W40844  36.089  11.563  11.619
72627W        W40845  34.061  24.140  11.219
72628W        W40846  30.155   4.462  13.530
72629W        W40847   7.376  18.126   3.346
72630W        W40848  35.625   9.413  12.680
72631W        W40849  22.610  29.410  14.923
72632W        W40850  37.254  21.695  14.884
72633W        W40851  11.891  21.019   4.631
72634W        W40852  25.655   4.125  14.983
72635W        W40853  26.763  32.386   0.044
72636W        W40854  40.514   0.532   0.473
72637W        W40855  37.071  23.882   4.760
72638W        W40856  18.797  19.527  12.955
72639W        W40857   0.405  41.694   2.722
72640W        W40858  13.530   5.843   4.066
72641W        W40859  24.509   3.367   2.798
72642W        W40860  39.097  23.597  11.644
72643W        W40861  36.964  42.002   4.990
72644W        W40862  29.449  16.795  12.484
72645W        W40863  26.959  40.521   3.792
72646W        W40864   7.727  18.525  14.840
72647W        W40865   3.241  30.207   1.250
72648W        W40866  21.671   7.897  13.010
72649W        W40867   9.831   7.205   3.581
72650W        W40868  43.805  28.665   3.013
72651W        W40869   2.694   9.949   4.232
72652W        W40870  19.458   8.794  11.152
72653W        W40871   9.268  31.546  10.530
72654W        W40872  17.698  18.265   2.781
72655W        W40873  26.224  26.160   5.350
72656W        W40874   9.873  34.116  13.946
72657W        W40875  15.090  20.266   0.887
72658W        W40876  23.214  13.621   4.110
72659W        W40877  32.143  41.755   0.741
72660W        W40878  26.994  19.262  11.549
72661W        W40879  37.104  42.357  13.331
72662W        W40880   6.275  18.534   3.607
72663W        W40881  17.122  25.214   1.736
72664W        W40882  31.017  23.811   0.856
72665W        W40883  27.531  32.511  11.636
72666W        W40884  29.885   8.424  11.050
72667W        W40885  39.876  11.452  12.412
72668W        W40886  16.550   4.174  12.091
72669W        W40887  15.640  44.096   0.035
72670W        W40888  32.765  21.834   1.819
72671W        W40889  23.587  30.014   3.872
72672W        W40890  33.719   2.460  12.070
72673W        W40891  11.590  22.317  11.063
72674W        W40892  34.825  17.376  13.423
72675W        W40893  28.593  17.559  14.749
72676W        W40894  20.206  32.605  14.281
72677W        W40895  20.172  27.581   4.409
72678W        W40896   9.335  29.618   0.561
72679W        W40897  14.229  23.588   2.503
72680W        W40898  30.879   1.368  12.597
72681W        W40899  37.373  37.905   3.391
72682W        W40900  11.789   0.034  10.751
72683W        W40901  21.303  28.933  14.985
72684W        W40902  21.051  10.810   3.095
72685W        W40903  40.541  23.797  13.000
72686W        W40904  44.291  12.366   3.466
72687W        W40905  18.034  32.663   2.702
72688W        W40906  15.267  15.601  13.868
72689W        W40907  35.138  13.752  12.825
72690W        W40908   3.133   8.605  11.460
72691W        W40909  39.406  15.292   0.028
72692W        W40910  23.284  29.545  14.485
72693W        W40911  36.713  20.687   2.396
72694W        W40912  16.908  35.419   4.543
72695W        W40913  26.132  21.474   1.654
72696W        W40914  34.772  10.164  12.464
72697W        W40915  26.446  27.592  11.561
72698W        W40916  21.159   6.907  14.477
72699W        W40917   7.373  36.078  13.559
72700W        W40918  41.291   6.916   1.651
72701W        W40919  26.046   4.370   4.538
72702W        W40920  31.492  26.298   2.325
72703W        W40921  21.114  28.621   2.752
72704W        W40922   1.779  14.480   2.247
72705W        W40923  25.247  36.780  14.540
72706W        W40924  35.244  36.356  10.549
72707W        W40925   7.892  13.422  10.752
72708W        W40926  10.050  37.444  13.945
72709W        W40927  22.458   3.840   2.431
72710W        W40928  36.438  21.014   3.163
72711W        W40929  13.748  10.791   2.630
72712W        W40930  31.868  23.231   3.637
72713W        W40931  25.054  44.877   3.193
72714W        W40932  34.155  12.710   4.759
72715W        W40933  39.053  10.691   2.737
72716W        W40934  26.188  34.855   4.975
72717W        W40935  30.247  33.599   2.317
72718W        W40936   7.445   2.426   4.090
72719W        W40937  31.965  14.831  11.562
72720W        W40938   2.369   7.065  14.456
72721W        W40939  22.240  15.346   1.749
72722W        W40940  43.476  24.827   0.831
72723W        W40941  13.871  36.153  11.389
72724W        W40942  42.667  40.979  12.615
72725W        W40943  31.628  36.378   1.443
72726W        W40944  43.839   7.549   2.498
72727W        W40945  24.040  38.824  11.486
72728W        W40946  15.540  18.793  13.335
72729W        W40947  42.816   8.377   2.939
72730W        W40948   5.131  13.095   2.658
72731W        W40949   8.092   0.389  10.426
72732W        W40950  41.469  18.776   2.172
72733W        W40951  39.490   7.771   3.390
72734W        W40952   6.495  42.616  11.148
72735W        W40953   7.194   1.917   3.855
72736W        W40954   6.358  24.744  11.119
72737W        W40955  16.547  40.020   2.138
72738W        W40956  16.671  21.336  12.059
72739W        W40957  30.183  35.885  13.110
72740W        W40958   5.662  34.045   2.267
72741W        W40959  29.140   3.455   5.315
72742W        W40960  13.085  21.877  13.861
72743W        W40961  30.004   1.687   4.602
72744W        W40962   0.032  20.119  11.576
72745W        W40963  39.267  15.732   1.838
72746W        W40964  34.122  15.265   4.310
72747W        W40965  28.373  36.827  14.926
72748W        W40966  15.851  22.425  10.906
72749W        W40967  38.906  23.982  13.388
72750W        W40968  16.583  11.697  11.510
72751W        W40969   4.398  18.075  13.072
72752W        W40970  13.639  40.878   1.837
72753W        W40971   4.076  41.540   0.446
72754W        W40972   0.874  29.694  12.147
72755W        W40973  21.357  38.995  13.334
72756W        W40974  43.272   0.819  11.173
72757W        W40975  32.465  35.507   1.278
72758W        W40976  34.101   2.820  12.002
72759W        W40977  30.158  38.368   2.833
72760W        W40978  19.249  27.729   3.757
72761W        W40979  21.690  13.032   4.999
72762W        W40980  10.190   2.908   2.312
72763W        W40981  27.567  25.216   0.401
72764W        W40982   3.561  29.979   0.227
72765W        W40983   4.014  36.958   3.860
72766W        W40984  35.543   6.089   4.172
72767W        W40985  41.915   6.135   4.566
72768W        W40986  30.491  19.448  14.302
72769W        W40987  43.393  36.423   4.045
72770W        W40988  14.655  22.245   4.413
72771W        W40989  30.408  33.067   2.102
72772W        W40990  21.558   1.852   3.584
72773W        W40991   1.809   9.839   0.904
72774W        W40992   1.398  44.925   1.186
72775W        W40993  27.736  25.708   0.504
72776W        W40994  20.755   9.306  12.353
72777W        W40995  37.771  17.555   2.406
72778W        W40996  22.521  20.755  13.936
72779W        W40997   4.500  38.830   4.124
72780W        W40998  21.571  13.625  10.600
72781W        W40999  30.947  18.804   0.643
72782W        W41000  19.760  39.328   0.225
72783W        W41001  43.836  15.761   2.307
72784W        W41002  23.119  40.075   0.008
72785W        W41003   9.932  41.438  10.745
72786W        W41004  17.573   4.941  14.519
72787W        W41005  37.094   1.443   2.867
72788W        W41006   2.370   6.764   3.872
72789W        W41007  19.369  29.391  11.074
72790W        W41008  20.253  41.708  12.943
72791W        W41009   5.068  17.244  14.296
72792W        W41010  35.608  14.159   2.618
72793W        W41011  20.949  13.282  14.782
72794W        W41012  18.604  44.518   0.671
72795W        W41013   5.794   0.418   1.015
72796W        W41014  40.763   0.340  14.339
72797W        W41015  37.284  22.679   2.328
72798W        W41016  24.667  18.986   4.124
72799W        W41017  14.345  33.958   1.859
72800W        W41018   2.538   9.790  13.311
72801W        W41019   0.949   1.181   2.940
72802W        W41020  44.913  40.997   0.973
72803W        W41021  43.404  10.297  13.261
72804W        W41022   0.315  44.492  11.375
72805W        W41023  38.350   5.858   1.279
72806W        W41024  43.302  36.837   2.761
72807W        W41025  22.289   6.113   0.723
72808W        W41026   5.967  44.206  11.436
72809W        W41027   8.117  15.584  12.016
72810W        W41028   9.758  14.804   0.808
72811W        W41029  30.438  23.757   2.841
72812W        W41030   2.725  26.841  13.944
72813W        W41031  20.352  22.118   3.580
72814W        W41032  19.804  20.641  10.449
72815W        W41033  42.382   7.158  13.364
72816W        W41034  33.414  16.660  12.633
72817W        W41035  39.464  35.071  13.637
72818W        W41036  36.293  30.892   4.126
72819W        W41037  10.231  34.853   2.347
72820W        W41038  22.755  27.875   2.706
72821W        W41039  16.099  26.042   1.749
72822W        W41040  22.392  41.488  11.194
72823W        W41041  23.220   5.455   3.625
72824W        W41042   6.432  22.919   3.274
72825W        W41043  18.045   3.772   3.809
72826W        W41044  43.094  25.594  13.751
72827W        W41045  22.240  41.941   2.152
72828W        W41046  10.638   7.900   3.782
72829W        W41047  16.702  39.930   0.839
72830W        W41048  43.942  30.105   0.832
72831W        W41049  12.988   1.666  13.290
72832W        W41050  34.007  15.312   0.847
72833W        W41051   5.682  34.912   4.234
72834W        W41052  18.873  12.345   0.862
72835W        W41053  29.547  24.216   1.871
72836W        W41054  26.064  12.793   0.633
72837W        W41055   8.682  43.578   0.802
72838W        W41056  10.110  18.967  14.379
72839W        W41057  23.059  41.054   1.538
72840W        W41058   9.609  13.262   0.887
72841W        W41059   0.042  19.286  13.225
72842W        W41060  42.791  29.406  12.095
72843W        W41061  19.167  33.237   0.770
72844W        W41062  35.747   3.239   1.763
72845W        W41063  26.909  15.953   4.007
72846W        W41064  22.453  19.629   3.175
72847W        W41065   3.426  13.404   2.488
72848W        W41066   1.988  27.063  12.544
72849W        W41067  40.540  42.415  14.987
72850W        W41068  42.458  40.142   4.330
72851W        W41069  41.403  20.108  14.295
72852W        W41070   6.815  41.820  14.842
72853W        W41071   2.761  42.488  11.258
72854W        W41072  10.126  22.493  13.060
72855W        W41073  32.878  20.538  11.599
72856W        W41074  31.515   2.319   4.961
72857W        W41075   2.226  37.030   3.205
72858W        W41076  19.989   3.192  14.853
72859W        W41077  21.469  40.505   2.709
72860W        W41078  25.465  23.004  13.082
72861W        W41079  35.147  22.093   2.550
72862W        W41080  25.540   0.598  13.877
72863W        W41081  33.946  27.653   4.127
72864W        W41082  28.774   2.765   2.352
72865W        W41083  17.822  31.899  14.758
72866W        W41084  11.198  38.815   1.095
72867W        W41085  39.373  35.380   3.730
72868W        W41086  34.868  41.559  14.558
72869W        W41087  24.616   3.770  14.488
72870W        W41088  37.159   4.847   3.685
72871W        W41089   4.350  30.404   2.830
72872W        W41090   1.918  22.248   3.111
72873W        W41091  39.483  38.536   3.374
72874W        W41092  34.474   0.020   0.868
72875W        W41093  40.501  19.347   0.273
72876W        W41094  14.384   1.576   3.761
72877W        W41095  31.524   3.826   2.745
72878W        W41096  31.414  34.035   0.669
72879W        W41097   5.731  22.665  10.739
72880W        W41098   0.477  33.630   2.228
72881W        W41099   7.394  31.028  12.550
72882W        W41100  10.930  39.071   4.095
72883W        W41101  16.942   0.350  14.443
72884W        W41102   7.853  15.876  12.926
72885W        W41103  10.128  13.169   1.730
72886W        W41104  37.516  16.805   4.126
72887W        W41105  14.417  31.570   4.183
72888W        W41106  27.715  22.776   5.187
72889W        W41107   8.186  39.511  13.604
72890W        W41108  36.346   9.927   4.356
72891W        W41109  21.756  27.924  11.637
72892W        W41110  41.527  32.619   3.650
72893W        W41111   5.692  27.877  12.050
72894W        W41112  21.790  44.531  12.178
72895W        W41113  41.907   2.223  13.124
72896W        W41114  30.239  20.692   2.175
72897W        W41115  30.087  15.148   3.381
72898W        W41116   2.191  20.531   4.248
72899W        W41117  10.191  29.919  11.029
72900W        W41118   2.144  28.119  12.899
72901W        W41119  17.609  19.971   1.383
72902W        W41120   3.866  42.680   5.135
72903W        W41121  26.599  41.753  14.550
72904W        W41122  25.662  25.094   1.766
72905W        W41123  23.137  36.902  13.470
72906W        W41124   2.497  44.970   2.590
72907W        W41125  25.821  26.429   0.467
72908W        W41126   2.445  20.546  12.527
72909W        W41127  23.490   8.464   2.316
72910W        W41128  27.469  12.597   2.097
72911W        W41129  37.047  33.711  12.080
72912W        W41130  44.534  17.717  12.383
72913W        W41131  11.066  39.963   4.188
72914W        W41132  11.201  42.589  10.766
72915W        W41133   1.507  42.844  11.229
72916W        W41134  15.144   4.212   4.763
72917W        W41135  42.321  40.052  12.904
72918W        W41136  32.561  41.560  12.084
72919W        W41137  33.243   0.470   0.882
72920W        W41138   7.413  43.577  10.981
72921W        W41139  24.598  15.790  14.864
72922W        W41140  41.876  23.229  14.793
72923W        W41141  25.068  25.399  12.467
72924W        W41142  40.040   5.705   4.484
72925W        W41143  38.839  37.119   2.312
72926W        W41144  17.754  15.652   0.104
72927W        W41145  24.556  29.825  14.110
72928W        W41146  16.095   7.717   0.074
72929W        W41147  32.638   6.470  11.998
72930W        W41148  37.268  14.847   4.094
72931W        W41149  39.046  39.981  13.800
72932W        W41150   4.791  22.229   0.919
72933W        W41151  44.450  38.574   2.404
72934W        W41152  35.601  40.013   3.080
72935W        W41153   9.332  35.839   0.248
72936W        W41154   4.252   6.754   4.655
72937W        W41155  44.446  44.212   1.283
72938W        W41156  41.495  31.525   3.260
72939W        W41157  31.267  13.661   1.691
72940W        W41158  42.968  35.004  13.853
72941W        W41159   4.182  44.740   5.019
72942W        W41160  26.559   7.369   3.750
72943W        W41161  36.477  18.631  12.382
72944W        W41162   6.444  41.084  12.812
72945W        W41163  30.564   0.874   2.130
72946W        W41164  16.404  18.718   2.910
72947W        W41165  26.324  19.688   2.339
72948W        W41166  27.522  17.604   4.228
72949W        W41167  42.399  21.743  11.451
72950W        W41168  30.540   0.943   2.648
72951W        W41169  15.882  17.112   4.720
72952W        W41170  40.586  43.055   2.619
72953W        W41171  39.551  41.387   1.877
72954W        W41172   8.641   5.149  12.838
72955W        W41173  17.926  24.944  13.052
72956W        W41174  21.171  41.074  14.393
72957W        W41175  20.328   6.566  11.904
72958W        W41176   2.766  20.275  11.438
72959W        W41177  23.046  29.786   3.611
72960W        W41178   2.125  26.400   0.421
72961W        W41179  10.444  27.514   1.781
72962W        W41180  20.529   4.508   4.258
72963W        W41181   1.413   2.913  12.438
72964W        W41182   2.733   5.295  10.952
72965W        W41183  16.477   8.471  12.513
72966W        W41184  22.667  38.629  14.984
72967W        W41185  43.803  15.299  13.148
72968W        W41186  22.791  44.549  13.961
72969W        W41187   7.672  17.046   2.757
72970W        W41188   6.213  38.931  14.195
72971W        W41189  32.982  14.345  12.380
72972W        W41190  26.278  13.875   0.004
72973W        W41191   2.956   7.819   4.310
72974W        W41192  39.272  14.668  10.616
72975W        W41193  22.027   6.132  11.183
72976W        W41194  16.068   0.569  13.928
72977W        W41195  23.240  19.770   1.884
72978W        W41196  44.475  13.382   4.562
72979W        W41197  16.361  42.762  12.089
72980W        W41198  20.298   7.847  11.276
72981W        W41199  27.276   3.098  14.482
72982W        W41200  32.444  12.592  11.124
72983W        W41201  19.521  28.407  11.784
72984W        W41202  35.133  42.876  13.929
72985W        W41203  22.585  21.169   2.712
72986W        W41204  16.338  25.664  14.402
72987W        W41205  42.504   8.122  12.301
72988W        W41206   7.241   4.048   2.228
72989W        W41207   7.937  44.979  11.907
72990W        W41208  29.825  10.374  12.322
72991W        W41209  27.443  26.255   2.260
72992W        W41210  37.448  10.344  12.036
72993W        W41211  40.687   0.998   3.098
72994W        W41212  17.563  39.243   3.677
72995W        W41213   4.386  35.422  14.603
72996W        W41214   4.145   8.472  12.148
72997W        W41215  13.658   7.295  10.681
72998W        W41216  41.970  13.137   2.568
72999W        W41217  21.726   4.852  11.548
73000W        W41218  35.554  16.105   3.971
73001W        W41219  27.214   4.266  13.029
73002W        W41220  42.434  16.274  14.083
73003W        W41221  28.264  13.035   9.825
73004W        W41222  19.837  39.781   0.486
73005W        W41223   3.805  35.805   1.730
73006W        W41224  26.319  20.228  11.665
73007W        W41225  16.318  17.188  12.813
73008W        W41226   2.246   5.077   0.409
73009W        W41227  11.480  42.353  13.645
73010W        W41228  44.796   3.579   3.754
73011W        W41229  20.532  36.782   5.449
73012W        W41230  19.707   0.246  14.295
73013W        W41231   6.414   1.507   2.216
73014W        W41232  13.431   3.656  11.429
73015W        W41233  15.203   8.323   0.451
73016W        W41234  43.517   2.766   3.711
73017W        W41235  22.320  26.485   2.407
73018W        W41236  25.284  39.359  13.171
73019W        W41237  31.725  10.736  14.034
73020W        W41238   2.870   3.396   3.225
73021W        W41239  31.250  21.214  14.414
73022W        W41240  29.454  40.566   0.406
73023W        W41241  25.209  22.425   2.931
73024W        W41242  42.499  26.352   0.536
73025W        W41243   4.756  22.763  11.712
73026W        W41244  17.814  16.294   0.873
73027W        W41245  28.764  18.356  14.596
73028W        W41246  44.251  24.267  10.677
73029W        W41247  15.717   7.821  11.049
73030W        W41248   4.058  26.683  10.734
73031W        W41249   4.197  15.054  10.773
73032W        W41250  42.536  30.846  11.667
73033W        W41251  26.390  11.885  14.444
73034W        W41252  15.284  33.052   3.682
73035W        W41253  12.662   5.044   0.502
73036W        W41254  23.269  22.786  14.443
73037W        W41255  32.091  20.198  10.696
73038W        W41256  22.052  33.938  11.128
73039W        W41257  40.613  23.519  11.656
73040W        W41258  19.983  11.636  12.376
73041W        W41259  41.522   2.244   3.657
73042W        W41260   6.187  21.597   3.310
73043W        W41261  24.174  16.711   0.680
73044W        W41262  28.731  33.633   1.941
73045W        W41263  39.582  43.401  14.872
73046W        W41264  34.154  38.027   3.580
73047W        W41265  26.435  13.033   3.495
73048W        W41266  22.484   8.898   1.374
73049W        W41267  41.485  15.102   3.247
73050W        W41268  35.638  35.988  11.408
73051W        W41269  10.618  30.355   3.711
73052W        W41270  41.995   2.756   0.953
73053W        W41271  29.486   3.210   0.958
73054W        W41272   2.373  35.549  10.818
73055W        W41273  36.438  14.368  12.562
73056W        W41274  41.573  25.134  11.900
73057W        W41275   3.494  12.546  11.981
73058W        W41276   8.266  30.305   3.218
73059W        W41277   5.556  24.151  10.611
73060W        W41278  38.068  12.393   4.022
73061W        W41279  25.748  40.012   2.011
73062W        W41280  31.996  12.686  14.433
73063W        W41281   8.966   4.577  10.776
73064W        W41282  41.028  43.160   2.377
73065W        W41283  29.217  24.445  11.698
73066W        W41284  26.228  29.936   3.794
73067W        W41285  43.354  32.772  13.887
73068W        W41286  11.927  24.336   2.444
73069W        W41287  15.629  26.734  12.060
73070W        W41288  13.344  27.376  14.320
73071W        W41289  17.693  43.686  11.526
73072W        W41290   3.740  37.928  11.677
73073W        W41291  18.606  33.475  13.460
73074W        W41292  43.492  17.241   0.903
73075W        W41293   4.856  12.671  13.641
73076W        W41294  39.375  16.138  13.508
73077W        W41295  14.871  41.385  10.674
73078W        W41296  42.248   0.961  12.385
73079W        W41297   6.966  37.961  14.877
73080W        W41298   6.992  34.484   1.498
73081W        W41299   0.873  13.853   0.930
73082W        W41300  13.689  28.214  13.023
73083W        W41301  31.120  43.900  10.588
73084W        W41302   0.059  32.840  11.354
73085W        W41303  33.735  20.704  13.965
73086W        W41304   8.819  35.316   4.380
73087W        W41305  34.355   0.757   4.036
73088W        W41306  37.635  29.474  12.553
73089W        W41307  35.382   0.730  14.471
73090W        W41308   1.774  14.353  10.525
73091W        W41309   2.772   9.366   4.906
73092W        W41310   4.203  44.362   4.167
73093W        W41311  40.200   5.293   2.750
73094W        W41312  33.613  44.729  14.770
73095W        W41313   6.252  38.336  11.000
73096W        W41314   9.412   4.526   3.027
73097W        W41315  26.238  15.795   0.499
73098W        W41316  20.066  22.738   0.931
73099W        W41317  28.131  23.697   3.865
73100W        W41318  20.118  16.902  10.714
73101W        W41319   7.461  40.471   3.547
73102W        W41320  32.941  14.865  12.467
73103W        W41321  35.392  31.514   0.813
73104W        W41322  10.572   5.988  12.056
73105W        W41323  25.012   2.575  11.150
73106W        W41324   1.122  39.431  12.655
73107W        W41325  34.915  13.680  13.877
73108W        W41326  40.045   4.915   3.103
73109W        W41327   5.735  24.239  13.854
73110W        W41328  19.204   0.567  10.698
73111W        W41329  41.793   3.894   1.720
73112W        W41330  34.045  25.672   2.426
73113W        W41331   1.311  35.868   0.759
73114W        W41332  28.510  41.563  11.540
73115W        W41333  24.163  22.476   3.696
73116W        W41334  12.146  38.020   1.232
73117W        W41335   9.631  43.846   2.322
73118W        W41336  28.579  17.026   0.672
73119W        W41337   4.781  22.772   4.890
73120W        W41338  34.288  19.220   2.219
73121W        W41339   9.302  36.577  14.234
73122W        W41340  17.352  19.492  14.052
73123W        W41341  20.710  40.703  14.215
73124W        W41342  22.205  44.367  10.788
73125W        W41343   7.189   7.668  10.561
73126W        W41344  29.461   1.363  12.065
73127W        W41345  34.519  33.470  12.965
73128W        W41346   6.493  18.448   1.280
73129W        W41347  44.858  10.350   4.349
73130W        W41348   1.318  31.868  11.484
73131W        W41349  11.758  23.497  11.786
73132W        W41350  12.253  17.336   2.401
73133W        W41351   4.876   3.653  14.367
73134W        W41352  21.704  38.974  11.959
73135W        W41353  36.012  28.509  13.584
73136W        W41354   5.697  26.177  12.341
73137W        W41355  38.319  41.580  11.192
73138W        W41356  24.353  36.005   5.002
73139W        W41357  13.219  16.530   1.883
73140W        W41358  41.384  11.796  14.207
73141W        W41359  17.592   6.919   2.300
73142W        W41360  26.464  26.022   0.265
73143W        W41361  28.019  20.747  10.771
73144W        W41362  30.856   4.018   1.844
73145W        W41363   7.087   8.240  14.039
73146W        W41364   0.436   1.366   3.602
73147W        W41365  37.412   5.752  14.862
73148W        W41366  25.199  36.343  13.853
73149W        W41367  33.294  10.689  10.428
73150W        W41368  17.638  40.945   3.224
73151W        W41369  15.026   0.429  13.886
73152W        W41370   4.338  17.663   4.151
73153W        W41371  26.835   5.032  10.883
73154W        W41372  20.194  12.666  10.710
73155W        W41373  43.428  43.422   4.216
73156W        W41374  38.918  44.759   2.893
73157W        W41375  42.800  43.993  13.476
73158W        W41376  14.300  27.393  10.989
73159W        W41377  32.371  21.492   1.713
73160W        W41378  42.062  15.922   3.457
73161W        W41379  39.842   9.176   1.754
73162W        W41380  43.827  19.566  14.997
73163W        W41381  17.255  24.775  10.375
73164W        W41382  13.694  33.922  12.545
73165W        W41383  32.894  11.329  11.341
73166W        W41384  29.297  15.799   1.367
73167W        W41385  39.847  15.552   3.024
73168W        W41386  22.487  35.978  12.036
73169W        W41387  12.861  18.610  11.133
73170W        W41388  42.308  34.333  13.921
73171W        W41389  28.590   1.242   2.121
73172W        W41390   7.416   2.434   2.130
73173W        W41391   6.730  26.256  12.847
73174W        W41392  24.881  10.139   2.185
73175W        W41393  14.905  44.758   0.282
73176W        W41394  18.168  41.621  14.455
73177W        W41395  35.535  39.872  13.902
73178W        W41396  39.094  19.322  14.339
73179W        W41397  38.433  28.415  10.685
73180W        W41398   5.351  35.073  12.564
73181W        W41399   3.513  18.257  10.335
73182W        W41400  26.287   0.846   4.646
73183W        W41401  32.319  21.580   4.174
73184W        W41402  20.206  42.794  11.608
73185W        W41403  13.179  35.206  14.950
73186W        W41404  38.124  13.693   4.227
73187W        W41405   6.764  11.197  10.699
73188W        W41406  38.995  26.757  14.924
73189W        W41407  33.719  22.205  11.090
73190W        W41408  28.961  11.460  12.433
73191W        W41409   1.519  38.908   1.309
73192W        W41410  28.662  34.395   3.213
73193W        W41411   2.487   9.170  14.778
73194W        W41412  28.150  21.584  13.910
73195W        W41413  11.446  24.159   2.354
73196W        W41414  43.781  29.399   4.045
73197W        W41415  44.910  40.084  14.930
73198W        W41416  42.248  12.079  12.526
73199W        W41417  29.645  36.578  12.328
73200W        W41418  15.561  11.716  14.656
73201W        W41419  16.094  17.619  14.461
73202W        W41420  14.679  28.468  12.907
73203W        W41421  10.086  20.554  13.494
73204W        W41422  26.492  41.452   2.654
73205W        W41423  32.984  33.090  12.345
73206W        W41424  23.609  24.818   9.748
73207W        W41425  10.121  10.749   1.408
73208W        W41426  41.796  40.694  12.398
73209W        W41427  12.581   3.884  12.828
73210W        W41428  22.295  18.912   1.901
73211W        W41429   2.179  12.429   1.108
73212W        W41430  16.672   1.157   3.419
73213W        W41431  25.949  36.622  11.690
73214W        W41432  15.175  16.035   4.860
73215W        W41433  41.290  23.108  12.032
73216W        W41434  11.994   6.797  12.016
73217W        W41435   5.761  24.471  12.026
73218W        W41436  30.999   5.232  11.850
73219W        W41437  24.723   2.918   2.654
73220W        W41438  14.257  21.238   0.336
73221W        W41439  28.461  14.088  13.617
73222W        W41440  18.997   7.134   2.442
73223W        W41441  33.603  43.681   4.653
73224W        W41442   4.743  43.257   1.399
73225W        W41443  22.164  30.577   4.225
73226W        W41444  18.972  12.264   3.066
73227W        W41445  22.430   3.821   3.363
73228W        W41446  43.456  29.468   4.741
73229W        W41447  31.709  44.958  13.833
73230W        W41448  23.129  27.048  13.939
73231W        W41449  43.038   8.470   3.398
73232W        W41450  16.211  22.574  14.427
73233W        W41451   1.268  41.363  14.472
73234W        W41452  26.518  12.815  12.560
73235W        W41453  13.191  19.381  10.881
73236W        W41454  38.265  43.288   4.316
73237W        W41455   4.174  19.824  12.783
73238W        W41456  20.004  11.311   0.576
73239W        W41457  33.622  29.876   4.173
73240W        W41458   9.842   4.782   2.631
73241W        W41459  17.437  27.411   4.923
73242W        W41460   4.823  43.710   3.865
73243W        W41461   4.324   5.130  14.108
73244W        W41462  12.666   8.980   0.895
73245W        W41463  43.356  43.985  12.947
73246W        W41464   3.249   4.761   1.219
73247W        W41465  11.045  36.482  13.389
73248W        W41466   7.504  24.726  13.409
73249W        W41467  39.713  26.265   0.771
73250W        W41468   0.205  27.152  12.500
73251W        W41469  36.077  26.431  13.827
73252W        W41470  39.551  18.529  14.378
73253W        W41471  17.475   5.485   2.232
73254W        W41472  41.710  12.717   1.205
73255W        W41473  26.205  17.231  13.091
73256W        W41474  28.099  40.257   4.460
73257W        W41475   6.862   1.156   0.357
73258W        W41476  11.361  12.676   0.731
73259W        W41477   9.241   8.399   1.664
73260W        W41478   5.664  30.260   1.628
73261W        W41479  32.104  25.994  12.505
73262W        W41480  34.622   4.322  14.569
73263W        W41481  15.747  17.624  14.925
73264W        W41482  28.527  10.336   3.198
73265W        W41483   1.951  44.606   1.946
73266W        W41484  39.286  20.170  12.846
73267W        W41485  38.484  23.065   3.451
73268W        W41486   6.152  23.196   3.759
73269W        W41487  35.942   9.520  14.129
73270W        W41488  29.243  41.095  13.330
73271W        W41489  20.812  29.914   4.918
73272W        W41490  12.674  19.800  14.146
73273W        W41491  30.542  33.236   1.590
73274W        W41492  43.437   9.435  10.928
73275W        W41493  10.775  38.292   3.343
73276W        W41494   4.958  36.306  13.068
73277W        W41495  12.614  11.638   2.178
73278W        W41496  11.191   9.307  14.186
73279W        W41497  15.542  12.256  11.135
73280W        W41498  43.859  34.439   3.335
73281W        W41499  34.406  34.902   3.505
73282W        W41500  14.307  31.312   0.211
73283W        W41501  35.816   0.811   2.739
73284W        W41502   2.682  36.010  13.847
73285W        W41503  38.077  39.001  11.604
73286W        W41504  10.719  11.212  12.882
73287W        W41505   7.283  22.034  12.853
73288W        W41506   8.315  23.620   1.839
73289W        W41507  33.916  20.067   1.721
73290W        W41508  19.915   2.187  10.946
73291W        W41509   9.822  36.353   2.746
73292W        W41510  23.747  34.634   4.212
73293W        W41511   1.763  26.128   0.698
73294W        W41512  30.200   4.755  10.638
73295W        W41513  26.106  12.743   2.171
73296W        W41514  41.349  29.433   1.735
73297W        W41515   9.383  33.692  13.041
73298W        W41516  39.558  39.907  12.350
73299W        W41517  36.642   6.191   0.149
73300W        W41518  38.410  15.015   1.331
73301W        W41519  30.543  26.208  10.452
73302W        W41520   3.979  37.411  10.677
73303W        W41521  31.161  30.507  13.342
73304W        W41522  40.989  34.582  10.940
73305W        W41523  32.196   1.007  12.801
73306W        W41524  29.804  32.363   3.864
73307W        W41525  14.323  20.551   3.716
73308W        W41526  20.581  34.269   0.503
73309W        W41527  16.072  39.454  14.461
73310W        W41528  15.096  36.507   1.927
73311W        W41529  29.650   3.755  12.392
73312W        W41530   4.867  40.919   2.259
73313W        W41531  29.568   1.910  13.313
73314W        W41532  14.104  42.917  14.403
73315W        W41533   0.423  11.395  14.337
73316W        W41534   2.794  32.459  10.401
73317W        W41535  17.571   8.699   0.943
73318W        W41536  13.585  20.411  12.839
73319W        W41537   1.485   2.311   3.164
73320W        W41538  29.208   1.723   4.260
73321W        W41539  20.882  10.942  13.096
73322W        W41540   1.922  15.275   3.113
73323W        W41541  26.524  20.462  12.132
73324W        W41542   8.222  34.259   1.749
73325W        W41543  13.994  13.349  11.558
73326W        W41544  30.139  34.160   4.548
73327W        W41545   4.971  26.569   3.743
73328W        W41546  29.946   8.885   0.198
73329W        W41547  36.053  24.987   1.831
73330W        W41548  17.690  25.728  12.037
73331W        W41549  26.155  31.583  12.730
73332W        W41550  30.178  43.958   2.290
73333W        W41551  25.235  30.088  11.155
73334W        W41552  21.365  38.586  10.972
73335W        W41553  43.763  15.052   2.770
73336W        W41554   5.391  16.013   0.733
73337W        W41555   3.804  35.345  12.026
73338W        W41556  44.261  10.187   1.276
73339W        W41557  34.142  18.788  13.878
73340W        W41558  44.215  38.876   1.885
73341W        W41559  19.643  30.365  10.522
73342W        W41560  18.094  10.886   3.276
73343W        W41561   3.396   5.077  11.484
73344W        W41562  20.607  16.030  10.297
73345W        W41563  25.270   8.220  10.469
73346W        W41564   7.753   9.192   0.462
73347W        W41565  34.945  21.674  14.311
73348W        W41566   7.671  25.655  12.877
73349W        W41567   7.673  13.852  12.872
73350W        W41568  17.064  37.810   1.448
73351W        W41569  14.574  10.327   3.068
73352W        W41570  30.934  38.104   4.367
73353W        W41571   7.651  42.590  13.839
73354W        W41572  27.392  29.057  11.101
73355W        W41573   0.393   5.209  13.990
73356W        W41574   8.260   3.785  12.458
73357W        W41575   7.811  38.418   1.896
73358W        W41576   6.939  43.418   1.487
73359W        W41577  32.692   6.623   1.411
73360W        W41578  16.102  44.907  12.903
73361W        W41579  15.809  26.473   3.167
73362W        W41580  11.858  21.917  13.174
73363W        W41581  36.597  24.782   3.277
73364W        W41582  14.557   1.699  11.241
73365W        W41583  25.839  33.050  13.825
73366W        W41584  19.679  28.985   4.769
73367W        W41585  16.881   1.082   1.713
73368W        W41586  42.498  25.093   3.304
73369W        W41587  28.963  33.939  11.443
73370W        W41588   8.388  25.589   3.157
73371W        W41589   0.453  41.514  13.527
73372W        W41590  40.512   0.028   4.592
73373W        W41591  35.274  38.424   1.320
73374W        W41592  12.181  34.365  11.544
73375W        W41593  10.116   2.839   3.300
73376W        W41594  27.860   5.092  10.868
73377W        W41595  19.126   9.552   1.230
73378W        W41596  27.271  23.184  13.936
73379W        W41597  32.915  32.175  14.476
73380W        W41598   7.409  23.998   3.797
73381W        W41599   9.627  22.208  12.958
73382W        W41600  21.490  11.083   3.630
73383W        W41601   3.003  27.894  12.564
73384W        W41602  33.036  24.422  10.368
73385W        W41603  23.754  41.938  13.020
73386W        W41604  13.726   8.919  11.847
73387W        W41605  37.415  13.094   0.800
73388W        W41606   9.135  33.410   3.587
73389W        W41607  17.309  29.488  11.150
73390W        W41608  37.514  13.692  14.927
73391W        W41609  23.154  43.388   2.382
73392W        W41610  31.487  33.935   4.896
73393W        W41611  21.138  21.183   4.607
73394W        W41612  31.157  38.022   1.434
73395W        W41613  23.288  22.867   0.799
73396W        W41614  31.973  28.698   4.906
73397W        W41615  11.097  11.719   2.794
73398W        W41616   0.241  42.112   0.762
73399W        W41617  32.573  13.231  10.728
73400W        W41618  38.560  29.422  14.907
73401W        W41619  32.099  35.853  10.653
73402W        W41620   1.315  30.547  13.511
73403W        W41621  33.063  16.072   4.178
73404W        W41622  43.149  11.792   3.183
73405W        W41623  21.702  29.112  11.575
73406W        W41624  20.144   4.230   1.623
73407W        W41625  29.725   7.808  12.180
73408W        W41626   6.960  29.729  10.506
73409W        W41627  26.109  31.631   2.571
73410W        W41628  19.231  31.793   1.034
73411W        W41629   3.013  26.589  10.790
73412W        W41630  20.257  33.049   4.218
73413W        W41631  23.739  17.604   1.784
73414W        W41632  40.364  11.167  14.781
73415W        W41633  17.721  17.545   0.183
73416W        W41634   0.818  14.353   0.797
73417W        W41635  33.556  42.395  13.441
73418W        W41636   9.813  13.705  14.287
73419W        W41637  33.036  25.521  10.031
73420W        W41638  19.198  16.713  14.141
73421W        W41639   6.878  39.341  14.966
73422W        W41640  12.041  37.489  13.648
73423W        W41641  21.996  34.986  11.173
73424W        W41642  16.125   1.918  13.837
73425W        W41643  23.648   8.993  14.264
73426W        W41644   8.550  42.540   4.193
73427W        W41645  19.238   4.301   4.157
73428W        W41646  20.470  34.111   0.001
73429W        W41647   2.268  37.363   2.316
73430W        W41648  18.405  18.655  14.301
73431W        W41649   8.726   8.088  11.634
73432W        W41650   5.842  20.069   0.415
73433W        W41651  39.046  17.235   1.687
73434W        W41652  25.622  30.338   2.952
73435W        W41653   2.860  26.693   3.036
73436W        W41654  40.341  13.099  11.472
73437W        W41655  33.156  35.878   0.969
73438W        W41656  26.879  27.419  12.894
73439W        W41657   3.771   8.931   1.575
73440W        W41658  14.880  31.989  14.985
73441W        W41659  22.517  10.413   0.879
73442W        W41660  36.756  22.681   4.492
73443W        W41661  19.293  34.537   1.451
73444W        W41662  22.662  21.983   4.271
73445W        W41663  24.022  14.097   0.385
73446W        W41664  32.620   9.888   2.303
73447W        W41665  37.189   7.174   4.069
73448W        W41666  19.255   3.298   1.739
73449W        W41667  11.619   3.744  12.548
73450W        W41668   9.451  18.333  13.843
73451W        W41669  21.469  14.763   3.757
73452W        W41670  37.135  27.705   0.331
73453W        W41671  14.119   4.774   1.396
73454W        W41672  32.049   9.569   2.174
73455W        W41673  44.031  32.025  14.011
73456W        W41674  37.601  27.590  10.102
73457W        W41675   1.242   6.312  13.289
73458W        W41676  24.560  31.521   1.386
73459W        W41677  23.135  15.260   1.764
73460W        W41678  43.830  20.953  14.256
73461W        W41679  11.013  21.165  10.116
73462W        W41680   1.085  41.663  10.163
73463W        W41681  41.913  36.276   2.003
73464W        W41682  27.992  36.963   3.117
73465W        W41683  43.415  17.103  11.511
73466W        W41684  19.633  12.658  11.444
73467W        W41685  30.979  39.196  10.139
73468W        W41686  39.956  14.952   4.658
73469W        W41687  36.135  27.548   2.280
73470W        W41688  36.133   3.272   2.148
73471W        W41689   6.532  18.923   5.036
73472W        W41690  26.150  17.519   3.901
73473W        W41691  17.636  39.567  12.879
73474W        W41692  29.045   1.943  13.380
73475W        W41693  33.951  44.859  13.825
73476W        W41694  14.289   5.382   4.390
73477W        W41695  20.056   9.136  10.801
73478W        W41696  31.909  43.745   2.634
73479W        W41697   5.440  40.988   1.420
73480W        W41698  10.786   0.353  13.983
73481W        W41699  15.039  25.312  13.801
73482W        W41700   8.749  44.522  14.804
73483W        W41701  26.921   4.447  12.140
73484W        W41702   4.563  12.581   4.938
73485W        W41703  15.669  12.217   1.331
73486W        W41704  18.136  36.175  12.023
73487W        W41705  22.753  16.047  13.508
73488W        W41706  12.859  35.641   0.836
73489W        W41707  39.754   4.115  10.320
73490W        W41708  23.074  44.482  12.558
73491W        W41709  15.805   3.152   4.722
73492W        W41710  37.044  36.140  11.190
73493W        W41711   5.529  11.088  14.735
73494W        W41712  35.970  29.749   4.060
73495W        W41713  29.949  18.866   0.398
73496W        W41714  43.027  32.738   0.967
73497W        W41715   0.081  20.267   0.834
73498W        W41716  15.831  35.129  11.217
73499W        W41717  34.480  27.470   2.241
73500W        W41718   5.895  33.555   1.420
73501W        W41719  19.668  31.909   1.804
73502W        W41720  33.433   9.234   4.382
73503W        W41721  28.149  30.550   3.651
73504W        W41722  26.477   3.781   3.362
73505W        W41723  17.271  12.555   3.112
73506W        W41724  16.855  12.738  14.038
73507W        W41725  32.623  33.638   2.690
73508W        W41726  26.492   5.350  11.616
73509W        W41727   2.847  42.951   0.216
73510W        W41728  35.175   3.311   3.310
73511W        W41729  41.330  36.871   1.120
73512W        W41730   7.332   0.846  14.381
73513W        W41731  41.628  12.395   2.761
73514W        W41732   0.771  12.000  14.146
73515W        W41733  32.607   6.286  13.856
73516W        W41734  21.976   2.715   3.933
73517W        W41735  41.955  18.787   1.955
73518W        W41736  34.145   0.497   4.539
73519W        W41737  44.365  31.399   2.022
73520W        W41738   2.237  20.593   1.790
73521W        W41739  27.127  43.958  12.505
73522W        W41740  35.824  39.890   4.505
73523W        W41741  12.121  31.402   4.543
73524W        W41742  26.511  28.052   4.664
73525W        W41743  13.321  39.329  13.972
73526W        W41744  22.038   9.212   1.464
73527W        W41745  38.925   9.433   2.263
73528W        W41746  16.077  30.203  12.459
73529W        W41747   5.260  31.674   3.971
73530W        W41748  39.515  37.816   1.772
73531W        W41749  30.532   3.620  11.021
73532W        W41750  17.656   2.155   4.815
73533W        W41751  24.466  44.511  14.486
73534W        W41752  21.946  26.401  12.403
73535W        W41753  25.177   2.951  12.472
73536W        W41754  25.670  12.284   4.224
73537W        W41755  22.132  16.258  11.686
73538W        W41756  23.976  18.949   0.429
73539W        W41757  40.975  42.016  14.798
73540W        W41758  26.964  41.601   2.799
73541W        W41759  42.603  34.456  13.526
73542W        W41760   1.669   3.882   3.581
73543W        W41761  22.700   7.925  11.168
73544W        W41762  18.289  25.748  10.787
73545W        W41763  28.198  43.406   3.778
73546W        W41764  40.300  14.075   1.475
73547W        W41765  21.619  34.693   3.168
73548W        W41766   5.020  24.191  12.510
73549W        W41767  38.677  23.526  13.114
73550W        W41768  20.478  12.330   3.186
73551W        W41769   7.063   8.983  12.505
73552W        W41770  16.491  20.704   4.281
73553W        W41771   8.211   5.509  12.671
73554W        W41772   1.948   0.273  14.219
73555W        W41773   5.237  18.285   0.709
73556W        W41774  41.397  22.671   2.202
73557W        W41775  28.703  24.780  12.555
73558W        W41776  26.150  12.624  10.541
73559W        W41777  26.329   4.242   3.135
73560W        W41778  22.406   7.384  12.481
73561W        W41779  27.431  20.599   2.954
73562W        W41780  20.187  36.771  14.877
73563W        W41781   0.766   4.225   2.372
73564W        W41782  42.899  13.790  10.460
73565W        W41783  16.769  31.077  14.478
73566W        W41784   4.802   1.109  13.064
73567W        W41785  37.802  12.171  12.087
73568W        W41786  17.815  15.701   3.858
73569W        W41787  17.087  44.040  13.931
73570W        W41788  44.447  12.890   4.237
73571W        W41789  25.432  42.630  12.956
73572W        W41790  42.815  29.555  11.579
73573W        W41791  36.309   8.333   2.786
73574W        W41792  32.008  20.070   4.766
73575W        W41793  12.441  38.185  12.899
73576W        W41794  17.129  32.466  10.105
73577W        W41795  43.254  26.473   1.415
73578W        W41796  34.130  22.310   4.081
73579W        W41797  28.453  11.863   4.056
73580W        W41798  32.418  22.029   2.734
73581W        W41799  28.217   6.262   3.355
73582W        W41800  41.016   3.507   3.278
73583W        W41801  27.821  39.393  12.883
73584W        W41802  43.055  37.561  13.620
73585W        W41803  42.267   7.826  14.974
73586W        W41804  32.179  25.968   4.185
73587W        W41805   6.767   7.942  11.996
73588W        W41806   5.722  27.764   3.800
73589W        W41807  16.077   1.919  13.009
73590W        W41808  30.535  39.658  14.099
73591W        W41809  41.285  41.415  11.486
73592W        W41810  34.398   5.277   3.900
73593W        W41811   0.920   7.460   1.944
73594W        W41812  27.160  35.554   3.679
73595W        W41813  28.694  24.005   3.169
73596W        W41814  29.651  25.909  11.467
73597W        W41815  42.979   1.965   0.967
73598W        W41816  37.571  19.659   4.137
73599W        W41817  27.228   7.922  14.765
73600W        W41818  12.704  24.581  14.530
73601W        W41819  24.154  14.189  13.004
73602W        W41820  44.448  14.649   1.851
73603W        W41821   8.292  44.391  14.402
73604W        W41822  29.644  28.151   4.723
73605W        W41823  22.733  29.540   3.218
73606W        W41824  23.204  24.984   4.367
73607W        W41825  12.876   8.359  14.360
73608W        W41826   9.137   8.193   4.044
73609W        W41827   5.545   2.146  14.446
73610W        W41828  17.815  36.606  10.738
73611W        W41829  21.548  26.609  14.464
73612W        W41830  28.623  26.086  11.282
73613W        W41831  22.160  33.008   2.330
73614W        W41832  34.438   8.165   1.267
73615W        W41833  28.056  43.773   2.824
73616W        W41834  32.912  41.799  14.251
73617W        W41835  23.751  32.322   0.655
73618W        W41836  39.431  30.896  14.729
73619W        W41837  41.119  42.209  11.190
73620W        W41838  12.571   6.201  13.601
73621W        W41839  19.585   4.780  10.534
73622W        W41840  25.642  32.713  12.562
73623W        W41841  24.601  43.136   0.344
73624W        W41842  31.482  32.467   4.279
73625W        W41843  37.366  35.345   1.888
73626W        W41844   8.322  16.047  13.048
73627W        W41845  15.674  16.819  13.379
73628W        W41846  17.843   3.181   4.091
73629W        W41847   2.863  18.062  11.566
73630W        W41848  32.373  30.411   4.740
73631W        W41849  43.471  22.160   2.095
73632W        W41850  44.191  34.697   2.576
73633W        W41851  17.621   2.007   2.770
73634W        W41852  30.982  22.340  13.356
73635W        W41853  28.509  10.691  14.579
73636W        W41854  32.783  12.688  10.733
73637W        W41855   6.924  38.073  11.417
73638W        W41856  28.163  36.023  14.988
73639W        W41857  18.512  28.871  14.162
73640W        W41858  10.280  33.086   4.626
73641W        W41859  16.103  41.341   4.955
73642W        W41860  16.516  35.680  11.637
73643W        W41861   6.456  40.011  12.961
73644W        W41862  24.428  40.571   3.103
73645W        W41863  20.998  21.132  14.803
73646W        W41864  13.719   4.300   2.651
73647W        W41865  23.966   9.944   3.212
73648W        W41866  24.515  19.671   1.411
73649W        W41867   4.705   6.937  12.068
73650W        W41868  31.106  16.099  14.343
73651W        W41869  26.774   3.302  14.672
73652W        W41870  10.376   7.410  12.904
73653W        W41871  14.191  11.556   1.384
73654W        W41872  24.204  25.415   9.859
73655W        W41873  22.561  39.311   2.871
73656W        W41874  20.076  41.316  11.454
73657W        W41875  19.019  32.090   2.454
73658W        W41876  36.128  19.827   0.690
73659W        W41877  27.469   2.241   3.667
73660W        W41878   4.547   6.735  14.707
73661W        W41879   7.754   5.358   3.400
73662W        W41880   4.757  11.182  11.531
73663W        W41881   4.231  43.087  13.789
73664W        W41882  22.622  32.414   1.766
73665W        W41883  31.271  12.380  11.989
73666W        W41884  41.508  41.959  11.995
73667W        W41885  38.566  18.289   0.803
73668W        W41886  18.036  34.575  11.116
73669W        W41887  27.564  35.832  14.505
73670W        W41888  44.275  25.982   0.022
73671W        W41889  44.307  10.098   0.604
73672W        W41890  26.083   9.307   4.672
73673W        W41891  29.095  12.378  12.837
73674W        W41892  29.670  38.366  11.995
73675W        W41893   5.217  10.354  11.477
73676W        W41894  24.539   9.760   0.355
73677W        W41895  10.438  19.183  14.737
73678W        W41896  17.828  16.552  14.065
73679W        W41897  32.182  14.345  11.503
73680W        W41898   3.963   6.141  14.267
73681W        W41899  35.953  43.252  13.159
73682W        W41900  35.599  12.120   1.216
73683W        W41901  31.862  27.637   3.831
73684W        W41902  43.718   8.743  12.662
73685W        W41903  27.572  44.740   2.617
73686W        W41904  20.791  19.136   4.604
73687W        W41905  29.428  40.104  13.428
73688W        W41906  39.377  44.381  14.406
73689W        W41907  21.292  15.686   1.767
73690W        W41908  36.796  29.022   4.133
73691W        W41909  34.458  40.295  14.483
73692W        W41910  34.605  33.595   0.955
73693W        W41911  15.815  33.534  14.113
73694W        W41912  16.652  25.539   3.391
73695W        W41913  12.547  37.072  14.579
73696W        W41914  30.127  35.612   0.901
73697W        W41915  18.012  25.225  10.690
73698W        W41916  33.140  32.602  14.946
73699W        W41917  17.612  44.214   0.747
73700W        W41918  16.157   7.774  12.859
73701W        W41919  24.163   6.254  14.704
73702W        W41920   9.347   8.614  14.369
73703W        W41921  29.966  34.154   0.984
73704W        W41922   4.264  38.634  14.804
73705W        W41923  44.499  25.522  14.958
73706W        W41924  30.983  27.767  14.544
73707W        W41925   0.480  34.933   5.107
73708W        W41926  28.410  33.537  11.887
73709W        W41927  41.029  30.457   2.908
73710W        W41928  39.439  25.630   1.220
73711W        W41929   9.644  39.540   0.374
73712W        W41930  31.117  37.429   2.843
73713W        W41931  13.120  29.291   4.094
73714W        W41932  27.348   5.032  10.861
73715W        W41933   1.682  26.889  14.470
73716W        W41934  23.136   0.358  10.600
73717W        W41935  37.332  33.885   4.719
73718W        W41936  21.619   1.315  14.058
73719W        W41937  30.664  15.252  12.538
73720W        W41938  15.757   6.167   2.218
73721W        W41939  32.383  32.670   4.149
73722W        W41940  27.009  41.069   3.104
73723W        W41941   7.640   4.965  10.184
73724W        W41942  18.555   3.009   1.680
73725W        W41943  41.848  43.531   2.992
73726W        W41944  41.494  17.566   2.213
73727W        W41945   7.264  32.674   0.646
73728W        W41946  36.738   8.175  12.348
73729W        W41947  24.007  31.825   4.198
73730W        W41948  22.728  23.518  12.504
73731W        W41949  38.547   9.890  11.210
73732W        W41950  29.638  21.948   2.561
73733W        W41951   4.081  42.041   1.190
73734W        W41952   0.287   6.769  10.583
73735W        W41953  41.075  22.664   0.472
73736W        W41954  17.002  19.272   2.315
73737W        W41955  28.227  25.696  11.310
73738W        W41956  12.213  12.588   4.467
73739W        W41957  22.767  10.585  14.408
73740W        W41958  20.229   8.119  10.442
73741W        W41959   7.292   9.793   3.569
73742W        W41960  22.768  30.619   0.425
73743W        W41961  30.116  13.918   3.365
73744W        W41962   2.386  26.360  13.547
73745W        W41963  36.664  20.214   3.015
73746W        W41964  14.463  14.363  11.069
73747W        W41965  22.577   0.475   2.541
73748W        W41966  18.639  44.950   4.600
73749W        W41967  26.257   8.815   3.840
73750W        W41968  13.538  23.129   2.835
73751W        W41969  10.832  25.455  11.681
73752W        W41970  21.065  40.904  14.866
73753W        W41971  42.413  20.033  12.945
73754W        W41972  34.175  18.683   4.578
73755W        W41973  31.878  29.981  14.053
73756W        W41974  21.463  16.366   3.656
73757W        W41975  17.457   5.178   3.681
73758W        W41976  19.465   4.934   2.290
73759W        W41977  19.177   9.068   3.037
73760W        W41978  39.821   0.981  11.023
73761W        W41979   4.765  11.338   4.553
73762W        W41980  30.569  22.283   2.620
73763W        W41981  21.114   9.302  11.932
73764W        W41982  16.142  36.071   1.354
73765W        W41983   4.703   2.780   1.477
73766W        W41984  31.488  41.493   2.708
73767W        W41985   4.828  44.984   0.805
73768W        W41986  33.163  22.961  12.873
73769W        W41987  21.329  43.000  12.834
73770W        W41988  22.984  17.189  10.721
73771W        W41989  33.775   9.197  10.934
73772W        W41990  34.367   2.195   4.320
73773W        W41991  25.974  11.356  11.638
73774W        W41992  12.576  36.172   3.615
73775W        W41993  33.046   8.797   0.404
73776W        W41994  21.261  44.764  10.691
73777W        W41995   1.941  18.773  11.146
73778W        W41996  22.455   9.682  10.099
73779W        W41997  22.984  34.969  12.209
73780W        W41998  33.914   1.452   4.625
73781W        W41999  15.263  26.997   3.009
73782W        W42000  27.082  31.594   4.607
73783W        W42001  14.639  27.673  12.474
73784W        W42002  17.473   3.842   4.554
73785W        W42003   1.392   6.794  12.482
73786W        W42004  40.068   4.352   3.400
73787W        W42005  16.048  25.006  13.836
73788W        W42006  15.064   1.771   0.462
73789W        W42007  34.887   6.166  11.915
73790W        W42008  40.425  41.048  14.237
73791W        W42009  42.905  12.292   3.170
73792W        W42010   1.823  10.144   3.830
73793W        W42011  16.597  33.127   2.238
73794W        W42012   1.893  38.833   2.249
73795W        W42013  37.880  44.501  14.391
73796W        W42014  13.636  42.382   4.834
73797W        W42015   8.312  14.121   1.344
73798W        W42016   9.431  41.909  14.270
73799W        W42017  43.307   2.205  11.909
73800W        W42018  39.110  21.540  13.498
73801W        W42019  29.201  20.581  12.622
73802W        W42020  37.591  37.980  11.118
73803W        W42021  43.530  35.350   2.155
73804W        W42022  10.226  14.351   1.856
73805W        W42023  30.602  28.120   2.114
73806W        W42024  43.836  16.347  13.224
73807W        W42025   6.689   7.341   1.196
73808W        W42026  27.802   9.453   3.772
73809W        W42027  32.913   8.637  14.880
73810W        W42028  16.713  19.091  12.007
73811W        W42029   7.438  31.629  14.847
73812W        W42030  32.659  17.240  14.427
73813W        W42031   1.869  28.704   4.775
73814W        W42032  21.757  31.616  12.490
73815W        W42033  11.587  28.200  13.492
73816W        W42034  11.629  42.743   1.796
73817W        W42035   4.208  41.284   3.158
73818W        W42036  27.996  22.687  12.585
73819W        W42037  43.369  32.409   0.159
73820W        W42038  30.999  20.083   1.173
73821W        W42039  37.511  37.456  11.913
73822W        W42040  12.638  44.348  14.991
73823W        W42041   5.571  15.112   3.647
73824W        W42042  27.226  40.405   1.382
73825W        W42043   7.261  38.007   3.110
73826W        W42044  37.042  28.496  11.908
73827W        W42045  30.883  24.981   1.444
73828W        W42046   1.290  23.569  14.347
73829W        W42047  19.088  38.101   4.169
73830W        W42048  15.165  17.099  13.350
73831W        W42049  33.079   3.923   2.670
73832W        W42050  29.559  32.397   1.356
73833W        W42051  32.868  29.470  14.770
73834W        W42052  17.303   9.324   2.762
73835W        W42053   2.508  11.688   4.523
73836W        W42054  44.164  32.597   2.950
73837W        W42055  25.744   2.824  11.594
73838W        W42056   0.863  33.404   0.540
73839W        W42057  41.627  39.928   2.787
73840W        W42058  20.751  34.170  10.885
73841W        W42059   8.228   9.740  12.884
73842W        W42060  19.047  34.352   3.333
73843W        W42061  21.191  42.891   3.375
73844W        W42062  20.144   5.674  11.944
73845W        W42063  42.006   9.201   1.393
73846W        W42064  23.263   0.378  12.165
73847W        W42065  11.471  25.460   0.384
73848W        W42066   9.122  42.079   0.714
73849W        W42067  44.286  14.849   3.711
73850W        W42068   4.117  20.483   2.154
73851W        W42069  14.180  11.105   0.724
73852W        W42070  28.513  43.857   3.041
73853W        W42071  23.485  15.007   0.437
73854W        W42072  33.797  12.335   3.107
73855W        W42073  30.511   9.744   1.830
73856W        W42074  13.754  27.574   3.249
73857W        W42075  39.303  40.822  10.937
73858W        W42076  22.445  23.299   4.371
73859W        W42077  18.283   5.624   3.282
73860W        W42078  34.233  23.891   4.123
73861W        W42079  44.076   7.323  13.865
73862W        W42080  36.937  39.483   4.859
73863W        W42081   9.814  30.430   1.965
73864W        W42082  43.086   0.558  12.968
73865W        W42083  23.513   4.475   3.725
73866W        W42084  39.138  36.689   4.624
73867W        W42085  33.088  25.209   1.837
73868W        W42086  25.965   7.458   0.348
73869W        W42087   3.174   9.193   3.211
73870W        W42088  11.756  30.144  13.476
73871W        W42089  41.337  34.036   1.820
73872W        W42090  34.673   1.616  12.986
73873W        W42091  11.506  24.780  11.521
73874W        W42092  35.484  21.357   1.390
73875W        W42093  28.127  20.955  11.944
73876W        W42094  37.140  34.773  13.115
73877W        W42095  39.390  22.092  12.051
73878W        W42096  18.485  29.925   0.336
73879W        W42097   3.670  31.711   3.723
73880W        W42098  21.981  22.706  11.010
73881W        W42099   5.751  39.935   0.851
73882W        W42100  44.240  13.421  14.532
73883W        W42101  17.858  19.168   4.111
73884W        W42102  17.398  17.228  14.498
73885W        W42103  13.217   3.057  12.931
73886W        W42104  30.771  37.559  12.221
73887W        W42105  37.432  14.441   2.275
73888W        W42106  31.099  30.498  10.162
73889W        W42107  31.409  33.317   3.504
73890W        W42108   1.863   5.913   3.693
73891W        W42109  21.634  16.032   4.012
73892W        W42110  26.237  39.550   4.326
73893W        W42111   5.955  16.205  10.635
73894W        W42112   6.358   6.468   1.959
73895W        W42113   2.302  23.646  12.390
73896W        W42114  14.907  26.873  11.454
73897W        W42115  38.491  15.148  13.840
73898W        W42116  10.875  26.618  11.056
73899W        W42117  28.338   0.333   2.555
73900W        W42118  33.520  44.175  12.882
73901W        W42119   0.941  40.770   5.089
73902W        W42120  35.284   5.628  13.731
73903W        W42121  20.176  20.490  13.859
73904W        W42122  44.443  24.068   4.546
73905W        W42123  35.132   6.106   0.410
73906W        W42124   4.918  43.128  14.551
73907W        W42125  34.601  20.644  11.988
73908W        W42126   5.366  11.833  12.390
73909W        W42127   4.311  19.587   2.513
73910W        W42128  14.734  21.735   1.850
73911W        W42129  39.090  28.437   2.307
73912W        W42130   7.810  37.908   1.916
73913W        W42131   7.649  33.278   0.452
73914W        W42132  32.607  13.067  11.222
73915W        W42133   4.873  16.779  14.387
73916W        W42134  12.100  25.631   3.675
73917W        W42135  26.146  22.207   0.992
73918W        W42136  32.747   0.947   0.522
73919W        W42137   1.423  34.841  14.410
73920W        W42138  24.192  16.130  14.897
73921W        W42139  26.456  28.894   1.827
73922W        W42140  23.174  18.589   4.770
73923W        W42141  34.578   6.619   1.430
73924W        W42142  39.302  26.196   2.782
73925W        W42143   5.486  13.141  14.435
73926W        W42144  44.043   6.947  12.040
73927W        W42145   2.516   7.887  11.554
73928W        W42146  19.726  44.856   3.814
73929W        W42147  23.205  23.670   4.586
73930W        W42148  44.491  26.756   1.290
73931W        W42149   6.131  44.145  13.990
73932W        W42150  44.804  30.507  10.663
73933W        W42151  42.068  21.112   5.111
73934W        W42152  38.745  15.632  13.896
73935W        W42153  15.173   6.548  13.956
73936W        W42154   5.800  11.925  13.106
73937W        W42155   8.448  27.690  10.696
73938W        W42156  35.465   3.385   4.844
73939W        W42157  32.110  27.751  11.687
73940W        W42158  41.985  22.563   1.459
73941W        W42159  43.793  29.164  14.747
73942W        W42160  14.780  26.438  11.922
73943W        W42161   2.706  13.680   1.435
73944W        W42162  41.582  37.053   3.653
73945W        W42163  29.848  18.272   0.471
73946W        W42164  41.005  42.464  10.492
73947W        W42165  24.105   2.540  13.139
73948W        W42166  27.597   9.211   2.641
73949W        W42167   4.196  20.862  14.064
73950W        W42168  24.036   6.432  12.621
73951W        W42169  12.782  42.729  12.880
73952W        W42170  37.557  17.109  14.446
73953W        W42171  23.158  44.900  11.969
73954W        W42172  13.418  41.945   0.856
73955W        W42173   9.284  42.737   1.828
73956W        W42174  22.832  20.869  14.392
73957W        W42175  16.172  43.475   3.591
73958W        W42176  14.653  18.587  12.580
73959W        W42177  28.635  14.283   3.322
73960W        W42178  13.579  43.779  14.887
73961W        W42179  28.042   4.258  13.559
73962W        W42180  11.681  18.533  12.985
73963W        W42181  33.406  32.374  14.426
73964W        W42182   5.319  36.637   1.791
73965W        W42183   9.208   2.629   0.163
73966W        W42184  38.505  34.501   0.915
73967W        W42185   4.392  17.775  12.626
73968W        W42186   5.900  27.564  12.483
73969W        W42187  39.357   1.058   2.357
73970W        W42188  10.736  36.109   2.674
73971W        W42189  34.557  17.998  12.691
73972W        W42190  42.096   4.819   2.897
73973W        W42191  20.303   4.174   4.609
73974W        W42192  17.522  23.094  10.506
73975W        W42193  28.256  30.561   0.709
73976W        W42194  23.471  27.581  13.600
73977W        W42195   2.990   2.666  11.601
73978W        W42196   5.041   9.266   0.900
73979W        W42197   6.361  19.669  14.780
73980W        W42198  15.793  21.784   3.530
73981W        W42199  39.861  37.875  13.844
73982W        W42200  42.840   3.313  13.557
73983W        W42201  38.453   4.308   1.849
73984W        W42202  20.093   0.603   4.323
73985W        W42203  14.238  39.796  14.947
73986W        W42204  28.415  29.196   1.755
73987W        W42205   7.661  40.563   4.920
73988W        W42206  38.447   1.910   0.258
73989W        W42207  10.444  40.265   5.082
73990W        W42208  12.048  28.725   1.598
73991W        W42209  18.073  39.061  11.351
73992W        W42210  26.430  43.863  10.967
73993W        W42211  25.711  16.087  11.130
73994W        W42212  15.646  40.688   3.713
73995W        W42213   8.418  35.568  10.776
73996W        W42214  14.371  19.102  13.060
73997W        W42215  36.302  13.191  12.046
73998W        W42216  19.195   9.119  14.846
73999W        W42217  26.837  16.719  12.482
74000W        W42218   3.751  27.458   2.786
74001W        W42219  16.730  28.554  13.970
74002W        W42220  42.020  44.788   4.790
74003W        W42221  44.795  19.277   1.671
74004W        W42222  21.101  27.171  11.502
74005W        W42223  38.113  15.407  13.385
74006W        W42224  15.778  41.043   0.293
74007W        W42225  12.464   8.853  11.724
74008W        W42226  42.690  40.508  11.504
74009W        W42227  34.082  29.202  14.576
74010W        W42228  29.132  33.954   4.144
74011W        W42229  35.612  44.108   2.261
74012W        W42230   6.670  22.624  13.135
74013W        W42231  13.275   2.384   0.315
74014W        W42232  22.117   7.758  14.718
74015W        W42233   4.689   2.892   0.443
74016W        W42234  39.269  32.679   4.003
74017W        W42235  16.573  21.628   3.936
74018W        W42236  18.085  30.063   4.822
74019W        W42237  30.674  40.901  13.457
74020W        W42238  15.937  18.560   2.710
74021W        W42239  13.511  24.004  12.599
74022W        W42240  26.363   5.808  10.667
74023W        W42241  11.732  29.005   4.141
74024W        W42242  10.333  31.124  13.237
74025W        W42243   7.434  43.272   4.331
74026W        W42244   8.757  28.196  12.106
74027W        W42245   9.877  25.209   2.808
74028W        W42246   1.715  40.693  13.471
74029W        W42247   3.694   7.266   5.070
74030W        W42248  13.902  41.438   2.623
74031W        W42249   2.334  30.589   0.825
74032W        W42250   1.335  19.288   2.134
74033W        W42251  11.690  33.894   2.806
74034W        W42252   9.550  30.551  12.480
74035W        W42253  28.725  33.434  13.384
74036W        W42254  18.234  35.547   2.261
74037W        W42255  19.522   3.479   4.065
74038W        W42256  29.213  34.497  10.771
74039W        W42257  14.389  34.049   2.388
74040W        W42258  14.916  30.839   3.125
74041W        W42259  22.196  18.604  12.918
74042W        W42260  21.704  41.712  12.927
74043W        W42261  40.472   3.382  13.032
74044W        W42262  42.767  29.154   0.914
74045W        W42263  15.142   5.630  13.536
74046W        W42264  27.861  38.017  13.931
74047W        W42265  12.656   0.250   4.158
74048W        W42266  16.048   2.725   1.731
74049W        W42267  40.803  28.122  12.465
74050W        W42268   5.459  11.207  13.342
74051W        W42269  37.432   7.115   3.389
74052W        W42270  25.458  25.494   2.704
74053W        W42271  38.336  41.031  11.482
74054W        W42272  17.329  44.778  13.376
74055W        W42273   4.695  14.163   0.438
74056W        W42274  18.837   1.463  14.409
74057W        W42275  37.028  35.327   2.424
74058W        W42276  31.312  36.603   4.892
74059W        W42277  32.284  14.248  13.751
74060W        W42278  27.065  36.016  10.694
74061W        W42279   5.803  44.563   1.265
74062W        W42280  42.086  16.860  13.366
74063W        W42281  33.913  14.078  11.056
74064W        W42282   1.766  42.204  10.721
74065W        W42283  13.868  37.573   0.703
74066W        W42284   3.863  28.795  11.489
74067W        W42285  27.922  43.267   2.603
74068W        W42286  34.678   1.221  12.349
74069W        W42287  39.510   8.716  11.495
74070W        W42288  37.494   3.273  12.801
74071W        W42289   9.854  13.359  13.885
74072W        W42290  40.452  35.104  13.651
74073W        W42291   4.459  24.518  11.745
74074W        W42292   8.274   3.300   0.036
74075W        W42293  21.068  15.634  12.003
74076W        W42294   1.520  36.497   4.301
74077W        W42295   2.250  22.427  11.118
74078W        W42296   8.382   5.405  13.909
74079W        W42297  10.858  16.437   0.144
74080W        W42298  17.613  27.451   0.773
74081W        W42299  12.594  19.257   0.572
74082W        W42300  22.555   1.013   3.238
74083W        W42301  22.464  12.784  11.150
74084W        W42302  28.188  21.143  14.498
74085W        W42303  17.787  42.625   2.874
74086W        W42304  40.332  23.589  13.553
74087W        W42305   4.153  16.350   0.537
74088W        W42306  42.483  18.836   1.328
74089W        W42307  16.134  31.107   3.302
74090W        W42308   5.916   1.351   2.096
74091W        W42309  16.638  17.192   3.108
74092W        W42310  39.493   1.987   4.141
74093W        W42311   8.438  27.335  11.972
74094W        W42312  30.950  32.940   4.320
74095W        W42313  17.381   9.727  13.600
74096W        W42314  23.850  16.790  13.259
74097W        W42315  43.990  40.314  12.355
74098W        W42316  38.518  18.148   3.881
74099W        W42317  16.355   5.807   3.212
74100W        W42318  13.145  36.589  12.535
74101W        W42319  26.158  28.013  11.722
74102W        W42320  33.553  28.078   1.327
74103W        W42321  44.355  34.056   0.034
74104W        W42322  31.029  14.387  12.175
74105W        W42323  43.686  33.375   9.995
74106W        W42324   7.108  34.572  10.702
74107W        W42325  27.694   1.491   0.114
74108W        W42326   3.757  19.974  14.974
74109W        W42327  10.191  42.915   1.813
74110W        W42328   0.639  15.152   2.049
74111W        W42329   2.269   9.102   1.591
74112W        W42330  18.944  32.506  11.097
74113W        W42331  20.134  15.848  13.771
74114W        W42332  25.591  34.521   1.405
74115W        W42333   8.766  39.860  11.510
74116W        W42334  44.848  32.546  13.133
74117W        W42335   9.329  23.797   2.711
74118W        W42336  23.082   9.308   2.292
74119W        W42337  44.954   1.524  11.567
74120W        W42338  21.516   6.077   3.280
74121W        W42339  10.090  23.519   3.179
74122W        W42340   5.383   2.283   0.415
74123W        W42341  18.649  28.878  10.394
74124W        W42342  42.131  32.088   3.607
74125W        W42343   9.364  10.291   2.867
74126W        W42344  16.739  39.902  13.562
74127W        W42345  17.777  16.201  11.494
74128W        W42346  39.227  14.053  11.057
74129W        W42347  15.190  13.072   2.639
74130W        W42348  30.026  22.619   3.270
74131W        W42349   3.834  11.292  14.371
74132W        W42350  35.049  27.929  11.501
74133W        W42351  21.987  24.080  11.185
74134W        W42352  32.430   0.363  11.585
74135W        W42353  33.914  32.174   2.755
74136W        W42354  38.516   9.449   3.749
74137W        W42355  10.605  15.487  11.518
74138W        W42356  24.031  36.018  12.664
74139W        W42357  41.837  34.158  13.837
74140W        W42358  33.289  36.888  13.399
74141W        W42359   5.943  14.232   4.380
74142W        W42360  40.227  14.568  12.584
74143W        W42361  42.350  18.495   1.728
74144W        W42362   8.728  36.641  12.024
74145W        W42363   6.635  10.880   2.826
74146W        W42364  27.242   1.781   3.745
74147W        W42365   7.793  27.170   3.144
74148W        W42366  28.168  19.413   2.546
74149W        W42367  19.043  32.172  11.486
74150W        W42368  25.365  25.533  14.297
74151W        W42369  27.675  38.807   1.218
74152W        W42370  32.932  19.644  12.136
74153W        W42371   2.710  11.820   3.153
74154W        W42372  37.413  42.517  12.013
74155W        W42373  37.037  42.053   0.314
74156W        W42374  29.514   3.954   1.258
74157W        W42375  43.936   8.645   1.362
74158W        W42376  18.965   0.893  12.071
74159W        W42377  36.469  11.899  13.325
74160W        W42378  36.419   7.812  13.862
74161W        W42379  20.491  35.112   0.943
74162W        W42380  17.812   3.752  14.948
74163W        W42381  17.332   8.260  12.791
74164W        W42382   0.969  33.594   1.008
74165W        W42383   6.001   8.493   2.714
74166W        W42384   8.372   6.731  13.892
74167W        W42385   0.072  15.407  14.704
74168W        W42386  20.608  37.434  14.269
74169W        W42387  22.341  10.118   3.633
74170W        W42388  23.578   4.637   0.873
74171W        W42389  30.134   5.771  10.781
74172W        W42390  23.795  39.534  10.552
74173W        W42391  24.326  41.456  13.438
74174W        W42392   6.395  25.485   2.789
74175W        W42393  34.296  14.172   3.225
74176W        W42394  16.971  26.467  14.342
74177W        W42395   3.602  44.397  11.159
74178W        W42396  11.212   9.787  10.660
74179W        W42397  36.814  14.978  14.086
74180W        W42398  19.540   5.425   4.399
74181W        W42399   7.822  20.730   4.582
74182W        W42400  44.202  44.561   4.704
74183W        W42401  44.167  24.075  11.575
74184W        W42402  30.483  10.627  14.345
74185W        W42403  37.511  12.132  12.583
74186W        W42404  37.041  33.870   3.588
74187W        W42405  44.125  12.688   3.859
74188W        W42406   8.229   2.289   4.574
74189W        W42407  33.455  44.345   0.219
74190W        W42408  12.268  15.727  12.519
74191W        W42409   2.114  18.774   2.662
74192W        W42410  23.830  24.711  11.467
74193W        W42411  42.969   4.655  14.809
74194W        W42412   2.155  39.449   5.008
74195W        W42413  41.028  33.426  11.479
74196W        W42414  31.214  43.499   1.677
74197W        W42415   7.141  18.081  11.552
74198W        W42416  39.946   8.449  14.706
74199W        W42417  29.475   1.325   1.885
74200W        W42418  24.722  38.120   3.362
74201W        W42419  40.331  12.581  14.759
74202W        W42420   7.773  36.276   1.222
74203W        W42421  19.544   5.256  11.437
74204W        W42422   0.544  41.914  13.223
74205W        W42423  38.891  35.342  10.525
74206W        W42424  15.116  41.817   2.446
74207W        W42425  28.461  24.046  12.955
74208W        W42426  41.829  25.589   4.298
74209W        W42427   4.851   9.943   0.383
74210W        W42428  32.894  31.993  10.530
74211W        W42429  44.932  22.080   4.086
74212W        W42430  18.093  24.959   4.478
74213W        W42431  34.709  26.421  10.404
74214W        W42432  12.751  13.791   4.037
74215W        W42433  40.624  26.597  12.112
74216W        W42434   3.895   5.575  14.725
74217W        W42435   8.725   3.976   2.855
74218W        W42436  41.724  16.303  14.637
74219W        W42437  30.579  23.500   1.740
74220W        W42438  28.418  21.129  13.813
74221W        W42439   0.406   5.706  13.844
74222W        W42440  43.115  14.261   1.716
74223W        W42441  24.621   1.402   0.892
74224W        W42442  14.904  43.275  14.423
74225W        W42443   1.594  16.780  13.412
74226W        W42444   7.829   1.800  13.453
74227W        W42445  28.575  39.007  14.777
74228W        W42446   5.074  17.006  10.179
74229W        W42447  10.590   6.107   2.767
74230W        W42448  32.243  29.398  13.306
74231W        W42449  30.754  18.605  13.792
74232W        W42450  10.396  28.858  14.930
74233W        W42451  36.485  12.108   4.530
74234W        W42452  40.408  43.401  13.995
74235W        W42453  15.383  21.125   3.237
74236W        W42454   7.135  32.472  11.305
74237W        W42455  19.199  23.213   1.757
74238W        W42456  28.053  38.856  13.998
74239W        W42457  34.193  32.237   0.773
74240W        W42458  18.700  44.028   4.629
74241W        W42459   9.354  29.447   1.032
74242W        W42460   4.859  13.615   3.305
74243W        W42461  36.625  10.597   2.710
74244W        W42462   5.223  17.161  12.629
74245W        W42463   0.073  17.122   4.576
74246W        W42464   5.363  12.252   1.342
74247W        W42465  30.618  35.841  13.366
74248W        W42466  35.822   0.450   4.591
74249W        W42467  18.000  40.315   1.315
74250W        W42468  14.621  36.650  13.813
74251W        W42469  25.141  28.491   2.706
74252W        W42470  41.805  25.622   3.231
74253W        W42471  26.720  10.663   4.883
74254W        W42472  17.140  19.208  13.317
74255W        W42473  32.612  13.544  11.449
74256W        W42474  37.570  16.515   2.278
74257W        W42475  21.990  40.384   0.654
74258W        W42476  37.441   2.946  13.400
74259W        W42477  19.143  27.385  11.221
74260W        W42478   0.478   0.239  12.880
74261W        W42479  16.672   6.867   2.434
74262W        W42480  11.322  29.983  14.912
74263W        W42481  27.917  36.830  10.397
74264W        W42482  13.503  42.531   2.122
74265W        W42483  14.330  17.831   3.244
74266W        W42484  12.135   4.671   1.168
74267W        W42485  18.465  38.030  12.170
74268W        W42486  21.399  40.285  11.727
74269W        W42487   3.510   4.749  13.438
74270W        W42488   0.527   0.183   0.006
74271W        W42489  21.021  24.492   3.354
74272W        W42490   3.072  42.724  12.519
74273W        W42491  33.929   8.507  13.959
74274W        W42492   6.311  31.996  12.650
74275W        W42493   9.407  14.631   0.196
74276W        W42494   3.992   6.090  14.769
74277W        W42495  33.676  43.925  12.460
74278W        W42496  33.571   5.904   0.447
74279W        W42497  21.767  14.190  12.407
74280W        W42498  30.534  24.349   5.053
74281W        W42499  27.596  34.200  13.635
74282W        W42500   3.851  23.453  13.172
74283W        W42501  43.239  15.984   0.422
74284W        W42502   2.441  43.096   3.990
74285W        W42503  15.221  29.945  11.081
74286W        W42504  40.700  21.160  11.164
74287W        W42505  41.370  28.891   3.618
74288W        W42506   3.586   9.762  10.678
74289W        W42507  28.312  29.469   3.696
74290W        W42508   2.446  17.976   9.840
74291W        W42509  36.198  23.023  11.099
74292W        W42510  18.283  28.146  11.592
74293W        W42511  40.958  24.784  11.547
74294W        W42512  25.353  34.993  12.162
74295W        W42513  26.095  14.557   5.549
74296W        W42514  20.121  17.309   2.863
74297W        W42515  26.151   7.691  11.768
74298W        W42516  44.875  27.247  14.033
74299W        W42517  44.855  30.538  13.281
74300W        W42518   5.794  36.758  12.025
74301W        W42519  39.861  35.788  13.918
74302W        W42520   9.211  44.600   3.726
74303W        W42521  38.516   9.804  12.071
74304W        W42522  17.712  18.860  14.022
74305W        W42523  41.878  12.289   4.202
74306W        W42524  33.978  21.924  11.491
74307W        W42525  37.885   8.221  13.353
74308W        W42526  15.258  35.705  12.116
74309W        W42527   9.787  34.782   3.764
74310W        W42528  34.438  16.546  13.485
74311W        W42529  31.694   5.791   1.524
74312W        W42530   0.398  27.801   4.295
74313W        W42531  12.215  18.351  11.078
74314W        W42532  11.756  14.048   0.507
74315W        W42533  28.503  28.387  12.443
74316W        W42534  17.688   1.841  11.539
74317W        W42535   5.590  18.617   4.705
74318W        W42536  36.002  16.913   4.554
74319W        W42537  21.959   4.203  13.725
74320W        W42538  39.493  44.500   4.074
74321W        W42539  32.855   0.297   3.331
74322W        W42540  25.022  28.211  12.291
74323W        W42541   5.152  10.358   0.541
74324W        W42542  41.087  12.875  14.960
74325W        W42543  18.749  18.132   3.454
74326W        W42544  36.578  16.311  14.706
74327W        W42545  27.681  24.416  11.634
74328W        W42546  21.875  40.142   4.546
74329W        W42547   5.705  33.986   2.788
74330W        W42548  23.439  35.120   1.939
74331W        W42549   8.183   5.191  14.363
74332W        W42550  11.525  20.270  14.494
74333W        W42551  15.575  37.898  14.413
74334W        W42552   6.360  15.192  11.664
74335W        W42553  35.568  40.521   1.834
74336W        W42554  28.064  12.156   1.840
74337W        W42555  41.892  43.495   1.800
74338W        W42556  39.026  25.775   3.321
74339W        W42557  27.782  24.661  14.709
74340W        W42558  22.132   3.846   0.973
74341W        W42559   7.683   3.533  14.882
74342W        W42560  16.599  26.015   1.635
74343W        W42561   7.861  35.403   4.641
74344W        W42562  43.351  12.133  10.711
74345W        W42563  43.019   5.279  10.672
74346W        W42564  33.576  40.145   1.314
74347W        W42565  26.602  17.104  14.480
74348W        W42566   0.938  23.196  10.215
74349W        W42567  43.476  38.920  13.720
74350W        W42568  16.709  30.607   1.820
74351W        W42569  23.305  44.331  13.051
74352W        W42570  11.687  40.864   3.358
74353W        W42571   3.766  21.361  11.080
74354W        W42572  11.522  34.562  13.552
74355W        W42573  34.003  35.652  10.409
74356W        W42574  34.290   8.852   3.605
74357W        W42575  41.423  41.763   1.455
74358W        W42576   6.045  23.086  11.450
74359W        W42577  34.918   0.227  11.512
74360W        W42578  30.791   9.383   2.927
74361W        W42579  35.934  14.346   0.173
74362W        W42580  11.871  20.164  13.625
74363W        W42581   9.991  35.867  14.559
74364W        W42582  16.292  36.727   4.926
74365W        W42583  26.224  14.498   4.594
74366W        W42584  30.558  16.705  10.601
74367W        W42585   4.366   7.816   4.732
74368W        W42586   6.302  19.285   2.305
74369W        W42587  42.564   1.178   1.817
74370W        W42588  19.531  33.905  14.813
74371W        W42589  15.232  13.298  12.410
74372W        W42590  40.402  32.124   1.207
74373W        W42591  43.516  17.155   2.810
74374W        W42592  41.813  31.189  14.572
74375W        W42593   1.253   9.424  12.003
74376W        W42594  25.274  23.643  12.002
74377W        W42595   8.293  12.085  14.573
74378W        W42596  34.094  14.392   3.671
74379W        W42597  35.338  35.670  14.526
74380W        W42598  37.178  19.329  14.777
74381W        W42599  36.129  27.279  12.009
74382W        W42600  25.640  36.884  11.399
74383W        W42601   5.330  21.486  14.258
74384W        W42602   3.694  28.222  10.854
74385W        W42603  17.249  39.873  13.643
74386W        W42604   0.431   5.165   1.665
74387W        W42605  11.935  27.005  11.941
74388W        W42606  40.865   6.149   1.724
74389W        W42607  28.428  29.424  10.690
74390W        W42608  16.069  12.379  11.018
74391W        W42609  44.852  38.364   0.748
74392W        W42610  31.962  32.001  14.491
74393W        W42611  40.077  41.547   1.935
74394W        W42612  10.872  26.479   4.065
74395W        W42613  36.716   8.905  11.118
74396W        W42614  42.768  44.507  14.872
74397W        W42615  11.277  26.169  14.473
74398W        W42616  42.547   8.853   5.119
74399W        W42617  21.244   0.449  13.391
74400W        W42618  22.160  36.747   0.753
74401W        W42619  33.331  31.601  11.954
74402W        W42620  42.746   9.371   0.931
74403W        W42621   3.003  33.106   0.809
74404W        W42622  20.108  27.571   4.936
74405W        W42623  26.976  32.466   0.507
74406W        W42624  23.133  25.246   0.542
74407W        W42625   0.482  40.338   0.482
74408W        W42626  35.976  37.634   2.188
74409W        W42627   6.395  42.554  12.177
74410W        W42628  10.152  31.174   1.380
74411W        W42629   5.277   3.410  12.536
74412W        W42630  36.217  36.605   5.002
74413W        W42631  27.643  25.491  11.432
74414W        W42632  40.161  11.510   4.142
74415W        W42633   9.622  43.812  12.416
74416W        W42634  38.040  18.087  11.744
74417W        W42635  39.897  24.203   2.316
74418W        W42636  33.158  17.172   0.417
74419W        W42637   6.467  15.251   4.588
74420W        W42638  29.394   6.738   1.213
74421W        W42639   2.841   7.046  14.082
74422W        W42640  24.120  32.618  12.794
74423W        W42641  13.782  19.215   1.814
74424W        W42642   3.642  26.551   1.794
74425W        W42643  30.031  30.602  10.666
74426W        W42644  32.482  43.290  12.396
74427W        W42645  41.893   8.263   4.104
74428W        W42646  34.011  27.057   0.498
74429W        W42647  11.125  29.377  14.005
74430W        W42648  37.053  38.358   2.875
74431W        W42649  23.144  37.367   2.309
74432W        W42650   7.501  33.709  11.548
74433W        W42651  39.194  26.559   1.924
74434W        W42652  36.125  21.700   2.827
74435W        W42653  36.392  10.887  14.877
74436W        W42654  33.115  43.939   3.183
74437W        W42655  15.535  37.420  14.188
74438W        W42656   8.851   9.730  14.039
74439W        W42657  19.028  37.994  11.498
74440W        W42658  34.200  35.623   2.903
74441W        W42659  35.388  17.766  11.632
74442W        W42660  26.957   1.850  12.414
74443W        W42661  14.413  18.502  14.356
74444W        W42662  33.539  20.218   1.321
74445W        W42663   4.248  27.041   4.536
74446W        W42664  43.473  10.191   4.096
74447W        W42665  24.778  34.144  10.743
74448W        W42666  31.564   5.123   5.401
74449W        W42667  42.565  13.808  14.072
74450W        W42668  33.486  39.582   4.661
74451W        W42669  18.674   8.226  12.955
74452W        W42670  12.406  27.358   0.392
74453W        W42671  13.068  39.456  12.616
74454W        W42672  14.374  25.017   1.500
74455W        W42673  38.285  27.658  12.540
74456W        W42674  21.156  43.868   4.875
74457W        W42675  33.972  43.697  13.532
74458W        W42676  13.054  40.999   0.754
74459W        W42677  33.832  38.976  12.115
74460W        W42678  17.677  18.048   0.378
74461W        W42679   0.295   0.017  10.597
74462W        W42680  15.908  32.920   2.159
74463W        W42681  27.090  21.675  13.669
74464W        W42682   9.335   4.014  13.053
74465W        W42683  22.773  36.875  13.107
74466W        W42684  26.697  41.873   3.614
74467W        W42685  24.260  31.072   1.691
74468W        W42686   7.294   1.436   0.342
74469W        W42687  11.653  38.832   0.830
74470W        W42688  14.625  21.975   0.699
74471W        W42689  12.790  27.438  10.758
74472W        W42690  17.653   4.258  11.672
74473W        W42691   6.891  25.479  14.784
74474W        W42692  21.903   4.314   3.850
74475W        W42693  39.683  27.116  13.360
74476W        W42694   3.872  43.963  10.104
74477W        W42695  11.093  14.333  12.901
74478W        W42696  12.628  16.619   4.376
74479W        W42697  31.677  38.372   4.111
74480W        W42698  33.864  41.084   4.050
74481W        W42699   2.278   4.152   2.223
74482W        W42700  37.724   1.239  11.921
74483W        W42701   1.187  43.474  12.680
74484W        W42702  40.546  41.976   0.257
74485W        W42703  27.884  21.157  13.762
74486W        W42704  12.651  28.478  14.649
74487W        W42705  30.733  12.108   1.819
74488W        W42706  34.876  38.786   1.235
74489W        W42707   5.994   3.922  12.056
74490W        W42708  43.309  31.550   1.610
74491W        W42709   4.940  18.164  13.080
74492W        W42710   0.305  41.257   0.374
74493W        W42711  36.236  38.338   4.617
74494W        W42712  29.201  41.992   3.641
74495W        W42713  38.598  28.384   3.023
74496W        W42714  29.154  18.768  11.131
74497W        W42715  37.074  31.127   3.531
74498W        W42716   1.815  14.616   0.295
74499W        W42717  18.975  43.332  13.022
74500W        W42718  23.712  14.123  13.948
74501W        W42719  11.915  30.913   0.716
74502W        W42720  35.593  17.044   4.242
74503W        W42721  38.410  23.641  12.681
74504W        W42722  40.935  36.578   4.093
74505W        W42723  28.515  43.575   4.297
74506W        W42724  15.612  40.957   0.772
74507W        W42725  30.941   5.008  11.065
74508W        W42726  32.414  25.165   0.700
74509W        W42727  11.843   6.709   1.902
74510W        W42728  12.799   9.435   4.522
74511W        W42729  20.615  15.872  13.004
74512W        W42730  43.947  34.692  14.385
74513W        W42731   6.138  17.454  14.504
74514W        W42732   6.896  26.232   4.089
74515W        W42733   6.390  36.547  14.482
74516W        W42734   2.925  27.273   3.384
74517W        W42735  33.471  34.175   4.621
74518W        W42736  25.057  21.787   0.874
74519W        W42737   9.782  31.492  10.637
74520W        W42738  41.904  33.720   1.387
74521W        W42739  40.279   6.230  14.843
74522W        W42740  37.458  12.153  13.919
74523W        W42741  39.476  21.666  14.419
74524W        W42742  38.277   7.361  12.380
74525W        W42743  27.100   6.785   0.826
74526W        W42744  30.441  42.873  11.107
74527W        W42745  40.092  33.076  14.063
74528W        W42746   7.751  12.662   1.131
74529W        W42747   0.901  36.920   2.049
74530W        W42748  37.692  19.373  14.145
74531W        W42749  10.694   9.918  11.908
74532W        W42750  32.128  41.905   2.897
74533W        W42751   4.804   7.171  13.474
74534W        W42752   2.678  20.762  12.924
74535W        W42753  26.250  21.813  11.147
74536W        W42754  14.167  17.162   2.663
74537W        W42755   5.317  42.198   0.552
74538W        W42756  21.808  44.553  14.726
74539W        W42757  43.851   1.703  11.234
74540W        W42758  14.130  12.868   3.365
74541W        W42759   5.776  41.915  13.989
74542W        W42760  11.888  35.988  13.607
74543W        W42761  43.418  11.297   3.821
74544W        W42762  32.048  29.904   3.588
74545W        W42763  32.927   2.364   1.025
74546W        W42764   0.520  27.588  11.532
74547W        W42765  32.310   9.174   0.365
74548W        W42766  21.726  32.861   3.535
74549W        W42767  44.286   8.133  14.368
74550W        W42768  18.193  44.810   2.968
74551W        W42769  22.567   0.317  13.544
74552W        W42770   4.968  40.682  12.929
74553W        W42771  27.625  28.949  13.623
74554W        W42772  27.141   6.418   4.125
74555W        W42773  35.029  31.705   1.705
74556W        W42774  44.859  24.108  14.295
74557W        W42775  24.207  14.177  11.152
74558W        W42776   4.277  41.378  11.160
74559W        W42777   9.870  27.681  13.918
74560W        W42778  29.684  20.318  12.512
74561W        W42779  28.426  32.384   0.439
74562W        W42780  25.260  26.148  13.553
74563W        W42781  37.610  21.254  14.281
74564W        W42782  17.191  30.083  13.426
74565W        W42783   5.315  27.247  10.998
74566W        W42784  19.030  37.467  13.311
74567W        W42785   5.731  30.664   3.164
74568W        W42786  42.238   6.871   1.883
74569W        W42787   2.739  40.612   3.809
74570W        W42788  21.743   7.952   0.425
74571W        W42789  22.113  25.630  14.037
74572W        W42790  19.692  23.173  10.175
74573W        W42791  25.535  21.993  14.232
74574W        W42792  17.204  43.144   4.106
74575W        W42793   6.887  33.649   3.298
74576W        W42794  39.069  44.010   2.159
74577W        W42795  27.185  20.513  11.052
74578W        W42796  22.553  34.369   3.917
74579W        W42797  29.749  22.804  14.294
74580W        W42798  20.023  22.267  11.113
74581W        W42799  28.358  33.443  10.457
74582W        W42800  10.884  24.500  10.372
74583W        W42801  41.717   7.840   2.422
74584W        W42802   3.714   5.933   1.396
74585W        W42803   1.833  20.753   4.506
74586W        W42804  40.532   9.654  11.320
74587W        W42805  10.371  27.222   0.366
74588W        W42806  31.175  22.813   2.262
74589W        W42807  44.587   9.214   0.318
74590W        W42808  35.303  33.740  14.394
74591W        W42809  17.403   6.703  13.343
74592W        W42810  41.047  25.511   5.040
74593W        W42811  26.183  21.731   0.268
74594W        W42812  39.299  15.200   1.841
74595W        W42813  40.903  38.013   4.507
74596W        W42814   4.273   9.350  14.929
74597W        W42815  26.961  17.762   0.192
74598W        W42816  40.766  42.443  12.960
74599W        W42817  14.204  37.996  11.711
74600W        W42818  26.383  10.094  13.284
74601W        W42819   8.082   1.694  11.026
74602W        W42820  15.922   8.025   4.154
74603W        W42821   6.710  28.111  13.601
74604W        W42822  19.378   4.485  12.997
74605W        W42823  26.557  24.911   2.105
74606W        W42824   3.382   3.646  11.089
74607W        W42825  24.073  16.093   1.328
74608W        W42826  44.833  44.693  11.408
74609W        W42827  44.140  35.194  12.967
74610W        W42828   5.818   7.475   3.129
74611W        W42829  44.503  40.053  13.049
74612W        W42830  35.378  26.653   1.214
74613W        W42831  12.322  21.139  11.665
74614W        W42832  10.104  22.789  11.042
74615W        W42833  28.158  15.075   0.095
74616W        W42834  20.841  32.636   1.793
74617W        W42835  19.129   9.261  10.740
74618W        W42836  20.209  20.270  14.326
74619W        W42837  10.746  37.856  10.650
74620W        W42838  35.314  13.831  14.953
74621W        W42839   0.509  40.615   2.258
74622W        W42840  17.276   8.388   3.376
74623W        W42841   0.451  43.965  14.478
74624W        W42842   9.558  19.199   3.780
74625W        W42843  11.235  19.505  14.826
74626W        W42844   2.620   6.787  13.023
74627W        W42845  18.435  31.096  10.455
74628W        W42846  18.100  16.588   4.674
74629W        W42847  41.970  26.850  12.985
74630W        W42848   8.285   6.544   4.131
74631W        W42849  13.215  11.461  13.874
74632W        W42850  26.089  21.238   5.343
74633W        W42851   5.411  20.723   0.379
74634W        W42852  25.295  15.457   4.616
74635W        W42853  10.247   6.403  11.993
74636W        W42854   6.356  40.258   4.716
74637W        W42855   2.798  25.506   1.546
74638W        W42856  27.022  10.598  14.409
74639W        W42857  14.128  20.261  12.474
74640W        W42858  38.154  30.833   4.233
74641W        W42859  34.806  26.203   4.092
74642W        W42860  27.255  39.906  11.134
74643W        W42861  22.392  15.756   4.618
74644W        W42862  35.604  19.547   1.488
74645W        W42863  23.978  13.214  12.846
74646W        W42864  39.526  25.384   3.798
74647W        W42865  24.936  17.288  13.000
74648W        W42866  12.904  37.670   3.929
74649W        W42867  24.460  30.892  11.405
74650W        W42868  12.594  33.142  11.530
74651W        W42869   7.607  38.760   4.202
74652W        W42870  15.178  28.974  12.574
74653W        W42871  44.499   0.487  13.921
74654W        W42872  17.330  37.636  12.986
74655W        W42873  11.188  43.369  11.987
74656W        W42874   3.815  24.647  14.811
74657W        W42875   5.282  21.745   3.160
74658W        W42876  22.112   1.371  13.878
74659W        W42877  33.225   4.286  14.388
74660W        W42878  15.179  40.125  13.726
74661W        W42879  16.577  21.793   3.451
74662W        W42880  19.535  17.153   3.194
74663W        W42881  21.135  33.042   2.772
74664W        W42882  42.238  40.450  13.714
74665W        W42883  12.455  17.729  13.806
74666W        W42884  34.446  29.656  11.473
74667W        W42885  14.956  24.493   4.495
74668W        W42886  21.037  19.718   9.947
74669W        W42887  30.684  19.137   0.951
74670W        W42888   7.677  24.965  13.836
74671W        W42889   8.026  30.008  12.778
74672W        W42890  11.737  40.745  13.369
74673W        W42891  11.101  35.076  14.922
74674W        W42892   0.391  21.068   2.685
74675W        W42893   5.467  28.429   4.167
74676W        W42894  29.920   0.470  14.371
74677W        W42895  34.081  26.542   0.329
74678W        W42896   5.424   7.752   4.541
74679W        W42897  30.236  23.726   4.066
74680W        W42898  42.403  34.395   2.282
74681W        W42899  41.827  11.831  12.618
74682W        W42900   6.811  11.643   0.357
74683W        W42901  23.056  37.342  13.009
74684W        W42902   9.752  12.649   2.313
74685W        W42903  13.266  20.805  13.545
74686W        W42904  17.863  39.881   0.288
74687W        W42905   7.394  23.342  10.640
74688W        W42906   9.641   7.425   3.126
74689W        W42907  41.479  20.696   0.218
74690W        W42908  15.970  38.792   0.816
74691W        W42909  22.654  42.354   1.422
74692W        W42910  41.957  33.690  13.683
74693W        W42911  10.720  32.803   0.520
74694W        W42912  37.764  40.971   3.798
74695W        W42913   4.881  18.626   0.509
74696W        W42914  34.100  35.923   0.568
74697W        W42915  28.522  32.790  13.163
74698W        W42916  18.178  40.456   3.815
74699W        W42917  28.040  41.033   0.056
74700W        W42918   8.892   7.809   0.322
74701W        W42919  25.130  12.783  14.053
74702W        W42920  37.305   3.003  11.461
74703W        W42921  42.332  16.921   3.807
74704W        W42922  23.954  15.261   4.609
74705W        W42923  11.566  24.497   2.784
74706W        W42924  15.773  19.068   0.548
74707W        W42925  12.706  28.935  11.494
74708W        W42926  12.654  21.172  10.717
74709W        W42927  15.071   5.615   0.019
74710W        W42928  11.258   1.351   1.018
74711W        W42929  17.916  41.142   2.696
74712W        W42930  37.954   4.924  10.381
74713W        W42931  15.673  17.996  11.935
74714W        W42932  25.032   3.362  13.888
74715W        W42933   6.927   9.620   2.217
74716W        W42934   5.864  25.495  12.079
74717W        W42935  22.234  38.357  10.698
74718W        W42936  40.144  26.275  11.802
74719W        W42937  15.587  36.297   1.933
74720W        W42938  44.528  12.619  14.848
74721W        W42939  36.559  28.773   4.990
74722W        W42940  30.216  31.112   4.292
74723W        W42941  31.519  34.491   1.462
74724W        W42942  24.611  18.379  11.865
74725W        W42943  36.306   3.699   2.377
74726W        W42944  24.013  13.591   4.459
74727W        W42945   3.447   5.762  13.482
74728W        W42946  35.587   9.268   0.386
74729W        W42947  26.114  19.317  12.802
74730W        W42948  42.432  26.492   3.605
74731W        W42949  15.115  25.316  11.545
74732W        W42950   7.765  44.256   3.313
74733W        W42951   3.857  32.859   2.527
74734W        W42952   3.474  13.819   3.086
74735W        W42953  14.580  13.087   3.232
74736W        W42954  12.246   1.954   2.666
74737W        W42955   6.829  30.973   4.740
74738W        W42956  22.794  41.532  14.778
74739W        W42957  21.255   8.713   4.756
74740W        W42958  23.276  25.078  12.616
74741W        W42959  15.759   4.822   2.661
74742W        W42960  31.976  18.232  11.636
74743W        W42961   1.294  17.207  12.812
74744W        W42962  33.023   7.624   1.788
74745W        W42963  31.567   4.874  11.669
74746W        W42964  38.684  29.710  12.721
74747W        W42965  44.778  40.967   1.952
74748W        W42966   3.196   1.019   2.248
74749W        W42967  16.641  24.993  14.537
74750W        W42968  41.554  35.054  10.917
74751W        W42969  31.797  33.618  11.928
74752W        W42970  32.895  14.240  11.890
74753W        W42971  22.051   3.746   3.707
74754W        W42972  27.877  32.855  11.329
74755W        W42973  34.552  35.351  14.892
74756W        W42974  35.516  43.435  13.415
74757W        W42975   0.567  37.985  12.528
74758W        W42976  40.232  12.859  14.325
74759W        W42977  35.898  24.247  13.015
74760W        W42978   4.456  17.448  13.913
74761W        W42979  35.971  15.845  10.735
74762W        W42980   4.568   7.074  11.087
74763W        W42981   3.025   3.701  14.352
74764W        W42982  29.400  21.627   1.629
74765W        W42983  14.127  26.193   3.290
74766W        W42984   8.868  20.454  13.109
74767W        W42985  37.626   3.801   0.366
74768W        W42986   9.267  33.421   4.471
74769W        W42987  32.377  12.822   4.070
74770W        W42988  39.500  32.151   1.406
74771W        W42989  29.689   3.832  13.961
74772W        W42990  21.135  26.701  12.935
74773W        W42991   0.313  12.830   4.573
74774W        W42992  31.197  26.652   2.114
74775W        W42993   2.580  15.725  13.427
74776W        W42994  13.247  16.320   0.177
74777W        W42995  12.554  32.032   4.047
74778W        W42996  18.307  10.479  12.075
74779W        W42997   0.851   4.734  11.428
74780W        W42998  36.064  17.626  14.437
74781W        W42999  41.412   6.603   5.044
74782W        W43000  44.309  14.710   0.747
74783W        W43001  38.324  43.585  13.357
74784W        W43002  34.496  42.296   4.056
74785W        W43003  41.866  25.892  14.998
74786W        W43004  18.446  11.679  11.626
74787W        W43005  39.751  24.254  14.978
74788W        W43006  24.203   0.213   2.101
74789W        W43007  22.902  11.838  11.107
74790W        W43008  28.688   3.686  10.256
74791W        W43009  17.200  27.796   0.864
74792W        W43010  14.339  42.485   0.116
74793W        W43011  26.605  34.162   4.175
74794W        W43012  24.111  10.303  12.914
74795W        W43013   4.556  44.951   4.716
74796W        W43014  18.569  40.814   4.618
74797W        W43015  40.297  35.517  13.928
74798W        W43016  20.694   6.914  12.117
74799W        W43017  36.164   1.285  10.258
74800W        W43018  33.573   1.693  10.267
74801W        W43019  10.634   7.378  13.642
74802W        W43020   0.936  31.518   1.006
74803W        W43021  27.530  26.147   3.203
74804W        W43022  33.838  38.362   1.342
74805W        W43023   6.979  33.668  11.590
74806W        W43024  43.055  21.217   3.582
74807W        W43025  15.375  25.232   4.026
74808W        W43026  40.298  21.660  11.745
74809W        W43027   7.868  26.879   4.952
74810W        W43028   5.726  42.204   3.702
74811W        W43029  26.749  22.692   0.047
74812W        W43030  14.717   0.058   4.491
74813W        W43031   5.680  24.624   4.867
74814W        W43032  38.459   7.837  12.510
74815W        W43033   8.133  26.074   3.059
74816W        W43034  35.569   9.675  11.031
74817W        W43035  30.939  10.135  13.771
74818W        W43036  17.597   4.461   3.688
74819W        W43037  24.112  41.406   1.059
74820W        W43038  18.089  19.774   1.211
74821W        W43039  34.640  41.527   4.497
74822W        W43040  43.811   2.272   4.961
74823W        W43041  33.008  35.422  14.902
74824W        W43042  38.622   3.489   3.690
74825W        W43043  37.541  28.467   0.160
74826W        W43044  30.499  13.937   4.145
74827W        W43045  33.753  29.343   4.148
74828W        W43046   5.883  13.194   0.570
74829W        W43047  43.522  32.168  13.453
74830W        W43048   0.864  11.417  12.009
74831W        W43049  32.496  43.741  10.911
74832W        W43050  32.118  22.674  14.343
74833W        W43051  14.213  10.149   0.772
74834W        W43052  20.273  21.101   1.881
74835W        W43053  12.807  31.565   1.131
74836W        W43054  16.588   1.856   3.153
74837W        W43055  42.534  25.523   2.234
74838W        W43056  10.145  12.281   3.093
74839W        W43057  15.436  10.234  10.664
74840W        W43058  30.583   8.302   3.384
74841W        W43059   1.498  37.802   0.486
74842W        W43060  17.482   1.544   1.633
74843W        W43061  18.307  28.689   3.610
74844W        W43062  40.662  33.363   4.493
74845W        W43063   7.474  17.521   9.696
74846W        W43064  15.127  32.620  11.914
74847W        W43065   5.900  29.470   1.676
74848W        W43066   1.427  18.461   0.901
74849W        W43067  10.191   3.322  14.856
74850W        W43068  33.996  26.015   0.244
74851W        W43069   3.828  22.162   0.545
74852W        W43070  33.968  33.937  14.906
74853W        W43071   5.606  14.169  11.746
74854W        W43072  27.509  19.444  11.043
74855W        W43073   8.822  43.055   2.940
74856W        W43074  27.551  44.185   3.543
74857W        W43075  17.537   0.342   1.425
74858W        W43076   7.616  35.451   0.718
74859W        W43077  24.970   3.964   0.821
74860W        W43078   5.850  18.177   3.647
74861W        W43079   1.725   1.863   1.794
74862W        W43080  28.037  36.646   2.183
74863W        W43081  25.108   6.296   4.667
74864W        W43082  25.179  21.793  11.718
74865W        W43083  17.074   2.523  11.647
74866W        W43084  23.503  32.399   1.690
74867W        W43085  19.057  37.967   1.811
74868W        W43086  22.242  41.135   5.076
74869W        W43087  11.200  16.060  10.079
74870W        W43088  10.429  18.810  13.122
74871W        W43089  22.997  12.544   0.194
74872W        W43090  28.125  35.362  13.355
74873W        W43091  30.849  23.721  14.390
74874W        W43092  17.266  22.753   0.223
74875W        W43093   7.438  39.240   2.897
74876W        W43094  23.000  24.688   0.271
74877W        W43095  16.853  19.502  13.928
74878W        W43096  40.901  31.138  13.938
74879W        W43097   4.341   4.908   2.890
74880W        W43098  40.869  29.246   1.739
74881W        W43099  40.838  27.415  11.102
74882W        W43100  38.444  38.291   4.783
74883W        W43101  30.443  38.308   4.482
74884W        W43102  41.561  16.081   2.267
74885W        W43103  35.252  30.511   2.249
74886W        W43104  35.413  44.451  13.338
74887W        W43105   1.531  22.748   3.443
74888W        W43106  11.628  11.264   3.969
74889W        W43107   9.101  35.091  13.622
74890W        W43108  20.149  41.486   0.529
74891W        W43109   4.294   3.265  13.839
74892W        W43110  15.530  11.719  12.498
74893W        W43111  37.407  15.050  10.515
74894W        W43112   0.237  11.741   3.287
74895W        W43113  28.363   8.972  13.572
74896W        W43114  25.855  26.793  10.579
74897W        W43115   2.899  42.993   2.652
74898W        W43116   0.435  44.512  12.944
74899W        W43117  35.140  26.227   2.880
74900W        W43118   9.138   1.766   0.219
74901W        W43119   1.898  37.849  10.757
74902W        W43120  39.577  24.351   3.825
74903W        W43121  27.177  24.575   2.666
74904W        W43122   8.251  40.110   3.327
74905W        W43123  25.468  23.509  13.301
74906W        W43124  18.337  38.204   3.192
74907W        W43125  26.582  26.723  11.109
74908W        W43126  44.392  30.183  10.745
74909W        W43127   1.404  38.993   2.185
74910W        W43128  28.809   6.823   0.241
74911W        W43129  24.996   7.866  10.719
74912W        W43130  27.732  20.688   3.368
74913W        W43131  38.534  22.658  10.849
74914W        W43132  43.080  44.928  13.544
74915W        W43133   1.325  43.645   2.335
74916W        W43134  28.834  27.993  14.954
74917W        W43135   4.713  13.177  13.336
74918W        W43136  11.858  33.063  13.985
74919W        W43137   6.375  44.016  11.192
74920W        W43138  31.318  42.550   1.556
74921W        W43139  24.919  42.544  12.912
74922W        W43140  22.037  42.498   0.870
74923W        W43141  19.758  16.101  14.083
74924W        W43142   5.911  15.847   0.662
74925W        W43143   3.741  30.473   4.100
74926W        W43144  33.975  35.051  10.479
74927W        W43145  20.632  35.827   4.588
74928W        W43146  26.345  20.724   5.337
74929W        W43147  41.684  20.058  11.233
74930W        W43148  11.602  17.759  10.491
74931W        W43149  30.658  10.255   2.226
74932W        W43150  32.460   8.326  12.979
74933W        W43151  34.294   6.660  13.469
74934W        W43152  29.151  37.822   0.441
74935W        W43153  33.891  26.385  11.679
74936W        W43154  14.666   2.692   1.298
74937W        W43155  24.248  35.464  10.910
74938W        W43156  34.848   5.447  12.902
74939W        W43157  39.053  36.625  10.592
74940W        W43158  40.028  31.368  11.457
74941W        W43159  37.173  27.584  14.659
74942W        W43160   7.281  23.105  14.980
74943W        W43161  13.627  15.552   3.686
74944W        W43162  30.623  33.753  14.438
74945W        W43163  16.287   1.189  11.621
74946W        W43164   6.107  33.617   4.546
74947W        W43165  40.245  35.277  10.841
74948W        W43166  18.193  43.522   1.173
74949W        W43167  42.693  37.420   1.237
74950W        W43168   2.897  12.409   0.765
74951W        W43169  26.157  20.727   2.250
74952W        W43170   1.337  20.825   5.022
74953W        W43171  44.991  42.990   4.054
74954W        W43172   0.233  35.490  14.553
74955W        W43173  43.786  21.983   0.298
74956W        W43174  16.249  40.275   2.795
74957W        W43175   2.263  21.511  14.465
74958W        W43176  32.809  14.169   0.700
74959W        W43177   8.846  24.717   0.806
74960W        W43178   8.338  37.628  11.464
74961W        W43179  41.810  30.062   4.603
74962W        W43180  14.716  15.763  12.180
74963W        W43181  18.321  16.477  13.907
74964W        W43182   7.444  17.610  11.537
74965W        W43183  41.626   2.490  11.385
74966W        W43184  24.320  40.879  12.376
74967W        W43185  10.882  44.934  10.506
74968W        W43186  30.060  15.193  11.743
74969W        W43187   0.338   1.886  13.685
74970W        W43188   8.135   4.907  13.931
74971W        W43189   2.903  27.073  13.019
74972W        W43190  36.534  31.978   2.288
74973W        W43191   2.907  20.685  13.377
74974W        W43192  30.123  19.566   3.588
74975W        W43193  19.373  44.507   3.580
74976W        W43194  33.032   3.351   4.097
74977W        W43195  37.774  35.652   1.953
74978W        W43196   7.405   3.742  14.488
74979W        W43197   5.416  23.545  11.926
74980W        W43198  18.567   3.157   4.214
74981W        W43199  36.391  17.159   1.450
74982W        W43200   8.443  42.800  10.564
74983W        W43201  34.477  44.931  11.514
74984W        W43202  28.355  24.644   1.283
74985W        W43203  33.726  35.970  14.807
74986W        W43204  10.265  24.964  10.732
74987W        W43205  10.356  15.816  13.904
74988W        W43206   5.655  12.697   3.429
74989W        W43207  16.683  37.121  12.557
74990W        W43208  40.528  35.129   2.312
74991W        W43209  19.271  16.006   2.627
74992W        W43210  21.542  31.573  10.341
74993W        W43211  38.613  35.939  11.146
74994W        W43212   2.833  37.000  11.954
74995W        W43213  25.308  34.799  14.229
74996W        W43214  11.347  37.927   4.521
74997W        W43215  34.028  22.909  13.320
74998W        W43216  29.318  19.640   1.098
74999W        W43217  44.285  44.393   3.161
75000W        W43218   3.164  38.313   1.704
75001W        W43219  38.521  41.471   3.656
75002W        W43220  14.249  20.755  12.375
75003W        W43221   2.252  41.900   0.946
75004W        W43222  41.548  35.097   4.765
75005W        W43223  22.132  38.095   4.901
75006W        W43224  43.582   2.815  13.623
75007W        W43225   9.723  11.742   0.466
75008W        W43226  26.593  40.793   0.446
75009W        W43227  28.155  22.233   2.728
75010W        W43228  37.592  23.226  12.373
75011W        W43229  30.084  28.027   1.748
75012W        W43230  44.235  39.106   0.849
75013W        W43231  35.584  25.573  13.596
75014W        W43232   1.493  42.754  11.719
75015W        W43233  39.178  15.131   4.314
75016W        W43234  30.549   0.637  13.986
75017W        W43235  38.016  16.223   3.193
75018W        W43236  34.023  39.111   0.714
75019W        W43237  25.330  13.712   1.651
75020W        W43238  24.212  32.675  13.302
75021W        W43239   4.592  19.449   0.154
75022W        W43240   5.273  43.986   3.661
75023W        W43241  13.608  41.598   1.268
75024W        W43242  27.448   2.806  12.008
75025W        W43243   1.039  42.916  14.958
75026W        W43244  17.989   2.276   3.292
75027W        W43245  37.112  38.351   3.385
75028W        W43246  27.498  34.111   4.553
75029W        W43247  32.867  12.791   2.822
75030W        W43248   9.179  36.879   3.602
75031W        W43249   2.548  27.571  13.726
75032W        W43250  13.566  11.429  10.489
75033W        W43251  11.852  29.207   4.583
75034W        W43252  15.091   3.619  13.244
75035W        W43253   1.235  40.670  14.627
75036W        W43254   0.221  36.918  11.620
75037W        W43255  27.171  16.796   1.782
75038W        W43256  23.554  34.521   2.834
75039W        W43257  29.742  23.117   3.299
75040W        W43258  12.656   0.595   4.550
75041W        W43259   2.438  39.457  12.514
75042W        W43260  10.168   1.813   3.126
75043W        W43261  23.770  12.192  14.226
75044W        W43262  20.845  37.716   5.557
75045W        W43263  42.977  37.325  12.171
75046W        W43264  43.898  17.854   3.150
75047W        W43265  11.055   0.212   4.555
75048W        W43266   1.678  28.529  11.574
75049W        W43267  28.168  24.225   3.255
75050W        W43268  25.187  13.227   2.686
75051W        W43269  41.209   9.604   2.798
75052W        W43270  29.307  39.517  11.193
75053W        W43271   1.051  10.677  11.528
75054W        W43272  24.560  19.686  10.736
75055W        W43273   6.844   8.692   0.441
75056W        W43274  17.092  39.868  12.604
75057W        W43275  24.703   7.234   2.373
75058W        W43276  14.102  35.042  11.935
75059W        W43277  17.483  10.642   2.150
75060W        W43278   8.676  39.278  10.603
75061W        W43279  25.359  29.562   2.289
75062W        W43280  36.576  25.469   1.530
75063W        W43281  21.449  14.275  13.485
75064W        W43282  39.417  13.841  14.607
75065W        W43283  27.424  22.695  14.393
75066W        W43284  31.758  20.476   2.479
75067W        W43285  17.434  33.083  12.935
75068W        W43286  17.973  41.508  13.010
75069W        W43287   2.909  26.120   4.827
75070W        W43288  22.621  28.767   4.638
75071W        W43289   6.104   7.283   2.291
75072W        W43290  30.080  28.924  14.696
75073W        W43291  11.709  33.064  11.572
75074W        W43292  34.037  10.475   0.145
75075W        W43293  24.658   7.409  13.439
75076W        W43294   0.063  26.225   1.102
75077W        W43295  20.636   3.879  11.850
75078W        W43296  43.012  22.580   0.092
75079W        W43297  42.004  21.897  12.379
75080W        W43298  11.148  24.933   1.063
75081W        W43299  13.060  39.161   1.850
75082W        W43300   8.680  23.315   2.107
75083W        W43301  32.643  33.487   4.100
75084W        W43302   2.764  37.452  12.179
75085W        W43303   5.399  25.024  14.133
75086W        W43304  20.709   0.356  13.988
75087W        W43305   1.781  30.676   2.857
75088W        W43306   1.663  16.153   1.307
75089W        W43307   6.223  11.284  10.549
75090W        W43308  33.005  32.171   3.351
75091W        W43309  16.016  38.433   4.774
75092W        W43310  25.322  21.631   4.080
75093W        W43311  40.056  11.980   1.926
75094W        W43312  34.359  22.588   4.487
75095W        W43313  22.028  22.070   2.197
75096W        W43314  29.706  23.724   1.861
75097W        W43315  44.485  21.729  14.925
75098W        W43316  10.198  15.660   3.498
75099W        W43317  18.483   5.759  11.958
75100W        W43318  22.174  15.117  14.436
75101W        W43319  14.765  22.080  11.889
75102W        W43320  38.075  19.718  14.390
75103W        W43321  37.618  31.871   3.723
75104W        W43322  29.936  18.631   1.341
75105W        W43323   6.869  40.342  13.112
75106W        W43324   7.294  16.123   1.902
75107W        W43325  35.823  28.412   1.405
75108W        W43326  24.150  18.279  12.061
75109W        W43327  11.575  41.820  11.140
75110W        W43328   9.369  24.098  11.552
75111W        W43329   3.485  44.846   0.683
75112W        W43330  10.218  42.488  11.912
75113W        W43331  26.197  14.967   0.981
75114W        W43332   3.995  20.375   3.069
75115W        W43333  10.421  33.877   3.119
75116W        W43334  16.170   9.858  12.926
75117W        W43335   0.407  39.344  11.474
75118W        W43336  38.580  33.880  12.368
75119W        W43337  20.334  22.129  13.863
75120W        W43338  15.703  22.273   3.416
75121W        W43339  38.854  14.622  11.427
75122W        W43340  16.519  32.436   0.939
75123W        W43341  12.407  26.349   4.842
75124W        W43342   6.877  31.386   1.780
75125W        W43343   5.463  26.653  14.468
75126W        W43344  13.241  38.662  12.917
75127W        W43345   3.878  25.577   1.477
75128W        W43346  29.106  27.569   1.901
75129W        W43347  16.169  18.446   4.696
75130W        W43348  26.524   9.601   0.472
75131W        W43349  20.043  23.600  13.864
75132W        W43350  11.220  24.795  10.690
75133W        W43351  34.648  18.596   4.357
75134W        W43352  17.705  14.419   2.413
75135W        W43353  19.497  20.673   3.167
75136W        W43354  23.192   1.697   2.250
75137W        W43355  34.313  20.800  11.577
75138W        W43356   1.723   2.993  13.206
75139W        W43357  16.257  11.703   3.880
75140W        W43358  15.929  20.553   0.053
75141W        W43359  35.846  21.656   4.253
75142W        W43360  18.556  11.641   1.185
75143W        W43361   7.597  34.152   2.365
75144W        W43362  30.161  43.482  12.207
75145W        W43363  18.113  28.301   2.158
75146W        W43364  43.889  33.543  11.967
75147W        W43365   9.189   3.918  14.837
75148W        W43366  44.240  41.571   3.237
75149W        W43367  42.440  15.981   0.341
75150W        W43368  37.328  17.325  12.021
75151W        W43369  37.310   6.164   4.924
75152W        W43370   9.502  26.110   4.803
75153W        W43371   3.866  25.231  10.778
75154W        W43372   4.974  16.659   1.411
75155W        W43373  10.083   0.800  11.612
75156W        W43374  18.081  36.895  12.480
75157W        W43375  28.031  40.838   1.882
75158W        W43376  22.381  23.156  12.468
75159W        W43377  28.490   4.734  13.563
75160W        W43378   6.401  27.015  12.957
75161W        W43379  27.141  19.331  13.647
75162W        W43380  44.552   4.146  12.446
75163W        W43381  18.605  41.543   4.412
75164W        W43382  36.520  15.444   2.108
75165W        W43383  20.065  30.617  13.127
75166W        W43384  17.222  44.988   3.107
75167W        W43385   1.712  31.464   3.641
75168W        W43386   7.937   9.781   1.281
75169W        W43387  10.912  35.426   2.269
75170W        W43388  34.930  37.521  11.477
75171W        W43389  20.323  26.023   1.317
75172W        W43390  26.685  30.444   3.218
75173W        W43391  39.320  32.607  14.482
75174W        W43392  41.991  34.298  14.311
75175W        W43393  26.219  35.528   0.539
75176W        W43394   0.819   4.734  12.399
75177W        W43395  39.312   1.932   1.456
75178W        W43396  44.909   2.801   0.778
75179W        W43397  26.554  43.536  11.346
75180W        W43398  18.226  12.606  13.456
75181W        W43399   2.212   3.934   1.774
75182W        W43400  44.199  24.952   1.784
75183W        W43401  39.901  16.297   2.484
75184W        W43402  29.445  24.975   1.272
75185W        W43403   1.145   0.726  11.999
75186W        W43404  34.516  42.519   2.680
75187W        W43405   5.250   0.405   4.142
75188W        W43406  22.460   7.804  10.721
75189W        W43407  27.517  44.478   3.982
75190W        W43408  37.573  19.712  12.621
75191W        W43409  12.250  38.139   3.101
75192W        W43410   8.795  13.336   0.533
75193W        W43411  33.930  43.874  12.957
75194W        W43412  44.636  33.889  10.353
75195W        W43413  12.139   7.952  11.184
75196W        W43414  20.039  38.918  12.506
75197W        W43415  39.570  44.218   3.635
75198W        W43416   6.000  29.370  13.519
75199W        W43417  37.742  36.591  13.952
75200W        W43418  44.890  15.718  14.337
75201W        W43419  33.647   9.694  10.843
75202W        W43420  12.272   2.206   3.274
75203W        W43421  24.508  36.674  14.744
75204W        W43422  37.801  21.993   1.235
75205W        W43423  33.374  10.023  14.986
75206W        W43424   0.796  15.780   2.728
75207W        W43425  32.827  33.978   3.486
75208W        W43426  10.142  41.524   4.566
75209W        W43427  13.685   7.819  10.684
75210W        W43428  15.129   3.352   0.977
75211W        W43429  40.773  10.473  14.456
75212W        W43430  34.433  21.484  14.466
75213W        W43431  19.663  26.434   3.591
75214W        W43432  18.819  19.959  14.062
75215W        W43433  31.677  22.485  13.970
75216W        W43434   2.889   5.206  11.427
75217W        W43435  25.618  34.978  11.735
75218W        W43436   3.397  17.758   3.238
75219W        W43437  34.970   1.093   4.611
75220W        W43438  24.446   0.221   1.642
75221W        W43439  44.044   2.838  13.325
75222W        W43440  14.069   8.407   0.872
75223W        W43441   8.936   6.687   3.620
75224W        W43442  37.526  34.036   2.222
75225W        W43443  21.251  10.053   1.615
75226W        W43444  14.607   2.348   1.734
75227W        W43445  41.504   0.262   2.252
75228W        W43446  16.732  27.356  13.493
75229W        W43447  24.498  43.739  12.513
75230W        W43448  43.416  38.999  14.770
75231W        W43449  33.431   4.795  11.664
75232W        W43450  40.003  17.669   1.720
75233W        W43451  38.539   0.955   2.181
75234W        W43452  13.352   0.453   3.116
75235W        W43453  31.383  15.065   4.621
75236W        W43454  16.753   8.785   1.332
75237W        W43455  19.293  30.925   1.530
75238W        W43456   9.354  39.881   3.693
75239W        W43457  24.253  32.859   1.906
75240W        W43458  18.336  28.566  14.944
75241W        W43459  32.927   8.594   0.888
75242W        W43460   6.385  34.230   2.758
75243W        W43461  30.926  11.196   3.239
75244W        W43462   4.027  17.279   2.731
75245W        W43463  14.919  24.209  12.897
75246W        W43464  29.863  12.893   4.107
75247W        W43465  43.856   9.365   0.065
75248W        W43466   1.465   1.945  14.740
75249W        W43467  13.801  31.189   2.861
75250W        W43468  21.410  37.556  14.801
75251W        W43469   5.396  21.559   3.624
75252W        W43470  22.713  15.740  11.757
75253W        W43471  27.158   9.770   0.669
75254W        W43472  33.226  43.298   4.504
75255W        W43473  36.523  42.724   3.273
75256W        W43474  23.025  20.572   2.236
75257W        W43475   5.478  32.433   4.347
75258W        W43476   6.313  27.047  10.067
75259W        W43477  29.338  42.189   1.395
75260W        W43478  23.162  27.650   2.949
75261W        W43479   3.456  16.126   4.642
75262W        W43480  36.827  41.562  11.953
75263W        W43481  11.194   8.707  10.425
75264W        W43482  42.570  30.798  14.650
75265W        W43483   4.374  10.924  12.102
75266W        W43484  25.306  29.516  14.347
75267W        W43485  35.366   7.467   3.617
75268W        W43486  13.311  26.522   0.700
75269W        W43487  43.426  34.348   3.729
75270W        W43488  44.328  41.464   4.996
75271W        W43489  13.207  11.463  10.103
75272W        W43490  17.066  10.878   2.420
75273W        W43491  17.258  23.810  13.566
75274W        W43492   3.429  21.353   0.225
75275W        W43493  18.351  22.426  11.183
75276W        W43494  12.279  40.507  10.923
75277W        W43495  42.458  16.352   4.791
75278W        W43496   1.271   0.499  11.426
75279W        W43497  32.121  36.972   3.587
75280W        W43498   8.756  13.722   4.610
75281W        W43499  13.952  35.519  11.885
75282W        W43500  28.670  10.447   0.011
75283W        W43501  17.715  32.595  12.997
75284W        W43502   7.720  17.770   1.904
75285W        W43503  28.989  23.561  10.775
75286W        W43504  27.713  18.212  13.007
75287W        W43505  39.723  44.964   4.104
75288W        W43506   1.820  23.602   4.554
75289W        W43507  16.444  32.958  13.930
75290W        W43508  12.320  19.523   4.069
75291W        W43509  41.895  42.727   2.352
75292W        W43510  35.535  26.666   4.170
75293W        W43511  31.129  24.260  13.351
75294W        W43512   3.622  30.356  14.414
75295W        W43513  22.474  31.362   1.913
75296W        W43514   0.255  30.971   1.051
75297W        W43515   8.183  28.792   1.160
75298W        W43516  25.904  19.870   0.858
75299W        W43517  34.517  41.605   0.967
75300W        W43518  13.839   4.341  11.088
75301W        W43519  16.271  18.239  12.579
75302W        W43520  38.371   1.877   2.802
75303W        W43521  25.470  33.274  14.356
75304W        W43522  35.848  10.842  14.343
75305W        W43523   3.514   5.407  12.551
75306W        W43524  17.866  10.088   0.714
75307W        W43525  44.029  17.600   2.245
75308W        W43526   5.507   3.832   1.342
75309W        W43527  26.416   8.321  10.667
75310W        W43528   3.483  35.807  14.237
75311W        W43529  38.314  43.891   4.978
75312W        W43530  32.596  29.056  11.670
75313W        W43531  14.418   7.915  14.486
75314W        W43532  24.219  12.685   1.360
75315W        W43533  21.056   2.778   4.320
75316W        W43534  43.862  33.633   1.390
75317W        W43535   1.868  29.893  12.527
75318W        W43536   3.443  28.015  11.553
75319W        W43537  10.794  19.699   3.586
75320W        W43538  44.723   4.839  14.886
75321W        W43539  43.266  29.111  14.718
75322W        W43540  22.566   1.228  13.070
75323W        W43541  24.126  38.344   2.423
75324W        W43542  33.639   3.932   0.725
75325W        W43543  44.505  17.622   1.947
75326W        W43544  43.485  30.383  11.623
75327W        W43545  43.230  26.546  14.292
75328W        W43546  20.033  14.984   0.514
75329W        W43547  43.589  42.254   3.816
75330W        W43548  21.605  32.392  14.754
75331W        W43549  24.160  27.047  11.352
75332W        W43550  30.894  19.130  12.900
75333W        W43551  43.068  28.731   0.768
75334W        W43552   1.429  25.779   1.381
75335W        W43553   0.000  13.298  11.642
75336W        W43554  39.307  42.038   0.871
75337W        W43555  35.390  19.994  12.976
75338W        W43556   3.773  14.199   1.475
75339W        W43557  38.393  30.633  14.898
75340W        W43558  39.504  41.487   4.656
75341W        W43559  14.964  44.195  13.281
75342W        W43560  28.019  32.405   0.835
75343W        W43561  13.666  31.401   1.902
75344W        W43562  44.387  31.745  13.728
75345W        W43563  30.174  28.012   0.114
75346W        W43564  44.808   6.767  11.705
75347W        W43565  17.555  23.074  12.425
75348W        W43566  24.615  11.081   2.284
75349W        W43567  23.723  28.611  10.953
75350W        W43568  28.208  14.258   1.407
75351W        W43569  38.508  32.471   3.657
75352W        W43570  33.956  14.030  12.804
75353W        W43571  28.499   9.114  12.642
75354W        W43572  43.065   4.249   3.205
75355W        W43573  40.734  27.635   4.317
75356W        W43574  29.682  28.607  11.068
75357W        W43575  40.871   3.116  13.963
75358W        W43576  44.526   6.264  13.957
75359W        W43577  28.337  34.897  13.317
75360W        W43578  37.892  34.811   1.205
75361W        W43579  31.443  23.229  14.726
75362W        W43580  29.834  10.652   3.727
75363W        W43581   0.672  24.741  12.810
75364W        W43582   3.145  11.360   0.133
75365W        W43583  40.259  25.684   0.661
75366W        W43584  22.773  25.979   4.022
75367W        W43585  13.883  42.303  13.345
75368W        W43586  25.687  20.506   2.393
75369W        W43587  23.146  32.247  11.013
75370W        W43588  33.311  24.849  11.577
75371W        W43589  23.035   0.286   4.154
75372W        W43590  39.817  15.670  11.428
75373W        W43591  43.264  23.521   2.673
75374W        W43592  35.521  19.616   0.048
75375W        W43593  27.595  36.443  13.747
75376W        W43594  25.196  38.429  12.265
75377W        W43595  33.401  27.600  10.603
75378W        W43596  25.048  35.094   3.727
75379W        W43597  24.612  19.641  12.331
75380W        W43598  10.863  41.302  10.990
75381W        W43599   7.145   1.343  14.336
75382W        W43600  43.732  42.907  14.313
75383W        W43601  19.973  40.699   3.182
75384W        W43602  44.407  10.198   4.634
75385W        W43603  18.227  11.822   0.410
75386W        W43604  32.463  34.627   1.497
75387W        W43605  34.713  30.951   4.469
75388W        W43606   0.519  40.472  14.073
75389W        W43607   0.643  23.178   4.711
75390W        W43608   5.634  18.190   2.729
75391W        W43609  38.989  25.699   0.753
75392W        W43610  29.461  12.652   4.563
75393W        W43611  26.104  30.888  10.608
75394W        W43612  40.284  42.912  13.745
75395W        W43613  39.375  40.783   0.264
75396W        W43614  28.364  21.164   4.401
75397W        W43615  34.049  27.059   2.829
75398W        W43616  22.289  36.986  13.842
75399W        W43617  10.230  23.431  13.498
75400W        W43618  41.286  33.379   2.167
75401W        W43619   6.360  14.801  14.398
75402W        W43620  33.999  40.994  12.966
75403W        W43621   4.874  11.472  11.105
75404W        W43622  17.556  19.176   0.020
75405W        W43623  12.215  21.617  12.937
75406W        W43624   8.142   8.249  12.203
75407W        W43625  11.591  27.579  14.897
75408W        W43626  17.499  39.297   1.911
75409W        W43627   3.202   3.218  10.780
75410W        W43628  43.204  30.475  13.088
75411W        W43629  33.587  38.413   1.824
75412W        W43630  39.633  30.586  11.082
75413W        W43631  42.349  24.210   3.257
75414W        W43632  35.611  15.024   2.337
75415W        W43633   2.743  42.652  10.747
75416W        W43634  30.431  38.732  13.080
75417W        W43635  21.534  33.207  12.294
75418W        W43636  31.660  20.215   2.922
75419W        W43637  19.321  33.743  14.074
75420W        W43638  27.665   3.400  11.962
75421W        W43639   2.746  32.255   3.286
75422W        W43640  22.556  42.028  13.815
75423W        W43641  21.794   1.806   4.066
75424W        W43642  14.309  24.723  11.613
75425W        W43643  22.675   6.600  11.614
75426W        W43644  38.265  18.677   4.699
75427W        W43645  33.824  35.084   1.965
75428W        W43646  40.893   5.487  14.604
75429W        W43647  33.375   4.419   2.264
75430W        W43648   3.229   5.465  11.135
75431W        W43649  35.560  36.536  14.630
75432W        W43650  37.847  20.237  13.131
75433W        W43651  24.848   4.738   3.857
75434W        W43652  32.520  21.645   2.228
75435W        W43653  14.321  37.164  11.191
75436W        W43654  14.533  10.751  14.303
75437W        W43655  26.657   2.819  12.428
75438W        W43656   2.261  28.962   9.581
75439W        W43657  10.927  41.489   4.110
75440W        W43658  29.124   5.171  12.540
75441W        W43659  30.068  19.589   1.712
75442W        W43660  27.518  15.823   1.882
75443W        W43661  14.911  11.662   4.184
75444W        W43662  43.570   0.984   0.471
75445W        W43663  12.418  32.178   1.342
75446W        W43664   3.583   8.374  13.467
75447W        W43665  10.357  22.196   0.028
75448W        W43666   6.508  25.882  14.016
75449W        W43667   5.626  16.080   0.263
75450W        W43668   4.385  32.016   2.666
75451W        W43669  24.810  31.542  14.028
75452W        W43670  32.690   2.644  10.122
75453W        W43671  21.139  41.418  10.835
75454W        W43672  43.483  12.696   2.696
75455W        W43673   8.180  32.460   0.361
75456W        W43674  41.557  11.798   3.846
75457W        W43675  30.917  15.223  14.782
75458W        W43676  22.663  33.957   0.891
75459W        W43677  22.699  21.110   4.472
75460W        W43678  40.519   6.677  12.492
75461W        W43679  20.168  25.776   3.858
75462W        W43680  27.825   4.081   3.346
75463W        W43681   6.709  11.889  11.206
75464W        W43682   9.296   5.822   1.795
75465W        W43683  29.338   0.593   2.818
75466W        W43684  23.454  16.951  10.851
75467W        W43685  23.357  31.489  12.888
75468W        W43686   6.295   8.433  12.477
75469W        W43687  31.350  32.560   2.826
75470W        W43688  44.764  34.829   3.772
75471W        W43689   9.892  12.217   0.372
75472W        W43690  43.266  28.410   0.391
75473W        W43691  23.521   7.714  12.916
75474W        W43692  26.823  14.219   3.621
75475W        W43693   6.683  16.879   0.921
75476W        W43694  20.244  23.089  13.861
75477W        W43695  18.438  13.844  10.411
75478W        W43696  41.566  30.366   1.622
75479W        W43697  38.566  19.753  14.032
75480W        W43698  24.965  17.568  10.745
75481W        W43699  14.347   6.004  12.445
75482W        W43700  28.961  13.220  10.605
75483W        W43701   0.517   8.240   0.336
75484W        W43702  35.175  32.069   5.009
75485W        W43703  28.410   3.913   2.785
75486W        W43704  22.127  38.823  11.033
75487W        W43705  15.526  22.113  11.182
75488W        W43706  20.217  26.721   0.879
75489W        W43707  11.345  21.300  14.413
75490W        W43708  29.129  20.470   3.432
75491W        W43709  15.429  17.630   2.767
75492W        W43710  14.885  20.608   4.565
75493W        W43711   6.215  30.632   3.415
75494W        W43712  26.566  32.381  14.577
75495W        W43713   9.045  26.986  14.321
75496W        W43714  41.066  26.625  13.530
75497W        W43715   7.748  44.774  11.461
75498W        W43716   6.342   7.021   1.907
75499W        W43717  30.314  26.574   0.902
75500W        W43718  40.178  14.888   4.172
75501W        W43719  15.799  13.888  14.456
75502W        W43720  27.662  29.028  13.117
75503W        W43721  27.039  39.863   4.626
75504W        W43722  33.336  33.584   2.277
75505W        W43723  36.311   4.207  13.877
75506W        W43724  43.568  16.404   0.509
75507W        W43725  10.077  29.525   4.177
75508W        W43726   4.845  27.184  13.883
75509W        W43727  15.028  36.348   3.887
75510W        W43728  34.472  27.662  12.737
75511W        W43729  32.425  31.695  13.860
75512W        W43730  15.653  12.250   3.367
75513W        W43731  34.186  44.018   0.102
75514W        W43732  28.874  41.889  12.333
75515W        W43733  34.581  13.120   2.209
75516W        W43734  12.567  10.934  12.105
75517W        W43735  20.680  37.333   4.719
75518W        W43736  14.763  21.525  10.727
75519W        W43737  21.569   6.652   4.539
75520W        W43738  10.969  43.551   5.066
75521W        W43739  27.726  34.745   0.841
75522W        W43740  26.228  26.161   3.432
75523W        W43741  19.904  10.960  10.941
75524W        W43742  17.309  32.733  12.546
75525W        W43743  32.064  29.587  13.763
75526W        W43744  19.205  31.697   2.159
75527W        W43745  19.302   9.568   3.200
75528W        W43746   5.322  36.592  14.444
75529W        W43747  35.810   4.217  11.163
75530W        W43748   1.502  21.047   4.237
75531W        W43749  27.019  34.116   2.869
75532W        W43750  40.278   8.831  14.812
75533W        W43751  37.518   0.184  12.984
75534W        W43752  34.290   0.042  10.623
75535W        W43753  39.014  37.693   9.883
75536W        W43754   5.413  39.791   3.173
75537W        W43755  39.945  42.836   3.378
75538W        W43756  36.932   9.238  10.770
75539W        W43757  40.842  34.957  14.007
75540W        W43758   9.584  36.484   3.248
75541W        W43759   1.825  18.784   0.768
75542W        W43760  11.816  34.837   1.376
75543W        W43761  20.736  15.468   4.635
75544W        W43762  42.482  23.215   3.340
75545W        W43763  15.491   0.912   2.838
75546W        W43764  35.400  30.917  14.476
75547W        W43765  31.882  10.667  13.532
75548W        W43766  28.230  37.153   2.309
75549W        W43767  35.482  29.288   5.035
75550W        W43768  11.868  44.460  13.165
75551W        W43769  34.007   2.943   2.832
75552W        W43770  11.892  29.053  14.176
75553W        W43771  21.033  21.315   2.749
75554W        W43772   6.313  34.557   0.615
75555W        W43773   8.387  29.971  14.743
75556W        W43774  44.474  20.478   1.486
75557W        W43775  25.514  25.166  11.983
75558W        W43776  20.190  24.545  14.868
75559W        W43777  34.336  22.821  10.716
75560W        W43778  29.476  27.347  14.045
75561W        W43779  18.115  42.028   3.767
75562W        W43780  38.322   8.399   0.254
75563W        W43781  13.212  41.340  12.588
75564W        W43782  26.094  19.366   4.549
75565W        W43783  43.443  19.763   3.648
75566W        W43784  12.023  30.042   2.551
75567W        W43785  21.672  34.127   1.262
75568W        W43786  14.189  29.898   2.693
75569W        W43787  28.501  31.895  10.694
75570W        W43788  11.225  37.219   1.620
75571W        W43789  13.669   2.856   2.213
75572W        W43790  41.082   3.964   5.156
75573W        W43791  22.040  10.905  12.100
75574W        W43792   6.287   3.667  10.549
75575W        W43793   1.733  27.818  14.283
75576W        W43794  35.612  14.336   4.561
75577W        W43795  37.478  28.402   1.728
75578W        W43796  26.351  14.634   2.338
75579W        W43797  41.554  34.046  14.384
75580W        W43798  10.952   8.794   0.339
75581W        W43799  10.906   4.914  10.629
75582W        W43800  39.711  35.034  12.103
75583W        W43801  15.141   1.535  12.033
75584W        W43802  42.617  39.409  10.628
75585W        W43803  13.427  14.366  10.326
75586W        W43804  43.772   7.379   4.970
75587W        W43805  35.049  21.726   4.920
75588W        W43806  15.667  21.152   2.679
75589W        W43807  42.155  10.410   2.161
75590W        W43808  34.428  32.055  13.784
75591W        W43809  16.218   7.161  14.454
75592W        W43810  32.483  29.447  12.000
75593W        W43811   4.332  15.367   3.261
75594W        W43812  10.346   2.428   4.195
75595W        W43813  39.806   9.656  11.628
75596W        W43814  40.989  40.999   4.585
75597W        W43815  24.747   3.269  14.324
75598W        W43816   9.791  16.457  12.893
75599W        W43817   3.521  15.986   2.741
75600W        W43818  23.425   5.875  14.387
75601W        W43819  27.148  41.270  12.951
75602W        W43820  13.713  39.466   4.860
75603W        W43821   7.407  10.933  10.722
75604W        W43822  34.344  30.562   3.664
75605W        W43823  26.225  39.093   4.047
75606W        W43824   2.744  27.499  12.773
75607W        W43825  14.278   1.531   0.080
75608W        W43826  41.825  13.562   1.737
75609W        W43827  37.270  41.689   4.702
75610W        W43828  30.258   8.911  14.766
75611W        W43829  33.443  29.976  12.225
75612W        W43830  36.879   8.590  11.980
75613W        W43831   5.227  22.781  11.920
75614W        W43832  12.123  35.114   1.060
75615W        W43833  36.980  37.620  13.375
75616W        W43834   8.395  27.972   4.826
75617W        W43835   1.908  13.102   0.323
75618W        W43836  39.471  14.186   2.672
75619W        W43837  36.847  42.899  12.488
75620W        W43838  44.300  22.603   0.844
75621W        W43839  30.383  25.518   3.636
75622W        W43840  40.563  28.073   4.085
75623W        W43841  24.686  32.035  13.508
75624W        W43842  44.322  12.831   4.754
75625W        W43843   9.189  10.418   0.957
75626W        W43844  24.347  39.849  11.824
75627W        W43845   8.930  37.352   0.812
75628W        W43846  29.013   4.489  14.371
75629W        W43847  31.431  11.259   2.349
75630W        W43848  19.949  43.789   2.388
75631W        W43849  13.120  26.760  13.442
75632W        W43850   9.364  37.246   0.199
75633W        W43851  25.959   3.353   1.366
75634W        W43852  29.564  27.738  13.411
75635W        W43853  40.353  29.936  12.637
75636W        W43854  41.515   3.378   5.080
75637W        W43855   1.837  15.637  10.579
75638W        W43856   8.861   4.028   4.351
75639W        W43857  40.388   9.846   0.031
75640W        W43858  13.869  44.831   0.515
75641W        W43859  21.190  30.367  13.801
75642W        W43860  11.818  10.364  11.374
75643W        W43861   8.690  22.130   1.909
75644W        W43862  36.731  28.021  11.986
75645W        W43863  14.108  27.939   0.399
75646W        W43864   6.882  24.918   3.755
75647W        W43865  15.280  20.115   2.293
75648W        W43866   5.659  26.243   0.386
75649W        W43867  16.349  38.028  11.151
75650W        W43868  24.483  43.825   4.621
75651W        W43869  37.949  10.784   3.951
75652W        W43870  41.387  42.740  12.998
75653W        W43871  40.766  21.292   3.311
75654W        W43872  15.731  36.979   3.766
75655W        W43873  21.790  17.316  13.924
75656W        W43874  31.097  11.010  13.328
75657W        W43875  35.522  42.392   1.830
75658W        W43876  28.656  31.655   3.166
75659W        W43877  22.026  11.269   2.871
75660W        W43878  22.125  27.659  12.806
75661W        W43879  11.266  19.085   0.225
75662W        W43880  10.795  26.074   3.433
75663W        W43881  12.314  36.956   3.631
75664W        W43882   0.787   9.885   3.412
75665W        W43883  23.634  24.296  10.612
75666W        W43884  24.782  40.928  12.593
75667W        W43885  41.118   1.212  13.807
75668W        W43886  13.421  13.674  12.934
75669W        W43887   8.429   5.362  14.801
75670W        W43888  21.511  18.216  14.857
75671W        W43889  43.870  10.247   2.862
75672W        W43890  34.947  41.807  11.650
75673W        W43891   1.722  26.422   5.071
75674W        W43892  11.354   0.605   3.746
75675W        W43893  43.851  42.944  11.493
75676W        W43894  36.226  27.154  12.539
75677W        W43895  11.759  34.446   4.523
75678W        W43896   2.903  29.595   3.748
75679W        W43897  22.141  20.253   0.539
75680W        W43898  30.989  18.342  11.030
75681W        W43899  19.501  31.941  11.509
75682W        W43900   0.446  37.413  11.665
75683W        W43901   6.729  28.586  14.726
75684W        W43902   2.655  32.554   3.734
75685W        W43903  19.432   5.292   1.898
75686W        W43904  27.850  39.364   3.276
75687W        W43905  35.304  11.219   1.208
75688W        W43906  32.609  44.351   0.269
75689W        W43907  24.197  32.125  11.508
75690W        W43908  38.382  30.848   1.878
75691W        W43909  37.846  25.327  10.558
75692W        W43910  39.204  22.561   1.971
75693W        W43911   2.452  22.100  11.715
75694W        W43912   8.376  41.597   3.271
75695W        W43913   5.409  37.467   2.406
75696W        W43914  27.457  20.398  13.569
75697W        W43915   6.288  31.703  13.579
75698W        W43916   8.546  44.395   5.113
75699W        W43917  17.155  25.902  12.539
75700W        W43918  30.392  13.176  10.715
75701W        W43919  29.878  10.829  12.633
75702W        W43920   0.680  26.713   0.600
75703W        W43921   4.437   9.395  13.920
75704W        W43922  14.355  11.073   4.555
75705W        W43923  21.700  16.062   1.763
75706W        W43924  32.029  16.692  13.067
75707W        W43925  28.045  32.750   4.785
75708W        W43926   9.889  29.181   1.260
75709W        W43927  25.671  37.076   3.715
75710W        W43928  42.462  28.083  12.598
75711W        W43929  19.942  24.971   2.415
75712W        W43930  22.133  30.958   2.013
75713W        W43931  25.617  21.451  14.052
75714W        W43932  12.272   0.227  13.970
75715W        W43933  13.509  40.508   3.821
75716W        W43934  33.957  31.381  13.553
75717W        W43935  23.437  42.433  10.576
75718W        W43936  37.473  22.362   1.086
75719W        W43937  43.414  19.059   0.822
75720W        W43938  42.513   1.964   0.736
75721W        W43939   8.040   0.752   1.158
75722W        W43940  17.098  10.810   4.881
75723W        W43941  22.758  36.134  10.723
75724W        W43942  21.186   5.252  12.407
75725W        W43943  14.286  16.629  12.572
75726W        W43944   4.190  32.354  14.091
75727W        W43945   9.720  18.708   4.612
75728W        W43946  28.165  17.541  14.444
75729W        W43947   4.425  44.578  10.292
75730W        W43948  27.025   7.865  11.157
75731W        W43949  18.249  17.432  12.983
75732W        W43950  11.864  32.031  14.371
75733W        W43951   9.694  27.684   3.327
75734W        W43952  32.135   7.670  12.468
75735W        W43953  40.952  43.464  14.690
75736W        W43954  20.930  31.817   9.691
75737W        W43955   1.485   9.676  11.164
75738W        W43956  31.130   7.253   1.834
75739W        W43957  43.737  25.079   2.490
75740W        W43958  14.386  24.945   2.307
75741W        W43959  11.294  10.673  11.173
75742W        W43960   0.508  19.370  13.423
75743W        W43961   2.904  43.411  13.291
75744W        W43962  11.579  32.416   2.806
75745W        W43963  42.929   6.634  14.223
75746W        W43964  30.339  38.015   0.886
75747W        W43965  41.086  12.074  13.440
75748W        W43966  25.553  14.557   0.786
75749W        W43967   3.337   0.295  13.099
75750W        W43968  44.459  30.154   2.458
75751W        W43969  33.887  21.265  12.032
75752W        W43970  37.078  33.901  13.387
75753W        W43971   1.085   8.016  10.632
75754W        W43972  11.002  29.452  11.147
75755W        W43973  38.933  34.550   2.693
75756W        W43974  34.799  40.899   1.354
75757W        W43975  39.948  30.869  14.475
75758W        W43976   8.961  31.011  12.651
75759W        W43977   8.407  43.372   2.161
75760W        W43978  26.811   9.078  11.140
75761W        W43979  14.479  40.625   3.609
75762W        W43980  21.428   9.929  12.418
75763W        W43981   3.827  44.872   0.303
75764W        W43982  26.233   0.286   2.202
75765W        W43983  33.448  33.050  14.502
75766W        W43984  42.832  25.795  14.923
75767W        W43985   7.340  35.492  13.420
75768W        W43986  28.385  44.478  11.422
75769W        W43987  35.660   1.046   1.355
75770W        W43988  37.823  14.781  13.134
75771W        W43989  36.808  42.704  12.986
75772W        W43990  11.202  12.648   2.999
75773W        W43991  24.116  11.314   9.636
75774W        W43992  36.985  41.907   1.889
75775W        W43993  26.101  39.127   3.030
75776W        W43994   0.397  32.851  14.161
75777W        W43995  10.175   7.933  14.576
75778W        W43996  34.867   7.671  14.287
75779W        W43997   6.026   6.851   1.081
75780W        W43998  30.547  25.108   0.795
75781W        W43999  18.981  44.533   1.857
75782W        W44000  12.976  10.153   5.057
75783W        W44001  40.956  15.663   0.226
75784W        W44002  11.190  40.887  13.084
75785W        W44003  32.953  43.366  12.621
75786W        W44004   6.139  30.317   4.509
75787W        W44005   4.120   3.295   2.726
75788W        W44006  26.885   8.216  13.084
75789W        W44007  36.006  28.636  10.519
75790W        W44008   2.847   5.360   2.242
75791W        W44009  25.714  19.192   4.876
75792W        W44010  32.982  26.469   2.390
75793W        W44011  43.668  30.122   4.513
75794W        W44012   0.749  20.173   0.083
75795W        W44013  25.730  29.993  14.780
75796W        W44014  10.827  13.941   2.967
75797W        W44015  11.190   8.578  12.499
75798W        W44016  27.566   4.091   4.469
75799W        W44017  20.571   0.786  14.549
75800W        W44018  10.299  33.958   2.250
75801W        W44019  12.757  11.759  13.812
75802W        W44020  30.447  27.746  10.707
75803W        W44021   7.724  42.754   0.776
75804W        W44022   5.218  17.997  10.717
75805W        W44023  33.911  21.193   0.268
75806W        W44024  17.695  15.326  13.522
75807W        W44025  20.000  13.617   1.389
75808W        W44026   3.243  13.238   0.331
75809W        W44027  43.290  14.299   3.507
75810W        W44028  20.661  34.451  13.464
75811W        W44029  24.042  31.498   1.372
75812W        W44030   4.621   9.217   4.164
75813W        W44031  25.641  31.974   2.307
75814W        W44032  36.493  17.378   0.264
75815W        W44033   3.037  36.667   0.638
75816W        W44034  34.667   2.408   0.977
75817W        W44035  31.390  44.526   2.274
75818W        W44036  27.158  32.932   0.628
75819W        W44037  38.244  41.015   3.626
75820W        W44038  12.116  23.679   3.187
75821W        W44039   8.353  31.527   1.274
75822W        W44040  33.563   5.015  13.511
75823W        W44041  23.540  39.915  10.876
75824W        W44042  31.435  15.809   3.723
75825W        W44043  39.223  31.978   4.467
75826W        W44044   4.512  23.237   0.735
75827W        W44045  41.396   3.968  13.021
75828W        W44046  19.341  28.072   2.799
75829W        W44047  13.174  40.850  12.445
75830W        W44048  39.417   6.145  12.019
75831W        W44049  32.482  27.188  11.084
75832W        W44050   4.893   7.246   4.071
75833W        W44051  25.259   1.397  14.074
75834W        W44052  34.771   9.654   0.281
75835W        W44053  25.910   2.268   1.817
75836W        W44054  37.370  31.225   3.132
75837W        W44055  43.246  44.974   0.985
75838W        W44056   6.756   5.449  10.715
75839W        W44057  24.686  12.689  12.993
75840W        W44058  32.842   6.595   0.874
75841W        W44059   8.872  24.157  14.535
75842W        W44060  35.520  35.843   1.663
75843W        W44061  27.374   7.584  14.016
75844W        W44062  19.350   6.890  12.066
75845W        W44063  20.726  35.406  13.892
75846W        W44064   5.019   5.266   3.360
75847W        W44065  34.211   5.161   2.318
75848W        W44066  20.387  18.158  12.559
75849W        W44067  10.724  22.728   2.897
75850W        W44068  36.001  15.545   1.712
75851W        W44069  22.559  29.354  10.712
75852W        W44070  43.328  25.651  14.789
75853W        W44071  36.859  35.739   2.707
75854W        W44072  24.599  10.103  14.201
75855W        W44073  18.798  14.333  11.167
75856W        W44074  20.818  37.080   3.138
75857W        W44075  33.608   2.257   4.974
75858W        W44076   5.957  39.550  12.150
75859W        W44077   5.633  21.650   1.098
75860W        W44078  23.823  35.775  14.788
75861W        W44079  36.515  25.109  10.862
75862W        W44080  13.089  29.569   3.194
75863W        W44081   1.935  43.372   5.118
75864W        W44082  40.417  15.615  11.485
75865W        W44083   3.761  23.227  13.750
75866W        W44084   4.712  26.061   2.807
75867W        W44085  30.435  20.047   4.238
75868W        W44086  27.871  25.735  13.169
75869W        W44087  38.181  16.773   1.267
75870W        W44088   4.024   6.388  11.574
75871W        W44089  24.431  25.532   4.496
75872W        W44090  10.374  22.057  14.502
75873W        W44091   0.516  35.049  13.791
75874W        W44092  33.465  12.107  11.598
75875W        W44093  36.054  23.303   2.214
75876W        W44094  37.919   0.429  11.233
75877W        W44095   8.188  41.883  12.525
75878W        W44096   5.398  35.019  13.124
75879W        W44097   7.384  32.074   1.294
75880W        W44098  24.868  42.317  13.434
75881W        W44099  32.006  13.665   4.003
75882W        W44100  31.501   5.424   1.936
75883W        W44101  11.930  39.581  11.166
75884W        W44102  21.000  44.481  14.338
75885W        W44103  12.532  20.891  12.053
75886W        W44104  33.538  13.825  14.283
75887W        W44105  18.058  43.404  10.885
75888W        W44106  19.820  11.402   3.757
75889W        W44107  13.509  13.668   1.692
75890W        W44108   1.965  38.788   4.393
75891W        W44109  20.107  32.077   4.208
75892W        W44110  16.668   5.135   0.746
75893W        W44111  34.347   5.244  11.889
75894W        W44112  20.528  38.568  12.569
75895W        W44113  44.397   6.338   3.587
75896W        W44114  22.114  18.336   0.403
75897W        W44115  12.276  10.605  11.269
75898W        W44116  15.647  19.018  14.051
75899W        W44117  20.802  25.917  13.016
75900W        W44118   0.138  28.182  12.336
75901W        W44119   1.747   2.074  14.321
75902W        W44120  43.571   1.582  11.645
75903W        W44121  21.602  12.515   4.964
75904W        W44122  42.335  24.438   0.531
75905W        W44123   0.204  39.836   4.100
75906W        W44124   3.495  26.985   0.452
75907W        W44125  25.937  33.196  11.564
75908W        W44126   8.180  43.065  10.932
75909W        W44127  25.485  21.165   2.845
75910W        W44128  25.633  22.255  13.804
75911W        W44129  39.988  18.212   3.387
75912W        W44130  39.909  40.281  12.363
75913W        W44131  15.814  44.294  11.844
75914W        W44132  27.885   9.619  13.998
75915W        W44133   6.439  29.133   0.896
75916W        W44134  22.653   5.266   2.914
75917W        W44135   2.210  25.587  12.087
75918W        W44136  10.694  12.600  12.676
75919W        W44137   8.512   7.633  11.442
75920W        W44138   4.981  10.282  12.574
75921W        W44139  38.946  37.107  13.940
75922W        W44140  28.160  11.311   0.006
75923W        W44141   6.343  39.319   0.024
75924W        W44142   4.357  22.367  14.246
75925W        W44143  20.799  11.234  13.653
75926W        W44144  17.301  14.544  13.467
75927W        W44145  36.417   4.451   1.730
75928W        W44146  34.146  23.496   2.377
75929W        W44147   0.872  34.030   3.300
75930W        W44148  14.650  10.735   4.306
75931W        W44149  43.567  33.850   3.716
75932W        W44150  32.562   9.934   0.962
75933W        W44151   3.386  18.313  14.416
75934W        W44152  34.522  43.032   2.698
75935W        W44153  44.001   1.175   0.816
75936W        W44154  11.783  11.656  10.412
75937W        W44155   3.367  22.056  10.292
75938W        W44156  25.418  40.095  14.819
75939W        W44157  27.160  21.218   1.790
75940W        W44158  40.442  29.245   0.442
75941W        W44159  43.102  33.440   1.748
75942W        W44160  36.609   6.803   1.360
75943W        W44161  27.167  39.021   0.474
75944W        W44162  35.107  33.441  13.601
75945W        W44163  17.234  37.913   4.355
75946W        W44164  10.385  25.576   4.644
75947W        W44165   7.360  37.608  13.426
75948W        W44166  41.396  16.671   1.445
75949W        W44167  29.559  26.865   2.182
75950W        W44168   1.993  14.793  10.366
75951W        W44169  22.814  14.753  11.047
75952W        W44170   8.875  29.894  14.889
75953W        W44171  40.549  44.006   3.804
75954W        W44172   5.317  33.156  12.939
75955W        W44173  36.137   4.638   2.539
75956W        W44174  15.674  20.167   4.553
75957W        W44175  29.769  34.814  13.977
75958W        W44176  29.953  16.138   3.264
75959W        W44177  40.120   5.987   3.628
75960W        W44178  40.818  31.145   4.267
75961W        W44179  37.973  30.225   3.584
75962W        W44180  25.468  35.671   1.282
75963W        W44181  10.130  38.813  10.512
75964W        W44182  35.477  41.947  12.064
75965W        W44183   8.414   8.311  14.710
75966W        W44184  19.578  15.283   3.246
75967W        W44185  34.327  26.113  11.130
75968W        W44186  21.512  36.487   0.125
75969W        W44187  10.433   0.325  11.565
75970W        W44188  17.539  29.543   0.351
75971W        W44189   8.856   0.390  13.966
75972W        W44190  23.412   8.378   1.408
75973W        W44191   7.971  15.726  14.388
75974W        W44192  44.193  34.760   3.091
75975W        W44193  38.030  40.983  11.873
75976W        W44194  26.512   2.729   0.858
75977W        W44195  28.566  13.923   5.487
75978W        W44196  15.500  31.427  14.436
75979W        W44197   9.185   9.471   0.729
75980W        W44198  39.308  43.790  12.144
75981W        W44199   3.489   8.403   1.796
75982W        W44200  23.643   9.480   0.471
75983W        W44201  20.344  27.174   0.024
75984W        W44202  23.813  11.414   3.281
75985W        W44203  29.948  25.932  12.980
75986W        W44204  24.864  44.815   3.685
75987W        W44205  10.245  22.125   1.504
75988W        W44206   4.072  18.488   3.163
75989W        W44207  15.764  25.165   0.526
75990W        W44208  13.286  15.899  12.533
75991W        W44209   0.747  41.004   1.337
75992W        W44210  44.092   9.210   0.506
75993W        W44211  11.847  27.463   0.493
75994W        W44212  22.071  28.472  13.921
75995W        W44213  17.684  41.442   2.062
75996W        W44214  28.671   4.210   4.604
75997W        W44215  17.590  40.255   0.489
75998W        W44216  32.385  14.161   0.984
75999W        W44217  28.532   7.621   4.695
76000W        W44218  33.814  17.352   5.094
76001W        W44219  11.589  24.678   2.234
76002W        W44220  41.395   4.005   2.281
76003W        W44221  29.687  28.190   3.407
76004W        W44222  41.040   7.935  10.731
76005W        W44223  13.638  37.873   1.905
76006W        W44224  30.152  35.594  13.532
76007W        W44225  13.816  44.356   1.931
76008W        W44226  17.070  40.241   0.419
76009W        W44227  25.569  40.972   4.682
76010W        W44228   8.702  23.636   3.285
76011W        W44229  11.420   6.769   4.539
76012W        W44230  18.986   2.348  11.979
76013W        W44231   4.996  16.746  14.889
76014W        W44232  28.692  13.153  14.839
76015W        W44233   4.319   8.234   0.246
76016W        W44234  16.249  33.013  11.897
76017W        W44235   0.211  16.811  14.862
76018W        W44236  23.563  14.775   3.756
76019W        W44237  26.231  40.971   3.449
76020W        W44238  31.573   5.196   2.403
76021W        W44239   3.698  20.709   3.996
76022W        W44240  36.600  21.059   4.074
76023W        W44241  40.453   6.159  12.478
76024W        W44242  31.458  17.101   2.000
76025W        W44243  11.618  40.117  13.144
76026W        W44244  10.603  28.066   0.980
76027W        W44245  36.268  35.521  13.407
76028W        W44246  33.318  30.182  13.917
76029W        W44247  35.654  28.963  12.444
76030W        W44248  16.132   3.420   0.780
76031W        W44249  30.751   6.392  11.117
76032W        W44250  42.366  31.915  11.612
76033W        W44251  16.358  16.866  11.088
76034W        W44252   9.318  41.484   3.462
76035W        W44253   5.159   0.943   3.889
76036W        W44254  35.936   4.299  12.131
76037W        W44255  10.026  25.485   0.846
76038W        W44256  43.772  25.470  14.269
76039W        W44257  36.527   6.652   2.424
76040W        W44258  21.664  24.984  14.444
76041W        W44259  39.586   3.411  12.032
76042W        W44260   6.245  32.655  11.381
76043W        W44261   8.782  36.489   4.076
76044W        W44262  14.294  24.105   1.792
76045W        W44263  23.095  38.572  11.585
76046W        W44264  27.634  35.886   0.035
76047W        W44265  10.283  21.746  12.598
76048W        W44266  32.487  20.433   1.819
76049W        W44267   7.653  30.856   0.580
76050W        W44268  40.024  40.798   3.828
76051W        W44269  24.471  41.343  12.626
76052W        W44270  40.463  18.083  14.103
76053W        W44271  15.142  16.984   3.532
76054W        W44272   0.856  32.767   2.659
76055W        W44273  18.076  40.915  11.974
76056W        W44274  19.202  17.550  12.185
76057W        W44275  40.799   2.410   0.799
76058W        W44276  21.879  35.713  12.968
76059W        W44277  42.272  34.992   1.849
76060W        W44278  31.381   1.976  13.242
76061W        W44279   5.393  23.186   3.320
76062W        W44280  37.915  44.416   1.720
76063W        W44281  12.923  11.345   0.502
76064W        W44282  32.642   9.414   2.439
76065W        W44283  29.910  27.366   2.902
76066W        W44284  28.834  19.505  10.709
76067W        W44285  37.279  37.939  13.628
76068W        W44286  17.146   7.668   2.137
76069W        W44287   9.916  15.948   2.797
76070W        W44288   0.686   6.467   4.222
76071W        W44289  18.524  15.571  11.445
76072W        W44290   9.905  18.278  10.764
76073W        W44291  22.700   2.948  14.683
76074W        W44292   3.376  22.804   0.165
76075W        W44293  40.919  30.020   3.931
76076W        W44294   4.232  42.378  12.093
76077W        W44295  21.683  41.976   1.360
76078W        W44296  24.038   4.931   2.334
76079W        W44297   5.229  42.771  14.360
76080W        W44298  11.461   9.255   1.345
76081W        W44299  36.582  38.347  10.713
76082W        W44300  43.729  31.032  13.847
76083W        W44301   8.887  30.434  13.792
76084W        W44302  18.818  14.658  10.748
76085W        W44303  30.901  21.149   1.484
76086W        W44304   3.002  27.702  11.360
76087W        W44305   9.665  39.460   1.362
76088W        W44306  44.394   0.555   0.259
76089W        W44307  16.595  36.407  12.083
76090W        W44308  33.608  25.212   4.106
76091W        W44309  22.243  43.200   4.639
76092W        W44310  33.874  11.171  11.602
76093W        W44311   0.813  23.502  14.880
76094W        W44312  38.570  35.382   1.366
76095W        W44313   7.073   4.316  14.199
76096W        W44314   3.210  17.029  11.886
76097W        W44315   1.775  18.182   3.553
76098W        W44316   7.847  12.876   2.773
76099W        W44317  26.988  39.749   0.807
76100W        W44318  35.958  24.450  14.923
76101W        W44319  40.923  44.466  14.254
76102W        W44320  13.205   4.101   3.788
76103W        W44321  26.020  33.725  11.607
76104W        W44322  22.669   8.267   4.304
76105W        W44323   0.104  31.504   3.233
76106W        W44324  21.480   7.493  12.708
76107W        W44325  37.278  14.049  12.069
76108W        W44326  28.666  38.877   1.479
76109W        W44327  14.185  11.092  11.588
76110W        W44328  23.176  21.265  14.334
76111W        W44329  30.890   2.965   9.719
76112W        W44330   5.316   5.285   3.800
76113W        W44331  33.152  18.692  11.730
76114W        W44332  35.467  27.835   3.405
76115W        W44333  16.422  41.524   2.863
76116W        W44334  13.163  23.243  13.636
76117W        W44335   1.953  15.640  11.472
76118W        W44336  28.158  11.341  12.613
76119W        W44337  23.064  14.885  14.188
76120W        W44338  11.207  10.856   2.357
76121W        W44339  19.774  30.082  10.940
76122W        W44340  17.109  12.578   4.026
76123W        W44341   7.116  40.028  14.548
76124W        W44342  42.545  38.956  11.897
76125W        W44343  14.603  15.342   3.682
76126W        W44344  42.307   2.429   0.739
76127W        W44345  26.088  16.474   4.807
76128W        W44346  41.559   7.194  14.885
76129W        W44347  11.113   0.782   1.919
76130W        W44348   1.248   0.982   3.748
76131W        W44349   5.406  40.865   2.260
76132W        W44350  42.541   0.150   1.917
76133W        W44351  34.427  26.177   0.444
76134W        W44352   6.941  37.662  12.132
76135W        W44353  25.099  29.690   3.224
76136W        W44354   3.261  19.333  13.038
76137W        W44355  42.912  23.267  12.470
76138W        W44356  34.098  28.681   3.269
76139W        W44357  38.816  41.967   3.244
76140W        W44358  19.602  10.152   2.640
76141W        W44359  14.850  17.155  14.001
76142W        W44360  27.017  30.815   3.108
76143W        W44361  13.472  22.386  10.273
76144W        W44362  29.906  16.618   2.300
76145W        W44363  40.402  16.077  11.248
76146W        W44364  41.015  29.545  12.282
76147W        W44365   2.412  35.256   4.863
76148W        W44366  11.665  26.579   0.318
76149W        W44367  23.857  12.143  11.822
76150W        W44368  14.609  13.045   1.858
76151W        W44369  14.668   4.972  11.698
76152W        W44370   9.429  32.382  11.526
76153W        W44371  42.856  35.288   4.178
76154W        W44372  28.865  17.920   0.459
76155W        W44373  12.838  44.282   2.303
76156W        W44374   4.399  12.669  11.705
76157W        W44375  14.800  11.583   1.753
76158W        W44376   8.313  17.367   4.899
76159W        W44377  43.929  25.218  13.834
76160W        W44378  39.036   4.717  11.047
76161W        W44379  18.302  10.158   2.667
76162W        W44380  43.830   1.429   4.754
76163W        W44381  23.674  18.450  10.664
76164W        W44382  34.106  15.456  13.490
76165W        W44383  19.684  30.362   1.700
76166W        W44384  34.691   3.364  12.016
76167W        W44385  23.243   7.276  12.948
76168W        W44386  21.977  29.601   1.792
76169W        W44387   0.002  33.046   3.410
76170W        W44388  30.459  14.964  12.983
76171W        W44389   1.946   0.444  12.303
76172W        W44390  41.471  35.518   0.893
76173W        W44391   9.237  11.313  14.095
76174W        W44392  22.543  22.754  14.931
76175W        W44393  42.485  16.334  10.795
76176W        W44394  15.021  37.261   4.979
76177W        W44395  24.623  14.015  12.494
76178W        W44396  17.584  33.167   9.971
76179W        W44397   7.734  40.925   3.725
76180W        W44398  44.881  14.037   0.756
76181W        W44399  31.629   2.430  13.350
76182W        W44400   5.020  21.509  10.574
76183W        W44401  11.862  28.528  14.236
76184W        W44402  13.754   8.408  12.508
76185W        W44403  10.292   0.241   2.216
76186W        W44404  31.571   1.685   5.235
76187W        W44405   5.937   4.402   4.637
76188W        W44406  38.887  10.140   4.517
76189W        W44407   3.025   0.846   0.836
76190W        W44408  28.691   3.735   0.507
76191W        W44409  30.053  42.568   2.387
76192W        W44410   7.129   8.255   1.336
76193W        W44411  16.083   4.445  12.948
76194W        W44412  17.726  32.640   3.699
76195W        W44413   2.515  15.185  12.945
76196W        W44414  37.512   4.938  14.600
76197W        W44415  23.697   4.880  10.963
76198W        W44416  13.906  25.104   2.377
76199W        W44417   3.875  11.667  11.792
76200W        W44418   5.215  10.555   2.822
76201W        W44419  12.230  40.727  13.559
76202W        W44420  22.195   3.814  14.020
76203W        W44421  42.545  15.759  12.391
76204W        W44422  23.989   8.667  11.656
76205W        W44423  39.856  27.522  14.388
76206W        W44424   7.127   1.153  12.339
76207W        W44425   9.092  40.881   4.157
76208W        W44426   3.877  40.367  11.967
76209W        W44427  10.098  25.701  12.813
76210W        W44428  38.973   7.377   4.093
76211W        W44429   3.737  27.710  10.731
76212W        W44430   1.264  37.018  10.583
76213W        W44431  12.464   8.419   1.881
76214W        W44432  28.654  41.370  13.438
76215W        W44433  36.483   1.858  11.452
76216W        W44434  19.315  16.675   3.223
76217W        W44435  22.196  12.885   4.897
76218W        W44436  36.238  31.662  13.830
76219W        W44437  37.301  39.539  11.203
76220W        W44438  17.710  29.477  14.837
76221W        W44439  22.664  44.762  12.666
76222W        W44440   9.090  37.894   3.275
76223W        W44441  22.182  20.345  11.393
76224W        W44442  44.402  42.958   3.373
76225W        W44443  10.493  41.856   3.572
76226W        W44444  27.373  21.954  13.999
76227W        W44445  19.695  38.601   1.300
76228W        W44446   1.032  34.436  14.429
76229W        W44447   5.015  41.737  14.096
76230W        W44448  22.128  30.190   2.630
76231W        W44449  33.613  43.265  13.111
76232W        W44450   1.560  31.374  13.034
76233W        W44451  40.241   0.863   5.001
76234W        W44452  44.438  22.299   0.389
76235W        W44453  23.068  17.980   1.063
76236W        W44454  25.698  22.609  13.390
76237W        W44455  15.249   7.060  13.905
76238W        W44456  32.391   7.275   2.149
76239W        W44457   9.294  43.809   1.086
76240W        W44458  43.762   6.403   4.289
76241W        W44459   7.487  21.853   0.513
76242W        W44460   7.452   7.174  10.509
76243W        W44461   8.071  20.316  12.973
76244W        W44462  32.163   2.441  13.353
76245W        W44463   3.865  31.314  12.422
76246W        W44464  41.893  27.347   3.692
76247W        W44465  38.566  13.596   2.680
76248W        W44466  28.580  23.755   1.387
76249W        W44467  13.637  42.766   2.746
76250W        W44468  41.832  33.058   3.746
76251W        W44469   6.095  39.341   1.714
76252W        W44470  24.188   2.692  11.593
76253W        W44471  14.297   0.785   2.281
76254W        W44472  10.865  41.030  13.855
76255W        W44473  21.955  33.455  14.607
76256W        W44474   7.147  44.174   0.851
76257W        W44475   2.670  23.160   1.321
76258W        W44476  14.481  39.857   2.921
76259W        W44477  13.644  29.935   1.460
76260W        W44478   9.908  10.250   2.108
76261W        W44479  31.469  38.750   4.384
76262W        W44480  23.051  38.133   2.826
76263W        W44481  41.419  30.226   0.419
76264W        W44482  35.146  24.269  14.483
76265W        W44483  17.517  43.834  10.682
76266W        W44484  39.808  18.250  11.709
76267W        W44485  18.667   0.141  14.063
76268W        W44486  27.083  13.637  12.937
76269W        W44487  42.373   0.234  12.487
76270W        W44488  37.469  11.173  10.189
76271W        W44489  16.683  22.199  11.862
76272W        W44490   5.694  23.913  11.462
76273W        W44491  10.130  10.846  14.377
76274W        W44492   0.008  40.088  12.884
76275W        W44493  13.221  42.449  12.871
76276W        W44494  16.666   6.436   2.147
76277W        W44495  13.648   5.776  12.053
76278W        W44496  17.001  12.610  13.544
76279W        W44497  18.635  10.094  12.212
76280W        W44498   3.374  33.156  11.477
76281W        W44499  34.039  28.076   0.399
76282W        W44500   7.079   8.754   4.436
76283W        W44501  27.411  12.194   2.423
76284W        W44502  31.913  10.605   0.402
76285W        W44503  30.593  36.865   1.317
76286W        W44504   0.775   4.301   3.840
76287W        W44505  40.004  37.849   4.300
76288W        W44506  42.044  44.158  11.188
76289W        W44507  32.404   4.813  13.545
76290W        W44508  26.799  28.969  12.510
76291W        W44509  22.453  29.556   4.984
76292W        W44510   0.494  26.155  14.388
76293W        W44511  22.766  21.170  11.544
76294W        W44512   0.302  35.948   2.377
76295W        W44513  13.674  41.956   4.192
76296W        W44514  44.677  31.275   3.095
76297W        W44515  37.301  16.729  11.476
76298W        W44516  13.102  34.288   4.145
76299W        W44517   5.284   2.347  11.681
76300W        W44518  25.579  15.245  11.446
76301W        W44519   3.280   5.093   2.358
76302W        W44520  39.707  10.741   4.165
76303W        W44521  33.017   1.383  14.411
76304W        W44522  14.777  24.664   1.383
76305W        W44523  43.409  38.576  12.199
76306W        W44524  38.819  13.703   2.253
76307W        W44525  43.903  42.895   5.196
76308W        W44526  10.022  13.853   1.719
76309W        W44527   1.128  17.881   1.011
76310W        W44528  28.600  30.765  12.116
76311W        W44529  11.228  14.764   0.198
76312W        W44530  15.739   8.073  12.080
76313W        W44531  29.687   2.471   3.786
76314W        W44532  22.223  35.447  13.278
76315W        W44533  18.135   6.245   1.830
76316W        W44534  29.700   1.739   3.446
76317W        W44535  25.231  31.835  11.589
76318W        W44536  31.573  29.681   1.373
76319W        W44537  32.578  32.358   2.407
76320W        W44538  30.682  16.715  13.424
76321W        W44539  13.538  34.841  14.972
76322W        W44540  32.220   0.194   2.659
76323W        W44541  19.059  22.992   3.716
76324W        W44542  21.257   9.425  12.408
76325W        W44543  30.258  36.905   3.630
76326W        W44544  43.355  16.871  14.774
76327W        W44545  40.125  33.736  11.457
76328W        W44546  31.787  29.030   0.466
76329W        W44547  15.206  14.696   3.727
76330W        W44548  33.350  36.943  10.693
76331W        W44549  39.514  17.928  12.065
76332W        W44550  38.831   9.280  13.078
76333W        W44551  33.943  25.036   5.382
76334W        W44552  24.119  34.431  13.375
76335W        W44553   2.168  43.473   0.482
76336W        W44554  36.126  41.062  12.150
76337W        W44555   0.986  44.990   4.040
76338W        W44556   0.722   5.275  11.435
76339W        W44557  43.392  42.072  10.974
76340W        W44558  44.496  42.399  14.193
76341W        W44559  34.907  44.793   3.380
76342W        W44560  23.101  33.079  10.322
76343W        W44561  16.847   3.793   1.061
76344W        W44562  11.090   1.900   2.142
76345W        W44563  20.099  39.555  13.720
76346W        W44564   5.483  34.706   0.913
76347W        W44565  21.191  19.572  13.932
76348W        W44566   2.261  16.239  14.748
76349W        W44567  44.808  17.148  11.988
76350W        W44568  32.192  40.483   4.042
76351W        W44569   8.823   7.692   3.114
76352W        W44570  20.504  24.946  11.192
76353W        W44571   1.856   9.365   1.767
76354W        W44572  30.040   4.187  13.088
76355W        W44573  44.310  17.659   3.783
76356W        W44574  17.810  42.500  13.504
76357W        W44575  37.699   0.021  12.474
76358W        W44576  44.360  26.477  11.837
76359W        W44577   4.403  14.619  13.711
76360W        W44578   9.755  15.833   3.704
76361W        W44579  37.483  35.319  13.970
76362W        W44580  40.296  10.309  14.242
76363W        W44581   0.441   9.792   2.257
76364W        W44582  19.960  34.021  12.015
76365W        W44583  13.578   1.849   3.801
76366W        W44584  11.283  16.240  12.411
76367W        W44585   6.184  33.168  11.600
76368W        W44586   6.521   9.509   2.671
76369W        W44587   2.900   0.363   3.746
76370W        W44588  26.916  18.282  13.433
76371W        W44589  38.608  19.917  13.533
76372W        W44590  17.813  41.854   4.207
76373W        W44591  44.001   1.862  13.574
76374W        W44592   9.653  33.571  14.801
76375W        W44593  23.883  11.144   3.720
76376W        W44594   5.542  39.542   2.446
76377W        W44595  11.270  23.869   1.353
76378W        W44596  18.503   0.918   2.372
76379W        W44597  36.625  26.945   4.896
76380W        W44598  41.830  31.435  10.725
76381W        W44599   8.813   7.917   2.638
76382W        W44600  13.195  10.770   2.696
76383W        W44601  10.176  12.938  13.956
76384W        W44602  20.468  31.428  11.997
76385W        W44603  36.005   9.438   2.256
76386W        W44604   5.582  43.025  10.647
76387W        W44605  35.450  16.309   1.801
76388W        W44606  14.995  12.330   4.463
76389W        W44607  14.650   8.820  14.701
76390W        W44608  42.422  26.590  12.928
76391W        W44609  10.736  33.336  12.896
76392W        W44610  14.243  30.156   2.239
76393W        W44611  10.859  30.032   0.234
76394W        W44612  10.908   7.024  12.142
76395W        W44613  18.016  23.922   4.621
76396W        W44614  31.636  34.330  14.803
76397W        W44615   2.242  37.826   3.086
76398W        W44616  35.791  25.448  11.890
76399W        W44617  42.385   6.740   4.661
76400W        W44618  20.484   4.255   3.766
76401W        W44619  14.692  20.659   1.680
76402W        W44620  15.154  37.001  11.545
76403W        W44621  23.630  41.517  10.598
76404W        W44622   5.142  29.601  11.053
76405W        W44623  38.501  38.535  14.504
76406W        W44624   7.671   9.588   3.273
76407W        W44625   0.373   1.426   1.722
76408W        W44626  40.566   1.980   4.703
76409W        W44627  32.966   3.686  12.601
76410W        W44628  14.918   4.175   0.327
76411W        W44629  18.028  39.432  13.209
76412W        W44630   3.250   5.286   1.886
76413W        W44631  28.719  18.343   1.288
76414W        W44632  19.712  29.599   1.250
76415W        W44633  29.799  14.729   0.920
76416W        W44634  33.245  26.414  12.971
76417W        W44635  38.926  35.535   0.769
76418W        W44636   1.874  28.191   4.669
76419W        W44637  31.318  31.909  12.439
76420W        W44638  19.111  35.565   4.180
76421W        W44639  35.852  32.333   2.314
76422W        W44640  20.064  31.190   0.926
76423W        W44641   9.854  21.758   1.275
76424W        W44642   9.048   3.005  12.142
76425W        W44643  17.241   4.370  10.748
76426W        W44644  29.458  24.229   2.676
76427W        W44645  17.275  32.985   3.751
76428W        W44646   1.049  21.596   3.634
76429W        W44647  33.393  20.172  11.483
76430W        W44648  33.137  40.276   2.955
76431W        W44649  35.426  28.631   3.666
76432W        W44650   0.750  44.810  12.347
76433W        W44651  42.457  23.101  11.630
76434W        W44652  41.036  17.487  12.985
76435W        W44653  35.059  21.992   4.026
76436W        W44654  24.209   6.939  11.033
76437W        W44655  10.870  24.983   2.819
76438W        W44656  29.380  22.279  13.964
76439W        W44657   9.379  19.681  13.036
76440W        W44658  11.235   9.512  14.650
76441W        W44659  21.583  26.673  12.153
76442W        W44660   9.690  15.685   0.108
76443W        W44661   9.826  39.462   4.113
76444W        W44662  38.532  39.019  12.435
76445W        W44663  43.015  36.679  10.824
76446W        W44664  33.254  31.679   2.752
76447W        W44665  27.393   2.324   4.650
76448W        W44666  23.058   0.747  14.836
76449W        W44667   0.277   7.945   1.903
76450W        W44668  37.390  31.321   2.591
76451W        W44669  28.861  12.083   0.840
76452W        W44670  24.132  36.114  14.548
76453W        W44671  44.392  16.101  11.566
76454W        W44672  15.533  16.493   2.712
76455W        W44673   2.224   2.480   1.949
76456W        W44674  15.681   2.441   2.780
76457W        W44675  20.013  38.867  10.289
76458W        W44676   1.464   7.599  12.818
76459W        W44677  44.326  33.602  10.668
76460W        W44678  14.619   4.731  10.757
76461W        W44679   6.755   8.945   0.976
76462W        W44680   5.549  29.225  11.955
76463W        W44681  16.177  21.290   2.707
76464W        W44682  40.900  19.524   3.697
76465W        W44683  38.261  18.075  10.715
76466W        W44684  15.297  39.963  11.817
76467W        W44685   7.109  18.516   1.398
76468W        W44686  12.307  12.011   0.419
76469W        W44687  31.196  32.049  11.509
76470W        W44688  19.079   7.150  13.292
76471W        W44689  29.574  41.295   4.073
76472W        W44690  20.147  12.929   5.267
76473W        W44691  38.616   1.253   0.432
76474W        W44692   1.302   9.407   2.221
76475W        W44693  28.672  18.560   0.051
76476W        W44694  28.823  27.786  11.320
76477W        W44695   6.409  24.091   3.533
76478W        W44696  39.344  14.574   2.207
76479W        W44697  24.481  22.440  12.019
76480W        W44698   7.882   0.749  12.988
76481W        W44699  17.239  41.927  11.530
76482W        W44700  32.898  31.031   0.294
76483W        W44701  38.290  20.468  10.444
76484W        W44702  37.558  32.970   3.377
76485W        W44703   7.234   3.076  12.955
76486W        W44704  10.807   6.919  10.730
76487W        W44705  23.595  38.549  11.695
76488W        W44706  22.715  19.241  13.821
76489W        W44707  43.857  20.783   3.630
76490W        W44708  24.139   8.691  13.452
76491W        W44709  13.155   0.082  11.598
76492W        W44710  15.692  38.239  13.968
76493W        W44711  19.321  19.336  12.186
76494W        W44712   4.418  41.391   2.696
76495W        W44713  28.003   4.198   2.860
76496W        W44714   8.721  39.552  14.443
76497W        W44715   2.223  24.153  11.662
76498W        W44716  13.350  11.165  11.552
76499W        W44717  14.688   1.054  10.382
76500W        W44718   1.569   7.258   0.431
76501W        W44719   5.441  23.697  10.957
76502W        W44720  12.910  23.066   0.362
76503W        W44721  15.660   3.443  11.212
76504W        W44722   5.472  32.110   1.666
76505W        W44723  17.867   2.029   0.943
76506W        W44724  21.995  20.552   4.634
76507W        W44725  13.286   1.389  11.890
76508W        W44726  43.796   4.603  13.075
76509W        W44727  16.179  16.496   1.253
76510W        W44728  16.168   1.133   2.710
76511W        W44729  36.946  23.067   1.650
76512W        W44730   6.907  22.278  14.081
76513W        W44731  43.446  22.174  12.013
76514W        W44732  10.262  10.266   1.637
76515W        W44733  34.317  40.182   2.269
76516W        W44734   3.421  20.761   1.045
76517W        W44735   7.786   8.270   0.484
76518W        W44736  17.307  25.672  10.258
76519W        W44737  29.451  44.882  11.161
76520W        W44738  36.463  44.682   0.434
76521W        W44739  29.901  33.143   0.896
76522W        W44740   4.878   4.374   1.009
76523W        W44741   3.232  12.139  13.045
76524W        W44742  31.102  41.073  14.882
76525W        W44743  19.286   2.904  13.962
76526W        W44744  41.965   7.808   4.850
76527W        W44745  30.692  14.127   0.194
76528W        W44746  35.378  12.452   3.739
76529W        W44747   9.067  36.524  12.821
76530W        W44748  30.688  29.533   1.797
76531W        W44749  22.454   2.019  14.046
76532W        W44750  18.277  43.734  14.464
76533W        W44751  14.725  14.601   0.379
76534W        W44752  36.494  42.976   3.755
76535W        W44753  38.587  37.891  11.071
76536W        W44754  24.087  38.922   4.585
76537W        W44755   6.715  30.380  13.461
76538W        W44756  35.679  29.050   2.753
76539W        W44757  13.323  16.003   2.906
76540W        W44758   8.716  38.882  13.518
76541W        W44759  32.395  44.009  14.397
76542W        W44760  24.623  26.630  12.905
76543W        W44761   8.304  32.605  13.543
76544W        W44762  20.114   3.253  12.876
76545W        W44763  41.253  26.193  12.755
76546W        W44764   6.257  39.209  11.875
76547W        W44765  24.056  29.799   5.093
76548W        W44766  14.124  43.822  11.443
76549W        W44767  26.585  14.743  11.099
76550W        W44768   3.784  28.357  12.948
76551W        W44769  13.079  42.302  10.716
76552W        W44770   8.611  24.090  12.648
76553W        W44771  30.376  36.687  14.080
76554W        W44772   7.284  33.561  12.042
76555W        W44773  37.326  19.840   3.672
76556W        W44774  44.748  16.049  10.274
76557W        W44775  31.439  34.935   1.739
76558W        W44776  35.631  30.929  12.095
76559W        W44777   7.226  24.173  14.855
76560W        W44778  28.487  40.948   4.082
76561W        W44779  36.060  27.911   0.456
76562W        W44780   2.837  20.491  11.888
76563W        W44781   9.386  22.534   3.858
76564W        W44782   5.423  23.455  11.424
76565W        W44783   0.364   4.663  11.628
76566W        W44784   7.256   9.938   0.316
76567W        W44785  15.752  15.589  12.412
76568W        W44786  17.683  31.816  13.363
76569W        W44787   9.570  11.405   1.898
76570W        W44788  25.034  12.389   2.959
76571W        W44789   7.275  39.855  11.283
76572W        W44790  20.546   2.751   2.718
76573W        W44791  20.817  31.621   0.580
76574W        W44792  32.402  17.022  12.820
76575W        W44793  28.550  14.984  13.665
76576W        W44794  17.254  38.488  12.579
76577W        W44795  22.252  41.016  11.573
76578W        W44796  17.553  24.694  13.934
76579W        W44797  29.998  12.904   0.206
76580W        W44798   3.391  41.463  12.320
76581W        W44799  27.668  38.500   3.859
76582W        W44800  21.730  35.383  13.450
76583W        W44801  21.040  28.734  13.001
76584W        W44802  14.235   4.686   3.726
76585W        W44803  25.293  15.283   2.677
76586W        W44804  10.753   6.168  13.072
76587W        W44805  27.699  42.346  12.397
76588W        W44806   9.353  12.050  14.519
76589W        W44807  44.538   3.668  11.010
76590W        W44808  37.888   1.100   4.998
76591W        W44809  41.424  42.635   0.216
76592W        W44810  19.024  24.579  13.944
76593W        W44811  44.950  39.379   2.844
76594W        W44812  26.200  29.947   2.469
76595W        W44813  16.296  16.343  12.713
76596W        W44814  36.642  34.301  10.143
76597W        W44815  35.266  40.282   1.466
76598W        W44816  14.278  33.187  13.549
76599W        W44817  23.069  36.292   1.441
76600W        W44818  36.314  39.723   4.522
76601W        W44819   6.080   5.925   0.275
76602W        W44820  21.607  42.468   3.848
76603W        W44821  44.272   8.929  10.187
76604W        W44822  44.440  39.550  10.976
76605W        W44823  17.704   8.018  12.458
76606W        W44824  33.879  18.781   1.223
76607W        W44825  27.922  30.672   4.119
76608W        W44826   6.351  28.685   1.500
76609W        W44827   7.827  30.465   0.884
76610W        W44828   8.692  40.238   4.330
76611W        W44829   8.173  29.985  13.759
76612W        W44830  35.953  43.132  14.218
76613W        W44831  18.342  18.779  12.726
76614W        W44832  31.068  44.992   2.190
76615W        W44833   1.144   3.713  12.087
76616W        W44834   8.199  32.585   3.787
76617W        W44835   9.553  44.445  12.040
76618W        W44836  16.403  36.909  12.123
76619W        W44837  15.311  25.271  12.026
76620W        W44838  43.791  17.741   0.779
76621W        W44839  41.797  37.139  11.220
76622W        W44840  43.855  27.028  14.400
76623W        W44841  39.529  16.755   0.769
76624W        W44842  11.777  23.249   1.716
76625W        W44843  14.248  18.247  12.099
76626W        W44844  12.561  22.490  12.350
76627W        W44845   4.179   6.376  10.513
76628W        W44846  19.361  33.443   3.211
76629W        W44847  26.037  14.282   0.246
76630W        W44848  31.605  15.458   0.791
76631W        W44849  22.155  32.825   1.294
76632W        W44850  10.087   8.419  13.884
76633W        W44851  11.822  39.981   1.294
76634W        W44852  41.993  16.431   1.763
76635W        W44853  14.822  42.242   3.401
76636W        W44854  31.102  44.033  14.890
76637W        W44855  30.993  42.567  11.955
76638W        W44856   1.365  34.588   4.354
76639W        W44857  37.155  39.781   1.683
76640W        W44858   3.274  42.607   1.816
76641W        W44859  17.641   8.472  13.975
76642W        W44860   9.680  31.845   3.274
76643W        W44861  16.750   7.751  14.306
76644W        W44862   9.967   4.520   3.711
76645W        W44863  20.144  11.755   2.736
76646W        W44864  25.622  10.311   1.400
76647W        W44865  44.732  27.621   3.322
76648W        W44866  17.904  21.134   4.198
76649W        W44867   0.893  11.682   3.857
76650W        W44868  14.819  28.730  13.350
76651W        W44869  18.770  39.931   0.770
76652W        W44870  42.850  39.952  10.645
76653W        W44871  33.190  35.972   2.220
76654W        W44872  38.063  35.453  14.357
76655W        W44873  41.250  38.441   4.313
76656W        W44874  18.166  39.955   3.679
76657W        W44875  44.965  16.305  12.937
76658W        W44876  41.484   4.942  14.842
76659W        W44877   8.596  23.157   1.294
76660W        W44878  42.829  24.973   4.201
76661W        W44879  32.647  34.633   2.821
76662W        W44880  43.031  27.938   3.298
76663W        W44881  32.537  36.463   4.162
76664W        W44882  19.288  21.803   3.201
76665W        W44883  15.728  34.780   2.355
76666W        W44884   6.949  24.623  14.917
76667W        W44885  22.225  13.248   4.519
76668W        W44886  38.519  20.764   1.219
76669W        W44887   2.121  32.401   1.497
76670W        W44888  30.874   2.558   0.455
76671W        W44889  11.662  10.858   0.721
76672W        W44890   5.508   3.239  12.107
76673W        W44891  12.765  29.490  13.373
76674W        W44892  16.607  33.564  13.629
76675W        W44893  13.351   5.535  10.758
76676W        W44894  19.864   7.132  13.759
76677W        W44895  13.370   3.383   0.227
76678W        W44896  35.102  10.864   3.238
76679W        W44897   5.318  10.781   0.261
76680W        W44898  43.453   7.672  10.966
76681W        W44899  20.655  34.795   0.529
76682W        W44900   2.702  26.240   3.234
76683W        W44901  42.844  33.543  12.034
76684W        W44902  25.133   4.126  11.382
76685W        W44903  31.664  36.689   0.908
76686W        W44904   0.761  21.649  13.429
76687W        W44905  22.517   3.133   2.476
76688W        W44906  29.536  21.490   1.139
76689W        W44907   6.896  13.389  14.777
76690W        W44908  38.099  11.357   2.662
76691W        W44909   1.361  32.284   3.261
76692W        W44910  31.860  15.846  12.804
76693W        W44911   3.890  19.665  13.661
76694W        W44912  42.103  34.488   3.242
76695W        W44913  14.634  21.972   4.858
76696W        W44914  29.433  22.284   0.379
76697W        W44915  23.687  21.626   0.973
76698W        W44916  35.867  39.609  11.942
76699W        W44917   3.793   7.413  14.188
76700W        W44918  42.916  33.131   1.288
76701W        W44919  22.402  18.022   1.872
76702W        W44920  25.594  33.444   1.669
76703W        W44921  18.588  28.443  13.851
76704W        W44922   9.167  25.952   0.350
76705W        W44923  35.080  27.050  12.001
76706W        W44924  15.339  17.629   1.761
76707W        W44925   0.216  14.778  11.097
76708W        W44926  36.367  16.735  14.950
76709W        W44927   6.287  37.010   4.356
76710W        W44928  39.985  10.652  10.700
76711W        W44929   9.387  36.629   2.780
76712W        W44930  14.598   3.807   4.240
76713W        W44931  10.577  32.454  11.198
76714W        W44932  44.085  30.420   2.196
76715W        W44933   1.340  11.915  13.420
76716W        W44934  26.093  18.634  10.797
76717W        W44935  10.286  36.878   4.596
76718W        W44936  33.200  29.403   2.812
76719W        W44937  38.143   4.107   4.033
76720W        W44938  11.258  12.873  10.649
76721W        W44939  19.460  35.861   4.554
76722W        W44940  20.854  18.541   2.392
76723W        W44941  43.672   3.799  12.449
76724W        W44942  38.467  20.287   2.992
76725W        W44943  27.294   5.867  14.100
76726W        W44944  18.832  41.934   4.118
76727W        W44945  31.958  22.254   2.773
76728W        W44946   8.937  28.935   0.989
76729W        W44947  32.011  25.518   5.087
76730W        W44948  29.524  10.900  13.985
76731W        W44949  12.538   4.402  14.744
76732W        W44950  15.032  12.343   0.758
76733W        W44951  36.442  17.400   4.289
76734W        W44952  11.764   0.371  12.085
76735W        W44953  22.800  15.737   3.638
76736W        W44954  40.861  31.923   2.679
76737W        W44955  35.709  34.431   2.474
76738W        W44956  37.500   8.797  10.646
76739W        W44957  43.926   8.645  11.094
76740W        W44958   2.891  30.692  12.093
76741W        W44959  40.212   3.284   0.876
76742W        W44960  10.848  27.499  13.907
76743W        W44961  15.509  14.873   5.009
76744W        W44962   9.774  14.341   2.169
76745W        W44963   1.527  25.060  11.180
76746W        W44964  20.465   3.916  12.367
76747W        W44965   0.435  21.224  12.826
76748W        W44966  23.269  39.914  13.516
76749W        W44967  41.086  36.427   1.296
76750W        W44968  41.389  24.327   3.356
76751W        W44969  33.989  44.993  14.329
76752W        W44970  22.055   6.139  14.857
76753W        W44971  41.317  30.896   4.113
76754W        W44972  14.262  14.659  13.574
76755W        W44973  31.852  15.525   2.860
76756W        W44974  34.834  43.321   0.405
76757W        W44975  21.426  26.374   5.005
76758W        W44976   3.705  27.385   1.852
76759W        W44977  32.908  10.724  13.054
76760W        W44978  42.337  20.631  10.649
76761W        W44979  32.811   6.448   0.388
76762W        W44980  31.187  26.684  13.015
76763W        W44981  28.662  39.362   4.483
76764W        W44982  28.020   1.474   1.906
76765W        W44983  36.015  26.497   4.286
76766W        W44984   0.025  12.331   4.523
76767W        W44985  30.209  27.948  12.530
76768W        W44986  15.367   2.912  10.297
76769W        W44987   8.951  42.471   4.654
76770W        W44988  21.944   3.841  11.082
76771W        W44989  11.267  44.524  10.035
76772W        W44990  30.715  44.401   0.358
76773W        W44991  13.034   1.917  14.420
76774W        W44992  17.946  29.267   4.162
76775W        W44993  25.573   5.628  13.882
76776W        W44994  39.023  14.328   4.353
76777W        W44995  44.816  23.134  13.878
76778W        W44996  10.661  30.395  14.940
76779W        W44997  33.170   7.293  13.522
76780W        W44998   8.181  26.714  14.983
76781W        W44999  29.655  28.663   2.810
76782W        W45000  30.559  38.036  13.948
76783W        W45001  30.631  33.319   2.555
76784W        W45002  29.304  33.553  10.257
76785W        W45003  23.726  16.348  14.898
76786W        W45004  17.354  31.451   2.793
76787W        W45005   3.961  30.624  11.561
76788W        W45006  43.437  29.209   2.181
76789W        W45007  39.139   6.455   1.153
76790W        W45008   6.897  35.756  13.441
76791W        W45009   4.603  16.680   4.238
76792W        W45010  40.519  30.201   0.203
76793W        W45011  18.594  29.583  10.893
76794W        W45012   5.775   5.895   2.345
76795W        W45013  31.463  14.335  13.893
76796W        W45014  33.880   2.234   4.174
76797W        W45015  31.540  31.087   3.872
76798W        W45016   0.942  30.939   2.256
76799W        W45017  21.344  29.464   0.268
76800W        W45018  32.966  41.002   4.027
76801W        W45019  42.943  10.658   2.189
76802W        W45020  19.644   2.725   3.649
76803W        W45021   5.338  20.727  12.939
76804W        W45022  34.730   8.284   4.307
76805W        W45023  24.574  38.913   1.815
76806W        W45024  14.330  12.596   2.414
76807W        W45025  33.582  41.690   4.865
76808W        W45026  27.123  14.568   0.884
76809W        W45027  11.925  20.588  10.843
76810W        W45028   0.078   1.486   2.892
76811W        W45029  36.520   1.938   5.090
76812W        W45030  40.940  20.043  12.027
76813W        W45031  44.873   4.303   1.235
76814W        W45032  20.672   7.784   2.776
76815W        W45033  16.593  18.173   4.541
76816W        W45034   5.676   5.718  11.720
76817W        W45035  14.507  16.824  10.504
76818W        W45036   1.813  39.212   4.661
76819W        W45037  20.263  22.479  11.522
76820W        W45038   9.388  21.518   1.697
76821W        W45039   0.471  30.992   2.488
76822W        W45040  27.050   2.543   2.743
76823W        W45041  12.616  32.629  11.599
76824W        W45042  21.311  38.099   1.828
76825W        W45043   9.924   6.647   0.864
76826W        W45044  25.863  35.592  12.448
76827W        W45045   4.135  13.730  13.402
76828W        W45046  38.778   6.327  10.416
76829W        W45047   4.934   4.441   2.841
76830W        W45048   5.939  43.848  14.932
76831W        W45049  16.201  16.609   2.354
76832W        W45050  10.173  18.560   3.533
76833W        W45051  26.941  40.087  10.773
76834W        W45052   2.189  41.859  11.564
76835W        W45053  44.473   5.756  13.947
76836W        W45054   6.707  16.801   1.845
76837W        W45055  12.669   2.752   2.373
76838W        W45056  23.498  21.036  13.890
76839W        W45057  12.546   8.070  10.856
76840W        W45058  17.199  25.430  14.909
76841W        W45059   4.021  26.862   0.343
76842W        W45060   4.975  25.179  12.534
76843W        W45061  19.229  13.397  14.961
76844W        W45062  38.412  25.151  12.577
76845W        W45063  38.012  13.888  14.919
76846W        W45064  19.500   3.198  10.390
76847W        W45065   5.904  39.584  11.102
76848W        W45066  31.242   6.970   0.617
76849W        W45067   6.881  23.187  12.600
76850W        W45068  20.666   5.165  12.494
76851W        W45069  44.776  19.676  11.586
76852W        W45070  31.810  40.404  13.103
76853W        W45071  24.659   7.405  14.244
76854W        W45072  22.584  22.800  13.884
76855W        W45073  20.614  25.584  12.076
76856W        W45074  27.457  44.830  12.033
76857W        W45075  19.589   4.440   5.059
76858W        W45076   2.285  30.272  11.131
76859W        W45077   1.870   9.766   0.380
76860W        W45078   8.306   2.812   1.947
76861W        W45079   8.890  13.120   1.453
76862W        W45080   5.696  29.546  13.912
76863W        W45081  29.900  23.081  13.860
76864W        W45082  18.181  36.676   2.230
76865W        W45083  15.606   6.224  13.969
76866W        W45084  19.816  14.105   2.610
76867W        W45085  36.287   4.422  11.772
76868W        W45086  18.664  23.815  12.382
76869W        W45087  17.615   6.443  12.478
76870W        W45088   0.170   4.762  13.223
76871W        W45089   6.848  25.532   2.469
76872W        W45090  29.700   4.915  10.645
76873W        W45091  31.359  23.247   2.590
76874W        W45092  25.966   7.140   0.857
76875W        W45093   3.270   6.978  12.387
76876W        W45094   5.994  34.939   4.652
76877W        W45095  20.102   7.496   4.531
76878W        W45096  24.453   9.130   0.996
76879W        W45097   9.422  40.275   4.970
76880W        W45098  14.708  38.775  14.083
76881W        W45099   5.654  31.924   2.334
76882W        W45100  12.704  25.108  12.194
76883W        W45101  14.605   1.213   2.264
76884W        W45102  22.926  17.749   4.068
76885W        W45103  27.135  21.064   3.351
76886W        W45104  32.429   6.735   5.119
76887W        W45105  41.699  42.772   4.581
76888W        W45106   5.974  19.472  11.220
76889W        W45107  12.153  15.785  10.692
76890W        W45108  37.448  42.797  10.711
76891W        W45109   3.714   7.736  11.904
76892W        W45110  44.532  42.333  14.695
76893W        W45111   0.758  28.982  10.725
76894W        W45112  31.624   6.874  11.060
76895W        W45113  35.611  11.826   0.767
76896W        W45114  21.212  26.714   3.674
76897W        W45115  36.434  39.967  13.420
76898W        W45116  32.236  31.352  12.410
76899W        W45117  11.307  13.047  12.456
76900W        W45118  30.225  15.669  11.629
76901W        W45119  14.210  39.369   0.250
76902W        W45120  24.484  30.025   4.342
76903W        W45121  33.366  43.510  12.359
76904W        W45122  10.136   5.203   2.647
76905W        W45123  44.942  25.453  12.786
76906W        W45124  39.561  11.830  13.009
76907W        W45125  28.730  13.864  11.690
76908W        W45126  28.070  24.758   3.253
76909W        W45127  30.863   6.241   1.337
76910W        W45128  41.275   0.749  12.027
76911W        W45129  23.056  21.556  10.541
76912W        W45130  29.005  16.547   4.608
76913W        W45131  42.840   2.389  13.677
76914W        W45132  27.860  13.219   3.325
76915W        W45133  21.628   8.356   4.783
76916W        W45134   6.831  25.597   0.379
76917W        W45135   5.865  21.476   4.537
76918W        W45136  14.224   3.512  14.400
76919W        W45137  41.921  42.492  14.773
76920W        W45138   2.140   6.242  13.527
76921W        W45139  29.395   9.728  11.188
76922W        W45140  19.505  17.570  11.252
76923W        W45141   2.943  19.571   1.311
76924W        W45142  39.643  12.938   3.240
76925W        W45143   9.210  16.307   1.352
76926W        W45144   7.442  15.654   1.712
76927W        W45145  44.735  29.639   4.018
76928W        W45146  17.240   0.946   3.579
76929W        W45147  29.012  41.757   0.804
76930W        W45148  44.999   7.678   2.345
76931W        W45149  31.245  27.900   5.198
76932W        W45150  36.780   4.724   0.403
76933W        W45151  32.237  10.748  13.912
76934W        W45152  15.185  19.830   1.855
76935W        W45153  36.123  28.588   3.169
76936W        W45154   7.988  24.620  13.571
76937W        W45155  28.191  21.235  11.515
76938W        W45156  13.392  24.155  11.311
76939W        W45157  18.685  41.857  14.049
76940W        W45158  33.152  36.850   0.831
76941W        W45159  13.150  43.993  12.557
76942W        W45160   3.688  35.498   3.025
76943W        W45161  25.445  28.123   4.642
76944W        W45162  37.440  31.497  12.439
76945W        W45163   9.924  21.007  13.954
76946W        W45164  37.515  11.958   2.434
76947W        W45165  19.387   1.737  12.492
76948W        W45166  28.897  23.039   1.876
76949W        W45167  16.346  31.654  11.006
76950W        W45168  33.502  35.898  14.359
76951W        W45169  18.978  43.830  12.858
76952W        W45170  14.596  39.790   1.386
76953W        W45171  34.190  33.605   4.196
76954W        W45172  20.742  18.349   4.144
76955W        W45173  38.139  39.345  12.361
76956W        W45174  10.285  38.564  13.252
76957W        W45175  29.020   5.643  12.364
76958W        W45176   2.834   7.482   4.679
76959W        W45177  27.119  25.843   3.198
76960W        W45178  28.490  31.378  10.673
76961W        W45179  41.984  20.404   2.529
76962W        W45180  41.552  13.365   4.691
76963W        W45181  35.340  34.659  11.430
76964W        W45182   0.185  28.213   3.743
76965W        W45183  13.358  38.581   2.646
76966W        W45184  44.896  35.898   4.794
76967W        W45185  35.924  28.621  11.645
76968W        W45186  38.776  15.563   1.795
76969W        W45187  33.444  39.928   0.858
76970W        W45188  26.107  40.558  14.275
76971W        W45189  37.407  30.169  13.010
76972W        W45190  16.607  37.130  13.389
76973W        W45191  44.961  42.795   4.987
76974W        W45192  39.782  37.426   4.071
76975W        W45193  23.573  14.656   4.608
76976W        W45194  23.937  22.127  13.536
76977W        W45195   9.804   5.965   4.312
76978W        W45196  28.227  17.319   0.433
76979W        W45197  11.480   4.873   2.639
76980W        W45198  42.284  43.974  13.298
76981W        W45199  39.242  35.430  13.356
76982W        W45200  44.084  43.920  13.939
76983W        W45201   0.717  30.129  14.433
76984W        W45202  39.566   7.212   3.671
76985W        W45203   4.223   4.346   4.124
76986W        W45204   7.136  25.647   0.881
76987W        W45205  25.992  21.546  14.828
76988W        W45206  11.211  37.896   0.419
76989W        W45207  35.040  13.247  13.031
76990W        W45208  28.278  27.130   3.544
76991W        W45209  18.638  15.298   3.817
76992W        W45210  27.250  43.369  13.562
76993W        W45211  30.022  41.779  11.516
76994W        W45212  40.522   6.601   4.048
76995W        W45213  19.225   9.665   3.701
76996W        W45214  40.545  36.053  10.745
76997W        W45215   1.900  16.266   0.854
76998W        W45216  22.740  25.470  13.412
76999W        W45217  27.131  43.928  11.597
77000W        W45218   6.147  20.647  13.492
77001W        W45219  42.786  25.708  11.968
77002W        W45220  37.002  11.892   1.029
77003W        W45221  39.636  34.924   0.070
77004W        W45222  11.367  21.923  13.288
77005W        W45223   4.320  10.679   2.901
77006W        W45224  40.236  38.930  14.297
77007W        W45225  39.309  34.892  14.627
77008W        W45226  31.175   2.908   4.129
77009W        W45227  38.623  34.511  12.117
77010W        W45228  29.178  13.714   3.032
77011W        W45229  30.670  33.640   2.990
77012W        W45230  25.405  36.025  13.264
77013W        W45231  22.606  36.860   2.815
77014W        W45232  27.965  13.622  11.409
77015W        W45233  27.908   5.373  14.571
77016W        W45234   7.460   3.470   3.347
77017W        W45235   3.162   3.313  14.916
77018W        W45236  25.748  44.208   0.390
77019W        W45237  41.088   0.588  11.451
77020W        W45238   2.819  34.125  13.395
77021W        W45239   0.925  38.901  14.464
77022W        W45240  33.470  31.295  13.423
77023W        W45241  35.383  16.918  10.829
77024W        W45242  36.420  30.653   4.555
77025W        W45243  23.380  10.772   1.673
77026W        W45244  33.657  27.927   0.044
77027W        W45245  25.741  36.457  12.126
77028W        W45246  31.089   1.985   1.930
77029W        W45247  41.831  10.366  12.501
77030W        W45248  17.002   5.905   2.790
77031W        W45249  29.413   3.233  11.549
77032W        W45250  26.411  21.509   3.197
77033W        W45251  19.285  20.927   2.759
77034W        W45252  14.120  13.889   3.217
77035W        W45253  39.143  33.135  12.339
77036W        W45254  26.411  24.387  10.359
77037W        W45255  28.462   1.575  12.957
77038W        W45256  27.928   5.143  10.354
77039W        W45257  12.615  11.212   3.678
77040W        W45258  38.322  23.046   0.310
77041W        W45259  28.967  36.317  11.576
77042W        W45260  13.367  11.820   4.371
77043W        W45261  29.910  11.657  10.495
77044W        W45262  28.978  43.813   0.718
77045W        W45263   8.294  15.230  13.840
77046W        W45264  13.572  35.128  11.953
77047W        W45265  43.795   8.462  11.865
77048W        W45266  41.488  29.443  14.910
77049W        W45267  40.416  20.990  12.520
77050W        W45268  29.528   3.703   0.817
77051W        W45269  34.571  11.833  11.450
77052W        W45270  40.442  32.147  11.412
77053W        W45271  20.790  44.036   2.431
77054W        W45272  27.353  36.597   4.578
77055W        W45273  27.974  43.166  14.266
77056W        W45274  21.201  32.039   0.472
77057W        W45275  25.090  43.242  11.989
77058W        W45276   7.740  33.370  11.233
77059W        W45277  11.198  18.125  13.065
77060W        W45278   3.427  15.775   2.275
77061W        W45279  22.981  31.997   0.481
77062W        W45280  12.152   6.939   1.395
77063W        W45281  24.893  28.546   2.232
77064W        W45282   9.817  21.188   3.560
77065W        W45283   5.450  30.468  13.879
77066W        W45284  41.301  38.609   0.560
77067W        W45285   1.904   8.281   4.144
77068W        W45286  12.654  41.016  13.659
77069W        W45287  40.484  13.061  12.877
77070W        W45288   7.868  17.667  14.543
77071W        W45289  14.820  35.867   4.167
77072W        W45290  30.267  44.346   4.777
77073W        W45291  17.610  11.707   5.177
77074W        W45292  32.478   9.975  11.420
77075W        W45293  30.607   2.845   4.132
77076W        W45294  10.742  38.593   4.343
77077W        W45295  12.076   1.361  10.747
77078W        W45296   3.291  42.335  12.928
77079W        W45297  15.665   0.519   1.199
77080W        W45298  26.662  21.893   0.893
77081W        W45299  19.128  35.281   3.751
77082W        W45300  41.123   6.803   2.922
77083W        W45301   9.206  27.997   0.952
77084W        W45302  26.255  10.127   4.146
77085W        W45303  29.005   8.339  12.476
77086W        W45304  14.646   4.751   1.407
77087W        W45305   0.891  33.047  14.214
77088W        W45306  31.019  40.234  14.452
77089W        W45307  43.472  17.166   3.471
77090W        W45308   0.478  24.211  12.068
77091W        W45309  19.491   0.917  11.988
77092W        W45310   9.884  22.856   0.488
77093W        W45311   0.526  34.842   4.611
77094W        W45312  16.357  43.329   4.476
77095W        W45313  27.936  13.141  14.614
77096W        W45314   8.048  35.963   0.694
77097W        W45315  16.538  35.666  13.446
77098W        W45316   6.313  44.035   0.439
77099W        W45317  33.417  32.841  12.587
77100W        W45318  13.169  16.722  12.086
77101W        W45319  43.954  15.554   1.376
77102W        W45320  18.092  16.582  13.444
77103W        W45321   0.181   2.887  12.021
77104W        W45322  40.998   8.886   0.275
77105W        W45323  18.144  42.630   0.231
77106W        W45324   6.947  31.844  14.797
77107W        W45325   6.709  18.878   3.582
77108W        W45326  42.831   2.212   1.392
77109W        W45327  38.034   5.806  10.161
77110W        W45328  36.368  13.717  11.221
77111W        W45329  25.458  20.641  13.052
77112W        W45330  34.912  10.336   3.177
77113W        W45331  42.854  21.764  14.640
77114W        W45332  23.967  31.663  11.434
77115W        W45333  23.825   6.140  14.194
77116W        W45334   3.483   7.141  13.390
77117W        W45335  14.648  30.942  11.208
77118W        W45336   3.267  30.966  11.150
77119W        W45337  15.001   4.047  10.459
77120W        W45338  39.885   2.059   3.784
77121W        W45339  35.345  39.384  13.928
77122W        W45340   8.324  10.291   2.375
77123W        W45341   1.818   6.215   1.876
77124W        W45342  19.195  13.990   0.070
77125W        W45343  40.490  11.403   2.180
77126W        W45344  19.565  21.826   1.511
77127W        W45345   6.483  17.784  10.246
77128W        W45346  35.898  38.126   0.155
77129W        W45347  38.461  21.247   2.997
77130W        W45348  34.438  17.639  11.414
77131W        W45349  22.219   1.044   0.665
77132W        W45350  40.849   0.502  14.827
77133W        W45351  38.093  25.787   3.261
77134W        W45352  43.708  44.271   1.559
77135W        W45353  37.381   8.167   0.504
77136W        W45354  42.049  22.119  11.592
77137W        W45355  32.869  12.351   1.267
77138W        W45356  29.934  29.190   3.284
77139W        W45357  41.753   7.688  12.951
77140W        W45358  38.706   2.701   1.048
77141W        W45359  44.307  24.225  13.937
77142W        W45360  36.298  28.987  11.651
77143W        W45361   8.428  26.122   2.606
77144W        W45362   5.345  40.326  11.659
77145W        W45363  13.710  37.560   3.294
77146W        W45364  22.989   5.444  12.837
77147W        W45365  43.356   4.829  12.519
77148W        W45366  25.700  19.726  13.403
77149W        W45367  31.632  20.633   1.542
77150W        W45368  30.691   0.468   2.849
77151W        W45369  20.745  13.520  13.572
77152W        W45370  20.781  16.557   1.757
77153W        W45371   9.442   8.116  11.028
77154W        W45372  38.677  40.274  10.667
77155W        W45373  18.195  14.158   3.102
77156W        W45374  17.016  10.522   0.952
77157W        W45375  22.236  17.579   1.646
77158W        W45376  16.467  22.884   3.274
77159W        W45377  33.079  38.879  12.743
77160W        W45378   5.943   8.634  14.600
77161W        W45379  16.480  10.865  11.913
77162W        W45380   3.246   2.697   0.747
77163W        W45381   7.159  42.983  11.588
77164W        W45382  20.001  38.044  13.596
77165W        W45383  11.744  13.570  10.774
77166W        W45384  17.127  43.058   2.276
77167W        W45385  25.052  11.627  12.595
77168W        W45386  27.569  26.625  14.562
77169W        W45387   5.134  36.098  14.380
77170W        W45388  12.271  17.780   0.292
77171W        W45389  29.701   4.052  11.959
77172W        W45390   4.177  33.131  12.463
77173W        W45391  27.943  23.443  12.920
77174W        W45392  32.642  44.413   0.794
77175W        W45393  39.040   8.366  12.258
77176W        W45394  40.759  32.740  12.949
77177W        W45395  44.539  43.918  10.981
77178W        W45396  41.475  11.781   4.360
77179W        W45397  41.008  34.914   0.088
77180W        W45398   8.832  33.814   1.178
77181W        W45399  16.717  31.191  11.851
77182W        W45400  27.998  40.528  12.372
77183W        W45401  18.770  32.496  12.977
77184W        W45402  33.051  13.807  11.609
77185W        W45403  31.939   2.065   1.845
77186W        W45404  21.657  21.212  12.204
77187W        W45405  42.863   0.662   1.313
77188W        W45406  26.598  23.678  12.038
77189W        W45407  37.588  40.123  14.545
77190W        W45408  17.564  26.094   1.938
77191W        W45409  42.323  10.403  13.799
77192W        W45410  24.472   9.046  11.176
77193W        W45411  39.514  23.551   4.472
77194W        W45412  13.493  23.675  11.152
77195W        W45413  13.336  31.671  10.672
77196W        W45414  27.174   8.936  12.079
77197W        W45415   9.306   0.444  12.059
77198W        W45416  16.011   7.813  11.529
77199W        W45417  41.506  20.856  14.723
77200W        W45418  42.307  25.305   2.657
77201W        W45419  32.883  42.823   4.567
77202W        W45420  10.358  35.544  14.338
77203W        W45421  28.856  39.773   2.806
77204W        W45422  16.824  29.326  11.803
77205W        W45423   1.165  38.415   3.198
77206W        W45424  44.542  38.925   4.190
77207W        W45425  15.225  30.724  14.016
77208W        W45426  28.899  30.998  13.287
77209W        W45427   6.824   5.959  14.886
77210W        W45428  22.125   9.046   1.959
77211W        W45429  35.832  40.177  14.835
77212W        W45430  38.468   5.499  14.286
77213W        W45431  33.220   3.363  10.201
77214W        W45432  16.077  19.821  11.610
77215W        W45433   9.797  16.606   3.302
77216W        W45434  39.642  23.770  12.776
77217W        W45435  34.538  23.250   0.783
77218W        W45436  21.719  16.532   4.082
77219W        W45437   5.271  37.124   1.610
77220W        W45438  36.626  41.076  12.024
77221W        W45439   4.511   8.615  14.434
77222W        W45440  17.070   4.704   4.530
77223W        W45441  42.735  19.290  10.739
77224W        W45442  20.591   5.319   3.845
77225W        W45443  28.545   1.392   2.640
77226W        W45444  39.914  18.040   0.722
77227W        W45445  32.400   5.419  13.049
77228W        W45446  14.024   6.974  12.561
77229W        W45447  19.835  21.238   0.978
77230W        W45448   8.512  29.299   0.343
77231W        W45449  16.767  28.959   2.767
77232W        W45450  10.767  38.854  11.143
77233W        W45451  15.562  14.744   4.121
77234W        W45452   9.745  30.999  14.611
77235W        W45453  11.556  44.863  12.344
77236W        W45454  15.279  40.768   1.345
77237W        W45455   4.763  18.753   4.316
77238W        W45456  24.303  26.441   2.888
77239W        W45457  17.672  26.661   1.340
77240W        W45458  28.516  16.632  11.285
77241W        W45459  38.437  22.447  13.844
77242W        W45460  23.554  16.753   1.872
77243W        W45461  10.770   6.774  11.598
77244W        W45462   7.162   1.241   1.700
77245W        W45463  13.566  32.350   4.145
77246W        W45464  14.837  41.064   2.763
77247W        W45465   6.873  43.359  10.193
77248W        W45466   0.844  15.179  13.026
77249W        W45467  34.472  40.777  14.239
77250W        W45468  11.340   5.116   2.214
77251W        W45469  41.255   5.373   0.927
77252W        W45470  40.928   7.815   1.210
77253W        W45471  44.886   5.301   1.252
77254W        W45472  12.308  37.966   4.070
77255W        W45473  28.748  11.604   3.642
77256W        W45474  15.055   8.839  12.058
77257W        W45475  13.354  37.765   0.478
77258W        W45476   2.003  15.494  14.302
77259W        W45477  36.160  11.219  12.725
77260W        W45478  15.746  16.118   1.239
77261W        W45479  24.248  21.504   5.146
77262W        W45480  19.755   1.250   1.288
77263W        W45481  35.455  15.348   0.861
77264W        W45482  36.902   5.670   1.665
77265W        W45483   6.732  25.139   0.659
77266W        W45484   8.209  30.551   3.692
77267W        W45485  41.018  43.879   3.058
77268W        W45486  16.108  20.737   1.362
77269W        W45487  34.987  20.991   3.740
77270W        W45488  40.347  24.436  13.823
77271W        W45489  24.817  40.863   0.915
77272W        W45490   5.917  16.676   4.527
77273W        W45491  19.286  23.790  12.724
77274W        W45492  17.106  18.057   4.520
77275W        W45493  40.445  22.791  11.936
77276W        W45494  33.092  22.923   2.399
77277W        W45495   8.282  15.301  12.449
77278W        W45496  27.171   4.307   0.905
77279W        W45497  37.287  14.944  13.809
77280W        W45498  10.732  11.764   1.312
77281W        W45499  10.294  15.270  12.470
77282W        W45500  17.689  27.116   0.357
77283W        W45501   4.864  34.926  11.830
77284W        W45502   7.223   5.270   4.654
77285W        W45503  42.668  31.576  13.414
77286W        W45504  29.572  36.446  12.801
77287W        W45505  28.229  21.196   2.842
77288W        W45506  25.062  27.075  13.460
77289W        W45507  11.730  11.428  13.587
77290W        W45508   0.746  13.800  13.392
77291W        W45509   4.879  14.597  12.812
77292W        W45510  12.191  38.396   4.846
77293W        W45511  25.575  16.252  14.689
77294W        W45512  39.982  43.795   2.983
77295W        W45513   4.884   8.585   4.601
77296W        W45514  42.541   8.253   3.370
77297W        W45515  30.345  25.007   3.686
77298W        W45516  37.444  39.079   0.514
77299W        W45517  11.138  34.382   0.874
77300W        W45518  35.410  44.807  12.357
77301W        W45519  31.402  30.900  10.744
77302W        W45520   8.325  32.136   4.074
77303W        W45521  44.010   8.340  10.663
77304W        W45522  20.412  26.219  12.761
77305W        W45523  34.923  12.868   2.517
77306W        W45524  25.741  29.969  11.125
77307W        W45525  11.574  29.703  11.286
77308W        W45526  36.136   1.167  11.154
77309W        W45527  36.980  40.497   2.279
77310W        W45528  23.770  15.773   3.823
77311W        W45529  24.885   8.431   3.607
77312W        W45530   0.036  34.577   0.344
77313W        W45531  19.072  43.769  11.546
77314W        W45532  42.872  27.085   1.744
77315W        W45533   2.447  38.644  13.801
77316W        W45534  20.323  18.009   9.985
77317W        W45535  21.707  40.086   0.261
77318W        W45536  28.572  24.494   4.062
77319W        W45537  41.354  27.917   1.726
77320W        W45538  24.251  11.299   4.093
77321W        W45539  28.656  29.021   4.366
77322W        W45540  12.243   7.753   0.766
77323W        W45541  15.138  13.733   5.016
77324W        W45542  13.940  40.838  10.734
77325W        W45543  21.571  15.211  11.546
77326W        W45544   1.754   1.067   3.967
77327W        W45545  23.542  20.611   2.150
77328W        W45546  15.056  38.352   0.484
77329W        W45547  44.375  11.152   4.289
77330W        W45548  18.207  24.342   2.816
77331W        W45549   2.907  15.458   0.444
77332W        W45550   3.977  19.075   2.820
77333W        W45551  13.609  26.701   0.287
77334W        W45552   0.190  38.018   1.732
77335W        W45553  35.437   7.678  10.706
77336W        W45554   1.790  33.382   4.623
77337W        W45555  16.533  20.618  14.356
77338W        W45556  11.715  42.514  11.444
77339W        W45557  31.112   1.739  10.317
77340W        W45558  13.125   3.852   1.433
77341W        W45559  18.671  25.855   0.328
77342W        W45560  11.541   1.982   0.342
77343W        W45561  24.489  17.824   2.393
77344W        W45562  40.795  17.251   1.439
77345W        W45563   7.742   9.787  13.130
77346W        W45564  37.364  35.549   3.760
77347W        W45565  41.493  21.720  13.533
77348W        W45566   0.692   9.844  14.904
77349W        W45567  25.568   2.306  14.524
77350W        W45568  18.797   4.810   0.883
77351W        W45569  37.831  37.927  14.478
77352W        W45570   1.464  31.877  12.966
77353W        W45571  28.871  30.714   2.926
77354W        W45572  11.277   1.922   4.279
77355W        W45573  22.273  15.666  11.000
77356W        W45574  31.559  29.588   1.893
77357W        W45575  35.015  29.177   5.261
77358W        W45576   0.918  15.233   0.935
77359W        W45577  13.897  23.932  13.904
77360W        W45578  39.727  26.559  13.524
77361W        W45579  17.006  30.443   3.994
77362W        W45580  23.412  39.515   3.187
77363W        W45581  23.790  25.004  12.480
77364W        W45582  22.679  31.653   2.297
77365W        W45583  10.288   3.333  12.083
77366W        W45584  36.593  26.646  10.858
77367W        W45585   4.381  39.566  12.767
77368W        W45586  18.567  36.092  13.369
77369W        W45587  28.680  38.882   3.688
77370W        W45588  28.164  27.020  12.523
77371W        W45589  22.456  44.648   2.816
77372W        W45590  24.788  36.463   4.210
77373W        W45591  35.230  24.507  14.930
77374W        W45592   9.155  35.898  11.575
77375W        W45593  25.941  39.516   3.362
77376W        W45594  24.749  44.976  12.192
77377W        W45595  19.686  13.711  12.806
77378W        W45596   6.654  25.737   3.217
77379W        W45597   1.297  39.948   0.203
77380W        W45598  34.611  18.829   2.368
77381W        W45599  38.764  42.908  12.482
77382W        W45600  29.583  14.558  14.407
77383W        W45601   6.147  24.613  13.532
77384W        W45602  29.704  38.867   4.286
77385W        W45603  36.863  16.205  12.472
77386W        W45604  20.526  40.836  12.031
77387W        W45605   9.405  12.150   3.559
77388W        W45606   3.760  11.621   1.665
77389W        W45607  39.453  27.057  10.921
77390W        W45608  36.336  23.744   4.299
77391W        W45609  40.965  42.022   4.470
77392W        W45610  34.089   5.054  10.594
77393W        W45611  16.622   1.856   0.256
77394W        W45612  12.700  29.439  11.520
77395W        W45613  29.685  21.193  11.599
77396W        W45614   9.657   2.448   2.627
77397W        W45615  25.792   1.278   3.668
77398W        W45616   0.797  30.818   4.605
77399W        W45617  16.893   9.174  12.907
77400W        W45618  34.027  28.372  11.517
77401W        W45619  39.517   8.187   4.009
77402W        W45620  31.650  44.530  14.143
77403W        W45621  30.958   0.265  12.038
77404W        W45622  16.213  18.957   4.692
77405W        W45623  35.827  24.622  12.647
77406W        W45624   0.386   8.714  10.749
77407W        W45625  41.369  11.257   1.329
77408W        W45626   4.275  43.117   3.477
77409W        W45627   4.605  43.439   2.704
77410W        W45628  10.317  44.903   2.640
77411W        W45629  21.154   4.391   2.580
77412W        W45630  21.965   2.855   3.408
77413W        W45631   6.218   4.126   0.755
77414W        W45632  36.838  11.593  13.634
77415W        W45633  37.775  23.136   0.354
77416W        W45634   4.392  19.742  13.874
77417W        W45635  28.666  24.417  10.756
77418W        W45636   0.808  16.726  11.419
77419W        W45637  27.072  15.842   1.280
77420W        W45638  29.573   6.014   0.095
77421W        W45639  12.412  11.377  14.910
77422W        W45640  24.033  13.079   1.664
77423W        W45641   8.684  34.860   4.218
77424W        W45642   8.637  26.025   3.231
77425W        W45643  12.881  30.145  13.803
77426W        W45644  13.595  24.053  13.501
77427W        W45645  42.553   7.363  13.810
77428W        W45646  29.127  13.962  11.997
77429W        W45647  19.783  34.272  11.139
77430W        W45648   6.273  26.998  11.542
77431W        W45649  11.745  42.472   4.439
77432W        W45650   2.076  36.469  14.818
77433W        W45651  42.011  14.688   2.301
77434W        W45652  12.549  12.701   2.089
77435W        W45653  29.509   3.148   1.933
77436W        W45654  13.993  26.982  10.874
77437W        W45655   3.946  10.333  14.950
77438W        W45656  40.732  43.995  12.368
77439W        W45657  25.204  35.564  13.283
77440W        W45658  19.108  22.464  11.135
77441W        W45659  30.818  25.530  13.254
77442W        W45660  17.303  22.660  11.144
77443W        W45661  17.841  20.227  14.555
77444W        W45662   2.504   9.293   0.620
77445W        W45663  36.504  26.270   2.133
77446W        W45664   2.847  32.133   2.081
77447W        W45665  25.692  28.636  12.849
77448W        W45666  39.840  27.673   1.269
77449W        W45667  42.470   4.964   2.113
77450W        W45668  15.598  12.777   4.560
77451W        W45669  29.166  44.720  11.577
77452W        W45670  40.010   8.833  13.270
77453W        W45671  17.274   6.315  13.995
77454W        W45672  36.565   0.739  14.044
77455W        W45673  44.713  30.461   1.829
77456W        W45674   8.520  15.952  12.139
77457W        W45675  24.211  11.804   0.693
77458W        W45676  20.116  16.738   4.282
77459W        W45677  29.006  22.453  12.636
77460W        W45678  35.436  16.792  13.439
77461W        W45679   1.121   6.480   1.141
77462W        W45680  44.028  41.264   0.585
77463W        W45681  17.205  29.429  14.817
77464W        W45682  39.464   5.316   5.387
77465W        W45683  29.152  42.405  11.082
77466W        W45684  33.461  25.148  10.240
77467W        W45685   4.948  10.355   0.073
77468W        W45686  23.091  20.048  14.079
77469W        W45687  18.300  24.209   1.907
77470W        W45688   2.315   8.418   2.285
77471W        W45689  38.048  27.927  11.773
77472W        W45690  12.230  40.948   3.689
77473W        W45691  32.602  41.837   0.984
77474W        W45692  26.963  17.735   1.229
77475W        W45693  30.299   3.867   4.321
77476W        W45694   8.290  33.256   3.221
77477W        W45695  13.084  12.635   2.859
77478W        W45696  26.714  30.623  13.768
77479W        W45697  15.108   5.956   4.614
77480W        W45698  10.062   7.309  10.003
77481W        W45699  35.842  25.135  13.439
77482W        W45700   0.542  30.506   2.249
77483W        W45701  34.862  42.789   0.309
77484W        W45702  18.051  35.924   0.423
77485W        W45703  43.286  42.980   5.046
77486W        W45704  43.472   1.729   2.922
77487W        W45705  26.083  12.325  14.545
77488W        W45706  13.812  25.577  14.842
77489W        W45707   0.842  28.957  12.524
77490W        W45708   6.820  22.244   2.767
77491W        W45709   6.597  20.208   3.360
77492W        W45710  23.596  30.515   4.031
77493W        W45711  30.904  34.449   0.332
77494W        W45712  28.163   8.375  11.174
77495W        W45713   8.927  41.363   4.349
77496W        W45714   7.749  39.307  10.999
77497W        W45715  26.826  17.325   0.468
77498W        W45716  18.041  26.226  12.637
77499W        W45717  30.950  32.330  13.501
77500W        W45718  28.777   0.472   3.977
77501W        W45719  28.927   7.568  12.517
77502W        W45720  36.479  20.641  13.830
77503W        W45721   9.700   6.250  11.191
77504W        W45722  39.959  22.635  12.641
77505W        W45723   8.664  31.078  13.075
77506W        W45724   7.447  31.694  11.688
77507W        W45725   1.897   3.268  10.421
77508W        W45726  10.896  15.604  12.813
77509W        W45727  18.163  40.326   3.303
77510W        W45728  41.843   8.785  12.032
77511W        W45729  42.726  23.715   0.753
77512W        W45730  24.643   3.201   4.206
77513W        W45731   8.390   7.221   2.269
77514W        W45732  15.523   8.558  10.054
77515W        W45733  26.689  11.145   3.779
77516W        W45734  31.407  15.686   1.389
77517W        W45735   8.259   5.893  11.905
77518W        W45736   0.696  20.236   2.695
77519W        W45737  16.139  19.626  12.934
77520W        W45738   3.174   5.687  14.414
77521W        W45739  23.441  35.901   1.589
77522W        W45740  33.977  29.852   2.697
77523W        W45741  34.977  27.013   4.610
77524W        W45742  20.376  33.721   0.350
77525W        W45743  40.569  36.045   1.939
77526W        W45744  11.648   3.865   0.430
77527W        W45745  28.227  21.572   1.713
77528W        W45746   9.283   3.785   4.571
77529W        W45747  42.660  15.324  10.708
77530W        W45748  10.644  16.036  12.677
77531W        W45749  43.871  30.539   1.558
77532W        W45750   5.847   3.873  13.501
77533W        W45751  37.022  33.603  10.722
77534W        W45752  37.070   9.334   2.327
77535W        W45753  11.358  34.909  14.449
77536W        W45754  14.651  14.339   1.485
77537W        W45755   5.136  23.045   3.766
77538W        W45756  30.748   9.393  12.004
77539W        W45757  28.666  26.987  11.559
77540W        W45758   1.619  18.804   1.269
77541W        W45759  27.501  25.585  13.501
77542W        W45760  35.967  17.839   2.806
77543W        W45761  40.556   1.394  12.941
77544W        W45762  38.872  42.447   2.114
77545W        W45763  40.752  36.587   2.699
77546W        W45764  41.937  40.131   1.849
77547W        W45765   4.231  14.516   0.221
77548W        W45766  44.252  43.736   3.687
77549W        W45767  20.651  31.271  10.693
77550W        W45768  43.658  24.672  11.081
77551W        W45769  16.300  34.054  12.979
77552W        W45770   5.875  12.314   3.150
77553W        W45771   1.215  10.634  14.749
77554W        W45772  43.395  35.016  13.557
77555W        W45773  18.573  43.996   3.130
77556W        W45774  17.771  13.913  14.330
77557W        W45775  38.824   5.300  12.116
77558W        W45776  41.924  20.681   4.852
77559W        W45777  42.941   0.059   4.679
77560W        W45778  16.123  40.263   0.151
77561W        W45779  11.758  15.183  12.293
77562W        W45780  32.055  17.701   4.635
77563W        W45781  40.358  27.186  14.986
77564W        W45782  32.419  31.040   1.321
77565W        W45783  32.602  43.934   3.236
77566W        W45784  32.904  11.750   0.035
77567W        W45785   6.716   2.460  12.951
77568W        W45786  20.315  29.094   2.469
77569W        W45787  37.952  38.438   1.734
77570W        W45788  21.075  33.012  12.526
77571W        W45789  24.477   3.724   2.268
77572W        W45790  40.802  41.476   2.129
77573W        W45791  40.956   7.174  12.897
77574W        W45792  14.734   2.661   5.422
77575W        W45793  11.141  29.932  11.115
77576W        W45794   2.725  13.092   3.678
77577W        W45795  18.635   6.762   1.377
77578W        W45796  24.558  31.370  14.884
77579W        W45797   6.750  24.929  12.125
77580W        W45798   0.041  27.028   0.234
77581W        W45799  43.404  32.246   0.644
77582W        W45800  23.487  43.170   3.305
77583W        W45801  32.132  26.507  10.492
77584W        W45802  35.956   6.128  11.552
77585W        W45803   6.441  27.585  12.315
77586W        W45804  40.988   2.846  13.442
77587W        W45805  23.213  32.433  12.444
77588W        W45806  19.204  21.026   3.607
77589W        W45807  39.493  21.763  14.922
77590W        W45808  42.659  35.783   2.259
77591W        W45809  16.144  17.975   1.223
77592W        W45810  26.251   3.343   0.331
77593W        W45811  38.430  33.130   1.189
77594W        W45812   8.797  36.091   2.158
77595W        W45813  15.567  19.423   3.960
77596W        W45814   0.450  22.511   1.524
77597W        W45815  36.990   0.533   2.931
77598W        W45816   9.384  41.697   0.440
77599W        W45817  15.868  41.050   2.765
77600W        W45818  39.409  44.310  11.967
77601W        W45819  23.754   2.148   4.847
77602W        W45820  30.767  12.675  14.752
77603W        W45821  27.644  31.848  11.824
77604W        W45822  36.386  23.188   1.014
77605W        W45823   0.723   3.408   3.271
77606W        W45824  37.244   4.446   0.353
77607W        W45825  44.695  40.077  14.087
77608W        W45826  23.544   1.362   4.035
77609W        W45827   1.662  17.921  12.057
77610W        W45828  20.315   9.908  12.116
77611W        W45829  33.398  25.865   3.111
77612W        W45830  17.587  32.042   0.868
77613W        W45831  40.332   1.936   1.313
77614W        W45832  28.660  38.640  12.030
77615W        W45833  23.259  44.977   1.228
77616W        W45834  19.254   2.839  11.866
77617W        W45835  33.600  39.212   5.160
77618W        W45836  38.422  44.436   1.972
77619W        W45837  24.987   8.270   0.782
77620W        W45838  22.721  22.731  12.985
77621W        W45839  36.816  28.500  14.531
77622W        W45840  34.068   1.723   2.279
77623W        W45841  22.971  20.134   3.946
77624W        W45842  13.863   4.244   4.288
77625W        W45843  13.720  24.377  11.684
77626W        W45844  37.333  41.449  12.033
77627W        W45845  37.848  20.458  12.655
77628W        W45846  32.923   9.131   3.565
77629W        W45847  36.329   3.689  14.784
77630W        W45848  36.529  37.858   3.931
77631W        W45849  27.473  34.708   1.835
77632W        W45850  15.500  37.567   2.186
77633W        W45851  26.137  31.962   0.716
77634W        W45852  34.980   8.748   4.137
77635W        W45853  22.549  30.392  12.003
77636W        W45854   8.273  14.164   0.613
77637W        W45855  30.346  40.937  14.122
77638W        W45856  34.604  24.209  10.514
77639W        W45857   7.662  42.892   0.282
77640W        W45858  42.166   3.333   0.317
77641W        W45859  41.455  11.262   4.432
77642W        W45860  37.116  30.575   2.565
77643W        W45861  18.784  11.874  12.888
77644W        W45862  15.590  42.365   2.291
77645W        W45863  29.946  11.616   1.351
77646W        W45864   8.893  15.533   4.657
77647W        W45865  44.537  26.689  11.405
77648W        W45866  24.564  18.222  10.437
77649W        W45867  27.699  23.900   4.126
77650W        W45868  24.160  36.471  12.948
77651W        W45869  18.823  13.737  12.835
77652W        W45870   5.405  36.080   4.693
77653W        W45871  40.263  36.785   3.520
77654W        W45872  29.534  30.915  14.499
77655W        W45873  43.984  27.550   0.916
77656W        W45874  18.118  27.539   1.559
77657W        W45875  14.801  24.961   4.641
77658W        W45876  34.257  11.719  11.971
77659W        W45877  24.235  41.046  11.193
77660W        W45878  25.252  15.463  12.397
77661W        W45879  23.988  35.422  13.403
77662W        W45880  34.039  11.431  11.174
77663W        W45881   7.685  27.131  13.317
77664W        W45882  20.192  26.320  14.349
77665W        W45883  31.399  40.313   0.751
77666W        W45884  40.601  23.774   4.411
77667W        W45885   6.923   5.683  11.687
77668W        W45886  13.338  21.171   0.231
77669W        W45887  12.283  33.861   1.722
77670W        W45888  37.783  28.642   1.184
77671W        W45889  41.041  30.462   3.705
77672W        W45890  20.864   2.504  12.088
77673W        W45891  36.767   0.102  10.652
77674W        W45892  33.476  38.453   4.640
77675W        W45893   7.777  22.551   2.816
77676W        W45894   3.271  41.042   4.584
77677W        W45895  35.601  24.770   0.320
77678W        W45896  20.256  25.070  11.633
77679W        W45897  35.928  31.671   4.671
77680W        W45898  11.343  32.916   2.174
77681W        W45899   7.205  29.055  12.677
77682W        W45900  32.321   9.109   2.199
77683W        W45901  31.207  13.217  13.070
77684W        W45902  19.938  18.915  10.713
77685W        W45903  16.322  39.775   2.843
77686W        W45904  13.243  37.646  14.290
77687W        W45905  40.227  35.020  14.117
77688W        W45906  31.108   3.244   2.274
77689W        W45907  13.569  17.126   4.323
77690W        W45908  44.982  16.305   0.007
77691W        W45909  19.781  41.507   2.774
77692W        W45910  37.436  24.612   2.362
77693W        W45911   5.144   5.259   1.794
77694W        W45912  42.619  35.283   2.401
77695W        W45913   7.887  12.650   4.594
77696W        W45914  34.409  27.127   1.635
77697W        W45915   9.731  31.487   1.436
77698W        W45916   1.640  35.913  11.863
77699W        W45917   0.240  21.828  11.047
77700W        W45918  22.119  26.976   4.608
77701W        W45919  22.219   5.872   2.180
77702W        W45920   8.354   5.654   0.526
77703W        W45921   2.515  36.389   2.806
77704W        W45922  40.872  19.038  12.100
77705W        W45923  32.355  39.760   4.143
77706W        W45924  22.280   3.085   4.219
77707W        W45925  14.712  32.926  12.166
77708W        W45926  30.011  21.227  12.154
77709W        W45927  37.013   4.675  12.109
77710W        W45928  11.458  13.224   3.659
77711W        W45929  10.317  16.608  12.923
77712W        W45930  18.148   8.426   4.182
77713W        W45931  43.710   9.333   2.401
77714W        W45932  33.172   3.401  10.703
77715W        W45933  11.548  36.390  13.351
77716W        W45934   9.860  37.365   0.930
77717W        W45935  42.638   4.341   2.018
77718W        W45936   0.144  26.533  14.355
77719W        W45937  14.823  21.170   1.204
77720W        W45938   7.408  14.171   3.628
77721W        W45939  34.087  31.053  12.134
77722W        W45940  34.869  30.087   4.902
77723W        W45941  44.580  32.198   4.586
77724W        W45942  13.565   8.767  12.811
77725W        W45943  21.986  30.131   0.295
77726W        W45944  24.409  33.496   3.035
77727W        W45945  25.151  28.423  11.198
77728W        W45946  32.364  40.610  14.361
77729W        W45947  27.940   5.413  12.284
77730W        W45948   8.142  31.838   5.275
77731W        W45949  24.788  34.489   2.446
77732W        W45950  29.906  19.143   3.899
77733W        W45951  10.323  20.096  13.318
77734W        W45952  41.171  12.206  14.404
77735W        W45953  36.560   7.489   3.711
77736W        W45954  40.372  41.221   4.539
77737W        W45955   3.379  11.545   2.751
77738W        W45956  22.808  16.082   3.198
77739W        W45957  21.508  14.041   2.240
77740W        W45958  15.293  42.678  13.009
77741W        W45959   7.952   1.310  10.399
77742W        W45960  24.689  41.278  14.765
77743W        W45961  37.051  10.325  11.669
77744W        W45962  24.559  18.695  10.678
77745W        W45963  14.375  15.333   1.913
77746W        W45964  26.321  21.355   4.054
77747W        W45965  38.020  32.758  10.682
77748W        W45966   7.750  32.838   3.828
77749W        W45967  39.540  25.073   1.833
77750W        W45968  31.133  15.663  11.832
77751W        W45969  43.070  41.252  14.691
77752W        W45970   0.965  32.901  12.318
77753W        W45971  39.229  30.384  12.481
77754W        W45972  12.808  19.030  12.449
77755W        W45973  12.602  11.049  10.623
77756W        W45974  44.353  15.729  14.566
77757W        W45975   1.117   6.691  11.887
77758W        W45976  31.516  20.361  12.950
77759W        W45977  13.158  24.945   1.745
77760W        W45978  32.343  38.632  12.992
77761W        W45979  36.104  10.274  13.133
77762W        W45980  34.462   5.303   1.840
77763W        W45981  18.795  12.138  12.431
77764W        W45982   4.438   4.475   2.618
77765W        W45983   0.929  23.201  14.441
77766W        W45984   1.257  27.099   3.018
77767W        W45985  31.104   3.849  13.945
77768W        W45986  30.013  16.082   0.253
77769W        W45987  17.229  28.680   1.579
77770W        W45988   7.102  44.887   1.299
77771W        W45989  43.908  10.066   4.901
77772W        W45990  34.340   2.362   3.341
77773W        W45991  36.437  42.557  12.109
77774W        W45992  31.028  38.069  12.806
77775W        W45993  42.456  38.902   4.371
77776W        W45994   2.727   0.998   2.517
77777W        W45995  15.822  17.918   2.400
77778W        W45996  27.502  40.309  14.330
77779W        W45997  40.282   5.342   1.770
77780W        W45998  12.671  39.891  11.948
77781W        W45999  15.781   7.671  10.560
77782W        W46000  39.471  14.204   4.108
77783W        W46001   7.234  42.695   1.001
77784W        W46002  24.997  21.164  13.397
77785W        W46003   8.538   7.851  12.412
77786W        W46004  25.543   5.151   0.882
77787W        W46005  27.208  20.625   4.616
77788W        W46006  39.840  44.010   0.966
77789W        W46007  27.605  12.212   4.740
77790W        W46008  34.601  23.175  13.978
77791W        W46009  32.261  42.213  13.506
77792W        W46010  21.014  30.621   2.917
77793W        W46011   4.056  14.659   1.527
77794W        W46012   4.312  29.268  11.169
77795W        W46013   5.943   3.967   1.828
77796W        W46014  13.035  37.452  13.347
77797W        W46015   1.191  21.661  13.125
77798W        W46016  29.601  38.404   1.237
77799W        W46017   1.554  40.941  13.032
77800W        W46018   5.544  44.853   4.944
77801W        W46019  28.407  36.634   3.206
77802W        W46020   4.665  32.591  10.486
77803W        W46021   4.814   7.080  11.560
77804W        W46022  30.420  33.889  12.991
77805W        W46023  44.118  12.077  13.070
77806W        W46024  22.186  21.505  13.015
77807W        W46025  40.274  38.835   0.181
77808W        W46026  25.028  14.151  14.421
77809W        W46027  16.871  16.847  11.940
77810W        W46028   5.318  35.081   2.778
77811W        W46029  14.274  16.340  11.271
77812W        W46030  18.159  32.191  14.505
77813W        W46031  18.849  29.070  12.695
77814W        W46032  13.212  35.575   3.886
77815W        W46033  33.761   6.726   3.821
77816W        W46034   8.874  29.677  13.218
77817W        W46035  14.416  43.738   1.078
77818W        W46036  29.377   6.464   2.852
77819W        W46037  11.667  18.249  13.409
77820W        W46038  28.542  38.140   4.309
77821W        W46039  39.454   7.374   1.830
77822W        W46040  32.097  44.330  12.729
77823W        W46041  43.331  34.185   2.727
77824W        W46042   4.389   2.842  10.887
77825W        W46043  20.223  33.048   2.354
77826W        W46044   4.549  40.344  11.254
77827W        W46045  33.707   9.227   2.069
77828W        W46046  30.773  20.709   1.155
77829W        W46047   7.769  18.939  14.500
77830W        W46048  32.627  20.569   1.303
77831W        W46049  35.989  36.994  13.501
77832W        W46050  19.906   1.525  14.976
77833W        W46051   1.893  13.500  11.015
77834W        W46052  10.986  43.823  14.769
77835W        W46053  24.596  42.051  14.005
77836W        W46054  31.015  14.056   1.450
77837W        W46055  33.868  21.514   3.723
77838W        W46056  37.498  13.486   4.567
77839W        W46057  14.288  41.805  11.205
77840W        W46058  41.778   9.935   0.289
77841W        W46059   6.083  12.252  12.847
77842W        W46060   5.503  11.136  11.044
77843W        W46061  33.463  14.647  13.837
77844W        W46062  35.338  39.776   0.270
77845W        W46063  41.936  20.626   3.885
77846W        W46064  20.216  10.143  14.045
77847W        W46065  12.372   3.285   0.379
77848W        W46066   9.229  22.039   3.704
77849W        W46067  21.137  38.439   3.580
77850W        W46068  28.585  36.463   1.847
77851W        W46069   9.802  15.046  11.705
77852W        W46070   4.180   2.670   1.354
77853W        W46071  38.331  12.215  12.101
77854W        W46072  27.262  26.596  10.437
77855W        W46073   3.707  31.521  14.932
77856W        W46074  24.135  24.317   3.219
77857W        W46075  42.515   3.184  13.989
77858W        W46076  33.222  22.377  11.132
77859W        W46077   0.545   0.807  14.684
77860W        W46078   7.120  19.016  12.684
77861W        W46079  32.003  35.159   3.274
77862W        W46080   3.361  36.330   2.410
77863W        W46081  28.170  16.372   9.718
77864W        W46082  30.369   3.228  14.252
77865W        W46083  20.061  31.421   3.649
77866W        W46084  29.908  35.359  11.933
77867W        W46085  11.794  11.377  12.146
77868W        W46086  15.468   4.212   2.257
77869W        W46087  36.168  25.566   0.707
77870W        W46088  36.215   5.309   4.969
77871W        W46089  18.094   1.466  10.593
77872W        W46090  44.252  28.732  12.489
77873W        W46091  26.577   9.847  13.854
77874W        W46092  30.029   0.988   1.379
77875W        W46093  44.289  18.371  10.714
77876W        W46094  29.176  12.169   4.537
77877W        W46095  19.105  13.157   0.407
77878W        W46096  39.567  40.395  11.590
77879W        W46097   8.644  18.556   4.567
77880W        W46098   3.795  26.162  13.970
77881W        W46099   5.048  30.904  11.134
77882W        W46100  18.541   4.151  11.587
77883W        W46101  39.868  14.778   3.759
77884W        W46102   7.764  20.279  13.407
77885W        W46103  44.480   4.007  13.451
77886W        W46104  18.140  18.354   1.135
77887W        W46105  34.477   0.778  13.030
77888W        W46106   5.381  42.521   1.380
77889W        W46107   0.388  31.573  11.642
77890W        W46108  12.928  10.213  13.385
77891W        W46109  11.348  11.735  13.383
77892W        W46110  24.570  35.543  13.998
77893W        W46111  27.100   3.702  12.620
77894W        W46112  17.119   0.011  14.811
77895W        W46113  40.503  29.602  10.701
77896W        W46114  38.014  40.459   4.558
77897W        W46115  15.195  16.644   0.777
77898W        W46116   4.302  18.706  14.724
77899W        W46117  24.282  33.045   2.808
77900W        W46118  30.687  25.953  14.298
77901W        W46119  12.142  11.875   2.289
77902W        W46120  30.305  14.231   1.440
77903W        W46121   9.751   0.204   2.168
77904W        W46122   8.596  28.604  11.414
77905W        W46123  36.729   5.278   4.970
77906W        W46124   9.361   5.245   4.636
77907W        W46125  26.094  39.870  13.898
77908W        W46126  23.537   5.670  12.981
77909W        W46127  31.634  41.003   2.859
77910W        W46128  19.118  30.947   2.805
77911W        W46129  18.148   7.184   1.867
77912W        W46130  37.131  19.025  11.570
77913W        W46131   6.438  20.155   0.921
77914W        W46132  37.480  35.536   2.378
77915W        W46133  44.693   6.753   0.974
77916W        W46134  26.003  34.386   3.703
77917W        W46135  24.107  14.738   2.130
77918W        W46136  29.306  29.541  11.869
77919W        W46137  14.022  38.498  11.730
77920W        W46138   7.148  20.100  11.031
77921W        W46139  32.071  32.883  12.472
77922W        W46140  40.163  37.830  11.599
77923W        W46141   3.423  12.282  14.870
77924W        W46142  38.970  35.151  12.996
77925W        W46143  26.692  15.308   2.424
77926W        W46144  13.019  27.036   4.843
77927W        W46145  33.854  38.955   2.091
77928W        W46146  38.268  35.535   1.795
77929W        W46147  44.601  31.460  12.878
77930W        W46148  18.554  25.149   1.900
77931W        W46149  25.863  20.762  11.601
77932W        W46150  19.523  29.140  10.638
77933W        W46151  25.967  37.412   1.620
77934W        W46152  26.710  33.968  12.712
77935W        W46153  39.222  39.310  11.837
77936W        W46154  27.472   5.375  12.052
77937W        W46155   7.924   8.149   3.298
77938W        W46156  26.401  41.725   4.083
77939W        W46157   9.467  21.687   0.335
77940W        W46158  39.109  15.717   0.551
77941W        W46159   3.779  28.048   2.160
77942W        W46160  27.066  41.521  12.494
77943W        W46161   9.416  40.904  14.348
77944W        W46162  42.212  21.756  13.942
77945W        W46163  30.420  33.649   0.276
77946W        W46164   9.942  30.656  10.882
77947W        W46165   9.712  32.880  12.763
77948W        W46166  21.669  18.298   0.706
77949W        W46167  17.936   0.172  14.537
77950W        W46168  31.354  43.041  13.415
77951W        W46169  13.745  10.905   0.910
77952W        W46170  44.299  38.760   2.888
77953W        W46171  42.519  36.338   1.449
77954W        W46172  42.029  30.018  10.526
77955W        W46173   8.088  41.002   4.081
77956W        W46174   7.843  27.628  13.474
77957W        W46175  15.216  14.677   5.389
77958W        W46176   8.366  35.392   2.135
77959W        W46177  19.438  10.117   1.701
77960W        W46178   0.871  28.167  12.060
77961W        W46179  14.869   0.825   5.012
77962W        W46180  35.879   2.867   1.300
77963W        W46181  14.697   0.218   3.523
77964W        W46182   9.141  11.367  11.114
77965W        W46183  19.032  34.166  14.073
77966W        W46184  33.361  30.957   3.156
77967W        W46185  14.723  39.302  12.660
77968W        W46186  13.040  11.011   0.927
77969W        W46187  12.864  36.431   0.221
77970W        W46188   7.451  36.537  10.651
77971W        W46189  37.329  33.569   2.147
77972W        W46190  17.291  32.038  11.971
77973W        W46191  22.605   8.375   3.181
77974W        W46192  13.842  32.050  14.769
77975W        W46193  31.582   6.655   0.401
77976W        W46194  18.075   2.006  10.538
77977W        W46195  28.542  39.831  12.515
77978W        W46196  31.527  41.349   0.813
77979W        W46197  41.712  39.394   4.572
77980W        W46198  14.617  20.069  14.889
77981W        W46199   4.159  13.149  11.688
77982W        W46200   3.252   6.938  10.936
77983W        W46201  36.980  14.255  12.516
77984W        W46202  44.168  41.881   4.680
77985W        W46203  20.002  30.958   4.591
77986W        W46204  13.413  12.533   2.436
77987W        W46205  32.572   0.541   1.252
77988W        W46206   3.898  43.163  14.721
77989W        W46207   6.227  19.770   2.436
77990W        W46208  10.843   0.681   4.528
77991W        W46209  26.584  41.764   3.127
77992W        W46210  24.003  27.874  13.001
77993W        W46211  11.794   7.739   1.982
77994W        W46212  16.288   9.331  14.718
77995W        W46213  41.437  15.770   0.932
77996W        W46214   9.061  21.059   4.272
77997W        W46215  32.374  28.716   2.552
77998W        W46216  39.806   9.731  10.743
77999W        W46217   4.349  28.110  14.988
78000W        W46218   9.106  40.467  14.589
78001W        W46219   6.708  10.867   4.137
78002W        W46220   8.856   1.855  14.053
78003W        W46221  29.270  12.663  10.923
78004W        W46222   3.354   9.270  14.001
78005W        W46223  43.575  19.799   0.376
78006W        W46224  43.350  14.843   1.332
78007W        W46225  15.241   9.801  14.316
78008W        W46226  33.040  21.538  12.601
78009W        W46227  23.973   8.238  14.957
78010W        W46228  31.159  39.798   2.993
78011W        W46229  17.197  41.717  13.449
78012W        W46230  37.270   1.725   3.258
78013W        W46231   9.192  11.696   0.522
78014W        W46232  26.990   2.410   0.750
78015W        W46233  18.296  16.579  12.537
78016W        W46234   9.365   9.377   2.444
78017W        W46235  26.983  11.786   0.903
78018W        W46236   9.408  37.090   0.689
78019W        W46237  40.086  21.119  14.396
78020W        W46238  44.348  11.782   2.242
78021W        W46239  27.186  39.818  12.448
78022W        W46240  20.074  11.386   0.060
78023W        W46241  39.119  33.452   0.504
78024W        W46242  39.432  10.485   3.588
78025W        W46243  18.813  17.775  14.121
78026W        W46244   9.296   6.848   2.640
78027W        W46245  37.383  32.356   4.943
78028W        W46246  33.226  18.999   2.502
78029W        W46247  11.335  13.244  11.981
78030W        W46248  30.624   5.716   0.825
78031W        W46249   2.989  42.431   4.621
78032W        W46250  11.304  13.332  12.892
78033W        W46251  25.688  18.094   4.449
78034W        W46252  26.024  10.177   1.017
78035W        W46253  23.177   1.884   0.496
78036W        W46254  25.376  34.234  13.474
78037W        W46255  31.683  36.425   3.686
78038W        W46256   2.321  39.201  11.614
78039W        W46257  30.761   3.003  11.592
78040W        W46258   0.067  42.382  13.306
78041W        W46259  13.207  17.302   1.481
78042W        W46260  43.358  23.292  13.990
78043W        W46261   6.738   6.280   0.326
78044W        W46262  33.873   8.656   2.748
78045W        W46263  17.666   0.314  14.972
78046W        W46264  12.193  18.571  13.826
78047W        W46265  14.835  43.225  10.690
78048W        W46266   0.707  38.539  10.290
78049W        W46267  30.492  11.486  11.117
78050W        W46268   7.350  21.130   0.296
78051W        W46269  20.768  27.565   1.437
78052W        W46270  11.249  15.946   1.196
78053W        W46271   6.822  16.365   0.872
78054W        W46272  37.397   3.771  13.862
78055W        W46273  35.454  36.267   2.388
78056W        W46274  32.838  30.283   4.462
78057W        W46275   7.792   2.602  12.960
78058W        W46276  31.727  13.528  14.634
78059W        W46277  21.091  22.782  14.094
78060W        W46278   8.461  29.879  11.448
78061W        W46279   8.140  43.208  10.424
78062W        W46280  21.671  28.484  11.956
78063W        W46281  18.903   8.691   2.270
78064W        W46282   5.858  44.522  11.813
78065W        W46283   0.216  20.061   1.284
78066W        W46284  20.673  23.604  11.635
78067W        W46285  40.740  23.994  14.464
78068W        W46286  31.046  39.510  13.933
78069W        W46287  39.797  35.002  14.445
78070W        W46288  12.115   9.554  13.351
78071W        W46289  26.053  18.343   4.708
78072W        W46290  15.963   0.752   3.027
78073W        W46291   5.701  11.615   3.324
78074W        W46292  35.391  11.620   1.728
78075W        W46293  15.284  36.001  13.400
78076W        W46294  32.046  28.386   1.745
78077W        W46295  13.495  15.704  10.521
78078W        W46296  10.264  29.993   3.783
78079W        W46297  34.708   2.658   0.507
78080W        W46298  14.781  11.101  12.550
78081W        W46299  33.488   2.602   1.097
78082W        W46300  10.964  10.656  13.979
78083W        W46301   9.423  25.558  11.491
78084W        W46302  16.139  15.137   4.226
78085W        W46303   6.269  30.999   2.471
78086W        W46304  31.384   2.000   1.006
78087W        W46305  14.302   3.459  11.051
78088W        W46306  29.220  22.728  10.155
78089W        W46307   9.107   3.452  12.376
78090W        W46308   2.710  39.595   4.560
78091W        W46309   0.751   0.627   2.752
78092W        W46310  23.446  27.639  14.112
78093W        W46311  18.816  36.442   4.063
78094W        W46312  26.402  43.897   2.782
78095W        W46313   8.142  15.943  10.244
78096W        W46314  11.121  41.359   0.920
78097W        W46315  18.183  42.003  12.093
78098W        W46316   4.724  23.179   1.897
78099W        W46317  34.918  25.938   1.394
78100W        W46318  30.746  31.138   4.319
78101W        W46319  44.062  32.109   4.602
78102W        W46320  42.071  35.546  14.000
78103W        W46321   9.663  24.070   2.386
78104W        W46322  33.398   2.662   4.541
78105W        W46323   0.885  27.003   2.134
78106W        W46324  27.812  34.943  13.301
78107W        W46325  32.497   2.597  14.844
78108W        W46326  11.823  39.873   2.414
78109W        W46327   5.659  42.887  14.058
78110W        W46328   8.127  19.643  13.913
78111W        W46329  19.245  30.734   0.555
78112W        W46330  18.605  13.987   0.409
78113W        W46331  33.135  25.937   0.480
78114W        W46332  31.114  40.786   0.338
78115W        W46333  16.113  31.410  10.638
78116W        W46334  19.642  30.255  12.674
78117W        W46335  13.712  27.233  12.169
78118W        W46336  24.591  28.331   1.404
78119W        W46337  41.947  16.054   0.899
78120W        W46338  32.033  43.096   0.372
78121W        W46339  13.087  39.541   4.668
78122W        W46340  40.573  41.231  10.528
78123W        W46341  16.245   6.652  14.900
78124W        W46342   6.521  21.228  11.652
78125W        W46343   6.126  13.334   3.741
78126W        W46344  32.196  44.433   0.540
78127W        W46345  11.619  35.060  14.882
78128W        W46346   3.450  37.730   3.276
78129W        W46347   2.183  14.023   3.149
78130W        W46348  15.885  15.263   3.224
78131W        W46349  27.364  27.201  12.078
78132W        W46350  12.563   3.251  13.900
78133W        W46351  41.859  34.561  12.590
78134W        W46352   9.692  30.682  10.069
78135W        W46353  17.032  33.859  13.468
78136W        W46354  42.356   6.072  10.794
78137W        W46355  44.039  31.511  14.032
78138W        W46356  31.213   2.833  14.724
78139W        W46357  31.714   4.673   2.419
78140W        W46358  20.184  25.533   1.484
78141W        W46359  36.730  36.680   4.890
78142W        W46360  32.185  13.656   1.720
78143W        W46361  39.863   9.479  12.437
78144W        W46362   9.814  39.972  11.382
78145W        W46363  41.026  41.109  10.779
78146W        W46364  13.275  19.067  14.976
78147W        W46365  37.786  36.271  13.072
78148W        W46366  43.388   4.939  13.053
78149W        W46367   4.825   7.583  10.657
78150W        W46368  23.047   8.048   0.242
78151W        W46369  26.010  35.535   4.276
78152W        W46370   2.408  27.999   2.463
78153W        W46371  21.606  37.589  11.761
78154W        W46372  42.559  37.698  10.318
78155W        W46373  11.867  10.860  14.828
78156W        W46374  29.427  41.219   2.752
78157W        W46375  15.910  26.533   0.371
78158W        W46376   3.021  15.597   1.348
78159W        W46377  27.146  35.329   0.318
78160W        W46378  31.400   4.591  10.362
78161W        W46379   0.589  12.085   1.833
78162W        W46380  39.844  44.543   2.280
78163W        W46381  23.600  22.748  11.161
78164W        W46382  24.503  15.120  12.692
78165W        W46383  39.963  21.594  14.297
78166W        W46384  24.947  39.908  14.974
78167W        W46385  34.944  44.222  13.360
78168W        W46386  37.381   5.068  12.530
78169W        W46387  30.590   6.997   4.315
78170W        W46388  38.382  28.528  13.024
78171W        W46389  44.323  22.617   1.714
78172W        W46390  40.814  24.037  10.926
78173W        W46391  30.220   0.859  12.889
78174W        W46392  28.611  37.845   0.261
78175W        W46393  27.601   4.945   3.317
78176W        W46394  19.650   4.182  11.475
78177W        W46395  24.037  10.455   3.235
78178W        W46396  18.235  31.900   4.490
78179W        W46397   6.103  43.134   4.994
78180W        W46398  38.444  17.023  12.625
78181W        W46399  18.624   4.704  11.542
78182W        W46400   5.978   3.063   1.888
78183W        W46401  18.818   2.367   0.865
78184W        W46402  29.458  41.827   2.206
78185W        W46403  18.777  12.276   3.560
78186W        W46404  36.122  13.056  14.913
78187W        W46405  33.277  40.632  14.632
78188W        W46406  28.114  34.437   0.715
78189W        W46407  43.547  10.741   3.906
78190W        W46408  44.051   8.124  12.763
78191W        W46409   5.309   3.947  12.244
78192W        W46410  27.533  14.189   9.742
78193W        W46411  39.876  18.814  14.069
78194W        W46412   0.740  33.318  10.056
78195W        W46413   8.669  37.621   2.399
78196W        W46414  38.496  36.846  11.574
78197W        W46415  42.426  41.866  14.810
78198W        W46416  21.675  15.772   0.414
78199W        W46417  36.877  13.860   3.887
78200W        W46418  12.009  10.351  14.052
78201W        W46419  34.953  15.312  14.360
78202W        W46420   1.507   1.761   4.112
78203W        W46421   8.325  16.704  12.979
78204W        W46422   6.775  29.561   2.195
78205W        W46423  11.167  33.651  13.023
78206W        W46424  21.821  27.750   4.850
78207W        W46425   3.080  35.877   2.278
78208W        W46426  13.175  20.710   2.728
78209W        W46427  26.425  19.501  12.134
78210W        W46428  30.115  12.081   3.694
78211W        W46429  26.251   3.796   0.587
78212W        W46430  16.380   0.364   2.279
78213W        W46431  35.386  40.362  14.584
78214W        W46432  44.884  20.058   4.569
78215W        W46433   6.297  35.442  13.320
78216W        W46434  33.371  17.661  14.922
78217W        W46435  28.638   1.464  10.531
78218W        W46436  36.946  18.086  14.739
78219W        W46437   6.663  28.110   2.301
78220W        W46438   7.348  24.624   4.067
78221W        W46439  20.753   5.707  14.079
78222W        W46440   5.383  23.746   0.882
78223W        W46441  33.476   7.113   2.305
78224W        W46442  24.841   9.770  12.905
78225W        W46443  38.546  26.676   3.775
78226W        W46444   5.279  10.841   1.322
78227W        W46445  14.781   2.705  11.103
78228W        W46446   8.865  10.248   0.357
78229W        W46447  29.929  18.995   2.149
78230W        W46448   3.939  17.139   0.594
78231W        W46449  32.882  39.542   1.190
78232W        W46450   6.794  41.406   3.278
78233W        W46451  44.814  41.231   0.522
78234W        W46452   5.441  17.765   0.758
78235W        W46453   4.711  17.791  10.697
78236W        W46454  24.395  41.915   3.587
78237W        W46455  26.063   9.201  13.782
78238W        W46456  38.582  10.390  13.081
78239W        W46457   3.453  37.260   0.261
78240W        W46458  40.300  43.973  13.439
78241W        W46459   1.722  20.951  12.868
78242W        W46460  20.042  11.741   4.555
78243W        W46461  12.446  17.066  12.556
78244W        W46462  10.667  41.405   0.250
78245W        W46463  35.434  38.937   4.336
78246W        W46464  30.494   2.190   0.462
78247W        W46465  38.560  25.550   3.225
78248W        W46466   7.849  25.405   3.852
78249W        W46467  43.121  24.828   4.578
78250W        W46468  24.940  25.632   4.468
78251W        W46469  44.029  16.214   3.768
78252W        W46470  44.243  21.713   0.921
78253W        W46471   8.859   1.419   4.757
78254W        W46472  42.014  23.604  14.338
78255W        W46473  29.914  43.527   0.761
78256W        W46474   7.182  34.097   3.663
78257W        W46475  12.772  43.237  13.023
78258W        W46476  27.158  37.877   2.209
78259W        W46477  41.100   9.440  12.700
78260W        W46478   1.487  39.460   0.799
78261W        W46479  25.021  18.519   3.282
78262W        W46480  34.205  21.989  11.048
78263W        W46481  34.944   0.406   4.533
78264W        W46482  39.802  21.738  13.829
78265W        W46483  21.589  44.676   0.921
78266W        W46484   9.804  12.258  11.869
78267W        W46485  44.316  19.932   0.711
78268W        W46486  28.429  28.201  14.738
78269W        W46487   2.822   2.940   4.464
78270W        W46488  23.656  44.923   1.556
78271W        W46489   4.867  14.309  14.043
78272W        W46490  25.535  29.633   4.914
78273W        W46491   5.891  14.694   3.421
78274W        W46492  26.433   4.711  10.950
78275W        W46493   8.221   3.073   5.048
78276W        W46494   8.987  42.570   5.287
78277W        W46495  34.713  37.375  10.975
78278W        W46496  34.691   0.751   0.284
78279W        W46497   7.699   2.938  10.790
78280W        W46498  13.801  40.511   3.412
78281W        W46499  13.520   7.634  11.132
78282W        W46500  40.798  11.707   2.607
78283W        W46501  31.855  33.967  13.890
78284W        W46502  20.879  43.758  10.764
78285W        W46503  21.758  42.037   0.432
78286W        W46504  32.139  39.120   1.265
78287W        W46505  31.459   2.557  11.192
78288W        W46506  21.504  14.701   4.662
78289W        W46507  35.077  28.977   2.755
78290W        W46508  35.578  31.717   1.524
78291W        W46509  39.406   0.285   0.954
78292W        W46510  27.085  13.572  11.502
78293W        W46511  36.905  25.430  11.060
78294W        W46512  19.177  35.603  12.943
78295W        W46513  13.761   4.982   5.032
78296W        W46514  30.376   8.133   0.748
78297W        W46515   8.291   6.606  13.157
78298W        W46516  15.822  27.521  13.778
78299W        W46517  27.509   0.496  11.443
78300W        W46518  42.332   6.154  12.420
78301W        W46519   7.865   4.814   1.200
78302W        W46520  32.934  33.405   1.179
78303W        W46521   4.132   0.915   3.177
78304W        W46522  23.028  23.297   0.394
78305W        W46523  20.209   3.114  14.370
78306W        W46524  23.004  26.157   0.941
78307W        W46525  40.454  32.515  14.986
78308W        W46526  26.798  31.883  13.494
78309W        W46527   4.746  13.531  14.298
78310W        W46528  17.705  18.325  14.066
78311W        W46529  34.032   0.057   1.989
78312W        W46530  14.206  10.874  13.890
78313W        W46531  28.930  36.503  10.636
78314W        W46532  11.463  39.637   1.404
78315W        W46533   8.423  20.501   3.344
78316W        W46534  15.276  25.502   3.230
78317W        W46535  20.500  30.636  12.773
78318W        W46536   2.841  39.021   0.921
78319W        W46537  21.104   9.829   1.158
78320W        W46538  18.644  10.740   0.644
78321W        W46539  22.177  12.609   0.226
78322W        W46540  33.059  36.427  11.188
78323W        W46541  41.587  25.171   3.331
78324W        W46542  24.739  10.342   4.055
78325W        W46543   0.947  14.469  13.924
78326W        W46544   9.661  34.584   1.182
78327W        W46545   6.445  28.944  12.082
78328W        W46546  14.268  27.892  14.082
78329W        W46547  15.621  10.978   2.274
78330W        W46548   0.903  32.585  13.118
78331W        W46549  31.557  38.379  14.504
78332W        W46550  29.785  28.193  10.332
78333W        W46551  13.527  17.019  13.028
78334W        W46552  28.647  17.847   4.201
78335W        W46553  42.530  20.805   0.629
78336W        W46554  32.007  10.941  12.572
78337W        W46555  19.106  41.699  14.277
78338W        W46556  44.322  36.558  13.413
78339W        W46557  38.470   5.012  10.156
78340W        W46558  20.726  40.518   3.161
78341W        W46559  44.454  43.690   1.259
78342W        W46560  15.857  36.369  10.562
78343W        W46561  10.277  31.475   5.034
78344W        W46562  18.142  12.649   3.215
78345W        W46563  16.830  29.882  11.641
78346W        W46564  38.807  44.816  11.922
78347W        W46565  41.401   0.792  13.002
78348W        W46566  20.710  40.948  10.686
78349W        W46567  20.128  44.174  13.876
78350W        W46568  28.683  34.800  12.947
78351W        W46569  35.112  27.928  13.513
78352W        W46570  31.497  16.703  12.406
78353W        W46571  27.198  18.984  14.025
78354W        W46572  44.124  30.400   3.740
78355W        W46573  33.378  18.296  13.465
78356W        W46574  44.493  13.353   0.397
78357W        W46575  30.457  28.745  13.135
78358W        W46576   6.348  14.573  12.976
78359W        W46577  43.049  12.635   2.370
78360W        W46578  21.028  34.026   0.713
78361W        W46579  28.680  20.698  12.584
78362W        W46580  38.581  27.359   2.885
78363W        W46581  11.304  38.242   2.753
78364W        W46582  44.248  20.452   3.728
78365W        W46583  16.270  36.878  14.402
78366W        W46584  30.297  17.970  14.519
78367W        W46585  13.315  10.352   1.078
78368W        W46586   3.366  21.274   5.133
78369W        W46587  31.026  23.511  12.584
78370W        W46588   9.560  22.673  12.186
78371W        W46589  23.887   2.051  13.139
78372W        W46590  43.993  21.075  14.755
78373W        W46591  44.293  43.373  11.873
78374W        W46592  12.821  19.653   4.163
78375W        W46593  13.171  32.364  11.959
78376W        W46594  21.245  31.689  14.478
78377W        W46595  28.419   1.196  13.856
78378W        W46596  42.087  10.668   1.080
78379W        W46597  40.841  15.051   2.821
78380W        W46598  20.603  28.214   3.375
78381W        W46599   1.926  26.572  11.481
78382W        W46600  25.285   0.357   0.394
78383W        W46601  38.511   1.787   1.944
78384W        W46602  12.889  36.897   3.173
78385W        W46603  13.393  25.316   0.345
78386W        W46604  33.812  14.707   0.146
78387W        W46605  35.510   2.315  11.985
78388W        W46606  11.221  12.357  11.658
78389W        W46607  33.241  19.517  10.720
78390W        W46608   3.953  42.103  12.430
78391W        W46609  11.069  25.150  12.016
78392W        W46610  16.626  12.913  11.113
78393W        W46611  13.297  42.816  14.874
78394W        W46612  15.808  11.302  10.068
78395W        W46613   1.302  13.811   0.622
78396W        W46614   8.077  28.925   1.665
78397W        W46615   5.883  20.735   2.775
78398W        W46616   9.127  27.153   4.623
78399W        W46617  27.244   7.677  10.736
78400W        W46618  20.125  19.058  13.155
78401W        W46619  43.413   5.926   4.686
78402W        W46620  44.932   6.729   0.406
78403W        W46621  16.844  44.968   5.292
78404W        W46622   4.375  39.811  12.141
78405W        W46623  22.302  14.251   0.289
78406W        W46624  37.724  18.550   1.509
78407W        W46625  33.693  42.642   4.632
78408W        W46626  12.909  18.832   2.841
78409W        W46627  38.524  38.804   1.984
78410W        W46628   5.073  33.064   4.101
78411W        W46629   6.572  34.571  10.749
78412W        W46630  13.840   5.248   2.255
78413W        W46631  16.191  40.586   3.200
78414W        W46632  32.164  41.788   3.759
78415W        W46633   6.222  17.645   3.341
78416W        W46634  38.502   0.743   0.680
78417W        W46635  27.210   1.445  12.236
78418W        W46636  16.265  14.173   1.920
78419W        W46637  35.071  24.895   0.231
78420W        W46638  25.733  11.338   2.800
78421W        W46639  25.521  17.124   1.799
78422W        W46640  38.048  18.092   3.649
78423W        W46641  20.222  25.761   0.859
78424W        W46642   8.218   6.872   0.611
78425W        W46643  23.489   8.280   3.659
78426W        W46644   5.149  23.211   4.280
78427W        W46645  12.312  40.081  10.649
78428W        W46646  17.260   8.626   1.348
78429W        W46647   9.577  42.042  14.756
78430W        W46648  16.779   4.244   0.775
78431W        W46649   3.307   9.290   2.190
78432W        W46650   9.898  16.557  14.184
78433W        W46651  32.822  39.826  10.609
78434W        W46652   1.988  12.877   0.908
78435W        W46653  29.299  15.865  11.961
78436W        W46654  11.867  20.171   2.711
78437W        W46655  25.980  38.330   0.297
78438W        W46656  30.037   2.047  14.550
78439W        W46657  19.993  25.030  11.214
78440W        W46658  26.606  11.096   4.613
78441W        W46659  30.710  37.459  11.708
78442W        W46660   7.903   2.029   2.387
78443W        W46661  42.393   1.466   0.871
78444W        W46662   2.989  35.531  11.579
78445W        W46663  38.367  24.249  11.372
78446W        W46664   3.477  44.447  14.123
78447W        W46665  44.571  28.962   3.418
78448W        W46666  38.326  23.175  11.871
78449W        W46667  37.851  41.409  12.089
78450W        W46668   5.900  26.691   3.150
78451W        W46669  30.409  39.552   3.254
78452W        W46670   2.022  13.331   2.905
78453W        W46671   9.445  17.347   2.364
78454W        W46672   3.100   5.450  14.981
78455W        W46673  16.694  36.588  14.345
78456W        W46674   0.856  36.811   0.259
78457W        W46675  32.826  20.307   0.208
78458W        W46676   0.148  33.508   0.706
78459W        W46677   1.094  39.955   3.759
78460W        W46678  16.260  15.090  14.251
78461W        W46679   7.188  21.587  11.923
78462W        W46680  31.674  17.715  12.858
78463W        W46681   9.857  21.324  14.917
78464W        W46682  26.585  30.153  14.923
78465W        W46683  18.744  27.960   3.381
78466W        W46684  37.806  10.834  12.167
78467W        W46685  43.322  12.636  11.938
78468W        W46686   4.636  24.666   3.894
78469W        W46687  21.730  19.664  13.080
78470W        W46688   8.891  31.628   4.610
78471W        W46689  26.133  17.348  14.440
78472W        W46690   6.822  20.254  13.323
78473W        W46691  15.838   3.172  11.702
78474W        W46692  20.242  21.788  12.015
78475W        W46693   4.872  19.783   4.584
78476W        W46694  11.911  41.255  12.528
78477W        W46695  33.131  40.775   0.870
78478W        W46696  43.935   6.778   3.246
78479W        W46697   4.197  14.530  10.701
78480W        W46698  25.610  13.366  10.792
78481W        W46699   9.713  43.555  11.956
78482W        W46700  15.699  31.445  14.920
78483W        W46701  11.720  22.437   0.425
78484W        W46702  43.763   7.010   3.665
78485W        W46703  28.925  12.732  13.190
78486W        W46704   1.307  10.917   2.395
78487W        W46705   6.375  25.476  14.912
78488W        W46706  16.296  16.536  10.683
78489W        W46707  21.303  44.451  12.987
78490W        W46708   6.209  42.028  13.747
78491W        W46709  13.199   8.363  12.446
78492W        W46710  12.829  23.228  14.039
78493W        W46711  28.303  18.996   3.458
78494W        W46712  27.004  25.075  11.076
78495W        W46713  25.094  42.578   5.035
78496W        W46714  37.365   7.946   1.368
78497W        W46715  20.267   0.821  12.490
78498W        W46716  44.871  37.536   2.924
78499W        W46717  23.161  39.986   4.549
78500W        W46718  44.434   2.989  10.715
78501W        W46719  18.185  36.725  14.448
78502W        W46720  13.912  31.421   0.556
78503W        W46721  14.945  23.749  14.937
78504W        W46722  14.849   3.021   5.008
78505W        W46723   4.288  29.074   4.809
78506W        W46724  42.541   6.462   1.916
78507W        W46725   2.740  39.436  11.980
78508W        W46726  20.197  16.695   9.857
78509W        W46727  25.514   6.453   3.435
78510W        W46728  12.745  43.339  12.084
78511W        W46729  40.912   3.656  11.931
78512W        W46730  18.433  17.611   3.923
78513W        W46731  15.073   7.027  12.507
78514W        W46732  26.246  20.748   1.755
78515W        W46733  40.020  36.859   4.751
78516W        W46734  44.892  32.395   3.733
78517W        W46735  31.981  26.499  12.586
78518W        W46736  29.634  24.534  11.226
78519W        W46737  31.209   9.432  11.807
78520W        W46738  24.416  12.528  11.120
78521W        W46739  16.222  28.021  11.694
78522W        W46740  41.891  41.026   1.486
78523W        W46741  10.227  37.104   4.075
78524W        W46742   6.625  10.374  12.955
78525W        W46743  26.683  20.481   1.929
78526W        W46744  26.618  30.819   0.566
78527W        W46745  42.395  22.695   3.242
78528W        W46746  16.431  32.472  12.306
78529W        W46747   0.842  41.200  13.444
78530W        W46748   3.806  25.021   4.473
78531W        W46749   2.357  15.398   4.897
78532W        W46750  21.079  36.399  14.842
78533W        W46751   9.880  17.269   3.338
78534W        W46752   1.455  28.415  14.270
78535W        W46753   7.724  26.612   4.547
78536W        W46754  32.364  15.773  12.904
78537W        W46755  40.404   5.657   2.157
78538W        W46756  13.860   9.809   2.013
78539W        W46757  37.271  19.205   4.127
78540W        W46758  30.675   4.507   2.796
78541W        W46759   3.302  37.174  11.113
78542W        W46760  23.438   5.406  12.549
78543W        W46761  44.565  30.331   0.118
78544W        W46762   2.028  15.507   0.241
78545W        W46763  31.618  30.706  13.793
78546W        W46764  30.923  21.538   3.629
78547W        W46765  18.988  20.019   3.672
78548W        W46766  20.133  22.097  12.410
78549W        W46767  39.557  11.222  10.436
78550W        W46768  40.423  28.991   1.766
78551W        W46769  25.692  19.130   1.976
78552W        W46770  44.588  43.138   4.581
78553W        W46771  26.762   9.776  11.133
78554W        W46772   9.699   8.322  11.452
78555W        W46773  32.092  21.200  10.655
78556W        W46774   2.153  38.959  11.185
78557W        W46775  14.761  33.633   0.232
78558W        W46776  12.152   9.251  11.678
78559W        W46777  16.317  11.683  12.839
78560W        W46778  16.787  44.295  10.403
78561W        W46779  17.550  24.184  13.762
78562W        W46780  22.928  19.542  14.197
78563W        W46781  11.766  21.681  11.652
78564W        W46782  26.789   1.020   4.672
78565W        W46783  41.025  31.280   3.273
78566W        W46784  37.431  16.749   4.653
78567W        W46785   4.923  37.237   2.441
78568W        W46786  23.677  38.140   2.291
78569W        W46787  11.726  40.076  14.942
78570W        W46788   1.951  33.690  10.420
78571W        W46789  28.952  33.653   4.608
78572W        W46790  33.808  30.601  12.001
78573W        W46791  13.514  23.888   2.124
78574W        W46792  44.935   8.631   0.899
78575W        W46793  26.131  20.698   4.587
78576W        W46794  42.094   2.082   1.037
78577W        W46795  22.322  19.859  14.732
78578W        W46796  18.662  31.875   2.158
78579W        W46797   2.380  15.950   3.794
78580W        W46798  14.630   5.954  10.272
78581W        W46799  23.602   0.158   3.318
78582W        W46800  43.544  16.877   0.257
78583W        W46801  38.185   4.106   4.932
78584W        W46802  36.343  28.989   2.320
78585W        W46803  39.885  26.693  13.050
78586W        W46804   6.665  15.854  10.239
78587W        W46805  40.070  10.916  13.543
78588W        W46806  27.298  11.452  14.954
78589W        W46807   3.207  40.458   3.558
78590W        W46808   6.743  27.020   2.188
78591W        W46809  28.127  38.773  11.970
78592W        W46810   0.396  16.264   3.756
78593W        W46811  17.667  29.580   2.407
78594W        W46812  20.864   7.177   3.553
78595W        W46813  26.508  31.319   0.715
78596W        W46814  15.022   0.845  12.859
78597W        W46815  29.388  44.522   0.875
78598W        W46816   2.347  10.106   1.439
78599W        W46817  34.922  39.433   4.895
78600W        W46818  40.114   6.680   4.377
78601W        W46819  23.985  14.279   3.237
78602W        W46820  39.423  20.298  11.426
78603W        W46821  37.298  21.369   4.513
78604W        W46822   7.195  41.939  13.222
78605W        W46823   0.580   5.943  11.124
78606W        W46824  23.983   9.885  14.604
78607W        W46825  41.471  10.224   0.600
78608W        W46826  17.116   1.339  13.498
78609W        W46827   0.806  39.430  14.761
78610W        W46828  43.146  30.190  12.062
78611W        W46829  13.898  22.489   0.448
78612W        W46830  26.688  19.206  10.468
78613W        W46831  20.184  29.180   0.986
78614W        W46832  43.497  13.644  12.071
78615W        W46833   0.452  34.432  10.704
78616W        W46834   4.303  14.864   3.276
78617W        W46835  35.985  14.222   2.169
78618W        W46836  14.844  37.107  13.939
78619W        W46837  21.263   1.698   2.346
78620W        W46838   8.402  26.240  14.931
78621W        W46839  18.140  18.336  12.839
78622W        W46840   8.631  39.540  11.048
78623W        W46841   5.176  33.965   0.997
78624W        W46842  16.730   1.705  12.394
78625W        W46843  42.925   8.772  14.395
78626W        W46844  29.215  23.100   3.074
78627W        W46845  35.012  30.448  10.119
78628W        W46846  15.206   8.561   1.346
78629W        W46847  42.357  24.112  12.634
78630W        W46848  40.365  18.067   1.005
78631W        W46849  23.819   4.715   4.076
78632W        W46850  41.587   1.458  13.815
78633W        W46851   2.124  16.786   4.571
78634W        W46852  16.706  25.157  13.757
78635W        W46853  41.018  37.823   3.172
78636W        W46854  41.680   2.509   2.186
78637W        W46855  28.415  18.075   1.617
78638W        W46856   6.889  26.891   2.686
78639W        W46857  20.187  41.842  14.446
78640W        W46858   9.208  14.781  10.697
78641W        W46859  23.702  11.337  13.818
78642W        W46860   0.229  21.644  13.041
78643W        W46861  10.801   0.955   1.191
78644W        W46862  31.172  36.328   2.847
78645W        W46863  30.077  35.723   1.616
78646W        W46864   2.416  24.200  10.695
78647W        W46865   2.037  16.030   2.175
78648W        W46866  11.468  12.801  12.929
78649W        W46867  32.426   4.626  11.614
78650W        W46868  22.420  25.287   1.903
78651W        W46869   1.187   7.806  11.131
78652W        W46870  30.588  29.726   1.292
78653W        W46871  23.131  40.622   2.800
78654W        W46872  40.458  42.835  12.803
78655W        W46873  30.735   3.008  14.817
78656W        W46874   2.275  19.223  13.299
78657W        W46875  23.138   7.136   2.094
78658W        W46876  28.165  29.691   4.168
78659W        W46877  16.569  14.748   1.809
78660W        W46878  27.099  32.138  10.969
78661W        W46879  22.218  15.766   2.239
78662W        W46880  22.248  26.196  12.010
78663W        W46881   1.235  39.016   0.879
78664W        W46882   5.502  16.644  10.223
78665W        W46883  44.276  41.611  14.756
78666W        W46884  16.026  27.194   1.007
78667W        W46885   1.342  13.623   1.692
78668W        W46886  42.355  20.565  11.167
78669W        W46887  40.433   1.318   0.919
78670W        W46888  42.952  26.627  13.851
78671W        W46889  41.100  17.538  14.045
78672W        W46890  36.753  13.708   0.380
78673W        W46891  34.034  43.916  11.958
78674W        W46892  22.482  14.099  14.361
78675W        W46893  25.494  20.455  11.834
78676W        W46894  31.830   9.215   0.139
78677W        W46895  25.299  23.054   2.367
78678W        W46896  20.017  20.711   3.150
78679W        W46897   5.035  20.035  14.365
78680W        W46898  15.573  16.659  11.533
78681W        W46899  31.016  29.618   3.795
78682W        W46900   5.114   0.975   1.995
78683W        W46901   0.688   8.396   1.705
78684W        W46902  25.494  17.764  10.780
78685W        W46903  31.053   8.718  11.274
78686W        W46904  17.364   4.679  13.551
78687W        W46905  11.720  31.631   1.958
78688W        W46906  31.214   4.930   0.277
78689W        W46907  24.907  39.242  13.981
78690W        W46908  33.646  31.131   2.751
78691W        W46909  20.042  19.248  14.379
78692W        W46910  15.103  40.638  13.773
78693W        W46911  35.996  28.223   0.013
78694W        W46912  34.531   4.074   1.380
78695W        W46913  28.889   7.776   1.801
78696W        W46914  10.587   0.244   4.346
78697W        W46915  34.584  14.225  12.634
78698W        W46916  25.077   8.762  11.979
78699W        W46917  43.386  43.237  10.629
78700W        W46918  27.599  29.750   0.316
78701W        W46919  30.012  28.554  13.316
78702W        W46920   8.875  14.793  13.282
78703W        W46921   3.447  35.003   2.229
78704W        W46922  25.930   4.173  12.085
78705W        W46923  42.978  14.414  14.591
78706W        W46924   0.936  44.321  11.199
78707W        W46925  32.670  27.133   3.108
78708W        W46926  21.727  22.481   2.252
78709W        W46927  19.698  27.273   1.349
78710W        W46928  18.266  30.523  14.003
78711W        W46929   8.691  15.287   5.370
78712W        W46930  30.422  37.978  10.962
78713W        W46931  19.819  27.693  13.921
78714W        W46932   6.431  24.607  10.624
78715W        W46933  20.987  33.598  11.633
78716W        W46934  31.589  21.231  13.383
78717W        W46935  30.375  37.112   1.743
78718W        W46936  36.030  28.207   1.819
78719W        W46937  35.779  34.899   2.234
78720W        W46938   6.457  36.065   0.518
78721W        W46939  13.677  29.004   2.649
78722W        W46940   1.481  19.154  11.160
78723W        W46941  13.875  28.123   2.090
78724W        W46942   1.704   1.935   3.666
78725W        W46943  24.989  20.985   2.183
78726W        W46944   7.280  34.063  12.842
78727W        W46945  35.827  21.742   1.330
78728W        W46946  22.216  22.034  11.668
78729W        W46947   2.947   4.958  14.963
78730W        W46948  37.182   7.253   1.797
78731W        W46949  19.798  19.316   1.368
78732W        W46950  26.917  41.112   2.601
78733W        W46951  28.983   4.720   0.346
78734W        W46952  22.486  33.090  11.672
78735W        W46953  26.026  23.944   0.412
78736W        W46954  15.471   7.837   1.743
78737W        W46955   7.481  44.862  14.844
78738W        W46956  20.895  14.498   9.828
78739W        W46957  11.785  33.593   3.236
78740W        W46958  42.330  35.472  13.504
78741W        W46959  23.802   2.251   1.416
78742W        W46960  24.017  27.191  12.384
78743W        W46961   7.210   1.625  13.904
78744W        W46962   2.045  28.579   2.852
78745W        W46963   8.282   9.743   3.803
78746W        W46964  15.632  19.575   4.458
78747W        W46965   4.694   2.442  10.990
78748W        W46966  41.789  13.168   2.074
78749W        W46967  23.568  35.716  12.557
78750W        W46968  23.560  39.936   3.899
78751W        W46969  18.562  13.534   0.706
78752W        W46970  31.431  21.644   0.743
78753W        W46971  21.814   9.438   1.037
78754W        W46972  24.170  13.219   2.981
78755W        W46973  16.260  38.384   2.817
78756W        W46974  19.878  35.906   3.286
78757W        W46975  19.037   2.437  13.835
78758W        W46976  14.783   8.180   3.499
78759W        W46977  39.809  35.693  12.718
78760W        W46978  40.757   2.454  13.207
78761W        W46979  35.784  35.397  14.518
78762W        W46980  18.171  24.571   1.177
78763W        W46981  17.314  14.955   4.071
78764W        W46982  42.376  12.302   0.933
78765W        W46983  16.155  34.984   3.144
78766W        W46984  22.154  41.234   3.701
78767W        W46985  26.988  37.480  13.674
78768W        W46986  44.330  25.661  12.556
78769W        W46987   8.277  23.244  13.069
78770W        W46988  13.258  22.673   1.222
78771W        W46989  10.291  13.311   3.077
78772W        W46990  23.298  28.416   4.340
78773W        W46991   6.308  40.863  13.317
78774W        W46992  44.985  35.960   1.263
78775W        W46993   7.666  23.707   2.393
78776W        W46994  25.923  35.098  13.460
78777W        W46995  24.926  36.763   4.622
78778W        W46996  33.060   5.919  13.909
78779W        W46997   1.755  43.739   0.692
78780W        W46998  24.825  41.338  13.518
78781W        W46999   1.434  27.645   1.171
78782W        W47000  14.769  38.157   3.805
78783W        W47001   2.667  17.887  13.398
78784W        W47002  19.624  39.485  13.971
78785W        W47003  14.110   4.587   5.096
78786W        W47004  18.553   5.086   0.464
78787W        W47005   2.748  28.978   0.393
78788W        W47006   5.909  33.034   1.241
78789W        W47007   3.799   7.675   2.632
78790W        W47008  13.869  28.428  13.466
78791W        W47009  37.423  14.145  10.688
78792W        W47010  18.034  43.851   0.764
78793W        W47011  41.036  16.412  10.670
78794W        W47012  39.347  27.566  14.370
78795W        W47013   1.139  38.181   0.325
78796W        W47014   1.512  36.851   1.416
78797W        W47015   6.267  14.726   3.771
78798W        W47016  26.943  14.061  10.710
78799W        W47017  15.509  38.844   1.684
78800W        W47018  30.563  36.492   3.705
78801W        W47019  44.679  34.889   3.250
78802W        W47020  14.793   6.196  13.783
78803W        W47021  29.847  38.945   0.148
78804W        W47022  44.388  16.593  10.684
78805W        W47023   8.290  17.238  13.556
78806W        W47024  40.466  21.054   3.695
78807W        W47025  29.180  35.301   4.760
78808W        W47026  33.886  24.517  14.799
78809W        W47027   5.152  23.705  12.860
78810W        W47028  17.810  11.207  13.464
78811W        W47029  41.056  35.337   4.693
78812W        W47030   3.817  25.641   3.336
78813W        W47031  21.764  16.531  13.446
78814W        W47032  29.855  43.651  13.908
78815W        W47033  14.079  42.971   1.765
78816W        W47034  22.776   4.281   2.182
78817W        W47035  18.224  18.154  14.782
78818W        W47036  21.773   0.263  13.994
78819W        W47037  34.643  26.096  12.050
78820W        W47038  42.426  27.362  14.494
78821W        W47039  44.432  24.625  14.859
78822W        W47040  44.112  19.478   4.659
78823W        W47041   2.268  43.910  11.685
78824W        W47042  20.591  25.138   0.921
78825W        W47043  43.471   7.324  12.372
78826W        W47044  23.035  25.871  11.494
78827W        W47045  11.337   0.949   4.406
78828W        W47046  39.600  20.125   0.811
78829W        W47047  33.547  21.735  12.505
78830W        W47048  19.240  37.297   1.423
78831W        W47049  24.261   9.100  11.634
78832W        W47050  10.381   4.133  14.707
78833W        W47051  11.327   4.172   2.188
78834W        W47052   6.218  16.223   1.270
78835W        W47053  33.517  33.931   0.181
78836W        W47054  18.290   9.397   3.247
78837W        W47055  13.759   3.465   3.846
78838W        W47056  36.401  33.585  12.784
78839W        W47057  12.607  25.039  14.750
78840W        W47058  30.878  43.880   2.583
78841W        W47059  26.443  14.319  10.679
78842W        W47060   7.393  41.785  14.140
78843W        W47061  40.431   5.919  12.009
78844W        W47062   7.583  33.317  13.610
78845W        W47063  42.085  14.655  11.720
78846W        W47064   0.803  15.440  10.725
78847W        W47065  15.437  31.059  12.523
78848W        W47066  27.800  18.839  11.681
78849W        W47067  40.006  13.429  10.867
78850W        W47068  31.296  18.584  13.868
78851W        W47069  24.932  24.078  12.752
78852W        W47070   9.812  38.382  10.473
78853W        W47071   7.729  22.267   1.841
78854W        W47072   2.970  25.225  14.791
78855W        W47073   5.678  18.671  14.256
78856W        W47074  35.893  27.703   0.005
78857W        W47075   8.633  11.756   1.359
78858W        W47076  29.536  31.548   2.825
78859W        W47077  20.968  11.675  12.479
78860W        W47078  24.221  15.702  10.640
78861W        W47079   2.552  25.895   2.854
78862W        W47080   6.122  12.077  12.027
78863W        W47081   4.881  30.934   0.396
78864W        W47082  32.747   4.890   1.632
78865W        W47083  22.756   7.393  13.061
78866W        W47084   5.874   5.377  10.534
78867W        W47085  35.943  21.504   3.765
78868W        W47086  43.527  24.433   1.930
78869W        W47087  17.972  38.475  13.067
78870W        W47088  31.132   3.907   0.978
78871W        W47089  25.045   9.323  13.041
78872W        W47090  37.566  44.071   1.544
78873W        W47091   8.465   2.412  14.015
78874W        W47092  14.371  15.533  10.146
78875W        W47093  10.582  16.759  10.806
78876W        W47094   4.743  28.813   4.744
78877W        W47095  17.917  32.035   1.937
78878W        W47096  32.508  24.358   1.733
78879W        W47097   3.754  10.800   2.232
78880W        W47098  35.410  21.120   5.002
78881W        W47099  11.085  20.297   4.276
78882W        W47100   2.536  36.251  11.348
78883W        W47101  23.515  22.069  11.947
78884W        W47102  11.288  42.223   4.513
78885W        W47103  42.500  26.858   0.377
78886W        W47104  20.490  40.032  14.794
78887W        W47105  42.821  37.378   0.222
78888W        W47106  32.620  40.070   3.192
78889W        W47107  14.754  13.427  14.459
78890W        W47108  11.907   5.401  12.038
78891W        W47109  17.272  43.886   1.743
78892W        W47110  22.543   5.230   2.383
78893W        W47111  30.557   6.384   3.469
78894W        W47112  32.554  31.069  11.103
78895W        W47113  17.911   9.898   4.190
78896W        W47114  37.410  36.921   4.254
78897W        W47115  17.073  26.086  10.489
78898W        W47116   4.487  28.064   2.904
78899W        W47117   1.714  22.018   4.103
78900W        W47118   4.966  22.744  13.546
78901W        W47119  32.927   8.433   2.236
78902W        W47120   7.170   5.998   0.257
78903W        W47121  15.616  13.662   3.147
78904W        W47122  20.348  30.984   1.300
78905W        W47123  41.911  27.466  13.790
78906W        W47124   3.203  15.238  11.552
78907W        W47125   8.137  15.797  12.494
78908W        W47126  37.460  24.188  12.073
78909W        W47127  15.785  26.060  10.268
78910W        W47128  12.368  43.442  13.325
78911W        W47129  37.475  43.578   1.630
78912W        W47130  28.785   1.630  10.056
78913W        W47131  27.464   8.536  13.854
78914W        W47132  31.679  26.176  12.261
78915W        W47133  10.475   2.200   4.682
78916W        W47134  17.361   5.231   0.283
78917W        W47135  11.211  36.083  11.612
78918W        W47136  21.877  36.748  12.919
78919W        W47137  20.203  15.690   1.671
78920W        W47138  21.163  31.933  12.962
78921W        W47139  17.491  31.920  10.905
78922W        W47140  42.018   2.538  11.719
78923W        W47141  40.097   7.306   4.914
78924W        W47142  24.625   3.448  12.018
78925W        W47143  30.119  41.548  11.965
78926W        W47144  44.784  23.101  12.030
78927W        W47145  41.983  27.394  12.475
78928W        W47146  42.796  33.457  13.159
78929W        W47147  13.046  43.728   4.888
78930W        W47148  38.344   0.525   2.699
78931W        W47149  42.895   7.731  11.175
78932W        W47150  43.239  13.824   3.738
78933W        W47151  42.806  29.433   4.244
78934W        W47152  18.629  44.348   1.279
78935W        W47153  32.173   8.291   2.722
78936W        W47154   1.024  17.994   1.883
78937W        W47155  16.652  26.062  10.811
78938W        W47156  39.514  24.466  13.841
78939W        W47157   6.627   1.310  14.356
78940W        W47158   4.722  36.939  13.859
78941W        W47159  34.583  24.815  13.416
78942W        W47160   8.993  41.828   3.270
78943W        W47161  16.278  23.271   2.513
78944W        W47162  20.588   9.326  11.517
78945W        W47163   4.234  33.868  13.398
78946W        W47164  26.890   4.522  11.125
78947W        W47165  10.235   4.381  11.176
78948W        W47166  41.534  11.539  12.910
78949W        W47167  42.729  23.757   1.672
78950W        W47168  32.612  30.833  14.872
78951W        W47169  44.555  33.067  11.430
78952W        W47170  39.494  18.750  11.564
78953W        W47171  29.440  37.924   4.846
78954W        W47172   3.748  33.646  13.030
78955W        W47173   3.253   6.711   1.326
78956W        W47174  29.576   9.231  12.446
78957W        W47175  29.898  10.174   2.721
78958W        W47176  39.652  20.577  13.977
78959W        W47177  14.507   3.288  10.017
78960W        W47178  19.022  35.375  11.624
78961W        W47179  16.299  41.624   0.331
78962W        W47180  36.145  21.246   4.206
78963W        W47181   4.131  37.823  11.020
78964W        W47182   3.057  42.296  10.487
78965W        W47183  19.720  10.926   1.930
78966W        W47184  17.559  32.449   2.701
78967W        W47185  33.752  30.103  12.955
78968W        W47186  14.141  36.870   3.743
78969W        W47187  35.613  18.774   3.270
78970W        W47188  20.283  36.086   4.886
78971W        W47189  26.334  33.104  13.664
78972W        W47190  42.166  25.903   0.503
78973W        W47191  32.470  42.896   1.108
78974W        W47192  33.157  30.583   4.938
78975W        W47193  13.602  14.778  13.799
78976W        W47194  28.367  20.611   0.969
78977W        W47195  14.511  32.981   2.507
78978W        W47196  16.719  42.994   4.073
78979W        W47197   3.968  39.330  11.896
78980W        W47198  36.346  36.332   1.041
78981W        W47199  21.704  20.173  13.078
78982W        W47200  11.250  28.328  12.508
78983W        W47201   4.190  12.349  10.448
78984W        W47202  27.434  19.754  11.449
78985W        W47203   2.673   0.786   3.543
78986W        W47204  19.967   8.834  11.200
78987W        W47205  33.671  39.537   2.153
78988W        W47206  20.149  42.984   0.716
78989W        W47207  11.603   7.487  10.370
78990W        W47208   3.859  15.649   2.535
78991W        W47209  37.774   8.129  12.427
78992W        W47210  20.190  10.756   2.157
78993W        W47211   6.582  34.999   2.267
78994W        W47212   6.095  33.837   0.133
78995W        W47213  38.444  21.310   2.474
78996W        W47214  27.085  40.854  12.581
78997W        W47215   6.495   8.247  10.728
78998W        W47216  43.846  12.223  12.601
78999W        W47217  36.954   3.252  13.269
79000W        W47218  16.531  12.112  12.984
79001W        W47219   8.264   5.153   1.270
79002W        W47220  39.271  13.156   1.405
79003W        W47221  10.283  24.818   3.425
79004W        W47222  29.505  21.785   3.559
79005W        W47223   2.590   7.678   2.707
79006W        W47224  25.656  34.661  13.498
79007W        W47225   3.688  20.108   1.358
79008W        W47226  40.047  34.332  10.668
79009W        W47227  11.271  37.647  10.646
79010W        W47228  13.798  29.879  13.506
79011W        W47229  21.739  27.979  13.835
79012W        W47230  13.280   8.420   0.296
79013W        W47231  30.205  22.520   4.287
79014W        W47232  19.634   0.248  10.580
79015W        W47233  32.932  30.629  13.360
79016W        W47234   6.247  10.369   3.727
79017W        W47235  13.839  41.326   1.704
79018W        W47236  44.556  17.169   4.503
79019W        W47237  37.165  38.200   0.467
79020W        W47238   3.561   8.400   4.159
79021W        W47239  19.854  10.407  12.740
79022W        W47240  35.147  10.162  14.587
79023W        W47241  33.731   2.541   0.627
79024W        W47242  23.576  39.014   1.352
79025W        W47243  42.782   5.133  11.098
79026W        W47244   4.823  12.948  14.986
79027W        W47245  22.665  20.363  10.184
79028W        W47246  22.173  34.895   1.387
79029W        W47247   8.442  36.478  10.758
79030W        W47248  13.081  32.133  10.704
79031W        W47249  20.790  29.367  11.105
79032W        W47250  30.657  30.530  13.405
79033W        W47251  38.928  33.869  12.771
79034W        W47252   8.958  21.592   0.401
79035W        W47253  34.650  44.908  12.910
79036W        W47254  41.629  14.808   1.943
79037W        W47255  11.875   3.659   0.848
79038W        W47256   1.391   8.252   3.720
79039W        W47257  39.029   3.314   1.708
79040W        W47258  12.547   7.327  11.581
79041W        W47259  10.886  34.139   4.568
79042W        W47260   9.765   3.968  12.369
79043W        W47261  11.417  31.990   1.319
79044W        W47262  36.209  25.738   0.225
79045W        W47263  31.653  41.285   3.278
79046W        W47264   7.838  33.880  11.163
79047W        W47265  41.809  12.800  12.652
79048W        W47266  27.784   7.385   4.140
79049W        W47267  16.464  35.132  13.440
79050W        W47268  19.620  13.293   0.306
79051W        W47269   1.385  44.902  14.321
79052W        W47270   9.372  26.390  14.899
79053W        W47271   2.025   6.598   2.224
79054W        W47272   4.352  15.760  11.088
79055W        W47273  29.697  13.700  14.809
79056W        W47274  26.408  13.128  13.964
79057W        W47275  14.588  32.713   4.097
79058W        W47276  31.438  20.151   1.474
79059W        W47277  31.664  31.887  14.910
79060W        W47278  13.833   2.705  14.847
79061W        W47279  43.045   2.949   3.810
79062W        W47280  36.358  39.941   0.512
79063W        W47281   9.294  11.632  10.675
79064W        W47282  14.616  43.318   1.342
79065W        W47283   5.503  18.912   0.075
79066W        W47284  32.937  21.515  13.116
79067W        W47285  17.816  13.194   0.945
79068W        W47286   0.840  40.848  13.865
79069W        W47287   5.665  37.291   1.304
79070W        W47288  33.735  15.835  10.693
79071W        W47289   4.696   7.157  14.319
79072W        W47290  34.692   3.182   1.325
79073W        W47291   9.484  23.854  12.903
79074W        W47292  20.621  32.113   9.995
79075W        W47293  36.247  20.164  14.068
79076W        W47294  39.710  28.908   3.346
79077W        W47295  22.275   5.887  10.747
79078W        W47296  36.851  27.621  11.490
79079W        W47297  18.348  37.416  11.525
79080W        W47298  24.943  20.240   4.558
79081W        W47299   9.836  35.925  13.586
79082W        W47300   2.382   4.662   2.150
79083W        W47301  17.410  16.631  10.258
79084W        W47302  30.431  14.609   2.139
79085W        W47303  23.260   6.689  12.011
79086W        W47304  25.592   7.379   1.157
79087W        W47305  44.825  43.726   0.387
79088W        W47306  34.534  19.926  11.995
79089W        W47307  16.243  17.824  14.005
79090W        W47308  35.845   9.431  13.623
79091W        W47309   4.878  23.698   1.823
79092W        W47310  18.978  32.630  14.753
79093W        W47311  23.085  16.921  14.286
79094W        W47312  11.941  14.623  11.155
79095W        W47313  18.138  31.641  14.457
79096W        W47314  25.554  31.554   1.482
79097W        W47315  39.932   2.330   1.686
79098W        W47316  27.781  34.639  11.564
79099W        W47317   9.193  30.832   4.681
79100W        W47318  14.787  27.194   0.338
79101W        W47319  42.478  19.379   4.044
79102W        W47320  40.076  19.773   1.412
79103W        W47321   6.527  30.171   3.298
79104W        W47322  18.972  32.148  10.720
79105W        W47323  29.713   4.513  12.803
79106W        W47324  40.004   3.759   1.219
79107W        W47325  23.298  42.505  11.085
79108W        W47326   6.162  35.059   0.410
79109W        W47327  19.058  38.788  14.843
79110W        W47328  40.583  37.344   5.058
79111W        W47329  28.991  29.031  13.678
79112W        W47330   7.032  22.490  11.848
79113W        W47331  37.955  29.238   0.340
79114W        W47332   1.859  13.579  14.449
79115W        W47333  25.438  38.025   1.437
79116W        W47334  43.342   4.605  13.442
79117W        W47335   1.880  18.316   4.061
79118W        W47336  13.786  28.418  14.899
79119W        W47337  15.380  22.577  10.748
79120W        W47338  18.083  42.122  14.351
79121W        W47339   2.568  13.751   4.759
79122W        W47340   0.564  18.560  11.700
79123W        W47341  30.846  22.646   9.858
79124W        W47342  19.987  23.261   3.607
79125W        W47343  12.505  25.520  13.891
79126W        W47344  36.587   5.844  11.382
79127W        W47345  33.777  43.986  10.800
79128W        W47346   1.255  14.813  14.420
79129W        W47347  23.802  10.146  10.758
79130W        W47348  16.239  11.707   3.037
79131W        W47349  19.441  41.031  10.660
79132W        W47350   8.128  40.510  14.247
79133W        W47351  31.949  19.587  13.089
79134W        W47352  22.166  40.372   4.141
79135W        W47353  26.913   2.351   1.799
79136W        W47354  18.784  13.174   4.241
79137W        W47355  20.122  26.216   4.112
79138W        W47356  24.022  41.278  10.809
79139W        W47357  28.240  33.591  14.840
79140W        W47358  15.529   4.201   3.413
79141W        W47359   2.665  14.998   2.486
79142W        W47360  15.264  11.787  13.806
79143W        W47361  43.575  40.424  10.655
79144W        W47362   0.360  11.296   0.441
79145W        W47363   6.054  34.540  10.649
79146W        W47364  40.999  33.650   1.839
79147W        W47365  35.557  27.187  13.903
79148W        W47366   3.135  32.414   3.559
79149W        W47367  16.248  24.897   3.649
79150W        W47368  30.626  17.037   2.030
79151W        W47369  38.925   0.714   2.960
79152W        W47370  30.125   5.053   4.908
79153W        W47371  14.724  28.584   3.159
79154W        W47372  15.401  38.648   0.800
79155W        W47373  15.270  27.273  12.243
79156W        W47374  13.787  32.939  14.862
79157W        W47375  13.652  40.897  12.596
79158W        W47376   6.099  38.293  11.580
79159W        W47377  15.806  42.029  14.535
79160W        W47378  19.706  16.637   2.280
79161W        W47379   0.334  16.662   4.121
79162W        W47380  11.830  41.751  12.456
79163W        W47381  44.736  32.580  14.432
79164W        W47382  40.924  20.162   0.406
79165W        W47383  38.101  34.690  11.146
79166W        W47384  22.957  12.741  11.159
79167W        W47385   5.825  15.576   0.233
79168W        W47386  13.851   7.668   0.368
79169W        W47387  19.818   5.662  12.800
79170W        W47388  37.855  43.354   4.787
79171W        W47389  43.746  34.579  11.577
79172W        W47390  11.829  18.314   4.209
79173W        W47391  13.446  36.098  13.405
79174W        W47392  27.079   1.960   2.879
79175W        W47393   2.424  21.170  11.686
79176W        W47394  34.355   5.954  13.303
79177W        W47395  16.802  41.506   0.418
79178W        W47396  14.631  42.539   3.805
79179W        W47397   9.925  43.464   0.466
79180W        W47398  30.598  34.702   1.243
79181W        W47399  20.191  18.079  14.374
79182W        W47400   1.894   7.265   1.881
79183W        W47401   9.156  10.754   3.545
79184W        W47402  27.610  41.842  11.973
79185W        W47403  13.234  11.788  14.983
79186W        W47404  29.181  37.317  12.882
79187W        W47405  31.551  30.624   1.649
79188W        W47406   2.394  39.021  10.744
79189W        W47407   8.313  10.802   1.460
79190W        W47408   4.419  21.938  11.741
79191W        W47409  24.604  12.272   3.761
79192W        W47410  16.024  42.587  10.789
79193W        W47411   8.112  21.108  13.336
79194W        W47412  21.631  14.694  14.890
79195W        W47413   7.892  32.919   3.268
79196W        W47414   7.211  10.098  10.966
79197W        W47415   2.786   6.546   1.544
79198W        W47416   7.902  35.689   4.212
79199W        W47417   6.970  38.749  11.232
79200W        W47418  19.522   5.886   3.651
79201W        W47419  38.482   4.504  14.330
79202W        W47420  18.085  42.637  14.334
79203W        W47421   4.721  10.542   2.595
79204W        W47422  37.340  36.488  11.420
79205W        W47423  12.515  42.990   1.044
79206W        W47424  34.488  16.463  14.783
79207W        W47425  30.116  40.329   0.871
79208W        W47426  10.894  44.765   2.797
79209W        W47427  34.843  14.834  11.083
79210W        W47428  15.231  18.759   1.920
79211W        W47429   3.530  35.750  12.164
79212W        W47430  31.347   7.253   4.961
79213W        W47431  29.399  35.287  11.105
79214W        W47432   9.137  31.924   0.411
79215W        W47433  25.255  28.175   0.176
79216W        W47434  18.680   4.910   4.811
79217W        W47435  26.707   9.886   2.321
79218W        W47436  18.301  27.553   4.457
79219W        W47437  39.505   9.439  12.054
79220W        W47438  18.352  44.842   1.038
79221W        W47439  21.954   2.392   0.020
79222W        W47440   0.972  10.921  11.991
79223W        W47441  13.832  16.314   4.077
79224W        W47442  26.111  42.009   2.962
79225W        W47443  38.370   7.407  12.876
79226W        W47444  29.582  37.290  13.891
79227W        W47445   3.661  13.723   2.148
79228W        W47446  12.505  12.912   1.612
79229W        W47447  25.950   7.046  12.366
79230W        W47448  22.277  32.858  12.100
79231W        W47449  20.651  11.319  11.664
79232W        W47450  44.912  36.221  12.549
79233W        W47451  12.586  19.312   1.084
79234W        W47452  27.474  20.157  12.610
79235W        W47453  25.165  27.478  13.954
79236W        W47454  35.607  44.010   0.219
79237W        W47455  19.824  20.712  10.954
79238W        W47456  39.771  19.262  12.441
79239W        W47457  13.825  30.612  12.157
79240W        W47458  44.846   7.750  10.725
79241W        W47459   4.609  33.920   3.382
79242W        W47460  32.158  15.302   4.561
79243W        W47461   2.194  33.249   1.182
79244W        W47462  41.092  15.804  12.465
79245W        W47463  13.186   0.989   0.891
79246W        W47464   8.972  28.925   3.145
79247W        W47465  27.273  32.675   1.864
79248W        W47466  21.980  27.449  11.588
79249W        W47467   9.911   9.567  10.881
79250W        W47468  34.407  10.399   3.818
79251W        W47469   6.754  14.280  11.883
79252W        W47470  21.959  29.134  14.410
79253W        W47471   0.813  21.625   0.301
79254W        W47472  24.498  24.926  13.116
79255W        W47473  43.603  42.547  11.023
79256W        W47474  36.467   5.549  14.252
79257W        W47475  23.521  11.388  12.840
79258W        W47476  39.704   5.085   2.702
79259W        W47477  16.849  14.668  12.519
79260W        W47478  12.176  28.802   0.590
79261W        W47479  26.484  13.937  13.449
79262W        W47480  43.307   7.830   1.757
79263W        W47481  19.714  16.594  14.274
79264W        W47482  44.071  22.536  12.366
79265W        W47483  41.039  27.605   2.398
79266W        W47484  42.944  28.285  11.072
79267W        W47485  42.843  39.946   1.786
79268W        W47486  35.090  17.113   4.143
79269W        W47487  42.835   4.700   1.320
79270W        W47488  27.004  42.119   2.749
79271W        W47489   3.931  30.572  10.557
79272W        W47490   0.392  30.958   3.787
79273W        W47491  16.128  13.325  12.451
79274W        W47492  10.158   3.468   3.631
79275W        W47493  34.823  35.499   1.800
79276W        W47494  28.067  30.557   0.214
79277W        W47495  27.150  40.819  13.875
79278W        W47496  37.808  42.758   4.226
79279W        W47497  15.643   4.214   0.788
79280W        W47498   9.967   6.949   1.320
79281W        W47499  25.735  29.948   3.931
79282W        W47500  31.905  21.668   0.952
79283W        W47501  22.487  28.348   3.735
79284W        W47502  38.306   7.962   1.521
79285W        W47503  38.350  26.041   1.071
79286W        W47504  25.064  26.645   1.137
79287W        W47505  21.695  34.124  13.968
79288W        W47506  20.046  14.797   4.433
79289W        W47507  40.092   9.145   1.305
79290W        W47508  39.305  10.224   3.181
79291W        W47509  22.331   6.646  12.040
79292W        W47510  25.253  37.488  10.306
79293W        W47511   1.760   5.652   2.591
79294W        W47512   2.764  41.749  13.368
79295W        W47513  20.257   8.763   4.383
79296W        W47514  36.975   2.038  14.109
79297W        W47515  19.219   4.238   3.129
79298W        W47516  23.516   7.658   1.909
79299W        W47517  13.224  43.848  14.509
79300W        W47518  12.110  21.791   4.054
79301W        W47519   5.835   9.107   1.417
79302W        W47520  16.862  33.224   1.370
79303W        W47521  33.759  35.439   4.124
79304W        W47522  20.007  41.447   0.000
79305W        W47523  10.368  32.945  14.309
79306W        W47524  30.947  34.334  11.369
79307W        W47525  15.697   4.292   2.719
79308W        W47526  37.296   8.889   1.243
79309W        W47527  18.094  20.014  10.737
79310W        W47528   4.455   3.284  10.578
79311W        W47529  36.447   3.935   0.796
79312W        W47530  28.068  34.310  12.454
79313W        W47531  36.250  23.260   4.207
79314W        W47532  18.270  39.919   5.074
79315W        W47533  23.983  10.913  13.438
79316W        W47534  13.222  24.024  10.838
79317W        W47535  21.140  16.958  11.077
79318W        W47536  20.590  30.154  10.676
79319W        W47537  10.674   6.135  10.297
79320W        W47538  37.813  22.567   3.026
79321W        W47539  17.280  21.556  13.345
79322W        W47540   6.803   9.169   2.939
79323W        W47541  30.718  37.383   4.763
79324W        W47542   0.577  39.997   1.281
79325W        W47543   0.731   9.261  11.965
79326W        W47544  19.959   8.344  14.307
79327W        W47545  22.637  19.992   2.589
79328W        W47546  33.350  31.433  14.508
79329W        W47547  30.068  38.924  12.745
79330W        W47548  20.659   6.894  12.669
79331W        W47549  42.385  10.428  13.294
79332W        W47550   6.229  17.805  12.429
79333W        W47551  25.182  43.307  12.863
79334W        W47552  25.985  41.671   2.574
79335W        W47553   0.024  25.969  14.289
79336W        W47554   2.636  22.767  11.201
79337W        W47555  38.512  25.983  11.720
79338W        W47556  20.033  35.363   0.884
79339W        W47557  23.590  31.999  10.879
79340W        W47558   3.026  26.423   2.275
79341W        W47559  41.510   5.967  12.985
79342W        W47560  39.053  25.917   1.420
79343W        W47561  40.476  15.167  11.737
79344W        W47562   5.488  11.163   3.200
79345W        W47563  32.062  28.611  12.031
79346W        W47564   0.598  33.060  10.640
79347W        W47565  38.737  39.786  13.414
79348W        W47566   9.859  44.379  11.626
79349W        W47567  11.626   3.003  14.901
79350W        W47568  43.754  22.177  10.211
79351W        W47569   6.044  39.237  14.596
79352W        W47570  38.835   1.539  14.308
79353W        W47571   4.831  24.762  14.265
79354W        W47572  25.317   7.507  11.090
79355W        W47573   1.411  10.404  13.862
79356W        W47574  13.231  27.465   0.892
79357W        W47575  23.176  15.814  11.553
79358W        W47576   8.176  33.595   4.489
79359W        W47577  28.465  32.087  12.187
79360W        W47578   6.901  12.670  12.128
79361W        W47579   9.218  41.009  10.886
79362W        W47580  13.627  28.965  12.632
79363W        W47581  17.860  20.421  13.176
79364W        W47582   2.790   2.279  10.498
79365W        W47583  38.347  19.732   1.949
79366W        W47584  33.695   0.827   0.309
79367W        W47585  16.708  23.714  11.892
79368W        W47586  10.116  44.973   4.601
79369W        W47587  26.472  24.592   1.493
79370W        W47588   6.939  43.386   0.614
79371W        W47589  37.568  14.429   4.226
79372W        W47590  33.657  24.251   0.215
79373W        W47591  21.254  44.295   3.295
79374W        W47592  15.215  27.141  11.768
79375W        W47593  16.230  17.348  13.791
79376W        W47594   5.413  31.897  14.953
79377W        W47595  21.859  14.537   1.613
79378W        W47596  13.046   9.187   3.410
79379W        W47597   5.835  23.676   3.745
79380W        W47598  40.623  40.029  13.915
79381W        W47599  10.652  13.132  13.801
79382W        W47600  42.812  12.790   3.323
79383W        W47601  29.631  35.057   4.547
79384W        W47602  39.955  32.205   1.685
79385W        W47603  40.605  23.712  14.880
79386W        W47604  34.425  11.940   3.527
79387W        W47605   1.253   5.459  11.481
79388W        W47606   7.360  12.875   0.405
79389W        W47607  25.537  16.828  11.575
79390W        W47608  29.216   0.692  11.796
79391W        W47609  10.883  22.957  14.079
79392W        W47610  15.100  16.819  14.813
79393W        W47611  29.801  26.746  11.861
79394W        W47612  11.844  44.278  10.966
79395W        W47613  39.054  27.612   2.754
79396W        W47614  28.643  13.928   4.656
79397W        W47615  32.484  31.703   1.969
79398W        W47616  23.700  38.976  12.372
79399W        W47617  23.620   5.412   2.402
79400W        W47618  11.815  14.026  10.520
79401W        W47619  42.912  31.473   1.952
79402W        W47620  20.561  15.743   0.415
79403W        W47621   0.830  31.603  14.560
79404W        W47622  28.649  11.050  10.582
79405W        W47623  29.648   2.370  13.864
79406W        W47624  29.546  33.592   0.865
79407W        W47625  36.404   7.406  11.610
79408W        W47626  29.904  14.245  10.276
79409W        W47627  23.726  44.018   4.047
79410W        W47628  11.673  15.007  12.772
79411W        W47629  39.807  18.680   2.307
79412W        W47630   0.716  33.203   2.889
79413W        W47631  38.801  28.476   1.329
79414W        W47632  18.610  42.202  11.866
79415W        W47633  23.807   7.489  14.431
79416W        W47634  29.562  44.274  12.111
79417W        W47635  42.960  12.073   2.690
79418W        W47636   5.885  29.439   3.635
79419W        W47637  34.524   1.121   2.551
79420W        W47638  19.172  19.596  13.859
79421W        W47639   8.764  23.259  13.344
79422W        W47640  37.437   4.971  12.002
79423W        W47641  27.127   2.390  12.002
79424W        W47642  13.224  18.888   1.194
79425W        W47643  42.310  41.014  14.438
79426W        W47644   5.329  43.674  12.462
79427W        W47645  22.687  21.506  13.432
79428W        W47646  36.858   5.089  12.422
79429W        W47647  35.789  23.603   3.255
79430W        W47648   2.089  42.804   0.921
79431W        W47649  20.133  20.083   1.760
79432W        W47650  33.594   1.219  14.798
79433W        W47651  10.447  34.969  12.086
79434W        W47652   3.154  34.899   4.127
79435W        W47653  19.347  37.595  11.452
79436W        W47654  37.786  12.283   0.430
79437W        W47655   1.707  17.994  12.908
79438W        W47656   7.476  24.437  12.979
79439W        W47657  41.215   3.692  14.709
79440W        W47658  30.174   3.772  12.215
79441W        W47659  36.790  43.671  13.281
79442W        W47660  10.693  33.228   0.879
79443W        W47661  39.558  13.085   4.573
79444W        W47662  34.514   9.934   1.859
79445W        W47663  40.942   1.159  11.997
79446W        W47664  12.769  13.217   0.840
79447W        W47665  12.560  41.124  11.394
79448W        W47666  30.021  43.994   3.115
79449W        W47667   3.885  28.579   0.503
79450W        W47668  32.855  17.641  14.899
79451W        W47669  21.086  37.622  10.235
79452W        W47670  31.474  32.385  10.979
79453W        W47671  21.221  15.133   4.585
79454W        W47672  29.464  13.155  11.600
79455W        W47673   5.363   8.714  11.179
79456W        W47674  11.931  23.287  11.003
79457W        W47675   8.202  14.118   5.342
79458W        W47676  34.048  31.836   2.343
79459W        W47677  12.401   2.669  11.094
79460W        W47678   4.472  26.791   0.969
79461W        W47679  13.187  34.419  12.949
79462W        W47680  19.061  17.788  10.805
79463W        W47681  12.852  19.961   2.360
79464W        W47682   9.620  26.017   3.431
79465W        W47683  40.061  37.268   3.682
79466W        W47684  13.664   0.078  11.673
79467W        W47685  36.850   5.817  11.849
79468W        W47686  29.934   9.556  13.819
79469W        W47687   3.888  14.114  13.152
79470W        W47688  15.675   8.273   0.854
79471W        W47689  27.642  44.794  10.746
79472W        W47690  19.874   0.531   1.827
79473W        W47691   8.248  37.895   2.221
79474W        W47692  27.856   3.724   2.962
79475W        W47693  35.060  42.566  12.350
79476W        W47694  27.635  11.716   2.313
79477W        W47695  28.058  25.008   3.707
79478W        W47696  43.548  41.723  12.876
79479W        W47697  16.274  43.830  13.472
79480W        W47698  33.358  11.225  11.820
79481W        W47699   1.658   3.348  12.199
79482W        W47700  13.374  35.154   4.111
79483W        W47701  31.793   7.624  13.187
79484W        W47702  40.078  29.494  12.745
79485W        W47703  33.609   7.278   3.602
79486W        W47704  30.598  15.577  11.966
79487W        W47705  33.389  27.084  14.315
79488W        W47706  31.347  13.799   3.631
79489W        W47707   3.603  16.886   1.990
79490W        W47708   1.818  28.647  14.548
79491W        W47709   0.281   3.734   0.516
79492W        W47710  42.695  34.619  14.082
79493W        W47711  34.453   8.251  13.997
79494W        W47712  15.321   6.072  14.863
79495W        W47713  31.872  18.169  12.712
79496W        W47714   8.503  42.747   4.665
79497W        W47715  26.997   0.963  14.721
79498W        W47716  40.609  29.080  11.635
79499W        W47717  37.335  33.457  12.463
79500W        W47718  21.864  26.872  14.154
79501W        W47719   5.336  29.150   4.222
79502W        W47720  42.957  43.617   0.160
79503W        W47721   0.309  38.073  12.067
79504W        W47722   1.703  11.334  10.943
79505W        W47723  32.959   2.263   4.266
79506W        W47724  25.533  12.945   0.007
79507W        W47725  20.331   8.676   0.051
79508W        W47726  41.718  13.697  14.652
79509W        W47727   8.587  29.473  14.812
79510W        W47728  23.794  12.216  13.222
79511W        W47729  11.219  10.381   2.078
79512W        W47730   0.755  32.001  11.537
79513W        W47731  12.901  41.225   4.163
79514W        W47732  28.160  32.951   4.232
79515W        W47733   5.444  19.532  12.527
79516W        W47734  37.260  18.083   0.964
79517W        W47735  13.410  15.542   0.857
79518W        W47736  25.773   5.254   2.230
79519W        W47737  36.579  40.284  11.627
79520W        W47738  21.766  15.183  14.781
79521W        W47739  25.997   3.207   1.909
79522W        W47740  30.629  35.997  12.850
79523W        W47741  23.139  41.474  12.109
79524W        W47742  19.388   3.472  11.176
79525W        W47743  15.890   1.287  10.943
79526W        W47744   2.677  21.180   1.296
79527W        W47745  30.864  10.182   0.853
79528W        W47746  32.425  22.175   0.516
79529W        W47747   9.025  30.373   1.515
79530W        W47748   8.149  16.801  14.433
79531W        W47749  12.417  18.660   2.699
79532W        W47750  29.335   9.160  11.991
79533W        W47751  20.232  43.764   1.944
79534W        W47752  13.777  12.383  13.098
79535W        W47753  11.841   6.441  12.888
79536W        W47754  23.389   6.819   0.710
79537W        W47755  16.732   6.873  11.236
79538W        W47756   1.949  39.085  12.053
79539W        W47757  32.053  24.982  12.459
79540W        W47758   1.978  35.208   1.385
79541W        W47759  39.830  27.785   4.105
79542W        W47760   4.812  11.569  14.598
79543W        W47761  21.612  13.060   2.743
79544W        W47762  28.672  35.802   1.331
79545W        W47763  19.882  41.260   1.819
79546W        W47764  27.850  12.648  10.102
79547W        W47765  35.668  44.367  12.476
79548W        W47766  30.313  20.223   2.412
79549W        W47767  31.338  12.538  14.700
79550W        W47768   8.378   3.962   4.577
79551W        W47769   8.880  22.791  13.514
79552W        W47770   3.225  44.118  12.099
79553W        W47771  21.040   1.904   3.533
79554W        W47772  42.380  21.600   4.590
79555W        W47773  32.211  26.964  10.709
79556W        W47774  12.745  42.337   3.383
79557W        W47775  44.463   8.646  10.648
79558W        W47776  40.411  33.686  13.520
79559W        W47777  27.548  42.514  14.331
79560W        W47778  18.644  41.435  14.381
79561W        W47779  16.148  24.937  14.351
79562W        W47780  15.600  27.166   0.743
79563W        W47781   1.078  35.777   4.090
79564W        W47782  24.971  38.477   3.682
79565W        W47783  19.129   1.722  14.757
79566W        W47784   5.718   0.935   0.828
79567W        W47785  36.521  22.478  13.962
79568W        W47786  32.918  25.700  14.794
79569W        W47787   5.476  42.467   2.796
79570W        W47788  43.301  24.667  14.785
79571W        W47789   8.911  22.154   1.454
79572W        W47790  16.136  42.934  14.735
79573W        W47791   9.519  34.364  12.289
79574W        W47792  16.141  28.236   1.444
79575W        W47793  13.349  39.595   1.816
79576W        W47794  15.791  32.415  14.360
79577W        W47795  39.466  13.594   0.068
79578W        W47796   0.795  24.609   4.224
79579W        W47797   8.379  20.829   1.275
79580W        W47798  32.422   2.276  10.408
79581W        W47799   5.160  12.900  14.048
79582W        W47800  41.689  17.655   0.663
79583W        W47801  17.782  31.577   0.673
79584W        W47802  43.222  39.943   1.351
79585W        W47803  24.147  34.132  14.616
79586W        W47804   8.459  29.570  13.552
79587W        W47805  39.631   9.738   4.438
79588W        W47806  30.185   2.721   3.248
79589W        W47807  11.692   6.672  11.035
79590W        W47808  25.386   3.492   4.700
79591W        W47809  35.422  22.980   4.485
79592W        W47810   0.943  35.408   1.459
79593W        W47811  38.051  16.339  14.785
79594W        W47812  24.538   3.840   0.002
79595W        W47813  10.269  35.849   4.879
79596W        W47814  38.283  24.702   2.811
79597W        W47815  13.160   5.538  11.233
79598W        W47816   6.068  14.890   4.477
79599W        W47817  20.088  31.465   1.350
79600W        W47818  43.797  42.833  14.828
79601W        W47819  27.002  13.777  13.429
79602W        W47820  34.373   3.129  13.832
79603W        W47821  35.515   3.209  14.716
79604W        W47822  13.278  27.658   0.398
79605W        W47823  14.395   3.645  11.540
79606W        W47824  38.892  35.604  11.530
79607W        W47825  14.782  37.738  12.326
79608W        W47826  26.982  31.448   0.987
79609W        W47827   3.310  41.381  14.780
79610W        W47828  43.113  34.702   0.544
79611W        W47829  16.538  36.307  14.882
79612W        W47830  16.293   6.438  11.931
79613W        W47831  38.519  39.822   1.849
79614W        W47832  25.511   8.347   2.346
79615W        W47833  39.329   7.970  12.000
79616W        W47834  25.344  41.484  14.345
79617W        W47835  18.470  24.051   3.309
79618W        W47836  13.043  27.255  13.333
79619W        W47837  29.751   8.259   2.765
79620W        W47838  43.480  13.049   3.578
79621W        W47839  34.786   6.612   0.960
79622W        W47840  18.172   7.863  13.772
79623W        W47841  12.116  19.570   1.757
79624W        W47842  35.862  42.669  14.477
79625W        W47843  39.955  20.653  11.207
79626W        W47844  16.500  35.773   2.143
79627W        W47845  31.055  39.350  12.819
79628W        W47846  15.903  32.409  12.350
79629W        W47847   5.919  32.475   1.216
79630W        W47848  22.557  42.928  14.709
79631W        W47849  41.316  41.854   4.110
79632W        W47850  34.517  29.621   3.809
79633W        W47851  28.959  43.475   4.558
79634W        W47852  39.626   5.518   4.213
79635W        W47853  12.250  22.238  13.245
79636W        W47854  13.588   6.450  11.575
79637W        W47855  23.068  40.117  14.495
79638W        W47856  28.028  32.224  11.912
79639W        W47857  34.582  42.014   2.751
79640W        W47858  38.487  19.729  14.960
79641W        W47859   8.435  40.306  11.560
79642W        W47860  35.338  21.708  12.356
79643W        W47861  43.319  41.928   1.383
79644W        W47862  12.696   9.633  12.564
79645W        W47863  16.575  42.503   4.164
79646W        W47864  34.129  41.780  13.621
79647W        W47865  39.865  11.389  13.427
79648W        W47866  14.228  22.648   3.160
79649W        W47867  27.689  37.962   1.237
79650W        W47868  17.135  24.943   3.678
79651W        W47869  19.093  33.834   1.802
79652W        W47870  39.269   0.904  13.638
79653W        W47871  37.086  41.397  14.822
79654W        W47872  18.943  29.998   1.768
79655W        W47873  11.407  33.928  11.115
79656W        W47874  20.326   9.281   4.237
79657W        W47875   5.247   4.779  13.807
79658W        W47876  22.171  33.513  12.518
79659W        W47877  41.785  31.393   2.818
79660W        W47878  14.716   8.604   3.168
79661W        W47879   7.910  30.933  13.397
79662W        W47880  18.324  41.921   4.212
79663W        W47881  30.865  40.972  13.968
79664W        W47882  19.246  17.685   4.601
79665W        W47883  24.072  36.434  10.902
79666W        W47884  12.294  30.034   1.545
79667W        W47885  25.639  17.177  10.337
79668W        W47886  26.911   9.932  14.699
79669W        W47887   1.689  31.264  13.799
79670W        W47888   2.822   4.178  12.404
79671W        W47889   8.152  36.101  11.693
79672W        W47890   0.528  29.605   3.590
79673W        W47891   9.889  14.677   3.329
79674W        W47892  13.061  37.169  14.455
79675W        W47893  37.633   5.146   2.251
79676W        W47894  28.987   2.114  11.955
79677W        W47895  43.267  44.243  13.404
79678W        W47896  24.802  10.922  13.970
79679W        W47897   8.718  31.249  14.394
79680W        W47898  17.065  27.144  13.909
79681W        W47899  26.904  14.580  11.484
79682W        W47900  27.221  25.356   1.030
79683W        W47901  39.813  43.729  12.033
79684W        W47902  39.823  11.650  11.574
79685W        W47903   8.410  32.690  11.563
79686W        W47904  23.742  34.695  12.478
79687W        W47905  37.319  30.551  11.349
79688W        W47906   9.164   8.326  11.414
79689W        W47907  44.012  34.926  14.904
79690W        W47908  23.042  11.735   3.167
79691W        W47909  30.692  35.310  12.463
79692W        W47910  22.658  27.411   0.661
79693W        W47911  32.154  18.515  12.436
79694W        W47912  43.464  19.333  13.468
79695W        W47913   9.748  27.724   2.301
79696W        W47914  14.364  10.333  14.781
79697W        W47915  23.749  20.164   1.857
79698W        W47916  40.508  18.993  14.298
79699W        W47917  15.674  15.894  13.666
79700W        W47918  42.052  22.242  13.942
79701W        W47919   7.294  23.772  13.639
79702W        W47920   5.657  35.939  11.483
79703W        W47921  37.733  43.908  11.180
79704W        W47922  26.036   9.553   2.235
79705W        W47923  31.090  25.089  14.021
79706W        W47924   0.334  20.060   2.320
79707W        W47925   7.481  16.576  11.260
79708W        W47926  38.241   7.793  11.147
79709W        W47927  26.109  37.558  13.482
79710W        W47928   7.296  18.582   1.870
79711W        W47929  27.241  12.722   3.418
79712W        W47930   3.933   1.923   0.263
79713W        W47931   1.764  38.531   4.806
79714W        W47932  23.979  16.642   2.596
79715W        W47933  15.674  41.482  12.363
79716W        W47934  12.342  30.621   0.541
79717W        W47935   8.203  41.386  11.231
79718W        W47936  25.431  33.192   3.649
79719W        W47937  41.440  44.189   0.452
79720W        W47938   2.721   4.805  12.374
79721W        W47939  30.477  24.409   3.405
79722W        W47940  20.251   7.357   1.915
79723W        W47941  30.554   1.796  13.440
79724W        W47942   7.449  36.394   4.654
79725W        W47943  34.990  18.208   2.045
79726W        W47944  14.847  36.912   0.397
79727W        W47945  26.537   2.394  10.614
79728W        W47946  33.958  30.986  12.631
79729W        W47947  39.508  17.298  14.864
79730W        W47948  42.283  42.850  14.974
79731W        W47949  40.088  16.315  14.024
79732W        W47950  11.106  44.281   1.410
79733W        W47951  31.990  41.513   2.591
79734W        W47952  15.289  33.115   2.777
79735W        W47953  38.930  35.283   4.651
79736W        W47954   4.266   1.198   1.302
79737W        W47955  40.530  43.219   2.108
79738W        W47956  16.455  32.147  13.920
79739W        W47957  25.561  35.387   1.728
79740W        W47958  34.461  13.250  14.340
79741W        W47959  26.098  13.233  12.570
79742W        W47960  18.730  37.806   0.811
79743W        W47961  44.012  27.317  11.886
79744W        W47962  30.260  39.515  13.700
79745W        W47963  23.549  12.740  11.907
79746W        W47964  36.938   6.738   4.155
79747W        W47965  17.430  20.429   4.575
79748W        W47966  17.078  23.063   1.940
79749W        W47967  13.277  44.268  11.219
79750W        W47968  25.151  26.731   3.739
79751W        W47969  39.353   8.417   1.805
79752W        W47970  42.075   8.681   3.845
79753W        W47971  20.942  14.325   4.148
79754W        W47972  25.896   1.218   4.210
79755W        W47973  10.790  38.862  11.662
79756W        W47974   9.852  17.109  12.189
79757W        W47975  34.582  10.447   1.800
79758W        W47976  32.366  18.125  13.553
79759W        W47977  42.881   6.915   1.166
79760W        W47978   3.968  36.500  14.790
79761W        W47979  14.187  20.729  14.449
79762W        W47980  42.884  20.968   1.723
79763W        W47981   6.042  29.066   4.726
79764W        W47982  33.968  42.413  12.902
79765W        W47983  31.773  10.167  13.485
79766W        W47984  34.585  23.196   4.801
79767W        W47985   7.237  36.401   2.276
79768W        W47986  18.883  34.640  11.089
79769W        W47987  30.992  24.682  13.708
79770W        W47988  38.781  38.057  12.432
79771W        W47989   3.008  17.245   0.274
79772W        W47990   0.793   0.996  13.319
79773W        W47991  12.652  29.551   4.196
79774W        W47992  18.786  41.561  11.214
79775W        W47993   9.736  26.102   2.213
79776W        W47994  40.661  23.197  11.132
79777W        W47995  27.603  40.778  14.891
79778W        W47996   5.042  23.626  13.902
79779W        W47997  35.081  15.288  14.913
79780W        W47998   2.639  11.050   2.616
79781W        W47999  31.576  36.147   4.930
79782W        W48000   4.545   9.766  14.777
79783W        W48001  36.569  34.648  13.901
79784W        W48002  30.357   1.869  10.632
79785W        W48003  19.047  25.233  11.660
79786W        W48004  34.828  28.247  11.170
79787W        W48005  11.979   5.826   0.452
79788W        W48006  12.294   3.417  14.367
79789W        W48007  34.437  32.755  12.509
79790W        W48008  13.725  11.930  10.387
79791W        W48009  40.637  31.834   0.851
79792W        W48010  34.125  44.917  12.946
79793W        W48011  36.277  19.300   4.285
79794W        W48012  28.953  36.140   1.617
79795W        W48013  39.142  10.479  10.617
79796W        W48014  31.478  18.115  10.967
79797W        W48015  38.832  41.124   2.696
79798W        W48016   6.641  28.114  10.971
79799W        W48017  17.356  40.217   1.869
79800W        W48018  31.402  26.251   1.775
79801W        W48019  43.383  35.689   4.961
79802W        W48020  16.566  20.273  13.421
79803W        W48021   8.222   5.915   1.018
79804W        W48022  14.295  31.349   4.910
79805W        W48023  40.268  32.597  13.888
79806W        W48024   7.622  36.618   3.183
79807W        W48025   6.728   2.960   3.244
79808W        W48026  41.476  31.447   4.133
79809W        W48027   6.695  33.165  13.083
79810W        W48028  36.602  38.781   1.916
79811W        W48029  36.470  11.607   4.642
79812W        W48030   7.415  32.108  13.032
79813W        W48031  28.685  18.860  10.963
79814W        W48032   5.470  17.744   4.657
79815W        W48033  43.252  43.573   1.864
79816W        W48034  30.431  40.739   0.796
79817W        W48035  28.086  10.798  14.852
79818W        W48036  23.163  36.062   2.872
79819W        W48037  26.291  39.136   1.181
79820W        W48038  22.764  19.906  13.383
79821W        W48039  11.113  44.239   3.419
79822W        W48040   9.352  11.180   4.329
79823W        W48041  19.489   9.744   0.876
79824W        W48042  22.035   5.434   2.371
79825W        W48043  38.091  30.617  14.294
79826W        W48044  31.782   1.152   2.715
79827W        W48045  38.120  33.445   3.248
79828W        W48046   8.941  26.146   2.684
79829W        W48047  35.589   6.896   2.265
79830W        W48048  44.298  17.711  11.426
79831W        W48049   2.787  32.953  13.460
79832W        W48050  29.455  18.709  10.328
79833W        W48051  19.353  17.570   3.480
79834W        W48052  44.802  35.832  13.624
79835W        W48053  39.904   9.911  13.319
79836W        W48054  41.654  35.423  12.165
79837W        W48055  13.286   3.793  13.348
79838W        W48056  38.430  10.930   3.773
79839W        W48057  18.695  40.796  11.609
79840W        W48058  33.840  19.534   1.679
79841W        W48059   2.437  34.482  14.070
79842W        W48060   9.443   4.209  11.578
79843W        W48061  29.846   5.800   2.308
79844W        W48062  32.172  44.312   3.708
79845W        W48063   6.834  39.774  11.012
79846W        W48064  18.206  24.748  13.438
79847W        W48065  15.423  35.613   2.511
79848W        W48066  26.089   1.833  11.457
79849W        W48067  26.456  30.598   1.923
79850W        W48068  44.200   7.073  14.321
79851W        W48069  32.817  41.861  12.434
79852W        W48070   0.466  12.020   3.676
79853W        W48071  34.531   0.358   1.305
79854W        W48072  25.763  10.252  10.680
79855W        W48073  21.059  23.937   0.774
79856W        W48074  11.303  36.590  12.922
79857W        W48075  29.896  39.538   3.227
79858W        W48076   9.921  17.859  12.925
79859W        W48077  35.407  35.310   0.950
79860W        W48078   0.631  44.271   0.266
79861W        W48079  12.863  21.219   1.858
79862W        W48080  18.587  22.506   0.535
79863W        W48081  42.519  43.233   4.496
79864W        W48082  42.822  44.359   3.104
79865W        W48083  43.523  17.264  12.394
79866W        W48084   4.794  15.618  12.156
79867W        W48085  39.206  13.086   2.270
79868W        W48086  40.534  28.821   1.261
79869W        W48087   8.119  40.015   4.187
79870W        W48088   4.240  43.057   3.982
79871W        W48089  39.344  37.284   1.572
79872W        W48090  39.836  30.081  11.983
79873W        W48091   4.652   5.746  13.201
79874W        W48092  18.062  21.238   1.476
79875W        W48093  40.734  37.613  14.465
79876W        W48094  33.653  24.222   1.170
79877W        W48095  15.785  25.494  14.789
79878W        W48096   2.919   6.127  10.975
79879W        W48097  30.559   6.334  12.826
79880W        W48098   5.359  22.060   0.204
79881W        W48099  14.414   0.959  10.789
79882W        W48100  39.399  32.330   2.724
79883W        W48101  24.252  16.339   2.893
79884W        W48102  34.388  19.803   4.380
79885W        W48103  23.565  41.497  12.428
79886W        W48104  29.020  17.393   5.050
79887W        W48105  16.193  28.578   4.539
79888W        W48106  19.080   6.674   2.217
79889W        W48107   6.535  32.240   2.757
79890W        W48108  32.484  11.772  11.712
79891W        W48109  37.033  27.109  11.944
79892W        W48110  44.065  37.100   2.412
79893W        W48111  30.684   0.376   1.774
79894W        W48112  43.763  25.680  11.988
79895W        W48113  30.659  40.227   1.159
79896W        W48114  11.145   8.758  13.084
79897W        W48115   0.306  37.598  13.510
79898W        W48116  44.281  35.336  14.794
79899W        W48117  14.653   8.202  14.844
79900W        W48118  33.084  23.730  13.525
79901W        W48119  10.662   8.123   2.645
79902W        W48120  27.133  23.241   4.119
79903W        W48121  11.033  33.888  12.050
79904W        W48122  15.679   6.248  11.904
79905W        W48123  18.860  31.614  12.003
79906W        W48124  15.260   6.248   2.914
79907W        W48125   9.664  35.613   1.352
79908W        W48126  33.151   9.754  10.760
79909W        W48127   0.289  26.017  12.555
79910W        W48128  35.157  17.742  13.266
79911W        W48129  12.746  20.693   1.865
79912W        W48130   3.515  35.906  13.371
79913W        W48131  20.113  24.694   4.687
79914W        W48132   0.672   2.705   1.477
79915W        W48133   4.317   1.064   4.101
79916W        W48134  37.631  22.973  11.031
79917W        W48135  36.393   1.034  14.456
79918W        W48136  32.973  11.608   1.432
79919W        W48137  41.826   6.205  13.973
79920W        W48138  41.865  42.244  11.695
79921W        W48139   1.923  23.330   0.741
79922W        W48140   2.468  15.250  14.299
79923W        W48141  20.961   7.673  13.515
79924W        W48142  44.105  33.489   0.912
79925W        W48143  20.045  18.609  12.906
79926W        W48144   7.927  38.340   2.803
79927W        W48145  18.101  15.681  11.155
79928W        W48146   0.913  34.665  12.624
79929W        W48147  40.524  26.417   1.817
79930W        W48148   9.662  18.663   3.722
79931W        W48149   9.271  42.423  11.895
79932W        W48150  30.109  26.308   2.772
79933W        W48151  16.640  42.386  14.248
79934W        W48152  25.507   5.667   3.250
79935W        W48153   5.736  40.918  11.010
79936W        W48154  10.115  22.504   4.564
79937W        W48155   3.306  18.135   3.690
79938W        W48156  36.161  26.424  12.463
79939W        W48157  36.996  23.769  12.936
79940W        W48158  10.597  17.134  13.696
79941W        W48159  40.052  25.673  13.081
79942W        W48160  18.953  38.951   3.145
79943W        W48161  38.593  25.882  10.723
79944W        W48162  43.892  27.401  12.521
79945W        W48163  16.641   6.027  13.459
79946W        W48164  14.694  26.020  11.623
79947W        W48165  38.126  17.092  11.146
79948W        W48166  34.904  42.936   4.647
79949W        W48167  21.315  16.790  14.959
79950W        W48168  18.480  12.572   4.928
79951W        W48169  43.222   7.674  14.997
79952W        W48170   6.529  44.067   5.101
79953W        W48171  25.567  35.590  14.046
79954W        W48172  26.596   4.752   1.496
79955W        W48173   6.239  38.939   2.383
79956W        W48174   3.812  13.090   4.741
79957W        W48175  37.499  10.725  14.315
79958W        W48176  35.841  32.143   0.493
79959W        W48177  10.921  19.737  12.976
79960W        W48178  33.924  34.890   4.762
79961W        W48179  12.872   0.374   1.883
79962W        W48180  29.512  12.909   0.378
79963W        W48181  12.607  29.941  11.536
79964W        W48182  21.297  29.090   2.887
79965W        W48183  41.963  28.018   2.487
79966W        W48184  43.906  18.629  13.590
79967W        W48185   9.827  13.205  12.072
79968W        W48186   4.597   5.474   0.390
79969W        W48187  12.805  32.044  12.157
79970W        W48188  30.558   7.410   1.900
79971W        W48189  26.163  24.149   1.328
79972W        W48190  42.509   2.419  11.597
79973W        W48191   9.390  35.010  12.964
79974W        W48192  15.758  22.216  12.112
79975W        W48193  42.593   1.422  12.956
79976W        W48194  35.610   2.454   2.758
79977W        W48195  20.453  18.204  14.884
79978W        W48196  17.528   4.760  11.703
79979W        W48197  13.669  36.867  12.876
79980W        W48198   6.715  34.011   1.839
79981W        W48199  27.539  40.058   3.312
79982W        W48200  13.581  22.718  11.950
79983W        W48201   4.701  12.340   2.755
79984W        W48202  43.493  19.495   4.118
79985W        W48203  44.205  28.939  12.954
79986W        W48204  42.983  34.497   3.502
79987W        W48205  25.625  22.622  11.841
79988W        W48206  10.635  41.972  13.483
79989W        W48207   0.258  23.279  12.325
79990W        W48208  19.601  26.067   4.845
79991W        W48209  33.990  39.898  11.195
79992W        W48210  11.227  29.856  13.852
79993W        W48211   4.505  34.465  14.472
79994W        W48212  12.327  18.377   1.449
79995W        W48213  15.720   2.320   3.800
79996W        W48214   3.759  39.271  10.622
79997W        W48215   0.763  16.891  12.530
79998W        W48216  37.186  15.044  11.921
79999W        W48217  41.217  27.085  13.358
80000W        W48218  26.656   0.744   0.367
80001W        W48219  26.162   5.752   0.896
80002W        W48220  40.970  14.575  11.133
80003W        W48221   8.449   8.969  13.429
80004W        W48222  11.283  13.810  12.038
80005W        W48223   3.271  20.599  11.576
80006W        W48224  14.700   5.478  11.646
80007W        W48225  38.515  35.841   0.628
80008W        W48226   5.395   6.610   1.890
80009W        W48227   7.013  40.519   3.794
80010W        W48228  28.926  29.268   0.904
80011W        W48229  43.365  30.913   2.800
80012W        W48230  21.793  34.419   2.253
80013W        W48231  35.165   8.012  12.336
80014W        W48232  37.884   3.010   1.299
80015W        W48233  22.404   1.721  13.610
80016W        W48234  27.931  40.977   3.254
80017W        W48235  44.521  16.646   0.430
80018W        W48236  14.774   9.904   4.143
80019W        W48237  39.835  36.748   3.803
80020W        W48238  38.289  20.654   0.743
80021W        W48239   5.359  26.756  10.995
80022W        W48240   1.215  19.253   3.568
80023W        W48241  13.733  12.914   0.412
80024W        W48242  16.715   8.940   3.127
80025W        W48243   8.359  42.728   3.561
80026W        W48244  44.214   9.353  13.336
80027W        W48245  27.342  13.403  10.245
80028W        W48246  33.200   9.678   4.809
80029W        W48247  15.143  20.523  12.014
80030W        W48248  15.633  25.984   3.236
80031W        W48249   0.047   7.085  11.248
80032W        W48250   7.717  32.744   0.391
80033W        W48251  18.305  14.163  11.210
80034W        W48252  37.547  13.801   4.971
80035W        W48253  17.395   5.184  13.587
80036W        W48254   1.772  40.920  11.649
80037W        W48255  38.140  11.866  14.709
80038W        W48256  30.534  27.751   0.827
80039W        W48257   5.784  29.328  11.515
80040W        W48258  12.763  31.046   1.241
80041W        W48259  35.965  13.298   3.313
80042W        W48260   8.343   1.755   1.032
80043W        W48261   3.918  30.542  13.080
80044W        W48262  41.199  32.061  10.129
80045W        W48263  32.142  37.541  11.273
80046W        W48264   5.854  10.772  14.002
80047W        W48265  38.134  18.469   1.878
80048W        W48266  12.324  29.148   2.492
80049W        W48267  29.691  35.611   3.663
80050W        W48268   2.734  37.355  14.077
80051W        W48269   8.249   8.871   4.105
80052W        W48270  13.781  30.242   4.061
80053W        W48271  20.683  13.517   3.643
80054W        W48272   2.318  12.683   2.280
80055W        W48273  13.865   0.369   1.564
80056W        W48274  20.567  35.433   2.769
80057W        W48275  18.085  11.275  11.667
80058W        W48276   8.270  34.868   4.992
80059W        W48277  40.374   8.863   0.791
80060W        W48278  44.933  25.162  11.922
80061W        W48279   9.740  10.834   4.252
80062W        W48280  21.566   4.533   1.970
80063W        W48281  37.928   0.746  12.047
80064W        W48282   5.838  20.088   4.653
80065W        W48283  41.335  28.185   0.399
80066W        W48284  28.656   2.505   3.813
80067W        W48285   6.323  36.031  11.152
80068W        W48286  41.865  44.299   0.707
80069W        W48287  44.648  18.090   4.784
80070W        W48288  14.826  33.501  13.863
80071W        W48289   3.252   6.811  11.907
80072W        W48290  22.966  29.919  12.977
80073W        W48291  28.891  32.683   2.846
80074W        W48292  29.997  18.201  13.071
80075W        W48293  32.878  26.242   1.902
80076W        W48294  38.733  22.488  13.398
80077W        W48295   0.439  28.302   1.809
80078W        W48296   9.509  11.593   4.601
80079W        W48297  10.525  16.267  10.953
80080W        W48298  10.718   4.109  13.727
80081W        W48299   4.860  20.357  12.027
80082W        W48300  31.906  44.932   4.757
80083W        W48301   1.408  28.489  11.116
80084W        W48302  25.982   2.080   2.962
80085W        W48303  14.238  33.070  14.499
80086W        W48304  27.924  34.341   3.631
80087W        W48305  38.022   0.498  13.996
80088W        W48306  41.251  17.156  14.365
80089W        W48307  13.699  20.513  11.561
80090W        W48308  40.917   5.454  11.479
80091W        W48309  14.707  29.164  14.227
80092W        W48310  14.682  18.524  13.860
80093W        W48311   0.513  12.089  10.435
80094W        W48312   1.227  39.124  14.878
80095W        W48313   4.620   0.171   0.364
80096W        W48314  29.724  14.420  11.990
80097W        W48315  35.206  15.779  14.259
80098W        W48316  15.996  32.343   0.791
80099W        W48317   3.854  22.623   0.254
80100W        W48318  42.594  16.657   2.793
80101W        W48319  44.036   7.907   2.133
80102W        W48320   4.655  32.579  14.064
80103W        W48321  23.837  35.975  13.751
80104W        W48322  24.616  23.867  11.111
80105W        W48323   5.989  19.708  12.543
80106W        W48324  19.738  15.868  11.972
80107W        W48325  42.903  28.765   3.584
80108W        W48326  30.437  20.632  11.427
80109W        W48327   1.758  23.725  11.633
80110W        W48328  21.553  22.162   0.306
80111W        W48329  27.831  37.626   9.794
80112W        W48330  13.636  28.156  12.206
80113W        W48331  19.278  11.016   3.417
80114W        W48332  43.001   0.789  14.093
80115W        W48333   7.833  44.659  14.440
80116W        W48334  11.824  25.097   0.456
80117W        W48335  28.394  13.283  13.538
80118W        W48336   7.881  18.578  10.311
80119W        W48337  23.532  27.807  11.320
80120W        W48338  11.022  39.051  10.351
80121W        W48339  23.544  25.462  12.371
80122W        W48340   8.876  15.153  14.661
80123W        W48341  43.528  24.167   3.269
80124W        W48342  32.603  34.041  12.586
80125W        W48343   0.896  41.818   0.252
80126W        W48344  15.318  10.646   4.056
80127W        W48345  24.510  38.394   1.674
80128W        W48346   7.026  38.780   1.162
80129W        W48347  43.688  40.095   4.056
80130W        W48348  16.548  34.089  13.488
80131W        W48349  16.308  33.202  10.415
80132W        W48350   2.295  37.280  12.407
80133W        W48351  29.422  33.547  10.747
80134W        W48352   7.021   9.821   0.772
80135W        W48353  13.119   3.179   4.611
80136W        W48354  24.648   2.890  11.015
80137W        W48355  41.372  34.430  12.693
80138W        W48356  20.278  33.460   5.557
80139W        W48357  10.884  13.774   1.394
80140W        W48358  38.529  32.432  11.328
80141W        W48359  11.709   5.169  11.202
80142W        W48360  11.789  37.524  10.517
80143W        W48361   6.158   0.326  10.961
80144W        W48362  40.001  44.308  14.214
80145W        W48363  29.697   1.329  13.161
80146W        W48364  41.865  17.856   3.890
80147W        W48365   9.694  34.049  11.403
80148W        W48366  15.300  21.138   4.413
80149W        W48367  30.185  30.855   2.432
80150W        W48368  11.682   0.057  11.248
80151W        W48369  10.602   2.306  12.210
80152W        W48370  11.757  29.525  14.956
80153W        W48371  19.263  40.063   4.206
80154W        W48372  16.125   5.638  14.993
80155W        W48373  17.740  19.082  11.626
80156W        W48374  13.859  19.112  11.597
80157W        W48375  30.906  20.926   2.721
80158W        W48376  35.752  42.712   5.062
80159W        W48377  31.413  25.669   4.237
80160W        W48378  29.035  32.205   5.027
80161W        W48379  41.832  43.983  14.914
80162W        W48380   3.726  16.650   0.412
80163W        W48381  26.096  43.792  13.022
80164W        W48382  20.694  17.283   3.789
80165W        W48383  26.144  11.770  12.602
80166W        W48384  26.022  13.735  10.150
80167W        W48385  20.124  34.689  11.113
80168W        W48386  34.027  32.501  12.652
80169W        W48387   3.323  30.535  12.340
80170W        W48388  29.884  38.274   3.261
80171W        W48389  36.788   2.764  11.519
80172W        W48390   6.657  12.336   2.705
80173W        W48391  37.313  33.533  10.307
80174W        W48392  21.975   9.846  11.870
80175W        W48393  39.709  39.793  13.058
80176W        W48394  34.173  30.543  13.968
80177W        W48395  42.305  14.939  10.761
80178W        W48396  38.519  25.087   1.907
80179W        W48397   4.439  37.184  14.260
80180W        W48398  44.346  13.394   3.351
80181W        W48399  37.473  11.741  11.905
80182W        W48400   9.270   3.347  14.668
80183W        W48401   0.841  18.081  12.779
80184W        W48402   1.419  40.187  14.764
80185W        W48403  17.045   1.412   5.151
80186W        W48404  24.576  26.138  12.201
80187W        W48405  43.216   7.219  10.163
80188W        W48406   6.596  35.515  12.009
80189W        W48407  29.308  36.359  11.034
80190W        W48408  34.906  34.653   2.416
80191W        W48409   0.198  10.950   5.037
80192W        W48410   7.670  22.719   0.862
80193W        W48411  39.476  31.371   3.658
80194W        W48412   4.712  14.169  11.035
80195W        W48413  33.868  16.571   4.173
80196W        W48414  11.805  12.257   2.412
80197W        W48415  17.837  30.627  11.045
80198W        W48416   6.560  11.466  14.911
80199W        W48417  24.264  41.277  10.354
80200W        W48418  32.500   0.996  11.978
80201W        W48419  41.686  32.837  11.194
80202W        W48420  12.148  29.991  11.911
80203W        W48421  41.319  23.983  13.076
80204W        W48422  13.906  20.421   3.077
80205W        W48423  42.669  15.054  12.057
80206W        W48424  28.082  29.667  14.836
80207W        W48425  21.099   6.315   1.744
80208W        W48426  20.300  18.594   4.374
80209W        W48427  17.375   4.803  11.035
80210W        W48428   1.242  23.694  11.544
80211W        W48429  29.180  17.993   4.698
80212W        W48430  28.194  41.380   4.077
80213W        W48431  38.528  38.743  11.671
80214W        W48432  21.239  41.912   4.368
80215W        W48433  18.974  24.121   3.136
80216W        W48434  19.131   4.275  12.588
80217W        W48435  22.444  11.634   5.023
80218W        W48436   7.335  39.552   3.310
80219W        W48437  12.726  37.773   2.007
80220W        W48438  17.849  39.558   2.256
80221W        W48439  40.756  14.223  12.880
80222W        W48440   5.534  27.552  10.643
80223W        W48441  16.625  11.813  13.818
80224W        W48442   8.197  38.778   0.919
80225W        W48443  41.767   7.101  14.377
80226W        W48444  15.343  15.009  14.991
80227W        W48445  40.427  29.422   1.402
80228W        W48446  12.779  29.549   0.240
80229W        W48447   9.258  32.451  10.484
80230W        W48448  37.762  11.715  13.238
80231W        W48449  27.487  44.301  13.839
80232W        W48450  22.135  23.274  12.935
80233W        W48451  25.175  42.202   4.120
80234W        W48452   2.728  19.588  11.115
80235W        W48453  10.901   7.283   3.563
80236W        W48454  39.126   2.208  11.838
80237W        W48455  19.059  20.689  11.495
80238W        W48456  41.464  27.650   0.435
80239W        W48457  35.942  11.364   2.384
80240W        W48458  23.192  42.778  12.027
80241W        W48459  30.913  39.420  10.625
80242W        W48460  30.945  13.279   1.452
80243W        W48461  27.172  19.697  13.289
80244W        W48462  22.689  25.383   4.946
80245W        W48463  32.436  42.484  13.913
80246W        W48464   5.281  43.937  10.821
80247W        W48465  24.397   0.677   1.940
80248W        W48466   6.311  23.636  14.545
80249W        W48467  34.019  25.091   4.401
80250W        W48468  41.584  13.811  11.913
80251W        W48469  36.217   6.309  12.618
80252W        W48470   6.895  27.238   4.321
80253W        W48471  10.589  28.493  14.165
80254W        W48472  30.589  44.918   2.410
80255W        W48473  33.772  22.109  14.951
80256W        W48474  35.089  24.877  11.987
80257W        W48475  36.357   8.800  14.392
80258W        W48476  39.372  21.660   0.817
80259W        W48477   0.448  10.848   2.951
80260W        W48478   1.484  11.671  11.964
80261W        W48479  13.460  17.741  10.651
80262W        W48480   5.186  37.522   1.306
80263W        W48481  18.064   1.639  11.875
80264W        W48482  39.816  27.518   4.578
80265W        W48483  25.625  10.819   0.462
80266W        W48484  14.255  12.025   4.885
80267W        W48485   0.248  18.713   4.496
80268W        W48486  41.431  32.582   3.146
80269W        W48487  13.606  26.961  13.453
80270W        W48488  37.476  22.780  12.807
80271W        W48489  28.594  12.238   1.810
80272W        W48490   1.521  24.019   0.315
80273W        W48491  32.732  39.959  13.461
80274W        W48492  37.333  20.249  13.299
80275W        W48493   0.874  25.474  14.009
80276W        W48494  15.147  22.029   1.842
80277W        W48495  10.269   0.925   2.914
80278W        W48496  16.559  17.162   1.638
80279W        W48497  25.825  27.557   1.965
80280W        W48498   2.073  30.986  13.962
80281W        W48499  30.624  29.387  14.383
80282W        W48500  10.528   6.142  13.800
80283W        W48501  20.764  31.866  14.674
80284W        W48502   5.113  18.714  12.961
80285W        W48503  41.376  16.669   3.581
80286W        W48504   3.604  13.716  13.336
80287W        W48505  15.881  29.007   4.440
80288W        W48506  23.595  27.555   4.159
80289W        W48507  44.574  31.818   0.261
80290W        W48508   9.253   0.747   1.021
80291W        W48509   5.221  16.193   2.885
80292W        W48510  16.467  11.207   1.530
80293W        W48511  16.241  27.006   2.212
80294W        W48512  41.751  11.627   2.907
80295W        W48513  41.855  17.858  12.454
80296W        W48514  41.569   0.368  11.504
80297W        W48515  20.197  33.345   3.782
80298W        W48516  39.783  34.072   3.023
80299W        W48517  11.628  12.669   2.684
80300W        W48518   7.678  28.714  10.266
80301W        W48519   6.412  41.066   0.354
80302W        W48520   2.802  22.615  12.908
80303W        W48521   6.422  43.720   5.471
80304W        W48522   8.846  35.586   4.823
80305W        W48523  11.155  39.345   2.846
80306W        W48524  21.253   9.560  14.306
80307W        W48525  43.514   1.810  13.748
80308W        W48526  39.571  36.319   3.974
80309W        W48527  31.369  25.468   0.694
80310W        W48528  43.445   9.694   1.290
80311W        W48529   7.874   1.339   4.366
80312W        W48530  14.785  43.431   0.852
80313W        W48531  24.207  24.852   1.312
80314W        W48532  20.234  24.884  12.473
80315W        W48533  15.679  14.524   3.657
80316W        W48534  30.057  42.052  11.077
80317W        W48535  14.034  36.383  11.846
80318W        W48536  28.383  36.977   1.839
80319W        W48537  29.912  12.859   0.720
80320W        W48538  32.150  24.271  11.173
80321W        W48539  32.516  20.797  11.924
80322W        W48540  36.377  21.215  10.668
80323W        W48541  36.545  23.592   0.754
80324W        W48542  23.812  24.481  12.366
80325W        W48543  33.762  25.578   2.852
80326W        W48544  14.554  30.963  12.668
80327W        W48545  16.806   4.470   4.102
80328W        W48546  16.764  34.975   0.608
80329W        W48547  16.008  38.862   2.771
80330W        W48548  15.320  23.836   2.893
80331W        W48549   4.524  15.124   3.713
80332W        W48550  18.775  30.367   0.307
80333W        W48551   1.474  28.586   1.306
80334W        W48552  12.075  17.479  14.857
80335W        W48553  41.435  33.863  10.536
80336W        W48554  24.497  28.406   0.372
80337W        W48555   6.255  41.035  11.155
80338W        W48556  20.926  26.290  12.690
80339W        W48557  14.802  27.099   2.771
80340W        W48558  26.823  42.430  12.088
80341W        W48559  37.624  25.261   3.814
80342W        W48560   3.337  38.393   4.430
80343W        W48561  40.414  38.016  14.572
80344W        W48562  12.956   7.603  14.923
80345W        W48563  24.175  32.540  13.800
80346W        W48564  34.084   8.857   4.243
80347W        W48565   4.308  34.553  11.832
80348W        W48566  34.594  29.000  12.622
80349W        W48567   3.786   1.026  12.137
80350W        W48568  11.451   8.319  13.398
80351W        W48569  32.922  36.346   0.956
80352W        W48570  22.293   8.314  11.906
80353W        W48571  39.791  26.563  14.463
80354W        W48572   4.639  31.702  13.516
80355W        W48573  41.485  17.665   1.621
80356W        W48574  41.770  41.840  12.484
80357W        W48575  43.212  17.482   4.132
80358W        W48576  35.139  25.669  11.388
80359W        W48577  41.311   5.456  14.954
80360W        W48578  17.079   3.479  13.371
80361W        W48579  40.794   5.683   0.751
80362W        W48580   6.254  12.821  14.811
80363W        W48581  37.597  13.122   3.689
80364W        W48582  34.485  32.096   3.222
80365W        W48583   8.315  34.575   1.033
80366W        W48584  12.440   5.003   1.779
80367W        W48585  32.466   3.986   0.937
80368W        W48586  39.541  26.746  14.982
80369W        W48587  20.982  32.685  14.230
80370W        W48588  12.828  42.645  14.722
80371W        W48589  18.186   8.442  10.362
80372W        W48590  23.489  43.804   4.453
80373W        W48591  35.120  11.029  14.493
80374W        W48592   3.460  36.637  13.827
80375W        W48593  32.944   0.990   4.035
80376W        W48594   8.619  43.313  13.991
80377W        W48595  28.955  37.379   1.788
80378W        W48596  30.483  14.755   4.062
80379W        W48597   2.042  10.454  12.636
80380W        W48598  13.609  33.432  14.854
80381W        W48599  14.446  30.416  11.870
80382W        W48600  31.041  34.432   1.246
80383W        W48601   4.362  25.827  12.985
80384W        W48602  10.257  36.352  12.891
80385W        W48603   0.822  14.204  10.786
80386W        W48604  41.511   5.787  13.836
80387W        W48605  26.939  26.471  14.911
80388W        W48606  43.622   9.797  14.731
80389W        W48607  40.939  42.971  12.899
80390W        W48608  28.145  27.891   0.522
80391W        W48609  40.886  16.545  12.016
80392W        W48610   3.911  15.612   2.044
80393W        W48611  36.191  21.276  11.493
80394W        W48612  35.891  19.626  12.408
80395W        W48613  21.528  44.979  14.878
80396W        W48614   6.077  44.398  10.981
80397W        W48615  11.296  34.408  11.226
80398W        W48616  34.394  20.695   2.183
80399W        W48617  28.273  39.684  12.962
80400W        W48618  13.684  27.070   1.799
80401W        W48619  35.383   3.568   2.025
80402W        W48620   8.224  11.835  13.389
80403W        W48621  37.485  28.329   3.876
80404W        W48622  37.489  21.332  11.251
80405W        W48623  42.190  20.252   1.303
80406W        W48624  31.750   1.207  11.647
80407W        W48625  37.114   1.055  13.261
80408W        W48626  27.670  18.977  11.189
80409W        W48627   1.767  38.321  11.685
80410W        W48628  28.686  11.462  14.995
80411W        W48629   0.609  15.329  12.587
80412W        W48630   3.721  12.594   4.977
80413W        W48631  24.667   6.154   2.483
80414W        W48632  31.050   3.789   2.276
80415W        W48633   0.432  25.209  14.090
80416W        W48634  31.943  19.335   2.816
80417W        W48635  34.669   0.417  13.777
80418W        W48636  37.797   1.950   2.679
80419W        W48637   7.755  40.257   4.463
80420W        W48638   4.738  39.262   1.361
80421W        W48639  38.108  44.142  10.838
80422W        W48640   1.663   5.863   0.722
80423W        W48641  14.814  26.665   3.068
80424W        W48642  25.153  29.547  13.825
80425W        W48643  40.479  18.036   4.578
80426W        W48644  42.143  36.145   4.507
80427W        W48645  22.394  41.555  13.880
80428W        W48646  40.026  18.055  11.257
80429W        W48647  31.582  30.443   2.150
80430W        W48648  18.346  31.419   4.626
80431W        W48649   1.551  32.703  12.054
80432W        W48650  35.817  31.587  11.759
80433W        W48651  41.810  34.897   3.396
80434W        W48652   1.136   2.735  14.155
80435W        W48653  19.932  31.538  14.673
80436W        W48654  43.595  29.886  11.536
80437W        W48655  19.281  44.333  14.962
80438W        W48656  13.136  27.134   2.265
80439W        W48657   2.131  34.826  13.875
80440W        W48658  13.393   3.463  10.860
80441W        W48659   5.870  40.225   1.259
80442W        W48660  37.822  21.481   1.084
80443W        W48661  35.567  10.961  14.809
80444W        W48662   8.745  12.391   3.224
80445W        W48663  30.672   6.810   5.275
80446W        W48664  40.898   0.425  10.333
80447W        W48665  35.476  20.537   0.297
80448W        W48666   7.425   7.728   1.244
80449W        W48667  12.971  13.565   3.000
80450W        W48668  40.485  22.224   2.380
80451W        W48669  16.591  30.485   0.331
80452W        W48670   1.749   4.851   1.444
80453W        W48671  15.171  13.930   2.388
80454W        W48672  29.522  16.597   2.624
80455W        W48673   6.324  27.740   2.428
80456W        W48674  35.775   8.228   0.663
80457W        W48675  26.097  21.483  12.076
80458W        W48676  18.209  34.509  13.040
80459W        W48677   3.506   0.416   4.345
80460W        W48678  39.940  27.864   4.961
80461W        W48679  15.589  13.806  11.434
80462W        W48680  18.005   2.819  11.166
80463W        W48681  36.349  22.046   0.440
80464W        W48682  35.970  16.826  12.010
80465W        W48683   9.931  39.831  13.627
80466W        W48684  22.553  17.294   1.351
80467W        W48685   0.318   5.505   4.134
80468W        W48686  35.204  33.538   0.106
80469W        W48687  34.628  32.467   4.716
80470W        W48688  27.391  41.807   4.373
80471W        W48689  31.088   5.602  12.675
80472W        W48690  42.411   3.958  14.868
80473W        W48691  11.834  23.066  11.467
80474W        W48692  13.376   2.970   2.613
80475W        W48693  27.512  10.731   2.065
80476W        W48694  39.462  30.454   1.777
80477W        W48695  14.057  13.592  10.686
80478W        W48696   1.790   8.105  14.079
80479W        W48697  43.555  22.324  11.519
80480W        W48698  37.823  31.559  13.974
80481W        W48699  40.688   6.692   3.217
80482W        W48700   2.676  16.709   4.219
80483W        W48701  28.025  34.171  11.393
80484W        W48702   0.919  12.286   2.301
80485W        W48703  15.655  17.324  10.621
80486W        W48704  33.319  17.366  13.613
80487W        W48705   8.658  40.438  12.623
80488W        W48706   6.282  23.166  14.782
80489W        W48707  12.374  43.710  11.256
80490W        W48708  18.681  11.685   0.147
80491W        W48709  35.528  27.750  11.411
80492W        W48710  44.539  12.203   0.649
80493W        W48711  19.627  34.026   3.853
80494W        W48712  11.677  10.436   4.633
80495W        W48713  13.024  17.673  14.933
80496W        W48714  40.706  41.351   3.250
80497W        W48715  37.984  33.952   3.064
80498W        W48716   2.449  15.806   4.552
80499W        W48717  14.876  33.858  11.995
80500W        W48718   2.417  26.905   1.287
80501W        W48719   0.454  38.091  13.979
80502W        W48720  31.031  28.113   1.781
80503W        W48721  42.951   5.221  12.995
80504W        W48722   7.623  33.639  12.498
80505W        W48723  35.036  13.291   4.394
80506W        W48724  27.876  40.522  10.703
80507W        W48725  43.319   5.269  12.144
80508W        W48726  23.156  39.916  12.034
80509W        W48727  18.401   9.742   4.181
80510W        W48728  21.172  44.821   3.319
80511W        W48729  23.132  44.844  11.453
80512W        W48730  27.265  32.297  14.853
80513W        W48731  25.553  25.387  13.405
80514W        W48732   0.199   6.473  11.902
80515W        W48733  17.230   0.790  14.380
80516W        W48734  35.054   8.937  10.701
80517W        W48735  43.996  40.755   0.564
80518W        W48736  12.068   7.260  14.389
80519W        W48737  35.198  16.271  14.466
80520W        W48738   6.300  41.875   2.470
80521W        W48739  30.144  28.698   0.910
80522W        W48740  27.734  16.826  10.438
80523W        W48741  36.075  20.990  14.338
80524W        W48742  18.158  23.650  12.409
80525W        W48743  20.538  31.911  14.200
80526W        W48744  11.453  42.742  13.981
80527W        W48745  36.605  13.280   2.681
80528W        W48746   1.854  38.057  13.035
80529W        W48747   1.987  12.032   3.586
80530W        W48748  25.567   0.791   1.769
80531W        W48749   3.180  27.946   4.881
80532W        W48750  33.733   8.944   1.271
80533W        W48751  38.891   6.351   2.464
80534W        W48752  39.679  26.910   1.268
80535W        W48753  16.105  12.532   4.552
80536W        W48754  19.219  34.034   1.352
80537W        W48755  21.966  16.057  12.129
80538W        W48756   0.236  25.055  14.546
80539W        W48757  38.587  11.851  11.011
80540W        W48758  34.140  36.051  12.992
80541W        W48759  28.950   4.177   4.031
80542W        W48760   4.937  10.274  13.096
80543W        W48761   6.226  11.679   4.559
80544W        W48762  37.569  32.797   0.869
80545W        W48763   2.391  26.680   0.815
80546W        W48764  29.937  34.507  13.558
80547W        W48765   1.997  31.381   0.254
80548W        W48766   9.867   0.008   0.993
80549W        W48767  16.280   6.801  10.964
80550W        W48768  16.166  13.183   2.137
80551W        W48769  30.372  27.045   4.767
80552W        W48770   7.039   5.172  11.049
80553W        W48771  16.340  28.144  12.170
80554W        W48772  32.834  23.555   3.746
80555W        W48773  15.782  27.861  11.478
80556W        W48774  16.597  32.221   2.771
80557W        W48775   2.886  19.870  12.662
80558W        W48776  22.609  29.140  14.424
80559W        W48777   1.298  15.551   3.622
80560W        W48778  22.959  31.673   3.779
80561W        W48779  22.236  39.311   0.317
80562W        W48780  12.376   2.093  12.140
80563W        W48781  21.627  22.027   2.553
80564W        W48782  39.219   6.290  10.156
80565W        W48783   7.877  12.717  13.281
80566W        W48784  36.552  10.193  11.843
80567W        W48785  37.954  18.617  13.343
80568W        W48786  42.156  41.487   0.297
80569W        W48787  10.399  15.007  11.682
80570W        W48788  33.460  19.511   4.622
80571W        W48789  18.537  31.434   3.587
80572W        W48790  18.296  24.785  10.732
80573W        W48791  22.005  28.448  10.809
80574W        W48792  43.492  34.941  14.936
80575W        W48793  30.450  42.775   0.709
80576W        W48794  40.717  31.452  12.149
80577W        W48795  15.792  40.893   1.293
80578W        W48796   9.685   8.942   4.073
80579W        W48797  21.461  43.849  13.850
80580W        W48798  24.740  36.975   1.479
80581W        W48799  22.225   0.840   4.934
80582W        W48800  25.495  22.016  12.889
80583W        W48801   2.901   1.837  14.315
80584W        W48802  13.950  12.842   3.860
80585W        W48803  38.657   4.307   5.025
80586W        W48804  13.017  30.460  12.163
80587W        W48805  11.961  11.777  12.500
80588W        W48806  24.772  17.406  14.218
80589W        W48807   7.431  18.278   0.474
80590W        W48808  13.099  24.451  14.232
80591W        W48809   4.873  38.633  10.872
80592W        W48810  19.010  40.409   2.981
80593W        W48811  34.956  18.276   5.154
80594W        W48812  14.712  14.150  13.949
80595W        W48813  17.249  41.584  14.312
80596W        W48814  30.411   1.137  14.097
80597W        W48815  24.471  22.206   1.408
80598W        W48816  13.834   8.164   4.785
80599W        W48817  22.227  40.449   3.240
80600W        W48818  28.116  22.760   3.606
80601W        W48819  23.942  27.558  13.392
80602W        W48820  44.207  17.769   2.747
80603W        W48821  40.679  40.308  10.918
80604W        W48822  44.417   6.154   0.355
80605W        W48823  31.845  22.014  13.789
80606W        W48824  19.533   7.697  12.970
80607W        W48825  39.964   0.170  12.097
80608W        W48826  29.011  15.193  13.536
80609W        W48827   9.133  13.159  13.399
80610W        W48828   1.907   7.869   4.511
80611W        W48829   0.381   9.288  14.931
80612W        W48830  14.713  24.969   0.525
80613W        W48831  24.307  24.033  13.959
80614W        W48832   6.583  28.276  13.108
80615W        W48833   7.317  41.404   4.182
80616W        W48834   2.644  44.769   0.328
80617W        W48835  20.067  41.282   3.218
80618W        W48836   4.179  30.995  13.792
80619W        W48837  11.114  27.589   3.945
80620W        W48838  44.476  13.657   0.823
80621W        W48839   4.344   2.751  10.386
80622W        W48840  39.482  29.049   3.788
80623W        W48841  41.262  44.408   3.871
80624W        W48842  37.857  34.462   2.202
80625W        W48843  11.238  41.353  12.871
80626W        W48844  13.647  26.166   0.863
80627W        W48845  43.023  38.968  10.063
80628W        W48846   9.655  28.094  13.716
80629W        W48847  38.590  18.724   1.817
80630W        W48848   2.510  13.163   0.133
80631W        W48849   6.918  20.843   4.920
80632W        W48850   0.590  10.644  11.786
80633W        W48851  25.450  14.623  11.869
80634W        W48852  19.111  15.808   0.385
80635W        W48853  25.126  12.141  12.413
80636W        W48854  30.554   1.711   0.683
80637W        W48855  31.944  24.276  13.774
80638W        W48856  38.835  16.612  11.418
80639W        W48857  21.608  11.250  14.772
80640W        W48858  13.199   2.270   1.743
80641W        W48859  36.454   5.895   1.421
80642W        W48860   5.694  44.963  13.060
80643W        W48861  38.795  31.623  10.971
80644W        W48862   4.820  39.865  12.399
80645W        W48863  44.403  39.017  11.636
80646W        W48864  11.761  11.839   0.451
80647W        W48865  11.740   9.911  11.622
80648W        W48866  14.575  23.252  13.928
80649W        W48867  25.581  40.805   2.291
80650W        W48868  13.826  15.221  11.316
80651W        W48869   8.122  29.525   4.092
80652W        W48870  11.792   5.267  13.611
80653W        W48871  21.634  42.961   3.722
80654W        W48872  21.672  42.893  14.183
80655W        W48873   3.419   7.801   0.022
80656W        W48874  24.589  13.088  11.545
80657W        W48875  33.468   9.262  10.113
80658W        W48876  42.966  43.990   4.678
80659W        W48877  21.498   3.848  14.548
80660W        W48878  20.257  17.229   4.141
80661W        W48879   1.124  26.179   2.309
80662W        W48880   4.616  12.057   5.007
80663W        W48881   7.952  11.351   0.893
80664W        W48882  39.324  15.076  14.157
80665W        W48883  41.866  14.084  12.796
80666W        W48884   0.999  14.182   3.947
80667W        W48885   7.315  22.532  13.767
80668W        W48886  23.967  11.260  14.266
80669W        W48887  28.685  21.031  11.607
80670W        W48888  20.593  10.382   2.275
80671W        W48889  34.787  26.910   5.430
80672W        W48890  36.782   4.222   3.334
80673W        W48891  33.165   1.074   2.709
80674W        W48892  20.780  28.049  14.857
80675W        W48893   2.709  34.476   0.724
80676W        W48894   6.814   3.024   1.715
80677W        W48895   1.008  43.381  11.935
80678W        W48896  40.938   6.121  12.812
80679W        W48897   1.382   3.375  14.877
80680W        W48898   3.532  30.024  12.150
80681W        W48899  18.070  23.117  12.382
80682W        W48900  32.448  44.999   4.749
80683W        W48901   3.001   6.868  14.677
80684W        W48902  15.293  14.646  13.510
80685W        W48903  22.385  22.578   2.856
80686W        W48904  26.103  13.568   4.639
80687W        W48905  43.102  19.120  11.705
80688W        W48906   7.931  22.725  14.519
80689W        W48907  15.387   6.672   2.663
80690W        W48908  26.350  23.905  12.850
80691W        W48909   2.898  32.669  13.903
80692W        W48910  18.563  22.056   1.297
80693W        W48911  24.063  26.581   0.447
80694W        W48912  26.987  29.056  14.824
80695W        W48913  25.041  34.071  12.568
80696W        W48914   3.832  22.384   1.436
80697W        W48915  44.056   4.773   4.738
80698W        W48916  24.575  44.826  14.900
80699W        W48917  25.746  15.764  11.531
80700W        W48918  43.319  21.695  11.089
80701W        W48919  23.577  17.817  11.495
80702W        W48920  42.185  37.491  13.930
80703W        W48921  23.323  35.450  11.062
80704W        W48922  23.071  14.405   1.430
80705W        W48923  16.109  17.085  11.865
80706W        W48924   8.779  10.457  14.881
80707W        W48925  40.514  30.494   2.840
80708W        W48926  33.599   0.880   9.819
80709W        W48927   9.820  11.306  14.843
80710W        W48928  44.621  23.538  13.619
80711W        W48929   5.569   9.676   2.596
80712W        W48930   0.056  40.093  11.956
80713W        W48931  31.860  11.559   2.348
80714W        W48932  19.282   4.789   1.842
80715W        W48933  39.214  44.058   1.630
80716W        W48934  36.133  24.557   3.282
80717W        W48935  10.120  38.853   0.943
80718W        W48936   3.126  20.884  11.984
80719W        W48937  21.439  36.577   3.404
80720W        W48938  16.688   6.182   1.708
80721W        W48939  21.399   8.201  12.156
80722W        W48940  41.211   4.209  11.115
80723W        W48941  17.190   4.298   3.408
80724W        W48942  29.144  21.231   0.830
80725W        W48943  35.176   5.414  14.220
80726W        W48944  12.362  16.155  14.680
80727W        W48945  34.344   5.283   0.786
80728W        W48946   0.342  38.430   1.415
80729W        W48947  36.069  31.698   3.099
80730W        W48948  18.298  11.869  12.957
80731W        W48949  33.221  38.397   2.667
80732W        W48950   2.346   8.601  12.022
80733W        W48951   1.265  38.180   1.749
80734W        W48952  18.306  23.712  13.520
80735W        W48953   8.272  37.351   2.244
80736W        W48954  26.107   4.831  10.303
80737W        W48955   9.280  17.831  13.874
80738W        W48956  41.051  13.747   1.386
80739W        W48957  36.350  24.540   1.865
80740W        W48958   9.164  33.455   2.718
80741W        W48959  20.950  24.416   1.010
80742W        W48960  18.106   1.137   2.722
80743W        W48961  44.438  10.695   1.372
80744W        W48962  37.992  34.139   1.784
80745W        W48963  36.384  28.887   0.326
80746W        W48964  28.830  39.538  12.061
80747W        W48965  33.477   9.669   1.928
80748W        W48966   3.495  13.604   1.195
80749W        W48967   2.019   9.315  12.451
80750W        W48968  43.722   3.315   2.261
80751W        W48969  16.179  30.666   0.063
80752W        W48970   9.172  16.402   2.299
80753W        W48971  12.646  30.562  14.025
80754W        W48972  27.800  44.035   2.188
80755W        W48973  21.352   2.866  13.403
80756W        W48974   7.776   6.445  11.543
80757W        W48975  21.533   6.923   2.335
80758W        W48976  24.271  43.715   0.751
80759W        W48977  29.215   6.968  14.898
80760W        W48978  42.375  25.720   0.948
80761W        W48979  23.955   5.246   4.145
80762W        W48980  20.800   0.776   3.695
80763W        W48981   6.357   3.844  13.502
80764W        W48982  19.621  26.932   3.795
80765W        W48983  19.078  24.523  13.103
80766W        W48984  41.563  21.197  10.626
80767W        W48985  26.229  24.905  11.519
80768W        W48986  28.175   2.308  10.788
80769W        W48987  33.609  35.771   4.495
80770W        W48988  15.716  40.400   1.425
80771W        W48989   1.830  38.437   1.352
80772W        W48990  23.525  25.595  11.887
80773W        W48991  12.381  22.700  14.588
80774W        W48992  37.886  10.908   3.037
80775W        W48993  27.870  11.680   1.817
80776W        W48994  16.590   9.382  12.546
80777W        W48995   3.286  38.554  13.779
80778W        W48996  27.773  11.461   0.314
80779W        W48997  22.215   6.877   3.229
80780W        W48998  14.833  14.338   3.766
80781W        W48999  41.817  25.587  12.328
80782W        W49000   8.847   9.221  10.658
80783W        W49001  40.548  12.852   2.208
80784W        W49002   5.883  28.260  14.813
80785W        W49003   1.548   3.496  13.013
80786W        W49004  34.762   9.942   1.207
80787W        W49005  32.850  16.765   3.343
80788W        W49006   6.366  36.815   3.861
80789W        W49007  19.666  31.228   0.433
80790W        W49008  35.409   6.041  11.909
80791W        W49009   7.690   3.758   2.144
80792W        W49010  30.488  10.202  10.693
80793W        W49011  11.247   9.087  12.416
80794W        W49012  34.293  44.356   2.295
80795W        W49013  29.605   4.687  14.046
80796W        W49014  41.211  10.690  12.119
80797W        W49015  44.861  38.916  14.370
80798W        W49016  20.276  34.544  14.263
80799W        W49017  30.579  34.191   1.290
80800W        W49018  27.520  36.086   0.674
80801W        W49019  29.256  39.949   0.392
80802W        W49020   1.360  40.428   3.861
80803W        W49021  22.835  44.213  12.161
80804W        W49022   6.960  24.450  13.071
80805W        W49023  29.614  24.203  13.347
80806W        W49024  20.084  33.833   0.967
80807W        W49025  33.427   2.935  14.816
80808W        W49026   6.491  22.436   3.142
80809W        W49027  34.579  14.202   0.230
80810W        W49028  35.050   4.440   1.687
80811W        W49029  30.944  33.873   4.183
80812W        W49030   3.099  41.761   1.506
80813W        W49031  28.546  20.111   0.917
80814W        W49032  14.582  15.806   4.036
80815W        W49033   0.963  34.937   4.344
80816W        W49034   4.786   0.511   0.737
80817W        W49035  19.294  19.171   3.779
80818W        W49036  40.219  19.718   2.726
80819W        W49037   3.796   2.688   4.528
80820W        W49038  32.607   6.053   2.309
80821W        W49039  19.790  19.804  13.119
80822W        W49040  40.039  33.975   4.546
80823W        W49041  12.665  16.656  12.365
80824W        W49042   0.016  20.267  14.401
80825W        W49043  37.359  22.073  10.655
80826W        W49044   6.624  29.884  14.496
80827W        W49045  24.164  25.709  11.128
80828W        W49046  33.018   6.198  14.409
80829W        W49047   7.634   7.669  11.243
80830W        W49048  33.996  35.027  11.892
80831W        W49049  23.815  35.057   0.443
80832W        W49050  11.709   9.322  12.456
80833W        W49051  14.221  19.493   1.789
80834W        W49052   7.456  19.571   2.735
80835W        W49053  15.237  43.076   4.957
80836W        W49054   0.800  15.547   3.823
80837W        W49055  32.894  21.566   4.902
80838W        W49056  16.142  32.508   2.763
80839W        W49057  22.780  30.877  13.251
80840W        W49058   5.484  15.742   2.823
80841W        W49059  36.024  35.407  14.051
80842W        W49060  42.452  23.546  10.909
80843W        W49061  10.855  20.355  11.644
80844W        W49062  31.672  21.622  11.061
80845W        W49063  29.414  44.415   2.411
80846W        W49064  22.078  29.181  11.203
80847W        W49065  18.716   6.616  12.936
80848W        W49066   7.678   5.462  14.973
80849W        W49067  15.302  15.430   2.693
80850W        W49068  31.885   3.902  13.493
80851W        W49069   3.190  25.404   1.157
80852W        W49070   5.586  19.785  11.151
80853W        W49071  36.060  33.386   0.045
80854W        W49072   9.837  22.533  12.596
80855W        W49073   3.222  11.292  13.918
80856W        W49074  11.743  11.198  10.746
80857W        W49075  37.360  37.425  10.395
80858W        W49076   6.484  15.716  13.750
80859W        W49077  32.665  20.481  13.909
80860W        W49078   0.902  17.509   1.688
80861W        W49079  29.735  33.105  12.550
80862W        W49080  20.956   1.953   1.444
80863W        W49081   7.253  14.762   1.205
80864W        W49082  26.862  18.787  13.503
80865W        W49083   0.820  37.001   2.565
80866W        W49084   7.596  28.818  14.340
80867W        W49085  12.879   3.343   2.313
80868W        W49086  23.508   3.390  13.004
80869W        W49087  32.505  27.626   3.020
80870W        W49088  15.848  18.066  13.773
80871W        W49089   3.766  18.189  13.245
80872W        W49090   0.283  29.176  10.711
80873W        W49091  34.356  13.547  14.760
80874W        W49092  37.399  26.213  13.835
80875W        W49093  27.973   0.722  11.282
80876W        W49094  27.624  26.442   2.715
80877W        W49095   7.814  31.126   4.862
80878W        W49096  14.559  38.023   2.246
80879W        W49097  12.817  11.421  14.213
80880W        W49098   9.203  38.631   0.451
80881W        W49099  22.301   9.134  12.439
80882W        W49100  34.165  42.834   4.584
80883W        W49101  32.902   4.411  11.227
80884W        W49102  33.406  10.894  12.979
80885W        W49103  17.182  41.192   0.265
80886W        W49104  18.229  44.025  14.020
80887W        W49105   1.180  39.190  11.991
80888W        W49106  38.294  11.657  12.568
80889W        W49107  25.168  18.140  12.853
80890W        W49108  43.560  10.601   4.412
80891W        W49109   7.318  11.219   4.481
80892W        W49110  40.964   1.468  14.223
80893W        W49111  15.544   8.602   4.959
80894W        W49112  22.777  27.873   3.711
80895W        W49113  29.875  29.093   0.705
80896W        W49114  21.943  41.742  11.279
80897W        W49115  13.507  26.683   4.103
80898W        W49116  13.141  44.507  13.312
80899W        W49117  27.712  35.962  13.942
80900W        W49118  30.619   5.752   4.490
80901W        W49119  18.063  21.241  10.616
80902W        W49120  44.754  33.402  10.135
80903W        W49121  13.216  35.506   2.832
80904W        W49122   7.787  23.219   0.711
80905W        W49123  35.505   2.462   9.991
80906W        W49124  40.394   5.861   2.647
80907W        W49125  36.891  15.769  10.648
80908W        W49126  40.279  40.069  13.071
80909W        W49127  23.821  39.877   1.030
80910W        W49128  13.748  38.806  12.906
80911W        W49129  40.340  34.109  13.216
80912W        W49130  28.691  41.682  11.050
80913W        W49131  25.847   4.829  11.336
80914W        W49132  12.173  44.798   4.187
80915W        W49133  13.101  41.824  14.462
80916W        W49134  28.447  27.232   4.526
80917W        W49135  43.307  20.478  12.147
80918W        W49136  44.720  39.985  11.088
80919W        W49137  37.054  30.067   1.309
80920W        W49138   7.374  26.974   4.336
80921W        W49139  10.813   2.389   1.303
80922W        W49140  39.476  43.313  14.005
80923W        W49141  18.055  24.536   2.214
80924W        W49142  11.693  44.873   3.919
80925W        W49143  21.460   1.481   2.871
80926W        W49144  10.883  16.327   2.681
80927W        W49145  17.151  25.646  12.043
80928W        W49146  12.730  44.708   4.122
80929W        W49147  41.791  33.254  13.511
80930W        W49148  29.356  33.937   2.384
80931W        W49149  31.456  14.185   2.662
80932W        W49150  24.252  22.212  13.946
80933W        W49151  44.884  32.891  14.033
80934W        W49152   7.954  36.791  13.397
80935W        W49153  10.262  28.716   4.339
80936W        W49154  13.250  18.368   1.396
80937W        W49155  27.894  15.781  12.492
80938W        W49156  16.339  21.565  11.349
80939W        W49157  30.958  35.351  14.243
80940W        W49158   6.165  28.013  12.909
80941W        W49159  20.960  36.571   3.196
80942W        W49160   6.323   4.692  10.661
80943W        W49161  30.371   1.669  11.100
80944W        W49162  25.334   6.872   3.164
80945W        W49163  16.156  39.262   1.998
80946W        W49164   6.332  24.029   1.688
80947W        W49165  13.680  17.214  11.474
80948W        W49166  39.278   2.731   2.763
80949W        W49167   6.494  11.164   3.225
80950W        W49168  18.140  33.926   3.348
80951W        W49169  16.770  34.133  12.178
80952W        W49170   7.895  10.912   2.238
80953W        W49171  43.713  13.679   1.325
80954W        W49172  40.028   9.037   0.217
80955W        W49173  19.981   0.978   2.193
80956W        W49174   2.857  15.163   1.912
80957W        W49175  21.492  23.451   2.165
80958W        W49176   5.124  18.826  12.054
80959W        W49177  43.429  41.411  13.571
80960W        W49178  43.754  29.556  13.415
80961W        W49179  32.367   4.517   1.725
80962W        W49180  34.125  24.978   0.453
80963W        W49181  39.851  14.184  11.785
80964W        W49182   1.651  42.141   4.129
80965W        W49183  14.113  25.534   4.625
80966W        W49184  13.191  44.432   1.203
80967W        W49185  26.516  14.106   4.024
80968W        W49186  20.155  26.671  13.956
80969W        W49187  39.658  15.747  12.005
80970W        W49188  25.118  32.576  13.906
80971W        W49189  32.219  17.241  11.604
80972W        W49190   3.961  40.522   1.428
80973W        W49191  24.143  42.420  10.590
80974W        W49192  43.999   5.445   3.454
80975W        W49193  44.633   7.304  14.484
80976W        W49194   2.033  10.720   0.485
80977W        W49195  36.259  43.825   1.503
80978W        W49196  40.660   3.978   4.784
80979W        W49197  16.043  28.336  14.469
80980W        W49198  35.679   8.085  11.347
80981W        W49199  34.124  26.428   4.551
80982W        W49200  14.876  43.755  10.725
80983W        W49201   2.863  36.381   2.241
80984W        W49202   7.803  30.147  14.523
80985W        W49203  43.627  44.774   4.028
80986W        W49204   6.208   0.698   1.805
80987W        W49205  41.972  23.733   4.590
80988W        W49206  42.393   4.803  12.143
80989W        W49207   7.866  29.904  11.594
80990W        W49208   0.388  14.609  11.918
80991W        W49209   5.800  28.355  12.140
80992W        W49210  34.430  37.916   2.807
80993W        W49211   4.237  36.491  14.321
80994W        W49212  31.316  40.311  13.335
80995W        W49213   1.824  44.698   3.873
80996W        W49214   3.175  41.029  13.908
80997W        W49215   9.632  19.026  12.066
80998W        W49216  17.935  40.062   2.345
80999W        W49217  10.957  10.507  14.833
81000W        W49218  14.812  13.795  12.806
81001W        W49219  25.631  11.538  13.415
81002W        W49220  36.810   6.629   4.651
81003W        W49221  38.907   8.231  10.852
81004W        W49222  40.060  25.851  14.937
81005W        W49223  32.159  23.622   1.886
81006W        W49224   7.548  33.287   4.034
81007W        W49225  18.595  35.901   2.311
81008W        W49226  13.349   1.169  10.858
81009W        W49227  27.815  14.555   3.069
81010W        W49228  33.602  15.394  12.017
81011W        W49229  21.009  23.453   1.928
81012W        W49230  41.824  11.428   4.094
81013W        W49231   0.893  36.534   2.825
81014W        W49232  35.430   0.452  12.883
81015W        W49233   1.241  24.125  14.407
81016W        W49234  17.694   7.782   3.356
81017W        W49235   8.526  14.274  13.814
81018W        W49236  22.492  38.997  12.378
81019W        W49237  23.044  10.712  12.398
81020W        W49238  17.644  33.046   3.406
81021W        W49239  16.655  13.576  13.193
81022W        W49240  40.469  22.231   4.642
81023W        W49241  21.252  17.773   4.866
81024W        W49242  34.666  43.013   0.768
81025W        W49243  12.797  29.146   4.497
81026W        W49244  35.609  23.485  11.114
81027W        W49245  10.586  18.833   3.654
81028W        W49246  36.217  19.618  12.003
81029W        W49247  33.272  43.698   2.310
81030W        W49248   7.276  42.708   3.605
81031W        W49249  40.222   8.322  11.163
81032W        W49250  16.802  18.183   4.063
81033W        W49251   0.877  16.189   2.113
81034W        W49252  41.003  20.786   3.227
81035W        W49253  43.015   0.409   1.817
81036W        W49254  38.160  35.797   2.248
81037W        W49255  21.775  25.708  11.925
81038W        W49256  31.098  44.816   1.691
81039W        W49257   6.734  11.387   3.633
81040W        W49258  38.725  44.273   4.624
81041W        W49259  41.527   8.368   3.231
81042W        W49260  22.197  29.473  11.982
81043W        W49261  15.626   5.833  13.552
81044W        W49262  20.511   0.912  12.955
81045W        W49263  26.956  40.875   4.175
81046W        W49264   2.830  24.946  11.996
81047W        W49265  42.955   0.304  13.875
81048W        W49266  19.518   5.700  13.261
81049W        W49267   2.670  32.333   0.335
81050W        W49268  33.704   3.123   4.552
81051W        W49269   5.781  20.949  13.270
81052W        W49270  17.329  35.058  14.919
81053W        W49271   8.808  37.260   3.700
81054W        W49272   8.333  23.106   1.775
81055W        W49273  28.403  31.663   4.094
81056W        W49274  28.483  25.003   4.078
81057W        W49275  44.394   2.940   3.314
81058W        W49276  10.928  40.430  12.988
81059W        W49277   1.370  24.999  11.970
81060W        W49278   0.882  38.780   4.516
81061W        W49279  43.008   4.644  13.864
81062W        W49280  28.083  36.772  12.119
81063W        W49281  21.699  36.622   3.876
81064W        W49282   4.976  13.610  11.178
81065W        W49283  44.316  32.092  11.200
81066W        W49284  42.486  42.702   4.405
81067W        W49285  37.037  21.564  12.498
81068W        W49286   1.797  41.694   3.940
81069W        W49287  37.908  39.509   3.765
81070W        W49288  27.140   5.201  11.283
81071W        W49289  18.517  44.571  13.343
81072W        W49290  35.658  34.165   3.380
81073W        W49291  24.924  36.646  11.730
81074W        W49292  31.478  42.636  10.831
81075W        W49293  17.160  22.616   2.164
81076W        W49294  41.821  44.855  12.064
81077W        W49295  34.638  18.716   0.703
81078W        W49296   1.753  40.265  11.108
81079W        W49297  39.410  23.209  14.260
81080W        W49298  13.174  32.548   1.311
81081W        W49299  42.977  31.157  14.716
81082W        W49300   4.754  42.111  11.409
81083W        W49301  13.849  40.563   1.393
81084W        W49302  17.235   7.760   3.604
81085W        W49303   4.383  12.523  10.890
81086W        W49304  35.686  26.626   2.170
81087W        W49305   2.896  38.495   1.293
81088W        W49306  21.958  29.136   0.765
81089W        W49307  30.164   7.626  13.098
81090W        W49308   3.923   0.962  13.057
81091W        W49309   4.348   6.237  12.779
81092W        W49310  12.746  12.362  12.863
81093W        W49311  13.099  37.735  12.877
81094W        W49312  30.592  21.657  10.619
81095W        W49313  29.091   4.773  13.935
81096W        W49314  26.220  33.879  13.601
81097W        W49315  33.739  38.444   2.735
81098W        W49316   4.749  24.917  14.737
81099W        W49317  24.206   2.657  11.079
81100W        W49318  42.368  25.167  11.402
81101W        W49319  36.838  15.472   4.870
81102W        W49320  27.272  36.441   3.791
81103W        W49321  27.046  37.804   0.900
81104W        W49322  26.231  40.029   3.221
81105W        W49323  16.878  13.759   2.780
81106W        W49324  25.977  32.912   3.804
81107W        W49325  13.694  39.034   5.209
81108W        W49326  30.502  35.134   3.229
81109W        W49327  34.809  35.436  12.863
81110W        W49328  39.560   6.612   0.330
81111W        W49329  36.315   2.787  11.837
81112W        W49330  36.663  27.178   3.798
81113W        W49331  40.055  35.984   1.982
81114W        W49332  40.828  41.772   2.998
81115W        W49333  27.004   8.872   0.055
81116W        W49334   2.041  27.802  12.493
81117W        W49335  19.917  29.522   0.472
81118W        W49336  27.460   0.047  13.254
81119W        W49337  14.510  22.391  13.061
81120W        W49338   2.198  22.628   0.700
81121W        W49339  34.275   9.341   0.795
81122W        W49340  33.011  15.693   4.578
81123W        W49341   7.854  11.693  10.737
81124W        W49342  23.216  18.527  14.232
81125W        W49343  40.322  10.121  12.468
81126W        W49344  21.584  10.432   0.981
81127W        W49345  33.919  18.601  12.889
81128W        W49346  38.281  42.854  11.156
81129W        W49347   9.272   8.140  13.515
81130W        W49348  10.173  29.307  12.235
81131W        W49349  39.046  23.641  14.928
81132W        W49350  20.454   4.668   4.760
81133W        W49351  12.388  37.388  13.276
81134W        W49352   8.944  12.354   4.279
81135W        W49353  38.026  25.053   2.180
81136W        W49354  34.660  14.780   4.118
81137W        W49355  24.060  22.016   0.248
81138W        W49356   2.474  38.386   4.696
81139W        W49357  40.364  23.793  10.742
81140W        W49358  22.610  25.958  10.652
81141W        W49359   9.202   3.665   2.723
81142W        W49360  13.257  18.861  10.861
81143W        W49361  25.127  18.313  11.858
81144W        W49362  17.847  36.072  11.590
81145W        W49363  30.160   0.263   1.753
81146W        W49364  35.758  34.403   4.277
81147W        W49365  24.468   5.363  13.430
81148W        W49366  20.042  17.422  10.633
81149W        W49367   5.197  24.985   0.848
81150W        W49368   0.736  25.049  11.467
81151W        W49369  30.444  41.252   0.943
81152W        W49370  34.402  31.069   4.065
81153W        W49371  12.267  13.418   4.066
81154W        W49372  13.554   7.345  13.393
81155W        W49373  44.528  34.564  13.258
81156W        W49374  38.306  32.586   4.124
81157W        W49375   4.286  15.555  12.032
81158W        W49376  26.940  31.585   1.998
81159W        W49377  22.689   4.810   2.673
81160W        W49378  29.171  19.974   1.477
81161W        W49379   6.706  29.053   1.329
81162W        W49380   5.845   6.742   0.253
81163W        W49381  27.972  43.741  13.446
81164W        W49382  18.692  39.789  11.143
81165W        W49383  18.580  10.348  14.293
81166W        W49384  41.215  19.524   1.742
81167W        W49385   6.141  13.876  14.455
81168W        W49386  21.276  16.307   0.897
81169W        W49387  18.328  16.721  14.952
81170W        W49388  41.450  10.002   1.947
81171W        W49389  35.421  20.271   3.576
81172W        W49390  10.727  10.044   3.378
81173W        W49391   9.338   8.215   1.194
81174W        W49392  37.092  31.948   0.263
81175W        W49393   8.681   7.364  14.828
81176W        W49394  43.966  36.072  13.838
81177W        W49395   2.444  31.475   4.848
81178W        W49396  36.569  26.687  14.137
81179W        W49397  29.305  37.398   3.011
81180W        W49398  13.219  21.008   3.208
81181W        W49399  30.959  33.455  11.497
81182W        W49400  23.197  40.251  13.006
81183W        W49401   3.873   7.288  12.833
81184W        W49402  23.985   4.254   2.701
81185W        W49403   4.726  25.125   4.161
81186W        W49404  39.866   6.878   3.975
81187W        W49405   5.793  34.831   3.739
81188W        W49406  28.798   1.147  12.991
81189W        W49407  26.143   8.199  11.898
81190W        W49408   2.561  44.903   4.449
81191W        W49409   9.188  43.314   3.193
81192W        W49410  12.253   5.929   2.002
81193W        W49411  32.654  28.505  11.820
81194W        W49412  42.481   7.771   1.947
81195W        W49413   9.866  40.574  12.864
81196W        W49414   5.461  32.789   3.283
81197W        W49415  13.884   4.843  11.287
81198W        W49416  25.606  30.973   1.441
81199W        W49417  35.536  13.490   2.161
81200W        W49418   6.431  39.250   4.625
81201W        W49419   8.922  37.377   1.904
81202W        W49420  29.169  42.297   3.217
81203W        W49421  22.965  42.271  10.753
81204W        W49422  39.954  24.007   1.834
81205W        W49423  32.324  21.485   5.039
81206W        W49424  24.948  23.972  10.689
81207W        W49425   3.156   7.924  13.743
81208W        W49426  28.530  20.480   1.872
81209W        W49427  10.792  16.277   4.252
81210W        W49428  19.571  24.658   3.331
81211W        W49429  40.025   4.720  11.933
81212W        W49430  40.858   8.378  13.462
81213W        W49431  42.412  10.873  14.981
81214W        W49432  21.965  27.960   2.290
81215W        W49433   7.765  24.703  14.413
81216W        W49434  20.129  34.600   0.558
81217W        W49435  28.257  34.886   4.486
81218W        W49436  42.542   2.490   0.301
81219W        W49437  27.132  32.998   1.139
81220W        W49438  41.765   6.330   0.527
81221W        W49439   7.224  33.581  14.347
81222W        W49440  19.780   3.351   2.646
81223W        W49441  13.815  26.452  14.877
81224W        W49442  42.222   6.404  12.910
81225W        W49443  29.193  29.397   1.359
81226W        W49444  37.683  27.597   0.942
81227W        W49445   2.237   9.119  12.032
81228W        W49446  44.926  36.553  13.979
81229W        W49447  35.890  30.259  13.764
81230W        W49448  30.987   2.796  10.226
81231W        W49449  29.118  15.069   0.002
81232W        W49450  37.307   6.424  12.732
81233W        W49451  17.948  31.378  13.387
81234W        W49452  44.440  30.823  13.394
81235W        W49453  10.562  43.962  10.663
81236W        W49454  12.238  34.849   2.811
81237W        W49455  12.817  16.678  13.361
81238W        W49456  19.088  30.939   1.036
81239W        W49457  33.577  34.046   1.410
81240W        W49458  22.521  24.213   1.790
81241W        W49459   0.506  33.543  14.754
81242W        W49460  13.527  13.660  11.558
81243W        W49461  41.329  26.617   0.989
81244W        W49462  13.031  15.799   4.265
81245W        W49463  10.669  17.759  10.684
81246W        W49464  40.749  16.042   2.681
81247W        W49465  24.635  44.994  14.408
81248W        W49466  21.325  38.610   1.777
81249W        W49467  21.277  30.405  11.524
81250W        W49468  38.219   8.727  12.737
81251W        W49469  38.899  23.497  12.632
81252W        W49470  33.445   6.142  10.078
81253W        W49471  30.512  37.921   4.129
81254W        W49472  26.518  23.980   0.935
81255W        W49473  19.529  26.213  10.448
81256W        W49474  42.306  21.771   0.721
81257W        W49475  33.640   7.943  14.659
81258W        W49476  12.611  38.819  14.281
81259W        W49477   1.938  22.532   2.111
81260W        W49478  23.783   1.838  14.404
81261W        W49479   5.649  15.634   3.315
81262W        W49480  15.266  43.873  13.614
81263W        W49481  31.054  12.657  13.764
81264W        W49482   2.446  13.220   3.204
81265W        W49483   0.405  30.051   2.055
81266W        W49484  33.399  40.779   0.427
81267W        W49485  22.236  20.710  13.225
81268W        W49486  41.291  41.631  14.393
81269W        W49487  28.408  15.786   3.185
81270W        W49488  42.881  38.945  10.653
81271W        W49489   6.591   6.833   1.202
81272W        W49490  17.121   8.795  12.125
81273W        W49491  34.669  30.937   0.690
81274W        W49492  21.487  23.160  10.911
81275W        W49493  23.741   7.720  12.439
81276W        W49494  30.768  16.716   4.170
81277W        W49495  39.781  35.924   1.255
81278W        W49496  24.163  39.788   3.650
81279W        W49497  13.685  19.236   4.560
81280W        W49498  33.993  32.636   1.770
81281W        W49499  18.525  24.239  11.140
81282W        W49500  38.239  12.078   1.846
81283W        W49501  19.158   2.750   3.374
81284W        W49502  22.098  37.977  13.372
81285W        W49503  21.793  20.785  10.634
81286W        W49504  44.009  24.414   0.078
81287W        W49505  37.456   7.626  12.375
81288W        W49506  35.996   1.388  14.394
81289W        W49507  43.815  18.325  12.890
81290W        W49508  40.355  29.748  10.189
81291W        W49509  14.680   1.302   4.994
81292W        W49510  37.000  42.451   4.708
81293W        W49511  38.429  11.268  14.084
81294W        W49512  30.450   2.684  14.056
81295W        W49513   7.885   3.836  14.341
81296W        W49514  16.422  26.040   3.597
81297W        W49515  16.797  37.359  13.798
81298W        W49516   9.137  41.015  13.906
81299W        W49517  36.993  18.213  13.298
81300W        W49518   1.683   6.355  12.552
81301W        W49519   5.612  27.717   1.645
81302W        W49520  37.165  37.389  14.754
81303W        W49521  13.699  42.264  12.432
81304W        W49522  23.020   2.990  11.499
81305W        W49523   5.429  44.762   3.215
81306W        W49524  18.062  17.875   1.298
81307W        W49525  38.529  41.899   4.606
81308W        W49526  18.149  43.033  11.872
81309W        W49527  43.595  38.344   3.678
81310W        W49528  10.844  26.227  13.333
81311W        W49529  29.459  17.630   3.263
81312W        W49530  36.841  41.457  13.805
81313W        W49531   2.897  31.645  14.008
81314W        W49532  44.056  34.066  12.821
81315W        W49533  23.493  40.992   2.794
81316W        W49534  44.236   3.004   0.304
81317W        W49535  37.967  22.121   3.283
81318W        W49536  39.339   9.732   2.320
81319W        W49537  38.368  30.391  13.898
81320W        W49538   5.331  26.133  14.660
81321W        W49539  36.556  14.840   0.124
81322W        W49540  35.856   2.924  11.648
81323W        W49541   0.497  27.863  11.047
81324W        W49542  35.557   2.853  13.118
81325W        W49543   4.825  24.607   4.358
81326W        W49544  18.285  40.461  14.290
81327W        W49545  31.534  28.908  11.053
81328W        W49546   7.877   5.872   4.612
81329W        W49547  40.313   2.287   0.845
81330W        W49548  37.705   9.656  13.713
81331W        W49549  42.859  32.647  10.626
81332W        W49550  43.283  39.649   0.490
81333W        W49551  41.321   1.761   2.721
81334W        W49552  43.341  32.399   1.655
81335W        W49553  30.937   7.314   0.832
81336W        W49554  22.250   7.968  11.513
81337W        W49555  25.432  32.025   4.197
81338W        W49556  20.954   9.220   1.954
81339W        W49557  13.350  44.056   3.645
81340W        W49558  41.297   9.812  11.675
81341W        W49559  10.755   9.126  13.049
81342W        W49560  21.032  38.351  13.876
81343W        W49561  22.817   6.459  12.078
81344W        W49562   2.891  17.749   4.016
81345W        W49563  28.581  11.060  11.804
81346W        W49564  11.772  43.035  13.719
81347W        W49565  30.711   2.758   3.229
81348W        W49566  19.274  31.489   4.617
81349W        W49567  31.817  41.958  12.343
81350W        W49568  35.831  22.607   4.503
81351W        W49569  38.303  38.858   3.938
81352W        W49570  34.802  30.382   1.466
81353W        W49571  24.644  19.253  13.582
81354W        W49572   8.715  17.641  13.470
81355W        W49573   5.731  42.990  12.779
81356W        W49574  11.175  27.252  14.359
81357W        W49575  18.175  28.607  14.452
81358W        W49576  10.200  21.793   3.976
81359W        W49577  18.203  12.031  10.300
81360W        W49578   8.793   0.478  11.205
81361W        W49579  26.415  27.213  13.326
81362W        W49580  14.337  22.038  14.942
81363W        W49581   2.369  18.090   4.152
81364W        W49582   5.427  40.900  13.120
81365W        W49583   3.528  19.356   0.592
81366W        W49584  27.101   4.669  10.603
81367W        W49585  27.495  35.003   2.903
81368W        W49586  12.119  15.105  11.092
81369W        W49587  21.148  30.567   4.698
81370W        W49588  14.252  13.736   1.146
81371W        W49589  40.429  25.301  10.633
81372W        W49590  22.987  12.318  13.769
81373W        W49591  28.060  18.685   0.736
81374W        W49592  28.693   7.019   1.753
81375W        W49593  16.101  43.351  11.213
81376W        W49594  18.605  38.930  12.084
81377W        W49595  32.043  31.733   0.728
81378W        W49596   0.780  41.992  14.351
81379W        W49597  21.176  32.533  10.721
81380W        W49598  37.235  35.681  11.060
81381W        W49599   6.376  21.349   0.393
81382W        W49600  18.811  25.518  14.958
81383W        W49601  40.576  29.996  11.605
81384W        W49602  13.380   3.420   1.423
81385W        W49603  30.421  17.355  12.250
81386W        W49604  38.508  17.061  14.011
81387W        W49605   5.091  40.763  11.948
81388W        W49606   0.896  38.941  11.566
81389W        W49607  38.258  24.359   4.119
81390W        W49608  37.680  26.916  12.355
81391W        W49609   5.228   8.480   1.477
81392W        W49610   4.224  40.353   3.886
81393W        W49611  44.475  11.606   4.576
81394W        W49612   0.738  25.064   3.177
81395W        W49613   1.611  25.931  13.718
81396W        W49614  27.391  43.571   1.353
81397W        W49615  44.092  23.085   1.739
81398W        W49616  17.884  19.588  12.332
81399W        W49617  43.024  15.163   3.821
81400W        W49618  22.652  41.004   0.711
81401W        W49619  40.763   9.046   3.792
81402W        W49620  20.637   7.042  14.416
81403W        W49621  32.001  21.548  13.521
81404W        W49622  43.762  39.633  13.912
81405W        W49623  28.928  17.142  14.881
81406W        W49624   9.733  37.052  14.880
81407W        W49625  33.990  42.986  12.870
81408W        W49626  29.737   6.397  12.416
81409W        W49627   0.928  10.052   1.410
81410W        W49628  11.157   5.296   2.661
81411W        W49629  26.622  10.385  14.756
81412W        W49630   8.686   6.234   1.121
81413W        W49631  19.137   2.236   3.212
81414W        W49632  32.346  27.154  13.334
81415W        W49633  35.127  42.515  10.735
81416W        W49634  40.005  17.881   4.740
81417W        W49635   9.550  24.214  14.728
81418W        W49636  37.384   1.548  11.484
81419W        W49637   8.715  40.352   4.841
81420W        W49638   6.374  36.072   2.180
81421W        W49639  12.449  36.362   0.524
81422W        W49640  44.292  11.459  13.329
81423W        W49641  39.467  44.754  12.855
81424W        W49642  44.409  39.795   3.643
81425W        W49643  30.589   3.760   2.655
81426W        W49644  32.353  44.777  12.610
81427W        W49645  31.139  31.594   4.699
81428W        W49646  28.810  18.768   5.000
81429W        W49647  44.844   5.422   1.949
81430W        W49648  34.643  10.199   4.763
81431W        W49649  23.982  18.990   4.546
81432W        W49650  32.579   6.454  14.578
81433W        W49651  11.303  30.240   0.398
81434W        W49652  26.204  38.476  13.416
81435W        W49653   0.968  26.199  12.899
81436W        W49654  37.889  36.638  13.438
81437W        W49655  34.134  28.982  14.117
81438W        W49656  41.015   6.823  13.316
81439W        W49657   0.783  22.586   1.905
81440W        W49658  35.083  37.508   3.150
81441W        W49659  42.322  27.432  13.435
81442W        W49660  26.468  19.234   1.288
81443W        W49661  12.650  31.653   4.391
81444W        W49662  34.875  26.200  12.492
81445W        W49663  39.669  13.833   3.191
81446W        W49664  32.544  16.137  12.558
81447W        W49665  18.313  21.721  11.496
81448W        W49666  36.591   3.201   3.235
81449W        W49667  22.971  34.563  10.891
81450W        W49668  42.032  37.443  11.609
81451W        W49669  28.351  42.296   0.378
81452W        W49670  25.788   3.967   0.465
81453W        W49671  26.723  39.108   0.777
81454W        W49672  11.128  43.232   4.410
81455W        W49673  16.053   9.340   4.581
81456W        W49674  38.163   3.861   0.358
81457W        W49675  12.666  27.920  10.621
81458W        W49676  44.032   5.848  12.228
81459W        W49677   9.699  34.644  11.880
81460W        W49678  11.741   0.736  12.929
81461W        W49679  24.776  19.171  10.798
81462W        W49680  31.897   6.196   0.316
81463W        W49681  36.845  34.527  12.751
81464W        W49682  27.785  36.959  13.761
81465W        W49683  24.917  19.734   0.776
81466W        W49684  22.922  33.428   3.792
81467W        W49685  27.994  25.116  12.392
81468W        W49686  34.889   5.235   1.369
81469W        W49687  22.140  36.412  13.495
81470W        W49688  17.504  21.180  14.504
81471W        W49689  22.437  37.634  11.143
81472W        W49690  41.112  24.698   4.160
81473W        W49691   2.891  20.485  14.792
81474W        W49692  44.583  25.761  11.248
81475W        W49693  29.908  39.482  13.338
81476W        W49694  22.956  39.754   3.082
81477W        W49695  39.082  16.207   4.600
81478W        W49696  25.777  31.573   0.224
81479W        W49697  15.961  13.488  11.604
81480W        W49698  25.173  41.987   1.452
81481W        W49699   6.895   3.700  14.470
81482W        W49700  41.974  19.656   0.044
81483W        W49701  39.941  31.274   4.785
81484W        W49702  22.806  14.830   4.160
81485W        W49703  42.274  19.847   0.992
81486W        W49704  18.076  37.340   0.262
81487W        W49705  35.920   1.284   3.235
81488W        W49706  12.778   2.243  11.872
81489W        W49707  24.969  13.620  14.923
81490W        W49708  40.959  37.643   0.327
81491W        W49709   5.883  23.623   2.680
81492W        W49710   9.324  13.722  10.637
81493W        W49711  12.552  26.517  11.553
81494W        W49712   4.007  11.285  14.893
81495W        W49713   4.404  43.523   4.731
81496W        W49714  37.882  44.735  12.065
81497W        W49715  23.518  24.802   5.060
81498W        W49716   0.367  25.160  12.692
81499W        W49717   2.522  23.600   1.577
81500W        W49718   9.343  25.159   5.254
81501W        W49719  14.181  20.702   0.901
81502W        W49720   1.842  16.632  12.529
81503W        W49721  42.189  17.641   0.766
81504W        W49722  17.881  31.522   4.263
81505W        W49723  41.369   3.340   1.220
81506W        W49724  10.606  16.020   0.388
81507W        W49725   9.231  11.186   3.821
81508W        W49726  40.644  19.682  12.598
81509W        W49727  43.459  43.715  12.509
81510W        W49728  22.720  15.612  10.721
81511W        W49729  32.268   1.407   1.171
81512W        W49730  21.749  12.657  14.020
81513W        W49731  31.955  41.924   1.798
81514W        W49732   6.143  42.464  13.469
81515W        W49733   8.805  22.547   2.612
81516W        W49734  27.855   5.757  13.102
81517W        W49735   9.091  16.014   0.750
81518W        W49736  21.098  41.970  13.389
81519W        W49737  33.058  44.988   2.109
81520W        W49738  18.638  11.782   1.937
81521W        W49739  21.222  44.078   4.256
81522W        W49740  18.617  31.950  11.691
81523W        W49741   2.755  11.355  14.163
81524W        W49742  29.913  24.467   2.283
81525W        W49743  25.773  32.553  14.910
81526W        W49744  30.614  39.178  13.955
81527W        W49745  32.971  39.533   4.612
81528W        W49746  41.122   0.728   3.603
81529W        W49747   1.352  12.321   1.261
81530W        W49748  14.773  10.565  11.170
81531W        W49749   7.517   4.717   1.797
81532W        W49750  30.482  27.097   2.651
81533W        W49751  43.747  31.926   2.401
81534W        W49752  43.257   4.740   4.160
81535W        W49753  41.673  38.767  14.465
81536W        W49754   4.962  37.020   3.369
81537W        W49755  39.424  22.187  14.544
81538W        W49756  19.666  13.214  12.657
81539W        W49757  10.570  22.439   3.417
81540W        W49758   3.279   2.454   1.337
81541W        W49759  32.707  24.051  14.461
81542W        W49760  23.697  34.102   2.565
81543W        W49761   6.625  25.361  13.888
81544W        W49762  36.860  26.169  11.581
81545W        W49763  41.952  44.408   0.197
81546W        W49764   2.218  22.887  10.891
81547W        W49765  19.628  36.113   0.733
81548W        W49766  18.275  19.554  10.452
81549W        W49767  23.532  19.975  13.810
81550W        W49768  33.035  11.228   3.569
81551W        W49769  18.133  29.617  14.568
81552W        W49770   9.602  44.707  11.306
81553W        W49771   0.224  20.993  14.024
81554W        W49772  39.425  24.788   0.766
81555W        W49773   0.118   8.465   1.827
81556W        W49774  33.480  26.049  14.534
81557W        W49775  37.162  24.591  14.385
81558W        W49776  17.175   5.878  13.366
81559W        W49777  42.097  39.330  10.695
81560W        W49778  27.044  25.919  12.169
81561W        W49779  25.450  20.096  12.454
81562W        W49780  21.556  22.198   3.038
81563W        W49781  14.805  19.569  13.823
81564W        W49782   1.392   3.276  11.171
81565W        W49783   4.756  22.517  10.686
81566W        W49784  40.834  12.687   3.763
81567W        W49785  20.629  43.967  13.370
81568W        W49786  27.170  34.007   0.917
81569W        W49787  44.739   3.919  12.004
81570W        W49788  10.095  44.829  11.447
81571W        W49789  21.660  19.680   4.507
81572W        W49790  28.523  40.913   0.266
81573W        W49791  30.943  34.048   0.922
81574W        W49792  17.091  42.947  14.803
81575W        W49793  40.980  14.778  14.959
81576W        W49794  40.278  20.731  11.759
81577W        W49795   2.290  28.204  11.482
81578W        W49796  25.800   0.496  14.316
81579W        W49797  38.408  32.386  11.824
81580W        W49798  43.389  18.524   2.661
81581W        W49799  32.962   9.273  12.487
81582W        W49800  26.629  30.805   4.655
81583W        W49801  30.416  26.572  12.548
81584W        W49802   6.270  15.678   1.001
81585W        W49803  12.556  17.307  13.008
81586W        W49804  23.049  42.934   0.470
81587W        W49805  22.249  20.220  13.024
81588W        W49806  28.419   1.311   3.133
81589W        W49807   2.320   7.861   3.563
81590W        W49808  13.077   8.933  10.127
81591W        W49809  14.556   7.920  12.535
81592W        W49810  23.042   2.408  12.123
81593W        W49811  44.494  26.661  12.860
81594W        W49812   1.644   8.307  13.633
81595W        W49813  43.802  34.262   4.074
81596W        W49814  10.756  15.535   4.753
81597W        W49815   3.153  44.701   0.297
81598W        W49816  44.679  16.834  14.983
81599W        W49817  41.921   7.078  10.441
81600W        W49818  26.798  35.556  12.154
81601W        W49819  27.606  20.901   1.640
81602W        W49820  43.084  13.849  13.875
81603W        W49821   9.127  35.966   1.212
81604W        W49822  42.395  41.608  13.175
81605W        W49823   7.432  31.148  11.711
81606W        W49824  24.060  15.263  12.430
81607W        W49825   2.677  10.000  12.792
81608W        W49826  42.525  17.162   1.780
81609W        W49827   4.755   8.622   3.718
81610W        W49828  18.102   7.453   4.512
81611W        W49829  19.449  41.649   4.171
81612W        W49830  33.139  28.735  13.977
81613W        W49831  35.144   4.686   1.123
81614W        W49832  41.094  39.816   4.274
81615W        W49833   1.897  33.380  13.579
81616W        W49834  15.198  20.812  13.896
81617W        W49835  35.457  24.748   2.612
81618W        W49836  16.639  28.380   2.429
81619W        W49837  12.789   1.861  10.935
81620W        W49838  17.355  42.841   3.678
81621W        W49839  32.828  22.141   3.081
81622W        W49840   4.839  14.158   4.465
81623W        W49841   3.374   2.019  14.078
81624W        W49842  18.801   4.409  11.932
81625W        W49843  38.992  32.150  12.519
81626W        W49844  16.181   3.321   5.081
81627W        W49845  17.309  20.009  14.697
81628W        W49846  26.029  40.354  11.909
81629W        W49847   1.670  35.215   3.051
81630W        W49848   1.445  21.270   4.731
81631W        W49849  27.960  32.186  14.422
81632W        W49850  33.436  19.088   3.742
81633W        W49851  44.733  12.693   0.319
81634W        W49852  24.044  44.952  10.980
81635W        W49853  26.242   6.814   1.196
81636W        W49854  41.059  30.465   0.842
81637W        W49855  27.157   5.245  12.884
81638W        W49856  42.386  24.139   1.830
81639W        W49857  30.574  24.193   0.064
81640W        W49858  17.808  20.213   1.844
81641W        W49859   3.896  42.154   5.034
81642W        W49860  15.232  17.172   2.643
81643W        W49861  36.758  44.409  11.242
81644W        W49862  17.098   2.863   0.340
81645W        W49863  14.721  15.350  14.667
81646W        W49864  11.182  33.449   0.977
81647W        W49865  11.486  23.199   0.499
81648W        W49866   7.651  26.113  13.144
81649W        W49867  35.962  13.083  11.648
81650W        W49868   5.889  23.516  11.169
81651W        W49869  39.324  41.846   4.123
81652W        W49870   1.790  41.464  12.983
81653W        W49871   4.382   6.367   2.724
81654W        W49872  33.556   4.999  12.433
81655W        W49873  27.626   2.954   2.270
81656W        W49874  42.419  19.155  12.542
81657W        W49875  29.857  35.376   1.291
81658W        W49876  16.757  37.996   4.134
81659W        W49877  33.966   5.490   4.151
81660W        W49878  24.662  28.479   0.897
81661W        W49879   6.603  12.427  11.225
81662W        W49880   5.664  40.580  12.570
81663W        W49881  21.351  25.616  14.728
81664W        W49882  16.055  14.200   0.391
81665W        W49883  28.524  36.740   2.277
81666W        W49884  20.122   0.824   3.126
81667W        W49885   0.025   6.690   4.532
81668W        W49886  43.057  16.552   2.358
81669W        W49887   8.217  29.947   4.891
81670W        W49888  40.592  42.395   4.099
81671W        W49889   8.598   6.687  11.808
81672W        W49890   2.283  21.463   0.780
81673W        W49891  17.556  31.134   3.684
81674W        W49892  39.446  40.727   3.172
81675W        W49893   5.289  36.070  11.153
81676W        W49894  23.472  19.472   3.882
81677W        W49895  29.790  26.760   4.995
81678W        W49896  32.137  15.790  14.815
81679W        W49897  28.102  27.251  10.750
81680W        W49898  27.449   4.406   1.872
81681W        W49899   8.228   3.701   3.731
81682W        W49900  18.802  19.491   1.281
81683W        W49901   3.946   7.831   1.254
81684W        W49902  18.895  37.397   2.332
81685W        W49903  42.204  17.558   1.661
81686W        W49904  41.601  26.479   3.274
81687W        W49905  16.326  40.291   0.874
81688W        W49906  41.113  22.952   2.804
81689W        W49907   1.455  32.186   4.733
81690W        W49908  14.396  28.410   2.137
81691W        W49909  42.372  43.692   3.016
81692W        W49910  16.501  43.953   1.243
81693W        W49911  20.761  23.098   2.220
81694W        W49912  20.524  36.877  14.003
81695W        W49913   4.241  34.902  14.577
81696W        W49914  39.132  19.482   3.303
81697W        W49915   3.546  16.608   3.959
81698W        W49916  44.125   5.599  13.575
81699W        W49917  14.836  29.853   4.328
81700W        W49918  18.153  22.132   0.956
81701W        W49919  27.624   3.297  12.894
81702W        W49920   9.283  27.443  10.535
81703W        W49921  31.553   2.042  10.345
81704W        W49922  33.670  38.278   3.647
81705W        W49923   6.435  10.804  10.609
81706W        W49924  11.059  31.764  13.294
81707W        W49925   3.709  17.802   0.185
81708W        W49926  23.733   4.712   2.733
81709W        W49927   0.571  36.154  11.091
81710W        W49928  24.677  25.553  12.009
81711W        W49929   4.237  31.428   4.290
81712W        W49930  44.793  18.771  14.903
81713W        W49931   2.001  37.829  11.722
81714W        W49932  26.521   4.365   3.600
81715W        W49933  36.353  17.601   4.873
81716W        W49934   8.510  24.664   4.209
81717W        W49935  28.271  19.519   4.974
81718W        W49936  23.423   3.888  14.308
81719W        W49937  43.487  23.224  11.600
81720W        W49938   8.878  44.293  11.463
81721W        W49939  42.702  28.166  11.566
81722W        W49940  34.940  35.752   0.457
81723W        W49941  44.256  25.278  14.246
81724W        W49942   4.125  21.045   3.210
81725W        W49943  23.643  15.284   3.320
81726W        W49944  33.294  21.724   1.394
81727W        W49945  23.100  11.720   2.211
81728W        W49946  24.435  20.111  12.437
81729W        W49947  10.373  18.241   5.248
81730W        W49948  41.435  30.639  11.635
81731W        W49949   3.799  15.628   3.024
81732W        W49950  38.523   3.190  12.054
81733W        W49951  24.252  24.326  10.180
81734W        W49952   1.748   1.720   2.668
81735W        W49953  11.627  20.754  11.248
81736W        W49954  16.999   7.204   0.337
81737W        W49955  31.408  40.508  12.159
81738W        W49956  41.993  33.989  10.661
81739W        W49957  11.273  11.582   4.192
81740W        W49958  16.865  34.856  13.609
81741W        W49959   9.702  21.146  12.995
81742W        W49960   8.801  34.095   2.209
81743W        W49961   0.886  40.974  14.390
81744W        W49962  30.577   9.170  14.432
81745W        W49963   5.848  19.996  12.934
81746W        W49964  15.022  26.468  12.576
81747W        W49965  43.887  39.106  14.007
81748W        W49966  23.676  30.950   1.960
81749W        W49967  36.036  25.580   1.212
81750W        W49968  30.900  37.902   2.878
81751W        W49969  40.783   6.727  12.033
81752W        W49970  24.319  23.178   4.121
81753W        W49971  21.054  30.965  10.695
81754W        W49972   5.263  39.962   4.479
81755W        W49973  37.123  31.824  11.648
81756W        W49974  32.439   3.696  11.587
81757W        W49975   6.222   5.272  13.820
81758W        W49976  35.907  21.296   1.662
81759W        W49977  12.068  41.406  14.976
81760W        W49978   4.960   8.822  14.954
81761W        W49979  38.575  33.590  13.038
81762W        W49980   2.749   6.264   0.526
81763W        W49981  41.081  38.444   1.624
81764W        W49982   0.561   4.776   3.299
81765W        W49983  23.631  11.857   3.452
81766W        W49984   1.269  24.892   4.359
81767W        W49985  10.849   6.663   0.850
81768W        W49986  34.590   6.659   2.273
81769W        W49987  31.068   5.355  10.327
81770W        W49988  37.524   2.477   2.855
81771W        W49989  33.106  39.249  13.117
81772W        W49990  16.337  27.063  11.110
81773W        W49991  13.090  19.297   0.397
81774W        W49992   5.925  38.854  13.346
81775W        W49993  17.663   9.634   4.573
81776W        W49994  40.840   1.830  12.606
81777W        W49995  14.790  34.980  13.159
81778W        W49996   6.638   3.946   4.115
81779W        W49997  43.293  43.730  13.415
81780W        W49998  43.418  35.980   2.630
81781W        W49999  10.314  29.649   4.617
81782W        W50000  15.958  15.638  11.054
81783W        W50001  28.199  13.925  10.291
81784W        W50002  29.063  26.246  12.675
81785W        W50003  10.723  23.572  12.911
81786W        W50004  35.409  43.937  13.379
81787W        W50005  35.188  25.901  13.765
81788W        W50006  15.036  10.911  14.353
81789W        W50007   9.772  16.554  12.374
81790W        W50008  31.011  13.086  14.075
81791W        W50009  14.300   3.452  14.915
81792W        W50010  22.910   7.300   2.512
81793W        W50011  32.581  27.722   2.527
81794W        W50012  27.618   7.715  12.784
81795W        W50013   2.423  30.277  14.966
81796W        W50014  29.891  30.078   1.439
81797W        W50015   8.943  16.556  11.039
81798W        W50016  41.218  40.147  12.403
81799W        W50017  32.761   0.450  13.911
81800W        W50018  16.537  11.362   4.159
81801W        W50019  29.925  29.941  11.125
81802W        W50020  10.183  42.578  11.414
81803W        W50021  41.159  36.903  12.509
81804W        W50022  24.950  15.037  12.441
81805W        W50023   4.860  33.515   4.495
81806W        W50024  33.570  41.652  11.564
81807W        W50025   6.913  16.213   2.758
81808W        W50026  21.750  20.161  13.597
81809W        W50027  26.044  36.057   2.358
81810W        W50028   2.483  28.449   4.145
81811W        W50029  38.803  12.200   3.679
81812W        W50030  43.330  28.206  13.535
81813W        W50031  38.696  38.332   1.910
81814W        W50032  39.968   8.115  11.602
81815W        W50033  14.924  14.412  14.437
81816W        W50034   9.230   0.031   1.738
81817W        W50035   7.389  44.563  11.125
81818W        W50036  30.547  21.815   2.852
81819W        W50037  16.665  28.183  12.932
81820W        W50038  20.040   2.231   3.200
81821W        W50039  40.273  26.428  13.956
81822W        W50040  25.694  27.711  11.954
81823W        W50041  25.462  38.550   2.169
81824W        W50042  27.753  34.258   4.114
81825W        W50043  32.230  33.170   4.170
81826W        W50044  38.074  33.819  13.074
81827W        W50045  11.904  12.253   0.177
81828W        W50046  28.134  16.017  13.845
81829W        W50047  25.618  23.234   2.723
81830W        W50048  22.342  22.299   0.125
81831W        W50049  10.270  17.058   1.267
81832W        W50050   5.692  27.249   1.243
81833W        W50051  29.572   6.362   0.510
81834W        W50052   2.403   3.665  13.444
81835W        W50053  16.240  26.177   4.647
81836W        W50054  12.590  25.031   4.198
81837W        W50055   6.265  17.950  14.408
81838W        W50056  27.927  23.741   2.205
81839W        W50057  40.065  14.624  13.901
81840W        W50058  41.775  43.021   1.914
81841W        W50059  28.724  14.386   1.413
81842W        W50060  36.951  35.455  10.638
81843W        W50061  35.365  39.803   1.226
81844W        W50062   2.727   8.894   2.989
81845W        W50063  15.009  33.570  14.358
81846W        W50064  13.743  13.818   0.922
81847W        W50065  19.703  12.743  12.851
81848W        W50066  17.727  13.184  11.536
81849W        W50067  28.613  22.422   5.078
81850W        W50068   9.518  33.073   2.700
81851W        W50069  32.701   1.749   1.409
81852W        W50070  19.557  34.593   0.983
81853W        W50071   8.665  42.156  11.106
81854W        W50072  29.874  25.664   3.613
81855W        W50073  43.881  36.414   0.615
81856W        W50074  10.738  27.552   2.217
81857W        W50075  25.418   2.955   3.311
81858W        W50076  14.602  18.040  14.446
81859W        W50077  33.500  39.535  11.464
81860W        W50078  43.920  43.003  12.020
81861W        W50079   6.736  12.623  11.670
81862W        W50080  22.299  40.066  11.633
81863W        W50081  34.476  29.207  11.713
81864W        W50082  34.072  42.333  14.346
81865W        W50083  21.747  35.045   1.630
81866W        W50084  44.467  38.064   2.293
81867W        W50085  12.842  31.723   4.888
81868W        W50086  34.538   3.020  13.097
81869W        W50087  12.549   1.791   0.264
81870W        W50088   7.257   6.707   4.258
81871W        W50089   0.680  43.868  13.969
81872W        W50090  10.223  30.866  10.156
81873W        W50091   2.641  40.001  13.181
81874W        W50092  34.935  32.080  10.363
81875W        W50093  34.497  31.149  11.536
81876W        W50094   0.211  28.709   0.252
81877W        W50095   6.847  34.444   0.455
81878W        W50096  35.970  41.896  11.835
81879W        W50097  30.000   6.456   3.549
81880W        W50098   7.316   2.246  13.958
81881W        W50099  30.108   7.068   4.152
81882W        W50100   4.876  44.200   0.518
81883W        W50101  14.260   1.578  13.839
81884W        W50102  21.436  42.808   4.743
81885W        W50103   4.929  42.547  11.159
81886W        W50104  16.964   3.425   3.268
81887W        W50105  17.530   4.732  10.458
81888W        W50106  19.488  41.578  12.840
81889W        W50107  12.455  10.530  10.783
81890W        W50108  42.320  30.217  12.389
81891W        W50109  24.224  24.060  12.896
81892W        W50110  44.010  28.399   4.017
81893W        W50111  41.759  16.973  10.317
81894W        W50112  31.243  34.817  13.560
81895W        W50113  34.912  42.095  14.740
81896W        W50114   8.684  16.355   0.657
81897W        W50115  33.404   3.471  12.094
81898W        W50116   8.994  16.643   2.720
81899W        W50117  11.406  35.606  11.540
81900W        W50118  24.143  37.009  14.975
81901W        W50119   2.473  27.234  11.471
81902W        W50120  33.142  18.668   3.793
81903W        W50121  24.230   7.692  14.251
81904W        W50122  24.545  32.637   3.574
81905W        W50123  18.679  16.326   3.253
81906W        W50124   7.928   1.214  10.897
81907W        W50125  23.315  33.915   5.466
81908W        W50126   4.121  33.356  11.120
81909W        W50127  22.523  14.230   3.391
81910W        W50128   9.993  30.749   4.056
81911W        W50129  42.757  18.296   0.401
81912W        W50130  11.976  40.791   2.282
81913W        W50131   1.902  41.166  13.373
81914W        W50132   8.664   0.630   1.989
81915W        W50133   9.620  32.438  14.269
81916W        W50134   1.067  26.915   3.786
81917W        W50135  20.680  33.084   3.660
81918W        W50136  35.521  25.594   1.324
81919W        W50137  12.281  21.836   1.305
81920W        W50138  38.364  11.938   3.624
81921W        W50139  31.028  24.022  12.478
81922W        W50140   5.293  17.411   0.397
81923W        W50141  23.240  44.759   2.372
81924W        W50142   4.013  34.384  14.609
81925W        W50143  12.180  22.448   4.821
81926W        W50144   6.187   3.853   3.899
81927W        W50145  21.850  10.637   0.216
81928W        W50146  32.108  30.843   1.692
81929W        W50147   5.343   1.437   3.747
81930W        W50148  42.982  40.913   2.732
81931W        W50149  30.471  12.322  12.547
81932W        W50150   7.346  44.294   3.615
81933W        W50151  33.257  12.067  11.116
81934W        W50152   8.910  13.079  12.117
81935W        W50153   6.408  36.989  11.238
81936W        W50154   1.445  13.830   4.737
81937W        W50155  38.621  41.436  11.604
81938W        W50156  25.730   0.145  11.719
81939W        W50157  24.161  15.690   0.676
81940W        W50158   7.837   5.730   0.472
81941W        W50159   0.778   8.586   1.203
81942W        W50160  39.255  19.212   4.105
81943W        W50161  31.189  28.016   3.295
81944W        W50162  20.074  41.537  13.491
81945W        W50163  18.529  19.111   0.085
81946W        W50164  39.157  16.513  13.780
81947W        W50165  28.475  15.409  10.839
81948W        W50166  24.709  16.076  11.005
81949W        W50167  44.526   9.682   3.818
81950W        W50168  25.267  44.347  10.781
81951W        W50169   2.939   1.049  14.936
81952W        W50170  11.097  23.199  12.968
81953W        W50171   6.203  28.609  11.226
81954W        W50172   8.303   8.338   0.551
81955W        W50173  21.113  31.691   0.999
81956W        W50174   3.345   6.218   1.196
81957W        W50175   2.936  20.190   0.454
81958W        W50176  32.878   2.717   4.526
81959W        W50177  33.855  43.987  14.227
81960W        W50178   9.256  22.139   0.507
81961W        W50179  41.233  23.272  11.270
81962W        W50180  20.544   3.631  11.399
81963W        W50181  31.596  42.744   3.213
81964W        W50182   0.193  31.012  11.673
81965W        W50183  35.534   5.904   1.388
81966W        W50184   4.848  44.319   1.456
81967W        W50185  44.068  37.393  14.463
81968W        W50186  43.396  17.062  13.569
81969W        W50187   6.620  38.146   0.668
81970W        W50188  22.755  12.555   1.472
81971W        W50189  39.502   7.680   3.884
81972W        W50190  24.952  27.691  14.376
81973W        W50191  32.698  21.845  10.376
81974W        W50192  22.651  35.295   1.751
81975W        W50193   0.904   8.585   0.358
81976W        W50194  35.530  14.500  10.787
81977W        W50195  41.672   5.411   0.385
81978W        W50196   9.147  17.341  12.892
81979W        W50197   5.463  28.975  12.429
81980W        W50198  39.382  31.379  13.865
81981W        W50199  13.774  32.749  14.370
81982W        W50200  15.560  37.977  10.778
81983W        W50201  25.667  32.204   3.764
81984W        W50202  18.073  40.728   2.969
81985W        W50203  26.613   4.708   3.000
81986W        W50204  37.844  16.230  13.406
81987W        W50205   4.174  29.497   3.060
81988W        W50206  33.910  40.482  12.283
81989W        W50207   2.571  16.082  11.650
81990W        W50208  16.700  28.874  11.574
81991W        W50209  36.064  10.652   0.808
81992W        W50210  19.975   7.928  13.105
81993W        W50211  13.469  14.321  13.565
81994W        W50212  23.101   6.887   4.987
81995W        W50213  32.082  19.239   4.098
81996W        W50214   8.949  26.906  10.789
81997W        W50215  15.296  43.263  14.839
81998W        W50216  20.727  38.942   1.005
81999W        W50217  21.498  21.796  10.769
82000W        W50218  24.195  37.457   3.374
82001W        W50219  12.537   1.348   4.191
82002W        W50220   5.914  29.015  11.146
82003W        W50221  12.797  44.021  11.210
82004W        W50222  40.512   3.399  12.115
82005W        W50223   1.684  12.614   4.312
82006W        W50224  40.493  39.558  12.947
82007W        W50225  12.226   1.749  14.848
82008W        W50226  44.325  16.227  13.355
82009W        W50227  26.696  37.869   1.263
82010W        W50228  21.485   4.851   4.226
82011W        W50229   8.393  14.102   2.395
82012W        W50230  39.424  13.065   2.776
82013W        W50231  19.225  32.576   2.397
82014W        W50232   6.683  17.302   4.171
82015W        W50233  23.059  28.049   3.263
82016W        W50234  18.589  37.038   4.444
82017W        W50235  15.565  33.513   4.839
82018W        W50236  27.605  27.138  13.062
82019W        W50237  41.876  41.433   0.717
82020W        W50238   3.444   0.734  13.812
82021W        W50239  19.304  24.982  13.229
82022W        W50240   5.769  16.572   0.406
82023W        W50241   0.044  43.820   1.782
82024W        W50242  34.585  16.920   3.086
82025W        W50243  28.389  26.998  13.735
82026W        W50244  37.302  36.424   0.915
82027W        W50245  39.080  20.122   0.779
82028W        W50246  25.184  28.392   1.809
82029W        W50247   7.700   7.894  12.975
82030W        W50248  39.069  38.944   4.072
82031W        W50249  14.048  43.240  13.563
82032W        W50250   7.926  34.806  11.251
82033W        W50251  31.489   3.260   0.425
82034W        W50252  12.779  33.976   1.374
82035W        W50253   1.984  17.031  11.145
82036W        W50254  35.340   0.002   0.482
82037W        W50255  12.089   5.238  11.574
82038W        W50256  42.162  22.323   4.160
82039W        W50257  33.483  32.587   1.475
82040W        W50258  10.441   3.374   5.145
82041W        W50259  40.167   7.274   2.390
82042W        W50260   2.867  22.991   0.225
82043W        W50261   3.444  38.628  11.951
82044W        W50262   4.798   3.996  12.965
82045W        W50263  16.823  20.641  11.223
82046W        W50264  11.748  19.472   3.829
82047W        W50265  33.876  12.806   2.881
82048W        W50266  23.234   4.438   1.237
82049W        W50267   0.935  26.377   0.931
82050W        W50268   7.161  23.561  11.050
82051W        W50269  34.585  37.110  14.219
82052W        W50270  34.924  44.208  11.458
82053W        W50271  36.018  28.383  14.087
82054W        W50272  34.862  12.356  13.301
82055W        W50273   1.055   8.835   2.654
82056W        W50274  41.998  19.630   2.270
82057W        W50275  41.554  25.938  13.143
82058W        W50276   6.335   5.783   4.598
82059W        W50277  44.892   7.560   1.840
82060W        W50278   4.501  25.462   2.301
82061W        W50279  13.260  26.647  11.572
82062W        W50280  36.007  26.081   1.019
82063W        W50281   1.628  30.523  12.530
82064W        W50282  27.731  23.350  12.370
82065W        W50283  22.330  41.520   4.217
82066W        W50284  41.162  13.611   2.577
82067W        W50285   5.013   1.430  14.889
82068W        W50286  35.742  19.209  11.454
82069W        W50287  41.401  28.994  12.411
82070W        W50288  37.812  38.018  14.980
82071W        W50289  42.566  27.218   4.094
82072W        W50290   0.991  36.473  11.783
82073W        W50291  40.755  41.477  11.657
82074W        W50292   1.880  23.483  12.654
82075W        W50293  14.827  11.805  11.749
82076W        W50294  10.996  42.889  12.053
82077W        W50295  29.007  10.829  11.572
82078W        W50296  38.847   1.690  13.423
82079W        W50297  31.157   4.361   3.602
82080W        W50298  29.357   5.344   4.551
82081W        W50299   8.944  42.907  10.628
82082W        W50300  13.514  12.308   1.836
82083W        W50301  14.210   1.446  10.942
82084W        W50302  26.654  38.497   3.470
82085W        W50303  31.872  42.702  12.119
82086W        W50304  25.617  12.741   1.965
82087W        W50305  25.985   1.266   1.867
82088W        W50306  29.436   1.329   3.277
82089W        W50307  18.790  36.285   4.566
82090W        W50308  37.135  18.091  11.469
82091W        W50309  11.280  44.744   3.159
82092W        W50310   3.937  43.725   2.239
82093W        W50311  12.121  39.207  11.543
82094W        W50312  11.630  43.279  11.114
82095W        W50313  38.908  22.282  10.748
82096W        W50314  11.707  41.503  11.933
82097W        W50315  29.920  17.303  12.150
82098W        W50316  13.562  14.256   0.492
82099W        W50317  33.685  24.664   1.466
82100W        W50318   6.899  13.067   1.210
82101W        W50319  33.481   1.195   4.769
82102W        W50320  33.877  26.011   4.331
82103W        W50321   7.616   2.691  11.583
82104W        W50322  27.882  30.946   4.586
82105W        W50323  25.211  13.980   2.347
82106W        W50324  15.486  29.681  14.119
82107W        W50325   2.779   9.205   1.671
82108W        W50326  35.399   7.815  13.506
82109W        W50327  32.109  14.326  12.770
82110W        W50328  11.567  11.681  11.391
82111W        W50329  31.578   8.183  11.191
82112W        W50330  17.957  24.547  12.519
82113W        W50331  18.610   2.616  12.876
82114W        W50332   0.265  11.196  14.807
82115W        W50333  13.239  21.803   2.804
82116W        W50334   7.950   8.954  13.352
82117W        W50335   1.795   9.270  12.912
82118W        W50336   0.977  36.389  13.166
82119W        W50337  12.706  26.512  13.803
82120W        W50338   3.372  17.892   4.187
82121W        W50339  15.717  42.524  13.820
82122W        W50340   5.491   1.464  11.590
82123W        W50341  32.493  14.890   1.475
82124W        W50342  28.454  39.792  13.875
82125W        W50343   2.733   7.090   3.665
82126W        W50344  10.398  33.077  11.987
82127W        W50345  40.882  11.895   3.123
82128W        W50346   4.260  23.996   4.814
82129W        W50347  17.790  29.135  12.499
82130W        W50348  35.669  36.414   1.027
82131W        W50349   2.783  42.073   0.715
82132W        W50350  20.102  15.810   2.210
82133W        W50351  27.307   9.502  14.462
82134W        W50352   9.292   4.946  12.054
82135W        W50353  39.985  34.461   2.267
82136W        W50354  17.570  34.260   4.145
82137W        W50355  44.049  36.841   4.900
82138W        W50356   8.953  12.980  10.383
82139W        W50357  40.808   1.231   0.552
82140W        W50358  15.742   7.303  10.937
82141W        W50359  17.225  17.170  12.090
82142W        W50360  19.315  31.364   2.536
82143W        W50361  23.484  36.367   0.571
82144W        W50362  39.827  40.798  10.978
82145W        W50363   5.217  40.271  14.391
82146W        W50364  21.180  27.168  10.665
82147W        W50365  29.595  28.245  13.350
82148W        W50366  24.635  24.697   1.002
82149W        W50367   3.474   2.033  11.149
82150W        W50368   5.345  41.507   1.688
82151W        W50369  23.472  24.795  10.514
82152W        W50370  22.727  25.783  11.103
82153W        W50371  43.926   1.406  13.790
82154W        W50372  23.467   2.396   2.791
82155W        W50373  41.053  36.886  13.319
82156W        W50374  10.281  44.807   0.252
82157W        W50375  21.798   6.579   3.320
82158W        W50376  41.371  22.282   0.791
82159W        W50377  11.912  31.521  14.485
82160W        W50378  11.273  40.140  14.092
82161W        W50379  26.373  44.523  11.581
82162W        W50380  28.248  16.515   4.069
82163W        W50381  19.860   9.624   2.361
82164W        W50382  29.458   8.925  12.859
82165W        W50383  31.056   2.581  10.687
82166W        W50384  34.319  37.096  10.776
82167W        W50385  10.307  20.577  14.980
82168W        W50386  25.486  32.334   4.590
82169W        W50387  30.713  33.927  14.922
82170W        W50388  44.398  24.260  12.954
82171W        W50389  29.394  11.738  14.027
82172W        W50390  44.508  42.321   1.215
82173W        W50391  14.712  43.250   5.511
82174W        W50392   7.115  40.817   2.654
82175W        W50393  13.793   4.773  10.399
82176W        W50394  21.657  18.690   4.713
82177W        W50395  41.984   5.299  13.525
82178W        W50396  21.439  34.744   0.168
82179W        W50397  42.597  42.494  12.509
82180W        W50398  38.601  41.413   1.889
82181W        W50399  12.602  40.397  14.138
82182W        W50400  28.989  25.215  13.881
82183W        W50401  30.692  15.609  13.998
82184W        W50402  16.259  41.257   2.458
82185W        W50403  26.082  26.510  13.849
82186W        W50404  13.087   7.363  12.442
82187W        W50405   8.723  37.104   2.328
82188W        W50406   0.889   1.501   3.333
82189W        W50407  17.571  31.314   0.282
82190W        W50408   7.679   6.717  14.467
82191W        W50409  44.096   8.733  13.932
82192W        W50410  38.936   9.131  10.806
82193W        W50411   6.409   4.632  12.435
82194W        W50412  27.825  27.534  14.881
82195W        W50413  28.740  38.014   0.733
82196W        W50414  18.471  42.402  11.011
82197W        W50415  32.713  38.536   2.724
82198W        W50416  34.935   2.794   3.283
82199W        W50417  39.970  16.772   2.792
82200W        W50418  13.328  26.415  12.099
82201W        W50419  39.394  37.830  12.852
82202W        W50420  10.667  16.770   3.424
82203W        W50421   1.748  36.141   3.455
82204W        W50422  16.491   0.792  10.628
82205W        W50423  15.762  42.294   0.844
82206W        W50424  11.065  30.640   0.140
82207W        W50425  43.390  13.270   1.302
82208W        W50426  18.985  43.045   9.829
82209W        W50427  29.740  38.939   5.262
82210W        W50428  25.573   3.018  10.768
82211W        W50429  18.554  30.948   4.775
82212W        W50430  14.629  10.782   0.683
82213W        W50431   4.220  17.457   4.608
82214W        W50432  19.232   6.939  11.105
82215W        W50433   4.033  10.629  12.358
82216W        W50434   2.448  10.372   2.322
82217W        W50435  22.953  29.302   9.994
82218W        W50436  44.255  30.238   1.716
82219W        W50437  14.208  43.404   4.622
82220W        W50438   7.845   3.159   4.645
82221W        W50439  39.213  42.887  11.190
82222W        W50440  12.686  33.168   2.704
82223W        W50441  38.795  18.089   1.384
82224W        W50442   8.632   9.690  12.499
82225W        W50443   5.343  33.672  11.597
82226W        W50444   0.486  44.931   1.373
82227W        W50445  42.998   1.289  14.250
82228W        W50446  23.753  40.746  14.874
82229W        W50447  29.325  39.387  14.698
82230W        W50448  33.444   3.857  10.444
82231W        W50449  10.709  24.265  11.890
82232W        W50450  37.894  28.407  11.642
82233W        W50451   9.651  35.010  13.451
82234W        W50452  33.597  40.747  13.276
82235W        W50453  21.693  13.529  12.925
82236W        W50454  36.498  10.175   2.160
82237W        W50455   3.150  18.773   1.937
82238W        W50456   5.685  21.107   0.039
82239W        W50457  12.496  44.025   2.648
82240W        W50458  42.455  37.111   2.715
82241W        W50459  24.768  15.015   0.766
82242W        W50460  15.668  44.779   0.857
82243W        W50461  26.586  10.769   1.249
82244W        W50462   4.248  23.230  12.529
82245W        W50463  11.692  19.337   4.360
82246W        W50464  42.336  11.806  14.643
82247W        W50465  22.376  17.697  11.999
82248W        W50466  22.174  35.602   2.211
82249W        W50467  15.623  41.820  11.975
82250W        W50468  33.550  35.389  12.347
82251W        W50469  34.512   4.313  12.011
82252W        W50470   4.839  12.562  12.068
82253W        W50471  38.828  39.916   0.221
82254W        W50472   2.007  37.860  12.586
82255W        W50473  21.193  43.330   3.029
82256W        W50474   0.012  30.041  13.475
82257W        W50475   7.156  24.394   0.334
82258W        W50476   7.703  30.457  13.523
82259W        W50477  21.271  34.389   2.231
82260W        W50478  14.550  29.949   0.450
82261W        W50479  39.464   0.424   4.105
82262W        W50480   4.367  44.973  13.515
82263W        W50481  26.625   3.758   4.227
82264W        W50482   7.910  26.614   3.224
82265W        W50483   0.808  19.849  14.683
82266W        W50484  29.708  30.544   1.734
82267W        W50485  38.895  31.590  13.824
82268W        W50486   3.416  11.472   3.571
82269W        W50487  43.984  13.601   2.414
82270W        W50488  19.132  33.914   3.080
82271W        W50489   6.216  16.480   4.898
82272W        W50490  32.634  39.058  12.948
82273W        W50491  12.585  43.763   1.356
82274W        W50492  41.926  13.815  10.789
82275W        W50493  18.003  22.175  12.670
82276W        W50494   5.794  16.780  12.171
82277W        W50495  21.053  21.716  11.599
82278W        W50496  13.255  32.919  14.088
82279W        W50497  23.475   0.803  13.371
82280W        W50498  33.764  37.399  12.318
82281W        W50499  10.879   5.188  13.855
82282W        W50500  35.748   2.720   1.818
82283W        W50501  22.677  39.773  11.783
82284W        W50502  36.873  14.206  14.469
82285W        W50503  24.756  33.187   4.847
82286W        W50504  11.728   4.922  12.187
82287W        W50505  40.084  20.476  12.166
82288W        W50506  33.878  36.040  11.669
82289W        W50507   2.360  33.503  11.190
82290W        W50508  29.785  14.216   2.399
82291W        W50509   5.662   0.792  12.588
82292W        W50510   0.441   6.674   1.787
82293W        W50511  38.968  10.627  14.061
82294W        W50512  41.685   5.440   2.216
82295W        W50513  14.166  16.848  11.517
82296W        W50514  38.411  17.022   0.378
82297W        W50515  29.584  33.438   1.377
82298W        W50516  10.417  15.533   0.317
82299W        W50517  42.591  37.539   3.507
82300W        W50518  24.022  23.002   2.807
82301W        W50519  24.147  18.134  12.558
82302W        W50520  38.866  10.503  13.527
82303W        W50521  21.599  15.440   2.349
82304W        W50522  44.974   9.460   3.692
82305W        W50523  36.555  34.995   2.272
82306W        W50524   7.811  41.931  11.514
82307W        W50525  39.831  40.020  11.895
82308W        W50526  30.567  13.487  11.105
82309W        W50527  40.274   0.283  14.525
82310W        W50528  41.408  39.111  11.568
82311W        W50529   9.352  33.866  14.350
82312W        W50530  40.343  13.617  14.787
82313W        W50531   7.455  41.796  13.627
82314W        W50532   4.496  36.927   3.651
82315W        W50533   7.201  40.128  11.709
82316W        W50534  40.874  11.061   3.779
82317W        W50535   9.510  35.543  11.505
82318W        W50536   0.216  26.856  13.437
82319W        W50537  43.540  38.555   2.389
82320W        W50538   2.511  41.807   2.922
82321W        W50539  27.156  26.122   1.422
82322W        W50540  40.369   5.692  13.349
82323W        W50541  16.678  20.026  13.885
82324W        W50542  10.069  41.898   3.232
82325W        W50543  31.132  22.308   1.281
82326W        W50544   2.301   7.272  14.966
82327W        W50545  41.895  34.071  11.857
82328W        W50546  32.975  26.860   1.130
82329W        W50547   2.319   3.976   0.388
82330W        W50548  19.717  35.314  12.069
82331W        W50549  20.673  28.102  11.572
82332W        W50550   6.219  38.422   2.308
82333W        W50551  11.941  23.907  14.316
82334W        W50552  28.107   5.657   0.853
82335W        W50553  37.254   6.767   3.732
82336W        W50554  23.036  41.961   1.438
82337W        W50555  24.937  15.303  11.997
82338W        W50556  21.743  18.060  14.271
82339W        W50557   1.719   3.769  13.907
82340W        W50558  35.306  23.440   3.196
82341W        W50559   0.149   7.937   4.069
82342W        W50560  11.369  35.919  13.507
82343W        W50561   4.394   5.431  11.524
82344W        W50562  29.604  26.273  11.961
82345W        W50563  43.236   4.646  14.362
82346W        W50564  11.168  38.191  10.606
82347W        W50565  42.476   0.774  11.938
82348W        W50566   2.268  15.481   3.612
82349W        W50567   2.722  33.219   1.262
82350W        W50568  28.305  11.717  14.724
82351W        W50569  33.629  25.802   0.862
82352W        W50570   4.679   0.811   2.643
82353W        W50571  24.063   6.852   3.552
82354W        W50572  15.570  10.018  11.748
82355W        W50573  42.835  18.060  14.348
82356W        W50574  41.272  29.394   2.703
82357W        W50575  34.921  29.233   1.757
82358W        W50576  41.016  18.549  12.093
82359W        W50577  38.931  39.524   2.906
82360W        W50578  27.466  22.460   3.245
82361W        W50579  36.422  21.634  12.710
82362W        W50580  31.469  36.904  13.779
82363W        W50581  23.952   8.763  13.916
82364W        W50582   8.693  35.581  11.953
82365W        W50583   6.685  25.234   4.102
82366W        W50584  21.114  37.584  14.360
82367W        W50585  15.755  18.140   3.405
82368W        W50586  14.271   9.365   0.309
82369W        W50587  38.295  19.856   4.543
82370W        W50588  11.177   7.278   4.040
82371W        W50589   5.903  23.230  13.058
82372W        W50590  42.843  35.656  10.646
82373W        W50591  19.464   6.259   4.880
82374W        W50592   7.596  31.121   2.339
82375W        W50593  16.265  37.084   0.412
82376W        W50594   2.454   0.292  14.793
82377W        W50595  13.694  24.207  12.159
82378W        W50596  25.656  12.826   3.623
82379W        W50597  41.195   3.452  14.257
82380W        W50598   6.391   6.650   0.768
82381W        W50599  21.219  25.794  14.252
82382W        W50600  30.668  42.692   3.283
82383W        W50601  43.043   1.707  13.954
82384W        W50602  13.313   5.634   0.891
82385W        W50603   2.862  29.499  10.729
82386W        W50604  23.718  11.798  13.552
82387W        W50605  37.833   8.763  10.248
82388W        W50606  38.270  20.142  12.849
82389W        W50607   1.221  39.337  14.389
82390W        W50608  36.921  41.396  13.292
82391W        W50609  15.038  11.776  13.309
82392W        W50610  32.081  16.980  10.344
82393W        W50611  30.544   7.799  12.803
82394W        W50612  41.059   3.355  11.536
82395W        W50613  31.416  27.413   0.783
82396W        W50614  19.977  26.429   1.352
82397W        W50615  31.120  32.091  14.844
82398W        W50616   4.175  11.582  14.070
82399W        W50617   5.438  25.688  11.028
82400W        W50618  38.587  30.511   5.041
82401W        W50619  20.987  18.168   0.752
82402W        W50620  26.822   7.834   1.820
82403W        W50621   0.416  18.984  11.428
82404W        W50622  10.425  17.403  11.497
82405W        W50623  27.401  15.333  12.930
82406W        W50624   7.021  17.655   4.030
82407W        W50625  32.544   5.494  14.368
82408W        W50626   8.366   9.788   2.201
82409W        W50627   1.499  19.984  11.512
82410W        W50628  17.039  44.962  12.964
82411W        W50629  43.503  38.433   4.608
82412W        W50630  40.392  32.076   4.818
82413W        W50631   0.874   7.281   1.238
82414W        W50632  34.181  12.306   1.338
82415W        W50633  40.580  26.096   3.215
82416W        W50634  21.268  25.000   3.410
82417W        W50635  31.948  43.543   0.076
82418W        W50636  36.958  26.564   1.819
82419W        W50637  38.129  35.762   5.105
82420W        W50638  35.178  23.463  11.404
82421W        W50639   2.376  27.873  13.346
82422W        W50640   1.914  16.181   2.644
82423W        W50641   1.470   9.793  14.409
82424W        W50642  11.861  13.038   1.406
82425W        W50643  38.387  40.319  13.003
82426W        W50644  33.098  19.634  14.311
82427W        W50645  11.646  22.752   0.820
82428W        W50646  43.048  35.647   0.507
82429W        W50647  21.046  27.116   1.432
82430W        W50648  13.500  36.387  11.097
82431W        W50649  21.927  14.009   4.945
82432W        W50650  26.607  35.731   1.800
82433W        W50651  35.349   1.262   2.041
82434W        W50652  32.864  30.358  14.830
82435W        W50653  14.720   5.981  14.274
82436W        W50654  13.161  17.522  11.041
82437W        W50655  24.642  19.473   3.925
82438W        W50656  38.517   4.547   2.308
82439W        W50657  31.667   4.699   0.782
82440W        W50658  42.856   5.369   4.100
82441W        W50659  24.923   9.290  11.163
82442W        W50660  33.095  17.061  11.580
82443W        W50661  20.240  31.149  12.382
82444W        W50662  32.567  17.877  10.700
82445W        W50663  42.875  35.343  13.045
82446W        W50664  32.230  24.676   3.337
82447W        W50665  14.171  18.558  13.544
82448W        W50666  36.006  13.757  10.852
82449W        W50667   0.295  18.235   2.334
82450W        W50668  11.829  21.584   1.244
82451W        W50669  43.188   6.264  14.981
82452W        W50670  20.152  29.574  14.615
82453W        W50671  28.164  26.444   4.772
82454W        W50672  18.983  13.588  13.955
82455W        W50673  29.139  15.747  14.989
82456W        W50674  30.819  42.803  10.371
82457W        W50675   5.951  33.977  11.078
82458W        W50676  12.129  37.137   1.313
82459W        W50677   9.824   8.675   3.630
82460W        W50678   1.752  11.923   1.186
82461W        W50679  14.712   7.946  12.033
82462W        W50680  10.397  30.569  13.548
82463W        W50681  11.618  35.896   1.948
82464W        W50682  17.196   7.371   4.533
82465W        W50683   3.902   1.442   1.794
82466W        W50684   0.739  42.021   3.004
82467W        W50685  31.524  31.417  11.959
82468W        W50686  24.667   2.476   4.802
82469W        W50687  43.512  13.607   0.360
82470W        W50688  33.210   4.871  12.819
82471W        W50689  23.548  25.659  14.012
82472W        W50690  34.105  43.835   3.161
82473W        W50691  11.343  28.083   3.173
82474W        W50692  23.666  28.666   1.375
82475W        W50693  17.292  42.846  10.832
82476W        W50694  25.699   8.630  14.446
82477W        W50695  40.023  38.188  13.398
82478W        W50696  25.951  34.880  12.141
82479W        W50697  22.777  36.328  11.224
82480W        W50698   6.844  36.428   2.737
82481W        W50699   5.846  30.397   2.109
82482W        W50700  13.364  38.482  10.499
82483W        W50701  38.466  31.933   0.504
82484W        W50702  15.316  34.558   2.921
82485W        W50703  24.971  32.754   2.161
82486W        W50704  27.537  29.727   1.724
82487W        W50705  22.840   2.333   1.268
82488W        W50706   0.876  24.973  13.839
82489W        W50707   0.966  37.261  12.058
82490W        W50708   3.178  39.015   5.041
82491W        W50709  26.178  29.651  14.094
82492W        W50710   2.938  14.667   0.010
82493W        W50711  15.343  21.177   1.159
82494W        W50712   1.309  19.161  14.867
82495W        W50713   6.642   5.495   0.800
82496W        W50714  20.201  27.924   1.658
82497W        W50715  37.325  33.449  13.972
82498W        W50716  20.493  14.763   0.519
82499W        W50717  37.428   3.729  14.881
82500W        W50718  24.724  17.772  11.206
82501W        W50719  38.474  40.810  14.192
82502W        W50720   5.804   4.176   0.463
82503W        W50721  25.598  29.896  13.608
82504W        W50722  18.471  11.138  10.769
82505W        W50723  32.222  18.246  10.782
82506W        W50724  20.180  10.201   1.330
82507W        W50725  27.372  39.941   5.020
82508W        W50726  22.776  32.971  12.075
82509W        W50727  11.812  11.272   2.713
82510W        W50728  22.166  16.756   0.180
82511W        W50729  27.404  31.479   2.210
82512W        W50730  23.912  21.915  11.612
82513W        W50731  30.115   2.704  11.841
82514W        W50732  23.106  34.600   0.454
82515W        W50733  26.408  18.696   0.006
82516W        W50734  28.951  19.265   4.262
82517W        W50735  16.631  26.495  12.449
82518W        W50736  12.991  36.086   9.901
82519W        W50737   6.930  16.518  13.315
82520W        W50738  37.472  19.604   2.245
82521W        W50739   0.166  30.493   0.828
82522W        W50740  22.126  37.144   4.637
82523W        W50741  19.695   7.912  12.072
82524W        W50742  17.467  38.343   4.650
82525W        W50743  29.395  39.455   2.380
82526W        W50744  12.324  35.668  10.879
82527W        W50745  44.225  44.299   0.801
82528W        W50746  40.675  43.808  14.409
82529W        W50747  21.710  29.406   3.533
82530W        W50748   0.404   0.570  13.816
82531W        W50749  17.653  10.630   3.073
82532W        W50750  32.145  12.904   1.293
82533W        W50751  14.834  14.019  10.962
82534W        W50752   7.151  31.489  12.615
82535W        W50753   0.662  31.082  13.889
82536W        W50754  14.675  27.203   3.778
82537W        W50755  36.277   1.405  11.600
82538W        W50756  43.286  16.828  11.096
82539W        W50757  35.397  32.565  13.096
82540W        W50758  15.570   9.305  10.759
82541W        W50759   0.745  10.273  13.467
82542W        W50760  24.057  34.396   2.844
82543W        W50761   7.597  44.878  13.424
82544W        W50762  19.068  37.924  14.058
82545W        W50763   9.663   4.705   0.256
82546W        W50764  36.575   0.638   3.246
82547W        W50765  15.166  12.442   3.215
82548W        W50766   3.979  18.118   4.870
82549W        W50767  38.740  37.096   5.165
82550W        W50768  29.607  15.718  12.328
82551W        W50769  14.814  37.950  13.760
82552W        W50770  24.903   1.441   1.826
82553W        W50771  26.995  41.826  11.174
82554W        W50772  29.093  19.195  14.481
82555W        W50773  14.350  30.864   5.124
82556W        W50774  22.667  17.719   2.792
82557W        W50775   6.119  12.774   3.218
82558W        W50776   2.967  44.861   0.748
82559W        W50777  33.812  18.122   1.920
82560W        W50778  32.458  24.696  11.147
82561W        W50779  26.620  37.906  11.543
82562W        W50780  28.698  13.128  13.953
82563W        W50781  28.602  43.071   0.983
82564W        W50782  22.194  21.254  14.811
82565W        W50783  26.955   6.150  11.940
82566W        W50784   3.764  20.539   0.674
82567W        W50785   4.818   6.908   4.597
82568W        W50786   1.704   1.731  10.773
82569W        W50787  40.202  33.501  14.495
82570W        W50788  25.688   5.426  12.082
82571W        W50789  14.596   0.218   2.158
82572W        W50790  42.866  34.455  10.587
82573W        W50791  10.332  24.001   1.455
82574W        W50792  17.898   9.122  12.057
82575W        W50793  37.571  20.852  11.705
82576W        W50794  26.960  13.797   1.248
82577W        W50795  43.111  18.644   5.069
82578W        W50796  22.524  14.366  14.830
82579W        W50797  10.591  35.833   2.265
82580W        W50798  18.687  25.437  12.732
82581W        W50799  15.823   1.740  13.441
82582W        W50800  28.714  44.214  10.012
82583W        W50801  42.910  24.941  14.556
82584W        W50802  44.278  19.232  11.042
82585W        W50803  16.181  26.314   4.110
82586W        W50804  23.827  43.525   3.191
82587W        W50805  31.450  26.533  12.568
82588W        W50806  20.720  39.300  12.015
82589W        W50807  17.107  13.177   2.194
82590W        W50808  15.128  29.213  11.706
82591W        W50809  31.370  38.288   4.622
82592W        W50810  23.185  28.561   3.361
82593W        W50811  23.688  34.904   3.750
82594W        W50812   7.898  28.962  11.591
82595W        W50813  20.046  13.757   3.309
82596W        W50814  33.564  29.659   2.409
82597W        W50815  25.588  14.611   1.805
82598W        W50816   3.244   0.950  13.386
82599W        W50817  10.361  15.422   3.018
82600W        W50818  33.043  16.550   2.910
82601W        W50819  19.930  15.289   2.829
82602W        W50820  36.020  31.695   0.275
82603W        W50821  29.877  38.527   2.428
82604W        W50822  41.448  11.403   1.886
82605W        W50823  19.712  26.959   2.796
82606W        W50824  19.973  14.561   3.982
82607W        W50825  18.658  44.341  11.924
82608W        W50826   7.630  12.162  12.063
82609W        W50827  22.730  19.795   3.571
82610W        W50828  31.443   5.220  12.076
82611W        W50829  35.617  40.434  12.557
82612W        W50830  15.407   0.803  14.060
82613W        W50831   4.320  41.794   3.070
82614W        W50832  42.373  43.805   1.163
82615W        W50833  36.499  14.426  13.354
82616W        W50834   5.663  38.504   3.273
82617W        W50835   0.854   7.181  10.047
82618W        W50836  15.162   1.445  10.602
82619W        W50837  21.642  40.080  13.045
82620W        W50838  18.862   4.628  14.778
82621W        W50839  19.116  39.880  11.929
82622W        W50840  12.654  24.180  14.912
82623W        W50841  13.607  42.314  10.716
82624W        W50842  44.569  40.273   3.563
82625W        W50843   9.373  12.319  12.130
82626W        W50844  37.888  33.672  11.679
82627W        W50845  11.693  28.025  14.386
82628W        W50846  36.079  43.268  11.777
82629W        W50847   3.969  20.239   4.098
82630W        W50848  34.829  31.333  13.771
82631W        W50849  22.295  20.559   3.662
82632W        W50850  31.050  12.949   2.289
82633W        W50851  41.360  14.576  13.423
82634W        W50852   4.293  14.118   3.744
82635W        W50853  28.737  23.404  10.015
82636W        W50854  21.136  10.417  12.032
82637W        W50855  40.786  16.586  11.132
82638W        W50856   3.452   6.524   4.092
82639W        W50857  42.061  37.575  12.099
82640W        W50858  18.408   1.385   3.121
82641W        W50859  12.638  35.465  12.062
82642W        W50860  39.368  23.206  11.478
82643W        W50861  18.058  40.842  14.040
82644W        W50862  28.681  30.369  11.349
82645W        W50863  18.721  23.653  11.496
82646W        W50864  23.402  34.044  11.128
82647W        W50865  43.357  42.435   0.010
82648W        W50866   9.476  35.082  14.003
82649W        W50867   4.030  27.505  13.895
82650W        W50868  24.976  12.637  12.560
82651W        W50869  33.616  30.186  11.289
82652W        W50870   7.791  33.709  12.023
82653W        W50871  21.071  26.806  10.302
82654W        W50872   7.658  15.071   1.087
82655W        W50873  24.926  23.393   1.106
82656W        W50874   0.206  11.760  13.535
82657W        W50875   6.203  15.308  14.034
82658W        W50876  19.791  41.857   0.560
82659W        W50877  23.196  27.155   2.820
82660W        W50878  36.632  26.560   0.671
82661W        W50879  27.253  18.696   4.118
82662W        W50880  21.172  21.800   3.771
82663W        W50881  11.030  19.191   2.837
82664W        W50882   8.908  21.766  13.485
82665W        W50883  34.397  22.950   1.255
82666W        W50884  11.839  11.897   3.262
82667W        W50885  41.243  11.625   2.867
82668W        W50886  34.442   9.157  12.474
82669W        W50887  39.538  31.866   1.834
82670W        W50888  31.108   2.195  11.109
82671W        W50889   8.034  33.122   4.192
82672W        W50890  40.821  23.851  13.844
82673W        W50891   0.904  22.970  14.899
82674W        W50892   2.035   8.757  13.038
82675W        W50893  15.215  30.504   3.456
82676W        W50894  10.336  14.763  12.541
82677W        W50895   0.549  32.805   1.923
82678W        W50896   6.666  37.322   0.114
82679W        W50897  15.478  32.995  12.988
82680W        W50898  29.238  41.904   0.334
82681W        W50899  41.493   8.359  13.875
82682W        W50900  15.188  23.677   0.409
82683W        W50901  34.065   3.262  13.042
82684W        W50902  17.886  31.597   2.809
82685W        W50903  11.761   6.151   5.100
82686W        W50904  26.217  15.369  11.538
82687W        W50905  33.752  37.337   3.319
82688W        W50906  23.548  15.360   2.439
82689W        W50907  32.498  20.302  14.769
82690W        W50908  25.760  40.437  12.744
82691W        W50909  41.538  16.554  11.494
82692W        W50910  33.506  20.101   4.635
82693W        W50911  13.135  43.847   9.755
82694W        W50912  18.690   3.596   0.205
82695W        W50913   4.738  29.278  11.735
82696W        W50914   2.813  12.091   2.666
82697W        W50915  17.574  28.033  12.887
82698W        W50916  18.423  32.923  13.927
82699W        W50917  29.455  16.761  13.354
82700W        W50918   9.372  44.282  11.562
82701W        W50919  38.962   4.278  12.181
82702W        W50920  41.807  40.425  11.072
82703W        W50921  18.739  27.544  13.583
82704W        W50922   9.782   9.431   1.506
82705W        W50923  27.577  28.713   1.993
82706W        W50924  20.302  26.114  13.836
82707W        W50925  24.052  39.927  12.644
82708W        W50926  35.680  11.053   2.740
82709W        W50927  17.681  20.684  11.384
82710W        W50928   4.297  26.389   0.381
82711W        W50929  15.289   7.523   2.502
82712W        W50930   8.639  39.693  14.962
82713W        W50931  26.051  21.318  11.231
82714W        W50932  25.611  30.696  10.672
82715W        W50933  18.950  18.971   0.349
82716W        W50934   8.966  17.814  13.029
82717W        W50935  21.714  43.373   0.882
82718W        W50936   5.685  37.435  14.781
82719W        W50937  39.731  21.075  12.971
82720W        W50938  44.759  40.842   2.453
82721W        W50939  36.915  11.121   1.645
82722W        W50940  23.414  16.202   0.287
82723W        W50941  43.756  23.682  13.079
82724W        W50942  33.522  11.475   3.646
82725W        W50943   0.323  20.596   3.820
82726W        W50944   7.831  11.972   3.340
82727W        W50945  16.209  37.096   3.963
82728W        W50946   4.738  26.897   1.385
82729W        W50947  44.817   4.971  12.602
82730W        W50948  29.250  32.959  12.397
82731W        W50949  18.097   2.955   2.481
82732W        W50950  33.922  34.941   4.242
82733W        W50951  44.323  13.678   2.893
82734W        W50952  21.125  18.936   3.356
82735W        W50953  38.098   2.964  12.979
82736W        W50954  19.763  27.745   4.131
82737W        W50955  16.579  19.324  11.559
82738W        W50956  34.690  41.794   3.218
82739W        W50957  42.558  37.591  10.871
82740W        W50958   0.493   0.845  11.627
82741W        W50959  43.941  37.998   2.381
82742W        W50960  19.795  39.999  12.493
82743W        W50961  31.193  42.750   3.987
82744W        W50962  33.395   1.298   1.857
82745W        W50963  18.727  22.554   2.871
82746W        W50964  34.106  29.738   4.093
82747W        W50965  37.900   4.495  14.788
82748W        W50966  34.582  20.644   1.301
82749W        W50967   8.775  11.081   3.587
82750W        W50968  30.424   8.281  12.020
82751W        W50969  17.698  40.956   2.263
82752W        W50970   1.083  22.802   2.255
82753W        W50971  16.387  39.694   3.346
82754W        W50972   7.884  27.128   4.463
82755W        W50973  31.269  10.137  13.359
82756W        W50974  41.975  40.209  10.628
82757W        W50975  24.118   5.642   0.438
82758W        W50976  34.250  37.329   4.089
82759W        W50977  18.125  17.529  13.907
82760W        W50978  28.096  29.898   4.639
82761W        W50979  20.244  30.451   4.525
82762W        W50980  24.107   7.518  10.214
82763W        W50981  41.842  33.017  10.733
82764W        W50982  30.769  40.485  11.630
82765W        W50983  13.199   9.360  11.070
82766W        W50984  30.224  33.620   1.783
82767W        W50985  19.197  22.984   4.610
82768W        W50986  24.125  15.491   4.140
82769W        W50987  27.037  39.461  12.107
82770W        W50988   5.876   0.317   2.027
82771W        W50989  14.273  26.939   2.849
82772W        W50990  40.270  16.593  11.183
82773W        W50991  27.117  22.280  14.304
82774W        W50992   2.527   8.271   1.368
82775W        W50993   4.318  16.461   0.069
82776W        W50994  27.582  44.728   0.695
82777W        W50995   1.116  37.093  13.840
82778W        W50996  16.074  38.006   2.498
82779W        W50997   3.984  22.989  11.897
82780W        W50998  39.594  34.615  10.492
82781W        W50999  39.901   5.703   2.699
82782W        W51000  12.784  37.578  10.895
82783W        W51001  29.003  28.469   4.549
82784W        W51002  27.243  28.540  14.761
82785W        W51003  24.366  10.093   2.183
82786W        W51004  16.861  32.423   0.529
82787W        W51005  21.229  20.233  13.294
82788W        W51006  33.576  38.932   2.746
82789W        W51007   6.232  39.951  12.016
82790W        W51008   3.811  14.163  10.758
82791W        W51009  41.348  27.511  13.992
82792W        W51010  41.939  10.698   1.711
82793W        W51011   0.201  36.667  13.556
82794W        W51012  42.966  39.949  11.930
82795W        W51013  33.057  11.856  14.067
82796W        W51014  21.669  26.633  11.126
82797W        W51015  12.209  28.703   1.103
82798W        W51016  28.949  29.762   2.765
82799W        W51017  32.839  21.747   2.756
82800W        W51018  34.071  24.040   3.412
82801W        W51019   8.629   0.135  12.988
82802W        W51020   2.626  29.020  11.458
82803W        W51021  23.804  30.919  12.069
82804W        W51022  44.336  38.120   0.936
82805W        W51023  39.450   8.884   4.697
82806W        W51024  42.882  18.145  14.893
82807W        W51025  41.630  19.488  13.533
82808W        W51026  30.597   5.183  11.511
82809W        W51027   2.896  38.894  13.816
82810W        W51028  37.995  38.403  14.281
82811W        W51029  38.949   7.181   0.558
82812W        W51030  42.736   5.972  12.003
82813W        W51031   1.657  37.146  13.923
82814W        W51032  30.203  38.722   4.157
82815W        W51033  37.357  27.022  11.439
82816W        W51034  11.806  38.041   4.741
82817W        W51035  32.183  12.450   4.440
82818W        W51036  21.264  37.872   0.208
82819W        W51037  14.054  20.991   3.934
82820W        W51038  32.192   0.315  14.848
82821W        W51039   7.947  21.172   2.763
82822W        W51040  27.151  14.282  10.281
82823W        W51041  20.694   0.748  10.438
82824W        W51042  20.191   5.105   1.352
82825W        W51043  10.897  41.264  11.511
82826W        W51044  44.963  26.149   3.072
82827W        W51045  13.175  41.342   3.725
82828W        W51046  12.997   9.105   0.480
82829W        W51047  32.898  20.814   0.357
82830W        W51048  29.677  15.199   0.732
82831W        W51049  43.765  23.033  14.209
82832W        W51050  31.553  12.818   0.980
82833W        W51051  42.531  12.594  11.427
82834W        W51052   0.888   4.896   1.733
82835W        W51053  40.947  37.005  13.792
82836W        W51054  19.272  23.195   0.231
82837W        W51055  16.616  37.508   0.431
82838W        W51056   4.873  34.888  12.863
82839W        W51057   5.962  30.226  11.721
82840W        W51058   6.461  26.502  14.546
82841W        W51059  15.309  25.714  14.861
82842W        W51060  18.360   1.758   2.308
82843W        W51061   9.294  32.567  12.530
82844W        W51062  30.868  26.515   3.212
82845W        W51063   6.516  16.426  11.217
82846W        W51064  23.819  17.130   4.691
82847W        W51065  35.316  32.129   0.283
82848W        W51066  41.712  10.579  12.060
82849W        W51067   1.768  15.337   3.612
82850W        W51068  34.529  28.588  13.575
82851W        W51069  27.950  12.425  12.504
82852W        W51070  37.517   3.266   2.477
82853W        W51071   3.185  39.140  11.019
82854W        W51072  44.443   3.729   1.444
82855W        W51073  32.797  19.257   2.592
82856W        W51074   3.428  21.493  13.903
82857W        W51075  11.311  19.227   4.020
82858W        W51076  38.639  27.169   4.541
82859W        W51077  18.653   5.997  13.819
82860W        W51078   4.203   6.802   3.666
82861W        W51079  34.408  23.192  13.503
82862W        W51080   8.871  40.047   0.275
82863W        W51081  32.886  25.505  13.025
82864W        W51082  12.756  27.103   0.042
82865W        W51083  30.110  28.132   2.264
82866W        W51084  19.933   0.489  10.910
82867W        W51085  23.072  23.614   1.255
82868W        W51086  18.595  31.430  11.614
82869W        W51087  25.345  20.301  11.357
82870W        W51088  21.637  29.045   0.373
82871W        W51089  32.637  14.298   4.402
82872W        W51090  15.139   3.136  12.552
82873W        W51091  28.644   2.454  11.036
82874W        W51092  42.915  34.003  12.338
82875W        W51093  30.073  15.726  13.003
82876W        W51094  28.462   1.288  12.528
82877W        W51095  34.897   5.292  10.935
82878W        W51096  31.505  19.729   2.856
82879W        W51097  10.811   9.274   2.821
82880W        W51098  39.101   3.905  12.531
82881W        W51099   6.652  31.722  14.368
82882W        W51100   9.325  12.896   2.165
82883W        W51101  21.933   3.740  10.315
82884W        W51102  42.920  38.414   2.963
82885W        W51103  35.116  20.554  10.629
82886W        W51104  30.123  38.518  14.601
82887W        W51105  30.485   6.611  11.525
82888W        W51106   8.306  31.644  11.470
82889W        W51107  37.560  42.474  14.640
82890W        W51108  35.434  40.905   4.694
82891W        W51109  18.402  41.839   5.051
82892W        W51110  15.065  33.485   4.952
82893W        W51111  26.969  10.393   1.437
82894W        W51112  43.076  42.296   3.875
82895W        W51113  40.882  22.975  13.326
82896W        W51114  21.157  42.407   3.593
82897W        W51115   3.666  33.313   2.652
82898W        W51116  32.086  13.108   3.087
82899W        W51117  30.592  25.040   4.172
82900W        W51118  37.419  36.099  10.816
82901W        W51119   7.709   0.311  10.775
82902W        W51120  30.434  24.301   2.894
82903W        W51121  37.265  25.059  10.036
82904W        W51122   7.284  39.988   0.434
82905W        W51123  19.010  19.590   2.415
82906W        W51124  11.140  44.437   4.186
82907W        W51125  13.384  40.481   1.646
82908W        W51126  21.722  23.025  11.363
82909W        W51127  21.229  43.779   2.360
82910W        W51128  16.811  26.964  14.338
82911W        W51129   6.893  32.904  14.789
82912W        W51130  31.630   5.192   3.265
82913W        W51131   2.291  14.732  12.308
82914W        W51132  21.074  40.563   1.490
82915W        W51133  22.645   4.720  14.539
82916W        W51134  15.699  28.635  13.290
82917W        W51135   2.966  31.875   1.664
82918W        W51136  12.702  20.301  14.016
82919W        W51137  39.136  25.117  14.036
82920W        W51138  18.014  13.574  11.357
82921W        W51139  38.982   0.217  13.801
82922W        W51140  17.831  20.776   1.754
82923W        W51141  13.390   3.747   1.876
82924W        W51142  15.402  39.390   0.328
82925W        W51143  20.680  26.498   3.700
82926W        W51144  37.202  11.661  11.023
82927W        W51145  40.818   2.761  12.500
82928W        W51146  18.361  31.350   2.894
82929W        W51147  21.184  20.678   2.169
82930W        W51148   7.135  29.991  13.608
82931W        W51149  44.736  27.051   0.677
82932W        W51150  41.465  24.801  12.956
82933W        W51151  21.679  32.948   4.839
82934W        W51152   7.183  17.800   0.345
82935W        W51153  10.675   5.154   3.595
82936W        W51154  15.031   3.280  12.052
82937W        W51155  30.184   4.225  11.906
82938W        W51156  42.909  39.115  11.551
82939W        W51157  21.773  27.976  14.801
82940W        W51158  25.066  39.717  14.093
82941W        W51159  15.316  40.589  11.184
82942W        W51160  27.353   7.372  12.010
82943W        W51161  26.709  10.155   1.872
82944W        W51162  15.857  30.698  11.130
82945W        W51163   0.279   6.681  13.581
82946W        W51164  40.853  22.205   0.511
82947W        W51165   4.077  27.544   3.212
82948W        W51166  10.572   7.446  12.118
82949W        W51167  26.227  20.523   0.732
82950W        W51168  42.482   6.675  14.483
82951W        W51169   7.708  15.643  10.433
82952W        W51170   4.262  22.502   4.747
82953W        W51171  25.442  14.129  13.550
82954W        W51172  42.134  37.349   3.646
82955W        W51173   2.808   2.378   1.128
82956W        W51174  21.913  36.337   0.527
82957W        W51175  35.366  33.907   4.361
82958W        W51176  43.908  17.649  11.073
82959W        W51177  42.332  26.670   1.377
82960W        W51178   4.414   1.930  11.022
82961W        W51179  29.540  41.036   1.803
82962W        W51180  25.222  20.015  10.926
82963W        W51181  29.169  15.607   3.252
82964W        W51182  39.391   2.728   3.642
82965W        W51183  13.358  41.324  14.412
82966W        W51184   2.061  34.422  11.114
82967W        W51185  40.898  33.500  13.506
82968W        W51186  42.499  21.146   2.379
82969W        W51187  20.578  19.708  10.819
82970W        W51188  39.811   8.830  11.935
82971W        W51189  11.030  13.471   1.828
82972W        W51190  38.932  15.290  12.252
82973W        W51191  20.370   5.201   4.737
82974W        W51192  25.713   6.897  11.695
82975W        W51193   6.929  25.134   0.170
82976W        W51194   0.641  35.706   9.900
82977W        W51195  18.543  42.795   0.547
82978W        W51196  36.498  17.884  13.007
82979W        W51197   6.849   5.670   4.603
82980W        W51198  40.501  42.917   4.956
82981W        W51199   0.562  24.856   0.952
82982W        W51200  17.431  34.183  13.364
82983W        W51201  35.336  14.115  11.601
82984W        W51202  35.620   2.505  14.449
82985W        W51203  19.476  28.170   4.088
82986W        W51204  41.940  29.415   2.479
82987W        W51205   6.272   9.809   3.068
82988W        W51206   2.466   2.884   4.096
82989W        W51207  12.829  27.217  11.829
82990W        W51208  38.579  12.668   1.719
82991W        W51209  28.940  28.328   3.197
82992W        W51210  38.149  30.792  11.204
82993W        W51211  39.808  31.550   2.195
82994W        W51212  20.621  12.439  10.968
82995W        W51213  27.641  24.937  11.537
82996W        W51214  24.985  41.742   4.062
82997W        W51215   8.062  40.858   2.780
82998W        W51216  27.153  40.840   1.103
82999W        W51217  15.095  34.391  13.490
83000W        W51218  11.864  14.328   4.131
83001W        W51219  13.626  17.117   3.810
83002W        W51220  28.239   1.485  10.172
83003W        W51221  41.602  10.388   4.072
83004W        W51222   8.449  22.499  13.642
83005W        W51223  19.630  32.545   2.762
83006W        W51224  32.483  12.828  14.516
83007W        W51225  35.558   3.526  10.502
83008W        W51226  19.579  20.385   0.488
83009W        W51227   2.789  14.416   0.417
83010W        W51228  36.315  20.793  12.469
83011W        W51229  16.036   8.617  11.305
83012W        W51230  43.398  36.529   0.791
83013W        W51231  12.897  29.075   3.137
83014W        W51232  15.949   0.343  13.484
83015W        W51233   7.578  26.078  12.588
83016W        W51234  16.239  30.450   1.302
83017W        W51235  31.508  27.066   4.475
83018W        W51236  37.491  31.130  14.857
83019W        W51237   0.274  38.735   0.009
83020W        W51238  24.699  16.721   1.379
83021W        W51239  20.182   1.265  10.923
83022W        W51240  18.546   1.375   2.618
83023W        W51241  36.135  34.060   3.220
83024W        W51242  14.749   5.433  14.273
83025W        W51243  34.502  17.787   1.213
83026W        W51244  18.024  25.260   0.346
83027W        W51245  33.427  29.064  11.917
83028W        W51246   4.384  25.618  12.083
83029W        W51247  16.261  40.000  14.312
83030W        W51248  30.901   4.549   0.475
83031W        W51249  12.747   8.602   2.282
83032W        W51250  42.551  21.660   2.106
83033W        W51251  15.945  24.869   5.309
83034W        W51252  33.409  35.100   3.281
83035W        W51253  23.620  37.884   4.811
83036W        W51254  43.302   9.741  10.541
83037W        W51255  40.956  36.515   3.180
83038W        W51256  25.163   3.904   4.457
83039W        W51257   6.801  42.144   2.727
83040W        W51258  23.202  13.205  13.319
83041W        W51259  10.759  17.841   3.360
83042W        W51260  44.386   5.239   2.578
83043W        W51261  32.875  43.228  14.181
83044W        W51262  16.843   3.343   0.255
83045W        W51263  18.731  44.959   0.381
83046W        W51264   8.519  23.661  11.640
83047W        W51265  24.982  38.481   1.374
83048W        W51266  18.625  42.736  10.622
83049W        W51267  18.665  33.377   2.337
83050W        W51268  18.301   3.617   0.938
83051W        W51269  40.237  33.555   0.564
83052W        W51270  15.047   9.870  11.633
83053W        W51271  39.918  39.453   3.385
83054W        W51272  21.439  23.223  10.411
83055W        W51273   1.835  43.712  12.563
83056W        W51274  19.801  21.680   2.393
83057W        W51275  33.481  44.877  14.252
83058W        W51276  29.906  44.977  14.148
83059W        W51277  40.439  22.512   1.342
83060W        W51278  20.009  10.363  12.139
83061W        W51279   9.458   7.771  13.852
83062W        W51280  20.487   9.176   0.351
83063W        W51281  22.097  36.309  11.888
83064W        W51282  12.302  26.565   3.331
83065W        W51283  44.197  13.345   4.130
83066W        W51284   9.218  17.728   3.240
83067W        W51285  11.158  13.258   0.786
83068W        W51286  38.810  35.043  14.482
83069W        W51287  32.670  34.694  11.146
83070W        W51288   1.983  26.543  14.911
83071W        W51289   9.057  31.071   0.850
83072W        W51290  30.913  41.519  12.885
83073W        W51291   0.972   3.449   9.899
83074W        W51292  16.121  22.493   3.684
83075W        W51293  13.386  13.004   2.665
83076W        W51294  11.622  43.815  14.852
83077W        W51295  27.568  10.062  13.055
83078W        W51296   9.743  31.199   0.453
83079W        W51297  44.292  32.062   2.840
83080W        W51298   0.831  42.311   0.013
83081W        W51299  41.961  26.489   4.547
83082W        W51300  39.804   3.458   2.769
83083W        W51301   6.097  34.123   1.378
83084W        W51302   1.390  42.777   4.196
83085W        W51303  38.095  41.261  12.524
83086W        W51304  10.063  18.030   2.196
83087W        W51305  32.975  19.157  11.956
83088W        W51306  10.497  25.443   1.026
83089W        W51307  44.776  37.256   4.871
83090W        W51308   2.324   8.440  10.962
83091W        W51309   7.642   2.368  12.504
83092W        W51310  27.444  10.203   0.257
83093W        W51311   2.608  26.611  10.275
83094W        W51312  25.004  32.174  14.992
83095W        W51313   5.762  14.042   0.353
83096W        W51314  28.952  37.901   1.179
83097W        W51315   9.830  28.943   0.720
83098W        W51316  17.670  22.508   2.233
83099W        W51317  35.600  30.076  14.967
83100W        W51318  34.613  32.204   9.965
83101W        W51319  18.578  35.882  11.145
83102W        W51320  41.315  11.336   3.921
83103W        W51321  28.468  32.955   2.719
83104W        W51322  23.222  28.081  13.997
83105W        W51323  12.862  26.355   0.351
83106W        W51324  43.854  16.075   1.293
83107W        W51325  39.335   3.764   2.736
83108W        W51326  31.501  43.817  12.084
83109W        W51327  44.175  15.998   2.775
83110W        W51328  10.386  38.375   1.875
83111W        W51329  15.986   8.225   1.286
83112W        W51330  13.141   9.619   4.200
83113W        W51331   5.896  23.429  13.557
83114W        W51332  32.879  32.548   4.138
83115W        W51333  43.584  25.751  13.867
83116W        W51334   7.229  32.592  14.322
83117W        W51335  37.251  34.299  14.501
83118W        W51336  17.812   5.174   4.077
83119W        W51337  11.053  39.450  11.434
83120W        W51338  25.495  16.047  14.229
83121W        W51339   5.201  36.724   0.174
83122W        W51340  22.103  11.109  11.622
83123W        W51341  14.600   2.223  11.205
83124W        W51342  14.533   8.776   2.660
83125W        W51343   9.728  22.176  10.907
83126W        W51344  21.402  16.242  10.481
83127W        W51345  11.865  11.908  13.411
83128W        W51346  21.130   1.400   0.901
83129W        W51347  11.402  34.487   1.865
83130W        W51348  44.600  29.558  12.149
83131W        W51349  23.625  32.415   1.164
83132W        W51350  14.802   0.216  11.191
83133W        W51351  21.447  12.329   3.493
83134W        W51352  33.902  25.417  10.969
83135W        W51353  39.990  27.098   3.675
83136W        W51354  10.836  29.417   3.841
83137W        W51355  43.766  33.927   2.693
83138W        W51356  38.515  23.997   3.116
83139W        W51357  29.642   7.418   1.855
83140W        W51358  40.426   6.380  12.930
83141W        W51359   2.167  23.690   4.177
83142W        W51360  41.780   6.669  13.779
83143W        W51361  12.133  23.454  14.087
83144W        W51362   7.509  14.903   5.024
83145W        W51363  22.848   8.741   0.406
83146W        W51364  18.088  25.967  13.098
83147W        W51365  39.466  21.969  12.561
83148W        W51366  25.123  18.404   1.954
83149W        W51367  20.536  44.515  11.852
83150W        W51368  40.736   2.460  10.582
83151W        W51369  36.466   1.767   3.539
83152W        W51370  34.119  41.919   4.062
83153W        W51371  29.350  17.757  13.492
83154W        W51372  17.595  38.442  13.913
83155W        W51373  10.081  19.662  13.500
83156W        W51374   2.476  34.173   0.366
83157W        W51375  43.019  33.107  10.790
83158W        W51376  25.458  43.325  11.066
83159W        W51377  37.832  39.085  12.041
83160W        W51378  19.754   0.752  12.462
83161W        W51379  27.103  15.703  11.551
83162W        W51380  12.124  25.121  10.805
83163W        W51381  39.674  39.468   4.534
83164W        W51382   5.008  25.397   2.278
83165W        W51383  31.672  19.572   4.196
83166W        W51384  29.642  23.208   2.781
83167W        W51385  34.758   1.452  10.930
83168W        W51386  28.678  26.188  12.334
83169W        W51387  44.111   0.410   4.416
83170W        W51388  18.290  26.458   3.676
83171W        W51389  39.971  21.281   1.240
83172W        W51390  38.796  41.521  11.083
83173W        W51391  13.256  33.970   4.519
83174W        W51392  35.068  33.569  12.594
83175W        W51393  34.187  32.577  11.637
83176W        W51394  41.980   7.771   3.788
83177W        W51395  40.332  15.138   3.728
83178W        W51396  12.584  12.627   4.084
83179W        W51397  44.204  40.989   1.211
83180W        W51398   2.806  28.384  10.805
83181W        W51399  33.846  39.130  11.548
83182W        W51400  13.022  23.422  14.975
83183W        W51401  21.972  19.250   0.889
83184W        W51402  30.657  14.648  11.917
83185W        W51403   4.938   6.857   1.775
83186W        W51404  15.471  30.475   4.971
83187W        W51405   6.090  22.743  14.983
83188W        W51406  22.595   1.004   2.350
83189W        W51407   2.865  35.473   4.732
83190W        W51408  35.176  24.788  14.488
83191W        W51409   6.677  14.150  10.894
83192W        W51410  40.285   2.237  13.433
83193W        W51411  32.081   8.041  13.831
83194W        W51412  14.129   1.756   1.395
83195W        W51413  13.865   6.474   2.740
83196W        W51414  12.358  24.600  11.993
83197W        W51415  13.170   3.814   0.507
83198W        W51416  16.298  36.013   2.833
83199W        W51417   0.349  41.848   1.200
83200W        W51418   9.851  18.168  14.924
83201W        W51419  22.874  29.895  11.748
83202W        W51420  10.433  36.975   3.594
83203W        W51421  15.557  40.573   5.168
83204W        W51422   8.430  15.834   4.144
83205W        W51423  22.449   1.761   1.092
83206W        W51424  15.740  44.808  11.087
83207W        W51425   4.331  16.769  12.687
83208W        W51426  28.960  24.769  12.092
83209W        W51427   3.628  22.002   3.813
83210W        W51428   6.692  27.874  12.785
83211W        W51429  35.825  28.921   2.261
83212W        W51430  19.926   5.817   0.462
83213W        W51431  26.694  35.414  10.424
83214W        W51432   7.357  40.358  12.317
83215W        W51433   1.967  15.672  12.402
83216W        W51434  13.940  28.625   2.008
83217W        W51435  23.060  44.437   2.012
83218W        W51436  22.641  41.345   3.849
83219W        W51437  23.683   7.396  10.527
83220W        W51438  11.829  27.215   1.474
83221W        W51439   1.910  29.492   1.461
83222W        W51440  33.035  21.680   3.280
83223W        W51441  31.385  22.009  12.003
83224W        W51442  22.475  39.302   4.252
83225W        W51443  24.095  38.462   1.312
83226W        W51444  10.212  11.957   5.112
83227W        W51445   8.317  41.095   4.529
83228W        W51446  15.817  37.531  10.613
83229W        W51447   8.896   6.494   4.996
83230W        W51448  11.400  35.694   1.537
83231W        W51449  33.957  31.930   3.235
83232W        W51450   7.408  11.861   3.601
83233W        W51451  31.907  40.328   0.583
83234W        W51452   9.398  13.194  10.573
83235W        W51453  14.592  38.918   1.091
83236W        W51454  30.421   0.443  14.747
83237W        W51455  18.517  29.418   0.460
83238W        W51456  23.699  23.735   1.658
83239W        W51457   1.263  24.851   2.275
83240W        W51458  38.335  21.260  13.055
83241W        W51459  30.273  28.964   4.634
83242W        W51460   4.959  27.468   4.130
83243W        W51461  23.289   5.916   4.568
83244W        W51462  21.686   1.578  13.598
83245W        W51463   4.882  30.078  14.742
83246W        W51464  42.950   6.181   4.705
83247W        W51465   9.192  33.738  10.080
83248W        W51466  26.459  12.386   1.897
83249W        W51467  21.331  41.373  12.980
83250W        W51468   8.080  30.340   2.738
83251W        W51469  13.725   5.339  11.554
83252W        W51470  14.065  21.678   1.326
83253W        W51471  35.311  15.576  13.012
83254W        W51472  36.293  16.775   1.780
83255W        W51473  31.682  22.735   1.845
83256W        W51474  28.622  10.145   0.455
83257W        W51475   4.831  23.465   0.087
83258W        W51476  13.006  34.801   4.084
83259W        W51477  31.025  28.547   3.186
83260W        W51478  28.589  35.169   0.802
83261W        W51479  20.333  25.707  13.042
83262W        W51480   6.918  26.743   4.169
83263W        W51481  33.614   9.589   2.428
83264W        W51482   5.283   4.151   0.397
83265W        W51483   5.360   8.052  12.636
83266W        W51484   2.500   5.320   3.214
83267W        W51485   7.312  30.135  12.733
83268W        W51486  14.354   1.828  10.579
83269W        W51487  40.247  34.961   1.881
83270W        W51488  39.424   4.819  12.559
83271W        W51489  37.576  19.764  11.503
83272W        W51490   5.973   6.686   2.894
83273W        W51491   9.785   7.901   4.027
83274W        W51492  39.786  40.069   2.609
83275W        W51493  35.472   0.538   2.236
83276W        W51494  27.203  27.163   1.272
83277W        W51495  23.067  30.638   1.825
83278W        W51496   5.412  11.092  11.874
83279W        W51497   4.485  29.548   1.634
83280W        W51498  35.572  32.603  13.932
83281W        W51499  19.831   2.416   0.951
83282W        W51500  25.126  23.665   3.191
83283W        W51501  13.393  32.275   2.178
83284W        W51502  39.439  15.202  12.446
83285W        W51503  27.911  30.662  10.240
83286W        W51504  34.843  11.160  14.924
83287W        W51505   3.322  13.125   2.923
83288W        W51506   3.065  13.826   4.843
83289W        W51507  32.217   6.400   4.401
83290W        W51508  23.717  38.674   2.338
83291W        W51509  27.204   4.203   3.575
83292W        W51510  25.602  21.447  11.012
83293W        W51511  42.497   4.403   4.140
83294W        W51512  37.292  27.913   0.817
83295W        W51513  12.208  26.309  12.569
83296W        W51514  42.368  44.511  11.600
83297W        W51515  17.201   6.963   3.231
83298W        W51516  42.091  40.274  12.505
83299W        W51517  18.103  20.028  12.954
83300W        W51518  42.401  23.117  10.578
83301W        W51519  13.803  18.795   0.571
83302W        W51520  23.092  40.841   0.491
83303W        W51521   0.019  21.746  14.910
83304W        W51522  28.866  22.564  14.572
83305W        W51523  28.491   0.934   4.569
83306W        W51524  20.535  16.460   4.450
83307W        W51525   1.934  32.898   4.461
83308W        W51526  32.149   6.656  13.069
83309W        W51527  18.509  19.713   2.247
83310W        W51528  21.600  28.095   1.946
83311W        W51529  29.356  21.051   1.401
83312W        W51530  16.563  14.486  12.107
83313W        W51531  36.984  43.563  11.590
83314W        W51532  29.876  18.674  13.377
83315W        W51533  24.797   4.210   4.124
83316W        W51534   0.171  22.922   4.627
83317W        W51535  24.307  23.474   4.552
83318W        W51536   5.874   6.379  12.900
83319W        W51537  17.584  16.039   4.479
83320W        W51538  43.778  38.042  11.894
83321W        W51539  16.018  40.869  12.187
83322W        W51540  20.798  15.630  10.576
83323W        W51541  43.504  44.686   1.325
83324W        W51542  43.600  42.448  14.533
83325W        W51543  15.632  14.154  12.853
83326W        W51544  34.817   3.874  11.154
83327W        W51545  23.029  12.140   1.696
83328W        W51546  42.817  20.578   3.667
83329W        W51547  30.300  41.834  12.352
83330W        W51548  20.085   8.322   1.784
83331W        W51549  28.621  19.557   2.759
83332W        W51550  43.231  36.028  14.271
83333W        W51551  36.339  14.276   1.799
83334W        W51552  24.536  23.648   4.099
83335W        W51553   9.083   0.656  11.621
83336W        W51554  20.748  37.471  13.330
83337W        W51555  11.322  44.563   0.336
83338W        W51556  12.497  33.931  11.933
83339W        W51557  25.189  34.360  13.948
83340W        W51558  11.332  32.453   3.304
83341W        W51559  40.586   9.935  14.040
83342W        W51560  18.679  39.288   0.160
83343W        W51561  44.046  11.707  11.016
83344W        W51562  37.275   8.206   4.246
83345W        W51563   4.686  23.900  12.785
83346W        W51564   8.745  26.769  11.566
83347W        W51565   5.430  17.880  10.169
83348W        W51566  22.167  31.846   1.541
83349W        W51567  29.876  43.448  12.630
83350W        W51568   3.043  39.662  11.054
83351W        W51569   6.232  28.966   2.790
83352W        W51570  16.674  21.461   2.308
83353W        W51571  13.557  25.880  12.493
83354W        W51572  36.165  31.205  11.077
83355W        W51573  18.818  27.604  11.961
83356W        W51574  35.538   4.199   3.700
83357W        W51575  15.533  36.983  13.408
83358W        W51576  23.692   6.871  12.207
83359W        W51577  10.512  32.361  12.996
83360W        W51578  11.789  18.758   1.387
83361W        W51579  44.880  43.104  12.515
83362W        W51580  39.742   2.217  13.382
83363W        W51581  40.732   0.922  14.171
83364W        W51582  35.959  10.134  13.590
83365W        W51583  20.768   7.162   0.387
83366W        W51584  18.629  11.194   4.482
83367W        W51585  30.554  11.828   3.767
83368W        W51586  24.337  34.638  12.874
83369W        W51587   7.286  12.144  13.334
83370W        W51588  11.724  36.277  14.465
83371W        W51589   8.337  19.001   2.833
83372W        W51590  14.860  30.378  14.786
83373W        W51591  19.319   4.764   2.747
83374W        W51592  25.814   2.216   3.610
83375W        W51593  15.778  40.920  14.796
83376W        W51594  13.541  17.352  13.432
83377W        W51595  15.061  38.696   1.867
83378W        W51596  28.382   4.204  14.011
83379W        W51597  23.507  33.276   2.245
83380W        W51598   9.072  41.650  12.801
83381W        W51599  17.543  34.280   0.242
83382W        W51600  23.293  14.641   3.276
83383W        W51601  21.222   5.704   1.330
83384W        W51602  28.573  38.023   3.359
83385W        W51603  43.650  30.095  12.026
83386W        W51604  19.944  23.224   1.372
83387W        W51605  37.816   2.601  11.416
83388W        W51606  27.976  29.366  13.859
83389W        W51607  35.555  30.129   0.954
83390W        W51608  37.630  36.903  14.523
83391W        W51609  11.500   9.578   0.935
83392W        W51610  23.049  21.059   1.349
83393W        W51611   5.778  12.156  12.427
83394W        W51612   5.414  28.693  11.982
83395W        W51613   2.111  40.975   2.870
83396W        W51614   8.778  19.226   1.085
83397W        W51615  37.696  42.870  14.954
83398W        W51616  44.477  21.057  14.535
83399W        W51617  31.104  16.830   3.789
83400W        W51618  33.364  13.372   3.114
83401W        W51619  40.483  44.423   2.478
83402W        W51620  35.126  43.070  12.510
83403W        W51621  10.588  11.658   2.892
83404W        W51622  25.304  36.515   4.173
83405W        W51623  38.381  34.921  14.735
83406W        W51624  26.529  26.369   1.323
83407W        W51625  42.309  26.975   3.711
83408W        W51626  34.984  21.544  11.449
83409W        W51627  19.637   3.684   1.226
83410W        W51628  16.064   1.263  13.587
83411W        W51629  19.685  26.483  14.485
83412W        W51630  15.775  25.754  10.734
83413W        W51631   8.795  34.594   0.813
83414W        W51632  26.118  20.110  13.906
83415W        W51633  12.734  27.949   2.230
83416W        W51634  32.334   7.167  12.485
83417W        W51635  22.285   7.510   0.746
83418W        W51636  12.476  26.697   2.855
83419W        W51637   5.470  41.484  13.025
83420W        W51638  18.106   3.530   2.419
83421W        W51639  30.868   8.249  13.455
83422W        W51640  18.975  28.719  14.027
83423W        W51641  13.019  18.631   2.388
83424W        W51642  33.153  28.569  14.829
83425W        W51643  29.289  19.066   3.276
83426W        W51644  33.497  29.117   5.477
83427W        W51645   2.199  20.676   0.494
83428W        W51646  32.403  31.816  10.493
83429W        W51647  21.232  39.287   2.567
83430W        W51648   9.653   7.404  14.555
83431W        W51649  13.793  28.122  14.003
83432W        W51650  44.875   6.585  14.823
83433W        W51651  10.779  16.941  14.601
83434W        W51652   4.788  39.011  14.240
83435W        W51653  36.404  44.248   1.737
83436W        W51654   3.026   3.883   3.451
83437W        W51655  44.183  10.867   0.044
83438W        W51656  22.064  14.995  13.074
83439W        W51657   4.912  13.174   4.172
83440W        W51658  28.588  21.967  13.556
83441W        W51659  34.889  40.331  11.243
83442W        W51660  22.997  43.432  12.494
83443W        W51661  41.644  13.550   2.413
83444W        W51662  22.402  40.192   4.573
83445W        W51663  30.211  43.957  11.608
83446W        W51664  28.595   7.154  10.676
83447W        W51665   6.607  31.165   4.303
83448W        W51666  25.160  23.901   3.632
83449W        W51667  16.829  28.568   1.962
83450W        W51668  36.791  27.654   4.888
83451W        W51669   2.009   7.185   1.387
83452W        W51670  35.135   2.500  14.316
83453W        W51671  39.946   4.455   4.440
83454W        W51672  12.854  42.773  10.713
83455W        W51673  21.637  29.395   2.628
83456W        W51674  37.854  20.249   1.791
83457W        W51675   1.901  35.495   2.671
83458W        W51676  30.121  42.714   1.706
83459W        W51677  44.783  14.661  14.379
83460W        W51678  39.800  14.565   4.274
83461W        W51679  30.907   1.973  14.924
83462W        W51680  29.920  19.832   3.199
83463W        W51681  16.635  29.992   0.538
83464W        W51682  26.235  16.325   4.326
83465W        W51683   6.310  15.154  11.153
83466W        W51684   7.614   7.471  14.951
83467W        W51685  40.030  42.696   4.962
83468W        W51686   9.499   5.266   0.841
83469W        W51687   0.017   4.683   2.239
83470W        W51688  24.517  29.977   4.867
83471W        W51689  26.455  29.714  11.485
83472W        W51690  43.709  44.382   4.404
83473W        W51691  20.506  29.049  13.433
83474W        W51692   6.035  27.719   1.354
83475W        W51693  38.655  17.573   1.560
83476W        W51694  10.298  27.039   2.701
83477W        W51695  44.667   9.137  13.506
83478W        W51696   4.757   2.090   2.961
83479W        W51697  20.379  15.824  11.507
83480W        W51698   3.362  21.088   4.231
83481W        W51699   3.342  16.809   1.090
83482W        W51700   5.698  20.507   2.308
83483W        W51701  32.052  18.013  13.155
83484W        W51702  21.550   6.040  11.687
83485W        W51703  11.872  24.725   0.806
83486W        W51704  39.068  10.704  10.140
83487W        W51705   3.842  38.425   4.310
83488W        W51706  15.071  40.370   4.544
83489W        W51707  33.091   0.042   0.633
83490W        W51708   0.458   0.366  13.379
83491W        W51709   6.423  41.129  12.261
83492W        W51710   7.111  11.401  12.318
83493W        W51711  43.983  38.447   1.126
83494W        W51712   4.829  40.777  13.416
83495W        W51713   7.141  18.329   0.909
83496W        W51714  43.354  20.101  13.007
83497W        W51715  21.509  33.847   3.591
83498W        W51716   2.324  41.920  10.611
83499W        W51717  44.241   3.984  11.961
83500W        W51718   3.681  25.679   1.979
83501W        W51719  16.948  11.345  10.710
83502W        W51720  37.129  26.945   3.686
83503W        W51721  12.885   5.668   3.169
83504W        W51722  25.779  14.582  11.467
83505W        W51723  12.518  20.420  12.920
83506W        W51724  33.438   3.343  13.926
83507W        W51725  21.168  10.212  13.486
83508W        W51726  41.311   3.919  12.131
83509W        W51727  39.372   0.789  10.819
83510W        W51728   9.969   0.957  14.959
83511W        W51729  29.894   4.473  14.441
83512W        W51730  25.774   1.885  12.144
83513W        W51731   8.722  19.711   0.885
83514W        W51732  36.758  30.994   4.294
83515W        W51733  31.009  13.944   2.567
83516W        W51734  42.233   4.777  14.360
83517W        W51735   1.827  12.117  13.580
83518W        W51736   5.897  23.319  14.473
83519W        W51737  27.246  14.535   2.317
83520W        W51738  22.827  35.023   2.641
83521W        W51739  23.014  23.572   2.197
83522W        W51740  36.634  33.950  14.270
83523W        W51741   4.256  23.208   1.185
83524W        W51742  39.064   8.669   0.383
83525W        W51743  15.880  33.333  12.892
83526W        W51744  11.553  26.958   5.008
83527W        W51745  18.660  19.472  13.963
83528W        W51746  16.064   2.730  13.347
83529W        W51747  42.301  39.524   3.125
83530W        W51748  20.640  16.004   2.621
83531W        W51749  40.265   5.179   0.903
83532W        W51750   5.904  22.243  13.087
83533W        W51751  24.131   8.353   2.314
83534W        W51752   6.445  10.952   3.699
83535W        W51753  43.857  24.902   5.123
83536W        W51754  35.572  10.744   0.957
83537W        W51755   2.023  37.759   5.050
83538W        W51756   5.214  33.974   2.007
83539W        W51757   7.840   6.602  13.436
83540W        W51758  38.545  33.936  10.894
83541W        W51759  41.305  18.014   3.221
83542W        W51760  41.022  21.084  13.218
83543W        W51761  14.506  10.904  13.481
83544W        W51762  13.178  21.672   1.429
83545W        W51763  35.682  21.209  11.495
83546W        W51764  11.897  37.471  13.057
83547W        W51765  22.688  44.418   5.001
83548W        W51766  25.098  24.738   3.398
83549W        W51767  43.095  15.667   2.884
83550W        W51768  38.475   0.399  12.985
83551W        W51769  23.170   6.487   0.328
83552W        W51770   0.264  10.306  14.531
83553W        W51771   1.967   0.925  14.889
83554W        W51772  25.108   4.837  12.567
83555W        W51773  13.861   3.896  14.367
83556W        W51774  33.568  14.709   0.840
83557W        W51775  28.962  26.100   2.358
83558W        W51776  33.415  27.961  12.145
83559W        W51777  43.410   3.540   0.376
83560W        W51778  14.487  13.567  11.486
83561W        W51779  25.318  32.416  12.083
83562W        W51780  22.208  28.022   4.641
83563W        W51781  40.993   2.220   4.485
83564W        W51782   3.855   8.833  13.398
83565W        W51783   0.241  42.645   0.853
83566W        W51784  10.849   1.548   2.450
83567W        W51785   7.624  41.444  13.288
83568W        W51786  26.560  20.489   2.935
83569W        W51787  22.023  26.786  14.640
83570W        W51788   2.200  17.322   3.678
83571W        W51789  12.114   2.902   4.717
83572W        W51790  31.051   4.850  11.520
83573W        W51791  37.399  38.750  12.807
83574W        W51792  24.289  11.605   5.102
83575W        W51793   5.475  20.087   1.658
83576W        W51794   4.735  24.064   4.577
83577W        W51795  24.227  22.042  12.639
83578W        W51796  35.338   6.301   3.205
83579W        W51797  26.170  25.508   4.038
83580W        W51798  22.993  35.876  11.100
83581W        W51799   1.937   8.350  12.658
83582W        W51800   4.085   5.373   0.276
83583W        W51801  34.906  29.512  11.600
83584W        W51802  42.343  34.029   4.335
83585W        W51803  22.179   2.053   1.795
83586W        W51804  13.350  24.107  14.510
83587W        W51805  44.308   9.205  12.047
83588W        W51806  35.060  19.261  12.632
83589W        W51807  21.719  29.385   1.211
83590W        W51808  37.835   6.231  10.372
83591W        W51809  21.935   3.824   2.510
83592W        W51810  40.765  38.542  13.912
83593W        W51811  40.076  25.993   3.247
83594W        W51812   7.382  36.603  11.558
83595W        W51813   4.744  31.973   1.260
83596W        W51814  37.510  23.718  14.280
83597W        W51815  31.557  12.347  11.548
83598W        W51816  14.396  33.931   3.802
83599W        W51817  41.796  38.264  12.587
83600W        W51818   9.439  11.168  12.427
83601W        W51819   5.343  40.847   4.300
83602W        W51820  32.469  19.857  12.033
83603W        W51821  12.942  25.184   1.275
83604W        W51822  43.893  25.767   1.670
83605W        W51823  23.145   8.202  11.939
83606W        W51824  30.102  15.558  12.136
83607W        W51825  25.441   4.707  13.927
83608W        W51826  36.800  37.598   1.163
83609W        W51827  34.068  25.122   3.895
83610W        W51828  38.785  24.139  11.007
83611W        W51829  21.129   2.220   1.861
83612W        W51830  35.053  40.962   0.771
83613W        W51831   4.338  16.233   5.012
83614W        W51832  35.701  10.303   3.664
83615W        W51833  12.079  32.009   3.304
83616W        W51834  11.757   6.618   1.391
83617W        W51835  12.401  12.867   0.798
83618W        W51836  18.771   3.156  11.589
83619W        W51837   6.723  16.744   2.780
83620W        W51838   7.652  32.960   0.848
83621W        W51839  28.754  20.214  10.903
83622W        W51840  21.790   9.313  13.528
83623W        W51841  32.721  34.458  13.879
83624W        W51842   8.606  37.803  13.940
83625W        W51843  34.777  32.917   0.292
83626W        W51844   5.717  42.763  11.453
83627W        W51845   4.244  23.098   1.686
83628W        W51846  38.100  16.712   3.427
83629W        W51847  29.705  13.358  12.007
83630W        W51848   3.219  32.127  14.491
83631W        W51849  17.322  23.654   1.278
83632W        W51850  10.164  38.960   0.344
83633W        W51851   4.428  34.588  12.924
83634W        W51852  10.134  44.433  10.625
83635W        W51853   7.626  25.496   0.930
83636W        W51854  27.928  20.676  13.604
83637W        W51855  30.893  31.365  14.919
83638W        W51856  39.544  22.666   3.237
83639W        W51857   7.228  44.233  12.071
83640W        W51858   7.019   9.707   4.597
83641W        W51859  42.087  18.220   4.241
83642W        W51860  42.952   1.373   3.242
83643W        W51861  25.110  16.321  13.954
83644W        W51862  26.613   6.998  14.223
83645W        W51863   6.289  29.459  11.487
83646W        W51864  16.855  41.295  14.145
83647W        W51865   1.742   2.813   3.673
83648W        W51866  43.009  12.378  11.504
83649W        W51867  26.595   6.356   0.528
83650W        W51868   5.035   4.940  12.987
83651W        W51869   9.758  44.831  12.328
83652W        W51870  19.789  35.586  11.610
83653W        W51871  31.607  28.558   4.136
83654W        W51872  18.119   7.197  12.812
83655W        W51873  10.424   4.772  10.085
83656W        W51874   1.809  22.481  12.850
83657W        W51875  14.673  29.988  10.511
83658W        W51876  36.462  38.469  12.495
83659W        W51877  34.477  19.592  14.109
83660W        W51878   2.693  40.541   4.651
83661W        W51879  34.779  39.608  10.526
83662W        W51880  14.715  40.289   1.439
83663W        W51881  39.171   6.236   0.307
83664W        W51882  35.577  29.266   1.095
83665W        W51883   5.303   0.233   0.873
83666W        W51884  23.673  26.481   2.228
83667W        W51885  12.834  31.645  11.823
83668W        W51886  16.587  41.039  13.055
83669W        W51887   2.588  11.310   3.110
83670W        W51888  38.024   6.760  14.214
83671W        W51889  37.835  24.165  10.223
83672W        W51890  24.169   8.700   0.837
83673W        W51891  10.299  15.065   2.330
83674W        W51892  42.725  34.653   0.902
83675W        W51893  39.293   7.253  14.559
83676W        W51894  34.307  35.824  13.833
83677W        W51895   0.958  14.787  13.508
83678W        W51896   2.587  24.886  10.183
83679W        W51897   2.137  10.676   0.994
83680W        W51898   3.778  38.613   3.181
83681W        W51899  11.792  18.600  11.431
83682W        W51900  22.711  17.220   2.329
83683W        W51901  26.592   1.943   2.661
83684W        W51902  21.597   3.484   1.192
83685W        W51903  33.613  38.232  13.304
83686W        W51904   4.865  25.899   2.307
83687W        W51905   9.766   7.018  11.601
83688W        W51906  30.939  27.851   2.394
83689W        W51907  29.989  13.832   4.070
83690W        W51908   4.903  22.220  13.551
83691W        W51909  42.422  11.242   4.589
83692W        W51910   5.874   2.913  13.070
83693W        W51911   6.825   7.079   2.637
83694W        W51912  40.800   5.433   4.785
83695W        W51913   9.363  25.995   0.864
83696W        W51914  30.488  42.365  11.188
83697W        W51915   1.341  19.006  11.652
83698W        W51916   2.797   0.725   0.331
83699W        W51917  26.597  23.387  10.538
83700W        W51918  26.126  32.569   5.231
83701W        W51919   9.230   4.054   1.200
83702W        W51920  12.348  24.250  14.324
83703W        W51921  11.108   4.664   2.201
83704W        W51922  20.429   9.830   4.272
83705W        W51923  17.007  14.319  13.105
83706W        W51924  29.083   0.470  12.431
83707W        W51925  13.346   7.819  11.577
83708W        W51926  21.655  12.236   1.910
83709W        W51927  21.148  31.456   2.393
83710W        W51928  42.077  30.354   0.971
83711W        W51929   3.249  17.094  10.868
83712W        W51930  30.491  21.531   4.413
83713W        W51931  42.941  18.777   2.860
83714W        W51932  18.618   1.996  12.183
83715W        W51933   2.555   4.798   4.533
83716W        W51934  24.318  33.468   2.518
83717W        W51935   2.712   5.703  10.308
83718W        W51936  29.001  14.875  11.687
83719W        W51937  25.073  36.145   1.886
83720W        W51938  27.767  25.564   4.728
83721W        W51939  10.784  40.788  12.411
83722W        W51940   9.182  35.859  12.390
83723W        W51941  18.123  16.346   2.192
83724W        W51942  20.621   7.366  12.466
83725W        W51943  24.468  29.118   3.800
83726W        W51944  22.131  37.108  14.788
83727W        W51945  37.952   8.647   1.703
83728W        W51946  40.399  41.589  12.854
83729W        W51947  23.756   3.780  13.899
83730W        W51948   9.703  37.451  11.196
83731W        W51949  22.749  34.553  13.376
83732W        W51950  17.988  21.681   1.753
83733W        W51951  44.987  26.148  12.089
83734W        W51952  40.826  43.028  13.794
83735W        W51953   6.399   5.820   2.656
83736W        W51954  42.080   1.008   1.761
83737W        W51955  23.062  36.998   5.609
83738W        W51956  29.431  25.488   9.955
83739W        W51957  41.762  11.607   1.243
83740W        W51958  19.446  30.900   2.365
83741W        W51959  41.379  17.283   2.649
83742W        W51960   4.821   4.900   2.667
83743W        W51961  41.356  29.958  13.370
83744W        W51962  20.506  17.784  12.905
83745W        W51963  42.475   5.687   3.846
83746W        W51964  20.911  28.911   3.186
83747W        W51965  16.366  36.348  10.774
83748W        W51966   7.218  30.871   0.288
83749W        W51967   8.784  13.209   4.513
83750W        W51968   2.736  36.986  10.951
83751W        W51969  13.659  14.124   3.353
83752W        W51970  43.225  40.946   3.583
83753W        W51971  16.023  42.417   1.916
83754W        W51972   0.153  38.857   1.676
83755W        W51973  41.054  15.106  11.112
83756W        W51974  44.052  11.787  12.431
83757W        W51975  28.659  35.258  12.007
83758W        W51976   7.357  18.650  12.977
83759W        W51977   0.974  38.805   2.403
83760W        W51978  43.397   6.709   2.468
83761W        W51979  36.659  31.150  11.177
83762W        W51980  29.349  33.906  12.029
83763W        W51981   7.870  26.090   4.629
83764W        W51982  17.120  21.954   4.716
83765W        W51983  25.478   1.361   1.827
83766W        W51984   3.516  34.171  10.842
83767W        W51985   8.774  40.831   3.139
83768W        W51986   0.971  40.519  11.563
83769W        W51987   1.270  26.305   0.518
83770W        W51988  43.955  27.199  12.991
83771W        W51989  13.031  19.795   0.303
83772W        W51990  14.819  21.194  11.951
83773W        W51991  19.080  37.630  10.140
83774W        W51992  19.277  12.159  12.293
83775W        W51993  43.585  22.715   2.226
83776W        W51994  36.725  38.400   3.721
83777W        W51995  40.412  27.341  13.636
83778W        W51996  42.712  36.905   0.419
83779W        W51997  13.542  44.481   0.277
83780W        W51998   4.402  14.513  14.205
83781W        W51999  35.474  40.475   2.880
83782W        W52000  43.790   1.348  12.708
83783W        W52001  22.722  38.113  12.416
83784W        W52002  43.804  37.999  10.668
83785W        W52003  29.130  44.278   3.227
83786W        W52004  21.380  38.996   3.792
83787W        W52005   2.371  38.018   0.184
83788W        W52006  16.538  18.308   2.097
83789W        W52007   4.606  40.428   4.206
83790W        W52008  38.282  40.383  13.981
83791W        W52009   4.265   2.312  13.601
83792W        W52010   9.354  10.193   0.242
83793W        W52011  19.053  34.915   1.203
83794W        W52012  34.602  10.684  11.023
83795W        W52013   9.894   9.430  13.055
83796W        W52014  32.425  26.116   4.639
83797W        W52015  12.126   7.757  10.711
83798W        W52016  28.573   9.732   0.793
83799W        W52017   3.199  40.505   4.544
83800W        W52018  34.986  10.200   2.668
83801W        W52019  23.565  44.288  11.004
83802W        W52020  26.733  26.660  12.647
83803W        W52021  38.890  27.943   4.180
83804W        W52022  11.269  39.409   1.839
83805W        W52023  27.031   2.369   0.215
83806W        W52024   6.100   0.784   4.633
83807W        W52025  30.041  38.962  11.876
83808W        W52026  30.346   3.034   2.365
83809W        W52027  26.486  15.733  13.277
83810W        W52028  33.053  20.963   3.609
83811W        W52029  35.061  36.518   2.129
83812W        W52030  20.814  43.592  10.234
83813W        W52031   8.154  11.123   1.833
83814W        W52032  38.061  19.819  13.372
83815W        W52033  31.169  17.571  11.301
83816W        W52034  44.447   3.229  14.885
83817W        W52035  18.211  42.531  13.836
83818W        W52036  13.717  38.886  10.810
83819W        W52037  15.321  36.551  13.182
83820W        W52038   7.134  27.720   2.661
83821W        W52039  28.058  36.430  11.726
83822W        W52040  23.085  16.846   3.068
83823W        W52041   1.660  26.406   4.216
83824W        W52042  39.082  14.712   1.781
83825W        W52043  37.325  16.070  13.448
83826W        W52044  18.850  14.237  13.387
83827W        W52045   0.888  39.766   4.779
83828W        W52046  37.386  42.519  11.152
83829W        W52047  15.263  32.327  13.442
83830W        W52048  34.484  11.750   3.993
83831W        W52049  42.073  11.198   1.199
83832W        W52050  16.091  42.927   1.800
83833W        W52051  41.626  30.953   0.004
83834W        W52052   2.055  36.164  11.203
83835W        W52053  24.412   3.792  11.687
83836W        W52054  42.285  40.335   3.164
83837W        W52055   1.241   2.331   2.249
83838W        W52056   6.204  14.379   3.061
83839W        W52057   5.891  23.571   0.918
83840W        W52058  42.889  42.014  11.108
83841W        W52059  43.614  43.980  12.073
83842W        W52060  21.165  34.291  13.894
83843W        W52061  19.019   2.908   4.391
83844W        W52062  16.501   8.903   2.651
83845W        W52063   5.813  23.812  14.544
83846W        W52064  29.196  36.908   3.639
83847W        W52065   5.750  10.693  12.619
83848W        W52066  43.392   6.223   3.728
83849W        W52067  15.336  35.599  12.968
83850W        W52068  11.759  12.044   1.954
83851W        W52069  24.893  43.590  13.952
83852W        W52070  12.052  39.299  12.483
83853W        W52071  24.493  29.842   0.371
83854W        W52072  32.255   4.984   1.869
83855W        W52073  23.011   4.287   3.684
83856W        W52074   5.125  38.643  11.691
83857W        W52075  17.222  32.466  12.965
83858W        W52076  20.570  24.452  13.190
83859W        W52077   4.654  11.342   0.513
83860W        W52078  40.721  38.983   0.408
83861W        W52079   5.237  42.890   2.161
83862W        W52080  35.068   6.964  13.866
83863W        W52081  43.262  14.173   3.005
83864W        W52082  23.491  42.864  14.849
83865W        W52083   6.095  36.866  13.409
83866W        W52084  29.690  40.256  13.003
83867W        W52085  44.918  18.010  13.263
83868W        W52086  11.583  18.021  13.898
83869W        W52087   9.705  11.206  12.872
83870W        W52088   1.806  30.332  13.344
83871W        W52089   7.387  29.186  11.921
83872W        W52090   7.304  28.546   4.690
83873W        W52091  20.614  29.591   3.254
83874W        W52092  17.370  28.036   0.343
83875W        W52093  11.140  26.903  11.379
83876W        W52094  26.077  17.678   0.771
83877W        W52095  12.252   1.577  12.152
83878W        W52096  38.333   6.219  13.815
83879W        W52097   9.140  25.654  11.916
83880W        W52098   9.208  26.718   1.822
83881W        W52099  12.219  28.186   2.213
83882W        W52100  14.182  17.480   3.640
83883W        W52101  15.310  19.669  10.541
83884W        W52102   3.917  27.222  11.513
83885W        W52103  37.784   5.954  12.141
83886W        W52104  43.316  36.884  13.039
83887W        W52105  33.446  12.283   1.957
83888W        W52106  15.187  17.777   0.795
83889W        W52107  19.903  34.020   2.554
83890W        W52108  12.961   2.953  14.828
83891W        W52109  28.090   1.809   0.283
83892W        W52110  36.971  16.818  10.687
83893W        W52111  18.582  22.208   4.149
83894W        W52112  18.594  24.009   2.807
83895W        W52113  36.774  33.868   0.333
83896W        W52114  36.894  34.765   3.639
83897W        W52115  20.526  25.795   4.233
83898W        W52116  11.083  30.668  11.509
83899W        W52117  16.561  16.118   1.919
83900W        W52118   8.857  29.907   3.726
83901W        W52119  42.099  36.473  12.947
83902W        W52120  43.330  15.718   2.426
83903W        W52121   3.294   0.831   0.241
83904W        W52122  23.248  26.067   1.391
83905W        W52123  13.251  35.456  10.791
83906W        W52124  19.244  17.638   0.850
83907W        W52125  11.321  19.347   2.455
83908W        W52126  29.909  33.510  10.915
83909W        W52127  32.045  37.497   3.525
83910W        W52128   4.320   4.958  12.716
83911W        W52129  11.620  34.408   1.155
83912W        W52130   2.323  21.352  12.204
83913W        W52131   6.482   1.264   3.917
83914W        W52132  32.986  26.853   4.303
83915W        W52133  33.081  20.520   2.418
83916W        W52134  41.085  40.034   2.834
83917W        W52135  25.747  23.042  12.614
83918W        W52136  40.017  36.498   4.209
83919W        W52137  12.733  24.043   2.360
83920W        W52138  18.665   1.883   4.490
83921W        W52139   7.779  40.804  13.978
83922W        W52140  15.505  35.529   3.548
83923W        W52141  10.810   4.034  11.958
83924W        W52142  38.288  44.453   0.526
83925W        W52143   9.149  35.668  11.129
83926W        W52144  22.144   7.390   4.531
83927W        W52145   0.382  18.610  10.532
83928W        W52146  43.846   7.926  12.265
83929W        W52147  23.729  19.084  13.494
83930W        W52148  25.081  18.057   2.349
83931W        W52149   7.982   4.333   1.013
83932W        W52150  26.025   8.690  10.684
83933W        W52151  27.640  41.112   1.408
83934W        W52152   7.966  42.756   5.374
83935W        W52153  40.083  29.711  14.908
83936W        W52154  16.968  39.095   2.615
83937W        W52155  10.361  25.244   0.507
83938W        W52156  25.700  41.712   1.196
83939W        W52157  37.964   5.045  11.876
83940W        W52158  11.287  29.462   2.908
83941W        W52159  37.301  24.236  12.923
83942W        W52160  32.125  29.101  12.156
83943W        W52161  33.755  20.248  11.147
83944W        W52162  34.826  35.457  10.882
83945W        W52163  12.639  44.968  11.466
83946W        W52164  18.438  31.622  10.249
83947W        W52165  33.437   5.742   0.933
83948W        W52166   0.992   2.963  11.633
83949W        W52167   6.016   8.684  14.060
83950W        W52168   2.777  12.742  14.242
83951W        W52169  34.405  30.713   1.518
83952W        W52170   0.526   1.173   2.135
83953W        W52171   3.216  12.607  14.514
83954W        W52172  44.195  44.238  10.720
83955W        W52173   7.842  33.612   2.538
83956W        W52174  10.164  38.842  12.409
83957W        W52175   0.116   7.349  14.321
83958W        W52176  19.821   4.917   2.676
83959W        W52177   2.498  21.616   1.703
83960W        W52178  19.105  11.559  14.068
83961W        W52179  11.369  35.944   3.274
83962W        W52180  17.356  41.782   4.438
83963W        W52181   7.681  25.268  11.463
83964W        W52182  23.410  13.833   3.685
83965W        W52183  18.780  34.894   0.410
83966W        W52184  27.926  25.450  10.982
83967W        W52185  21.160  41.277  12.513
83968W        W52186  22.999  31.273  13.784
83969W        W52187  30.064  34.501   2.244
83970W        W52188  39.265  42.351  11.919
83971W        W52189  16.105  14.587   0.923
83972W        W52190  12.656  17.296   1.757
83973W        W52191  22.930  20.987   3.097
83974W        W52192  27.649  41.473   2.443
83975W        W52193  41.923  36.036  13.759
83976W        W52194  25.688  43.638  11.386
83977W        W52195  12.581  12.318   3.454
83978W        W52196  18.035  43.569   4.696
83979W        W52197  34.574  40.875   3.642
83980W        W52198  15.576  43.032  13.868
83981W        W52199  15.595  21.044  10.347
83982W        W52200  30.836  15.646  11.038
83983W        W52201  43.619  20.789   3.164
83984W        W52202  38.754  11.004   3.271
83985W        W52203  40.711  27.153   4.528
83986W        W52204  13.830  40.387  13.454
83987W        W52205  40.496   9.674  14.527
83988W        W52206   8.736  10.263  13.283
83989W        W52207   7.405   6.680  12.031
83990W        W52208   2.238   8.055  14.335
83991W        W52209  41.058  44.990  12.669
83992W        W52210  44.349   3.445  13.526
83993W        W52211  17.602  21.315   1.766
83994W        W52212  29.414  22.635   4.497
83995W        W52213  16.111   8.881  13.876
83996W        W52214  12.958   6.646   2.654
83997W        W52215  17.462   4.733   3.269
83998W        W52216   8.477  15.841  14.401
83999W        W52217   9.700  22.544   0.848
84000W        W52218  21.640   4.461  14.013
84001W        W52219  31.813  11.515  13.360
84002W        W52220  14.193  26.176  14.562
84003W        W52221  28.186  24.776  13.333
84004W        W52222  11.230  33.148  12.899
84005W        W52223   2.318  35.027   2.691
84006W        W52224  37.010  43.738  14.524
84007W        W52225  23.246  40.450   2.307
84008W        W52226  23.744  13.191  11.076
84009W        W52227  31.787   1.194   3.431
84010W        W52228  17.946  44.252  12.575
84011W        W52229  16.634   6.801  12.171
84012W        W52230   7.453   9.584   2.140
84013W        W52231  39.427  20.245   3.232
84014W        W52232  44.754   5.874  10.671
84015W        W52233  18.784  40.499  14.491
84016W        W52234   0.860  18.992  12.659
84017W        W52235  28.035  30.272  10.995
84018W        W52236  18.320  17.634   0.876
84019W        W52237  29.098  36.881   4.148
84020W        W52238  31.033  44.793   2.667
84021W        W52239  34.137  16.165   2.173
84022W        W52240   4.868  42.552  11.686
84023W        W52241  23.782   8.265   2.695
84024W        W52242  20.282   4.363  12.577
84025W        W52243  24.903  26.913   4.259
84026W        W52244  21.163  33.423   3.250
84027W        W52245   9.104  27.062  12.416
84028W        W52246  34.678  12.670   4.786
84029W        W52247   2.802   5.717  11.272
84030W        W52248  42.351   8.634   3.056
84031W        W52249  41.378  44.512  14.482
84032W        W52250  32.914  12.540   3.273
84033W        W52251  38.290  22.606   3.227
84034W        W52252  42.427  39.413   4.508
84035W        W52253  19.076  34.091  12.227
84036W        W52254  35.860  14.232   3.076
84037W        W52255  26.250  42.360  13.044
84038W        W52256   7.375   7.436   3.084
84039W        W52257  31.700  43.327   1.009
84040W        W52258  27.899  13.692   3.077
84041W        W52259  34.824  28.209   0.874
84042W        W52260   2.576   9.249  13.324
84043W        W52261  14.145  26.425   2.828
84044W        W52262  10.051  35.893   1.128
84045W        W52263  11.354  31.543   1.610
84046W        W52264   5.144  16.657  12.447
84047W        W52265  36.943  26.937   4.193
84048W        W52266  15.339  38.390  11.876
84049W        W52267  24.659  40.911   4.227
84050W        W52268  14.098   1.688  14.418
84051W        W52269   5.460  24.515   0.876
84052W        W52270   9.697  11.297  10.656
84053W        W52271  21.624  34.862  13.397
84054W        W52272   3.020  38.622  11.151
84055W        W52273  17.131  10.828   0.487
84056W        W52274  18.080  40.433   0.800
84057W        W52275  22.111  19.537  13.982
84058W        W52276   2.648   8.397   3.170
84059W        W52277   2.280  41.023   1.785
84060W        W52278  11.188   8.811  14.111
84061W        W52279  12.551  30.160   0.218
84062W        W52280  27.640  34.127   2.225
84063W        W52281   7.388  20.756  13.884
84064W        W52282   2.435  32.119  10.577
84065W        W52283  34.416   7.722  14.055
84066W        W52284  42.561  11.134   3.623
84067W        W52285   7.260  34.480   0.796
84068W        W52286  41.346  25.109   3.771
84069W        W52287   1.882  22.529   0.299
84070W        W52288  10.841  25.711   1.352
84071W        W52289  32.111   6.895   2.591
84072W        W52290  41.843  24.069   3.201
84073W        W52291   3.733   6.670  12.085
84074W        W52292   6.747  19.073   2.483
84075W        W52293   2.996  25.048   1.657
84076W        W52294  29.984   1.481   3.814
84077W        W52295  37.340   0.908  14.493
84078W        W52296  43.563  26.604   3.244
84079W        W52297  36.385   2.877  13.356
84080W        W52298  26.989  32.107   3.471
84081W        W52299  18.092  32.690   1.839
84082W        W52300  32.579  28.238   0.141
84083W        W52301  31.410   6.844  11.552
84084W        W52302  41.323  12.940  12.853
84085W        W52303   4.508  30.598   1.478
84086W        W52304   8.179  31.946   0.238
84087W        W52305   0.990  13.251  10.759
84088W        W52306  40.985  41.973   2.020
84089W        W52307  32.023  11.435  10.297
84090W        W52308  36.453  17.636   3.818
84091W        W52309  35.464  12.613   1.147
84092W        W52310  32.528   5.004  14.497
84093W        W52311  17.336   8.320  10.941
84094W        W52312  29.592  38.066   2.410
84095W        W52313   9.678  11.671   1.350
84096W        W52314  31.917  17.011   0.529
84097W        W52315  34.388  16.081   1.386
84098W        W52316  29.384   1.978   3.776
84099W        W52317   7.710  23.987  12.985
84100W        W52318  13.810  10.323  12.837
84101W        W52319  21.453  28.939  12.017
84102W        W52320  14.593  28.516   4.623
84103W        W52321  17.595  23.087  13.320
84104W        W52322  15.264  12.051   2.576
84105W        W52323  33.675   7.489   0.904
84106W        W52324  38.848  21.652   0.912
84107W        W52325  34.428   5.599  14.783
84108W        W52326  31.204  14.395  10.247
84109W        W52327  40.794  10.713   2.212
84110W        W52328  15.291  42.801   2.339
84111W        W52329   7.665  35.549  13.843
84112W        W52330  10.130  13.999  12.238
84113W        W52331  11.922  30.923   2.215
84114W        W52332   3.334   2.785  12.830
84115W        W52333  25.494  40.897   2.781
84116W        W52334  16.203   6.552  12.422
84117W        W52335  14.044  23.107   2.632
84118W        W52336   9.158   6.870   0.711
84119W        W52337   0.991  31.739  11.128
84120W        W52338  32.518  23.637   2.294
84121W        W52339   2.423  25.565  14.056
84122W        W52340  22.397   9.960  14.927
84123W        W52341  21.879  12.599   3.427
84124W        W52342   9.332  38.560   2.688
84125W        W52343   8.169  27.232   0.868
84126W        W52344   6.958  33.589  10.720
84127W        W52345  39.565  40.827   4.035
84128W        W52346   1.157  16.062   1.152
84129W        W52347  14.804  44.907  12.494
84130W        W52348  14.548  22.237   9.750
84131W        W52349  40.265   0.500   4.565
84132W        W52350   8.270  22.507  12.294
84133W        W52351  16.221   3.521  11.688
84134W        W52352  18.649  43.496   1.916
84135W        W52353  44.793  16.326   1.029
84136W        W52354  41.296   0.257  14.966
84137W        W52355  43.862  37.270  11.228
84138W        W52356  30.030  20.551   1.704
84139W        W52357  40.849  20.345  14.429
84140W        W52358  18.226  33.883  13.998
84141W        W52359  36.968  27.488   0.798
84142W        W52360  32.118  17.514   0.292
84143W        W52361  25.125  29.148   1.389
84144W        W52362  31.579   1.643   4.722
84145W        W52363  28.163   8.149   3.668
84146W        W52364  29.411  10.714   1.707
84147W        W52365  13.418  19.478  14.055
84148W        W52366  13.179   5.905   0.239
84149W        W52367  23.599   3.941  14.815
84150W        W52368  44.012  21.647   1.394
84151W        W52369  34.315  14.814   4.524
84152W        W52370  25.652   6.306  10.774
84153W        W52371  32.883  42.904   1.410
84154W        W52372  17.568  19.526   3.141
84155W        W52373   8.020   5.226  13.547
84156W        W52374  11.293   5.284   0.413
84157W        W52375  23.055  14.864   3.696
84158W        W52376  40.770   5.314   1.995
84159W        W52377  41.421  37.080   1.573
84160W        W52378  20.457  29.088   4.278
84161W        W52379  14.164  39.384  13.808
84162W        W52380  16.531  11.644  12.369
84163W        W52381   7.136  33.020   4.183
84164W        W52382  36.303   0.812  12.877
84165W        W52383  33.337  29.228  14.028
84166W        W52384  37.686  23.188   4.104
84167W        W52385  33.571  20.178  14.005
84168W        W52386  12.116  41.514   3.762
84169W        W52387  13.864  21.144  12.379
84170W        W52388  26.776  32.529  11.015
84171W        W52389   9.846  10.278  10.556
84172W        W52390   4.161  24.627   3.678
84173W        W52391  31.108   5.472   0.999
84174W        W52392  16.383  23.298  13.862
84175W        W52393  37.067  12.955  11.100
84176W        W52394  37.463  41.972  13.419
84177W        W52395  24.717   2.938   1.829
84178W        W52396  31.625   5.522  14.278
84179W        W52397  38.705   0.239  12.513
84180W        W52398  20.784  21.669   3.068
84181W        W52399  17.306  35.609   0.751
84182W        W52400  32.454  40.721  11.074
84183W        W52401  39.921  24.201   3.199
84184W        W52402  44.479   0.311  11.938
84185W        W52403   4.359  35.359   0.494
84186W        W52404   2.503  43.845   0.342
84187W        W52405   3.804  16.013  13.904
84188W        W52406   6.919  44.423  11.277
84189W        W52407  25.598  10.926  11.697
84190W        W52408  37.966  34.647   1.692
84191W        W52409  18.786  32.254   5.064
84192W        W52410  38.021   8.247  12.861
84193W        W52411   7.377  16.822  11.717
84194W        W52412   1.567  31.577   2.792
84195W        W52413  18.037  30.304   2.909
84196W        W52414  29.171  43.464   3.691
84197W        W52415  22.573  17.826  13.097
84198W        W52416  18.028  25.435   4.246
84199W        W52417  23.081   0.228  14.872
84200W        W52418   2.805  42.443  12.951
84201W        W52419  19.576  26.670   2.385
84202W        W52420  27.987  44.022  12.519
84203W        W52421  32.082   7.983   4.022
84204W        W52422  38.118  27.867  13.189
84205W        W52423  13.788  22.865  12.442
84206W        W52424  40.477   7.806   0.289
84207W        W52425  28.933   2.603   1.388
84208W        W52426  37.312  11.319   0.436
84209W        W52427  33.109  33.404   2.761
84210W        W52428  10.556  26.352  10.758
84211W        W52429  29.058   6.784  13.000
84212W        W52430  33.109  15.426   3.700
84213W        W52431  42.469  11.370   0.870
84214W        W52432  19.053   5.461  13.062
84215W        W52433   5.201  38.880  13.094
84216W        W52434  27.330  20.736  11.514
84217W        W52435  15.366   6.062  11.549
84218W        W52436  29.149  23.223  10.270
84219W        W52437  43.733   8.228  13.505
84220W        W52438  10.745  29.006  12.049
84221W        W52439  24.101  40.714  11.551
84222W        W52440  25.166  15.646  14.374
84223W        W52441   6.689  24.168  14.910
84224W        W52442   2.952  43.845  14.453
84225W        W52443  42.308  31.229  14.372
84226W        W52444  42.022  13.407  14.280
84227W        W52445  38.853  38.150  13.798
84228W        W52446  17.192  28.410  11.958
84229W        W52447  27.239   2.215  11.097
84230W        W52448   7.817  28.584  12.591
84231W        W52449  35.058  31.031  12.064
84232W        W52450  11.933  20.224   4.526
84233W        W52451   7.846   1.434  12.372
84234W        W52452  38.826   4.379  13.045
84235W        W52453   7.255   3.230  10.745
84236W        W52454  32.452  20.184   4.074
84237W        W52455  38.525   8.455  10.589
84238W        W52456   6.392  34.132   0.884
84239W        W52457   1.856  42.113   3.643
84240W        W52458  35.774  13.985  13.855
84241W        W52459  29.022  16.697   3.724
84242W        W52460  21.672   0.817  11.710
84243W        W52461  40.318  17.194   1.659
84244W        W52462  29.435  34.139  14.434
84245W        W52463   7.149  31.133   0.757
84246W        W52464  31.566  29.973   0.867
84247W        W52465   4.803  29.588  12.932
84248W        W52466  18.469   4.156  13.952
84249W        W52467  28.963   5.776   0.399
84250W        W52468  10.678   2.669   4.527
84251W        W52469   4.783  43.258  10.197
84252W        W52470  23.657  40.264   0.065
84253W        W52471  24.439  41.385   4.880
84254W        W52472  36.562  17.191   1.965
84255W        W52473  25.235  36.095  10.652
84256W        W52474   8.396  30.706  11.743
84257W        W52475  20.032  10.108   3.451
84258W        W52476  10.407  26.520   4.654
84259W        W52477  13.704  15.207   0.031
84260W        W52478  10.462  17.707   3.787
84261W        W52479  13.290  24.448   4.209
84262W        W52480   1.804  23.792  13.066
84263W        W52481  14.688  43.401  12.988
84264W        W52482   6.353  37.613  13.549
84265W        W52483  26.004  40.932   4.414
84266W        W52484  30.578   0.905  14.555
84267W        W52485  22.399   3.551   4.069
84268W        W52486  35.389   6.710   0.920
84269W        W52487  33.961  35.975  13.473
84270W        W52488   3.946   8.862  11.204
84271W        W52489  13.339  39.938  12.574
84272W        W52490  23.476  39.433  11.652
84273W        W52491  27.888  13.193  13.668
84274W        W52492  35.323   9.146   0.833
84275W        W52493  13.402  28.159  11.743
84276W        W52494  16.397   1.101  10.228
84277W        W52495  31.335  37.544  12.388
84278W        W52496  24.402   0.976   1.077
84279W        W52497   0.245  21.692  13.558
84280W        W52498  18.140   7.992  10.620
84281W        W52499   6.403  38.966   1.906
84282W        W52500  33.525  25.220  11.278
84283W        W52501  28.559  38.388  12.463
84284W        W52502  40.534  34.586   1.508
84285W        W52503   8.821  42.924   1.952
84286W        W52504  33.553  23.931   3.244
84287W        W52505  40.084  12.862   1.742
84288W        W52506   1.517  34.663  11.951
84289W        W52507  34.644  31.031   3.613
84290W        W52508  20.932  39.380   4.076
84291W        W52509  17.201  22.261   0.125
84292W        W52510  21.394  20.041  11.113
84293W        W52511  12.114  13.205  10.713
84294W        W52512   9.473  14.289  10.588
84295W        W52513  10.506  15.256  11.086
84296W        W52514  24.041   4.513  11.116
84297W        W52515  21.062  21.750  12.491
84298W        W52516  41.850  38.428  13.479
84299W        W52517  33.805  41.168   1.387
84300W        W52518  33.521  35.204   4.524
84301W        W52519  42.618  31.375  11.193
84302W        W52520  18.764  13.297  11.796
84303W        W52521  28.582  23.952   4.058
84304W        W52522  27.346  30.132  13.469
84305W        W52523   7.829  35.267  13.443
84306W        W52524  13.293   5.315   3.168
84307W        W52525  19.343  40.464  14.340
84308W        W52526  39.407   9.218   2.276
84309W        W52527  14.407   2.258  13.006
84310W        W52528   4.892  34.930  12.339
84311W        W52529  12.343   8.801  12.200
84312W        W52530  17.653  37.345  14.855
84313W        W52531  19.975  28.062  11.075
84314W        W52532  30.009  17.014  11.058
84315W        W52533  10.689  43.739  12.456
84316W        W52534  18.106   5.695  12.355
84317W        W52535  21.503  44.250  12.541
84318W        W52536  29.306  18.763   5.083
84319W        W52537  11.354  43.575  10.519
84320W        W52538  40.996  44.932   1.853
84321W        W52539  25.986  19.327  12.313
84322W        W52540  17.123  31.971   1.528
84323W        W52541  14.272  24.513   1.364
84324W        W52542  23.006  26.660   3.012
84325W        W52543  22.764  11.150  13.530
84326W        W52544  23.310  23.136  12.171
84327W        W52545  36.102   8.875   4.659
84328W        W52546   5.689  39.056   0.797
84329W        W52547   3.197  33.497   4.522
84330W        W52548   5.242   7.342   0.404
84331W        W52549  22.739  28.077  13.797
84332W        W52550  32.087  44.857  14.168
84333W        W52551  15.662  39.697   9.852
84334W        W52552  15.341  28.409  10.748
84335W        W52553  36.630  15.654  12.194
84336W        W52554  41.959  15.078  14.894
84337W        W52555  15.135   3.806   4.376
84338W        W52556  12.827  35.679  11.651
84339W        W52557  33.877  42.007   2.304
84340W        W52558  29.280  42.897   2.800
84341W        W52559   6.401   7.756   1.339
84342W        W52560  13.958  42.690   3.134
84343W        W52561   8.908   6.375  14.744
84344W        W52562   3.938  10.739   1.652
84345W        W52563  24.722  13.942  11.141
84346W        W52564   5.694  37.239   2.787
84347W        W52565  11.861   0.539  10.156
84348W        W52566   0.385  28.442  13.790
84349W        W52567   4.856   1.241  12.492
84350W        W52568  18.014   9.417   4.113
84351W        W52569  26.296  25.212   3.601
84352W        W52570  27.518  43.541   4.380
84353W        W52571   2.283  29.676   0.535
84354W        W52572  39.147   8.756  13.151
84355W        W52573  10.091  11.614  12.417
84356W        W52574  21.653  21.145   4.530
84357W        W52575  38.362  38.795   0.738
84358W        W52576  31.194  35.017  10.766
84359W        W52577   9.824  14.148   2.659
84360W        W52578  23.043  13.032   0.770
84361W        W52579   0.050  33.021  10.590
84362W        W52580  10.651  15.225  13.618
84363W        W52581  40.107  41.795  13.523
84364W        W52582  25.961  20.999   3.583
84365W        W52583  16.175  12.657  11.873
84366W        W52584  32.627   9.790  10.742
84367W        W52585  22.714   6.960  12.216
84368W        W52586  34.129  10.217   1.644
84369W        W52587  39.937  12.327   0.876
84370W        W52588  44.196  40.343   2.790
84371W        W52589   5.978  19.112   0.003
84372W        W52590   4.724  19.218   3.538
84373W        W52591  43.465  25.503   2.529
84374W        W52592  11.507  12.207  13.673
84375W        W52593   0.743  15.737   0.834
84376W        W52594  31.527  35.484  13.454
84377W        W52595  42.330  26.911   4.473
84378W        W52596  36.497  34.890  11.569
84379W        W52597  26.067  21.499   3.622
84380W        W52598   9.149   9.315   4.309
84381W        W52599  24.155   0.252   3.282
84382W        W52600  31.468  26.190   4.307
84383W        W52601  13.320   8.133  11.992
84384W        W52602  40.429  19.656  13.132
84385W        W52603  25.497  24.575   1.872
84386W        W52604  40.409  26.482   0.335
84387W        W52605   4.849  33.470  11.550
84388W        W52606  42.958  37.090   3.528
84389W        W52607  41.681  12.936  14.417
84390W        W52608  41.421  10.756  11.450
84391W        W52609  37.396  30.354   0.532
84392W        W52610   8.800  31.350   3.154
84393W        W52611  43.304  20.550   1.758
84394W        W52612  17.369  14.674  11.843
84395W        W52613  40.891  43.381  14.183
84396W        W52614  22.052  12.317  11.148
84397W        W52615   8.885   6.308  12.021
84398W        W52616  16.742  12.365  14.540
84399W        W52617  40.289  35.331   2.716
84400W        W52618   5.277  10.023  13.908
84401W        W52619  10.897  14.843   3.124
84402W        W52620  41.753   1.688  10.267
84403W        W52621   3.877  24.464  13.009
84404W        W52622  43.924   7.078  12.529
84405W        W52623  18.844  25.669   2.634
84406W        W52624   6.786  23.288  13.950
84407W        W52625  36.082  12.779   3.384
84408W        W52626  15.839   6.927  14.705
84409W        W52627  42.618  39.976   3.007
84410W        W52628  10.683  33.512  12.023
84411W        W52629   2.135  15.597  10.998
84412W        W52630  25.024  30.446  11.933
84413W        W52631  16.624  12.606   4.713
84414W        W52632  14.964  39.854   3.259
84415W        W52633  30.392  23.273  14.053
84416W        W52634  24.640  25.927   4.826
84417W        W52635   7.339  27.588  13.378
84418W        W52636  34.946  23.789   3.928
84419W        W52637  16.197  30.171  14.850
84420W        W52638  38.176  39.945   0.854
84421W        W52639  41.043  18.629  11.169
84422W        W52640   6.467  26.503   1.915
84423W        W52641   5.686  28.458   2.294
84424W        W52642  15.741  21.689   0.346
84425W        W52643  16.170  22.049   3.296
84426W        W52644  25.256  11.481  11.104
84427W        W52645   4.865   2.393   1.177
84428W        W52646  44.768  32.160  12.061
84429W        W52647   9.110  18.478  10.587
84430W        W52648   0.820  18.802   2.881
84431W        W52649   3.199   2.262  12.953
84432W        W52650   5.300   8.613   3.665
84433W        W52651  27.711  16.119   2.269
84434W        W52652  29.105  35.378   0.782
84435W        W52653   4.853  27.775  12.689
84436W        W52654  30.696  11.345   3.715
84437W        W52655   0.196  44.848   1.802
84438W        W52656  16.496  26.519  11.022
84439W        W52657  44.250   0.380   3.184
84440W        W52658  30.683  11.847  11.682
84441W        W52659  28.415  21.035  12.895
84442W        W52660  13.525   8.198  13.425
84443W        W52661  44.562  11.029  13.343
84444W        W52662  33.907  42.046   3.172
84445W        W52663  43.035  17.268  14.897
84446W        W52664  11.331  42.944   3.141
84447W        W52665  23.537   2.198  13.522
84448W        W52666  38.543  39.010  14.786
84449W        W52667  19.960   4.809   2.187
84450W        W52668   2.283   8.853  12.471
84451W        W52669  30.043  36.427  14.639
84452W        W52670   9.950  42.401   0.675
84453W        W52671  26.196  22.050   4.887
84454W        W52672  26.719  20.586   4.402
84455W        W52673  40.030  24.761   0.548
84456W        W52674   0.413   1.720  11.484
84457W        W52675  26.571  14.900   2.743
84458W        W52676   2.793  25.613   0.434
84459W        W52677  31.276  25.773  11.022
84460W        W52678  22.194  44.933  13.931
84461W        W52679  35.343   6.841  11.178
84462W        W52680  39.237  23.628   4.045
84463W        W52681   9.644   3.393   0.858
84464W        W52682  38.862  38.609  10.511
84465W        W52683  29.440  28.104  12.122
84466W        W52684  34.786  39.606   0.915
84467W        W52685  29.585  23.738   2.773
84468W        W52686  36.143  24.603  14.425
84469W        W52687  33.202  24.281  14.428
84470W        W52688  17.163  43.508   2.645
84471W        W52689  42.125  12.950   0.136
84472W        W52690  23.114  16.716   1.627
84473W        W52691  25.002   5.784   4.752
84474W        W52692  39.483   8.352  14.965
84475W        W52693  10.333  34.293   0.487
84476W        W52694  23.781  22.129   2.772
84477W        W52695   1.808  23.499   0.129
84478W        W52696  14.587  39.573   0.807
84479W        W52697  28.474  16.015   3.935
84480W        W52698  10.035  38.085   4.185
84481W        W52699   8.872  30.174  13.023
84482W        W52700  25.696  44.111  14.196
84483W        W52701  34.448   3.562   4.228
84484W        W52702  15.728  11.746   3.121
84485W        W52703  12.569  26.093   1.893
84486W        W52704  16.646  13.112   1.872
84487W        W52705  27.787  35.472   1.339
84488W        W52706  27.537  38.923   3.192
84489W        W52707  40.304  19.778  11.207
84490W        W52708   7.019   0.975  12.843
84491W        W52709   0.726  13.753   4.014
84492W        W52710  44.282  25.162  12.042
84493W        W52711  35.112  14.340   3.720
84494W        W52712  38.291   6.326  14.334
84495W        W52713  15.825  34.644   3.728
84496W        W52714  28.711   0.736  11.785
84497W        W52715  37.569  39.472   0.199
84498W        W52716  16.921  31.079   1.905
84499W        W52717   5.540   9.646  12.175
84500W        W52718  33.584  21.612  10.644
84501W        W52719   8.283  37.758   4.897
84502W        W52720   8.104   4.768  10.483
84503W        W52721   4.477  24.260  12.408
84504W        W52722  17.675  42.812   1.181
84505W        W52723   8.338   2.023  13.342
84506W        W52724  39.010  31.680  12.345
84507W        W52725  44.048  19.870   1.941
84508W        W52726  22.330  29.727   0.264
84509W        W52727  40.586  31.554   3.289
84510W        W52728  28.187  23.640  13.848
84511W        W52729  38.829  30.493   1.172
84512W        W52730  15.563  11.796  13.369
84513W        W52731  29.691   3.832   2.140
84514W        W52732  23.489  28.612   1.865
84515W        W52733  33.497  35.561   2.350
84516W        W52734  31.966  24.462  12.417
84517W        W52735   7.294   1.466   3.600
84518W        W52736  12.217  26.272  11.245
84519W        W52737  33.613  41.905   2.735
84520W        W52738  14.379   7.466  14.761
84521W        W52739   6.721  33.887   3.782
84522W        W52740  24.724   9.724   4.561
84523W        W52741  38.854  19.666   2.075
84524W        W52742   2.257  41.723   3.685
84525W        W52743  43.538  25.889   2.208
84526W        W52744  19.147  25.003   4.672
84527W        W52745  42.395  26.166  12.028
84528W        W52746  43.809   7.795   1.700
84529W        W52747  41.055  29.815  11.438
84530W        W52748  41.723  31.922   2.791
84531W        W52749  10.336  35.494   4.101
84532W        W52750  25.986  25.011  13.458
84533W        W52751  11.642   8.447   3.210
84534W        W52752  16.050  42.950   4.654
84535W        W52753  42.468  34.029  12.598
84536W        W52754  14.714  12.601  14.033
84537W        W52755   9.843   4.932   4.241
84538W        W52756   9.178   1.501  14.294
84539W        W52757  14.792   6.196  14.761
84540W        W52758  20.108  31.552   4.142
84541W        W52759  24.016   4.563  11.628
84542W        W52760   8.911   5.409  11.373
84543W        W52761  15.625   5.044   1.752
84544W        W52762  30.431  17.345   3.818
84545W        W52763  42.109  16.723   4.778
84546W        W52764  29.242  13.178   3.065
84547W        W52765  14.127  19.076  10.785
84548W        W52766  27.096  25.951  14.966
84549W        W52767  11.787  28.058   1.928
84550W        W52768   0.038  22.311  12.451
84551W        W52769  16.742  23.678  14.535
84552W        W52770  42.853   8.896  11.958
84553W        W52771   9.404   2.911  14.337
84554W        W52772  37.467  42.666   0.397
84555W        W52773   2.898  26.260   2.754
84556W        W52774  41.985  37.275  12.502
84557W        W52775  21.774  29.122   1.740
84558W        W52776  35.092  28.992  12.488
84559W        W52777  16.009   4.723   3.111
84560W        W52778  15.292  20.621   2.377
84561W        W52779  39.969  32.197  14.729
84562W        W52780  30.669  22.799  11.326
84563W        W52781  30.097  38.498   0.984
84564W        W52782  14.352   1.034  13.790
84565W        W52783  10.299   7.349  10.981
84566W        W52784  16.686  44.436   5.311
84567W        W52785  40.815   5.714  11.063
84568W        W52786  43.967  13.847   0.902
84569W        W52787   4.333  35.552  13.866
84570W        W52788  20.576   6.463   3.187
84571W        W52789  35.322   6.528  12.051
84572W        W52790  35.045   1.871   3.229
84573W        W52791  38.063   2.167   1.179
84574W        W52792  22.757  20.052   3.064
84575W        W52793  21.650  38.752   1.388
84576W        W52794  39.482  18.774  14.815
84577W        W52795   1.493  18.786  14.488
84578W        W52796  31.011  12.754  12.831
84579W        W52797  39.820  28.477   0.221
84580W        W52798  43.362  14.203  14.916
84581W        W52799  20.643  14.585   0.983
84582W        W52800   8.673  22.708  12.069
84583W        W52801  22.193  16.186  11.164
84584W        W52802  33.412   2.392   4.037
84585W        W52803  37.549  26.482  14.542
84586W        W52804  35.316   6.686   1.706
84587W        W52805  43.500  43.808   1.389
84588W        W52806   4.349  40.190   0.669
84589W        W52807   6.103   9.723  14.124
84590W        W52808   9.598  15.101   3.207
84591W        W52809  39.550   6.771  11.639
84592W        W52810   7.222  31.382  13.512
84593W        W52811  36.387   7.609  14.734
84594W        W52812  25.979  30.651   0.314
84595W        W52813  30.850  30.413  11.262
84596W        W52814  43.423  17.083  10.653
84597W        W52815  29.456  16.452   1.655
84598W        W52816   0.743  14.270   2.252
84599W        W52817  32.714  15.587  11.558
84600W        W52818   2.458  18.344  14.483
84601W        W52819  15.641  10.711  12.683
84602W        W52820  41.071  41.876  11.706
84603W        W52821  24.211  25.443  13.034
84604W        W52822  37.147  17.204  14.763
84605W        W52823   3.595   4.679  11.156
84606W        W52824  38.544  16.452  10.354
84607W        W52825  10.623  37.100  14.542
84608W        W52826  25.740  34.541   4.131
84609W        W52827  43.345  31.731   0.614
84610W        W52828  42.567  36.063   1.020
84611W        W52829   9.240   1.144  11.533
84612W        W52830  11.961  19.468  10.150
84613W        W52831  16.302   5.261   4.290
84614W        W52832  20.560  21.625   1.355
84615W        W52833  21.256  33.794  13.971
84616W        W52834  38.045  44.357   3.705
84617W        W52835  31.556   7.650  12.438
84618W        W52836   6.130  25.742   0.977
84619W        W52837  44.845  23.047   3.140
84620W        W52838  27.269  38.440  10.762
84621W        W52839  11.441  15.623   0.355
84622W        W52840   4.098  41.952  13.819
84623W        W52841   4.392   4.000  12.555
84624W        W52842  14.754  15.613  12.673
84625W        W52843  36.787  40.831  12.436
84626W        W52844  35.815  28.739   0.394
84627W        W52845   4.164  30.226   1.264
84628W        W52846  33.553  15.036  14.172
84629W        W52847  35.625   8.407  14.313
84630W        W52848  12.792  11.365  12.923
84631W        W52849   2.393  11.279   2.192
84632W        W52850  11.844   3.380   2.675
84633W        W52851  35.688  24.113   2.099
84634W        W52852  26.113  14.288   1.502
84635W        W52853  29.736  44.318   4.692
84636W        W52854   1.146   5.479  10.665
84637W        W52855  22.063  13.454   4.985
84638W        W52856  29.208  11.328   3.697
84639W        W52857  27.498   2.797   2.764
84640W        W52858  21.710  37.400   4.370
84641W        W52859  29.033  26.004   1.852
84642W        W52860  14.619   5.782  10.760
84643W        W52861  44.129  19.575   1.041
84644W        W52862  12.489  23.210  14.442
84645W        W52863   3.258  37.093  13.756
84646W        W52864  38.475   2.262   0.862
84647W        W52865  22.772  23.781   0.869
84648W        W52866  22.695  37.117  14.771
84649W        W52867  11.484  26.028  13.062
84650W        W52868   1.967  36.930   3.646
84651W        W52869  26.571  16.729   2.625
84652W        W52870  43.326  11.060   4.264
84653W        W52871  12.800  44.859   0.089
84654W        W52872  21.471  27.716   3.049
84655W        W52873  22.975  15.256  11.025
84656W        W52874  34.603  40.586   4.900
84657W        W52875  18.587  36.579  12.471
84658W        W52876  44.324  38.739  10.326
84659W        W52877  17.022  30.615  14.539
84660W        W52878  30.218  31.931  14.995
84661W        W52879   0.372  11.452  12.326
84662W        W52880  15.055   9.762  13.736
84663W        W52881  14.412  34.980   0.389
84664W        W52882  41.276  40.032  11.909
84665W        W52883  20.523  34.401  11.626
84666W        W52884  32.743  42.850  11.380
84667W        W52885  22.540  34.625  13.857
84668W        W52886   3.487  37.882   1.540
84669W        W52887   9.767  33.595   4.451
84670W        W52888  26.235  13.739  13.948
84671W        W52889  15.769  36.195   0.555
84672W        W52890   6.303   5.236   4.526
84673W        W52891  14.225  27.908  11.105
84674W        W52892  20.327  12.168   5.466
84675W        W52893  28.951  14.310   2.212
84676W        W52894  19.050  34.589  12.032
84677W        W52895  36.557  16.754   2.261
84678W        W52896  33.613   4.702  13.098
84679W        W52897   1.488  35.106   0.681
84680W        W52898  31.988   9.545  11.328
84681W        W52899  12.928  23.161  12.837
84682W        W52900   0.838  13.606  12.916
84683W        W52901  41.400  39.827  13.806
84684W        W52902  33.753   8.657   0.489
84685W        W52903  43.601  20.691   4.090
84686W        W52904  40.027   3.947   4.179
84687W        W52905  34.438  37.477  12.915
84688W        W52906  24.707  12.859   1.402
84689W        W52907  26.507  23.498   3.206
84690W        W52908   6.815   5.382  13.974
84691W        W52909   1.938  34.319  11.984
84692W        W52910  36.528  30.431  10.717
84693W        W52911   4.924  19.516  12.505
84694W        W52912  29.424  13.102   2.398
84695W        W52913   7.439  37.408  11.910
84696W        W52914   2.250   1.096  14.488
84697W        W52915  34.836  10.820   0.309
84698W        W52916  36.340   7.268  10.386
84699W        W52917  12.677   5.372   2.351
84700W        W52918  40.427   5.219   3.414
84701W        W52919  11.867  37.575   2.738
84702W        W52920  25.956  12.099   1.877
84703W        W52921  12.587  36.179   2.726
84704W        W52922   4.177  38.002  10.517
84705W        W52923  24.293   4.381   4.122
84706W        W52924  29.758  41.554   5.115
84707W        W52925  26.708  17.790  10.125
84708W        W52926  30.215  16.225   1.299
84709W        W52927  23.015  20.717  12.376
84710W        W52928  38.652   8.736  13.016
84711W        W52929   7.718  31.455  13.405
84712W        W52930  41.995  33.343   4.157
84713W        W52931  18.288  39.793   2.097
84714W        W52932  16.357   9.203  12.997
84715W        W52933  24.062   1.471   4.106
84716W        W52934  22.588  42.884   0.233
84717W        W52935  34.805  22.543  11.555
84718W        W52936  36.377   2.334   4.209
84719W        W52937  26.731  33.791   2.590
84720W        W52938  38.820  41.998   4.160
84721W        W52939  15.739  32.422  12.847
84722W        W52940   3.225  32.107  11.639
84723W        W52941  13.790  35.880   0.950
84724W        W52942  20.923  41.035   3.238
84725W        W52943  12.689  26.367  12.809
84726W        W52944  22.841   3.326  14.268
84727W        W52945  16.249  19.559  12.003
84728W        W52946  11.570  24.752   1.290
84729W        W52947  42.875  10.193   0.772
84730W        W52948  13.613  39.938  13.256
84731W        W52949   0.251   7.929  11.085
84732W        W52950  29.703  16.812  12.040
84733W        W52951   4.877  35.434  13.984
84734W        W52952   8.173  16.187  10.715
84735W        W52953   8.308  35.031   3.893
84736W        W52954  26.045  32.504   2.938
84737W        W52955  43.802  34.065   1.733
84738W        W52956   7.770  29.964  10.700
84739W        W52957  14.747  35.119   3.744
84740W        W52958  21.756  12.304   1.333
84741W        W52959  28.001  16.298  12.351
84742W        W52960  17.537  43.704   0.848
84743W        W52961  42.942   9.732  14.056
84744W        W52962  17.673  21.046   3.740
84745W        W52963  13.808  26.617   3.679
84746W        W52964  42.375  25.424   1.404
84747W        W52965  31.070   8.846   0.935
84748W        W52966   1.869  40.622  13.966
84749W        W52967  21.128  20.577  14.115
84750W        W52968  19.335  36.590   2.273
84751W        W52969  34.305  25.516   3.650
84752W        W52970  37.835   8.619  13.680
84753W        W52971   0.792   7.633  10.342
84754W        W52972  10.202   3.967   3.466
84755W        W52973   9.814  25.908  11.297
84756W        W52974  25.151  43.510  14.808
84757W        W52975  32.507  10.841   4.739
84758W        W52976   8.677   3.042  13.843
84759W        W52977  42.362  25.983   3.516
84760W        W52978  25.029  16.955   2.648
84761W        W52979   2.164  30.348  10.090
84762W        W52980  17.502  23.008   3.253
84763W        W52981  19.402  29.055   4.318
84764W        W52982  29.763  18.527  13.887
84765W        W52983  31.478   3.836   3.627
84766W        W52984  23.055  43.452   0.309
84767W        W52985  22.475  42.727   3.342
84768W        W52986  33.310   6.357   0.316
84769W        W52987  39.756  28.126   1.641
84770W        W52988   4.455  25.519   1.441
84771W        W52989  37.478  29.917   4.912
84772W        W52990  31.203  33.008   1.397
84773W        W52991  15.351  24.583  12.609
84774W        W52992  22.346  23.374   2.795
84775W        W52993  28.875  24.151   0.055
84776W        W52994  20.658  29.131  10.667
84777W        W52995   0.265  11.714   1.649
84778W        W52996  10.146  22.600   3.167
84779W        W52997  28.850  15.456   1.344
84780W        W52998  23.633  21.567  12.124
84781W        W52999  36.154  13.613  14.844
84782W        W53000  27.181  17.703   1.698
84783W        W53001  28.741  26.640   0.618
84784W        W53002  28.011  23.737   3.343
84785W        W53003  28.182  20.500   3.725
84786W        W53004  22.085   2.690   2.590
84787W        W53005  18.233  33.167  12.548
84788W        W53006  37.432  18.207  11.887
84789W        W53007  17.255   8.426   2.846
84790W        W53008  24.242  15.115   0.949
84791W        W53009  36.152   6.479   2.762
84792W        W53010   5.730   8.136  10.697
84793W        W53011   2.270  22.877  13.980
84794W        W53012  12.769  21.973   1.442
84795W        W53013   5.498   7.867  14.366
84796W        W53014  27.503  14.680  11.075
84797W        W53015  13.330  30.211   3.662
84798W        W53016  35.800  36.686   4.605
84799W        W53017  39.484  23.277   2.147
84800W        W53018  37.589  24.513   3.288
84801W        W53019   5.893  14.018   4.924
84802W        W53020  38.037  25.953   3.741
84803W        W53021  24.352  27.487  12.088
84804W        W53022  43.296  23.737  14.848
84805W        W53023  22.455  44.119   2.787
84806W        W53024   5.225  40.393  10.746
84807W        W53025  15.091  26.035   2.036
84808W        W53026  42.907  14.277   5.043
84809W        W53027  13.092  35.440   0.408
84810W        W53028   7.588  29.662  11.107
84811W        W53029  10.517  31.560   4.544
84812W        W53030  40.032  40.312   3.652
84813W        W53031  33.801  28.073   0.870
84814W        W53032  22.667  37.164  13.513
84815W        W53033  41.767  13.249  12.904
84816W        W53034  42.543  33.593   2.889
84817W        W53035   3.459  30.036   4.059
84818W        W53036  15.288  24.672   1.185
84819W        W53037  41.729   4.433  13.734
84820W        W53038   4.853  40.460   2.866
84821W        W53039  31.562  19.802   4.698
84822W        W53040  23.181   3.401   0.407
84823W        W53041   5.230   7.690   3.652
84824W        W53042  32.516   0.145   2.112
84825W        W53043   0.347  42.465  11.110
84826W        W53044  35.973  37.901   3.339
84827W        W53045   9.343  39.156  10.999
84828W        W53046  44.983  20.787  11.001
84829W        W53047  19.251  22.925  13.862
84830W        W53048  32.462  19.339   4.441
84831W        W53049  40.924  21.766   1.468
84832W        W53050  42.008  27.012   2.855
84833W        W53051  23.599  20.336  12.914
84834W        W53052   9.247  36.654  13.265
84835W        W53053   1.821  16.305  13.560
84836W        W53054  13.896  18.594  14.312
84837W        W53055  43.189  24.904  11.284
84838W        W53056  12.052   8.807  11.423
84839W        W53057  36.214  32.450  12.739
84840W        W53058  12.391   9.243   1.419
84841W        W53059  37.452  31.772   4.921
84842W        W53060   8.700  40.855   1.818
84843W        W53061  19.209  28.507   3.139
84844W        W53062   6.912  30.529  12.934
84845W        W53063  31.515  14.860   3.436
84846W        W53064   4.686  29.468   3.154
84847W        W53065  20.653   8.909   4.080
84848W        W53066  16.174  35.924   0.850
84849W        W53067  14.323  34.111  12.883
84850W        W53068  18.728  34.533  13.506
84851W        W53069   2.764  34.408   2.152
84852W        W53070  28.452  12.891   4.661
84853W        W53071   3.351  36.719  11.347
84854W        W53072  22.618  38.762   2.348
84855W        W53073  39.658  17.182  13.031
84856W        W53074  11.133  11.447  11.504
84857W        W53075  36.331  10.293  13.900
84858W        W53076  44.598  17.594  11.843
84859W        W53077  25.965  39.234  11.656
84860W        W53078  12.938   7.590  14.025
84861W        W53079  37.065  42.956   0.542
84862W        W53080  17.197  25.627  13.002
84863W        W53081  27.153  10.246   3.163
84864W        W53082  31.529  22.430   3.865
84865W        W53083  22.963  42.866   2.475
84866W        W53084  18.526  34.855   1.244
84867W        W53085   6.884  14.086   2.351
84868W        W53086  33.558   7.365  11.683
84869W        W53087   7.627  22.523  12.898
84870W        W53088  31.070  18.263   1.891
84871W        W53089  35.229  33.526   5.094
84872W        W53090   5.577  17.090   4.592
84873W        W53091   4.448  18.611   2.275
84874W        W53092  34.897  23.169  12.354
84875W        W53093  22.921  11.733   4.094
84876W        W53094  26.586   6.948   4.157
84877W        W53095  24.816  37.278  13.342
84878W        W53096  21.278   1.456   3.369
84879W        W53097  11.863  12.273   2.911
84880W        W53098  34.389   2.971  11.445
84881W        W53099   5.716   3.927   4.717
84882W        W53100  33.238   5.382  12.513
84883W        W53101   6.125  35.317  11.933
84884W        W53102  27.790  13.345   5.128
84885W        W53103   7.448  20.956   4.177
84886W        W53104  19.497   7.218  14.754
84887W        W53105  17.340  10.646  12.134
84888W        W53106  30.110  19.604  12.492
84889W        W53107  12.245  12.515   0.465
84890W        W53108  13.614   7.357  12.479
84891W        W53109  32.463  20.145  14.268
84892W        W53110   9.447   7.752   2.183
84893W        W53111   4.867  43.556   1.809
84894W        W53112  32.140  20.257  11.944
84895W        W53113  31.416  15.857  13.067
84896W        W53114  24.587  30.033   3.830
84897W        W53115  16.547  23.183   1.117
84898W        W53116  29.923  43.811   1.441
84899W        W53117   9.865  32.036   4.135
84900W        W53118  30.873  20.683  12.084
84901W        W53119  25.224  44.006  14.013
84902W        W53120  29.635   7.925  12.968
84903W        W53121  20.482   7.378  14.990
84904W        W53122  19.055  43.451   3.627
84905W        W53123  20.700   3.297  10.736
84906W        W53124  43.057  40.134  11.448
84907W        W53125   7.856  11.177   4.472
84908W        W53126  38.785   7.700  13.924
84909W        W53127  38.344   3.898   3.584
84910W        W53128  38.097  28.581   4.122
84911W        W53129  16.749  41.744  14.395
84912W        W53130  12.773  33.184  12.882
84913W        W53131  21.034  16.106   3.728
84914W        W53132  23.334  44.316   4.219
84915W        W53133  44.512   2.274  12.468
84916W        W53134  18.617  14.847   3.562
84917W        W53135  40.368   0.449   1.360
84918W        W53136  36.353  18.534  10.349
84919W        W53137  42.319  42.572   0.446
84920W        W53138  25.929  20.661  12.841
84921W        W53139  11.685  42.707   0.637
84922W        W53140  20.991  44.378   0.367
84923W        W53141  15.755   6.735   2.300
84924W        W53142   8.913  38.859   4.564
84925W        W53143  29.953   3.855   3.609
84926W        W53144  12.304  10.196   3.525
84927W        W53145  40.874  23.038   4.568
84928W        W53146  29.844  11.816  12.370
84929W        W53147  41.069   5.303   1.411
84930W        W53148  14.844  40.526   0.996
84931W        W53149  13.122  19.609  10.381
84932W        W53150  10.768  23.466  11.615
84933W        W53151  21.409  28.986   3.382
84934W        W53152  44.395   6.956   2.779
84935W        W53153   3.936  42.803  13.152
84936W        W53154   9.692  11.249   0.331
84937W        W53155  35.092  38.578  14.913
84938W        W53156  44.630  12.635   3.757
84939W        W53157  23.766  21.740  11.136
84940W        W53158  37.569  35.130   4.164
84941W        W53159  10.307  31.666  10.738
84942W        W53160  36.921  22.910   2.667
84943W        W53161  23.709   0.980   2.397
84944W        W53162  28.191  26.352   3.585
84945W        W53163   9.573  43.734  10.753
84946W        W53164  12.992  17.494  10.555
84947W        W53165   6.646   4.178  13.263
84948W        W53166  40.579  42.500  12.430
84949W        W53167  30.537  39.833  14.720
84950W        W53168  22.077  34.437   4.094
84951W        W53169   7.900  34.028   4.291
84952W        W53170  18.208   1.716  12.842
84953W        W53171  26.090   0.028  13.416
84954W        W53172  25.191  36.403  13.002
84955W        W53173  44.364  11.357  10.805
84956W        W53174  28.247   4.421  11.315
84957W        W53175  30.408  40.256   4.901
84958W        W53176  38.052   5.872   0.843
84959W        W53177  31.769   3.814   3.221
84960W        W53178  16.807   1.316  14.891
84961W        W53179  22.681  18.842   3.744
84962W        W53180  42.811  20.783   4.515
84963W        W53181  39.746  29.952  14.012
84964W        W53182  42.283   2.678  12.427
84965W        W53183  36.414  13.542   3.154
84966W        W53184  10.041  42.902  12.301
84967W        W53185   1.966   0.305   2.192
84968W        W53186  33.800   4.242  10.303
84969W        W53187   5.685   7.106   1.397
84970W        W53188  28.522  25.705   1.788
84971W        W53189  39.620  39.905  10.411
84972W        W53190  44.694  43.996   0.829
84973W        W53191  27.564  40.958  12.835
84974W        W53192  14.322   8.150  13.004
84975W        W53193  36.813  10.067  11.281
84976W        W53194   7.194   0.996   2.962
84977W        W53195  26.665  25.906  10.293
84978W        W53196   7.628  35.032  13.896
84979W        W53197  19.893  41.413  14.339
84980W        W53198  43.346   9.240   3.824
84981W        W53199   5.741  41.936  14.895
84982W        W53200  44.064  38.552   4.590
84983W        W53201  14.593  21.644   1.361
84984W        W53202  18.404  21.234  11.356
84985W        W53203  24.204  14.304  13.987
84986W        W53204  37.200  39.778  14.528
84987W        W53205   1.571  22.437   5.205
84988W        W53206  25.670  35.912  14.454
84989W        W53207  17.718  25.720  13.719
84990W        W53208  10.320   4.821   0.909
84991W        W53209  19.777  25.482  12.003
84992W        W53210  30.947   6.702   3.174
84993W        W53211  38.218  22.324   4.953
84994W        W53212   2.737  33.851  11.040
84995W        W53213  30.889   5.598  12.199
84996W        W53214  14.548  41.269   3.180
84997W        W53215  34.131  21.614   3.258
84998W        W53216  33.352  17.590   2.753
84999W        W53217  19.387   6.208  13.344
85000W        W53218   8.810  16.186   2.603
85001W        W53219  24.686  36.433  13.028
85002W        W53220  38.770   1.293  10.237
85003W        W53221   7.611  35.998   3.616
85004W        W53222  26.620  12.235  14.950
85005W        W53223  39.824  23.455   2.524
85006W        W53224  15.181  29.623  14.933
85007W        W53225   1.754  33.808   0.010
85008W        W53226  20.748  41.798   1.266
85009W        W53227  40.233  28.197   3.108
85010W        W53228  29.014  16.104   0.345
85011W        W53229  10.228  37.093   0.660
85012W        W53230   2.028  38.936   1.287
85013W        W53231  26.242  21.194  11.679
85014W        W53232  18.742  25.708  13.550
85015W        W53233  42.303  10.798   3.311
85016W        W53234  34.628  12.064   1.414
85017W        W53235  22.179  23.162  11.127
85018W        W53236  33.545   5.233  12.922
85019W        W53237  38.015  23.637  14.111
85020W        W53238  37.127   0.393   3.696
85021W        W53239   5.760   9.118  12.936
85022W        W53240  11.584   2.285   1.854
85023W        W53241  25.126  22.015  10.469
85024W        W53242  31.203  28.585  12.012
85025W        W53243  33.156   4.417   4.089
85026W        W53244   9.953  40.350   4.063
85027W        W53245  33.874  41.073  12.446
85028W        W53246  14.833  37.019  11.160
85029W        W53247  13.670   4.355   1.726
85030W        W53248  34.720  24.492  14.719
85031W        W53249   3.121  35.032  11.584
85032W        W53250  22.231  40.826   2.894
85033W        W53251   8.143  27.224   3.651
85034W        W53252  10.228  21.307  12.354
85035W        W53253  33.601  29.615  13.130
85036W        W53254   3.909  25.538  13.043
85037W        W53255  11.305  23.899  14.996
85038W        W53256  32.806  40.344   0.818
85039W        W53257   1.418  28.653  12.394
85040W        W53258  34.664  13.180  13.863
85041W        W53259  24.220  34.498  13.890
85042W        W53260  27.040  15.860  14.475
85043W        W53261   3.978   3.056  10.644
85044W        W53262  22.415   4.847   3.116
85045W        W53263  32.031  40.818   0.387
85046W        W53264  41.017  43.964  11.527
85047W        W53265  23.727   6.123   2.860
85048W        W53266  18.054  15.550  12.486
85049W        W53267  19.489  11.256  13.172
85050W        W53268  40.501   8.603  14.415
85051W        W53269   7.793  32.484  13.486
85052W        W53270  39.501   8.661   5.503
85053W        W53271  20.728   8.371  13.392
85054W        W53272  27.193  19.296  14.946
85055W        W53273  26.246  19.172  14.811
85056W        W53274  38.345  30.206  14.519
85057W        W53275  18.149  36.495   1.140
85058W        W53276  15.685  34.021  13.310
85059W        W53277  41.030  27.659  12.551
85060W        W53278  21.163  32.871   1.379
85061W        W53279  31.249  12.154   4.428
85062W        W53280   6.051  27.445   1.806
85063W        W53281  41.744  23.000   4.241
85064W        W53282  30.079  28.050  14.058
85065W        W53283   9.136  19.580  12.586
85066W        W53284   8.456   4.246  12.590
85067W        W53285  26.029   2.247  11.902
85068W        W53286  19.304  37.569  12.823
85069W        W53287   3.142  28.981   4.546
85070W        W53288  44.732   9.501  12.192
85071W        W53289  34.427  21.796  12.616
85072W        W53290  26.614  16.823  11.567
85073W        W53291  14.324  39.430  12.973
85074W        W53292  33.439  34.146   2.898
85075W        W53293  35.210   7.504  12.114
85076W        W53294  42.002  37.517  12.970
85077W        W53295  11.390  40.860   2.800
85078W        W53296  26.423   2.406   4.355
85079W        W53297   0.082   2.338  11.209
85080W        W53298  44.028  43.431   1.919
85081W        W53299  31.445  17.087  11.069
85082W        W53300  38.874  30.017  12.346
85083W        W53301   7.269   9.742  13.411
85084W        W53302  14.222  27.483   1.433
85085W        W53303  17.509   9.491   4.102
85086W        W53304  35.432  16.568   4.125
85087W        W53305   0.646  24.272  12.554
85088W        W53306   8.878  34.303   3.866
85089W        W53307   4.358   6.672  13.055
85090W        W53308  24.050  43.310   1.873
85091W        W53309  26.665  39.859   3.441
85092W        W53310  39.037  16.985  13.955
85093W        W53311  31.953  41.967   2.357
85094W        W53312  37.883  38.128   4.083
85095W        W53313  32.376  29.540   4.579
85096W        W53314  14.200   1.335  11.439
85097W        W53315  40.019  13.737  13.971
85098W        W53316  14.171  30.524   4.289
85099W        W53317  17.369  10.552   4.455
85100W        W53318  43.492  19.031  14.370
85101W        W53319   7.687  22.065   1.341
85102W        W53320  25.454  26.003   0.499
85103W        W53321  36.570  32.230  13.056
85104W        W53322  17.080  20.992  14.787
85105W        W53323   3.281   1.029   3.161
85106W        W53324  28.084  18.567  13.676
85107W        W53325  30.529  43.308   4.107
85108W        W53326  22.177  37.286  11.402
85109W        W53327  31.085  24.493  14.695
85110W        W53328  28.942   8.670   1.683
85111W        W53329   4.314  19.483   2.012
85112W        W53330   1.897  35.400   0.502
85113W        W53331   0.637  42.587  11.535
85114W        W53332  13.385   4.952  12.612
85115W        W53333  16.491   4.492   3.148
85116W        W53334  16.780  23.585   1.356
85117W        W53335  37.091  40.006  11.333
85118W        W53336  11.301  13.108   2.648
85119W        W53337   3.125  44.912   1.668
85120W        W53338   7.783   7.833   1.768
85121W        W53339  11.706  25.605  14.101
85122W        W53340  30.822  23.693  11.137
85123W        W53341  40.855   8.249   1.839
85124W        W53342  28.652  10.510   2.242
85125W        W53343  36.506  15.490   0.789
85126W        W53344  14.521  30.723   1.764
85127W        W53345  20.427  32.925   2.825
85128W        W53346  27.792  44.221  13.429
85129W        W53347  24.594  34.359   0.351
85130W        W53348  19.695  39.367   3.133
85131W        W53349  24.734   8.292   4.570
85132W        W53350  25.136  38.345  14.383
85133W        W53351   2.751   8.140   2.269
85134W        W53352  11.274  40.479   2.102
85135W        W53353  32.414  24.913  14.783
85136W        W53354  42.543  23.133   3.856
85137W        W53355   4.311  40.441  13.436
85138W        W53356   8.148   7.294  14.917
85139W        W53357   9.491  17.949  13.188
85140W        W53358  15.381  21.930   3.194
85141W        W53359   7.736  32.222   0.469
85142W        W53360  22.425  39.644  13.932
85143W        W53361  43.748  35.368  14.800
85144W        W53362  37.900  32.837  12.976
85145W        W53363  12.632   9.890   0.846
85146W        W53364  23.122  10.558   2.769
85147W        W53365   4.593   2.842  14.560
85148W        W53366  37.045  39.242   0.239
85149W        W53367  11.703  26.221   3.356
85150W        W53368  19.935   1.430   3.755
85151W        W53369   4.389  24.548  11.200
85152W        W53370  44.458  15.016  11.581
85153W        W53371  11.646  23.658  10.798
85154W        W53372  42.938   6.187  10.780
85155W        W53373   7.869  42.999   4.473
85156W        W53374  21.694  20.277  11.609
85157W        W53375   2.911   5.695   1.865
85158W        W53376  34.436  13.130  11.954
85159W        W53377  16.913  28.885   1.190
85160W        W53378  41.383  12.102  12.156
85161W        W53379  42.595  22.492   0.398
85162W        W53380   0.533  37.953  13.068
85163W        W53381  33.508  18.601   0.258
85164W        W53382  19.503  39.817   3.379
85165W        W53383  40.044  11.813  11.123
85166W        W53384  35.039  35.181  13.913
85167W        W53385  18.765  29.448   3.352
85168W        W53386  31.242   0.469  13.003
85169W        W53387  12.185  15.073  13.964
85170W        W53388  25.942  24.242  12.981
85171W        W53389  22.374  38.839   3.808
85172W        W53390  23.045   0.558  13.521
85173W        W53391  31.600  39.378   3.641
85174W        W53392  13.123  22.295   2.941
85175W        W53393  18.040   4.915   2.243
85176W        W53394  25.783  44.662   4.163
85177W        W53395  37.413  22.817   2.802
85178W        W53396  39.487   3.457   1.376
85179W        W53397   7.358  13.386   0.323
85180W        W53398  33.459  22.291  13.398
85181W        W53399  40.182  28.917  14.352
85182W        W53400  36.390   8.432   1.417
85183W        W53401   1.278  43.242  11.500
85184W        W53402  25.155  10.891   0.689
85185W        W53403  28.674  23.241  10.542
85186W        W53404  39.041  37.173   4.745
85187W        W53405  30.174  40.823  13.624
85188W        W53406  43.217  20.573  14.284
85189W        W53407  12.385  40.181  11.610
85190W        W53408   3.950   0.798  13.869
85191W        W53409  15.010   9.238   2.152
85192W        W53410  32.128  32.347   3.305
85193W        W53411  22.972  39.325   4.174
85194W        W53412  40.872   2.825   5.351
85195W        W53413   8.334  33.968   1.295
85196W        W53414  42.880  39.991   4.998
85197W        W53415  35.846  11.254  12.337
85198W        W53416  44.425   0.894   4.592
85199W        W53417  32.435   3.426  13.574
85200W        W53418  23.133  25.159   0.033
85201W        W53419   6.736   3.380  14.863
85202W        W53420   4.342  35.084  13.621
85203W        W53421  28.683   5.888  12.064
85204W        W53422  26.436  19.071  12.417
85205W        W53423   5.412  37.104  12.023
85206W        W53424  34.055  32.912   3.446
85207W        W53425  42.228  23.664   3.327
85208W        W53426  10.593  30.120   4.578
85209W        W53427   1.894  24.561   3.550
85210W        W53428  39.301   0.480   3.219
85211W        W53429   6.324  41.685   3.297
85212W        W53430  35.662   2.113   3.215
85213W        W53431  26.911  35.857   0.841
85214W        W53432  21.993  40.167  13.999
85215W        W53433  18.576   9.798   1.154
85216W        W53434  35.398   7.439   1.396
85217W        W53435   9.699   6.276   3.905
85218W        W53436  34.651   3.260   3.318
85219W        W53437  34.117  42.586   1.248
85220W        W53438   7.644   9.831  11.123
85221W        W53439  44.353   9.035  12.953
85222W        W53440   2.889  16.428  11.191
85223W        W53441  25.715  17.812  11.605
85224W        W53442   6.878  35.415  12.445
85225W        W53443  19.527  39.532  14.813
85226W        W53444  25.182  35.679  12.553
85227W        W53445   7.871  23.102  10.707
85228W        W53446  39.048  23.485  13.517
85229W        W53447   1.108  11.613   0.750
85230W        W53448  25.670   7.141  14.455
85231W        W53449  31.893  29.235  11.185
85232W        W53450  40.597  27.628  10.665
85233W        W53451  27.541  17.081  13.442
85234W        W53452  22.576   4.827  12.570
85235W        W53453  12.215  12.189   0.922
85236W        W53454  22.250  14.824   4.177
85237W        W53455  31.901   2.234  13.762
85238W        W53456  43.892  44.918   4.491
85239W        W53457   0.371  15.229   3.831
85240W        W53458  24.506  29.211   4.332
85241W        W53459   7.318   3.959   0.361
85242W        W53460  22.138  18.203   2.299
85243W        W53461  44.435  14.649   4.210
85244W        W53462   7.653  10.726   0.284
85245W        W53463  36.950   5.022  12.939
85246W        W53464   2.351  16.114   3.288
85247W        W53465  10.079  34.031   0.914
85248W        W53466  44.986  35.721   3.285
85249W        W53467   6.519  34.950   0.870
85250W        W53468   3.894   1.704   2.256
85251W        W53469  16.528  28.024   3.651
85252W        W53470  36.479  23.588   0.229
85253W        W53471  35.382  19.008  12.941
85254W        W53472   4.519  44.446  12.430
85255W        W53473  22.777  18.267   1.475
85256W        W53474  17.657  13.674  11.734
85257W        W53475   5.768  16.834  13.981
85258W        W53476  17.328   5.210  11.536
85259W        W53477  43.742  18.476  11.529
85260W        W53478  36.286  35.919   4.354
85261W        W53479   0.276  17.114   1.474
85262W        W53480   8.179   7.790   4.917
85263W        W53481  25.060  20.675  10.610
85264W        W53482  30.980  42.568  14.771
85265W        W53483   7.883  31.395  11.621
85266W        W53484   0.137  11.329  13.908
85267W        W53485  26.997  20.306  13.811
85268W        W53486   8.680  29.664  14.356
85269W        W53487  39.748  38.389  13.790
85270W        W53488  28.369   9.082  10.376
85271W        W53489  26.230  16.775  14.620
85272W        W53490  22.112  34.029  12.387
85273W        W53491  31.675   4.682  12.996
85274W        W53492  39.592  43.185   2.223
85275W        W53493  23.499  41.829   4.008
85276W        W53494  14.083  25.214   3.309
85277W        W53495  26.522  34.845   2.514
85278W        W53496  19.706  32.915   2.412
85279W        W53497  14.418  24.001  13.842
85280W        W53498  37.998  31.949   0.762
85281W        W53499  27.779  30.527   1.567
85282W        W53500  40.963   6.009   0.348
85283W        W53501  13.407   6.340  10.342
85284W        W53502   8.156  15.055  12.017
85285W        W53503  27.384  17.460   0.239
85286W        W53504  42.258   3.004   4.821
85287W        W53505  13.209  33.466   5.016
85288W        W53506   4.435  36.023   0.236
85289W        W53507   4.772  10.121  11.515
85290W        W53508   8.758  34.380   4.371
85291W        W53509   0.505  22.976  13.071
85292W        W53510  16.187  32.077  10.687
85293W        W53511  44.471  43.400   5.013
85294W        W53512   6.382  26.585   3.469
85295W        W53513   7.308  10.191  11.456
85296W        W53514  10.864  36.490  13.896
85297W        W53515   5.857  23.486   3.206
85298W        W53516  10.893  20.949  13.488
85299W        W53517  23.866  25.486   2.134
85300W        W53518  11.296  35.936  14.441
85301W        W53519   3.812   9.126   3.776
85302W        W53520   5.406   9.423   1.530
85303W        W53521   2.303  19.729  13.003
85304W        W53522  17.153  44.292   4.170
85305W        W53523   8.979  43.967   4.784
85306W        W53524  35.494  33.396   4.256
85307W        W53525  41.630  41.429   4.211
85308W        W53526  31.177  14.719   1.005
85309W        W53527  43.190   5.740   0.913
85310W        W53528   8.581   1.355   0.813
85311W        W53529  35.411  41.995  11.559
85312W        W53530  39.632  14.782   0.871
85313W        W53531   7.199   1.941   0.368
85314W        W53532  36.130  42.048   1.861
85315W        W53533  18.784   4.085  14.787
85316W        W53534  33.126  34.395   1.752
85317W        W53535  17.875  14.879   0.260
85318W        W53536  33.912  26.115  12.545
85319W        W53537  42.932  28.943  13.291
85320W        W53538  26.892  43.936  12.045
85321W        W53539   8.281  28.222   3.875
85322W        W53540   0.889  11.673   0.283
85323W        W53541  27.756  31.946  10.918
85324W        W53542   3.884  42.330  14.076
85325W        W53543  14.126   6.694  12.983
85326W        W53544  34.346  36.270  11.738
85327W        W53545  35.041  36.557  14.895
85328W        W53546  30.641   1.444   5.048
85329W        W53547  20.585  44.382   2.739
85330W        W53548   1.972   0.721  13.872
85331W        W53549  30.544   0.944   5.091
85332W        W53550  33.776  28.267   2.280
85333W        W53551  39.966  10.561  13.916
85334W        W53552   6.921  13.747  11.133
85335W        W53553  28.870  27.644  12.541
85336W        W53554   4.201  35.420  12.373
85337W        W53555   3.162  39.511   4.857
85338W        W53556   3.706  39.299   4.415
85339W        W53557  37.996  15.342  12.473
85340W        W53558   8.680  34.309   0.358
85341W        W53559  35.179  37.986  12.113
85342W        W53560   9.188  44.151  14.134
85343W        W53561  10.982  20.264   0.730
85344W        W53562  34.989   0.783  10.495
85345W        W53563  36.260  26.323  11.051
85346W        W53564  29.685  36.188  12.003
85347W        W53565  10.190   8.206   1.882
85348W        W53566   5.830  32.198  12.467
85349W        W53567   9.302  42.014  10.569
85350W        W53568  16.388  15.560   1.461
85351W        W53569   1.736  40.724   1.262
85352W        W53570  11.280   2.739  12.181
85353W        W53571  15.678   2.472  14.807
85354W        W53572  38.400  27.165   4.063
85355W        W53573   4.561  41.491   1.315
85356W        W53574   6.762  28.683   3.866
85357W        W53575   8.781  21.280  14.479
85358W        W53576  10.090  30.553  11.624
85359W        W53577  17.103  24.688  11.194
85360W        W53578  21.426  28.669  11.524
85361W        W53579  13.243  43.001  12.780
85362W        W53580   4.290  39.042  14.444
85363W        W53581  33.384  14.616  11.139
85364W        W53582  26.080  18.157  10.587
85365W        W53583  39.810  36.983   3.343
85366W        W53584  39.079   4.724  13.948
85367W        W53585  12.545   8.845  11.230
85368W        W53586   9.725  10.753   2.100
85369W        W53587  13.859   6.444  10.579
85370W        W53588  41.175   9.876   4.909
85371W        W53589  29.755  30.598   5.059
85372W        W53590  27.268  29.565   4.288
85373W        W53591  34.135   2.579   1.708
85374W        W53592  41.055  14.829   3.250
85375W        W53593  25.653  19.274  10.676
85376W        W53594   6.868  38.325   0.235
85377W        W53595   2.843   9.421  12.031
85378W        W53596  13.291  15.540   2.659
85379W        W53597  42.557  33.169  12.360
85380W        W53598  22.709  13.048  13.329
85381W        W53599  36.712  32.393   2.032
85382W        W53600  11.117  16.664  13.521
85383W        W53601  29.673  36.012  11.370
85384W        W53602   1.520  44.209   4.362
85385W        W53603   6.634  33.889  14.785
85386W        W53604  29.549  43.294   0.394
85387W        W53605   4.328  42.956   0.175
85388W        W53606  15.594   9.860   0.898
85389W        W53607  43.875  13.472  11.089
85390W        W53608  32.014  17.361   5.035
85391W        W53609  12.073  36.401  12.479
85392W        W53610  24.454  42.971  12.074
85393W        W53611  24.631  17.402  14.722
85394W        W53612   0.304  13.863   2.241
85395W        W53613   5.159  21.886  11.551
85396W        W53614  18.540  12.824   1.922
85397W        W53615   7.732   8.342   3.722
85398W        W53616  30.435  36.793  14.667
85399W        W53617  43.009  21.121  11.134
85400W        W53618  40.210   0.285  12.540
85401W        W53619  25.623   0.430   3.539
85402W        W53620  40.987  12.401   3.239
85403W        W53621   5.257  37.049   1.108
85404W        W53622  23.229  37.070  14.801
85405W        W53623  25.597  29.161  10.758
85406W        W53624  11.195  39.459  13.379
85407W        W53625  37.974  29.080   4.201
85408W        W53626  12.127  21.984  14.274
85409W        W53627  41.348  27.112   3.676
85410W        W53628  42.557   0.460  12.905
85411W        W53629   5.467  14.556  10.998
85412W        W53630  33.847  28.622  13.395
85413W        W53631  17.569  24.517   3.248
85414W        W53632   8.315  43.360  12.936
85415W        W53633   1.376  35.611  11.553
85416W        W53634  35.546   5.026   4.166
85417W        W53635  16.357  42.253  12.036
85418W        W53636  28.139   8.927  12.319
85419W        W53637   9.208  25.627  13.779
85420W        W53638  28.895   4.281  13.912
85421W        W53639   4.182  35.872  12.680
85422W        W53640  25.941  20.051   4.045
85423W        W53641  15.712  19.826   2.360
85424W        W53642  27.113  12.078  12.457
85425W        W53643  35.480   6.601  14.032
85426W        W53644  13.301  16.253   3.801
85427W        W53645  37.485   3.422   1.979
85428W        W53646   4.802   0.880  11.617
85429W        W53647  14.609  35.498   0.840
85430W        W53648   3.993  20.058  13.990
85431W        W53649  10.203  14.059   2.309
85432W        W53650  42.758  43.961   3.840
85433W        W53651   3.823   9.643   3.722
85434W        W53652  12.804  37.776   3.415
85435W        W53653  38.229  11.523   1.830
85436W        W53654  34.906  12.801  13.543
85437W        W53655   1.507  18.970   0.332
85438W        W53656  21.227  31.646  12.509
85439W        W53657  25.066  41.150  12.964
85440W        W53658  24.117  26.031  12.937
85441W        W53659  28.705   9.693  14.354
85442W        W53660  40.944  21.436  10.719
85443W        W53661  26.687   0.086   1.731
85444W        W53662  18.644   3.667   4.133
85445W        W53663  22.042   8.728   1.178
85446W        W53664  32.841  16.544   4.238
85447W        W53665  16.281   3.340   4.588
85448W        W53666   5.349   6.967   4.159
85449W        W53667  25.005  32.411  12.502
85450W        W53668  31.465  17.777   1.331
85451W        W53669  33.353   8.651  12.075
85452W        W53670  32.134  20.635   3.717
85453W        W53671   9.176  26.458  11.533
85454W        W53672   7.296  25.629  12.543
85455W        W53673  23.964  39.900   2.362
85456W        W53674  25.920  28.358   4.518
85457W        W53675  28.948  42.246  13.696
85458W        W53676  13.133  25.899   2.877
85459W        W53677  32.026  40.723   2.262
85460W        W53678  42.847  14.161  10.843
85461W        W53679   1.924  43.561   1.863
85462W        W53680  28.331  42.203   2.804
85463W        W53681   8.614  22.255   4.787
85464W        W53682  21.152   4.886   2.719
85465W        W53683  38.528  15.680   2.238
85466W        W53684  10.975  42.145   1.777
85467W        W53685   6.352  26.233   1.023
85468W        W53686  10.367   7.381   4.483
85469W        W53687  16.097   9.980  10.192
85470W        W53688  40.355  32.944   4.565
85471W        W53689  42.059  23.905   2.193
85472W        W53690  41.500   5.721  11.764
85473W        W53691   6.378  37.477   0.515
85474W        W53692  13.152  30.707   0.821
85475W        W53693  34.610   4.006   2.859
85476W        W53694  23.614  43.787  13.525
85477W        W53695  40.561   2.938   2.148
85478W        W53696  39.869  25.149   2.671
85479W        W53697  33.993  26.145   0.760
85480W        W53698  14.268  28.054  13.600
85481W        W53699  11.777  40.276  12.460
85482W        W53700  19.657  35.906  12.006
85483W        W53701   1.959  24.462   4.048
85484W        W53702   5.435  39.308   3.321
85485W        W53703  22.494  29.684   1.703
85486W        W53704  27.680  27.634   4.303
85487W        W53705  30.742  28.798   5.350
85488W        W53706  39.353  35.935  12.596
85489W        W53707  40.526  21.692  13.013
85490W        W53708  20.369  14.192   9.815
85491W        W53709   9.830  37.019   4.883
85492W        W53710  14.599  21.589  12.612
85493W        W53711   0.368  35.922  12.433
85494W        W53712  16.757  14.876   4.218
85495W        W53713   2.271  34.282   3.853
85496W        W53714  37.553   5.167  11.520
85497W        W53715  18.020  21.807   2.822
85498W        W53716   6.679   2.425  13.501
85499W        W53717  41.496  31.640   4.627
85500W        W53718  14.908   6.857  10.656
85501W        W53719  28.755  34.401  11.410
85502W        W53720   3.394   6.626   3.222
85503W        W53721  31.754   6.415  10.920
85504W        W53722  34.558  14.674   3.266
85505W        W53723  41.337  16.233   3.854
85506W        W53724  20.875   1.997  12.037
85507W        W53725  30.549  23.712  14.908
85508W        W53726  20.822  14.531  11.532
85509W        W53727  18.684  29.180   1.611
85510W        W53728  24.064  12.837  12.468
85511W        W53729  37.940   1.198   9.854
85512W        W53730   5.871  18.441   2.336
85513W        W53731  22.649   5.756   0.528
85514W        W53732  15.918  30.669  12.881
85515W        W53733   3.819  28.117  14.712
85516W        W53734  43.287  21.315  10.145
85517W        W53735   2.778  16.330   1.810
85518W        W53736  35.895   2.266  11.076
85519W        W53737   5.415  16.907   9.772
85520W        W53738   0.569  36.234  12.013
85521W        W53739   1.407   8.419   0.305
85522W        W53740   8.259  20.610   2.196
85523W        W53741  29.070   7.471   3.585
85524W        W53742  11.652  42.906   4.106
85525W        W53743  39.351  16.358  14.875
85526W        W53744  17.117  35.416  12.517
85527W        W53745   7.331  40.563   0.403
85528W        W53746  14.250  15.437  12.970
85529W        W53747  14.283  29.327  14.458
85530W        W53748  28.001  12.339  13.039
85531W        W53749  23.053  23.298   2.634
85532W        W53750  31.872  39.854   1.781
85533W        W53751  37.514  28.610  13.286
85534W        W53752  28.146  28.547  14.992
85535W        W53753  38.571  36.642   2.303
85536W        W53754   0.511  14.882  13.277
85537W        W53755  13.626  18.717   0.099
85538W        W53756  26.078  37.074  10.746
85539W        W53757  28.545  12.427   3.214
85540W        W53758  22.071  35.464  11.450
85541W        W53759  42.548  12.675   0.018
85542W        W53760  13.843  40.324  12.927
85543W        W53761  27.092  40.779  13.070
85544W        W53762  29.669  15.487  12.779
85545W        W53763  17.731  42.303   1.171
85546W        W53764  28.156  33.436  13.441
85547W        W53765  26.628  39.955  13.856
85548W        W53766  21.489  30.403  14.871
85549W        W53767  10.682  34.113  13.380
85550W        W53768  25.143  42.675  13.649
85551W        W53769   5.288  20.984  14.274
85552W        W53770  18.055  39.285   1.851
85553W        W53771  26.756  16.901   4.112
85554W        W53772   7.684  19.458  10.458
85555W        W53773  30.447  29.105   3.272
85556W        W53774   5.331   9.194   1.973
85557W        W53775  35.845  28.875  13.897
85558W        W53776  27.095   6.820  13.970
85559W        W53777  15.801  14.193   2.279
85560W        W53778   2.834  44.846  14.460
85561W        W53779   4.953  44.040   2.299
85562W        W53780  21.916  14.534  14.012
85563W        W53781  21.896  43.874  11.619
85564W        W53782  21.001  12.797   1.270
85565W        W53783  39.439  30.907  11.423
85566W        W53784  19.952  19.802   4.605
85567W        W53785  36.629   3.512   5.067
85568W        W53786  44.007  24.578  13.103
85569W        W53787  37.664  40.459   5.046
85570W        W53788   8.186   7.677   3.956
85571W        W53789  39.429  32.662  12.908
85572W        W53790  19.567   3.024   3.229
85573W        W53791   9.201   1.731  13.276
85574W        W53792   8.768   3.733   2.410
85575W        W53793  29.465  37.365   0.273
85576W        W53794   4.433  22.104  13.284
85577W        W53795  44.364  23.717  14.047
85578W        W53796  18.382   4.422  14.849
85579W        W53797  31.819  29.289  14.991
85580W        W53798  44.961  37.843  14.870
85581W        W53799  33.487   6.162  11.867
85582W        W53800  43.039  23.789   3.676
85583W        W53801  41.241  12.695  14.497
85584W        W53802   0.519  29.380  14.506
85585W        W53803  11.630   9.109  13.929
85586W        W53804  26.266  20.417   4.199
85587W        W53805  11.720  29.732  14.468
85588W        W53806   1.361  20.565   4.494
85589W        W53807  10.224  14.886  13.484
85590W        W53808  38.695  35.819   1.114
85591W        W53809  41.447  35.774  13.832
85592W        W53810  42.929   7.472   1.875
85593W        W53811  38.613  20.238   3.496
85594W        W53812  28.261  22.624  14.784
85595W        W53813   6.821  10.705   0.591
85596W        W53814  35.466  16.988  12.927
85597W        W53815  28.453  25.216  13.504
85598W        W53816  33.516  30.437  14.319
85599W        W53817  29.512   8.153   2.241
85600W        W53818  10.077  40.877   4.147
85601W        W53819  24.302  36.855   0.430
85602W        W53820   1.775  33.532   4.135
85603W        W53821  39.906  37.500   3.235
85604W        W53822  19.865  10.064   4.133
85605W        W53823  16.431  28.688   4.098
85606W        W53824  15.559  32.580   1.932
85607W        W53825  38.292  36.555   2.745
85608W        W53826  10.621  30.634   1.544
85609W        W53827  19.599  12.660  13.856
85610W        W53828  30.593  40.532  12.545
85611W        W53829  15.124  33.980  14.972
85612W        W53830   2.295   8.534  14.121
85613W        W53831  21.944  16.193   3.635
85614W        W53832  32.356  44.025  13.049
85615W        W53833  15.714  25.673  11.618
85616W        W53834  25.216  21.611  13.116
85617W        W53835  35.173  13.792   2.432
85618W        W53836  44.435  13.762   2.145
85619W        W53837  12.356  29.782  13.366
85620W        W53838  34.503   9.145   3.249
85621W        W53839   9.390  27.700  10.963
85622W        W53840  36.896  20.051   1.613
85623W        W53841  11.601  12.473   4.658
85624W        W53842  32.988   2.724  14.631
85625W        W53843  28.429   5.871   0.392
85626W        W53844  32.391  42.696  14.734
85627W        W53845   9.204  43.466  11.947
85628W        W53846  25.878  40.416   4.745
85629W        W53847  21.340  32.886  12.990
85630W        W53848  26.983  33.929   3.883
85631W        W53849   3.709  37.071  14.014
85632W        W53850  21.669  25.174  13.951
85633W        W53851  19.278  35.566  12.031
85634W        W53852   8.469   6.891  14.765
85635W        W53853   7.796  31.617  12.063
85636W        W53854  23.962  29.236   0.754
85637W        W53855  42.226   6.928  13.804
85638W        W53856  42.565   6.544  10.765
85639W        W53857   6.792   8.174  11.550
85640W        W53858   4.230  22.288  11.411
85641W        W53859  33.844  29.127   3.273
85642W        W53860  18.722  26.700  10.445
85643W        W53861  26.094   8.331   4.140
85644W        W53862  30.903  33.051  11.187
85645W        W53863  17.538  44.807  10.750
85646W        W53864  43.363  37.553   4.655
85647W        W53865  11.262   9.227   1.820
85648W        W53866  34.565  41.528   1.873
85649W        W53867  11.662  10.318  12.882
85650W        W53868  15.627  24.535  14.923
85651W        W53869  28.846  17.648   5.496
85652W        W53870  12.232  11.943   3.624
85653W        W53871  41.114  39.046  11.986
85654W        W53872  18.082  37.854  13.575
85655W        W53873   3.360   3.008  12.323
85656W        W53874  16.017  35.008  14.314
85657W        W53875   8.927  16.115  14.453
85658W        W53876  21.717  20.616  13.353
85659W        W53877  19.184  33.357  12.060
85660W        W53878  18.736  27.670   3.813
85661W        W53879  30.045  21.518  11.451
85662W        W53880  43.955  40.935  13.036
85663W        W53881  28.507  36.231  13.555
85664W        W53882   8.592  28.067   0.677
85665W        W53883  30.401  12.011  13.879
85666W        W53884  33.890  20.117  14.439
85667W        W53885  30.300   1.830   5.020
85668W        W53886  21.948   7.896  10.715
85669W        W53887  12.615  35.939   1.829
85670W        W53888  11.642   1.278   1.637
85671W        W53889  43.059  27.656   0.444
85672W        W53890   3.126   0.678   4.640
85673W        W53891  23.775  31.066   1.453
85674W        W53892   2.403  28.172  12.428
85675W        W53893   7.739   3.327  13.537
85676W        W53894  41.637  27.773  10.804
85677W        W53895  18.834   5.016   1.702
85678W        W53896   4.450  44.460   4.606
85679W        W53897   6.538  30.650  10.641
85680W        W53898  34.466  44.822   2.135
85681W        W53899  12.506  16.356   2.250
85682W        W53900  10.324  17.357   4.137
85683W        W53901  15.812  44.569   2.214
85684W        W53902  26.396  31.066  12.174
85685W        W53903  28.683  41.589   1.822
85686W        W53904  16.046  30.199  11.163
85687W        W53905  24.008  25.127   2.919
85688W        W53906   1.916  36.943   1.713
85689W        W53907   7.650  11.699  13.841
85690W        W53908  41.850  30.462   0.035
85691W        W53909  42.775   0.525   0.044
85692W        W53910  18.603  36.857   0.199
85693W        W53911  10.732  44.778  14.396
85694W        W53912  14.295  37.542  10.851
85695W        W53913  21.009  13.922  14.070
85696W        W53914  43.119  35.111   2.448
85697W        W53915  36.374  31.636  14.798
85698W        W53916  24.100  10.691  14.224
85699W        W53917  38.713  42.041  11.133
85700W        W53918  26.220  38.946   4.996
85701W        W53919  33.914  32.487   1.188
85702W        W53920   0.322   4.170  13.926
85703W        W53921  40.457  12.606   4.993
85704W        W53922  30.390  12.616  14.336
85705W        W53923   9.283  36.788  14.763
85706W        W53924  44.441  40.971   0.755
85707W        W53925  36.364  25.922   1.393
85708W        W53926  22.799  17.076  13.783
85709W        W53927   1.429  12.185   2.812
85710W        W53928  34.579  34.358  14.877
85711W        W53929  30.104  33.613   3.671
85712W        W53930  11.210  15.167   0.517
85713W        W53931  31.021  31.170   2.218
85714W        W53932   5.692   2.304   3.492
85715W        W53933  24.380  44.626  11.675
85716W        W53934  32.632  11.430  12.990
85717W        W53935  31.940  40.771  11.129
85718W        W53936  11.324  21.828  11.936
85719W        W53937   3.110  33.385  12.061
85720W        W53938  31.036  43.392   2.694
85721W        W53939  12.709  44.693  13.058
85722W        W53940  27.009  14.294  14.502
85723W        W53941  25.530  10.462  11.149
85724W        W53942  21.101   8.371  11.458
85725W        W53943  38.834  43.964  12.309
85726W        W53944  31.567  44.701  14.879
85727W        W53945   0.037  25.548  10.432
85728W        W53946   7.259  26.028   1.802
85729W        W53947  17.593   7.799   1.919
85730W        W53948  20.485  29.689   1.929
85731W        W53949   6.268  35.032  12.973
85732W        W53950  10.375  26.680  11.124
85733W        W53951  20.394  18.368   3.300
85734W        W53952   3.158  36.279  11.558
85735W        W53953   5.408  26.237  10.985
85736W        W53954  44.347   2.754  12.500
85737W        W53955  18.159   2.430  13.615
85738W        W53956  28.089  29.126  13.402
85739W        W53957  25.150   3.546  10.927
85740W        W53958  17.637  17.360  12.286
85741W        W53959   5.486   0.786   1.245
85742W        W53960  44.725   1.551   1.279
85743W        W53961   6.808  32.566   2.456
85744W        W53962  31.976  26.394   2.181
85745W        W53963  33.334   7.183  14.951
85746W        W53964   0.349   1.306  11.817
85747W        W53965   4.355  41.070   2.263
85748W        W53966  19.403  23.514   4.679
85749W        W53967  44.317  36.252  10.698
85750W        W53968  38.081  27.253   4.485
85751W        W53969  44.791  15.607   3.628
85752W        W53970  38.987  12.665  10.260
85753W        W53971  42.400   9.399  12.948
85754W        W53972  23.006  16.760  11.076
85755W        W53973  16.394   0.835   1.469
85756W        W53974  31.674  11.258  10.639
85757W        W53975  28.369  17.500  11.557
85758W        W53976  13.213  10.879  12.408
85759W        W53977  37.555  36.990  10.628
85760W        W53978  19.535  36.916  10.943
85761W        W53979  16.032  23.177   1.017
85762W        W53980  18.733  35.675   0.926
85763W        W53981  39.883  43.280   1.235
85764W        W53982  28.157  30.552  12.255
85765W        W53983   0.656  27.426  12.469
85766W        W53984  19.904  16.407   0.434
85767W        W53985  36.543   7.757   3.193
85768W        W53986   8.624  18.758   1.491
85769W        W53987  38.051  24.265   3.240
85770W        W53988  33.656  14.087  10.336
85771W        W53989  39.822   0.955   1.371
85772W        W53990  26.593  29.003  13.522
85773W        W53991  15.246  26.309  12.116
85774W        W53992  14.827  40.008   0.978
85775W        W53993  22.175  22.793   3.274
85776W        W53994   0.358   6.154   1.834
85777W        W53995   5.854  36.985   3.842
85778W        W53996  32.193  17.740   4.111
85779W        W53997   8.842  36.355   1.021
85780W        W53998  31.473  15.211  14.705
85781W        W53999  24.589  42.997   1.914
85782W        W54000  41.898  24.090   5.004
85783W        W54001   5.977   0.959  12.128
85784W        W54002  21.277  25.168   3.917
85785W        W54003  24.258  10.802   0.461
85786W        W54004  38.829  40.613  11.012
85787W        W54005   0.594  29.156  13.274
85788W        W54006  24.116  33.568  13.846
85789W        W54007  41.780  15.549   4.112
85790W        W54008   7.839  10.861  14.806
85791W        W54009   1.980  27.175   1.313
85792W        W54010   6.425  36.390   0.930
85793W        W54011  21.445  15.087   3.167
85794W        W54012   2.507  30.713  12.477
85795W        W54013  19.927  27.905   0.295
85796W        W54014  10.049   1.452  12.068
85797W        W54015  39.073   7.839  11.576
85798W        W54016  34.699  18.424  13.112
85799W        W54017  35.910  10.871  10.711
85800W        W54018   6.617  13.643   2.354
85801W        W54019   1.258   0.411   0.460
85802W        W54020  31.126   2.483   1.743
85803W        W54021  38.838  14.649   2.266
85804W        W54022  13.386  37.869   1.400
85805W        W54023   2.579  27.821  11.610
85806W        W54024  22.204  32.169   1.955
85807W        W54025  13.215   1.227  14.906
85808W        W54026  18.801  33.627   3.331
85809W        W54027   3.322   7.736   2.403
85810W        W54028  28.990  19.117   1.819
85811W        W54029  10.574  42.369   2.795
85812W        W54030   6.726  19.224  12.390
85813W        W54031   5.670  39.971  11.389
85814W        W54032   5.940   2.555   1.746
85815W        W54033  21.422   4.426  11.514
85816W        W54034  27.655  17.694  11.041
85817W        W54035  43.521  15.082   4.526
85818W        W54036  20.611  38.078  11.256
85819W        W54037  41.598  27.159   0.629
85820W        W54038  37.045  23.674   2.357
85821W        W54039  40.369  17.977  14.612
85822W        W54040   5.314  14.280   2.217
85823W        W54041  43.780   2.754   0.273
85824W        W54042  16.740  41.938   1.662
85825W        W54043   1.945   3.113   2.742
85826W        W54044   5.545   8.757  14.258
85827W        W54045  20.688  20.162  11.571
85828W        W54046  42.995  44.298  14.423
85829W        W54047  32.631  11.745  11.188
85830W        W54048  19.158  40.285  13.878
85831W        W54049   9.559  35.739  14.261
85832W        W54050  22.569  13.664   2.353
85833W        W54051  37.089  39.374  11.657
85834W        W54052  21.303  12.356   2.284
85835W        W54053  35.125  18.299   1.566
85836W        W54054  35.832  32.790   5.017
85837W        W54055   6.805   7.230  14.323
85838W        W54056   8.213  14.509   3.810
85839W        W54057  27.098  12.384  12.893
85840W        W54058  24.261  31.849   1.694
85841W        W54059   4.759  37.595  14.291
85842W        W54060  12.777  18.111   1.379
85843W        W54061  30.714  28.185  10.682
85844W        W54062  44.047  26.638  11.213
85845W        W54063  25.721  17.066  11.983
85846W        W54064  10.909  10.347  13.427
85847W        W54065  16.587  27.550   2.732
85848W        W54066  20.011  13.862  13.997
85849W        W54067  26.280  41.250   1.218
85850W        W54068  20.710  16.888  13.075
85851W        W54069   4.271  16.230  12.622
85852W        W54070  17.040  31.575  11.689
85853W        W54071  21.176  13.804  13.550
85854W        W54072  10.871   6.577   1.386
85855W        W54073  28.784  26.924   1.322
85856W        W54074  12.183   2.170  13.005
85857W        W54075  38.432   5.619  10.902
85858W        W54076  20.322  27.602  13.849
85859W        W54077  13.615  35.822   4.612
85860W        W54078  39.294   4.824  14.422
85861W        W54079  27.634  36.802   3.586
85862W        W54080  10.175  27.449  13.184
85863W        W54081  39.019  22.116   2.185
85864W        W54082   1.267  25.485  14.344
85865W        W54083  35.545  20.792  14.273
85866W        W54084   8.695   2.788  12.985
85867W        W54085  20.245  24.432   0.391
85868W        W54086  22.537  25.973  14.993
85869W        W54087   8.617  37.310   2.815
85870W        W54088   4.046   3.370  11.030
85871W        W54089  44.527  37.799  11.634
85872W        W54090   4.279  36.377  13.445
85873W        W54091  42.709  27.631   4.412
85874W        W54092   4.341  14.202  11.662
85875W        W54093   6.870  43.613   0.172
85876W        W54094   6.186  29.231  13.961
85877W        W54095  12.065   8.256  11.602
85878W        W54096  25.374   3.657  12.934
85879W        W54097  32.949  13.328   2.762
85880W        W54098  31.357  12.351  12.859
85881W        W54099  22.261  41.252  12.130
85882W        W54100  23.495  17.702   3.191
85883W        W54101   3.349  13.323  10.641
85884W        W54102  28.252  33.573   1.654
85885W        W54103   6.841  16.142  12.374
85886W        W54104   6.759  18.395   3.698
85887W        W54105   1.902  44.227  12.590
85888W        W54106  43.322   3.465   1.313
85889W        W54107  30.670  15.403   0.934
85890W        W54108  11.591   1.857   2.103
85891W        W54109  13.626  18.665   3.245
85892W        W54110  41.132  17.781  10.772
85893W        W54111  34.337  20.716  10.711
85894W        W54112  19.704  33.437  14.979
85895W        W54113  36.482  34.381  12.407
85896W        W54114  14.059  22.993  11.961
85897W        W54115  27.029  33.548  13.895
85898W        W54116   8.678  21.740  14.742
85899W        W54117   4.479  40.637   1.365
85900W        W54118  35.372   6.372   3.720
85901W        W54119  26.312   7.563  14.934
85902W        W54120  11.568   8.937  10.682
85903W        W54121  16.158  23.001   3.847
85904W        W54122  27.181  11.101   1.780
85905W        W54123  35.134  26.228  10.753
85906W        W54124  10.765  10.054   0.825
85907W        W54125  16.778  40.775  13.458
85908W        W54126  42.534  16.549   4.140
85909W        W54127  36.449  14.069  10.846
85910W        W54128  19.557  27.856  14.925
85911W        W54129  37.783  33.778  13.855
85912W        W54130  41.349  29.992  12.841
85913W        W54131  32.234  36.617   2.855
85914W        W54132   2.731   7.578  10.555
85915W        W54133  19.550   6.845   3.620
85916W        W54134  40.103   0.703   1.733
85917W        W54135  14.823  19.221  12.778
85918W        W54136  40.903  36.027  11.642
85919W        W54137  14.836  19.886   2.238
85920W        W54138  31.646  34.553   3.482
85921W        W54139  26.119  13.762  12.547
85922W        W54140  15.041   1.018  11.423
85923W        W54141   7.199  35.131   3.930
85924W        W54142  26.939  35.081  14.893
85925W        W54143  42.874   8.136  14.073
85926W        W54144   6.649  18.298  14.272
85927W        W54145   6.066  18.697  13.903
85928W        W54146   9.285  10.888  10.721
85929W        W54147  13.368   9.632  12.974
85930W        W54148  20.452  40.628   0.721
85931W        W54149  11.637  33.969   3.621
85932W        W54150  35.866  34.945  14.827
85933W        W54151  28.060  26.166  11.148
85934W        W54152  27.744  38.634  10.736
85935W        W54153  19.557  31.741   0.422
85936W        W54154  24.482  18.802   4.598
85937W        W54155  15.016  24.142  14.209
85938W        W54156   7.380  14.062  14.529
85939W        W54157  39.904   8.340  13.483
85940W        W54158  38.418  36.441  14.421
85941W        W54159  24.425  21.987  11.733
85942W        W54160  38.642   9.457   4.543
85943W        W54161  35.636  33.028  12.947
85944W        W54162  25.538   8.562  10.730
85945W        W54163  35.582  18.116  12.889
85946W        W54164  14.164  26.987  13.555
85947W        W54165  21.983  33.024  12.493
85948W        W54166  38.861   7.246  12.939
85949W        W54167  43.559  26.390  13.013
85950W        W54168  21.532  21.453   3.827
85951W        W54169  22.781  10.288  10.682
85952W        W54170  34.457  35.613   0.332
85953W        W54171  35.081  38.086  14.779
85954W        W54172  12.599  15.907   9.934
85955W        W54173  13.592  15.079  11.753
85956W        W54174  40.024  38.305  11.667
85957W        W54175  19.725  41.808   3.736
85958W        W54176  18.328  30.824  12.618
85959W        W54177  15.577  41.445   3.271
85960W        W54178  38.597  16.046  10.680
85961W        W54179   6.758  43.782   1.813
85962W        W54180  19.059  26.086   4.597
85963W        W54181   2.293  43.663  12.131
85964W        W54182  39.352  10.685  12.815
85965W        W54183  18.365   3.393   4.649
85966W        W54184  28.036  10.378   1.329
85967W        W54185  31.966   8.397   1.276
85968W        W54186  41.899  20.501  11.400
85969W        W54187   4.837   7.915   0.528
85970W        W54188  38.272  37.287  12.978
85971W        W54189  27.102   8.146   3.813
85972W        W54190  31.210  44.032  13.887
85973W        W54191  36.849  30.593   0.625
85974W        W54192  29.140  29.571   3.829
85975W        W54193   2.716   4.308  14.436
85976W        W54194  22.562  20.668   0.026
85977W        W54195  10.614  37.891   1.201
85978W        W54196  39.053  44.483  12.740
85979W        W54197  32.362  41.356  10.717
85980W        W54198  21.839   2.723  13.466
85981W        W54199  26.919  34.522  14.946
85982W        W54200  18.769  16.163   2.750
85983W        W54201  27.683  31.922   3.429
85984W        W54202  24.039  21.553  13.504
85985W        W54203  33.761  20.565   4.618
85986W        W54204  10.375  15.602  12.860
85987W        W54205  28.896   3.810   9.780
85988W        W54206  36.145  23.228   3.225
85989W        W54207  31.901   7.610   3.116
85990W        W54208  25.422  35.103  13.334
85991W        W54209  33.393  35.606  11.006
85992W        W54210  16.778  38.749   2.284
85993W        W54211  41.706  19.634   1.828
85994W        W54212  19.519  29.193   0.321
85995W        W54213  34.729  35.648  10.407
85996W        W54214   0.666  33.691  12.473
85997W        W54215  29.613  23.435   2.298
85998W        W54216   3.434   4.245  14.982
85999W        W54217  42.539  40.436  14.734
86000W        W54218   0.832   4.273   0.930
86001W        W54219   2.840  37.455  11.183
86002W        W54220  42.602  26.961   3.265
86003W        W54221  17.441  40.998  14.852
86004W        W54222  41.241  23.118  14.298
86005W        W54223  21.596   1.221  12.648
86006W        W54224  20.234   5.665   2.224
86007W        W54225  11.332  13.728   3.663
86008W        W54226  35.535  19.613   4.173
86009W        W54227   6.546  11.895   1.883
86010W        W54228  39.590   4.245  11.590
86011W        W54229  10.593  29.012   2.780
86012W        W54230  33.357  40.514   2.245
86013W        W54231   6.663  30.993   2.805
86014W        W54232   7.858  35.645   3.302
86015W        W54233   0.842  14.037   4.445
86016W        W54234   1.538  10.343   3.392
86017W        W54235   8.209  26.493   4.778
86018W        W54236  41.408   9.427  10.721
86019W        W54237  26.984  11.664   4.199
86020W        W54238  35.306   2.999  14.271
86021W        W54239  22.178  39.850   0.376
86022W        W54240  34.451  25.198   1.477
86023W        W54241  37.485  43.734   4.359
86024W        W54242   1.992  27.211   3.752
86025W        W54243   3.211  29.622   3.312
86026W        W54244  17.276   3.429   3.708
86027W        W54245   2.883   9.969  11.147
86028W        W54246   6.344  20.222   3.853
86029W        W54247   8.205  40.614  12.857
86030W        W54248   3.992  41.874  14.341
86031W        W54249  17.565   3.919   3.691
86032W        W54250  28.589  25.103   1.373
86033W        W54251  29.573  11.658   0.919
86034W        W54252  38.473   2.807  10.768
86035W        W54253  30.396   4.479   2.365
86036W        W54254  20.635  43.785  14.319
86037W        W54255  14.790   6.098   3.134
86038W        W54256  37.324  30.478   1.048
86039W        W54257   3.448  25.653   2.463
86040W        W54258  11.889  13.464   2.353
86041W        W54259   1.881  35.350   3.531
86042W        W54260  25.916  16.894   2.103
86043W        W54261  29.854  28.610   0.493
86044W        W54262  38.565  27.550  12.965
86045W        W54263   5.178  36.140   1.747
86046W        W54264   1.220   6.876   2.379
86047W        W54265  10.913   7.952   0.397
86048W        W54266  29.197  26.516   1.991
86049W        W54267  38.881  14.707   3.625
86050W        W54268  23.487   5.900  14.897
86051W        W54269   8.290  38.292   4.580
86052W        W54270  26.038  28.283  12.572
86053W        W54271  38.818   2.962  10.389
86054W        W54272  20.050  43.473  11.228
86055W        W54273  40.840  31.882   1.346
86056W        W54274  24.067  37.751   1.654
86057W        W54275   3.316   0.303  10.825
86058W        W54276  37.277  29.642   4.118
86059W        W54277  14.096   4.782   0.465
86060W        W54278  14.809  25.460   0.788
86061W        W54279  15.205  17.101   0.275
86062W        W54280  24.217  25.796   2.361
86063W        W54281   0.658  32.788  11.108
86064W        W54282  19.328  14.287   0.470
86065W        W54283  19.249  27.071   1.598
86066W        W54284  36.277   6.912  13.470
86067W        W54285  31.188  38.441   4.066
86068W        W54286  13.380  35.238   2.326
86069W        W54287  20.177   5.989  14.541
86070W        W54288  31.908  12.124  13.927
86071W        W54289  38.395   4.228  10.652
86072W        W54290  33.088  26.816   2.774
86073W        W54291  28.172  16.636  14.624
86074W        W54292  44.786   8.236  14.286
86075W        W54293  13.655  12.717   1.544
86076W        W54294  42.555   8.726   3.591
86077W        W54295  38.516  35.070  13.253
86078W        W54296  18.784   4.159   2.328
86079W        W54297  24.027   6.337  10.634
86080W        W54298   8.297  15.537  12.947
86081W        W54299  40.831  40.677   1.446
86082W        W54300  15.134  28.417  14.343
86083W        W54301  43.121   8.912   2.275
86084W        W54302  36.415  30.610   1.896
86085W        W54303  44.301  41.584   0.290
86086W        W54304  10.431  23.073  11.441
86087W        W54305   8.279  29.142  14.309
86088W        W54306  37.943   9.170  13.581
86089W        W54307  39.976  12.840   0.041
86090W        W54308  26.409  41.580  10.881
86091W        W54309  20.205  35.101   0.464
86092W        W54310  35.263  41.105   1.235
86093W        W54311  16.396  16.649   1.775
86094W        W54312  16.903  16.596  14.984
86095W        W54313  13.250  29.247   2.800
86096W        W54314  20.697  34.466  13.995
86097W        W54315  11.323  26.540  10.049
86098W        W54316  40.947  22.697  12.083
86099W        W54317   3.199  43.580   1.412
86100W        W54318  35.679  12.799   4.964
86101W        W54319  26.953  41.255   4.672
86102W        W54320  32.428  28.230  12.809
86103W        W54321  17.006  32.008   3.770
86104W        W54322  28.916  40.944   2.333
86105W        W54323  32.303  29.144  13.921
86106W        W54324   6.544  13.669   3.708
86107W        W54325   2.787   7.618   3.662
86108W        W54326   3.151  39.481   3.040
86109W        W54327   6.383  35.999   3.204
86110W        W54328  42.995  19.511  14.272
86111W        W54329  26.622  12.656  14.011
86112W        W54330  23.889  17.146   1.618
86113W        W54331   2.615   7.651  11.079
86114W        W54332  26.977  13.679   0.720
86115W        W54333  20.655  11.916  10.879
86116W        W54334   1.166  24.981  14.437
86117W        W54335  40.567  14.201  10.522
86118W        W54336   4.894  35.304  14.804
86119W        W54337  22.616  30.455  13.526
86120W        W54338  32.993  24.028  14.016
86121W        W54339   9.461  21.207   3.957
86122W        W54340  20.478  12.116  14.579
86123W        W54341  19.179  27.975   1.880
86124W        W54342   6.854  12.092   2.271
86125W        W54343  18.841   4.607   2.844
86126W        W54344  33.135  33.485  11.571
86127W        W54345  44.622   4.552  10.708
86128W        W54346   3.612  42.222   1.781
86129W        W54347  28.592  36.822  13.151
86130W        W54348  16.892  30.840  14.039
86131W        W54349   8.617  11.428  11.164
86132W        W54350  43.105  31.587  11.192
86133W        W54351   7.305   7.434  14.503
86134W        W54352  27.635   6.378   4.082
86135W        W54353  29.322  25.579   3.740
86136W        W54354  26.622  34.458  11.954
86137W        W54355   9.214   3.791  13.942
86138W        W54356  23.098  28.017   4.780
86139W        W54357  29.563   5.308  13.286
86140W        W54358  21.189  28.082   4.647
86141W        W54359  19.796  29.505   3.634
86142W        W54360   5.165  10.858  11.488
86143W        W54361   9.571  37.261   4.361
86144W        W54362  40.547   3.238   1.700
86145W        W54363   7.319  19.693  10.729
86146W        W54364   8.187  30.123  12.310
86147W        W54365  17.786  16.016  12.865
86148W        W54366  13.596  31.204  14.854
86149W        W54367  40.252  22.623   2.712
86150W        W54368  12.123  44.967  11.491
86151W        W54369   5.459  37.838  12.422
86152W        W54370  16.361  42.815  13.414
86153W        W54371  44.019  34.564  11.147
86154W        W54372  22.086  24.067  12.697
86155W        W54373  18.678   6.820  13.417
86156W        W54374  10.852  41.938  13.948
86157W        W54375  31.624   2.024   3.744
86158W        W54376   7.924  10.436  12.427
86159W        W54377  30.603   4.390  11.617
86160W        W54378  24.540  20.865  11.143
86161W        W54379  40.507  44.917   3.731
86162W        W54380  34.146  11.134  10.781
86163W        W54381  29.964  13.058   3.631
86164W        W54382   0.065  12.812  12.399
86165W        W54383   3.706   5.231  10.540
86166W        W54384  32.088  37.294  13.961
86167W        W54385  30.710  30.163  13.036
86168W        W54386  18.764  12.957  14.282
86169W        W54387   4.197  15.673  13.810
86170W        W54388   2.699   5.870  12.948
86171W        W54389  34.611   8.001  11.263
86172W        W54390  24.919  40.600   3.257
86173W        W54391   3.891  35.160  13.873
86174W        W54392  31.179  15.232  11.585
86175W        W54393   8.169  13.564  12.012
86176W        W54394  23.941   1.307   4.618
86177W        W54395  21.104  22.221   4.637
86178W        W54396   7.611  18.218  12.767
86179W        W54397  44.550   5.828   1.438
86180W        W54398  11.105  15.394   2.322
86181W        W54399  31.905  28.094   2.672
86182W        W54400  20.715   4.802  13.762
86183W        W54401  21.186   1.276   1.986
86184W        W54402  25.261  23.092  11.979
86185W        W54403  23.034  35.769  14.344
86186W        W54404  14.339   9.843  12.137
86187W        W54405  35.543  28.714   1.777
86188W        W54406  31.035   5.131  12.388
86189W        W54407  42.321  16.229   2.698
86190W        W54408  44.810  13.464  10.968
86191W        W54409  10.395  21.409   0.158
86192W        W54410  38.379  14.731  10.850
86193W        W54411  36.446  33.814  10.301
86194W        W54412  27.411  13.300   3.800
86195W        W54413  15.835  16.337  10.734
86196W        W54414   9.675  20.766   4.698
86197W        W54415  42.073  43.992   4.764
86198W        W54416  29.553   0.684  11.412
86199W        W54417  27.749  37.156  13.266
86200W        W54418  34.279   4.202   3.185
86201W        W54419   0.296  22.334   3.125
86202W        W54420   8.291   2.477  13.086
86203W        W54421  37.040  21.308   2.067
86204W        W54422  35.760   6.348  12.375
86205W        W54423  15.440  26.178   3.668
86206W        W54424  37.518  22.952   4.532
86207W        W54425  27.562  39.297   0.253
86208W        W54426  37.893  24.145  11.186
86209W        W54427  25.979  16.643   1.653
86210W        W54428  24.434   0.133   2.871
86211W        W54429  27.951  18.174   0.247
86212W        W54430   1.875   5.905   4.605
86213W        W54431  21.978  24.463   1.383
86214W        W54432  32.355  34.296  11.665
86215W        W54433  20.398   9.187  11.987
86216W        W54434  32.727  16.354   2.212
86217W        W54435   2.432  40.615   0.794
86218W        W54436  32.044   8.674  14.515
86219W        W54437   1.450   9.792  13.534
86220W        W54438  36.329  40.815  14.517
86221W        W54439  10.806  14.363   3.296
86222W        W54440  40.385  40.180   4.659
86223W        W54441  13.267  13.900   4.219
86224W        W54442   0.313  23.694   2.592
86225W        W54443   1.714  36.170   1.414
86226W        W54444  13.365   4.389   4.199
86227W        W54445  26.493   8.913   2.390
86228W        W54446  41.957  14.434  13.137
86229W        W54447  23.150   3.793   4.439
86230W        W54448   8.686   8.324   0.177
86231W        W54449  24.757   5.652   1.201
86232W        W54450  38.928   7.954   0.912
86233W        W54451  36.039  26.686  10.763
86234W        W54452   3.689   0.285   2.258
86235W        W54453  35.833  40.770   0.356
86236W        W54454  24.344  12.195   1.221
86237W        W54455  10.354  39.425  14.670
86238W        W54456   0.837   2.862   1.974
86239W        W54457  15.912  43.915   0.425
86240W        W54458  37.626  25.545  12.126
86241W        W54459  11.765  43.919   4.522
86242W        W54460  20.705  42.802  10.921
86243W        W54461  25.091  22.361  14.786
86244W        W54462  37.542  19.491   0.097
86245W        W54463  18.686  21.530   0.435
86246W        W54464   6.898  41.293  14.943
86247W        W54465   8.677  34.999  11.595
86248W        W54466   5.680   5.646  12.437
86249W        W54467  16.608  13.112  10.530
86250W        W54468  34.860   7.001   1.807
86251W        W54469  20.089  25.964  11.470
86252W        W54470  33.203  19.735  13.345
86253W        W54471  25.202   8.717   1.628
86254W        W54472   7.630  44.773   4.199
86255W        W54473  18.360  31.547   4.078
86256W        W54474  33.626  31.295   1.928
86257W        W54475   9.826  28.633   1.262
86258W        W54476  11.701  16.003  12.615
86259W        W54477  19.615  27.489  11.734
86260W        W54478  29.184  20.099  12.450
86261W        W54479   1.740  22.519  11.968
86262W        W54480  23.523  36.079   4.337
86263W        W54481  18.518  23.708   0.804
86264W        W54482  14.164   6.173  12.950
86265W        W54483   8.293  18.409   4.024
86266W        W54484  16.618   8.411   0.005
86267W        W54485  40.552  18.195  11.187
86268W        W54486  31.117  39.389   2.674
86269W        W54487  33.978  10.846   0.487
86270W        W54488  41.932  35.194   5.159
86271W        W54489  16.003  39.436  11.588
86272W        W54490  37.736  24.593  11.498
86273W        W54491   1.820  43.827   2.388
86274W        W54492  13.057   1.492  10.569
86275W        W54493   9.670  10.247  14.039
86276W        W54494   9.821  41.992  11.496
86277W        W54495  40.581   1.501   4.514
86278W        W54496  12.234  22.196  10.637
86279W        W54497  36.097  30.087  14.771
86280W        W54498   2.766   5.906   4.699
86281W        W54499   3.583  22.909  10.707
86282W        W54500   4.733  20.747  13.660
86283W        W54501  32.435  41.754   1.978
86284W        W54502  16.411  26.517   0.463
86285W        W54503  43.654  40.008  12.589
86286W        W54504  14.030  27.626   4.261
86287W        W54505  37.144  19.205  10.688
86288W        W54506   0.303  30.097   3.590
86289W        W54507   9.743  16.075   1.432
86290W        W54508  24.936  37.563   2.808
86291W        W54509   1.531   6.664  12.958
86292W        W54510  29.423  10.313  14.355
86293W        W54511   4.261  30.499  11.953
86294W        W54512   3.323  25.074   2.725
86295W        W54513  13.718  39.267   0.391
86296W        W54514  19.539  16.542  13.784
86297W        W54515  43.290  15.696   0.910
86298W        W54516  32.106  36.676   4.539
86299W        W54517  36.892  44.128  10.785
86300W        W54518  39.920   8.296  12.961
86301W        W54519  39.215   9.841   0.828
86302W        W54520  39.865   0.631   3.729
86303W        W54521  14.300   0.762   1.398
86304W        W54522  35.507  13.983  10.716
86305W        W54523   6.223  14.733  11.457
86306W        W54524  30.001  30.462  11.166
86307W        W54525  12.304  10.245   4.042
86308W        W54526  42.510  26.669  11.906
86309W        W54527  13.399  30.046   4.395
86310W        W54528  29.892  17.703  14.756
86311W        W54529   3.757  44.922  11.958
86312W        W54530  33.011  41.547  11.821
86313W        W54531  34.492  14.000   4.216
86314W        W54532   1.233  34.474  11.525
86315W        W54533  38.070  29.941   4.459
86316W        W54534  29.122  39.301   2.815
86317W        W54535   2.213  27.795  14.549
86318W        W54536   3.607   0.834   3.915
86319W        W54537  39.579  44.350   1.883
86320W        W54538  29.086  17.077   4.654
86321W        W54539  36.204  33.497   0.520
86322W        W54540  23.989  44.318  14.356
86323W        W54541  26.108  33.015   4.706
86324W        W54542  30.602  40.074   3.173
86325W        W54543   5.478  14.567   3.662
86326W        W54544  16.762   2.214   2.821
86327W        W54545  40.357  16.505   2.305
86328W        W54546  17.053   3.580  14.191
86329W        W54547  13.777  33.349   4.121
86330W        W54548  42.048  14.240   4.556
86331W        W54549  40.845   6.673   1.883
86332W        W54550  18.139   5.297  14.591
86333W        W54551  33.838  43.067   0.335
86334W        W54552   1.152  11.734   1.951
86335W        W54553  31.008  25.966   4.427
86336W        W54554  42.985  31.397   4.310
86337W        W54555  17.096   5.498  14.869
86338W        W54556  26.235  42.467  11.258
86339W        W54557  23.276  26.669   4.954
86340W        W54558  32.952   8.220  11.591
86341W        W54559  34.070  13.292   2.776
86342W        W54560   4.926  39.215   0.085
86343W        W54561  32.231  38.281  10.256
86344W        W54562  22.021  19.194  10.794
86345W        W54563  39.049  21.423   1.446
86346W        W54564   2.280  25.289  13.072
86347W        W54565  26.229  33.391   3.745
86348W        W54566  19.141  38.435  13.019
86349W        W54567  10.633  36.672  12.522
86350W        W54568   0.726  33.984  10.681
86351W        W54569  34.114  38.470   3.835
86352W        W54570  25.030   5.138   1.846
86353W        W54571  24.251  34.140   4.658
86354W        W54572   6.689  38.638   2.206
86355W        W54573  17.681  32.337  10.623
86356W        W54574  36.367  37.995  11.652
86357W        W54575  40.321   3.591   4.434
86358W        W54576  30.033  14.765   5.216
86359W        W54577  26.043  14.767  13.995
86360W        W54578   7.176  31.401   0.280
86361W        W54579   8.894   4.641  12.031
86362W        W54580  40.836   7.200   3.180
86363W        W54581  35.611  16.020   2.735
86364W        W54582  39.933  35.046   1.451
86365W        W54583  25.676   3.684  14.264
86366W        W54584  12.349   0.068   0.254
86367W        W54585  17.092  35.295   2.929
86368W        W54586  20.696  33.323   0.449
86369W        W54587  36.014  35.849  14.445
86370W        W54588   8.407   3.921   0.329
86371W        W54589   0.369  22.571  10.363
86372W        W54590  42.030  17.357   3.870
86373W        W54591   8.874   9.869  12.059
86374W        W54592  19.022  22.499   2.429
86375W        W54593   0.918   2.996   0.985
86376W        W54594  37.359  30.100  11.092
86377W        W54595  23.753  22.620   0.990
86378W        W54596  37.048  43.043  11.587
86379W        W54597  25.548   3.189  12.799
86380W        W54598  31.511  36.895  13.249
86381W        W54599  35.399  25.231   2.809
86382W        W54600  24.932  33.395  11.433
86383W        W54601  29.633   5.512   4.125
86384W        W54602   5.304  17.614  14.894
86385W        W54603  27.395  20.475  11.939
86386W        W54604   9.721  39.763  13.147
86387W        W54605  16.322  39.454  13.989
86388W        W54606  12.423  31.566  12.111
86389W        W54607  22.416  13.931   3.816
86390W        W54608  41.424   4.266  11.591
86391W        W54609   6.263  31.495   0.505
86392W        W54610  28.378  27.247  14.981
86393W        W54611  29.561  29.553   4.168
86394W        W54612  12.143  36.422   0.936
86395W        W54613  34.158  33.992   2.295
86396W        W54614  44.451  14.461   1.316
86397W        W54615  42.013  44.318  11.956
86398W        W54616  36.302   3.484  11.091
86399W        W54617   0.779  11.144  12.423
86400W        W54618  18.968  13.688   2.140
86401W        W54619  14.847   2.459   4.343
86402W        W54620  21.492  23.061  14.263
86403W        W54621  35.880  44.220  13.368
86404W        W54622  13.261  12.203  14.468
86405W        W54623  17.859  18.572   3.474
86406W        W54624  41.028  16.952   4.555
86407W        W54625  26.614   5.013   5.107
86408W        W54626  22.708  25.492   0.677
86409W        W54627  42.854  42.443  12.052
86410W        W54628   3.207  16.568   1.926
86411W        W54629  26.564  28.440   0.307
86412W        W54630  11.247  34.986   3.362
86413W        W54631   7.150  26.481   2.941
86414W        W54632  42.430  10.728  10.773
86415W        W54633  11.271  31.008  12.021
86416W        W54634  16.048  37.592   4.513
86417W        W54635  30.130  16.736  12.946
86418W        W54636  12.180   6.404   3.616
86419W        W54637   2.851  43.249   4.300
86420W        W54638  30.702  20.287   0.335
86421W        W54639  25.156   9.268  14.890
86422W        W54640  18.718  44.436   2.308
86423W        W54641  44.540   1.434   3.207
86424W        W54642  14.366  19.199   3.370
86425W        W54643  26.504   1.477   3.385
86426W        W54644  12.943   4.145  12.058
86427W        W54645  32.904  43.879  14.573
86428W        W54646  10.820   1.824  14.732
86429W        W54647  32.913   6.633  12.494
86430W        W54648  41.068  10.997   4.233
86431W        W54649  34.918  22.344   2.135
86432W        W54650  29.009  26.588   4.420
86433W        W54651  36.010  13.695   1.952
86434W        W54652  22.675  40.908   4.792
86435W        W54653  24.463   9.843   1.724
86436W        W54654  34.612  12.304   0.805
86437W        W54655  30.508  29.005  11.201
86438W        W54656  19.874   7.318  10.641
86439W        W54657  39.554   8.412  12.030
86440W        W54658   9.737  25.461   3.591
86441W        W54659  26.706  40.096   3.879
86442W        W54660  32.142  39.383   1.735
86443W        W54661   7.241  36.360  12.841
86444W        W54662  10.646  22.529  14.234
86445W        W54663  39.009  44.998  12.909
86446W        W54664   3.931  18.662   2.210
86447W        W54665  28.177  27.702   1.870
86448W        W54666   6.362  28.033  14.865
86449W        W54667  16.718  44.217   1.717
86450W        W54668   3.444  35.972  10.799
86451W        W54669  25.774  34.119   1.016
86452W        W54670  32.198  13.826  11.357
86453W        W54671   0.772  12.112   4.114
86454W        W54672  24.453  24.960   5.112
86455W        W54673  36.524  11.243  14.449
86456W        W54674  31.281   7.744  14.555
86457W        W54675  24.675   6.243  14.613
86458W        W54676  13.600   5.716   3.169
86459W        W54677  22.698  15.311   2.955
86460W        W54678  29.083  26.618   0.994
86461W        W54679  17.581  44.951   5.487
86462W        W54680  41.780   5.762  13.397
86463W        W54681  16.150  41.764  11.170
86464W        W54682  23.508  23.200   3.653
86465W        W54683  37.350  18.792   1.773
86466W        W54684  29.986  13.762   0.795
86467W        W54685  22.023  17.057  10.518
86468W        W54686  29.704  22.289  14.406
86469W        W54687  35.027  20.667  14.227
86470W        W54688  40.040  25.092   3.179
86471W        W54689   6.894  32.373   3.756
86472W        W54690  31.510  18.064   3.982
86473W        W54691  32.190  21.925  12.508
86474W        W54692  20.055  31.903   0.443
86475W        W54693  12.277  32.915  12.034
86476W        W54694  43.330   6.742   0.988
86477W        W54695  28.724  32.519  11.590
86478W        W54696   3.740  17.728   2.558
86479W        W54697  14.065  24.505  13.017
86480W        W54698   2.159  15.181  12.546
86481W        W54699  29.943  44.510   3.165
86482W        W54700  19.654  42.508   5.094
86483W        W54701  30.372  30.195   1.351
86484W        W54702   7.672  26.717  14.715
86485W        W54703   2.163  32.831  13.316
86486W        W54704  43.945   0.088   3.521
86487W        W54705   8.738  33.810   0.219
86488W        W54706  27.698  32.805  13.893
86489W        W54707   9.831  42.890  10.243
86490W        W54708  40.781   9.141  14.867
86491W        W54709  21.740   2.314   4.840
86492W        W54710  31.138   9.189  13.734
86493W        W54711  33.725  43.912  10.269
86494W        W54712  16.177  27.587   2.354
86495W        W54713  43.621  13.235   4.926
86496W        W54714  20.186   7.902   2.583
86497W        W54715  13.597   4.768   1.406
86498W        W54716  39.912  33.942  11.902
86499W        W54717  29.594  25.253  13.421
86500W        W54718   6.443  27.213   0.172
86501W        W54719  28.150  20.761  11.272
86502W        W54720  23.058   3.916   0.492
86503W        W54721  33.406   3.308   3.595
86504W        W54722  25.640  42.225   2.929
86505W        W54723  33.291  32.965  14.020
86506W        W54724  44.459  38.666  14.587
86507W        W54725  40.084  34.429   3.215
86508W        W54726  16.563   1.312   1.377
86509W        W54727  13.648  17.429   2.839
86510W        W54728   2.972   6.171  12.615
86511W        W54729  15.094  36.313   3.351
86512W        W54730  26.980  32.613   1.451
86513W        W54731   7.716   8.579  11.226
86514W        W54732  34.613   5.393   9.521
86515W        W54733  44.836  19.583  13.604
86516W        W54734   8.348  25.755  13.935
86517W        W54735  30.717  19.512  10.406
86518W        W54736   0.927  20.754   0.762
86519W        W54737  11.263  27.107   4.140
86520W        W54738   2.995  44.546   3.057
86521W        W54739  39.571   8.658  14.319
86522W        W54740   0.939  12.971  13.881
86523W        W54741  39.583  36.024  11.013
86524W        W54742   8.672  44.423   2.852
86525W        W54743  31.995  17.251   2.195
86526W        W54744   5.897  43.188  11.977
86527W        W54745   9.941  37.404   1.868
86528W        W54746  44.325  14.257  11.168
86529W        W54747  22.744  13.189   1.300
86530W        W54748   7.668  19.748   3.706
86531W        W54749  29.830  13.315  12.509
86532W        W54750  40.436  23.032   1.332
86533W        W54751   6.247   8.754   1.199
86534W        W54752  39.404  38.818  12.800
86535W        W54753  20.462  29.170  14.334
86536W        W54754  10.010  30.568   2.407
86537W        W54755  23.707   4.083  12.601
86538W        W54756   0.796  38.471   1.164
86539W        W54757  32.801  32.917  13.888
86540W        W54758  39.366  37.411  14.110
86541W        W54759  36.183  19.264  14.001
86542W        W54760  33.824  23.703   2.727
86543W        W54761  26.884  19.927   3.090
86544W        W54762  43.244  32.781   2.391
86545W        W54763  19.464  27.133  10.928
86546W        W54764  20.701  38.573  10.578
86547W        W54765  24.639  16.239  13.641
86548W        W54766  13.133  29.398  11.216
86549W        W54767  43.589  29.951  10.636
86550W        W54768  42.010   9.581   4.232
86551W        W54769  39.188  33.974   4.681
86552W        W54770   5.216  43.824  11.971
86553W        W54771  18.646  18.192   2.431
86554W        W54772   3.011  23.719   1.767
86555W        W54773  28.850  23.217  13.053
86556W        W54774  11.328  23.473   2.821
86557W        W54775  18.329  27.627  10.657
86558W        W54776   1.812   7.747   0.687
86559W        W54777  20.690  38.801  11.969
86560W        W54778  41.878  43.987   2.736
86561W        W54779  30.837  30.010   4.173
86562W        W54780  13.826   1.812  13.991
86563W        W54781   2.898  15.259   0.929
86564W        W54782   7.218  10.438   0.445
86565W        W54783  37.818  35.946  10.466
86566W        W54784   2.480   1.028   1.029
86567W        W54785  33.302  38.822  12.029
86568W        W54786  29.847   1.779  10.457
86569W        W54787  20.559  10.753   4.468
86570W        W54788  33.424  11.338   1.500
86571W        W54789  14.756  21.878   0.203
86572W        W54790   2.713  13.769   0.876
86573W        W54791  41.276  17.013   0.267
86574W        W54792  23.083  40.284   3.187
86575W        W54793  22.997   9.979   4.577
86576W        W54794  35.071  13.597   5.001
86577W        W54795   0.379  13.320  12.921
86578W        W54796  24.125  31.501   2.387
86579W        W54797   5.504  25.663   1.439
86580W        W54798  17.976  26.566  11.141
86581W        W54799   3.225  36.332  13.454
86582W        W54800   2.772  27.208   4.847
86583W        W54801  34.400  23.571  12.033
86584W        W54802  34.583  28.112  13.393
86585W        W54803  12.079  29.427   4.165
86586W        W54804  27.753   7.740   3.516
86587W        W54805  20.691  16.007  13.517
86588W        W54806  39.986  43.803   3.523
86589W        W54807  14.330  22.632   3.673
86590W        W54808  31.497  20.473  12.445
86591W        W54809   7.348  13.871   1.797
86592W        W54810  12.931   5.249   4.967
86593W        W54811  43.807  41.467   4.136
86594W        W54812  41.894  43.567  13.200
86595W        W54813  33.375  21.195   0.231
86596W        W54814  18.764   9.400  14.777
86597W        W54815  29.337  12.737   2.765
86598W        W54816   5.040  25.870   5.042
86599W        W54817  28.894  23.617   5.035
86600W        W54818  29.228  10.789   2.925
86601W        W54819  25.335  17.649   2.070
86602W        W54820  21.067  10.288  12.523
86603W        W54821  25.720  36.632   2.275
86604W        W54822   0.798  28.494  13.505
86605W        W54823  14.096  12.834   0.773
86606W        W54824  40.473  44.291  14.418
86607W        W54825  28.152  25.043   1.663
86608W        W54826  39.783   5.501  12.580
86609W        W54827   7.218  26.988  12.581
86610W        W54828  29.397  22.991  11.424
86611W        W54829  37.063  16.339   1.727
86612W        W54830  12.630  12.135   3.936
86613W        W54831  28.565  26.726   3.659
86614W        W54832   2.757  15.059   4.721
86615W        W54833  43.712  31.809  11.466
86616W        W54834   4.459  13.185  14.617
86617W        W54835  21.640  24.486   2.291
86618W        W54836  32.981  31.632  14.819
86619W        W54837  28.192  11.063  13.920
86620W        W54838  34.669  34.039   3.575
86621W        W54839   3.804   4.495  10.405
86622W        W54840  26.080  17.034   1.350
86623W        W54841  31.608  23.257   0.203
86624W        W54842   9.297  35.334  14.477
86625W        W54843  25.832   7.588  11.024
86626W        W54844   6.209  10.322  10.634
86627W        W54845  18.087  31.594   2.164
86628W        W54846  18.125  29.548   2.663
86629W        W54847   9.639  37.456   3.072
86630W        W54848   2.776  43.564  11.478
86631W        W54849  24.280  22.806   5.464
86632W        W54850  26.685   0.072  12.859
86633W        W54851  35.419  12.135  10.410
86634W        W54852  44.842  12.520   2.474
86635W        W54853  21.606  30.419  12.967
86636W        W54854  41.527   6.723   0.749
86637W        W54855  16.705   4.743  14.729
86638W        W54856  31.886  23.836  13.007
86639W        W54857  41.533  31.760   0.488
86640W        W54858  21.534  33.208   1.159
86641W        W54859  37.762   0.385   5.139
86642W        W54860  34.861  10.704   2.792
86643W        W54861   1.264   7.922  12.402
86644W        W54862  25.733  16.125   0.177
86645W        W54863  42.350  15.793   1.133
86646W        W54864  18.634  26.204  11.976
86647W        W54865  19.724  33.579   4.098
86648W        W54866  15.831  35.284   2.593
86649W        W54867  28.720  29.836  10.717
86650W        W54868  39.356  35.274  10.284
86651W        W54869   3.493  34.126   1.749
86652W        W54870  11.188  21.060  14.864
86653W        W54871   6.228  20.765  12.982
86654W        W54872  37.348   5.323   3.718
86655W        W54873  23.560  22.883   1.407
86656W        W54874   6.216  36.622   1.409
86657W        W54875  41.040   6.439  11.526
86658W        W54876  44.320   5.841  13.049
86659W        W54877  14.702  15.652   3.284
86660W        W54878  29.548  14.457   4.559
86661W        W54879  35.679  42.763   0.845
86662W        W54880  26.464  38.056   3.704
86663W        W54881  30.016  38.974  13.293
86664W        W54882  12.105  27.706  13.483
86665W        W54883   5.961  22.923  13.506
86666W        W54884   5.386  28.463  12.447
86667W        W54885  41.006  18.820  14.293
86668W        W54886  22.068  28.133   1.675
86669W        W54887  32.017  37.846  10.457
86670W        W54888  12.099  15.756   4.068
86671W        W54889  41.544  32.469   2.129
86672W        W54890  16.428   3.352   4.106
86673W        W54891  34.070   7.058  10.745
86674W        W54892   7.296   2.854   2.396
86675W        W54893  19.603  29.458  11.556
86676W        W54894   7.430   3.874   1.696
86677W        W54895   2.912  22.771   4.003
86678W        W54896  37.042  25.660   1.432
86679W        W54897  36.309   5.930  13.373
86680W        W54898  22.262  19.445   1.777
86681W        W54899  44.360  44.756  13.175
86682W        W54900  35.969  37.617  13.384
86683W        W54901  24.929  18.687  12.139
86684W        W54902   1.281  29.640   3.227
86685W        W54903  16.062  12.970  13.758
86686W        W54904  10.887  14.508  13.826
86687W        W54905  13.844  17.755   1.648
86688W        W54906  13.225  24.003   2.526
86689W        W54907  36.970  27.681  10.378
86690W        W54908  10.702  12.598  11.537
86691W        W54909  29.534  30.400  14.349
86692W        W54910  29.694  44.780   3.722
86693W        W54911  24.152   4.168  11.914
86694W        W54912  12.401  41.353   3.363
86695W        W54913   3.984  43.830   0.339
86696W        W54914  35.855  18.774   0.021
86697W        W54915   8.001  13.252   4.262
86698W        W54916  21.271  32.146  11.056
86699W        W54917  12.570  25.803   3.695
86700W        W54918   0.465  26.053   2.988
86701W        W54919  29.911  28.704   4.146
86702W        W54920  10.230   5.403  10.859
86703W        W54921   6.273  27.531  10.233
86704W        W54922  18.379  44.591   9.765
86705W        W54923   5.758   7.896   0.959
86706W        W54924  32.922  43.507  10.769
86707W        W54925  14.552  38.251  12.977
86708W        W54926  31.877  26.666   3.181
86709W        W54927  38.097  13.058  14.522
86710W        W54928  12.594  41.906   0.438
86711W        W54929  38.071   5.193  13.382
86712W        W54930  10.408  12.257   1.265
86713W        W54931  16.682  19.346   0.954
86714W        W54932  12.271  24.049   3.860
86715W        W54933  44.230   8.405   4.174
86716W        W54934  25.599   3.204   2.903
86717W        W54935   6.385  30.927  14.873
86718W        W54936  10.583   3.801   3.797
86719W        W54937  18.306  12.170  12.531
86720W        W54938  19.227   9.180   3.530
86721W        W54939  27.464  26.895  11.217
86722W        W54940  36.951  36.610   0.386
86723W        W54941  43.073  43.972  11.174
86724W        W54942   2.499  44.840  13.481
86725W        W54943   9.155  39.334  12.660
86726W        W54944  26.147  28.612   4.078
86727W        W54945  38.501  19.216  11.174
86728W        W54946  22.648  42.987   2.904
86729W        W54947   7.205  28.149   2.363
86730W        W54948   9.477  22.585   0.349
86731W        W54949  30.530   1.634   4.589
86732W        W54950  40.675  27.907   1.249
86733W        W54951  14.418  36.107  11.016
86734W        W54952  11.116  28.594  12.025
86735W        W54953   2.560  39.492  13.980
86736W        W54954  20.216  10.673  11.602
86737W        W54955  28.435  16.309  11.987
86738W        W54956  21.585  31.802   4.195
86739W        W54957   0.010  12.146   1.805
86740W        W54958  28.144   1.177   2.375
86741W        W54959  32.131  26.612   3.650
86742W        W54960  27.121  13.563  13.893
86743W        W54961  17.289  11.628   2.281
86744W        W54962   4.240  10.273  13.526
86745W        W54963  35.671  23.253   3.628
86746W        W54964  26.732  26.147   3.605
86747W        W54965  44.997  42.403   4.148
86748W        W54966  23.733  17.199   2.104
86749W        W54967  22.733  27.168  13.622
86750W        W54968  35.980  23.398   0.290
86751W        W54969  15.800  12.427   0.400
86752W        W54970  41.944  21.617   2.893
86753W        W54971  39.414   9.398   4.778
86754W        W54972  14.631  12.103  14.061
86755W        W54973  38.549  12.913  11.155
86756W        W54974  44.127  26.894  11.640
86757W        W54975  42.198  38.344   0.407
86758W        W54976  13.524  19.630  12.474
86759W        W54977   4.854  19.372  13.233
86760W        W54978   5.911   2.765  14.972
86761W        W54979   9.493  20.595  11.643
86762W        W54980  36.495  27.467  10.564
86763W        W54981  30.923  28.912  12.328
86764W        W54982  42.549   2.281   3.677
86765W        W54983  22.604  36.165  12.577
86766W        W54984  18.325  17.641   4.431
86767W        W54985  37.581   7.169   0.420
86768W        W54986  32.394   9.785   2.742
86769W        W54987   0.319  24.006   1.795
86770W        W54988  17.546  24.714   1.713
86771W        W54989  16.887  28.361  10.696
86772W        W54990   9.717  18.978  11.166
86773W        W54991  17.822  11.163  12.556
86774W        W54992  10.896  33.046  13.565
86775W        W54993  38.263  14.640  10.323
86776W        W54994  39.781  17.744  12.479
86777W        W54995  24.902  37.559  12.147
86778W        W54996   5.712  22.582   3.110
86779W        W54997   1.535  39.647  12.466
86780W        W54998  13.888  33.893  13.051
86781W        W54999  22.766   0.417  10.986
86782W        W55000   9.432  29.252   1.505
86783W        W55001  10.277  39.829  11.586
86784W        W55002   4.291  34.000   3.811
86785W        W55003  26.027  15.684  14.970
86786W        W55004  15.779  32.880   2.858
86787W        W55005  15.217  31.152  10.449
86788W        W55006  19.957  13.699   0.411
86789W        W55007   5.399   1.730  12.504
86790W        W55008  39.436  19.608  13.042
86791W        W55009  15.832  23.694   3.673
86792W        W55010   2.859  15.219  13.331
86793W        W55011  37.534  21.467  12.628
86794W        W55012  43.108   5.419   0.504
86795W        W55013  34.478  18.048  12.193
86796W        W55014   3.014  28.231  14.308
86797W        W55015  23.076  13.812   0.292
86798W        W55016  39.356  29.255   2.890
86799W        W55017  11.881  40.327   3.333
86800W        W55018  24.508  33.761   1.176
86801W        W55019  32.925   4.851  14.809
86802W        W55020   4.703  19.082  12.320
86803W        W55021  32.899  35.218   3.234
86804W        W55022   2.324  42.233   2.662
86805W        W55023  15.438   5.295  12.045
86806W        W55024  12.885   2.514  12.550
86807W        W55025   8.654  15.755   2.386
86808W        W55026  10.894  27.424   4.808
86809W        W55027   9.660  39.984   1.766
86810W        W55028  17.608  15.187  14.896
86811W        W55029  35.787  37.982  12.983
86812W        W55030  24.604   6.637   3.815
86813W        W55031  40.936   0.313   1.460
86814W        W55032  35.047   8.434   3.374
86815W        W55033  38.400   7.836   3.783
86816W        W55034  40.346  16.001   1.396
86817W        W55035  36.578  22.529  12.268
86818W        W55036  41.371  43.780  12.940
86819W        W55037  28.255   6.240   4.076
86820W        W55038  10.639  22.006   3.698
86821W        W55039   5.057  40.516   3.351
86822W        W55040   9.630   2.380  14.959
86823W        W55041  26.857  39.794   5.112
86824W        W55042  35.799  17.009  12.529
86825W        W55043  41.343  20.801   2.119
86826W        W55044   3.834  44.098  10.605
86827W        W55045  41.577  13.750  13.034
86828W        W55046   1.701  16.118  12.440
86829W        W55047  10.845  37.880   2.341
86830W        W55048  29.421  32.387  14.285
86831W        W55049  32.113  33.357  11.581
86832W        W55050  42.935  37.099   2.502
86833W        W55051  10.280  41.836  10.774
86834W        W55052  29.586   5.186  13.807
86835W        W55053  32.648   0.900   4.437
86836W        W55054  34.322  10.816   2.710
86837W        W55055  38.988  22.543  12.944
86838W        W55056  25.574   1.864   1.739
86839W        W55057  28.074  17.712  13.938
86840W        W55058  20.453  35.999  11.153
86841W        W55059  31.922  31.010   1.227
86842W        W55060  13.826  20.739  14.840
86843W        W55061   1.298   2.557   3.610
86844W        W55062  38.562  32.817   0.806
86845W        W55063  29.914   7.241   0.947
86846W        W55064  38.293  35.546  11.217
86847W        W55065   3.771  14.578   1.926
86848W        W55066   6.267   2.562  13.767
86849W        W55067  34.902  24.255   4.561
86850W        W55068  24.576  11.839  14.830
86851W        W55069  21.666  39.729   2.343
86852W        W55070  32.851  43.391   2.329
86853W        W55071  25.794  14.182  12.586
86854W        W55072  23.466  41.082  13.902
86855W        W55073   6.539  36.966   0.460
86856W        W55074  39.224  17.814   2.737
86857W        W55075   2.196  10.842   1.940
86858W        W55076  41.582   2.776   3.753
86859W        W55077  24.836   3.675   4.116
86860W        W55078  21.724   9.586   4.850
86861W        W55079   1.880  43.963  11.020
86862W        W55080   9.632  34.427   0.691
86863W        W55081  18.055  23.628   4.184
86864W        W55082  26.489  40.830  14.943
86865W        W55083   9.364   4.418   2.209
86866W        W55084  33.034  35.878  12.064
86867W        W55085  14.234  36.394  12.316
86868W        W55086  31.943  15.797   4.549
86869W        W55087  35.037  22.690   0.855
86870W        W55088  33.411  27.092  10.821
86871W        W55089  22.715   0.449   0.463
86872W        W55090   2.316  40.071   3.138
86873W        W55091  28.067   1.494   2.800
86874W        W55092   5.204  21.708   2.350
86875W        W55093  35.382   7.744  11.621
86876W        W55094   9.325   6.574  11.952
86877W        W55095  21.912  19.295  12.777
86878W        W55096  12.237  27.454   3.286
86879W        W55097  28.650  28.532   0.851
86880W        W55098  19.649  12.906   2.854
86881W        W55099  33.496  12.189  12.104
86882W        W55100   9.287   3.265   4.636
86883W        W55101  30.120  17.021   4.760
86884W        W55102   5.979  16.823  11.179
86885W        W55103  33.839  27.574  10.335
86886W        W55104  43.883  37.445  12.670
86887W        W55105  37.322  11.918  13.448
86888W        W55106   5.270  35.119  11.571
86889W        W55107  42.297  20.057   0.232
86890W        W55108  33.959  30.462  12.487
86891W        W55109  37.057  36.702   1.328
86892W        W55110   2.898  37.453  11.691
86893W        W55111  19.312  12.444   4.482
86894W        W55112  14.379  30.198  14.955
86895W        W55113  30.660   7.728   0.953
86896W        W55114  14.881  18.059   2.317
86897W        W55115  35.137  30.608   2.747
86898W        W55116  31.827  20.403  14.269
86899W        W55117   9.234  39.636  14.389
86900W        W55118  26.580   2.834  13.973
86901W        W55119   6.530  18.924  11.908
86902W        W55120   2.145   8.269  13.693
86903W        W55121   6.204  19.726   4.639
86904W        W55122   1.089  35.699  12.520
86905W        W55123  33.148  25.948  10.544
86906W        W55124   4.364  15.600   1.462
86907W        W55125  30.587  24.934   0.291
86908W        W55126   2.732  37.343  12.679
86909W        W55127  41.718  36.849   0.329
86910W        W55128  32.229  12.243  14.300
86911W        W55129  31.252  20.527   1.181
86912W        W55130  23.635  34.796   2.324
86913W        W55131  10.678  18.058   0.762
86914W        W55132   1.748  21.728   4.554
86915W        W55133  30.704  28.127   3.222
86916W        W55134  44.723  15.824   0.765
86917W        W55135  14.178  27.500  12.312
86918W        W55136   0.799   2.417   3.632
86919W        W55137   2.733  29.962   0.538
86920W        W55138   8.993  12.659  13.365
86921W        W55139  12.805   4.354   3.546
86922W        W55140  28.615  28.227  13.255
86923W        W55141  17.204   1.482  10.700
86924W        W55142  11.377  32.689  11.461
86925W        W55143  36.777  29.535   4.138
86926W        W55144  10.183  16.103  12.933
86927W        W55145  36.592  16.245   2.886
86928W        W55146  28.035  35.448   0.210
86929W        W55147  12.695  41.481  13.864
86930W        W55148   8.668  15.553  13.970
86931W        W55149   2.923  28.908  11.865
86932W        W55150  35.125  30.079  10.951
86933W        W55151   9.092  17.629   2.744
86934W        W55152  28.602  27.096   0.421
86935W        W55153  21.745  25.947  14.577
86936W        W55154  32.906  24.260  14.895
86937W        W55155  40.562  20.934  14.276
86938W        W55156   5.367  31.226   2.315
86939W        W55157   8.288   1.522   3.030
86940W        W55158   1.752  11.285  11.478
86941W        W55159  16.045  13.973  13.116
86942W        W55160  36.954  11.390   4.722
86943W        W55161  44.051  24.465   1.910
86944W        W55162  28.624  24.282  12.508
86945W        W55163  35.364   9.209  14.895
86946W        W55164  39.146  22.542  11.669
86947W        W55165  18.224  43.852  13.501
86948W        W55166   2.410   1.889   5.052
86949W        W55167  43.098  12.178  12.984
86950W        W55168  43.021  15.212  13.909
86951W        W55169  26.968  24.417  13.120
86952W        W55170   2.599  15.115   3.771
86953W        W55171  16.397   6.927  13.970
86954W        W55172  17.794  44.824  13.703
86955W        W55173  33.808  44.297   4.894
86956W        W55174  42.039  23.525   0.217
86957W        W55175  37.307   9.918   0.079
86958W        W55176   5.232  35.067  11.009
86959W        W55177   0.354  30.326  12.431
86960W        W55178   2.327  32.185   1.942
86961W        W55179  13.257  11.298   1.983
86962W        W55180   7.179  27.283   2.356
86963W        W55181  22.667  38.902   4.542
86964W        W55182  34.067  13.232   4.555
86965W        W55183   0.889  39.450   3.805
86966W        W55184   1.922  11.084  14.231
86967W        W55185  36.587  33.423   0.141
86968W        W55186  18.933  13.398   9.949
86969W        W55187  44.644  22.966   1.495
86970W        W55188   0.373   0.422  11.884
86971W        W55189  41.312   4.755  11.733
86972W        W55190   9.328  31.290  14.781
86973W        W55191  25.172  38.561   0.474
86974W        W55192  40.510   2.041  10.417
86975W        W55193  33.598  31.071   5.025
86976W        W55194   2.221  34.387   2.151
86977W        W55195  32.875   8.422  12.069
86978W        W55196  39.622  28.601   0.677
86979W        W55197  40.031  30.219   3.371
86980W        W55198   0.422  11.665   4.170
86981W        W55199  23.253  17.284  14.938
86982W        W55200  10.368  34.099  12.111
86983W        W55201  15.704  11.848   4.623
86984W        W55202  19.297  24.457   3.724
86985W        W55203  42.338  11.644  11.076
86986W        W55204   4.881  19.493  13.737
86987W        W55205  25.179  41.194   1.852
86988W        W55206  21.487  28.623  10.673
86989W        W55207  10.228  27.689  10.766
86990W        W55208  44.727  24.632   0.553
86991W        W55209  29.592  27.228  13.525
86992W        W55210  35.510  21.702   0.885
86993W        W55211  33.031  13.104  10.949
86994W        W55212  37.450  13.243  10.724
86995W        W55213   1.873  29.949   1.780
86996W        W55214   3.834  22.480  12.949
86997W        W55215  21.838  37.403   3.344
86998W        W55216   0.815   4.359   4.761
86999W        W55217  18.072  38.367  14.977
87000W        W55218   9.663  19.586  12.595
87001W        W55219  32.261   0.467   1.687
87002W        W55220   7.231  42.230  13.816
87003W        W55221   5.171  35.962   3.132
87004W        W55222  26.108   2.961   3.710
87005W        W55223  38.815  38.863   0.351
87006W        W55224   4.338   4.036   2.221
87007W        W55225  23.536  18.188   2.723
87008W        W55226  33.090   9.349  12.998
87009W        W55227  10.133   4.858   0.428
87010W        W55228  14.326   3.974  11.109
87011W        W55229  21.968  23.770  13.085
87012W        W55230  33.071  42.363   2.227
87013W        W55231   1.521  26.833  12.563
87014W        W55232  18.154  43.696  12.465
87015W        W55233  34.385   4.714  13.948
87016W        W55234   3.129  41.030  12.964
87017W        W55235  28.106  32.547  14.806
87018W        W55236  23.948   4.936   3.208
87019W        W55237  31.002  13.913  12.405
87020W        W55238  26.091   7.885  12.628
87021W        W55239  11.743  41.369  10.908
87022W        W55240   1.324  16.324  13.390
87023W        W55241  28.435   4.955  13.098
87024W        W55242   2.342  43.382  10.786
87025W        W55243  38.367  38.266   2.830
87026W        W55244   0.346  14.085   3.155
87027W        W55245  20.740   9.383  14.925
87028W        W55246  39.841  31.978  12.589
87029W        W55247  21.450  12.859   3.606
87030W        W55248   2.813  24.139  14.397
87031W        W55249  14.345   1.252   0.519
87032W        W55250   4.739   7.732   3.869
87033W        W55251   1.998  10.633   4.194
87034W        W55252  17.633  38.128  14.333
87035W        W55253  19.597   7.393   3.235
87036W        W55254  36.856  17.850   2.247
87037W        W55255  25.599  27.885  12.419
87038W        W55256  14.325  16.828   0.456
87039W        W55257  25.917   3.225  14.384
87040W        W55258  26.483   4.925   0.905
87041W        W55259  14.582   3.834  13.714
87042W        W55260   1.628   5.883  12.840
87043W        W55261   6.923  34.911   0.158
87044W        W55262  20.547  24.622   1.317
87045W        W55263  15.885  13.730   0.251
87046W        W55264  15.597  44.829   3.661
87047W        W55265  44.674  41.344   2.345
87048W        W55266  44.320   4.212   2.734
87049W        W55267  20.525  29.601   4.145
87050W        W55268  43.989  42.951  10.988
87051W        W55269  27.137  33.996  12.967
87052W        W55270  26.706  25.236  10.686
87053W        W55271   0.350  36.955  10.723
87054W        W55272  43.259  20.627  10.596
87055W        W55273  33.785  25.501   3.674
87056W        W55274  37.510  30.483   3.706
87057W        W55275   6.784  24.258   0.883
87058W        W55276   6.650  18.326   0.772
87059W        W55277   6.196  42.896  14.024
87060W        W55278  11.049  32.338   2.896
87061W        W55279  11.209   1.403  12.598
87062W        W55280   3.270  26.614   4.284
87063W        W55281  12.269  30.484   4.252
87064W        W55282  16.339  16.004  14.853
87065W        W55283  13.560   8.196   3.934
87066W        W55284  41.554   3.880   4.939
87067W        W55285  36.849  17.324  10.753
87068W        W55286  24.856  17.370   2.899
87069W        W55287  13.620  38.947  10.317
87070W        W55288   8.842  14.783   5.385
87071W        W55289  25.395  17.284   2.826
87072W        W55290  41.043   7.353   3.631
87073W        W55291   5.795  20.058  11.895
87074W        W55292  13.895  18.204  13.968
87075W        W55293  21.569  33.388  14.265
87076W        W55294  26.677  32.751  11.975
87077W        W55295  23.256  17.157   4.661
87078W        W55296  30.545  25.057   1.855
87079W        W55297  33.600   0.215  14.905
87080W        W55298   7.424  15.115  12.726
87081W        W55299  12.548  17.053   3.219
87082W        W55300  10.229   4.475  10.673
87083W        W55301   5.382  40.913   0.434
87084W        W55302  21.456  36.027   4.986
87085W        W55303   3.747  32.327  12.590
87086W        W55304   1.450  36.017  12.336
87087W        W55305  15.567  27.539  14.417
87088W        W55306  27.061  22.264   0.223
87089W        W55307   0.284  10.599   4.626
87090W        W55308   7.896  20.986  10.670
87091W        W55309  27.503  16.781  13.882
87092W        W55310   2.938  10.331  10.364
87093W        W55311  11.566   7.367   0.853
87094W        W55312  22.082  17.055  13.019
87095W        W55313   2.533  36.060   3.554
87096W        W55314  24.913  15.264   0.302
87097W        W55315  10.779  13.074  12.475
87098W        W55316  26.250   9.871   2.582
87099W        W55317  31.188   6.394  12.414
87100W        W55318  15.710  43.875   2.811
87101W        W55319  13.124  19.035  11.337
87102W        W55320  19.007  32.531  12.405
87103W        W55321  17.337  35.150   0.483
87104W        W55322  33.207  43.595   2.803
87105W        W55323  22.622  16.387   4.157
87106W        W55324  29.047  35.099   3.397
87107W        W55325  12.131  28.411   0.263
87108W        W55326  15.549  22.720  14.478
87109W        W55327  12.630  17.285   2.768
87110W        W55328  13.831  18.294  14.894
87111W        W55329  44.206  41.020   3.306
87112W        W55330  11.817  29.821   3.920
87113W        W55331  19.794  32.933  14.963
87114W        W55332  40.252  32.492  10.521
87115W        W55333  32.527  21.236  12.929
87116W        W55334  26.119  12.646   3.685
87117W        W55335  44.952   2.049  11.642
87118W        W55336  38.972   0.483  10.796
87119W        W55337   5.721   6.145   1.185
87120W        W55338  19.238   0.074  11.569
87121W        W55339  11.777  12.184   5.040
87122W        W55340  43.931   5.701   4.774
87123W        W55341   7.374  11.400   1.518
87124W        W55342   8.341  14.015   3.812
87125W        W55343   1.845  20.522  13.278
87126W        W55344  35.748   4.989   5.112
87127W        W55345  34.580  21.315   3.643
87128W        W55346  18.635  30.397  11.658
87129W        W55347  37.762   7.902  14.904
87130W        W55348  20.514   2.022   4.825
87131W        W55349  27.997  25.667  11.779
87132W        W55350  22.712  44.253  10.780
87133W        W55351  25.419   6.365   3.948
87134W        W55352  28.901  14.412   3.748
87135W        W55353   5.417  24.699   3.436
87136W        W55354  10.711   9.682   2.395
87137W        W55355  29.611  37.708   0.640
87138W        W55356   1.313  21.279   2.328
87139W        W55357   5.047  20.191   0.353
87140W        W55358   8.790  14.318   1.175
87141W        W55359  21.636  31.579  13.402
87142W        W55360  42.295  15.118  11.665
87143W        W55361   6.643  41.010   1.795
87144W        W55362  17.237  36.990   4.922
87145W        W55363  22.014  22.247  12.677
87146W        W55364  27.637  37.106  12.135
87147W        W55365  26.910  42.560   3.008
87148W        W55366  33.407  15.715   1.869
87149W        W55367  40.480  20.442   1.108
87150W        W55368  43.273  21.069   4.887
87151W        W55369  36.655  11.186  11.972
87152W        W55370   2.830   2.987   2.003
87153W        W55371   2.348  25.382   1.282
87154W        W55372  29.377  30.566  13.873
87155W        W55373  43.934  23.752   3.716
87156W        W55374  32.438   7.283  10.720
87157W        W55375  29.422  29.585  14.913
87158W        W55376  42.801  22.466   2.654
87159W        W55377  13.193  43.528  11.858
87160W        W55378  18.629  15.533   0.393
87161W        W55379  33.394  26.480  14.848
87162W        W55380  30.697   6.739   1.345
87163W        W55381   8.898  34.015  11.386
87164W        W55382   1.980  35.749   4.249
87165W        W55383  16.020  29.395  11.836
87166W        W55384  42.963  40.252   2.211
87167W        W55385  28.939  32.477  14.425
87168W        W55386  41.069   3.296   9.821
87169W        W55387   4.461  21.546  12.473
87170W        W55388   5.977  17.132  10.565
87171W        W55389  38.686  10.389  11.261
87172W        W55390  13.577   0.679   4.448
87173W        W55391  38.226   6.500  11.085
87174W        W55392  13.823  39.513   2.014
87175W        W55393  37.668  26.545  11.577
87176W        W55394  28.931  34.430   0.678
87177W        W55395  11.710  26.142   4.298
87178W        W55396  26.944  21.510   1.206
87179W        W55397   0.075  44.822   4.179
87180W        W55398  25.165  24.845   4.841
87181W        W55399   8.376  42.410  14.406
87182W        W55400  43.810  21.470   0.413
87183W        W55401  34.069   8.821  13.409
87184W        W55402  36.429  15.520   3.238
87185W        W55403  15.806  36.045  14.589
87186W        W55404  26.017  36.271   0.765
87187W        W55405  38.540  35.963  14.135
87188W        W55406  35.646   9.468   4.624
87189W        W55407  16.756  41.709  11.369
87190W        W55408  19.183  26.986  12.986
87191W        W55409  41.664  21.732   2.241
87192W        W55410  29.348   7.249  12.007
87193W        W55411  22.869  35.995  12.993
87194W        W55412  24.730  17.543  13.595
87195W        W55413  22.530  26.564   4.197
87196W        W55414  24.801   4.298   1.250
87197W        W55415  21.790   0.888   0.381
87198W        W55416   0.371   4.337  14.660
87199W        W55417  38.472  36.441  11.206
87200W        W55418  34.294  26.197   4.106
87201W        W55419  13.429  19.209   5.016
87202W        W55420  24.451  31.600   3.663
87203W        W55421   8.180  39.599   1.317
87204W        W55422  42.575  29.857  14.322
87205W        W55423  26.610   7.316   3.212
87206W        W55424  24.051  30.676  11.672
87207W        W55425  21.167  40.213   3.000
87208W        W55426  41.026  29.079  12.072
87209W        W55427  15.828  22.622  14.055
87210W        W55428  25.926  16.893  12.818
87211W        W55429  37.614  42.448  13.283
87212W        W55430  18.113  30.235   3.774
87213W        W55431  28.453  33.958  10.651
87214W        W55432  43.291   8.842   0.464
87215W        W55433  24.911  34.672  14.865
87216W        W55434  43.776  38.298   0.209
87217W        W55435   9.661  26.343  13.600
87218W        W55436   2.794  18.713   4.866
87219W        W55437  15.738  25.381   4.470
87220W        W55438  35.435   4.610  12.972
87221W        W55439  31.977   0.440   3.144
87222W        W55440  13.820   8.313   1.787
87223W        W55441  21.822  37.444  14.489
87224W        W55442  44.367  23.472   3.660
87225W        W55443  35.515  37.004   3.627
87226W        W55444  30.477   0.442  12.092
87227W        W55445  37.356  30.482  13.844
87228W        W55446  14.026  15.489  14.381
87229W        W55447  12.211  42.517  12.127
87230W        W55448  32.491  28.725   4.988
87231W        W55449  34.737  20.911  13.857
87232W        W55450  12.180  21.463   1.650
87233W        W55451  40.989  41.040   1.826
87234W        W55452  34.063   2.932   3.785
87235W        W55453  23.095  19.507   4.760
87236W        W55454   2.391   8.412  10.445
87237W        W55455  24.052  41.631   5.137
87238W        W55456  39.947   6.233   1.779
87239W        W55457   5.372  10.910  12.908
87240W        W55458  15.722   2.319  12.364
87241W        W55459  39.996  15.641   0.219
87242W        W55460   2.997  27.889   4.297
87243W        W55461  31.093  37.528   0.661
87244W        W55462   9.046  14.197  13.820
87245W        W55463  34.047  15.453   3.304
87246W        W55464  38.187  36.720  14.793
87247W        W55465  44.283  12.639  10.627
87248W        W55466  42.266   1.249   3.988
87249W        W55467  36.311  17.617  11.646
87250W        W55468   6.946  23.651   2.707
87251W        W55469   7.873  21.800  14.332
87252W        W55470  40.808  14.549  12.048
87253W        W55471  24.197   2.978   1.751
87254W        W55472   4.336  41.972   0.259
87255W        W55473  10.943  43.284  13.363
87256W        W55474  34.781  18.619   0.211
87257W        W55475  40.952  10.544   2.675
87258W        W55476   8.291  24.379  12.331
87259W        W55477  26.470  28.035  14.969
87260W        W55478  11.219  44.848  11.377
87261W        W55479  10.954  29.392   2.499
87262W        W55480  21.551  43.517   1.418
87263W        W55481  38.665  40.873  13.723
87264W        W55482  18.507  24.284   2.388
87265W        W55483  10.042  32.993   2.752
87266W        W55484  37.384  37.962   2.876
87267W        W55485   1.733   4.869  11.301
87268W        W55486  42.395  31.700   0.704
87269W        W55487  24.488   5.681  13.860
87270W        W55488  20.528  19.402  14.376
87271W        W55489   3.956  25.821  13.542
87272W        W55490  25.937   0.310  14.784
87273W        W55491  17.560   0.584   9.892
87274W        W55492   9.093   4.112  14.376
87275W        W55493  35.360  38.814  10.567
87276W        W55494   9.780  18.550   1.201
87277W        W55495   4.043  15.265  14.353
87278W        W55496  43.837   2.388  13.437
87279W        W55497  19.100  18.176   0.785
87280W        W55498  20.250  44.914  11.614
87281W        W55499  27.880   3.674  11.106
87282W        W55500  23.161  22.672   4.070
87283W        W55501  20.267   6.903  11.516
87284W        W55502  28.034  15.727   2.146
87285W        W55503  17.546  26.976   1.738
87286W        W55504  24.515  11.143  12.031
87287W        W55505  13.553   1.670  13.097
87288W        W55506  43.819  43.696  13.523
87289W        W55507   0.635  39.817  13.494
87290W        W55508   3.408   8.655  14.846
87291W        W55509  29.582  36.920   3.281
87292W        W55510  39.379  15.314  11.952
87293W        W55511  17.205  13.972   3.610
87294W        W55512  12.677  23.284  11.974
87295W        W55513  14.631  44.327   4.045
87296W        W55514  18.258  25.079   9.788
87297W        W55515  29.116  40.476   1.481
87298W        W55516  23.703   0.954   4.304
87299W        W55517  42.011  22.090   3.703
87300W        W55518   6.961  17.024   1.375
87301W        W55519  40.408  11.325   3.184
87302W        W55520  29.607  27.425  13.027
87303W        W55521   9.919  11.429   4.890
87304W        W55522  23.082  37.574  11.635
87305W        W55523  10.392  27.751  13.959
87306W        W55524  20.046  39.861  11.491
87307W        W55525   2.964  33.290  12.549
87308W        W55526  43.254  18.795   3.634
87309W        W55527   2.915  44.480  14.846
87310W        W55528   9.955  20.849  11.644
87311W        W55529   6.680  34.121  11.559
87312W        W55530   6.981   0.849   1.259
87313W        W55531  16.251  44.381   1.904
87314W        W55532  33.907  10.559  11.383
87315W        W55533  32.455   6.535   2.432
87316W        W55534  24.185   6.195   2.667
87317W        W55535  13.225  13.235   1.748
87318W        W55536  24.027  25.501  14.398
87319W        W55537  16.769  35.941   0.229
87320W        W55538  41.563   8.646   3.705
87321W        W55539  14.677  32.965   0.795
87322W        W55540   0.947   7.083   3.294
87323W        W55541  37.170  28.899   4.491
87324W        W55542  10.910  41.013   0.504
87325W        W55543  26.291  42.881   2.476
87326W        W55544   3.817  31.672   1.395
87327W        W55545  35.926   7.912  13.428
87328W        W55546   0.815  22.683   4.641
87329W        W55547  37.410  32.341   1.831
87330W        W55548  13.348   3.857  12.458
87331W        W55549  23.059  20.946  12.849
87332W        W55550   2.860   1.223  13.615
87333W        W55551  37.647  24.564  14.537
87334W        W55552  19.538   9.300  14.481
87335W        W55553  18.353   4.162  13.127
87336W        W55554  20.301  20.811   2.307
87337W        W55555  41.248  23.488  13.872
87338W        W55556   0.825   0.720  12.426
87339W        W55557  18.067   1.154   0.940
87340W        W55558  10.637   6.401   1.880
87341W        W55559  15.128  37.255   3.717
87342W        W55560   5.665  23.081   2.886
87343W        W55561  31.880   3.400  13.470
87344W        W55562  39.071   3.665   3.960
87345W        W55563  25.928   0.648  12.538
87346W        W55564   2.714  34.401   4.718
87347W        W55565   7.913  21.624   0.343
87348W        W55566  28.993  24.278   2.449
87349W        W55567  10.149  19.246  11.082
87350W        W55568  39.885  26.751  13.994
87351W        W55569  32.921   9.114   0.955
87352W        W55570  41.907  19.706  12.074
87353W        W55571  35.649  11.275  13.850
87354W        W55572  32.702  19.098   1.412
87355W        W55573  21.075  28.562   4.463
87356W        W55574  24.722   1.854  10.733
87357W        W55575  28.560  22.613   2.770
87358W        W55576   3.202   4.527  12.488
87359W        W55577   4.451  17.665  11.966
87360W        W55578  21.093   3.762  12.058
87361W        W55579   2.408  23.555   2.876
87362W        W55580  15.349  36.134  12.376
87363W        W55581  39.084  40.338  14.366
87364W        W55582   0.496   9.776   4.142
87365W        W55583  36.154  35.525   4.055
87366W        W55584  32.333   6.649   3.966
87367W        W55585  10.469  44.398   5.022
87368W        W55586   3.923   0.148   4.126
87369W        W55587  18.542  37.597  12.437
87370W        W55588  22.176  32.701   1.810
87371W        W55589   5.232  23.850   4.343
87372W        W55590  18.741   4.455  11.130
87373W        W55591   2.793  29.411   2.376
87374W        W55592  19.151   2.803   0.945
87375W        W55593  41.819  20.735   4.360
87376W        W55594  34.521   8.815  13.115
87377W        W55595   4.243  21.505   4.503
87378W        W55596  40.393  31.624   1.344
87379W        W55597  33.041  14.484  10.743
87380W        W55598  39.009  17.152   3.225
87381W        W55599  15.955  31.267  11.107
87382W        W55600  29.648  17.584   4.073
87383W        W55601  28.884   8.654  13.858
87384W        W55602  44.018  35.194  14.370
87385W        W55603   8.649  21.210   3.329
87386W        W55604  26.532  35.568   4.301
87387W        W55605  37.590   1.734   4.140
87388W        W55606  26.329  36.512  12.976
87389W        W55607   9.724  43.556  12.898
87390W        W55608  43.406  31.181  11.246
87391W        W55609  18.136  22.146   0.423
87392W        W55610   8.779  37.398  12.544
87393W        W55611  36.508  33.934  11.439
87394W        W55612  26.430   9.389  11.000
87395W        W55613  38.269  27.961   1.674
87396W        W55614  15.512  17.724   0.388
87397W        W55615  27.963  42.840   0.921
87398W        W55616  43.982  20.743   2.340
87399W        W55617   2.103  14.369  11.984
87400W        W55618  26.693  43.053   1.210
87401W        W55619  43.252  40.083   0.210
87402W        W55620  39.043  39.620  11.489
87403W        W55621   3.353  30.017   1.836
87404W        W55622  24.462  23.995   3.667
87405W        W55623  19.577   8.424   4.045
87406W        W55624  35.428   0.391   1.746
87407W        W55625  11.882  34.145   3.214
87408W        W55626  10.108  42.015  13.453
87409W        W55627  22.092  10.769  10.740
87410W        W55628  12.365   8.100   2.717
87411W        W55629  31.801  28.531  13.526
87412W        W55630  35.594  23.182  13.764
87413W        W55631   1.497   9.455  13.903
87414W        W55632   7.627  10.717  12.043
87415W        W55633  38.416  13.414  11.216
87416W        W55634  12.861   7.102  14.835
87417W        W55635  23.022  10.802   3.204
87418W        W55636  33.343  24.021  10.552
87419W        W55637  13.598  34.132  11.539
87420W        W55638  26.091  20.476   2.718
87421W        W55639  31.023   4.854  13.742
87422W        W55640  41.569  34.473   3.209
87423W        W55641  20.688   9.616  11.933
87424W        W55642  28.213  42.783   0.460
87425W        W55643  32.571  31.207  13.800
87426W        W55644  28.970  33.367  12.603
87427W        W55645   5.313  14.877   1.640
87428W        W55646  18.057  19.690   4.655
87429W        W55647  38.394   6.954  10.889
87430W        W55648  27.626  44.488   1.194
87431W        W55649  32.334   3.235  11.351
87432W        W55650  37.178  43.356   1.272
87433W        W55651  38.547  21.288  13.530
87434W        W55652  22.966   2.947   0.593
87435W        W55653  43.514  11.214  14.008
87436W        W55654   3.531  12.279   4.184
87437W        W55655  17.940  20.820   0.426
87438W        W55656  20.182  28.202  12.953
87439W        W55657  14.301  26.624  14.904
87440W        W55658  40.337  41.060  12.917
87441W        W55659   6.531  29.468  12.096
87442W        W55660  44.260  40.533   0.953
87443W        W55661   0.480   7.849   2.383
87444W        W55662  19.534   8.443   0.854
87445W        W55663  11.365  43.946   4.187
87446W        W55664  28.916   2.036   1.394
87447W        W55665   7.580  41.396   0.482
87448W        W55666  17.216  13.111  14.273
87449W        W55667  26.014   2.574  14.737
87450W        W55668  30.665  34.514  14.043
87451W        W55669  42.760   4.863   4.171
87452W        W55670  42.526  39.418   3.606
87453W        W55671  16.949   4.731   3.264
87454W        W55672  16.051  22.667   0.857
87455W        W55673  29.316  38.820  13.009
87456W        W55674  17.839   3.356   4.597
87457W        W55675  31.982  17.769  10.707
87458W        W55676  30.601  42.184  12.024
87459W        W55677  33.561  10.181   4.196
87460W        W55678  30.399  42.977  13.486
87461W        W55679  34.888  43.745   1.884
87462W        W55680  16.122  13.677  12.063
87463W        W55681   4.434  38.854  11.064
87464W        W55682  30.567  20.285   1.394
87465W        W55683  40.617  24.747   0.856
87466W        W55684  33.933  14.882   4.041
87467W        W55685  18.811   2.346   2.824
87468W        W55686  16.406   7.035  11.640
87469W        W55687  21.329  23.831  13.604
87470W        W55688  19.128   6.643  13.240
87471W        W55689  27.888  33.004  14.928
87472W        W55690  20.111  33.170   0.318
87473W        W55691   9.341  15.597  10.988
87474W        W55692   5.793  15.783   4.350
87475W        W55693  32.625  34.530  12.029
87476W        W55694   6.372  18.298   4.062
87477W        W55695   1.338  18.606  14.975
87478W        W55696   4.904   9.919  11.052
87479W        W55697  24.300   4.784  12.989
87480W        W55698  13.282  23.967   4.951
87481W        W55699  35.131  19.622  13.349
87482W        W55700  25.357  24.334  12.450
87483W        W55701  39.450  32.970   0.813
87484W        W55702   2.914  20.992   3.780
87485W        W55703  32.830   0.499  13.353
87486W        W55704  24.058  43.520  13.461
87487W        W55705  27.088  39.530   0.318
87488W        W55706  21.187  24.660  13.236
87489W        W55707  32.401  26.507  14.937
87490W        W55708  41.998  19.613   3.169
87491W        W55709  43.985  15.289  11.589
87492W        W55710   5.311  13.815   1.920
87493W        W55711  24.422  42.618   2.252
87494W        W55712   2.010  38.847   0.403
87495W        W55713  21.198  21.979  13.407
87496W        W55714  30.508   9.106   4.686
87497W        W55715   0.715   9.925   2.899
87498W        W55716  40.378  11.288  12.351
87499W        W55717  24.189  26.965   3.750
87500W        W55718  23.748  23.118   0.949
87501W        W55719  13.122  17.445   2.790
87502W        W55720   8.380  44.347  11.355
87503W        W55721   3.634  15.058   0.332
87504W        W55722  25.786   0.943  12.089
87505W        W55723   9.100  43.749  12.407
87506W        W55724   4.971  13.105  14.501
87507W        W55725   1.913   0.780  11.918
87508W        W55726  37.881  34.896   2.631
87509W        W55727  27.436  35.453   2.619
87510W        W55728  39.678  12.823  14.222
87511W        W55729  33.966  10.202   3.666
87512W        W55730   1.294   4.967  11.571
87513W        W55731  39.443  39.959  11.367
87514W        W55732  38.926  16.177   0.323
87515W        W55733   4.480   2.792  11.908
87516W        W55734  34.159  10.052   2.219
87517W        W55735  38.381  41.531  13.478
87518W        W55736  13.498  37.246   0.549
87519W        W55737   3.162  20.649   4.101
87520W        W55738  40.072   2.458   2.627
87521W        W55739  25.109  22.509  11.137
87522W        W55740  42.063  14.134  10.402
87523W        W55741  16.199   2.470   4.104
87524W        W55742   9.866  20.324   3.217
87525W        W55743  35.516   3.456   5.406
87526W        W55744  27.485  35.778  12.650
87527W        W55745  28.550   3.469  12.840
87528W        W55746   0.339  24.860   4.039
87529W        W55747  20.385  16.996   0.929
87530W        W55748   6.731  27.692  14.602
87531W        W55749  16.349  35.366   2.419
87532W        W55750  36.410  12.924  13.379
87533W        W55751  16.309  34.031   2.722
87534W        W55752  44.779  20.615   1.907
87535W        W55753  18.506  24.139  11.950
87536W        W55754   0.399  13.359   0.600
87537W        W55755  43.835  35.875  14.921
87538W        W55756  37.434  21.249   3.149
87539W        W55757   7.529  42.282   9.883
87540W        W55758   6.941  21.178   2.685
87541W        W55759   7.303   8.972   0.274
87542W        W55760  21.705  36.684  14.662
87543W        W55761  14.293   2.887  12.023
87544W        W55762   1.992  12.223   1.536
87545W        W55763   7.754   0.997   0.794
87546W        W55764  34.629  30.506   3.213
87547W        W55765  22.077   9.674   3.680
87548W        W55766   4.834   9.117   2.135
87549W        W55767  20.971  14.684   4.635
87550W        W55768  44.255  44.769   0.024
87551W        W55769  41.828  24.496  14.775
87552W        W55770  17.593  13.921   2.359
87553W        W55771  14.701  35.650   1.773
87554W        W55772  39.073  16.568  12.399
87555W        W55773  37.498   6.413   4.515
87556W        W55774  43.455  42.737   3.721
87557W        W55775   5.231  29.975   3.706
87558W        W55776  22.250   6.364   0.280
87559W        W55777  41.592  36.468   1.277
87560W        W55778  26.053  32.084  11.017
87561W        W55779   9.588   0.396  13.137
87562W        W55780  11.575  10.299  10.936
87563W        W55781  42.906  42.957  12.057
87564W        W55782  20.255  33.403   0.761
87565W        W55783  37.855  17.142   2.705
87566W        W55784   8.679  43.740  13.033
87567W        W55785   6.065  33.009   4.147
87568W        W55786  26.671  23.980   2.294
87569W        W55787  42.215  25.227   0.957
87570W        W55788   2.811  31.629  14.876
87571W        W55789  26.036  34.628   1.825
87572W        W55790  39.278  14.246  12.848
87573W        W55791  32.056  22.297   2.262
87574W        W55792  19.707  10.838  11.402
87575W        W55793  30.672  30.657   4.872
87576W        W55794  14.876  16.641   3.237
87577W        W55795  29.310  21.736  11.941
87578W        W55796   9.568  40.715  11.142
87579W        W55797  38.752  20.481  12.609
87580W        W55798   4.419  35.600   2.830
87581W        W55799  19.494  43.472   0.888
87582W        W55800  36.462  21.983   4.705
87583W        W55801  26.703  21.645  13.334
87584W        W55802   7.247  28.524  11.180
87585W        W55803  17.178  38.136  13.992
87586W        W55804  43.926  19.658   2.867
87587W        W55805   5.692  29.944   2.440
87588W        W55806  25.538  30.830   2.758
87589W        W55807  39.870  36.072   0.206
87590W        W55808  35.805  11.820  10.693
87591W        W55809  38.248  25.730  13.495
87592W        W55810  32.520   3.637  12.865
87593W        W55811  35.088   0.278   3.509
87594W        W55812   4.794  25.536   2.747
87595W        W55813   6.794  22.438  10.831
87596W        W55814   1.910  11.533  14.528
87597W        W55815  40.734  22.200   3.381
87598W        W55816  28.652   3.492   3.516
87599W        W55817   7.362   6.687  13.800
87600W        W55818  20.825  35.476  12.569
87601W        W55819   4.356  21.865   0.147
87602W        W55820  24.701   1.895   4.716
87603W        W55821  31.215  34.032  10.748
87604W        W55822  32.374   6.675  10.289
87605W        W55823  26.492   0.834   1.337
87606W        W55824   5.943  41.011  14.538
87607W        W55825   8.855  39.896  10.151
87608W        W55826  14.687  43.545  14.013
87609W        W55827  32.878  25.713  13.887
87610W        W55828   7.324  13.684   0.759
87611W        W55829  15.052  17.932   4.501
87612W        W55830  20.620   2.500  14.698
87613W        W55831  38.552  17.363   3.366
87614W        W55832   4.636  12.627  12.561
87615W        W55833  13.835  15.040  14.512
87616W        W55834  20.710  11.167  12.150
87617W        W55835   6.749   4.163   0.422
87618W        W55836  25.066   2.288   4.530
87619W        W55837  39.103  34.830  12.598
87620W        W55838  30.037   0.783  13.935
87621W        W55839  37.568  37.433  11.395
87622W        W55840  12.192  27.912   4.882
87623W        W55841  42.745  21.481   1.644
87624W        W55842   2.980  11.335  14.634
87625W        W55843  37.530  44.386   3.816
87626W        W55844  33.452   2.767  14.251
87627W        W55845  43.818  21.146  12.051
87628W        W55846  15.985  32.859  13.012
87629W        W55847  11.355   5.733  11.638
87630W        W55848  41.544  28.536  13.962
87631W        W55849  18.036  12.271  10.726
87632W        W55850   3.880   9.329   1.915
87633W        W55851  25.576  26.890  11.233
87634W        W55852   6.137  11.979   1.315
87635W        W55853  44.700  34.180   0.414
87636W        W55854  43.962   0.779   3.297
87637W        W55855  29.768  35.944  10.376
87638W        W55856  36.908   2.852   2.378
87639W        W55857  44.240   2.174  14.876
87640W        W55858   9.194  38.388   4.587
87641W        W55859  32.929  20.870  10.643
87642W        W55860  44.281  27.821   1.838
87643W        W55861  19.773   7.404  12.041
87644W        W55862  13.776   7.914  11.889
87645W        W55863  23.646  33.816   5.029
87646W        W55864  43.478  15.208  13.572
87647W        W55865   9.495   6.664   1.330
87648W        W55866  37.626  21.005   0.916
87649W        W55867   8.661  28.620   1.303
87650W        W55868   9.394  14.043  14.353
87651W        W55869  41.726  11.279  13.345
87652W        W55870  17.270  11.226   0.807
87653W        W55871  30.440  42.288   3.580
87654W        W55872  24.532  44.276  10.680
87655W        W55873  31.944   4.814   1.482
87656W        W55874  21.777  28.626  14.336
87657W        W55875  26.677  24.629   3.377
87658W        W55876  39.995  41.620   4.501
87659W        W55877  11.219   4.772   3.574
87660W        W55878  18.244   0.249  11.755
87661W        W55879  20.942  17.056  12.624
87662W        W55880  33.585   9.158  12.971
87663W        W55881  22.012  19.173   3.744
87664W        W55882  42.261   2.887   1.556
87665W        W55883  30.822   3.216  12.550
87666W        W55884  41.170  24.198   5.256
87667W        W55885  21.230  40.917  10.701
87668W        W55886  21.689  39.830  13.489
87669W        W55887  15.621   8.446   4.073
87670W        W55888  20.098  34.643   3.265
87671W        W55889  14.765  29.385  14.683
87672W        W55890   3.086  39.903   0.457
87673W        W55891  43.330   8.255   4.652
87674W        W55892  42.905  14.597  11.999
87675W        W55893  10.859  17.699  13.041
87676W        W55894  32.687  44.266   3.636
87677W        W55895  27.526  20.291   0.960
87678W        W55896  18.553  41.337  11.617
87679W        W55897   5.690   0.918  13.562
87680W        W55898  15.285  14.398   3.241
87681W        W55899  31.446  22.253   2.756
87682W        W55900  36.798   7.947   3.711
87683W        W55901   6.159  13.597  10.686
87684W        W55902  16.660   9.619  13.000
87685W        W55903   7.414  40.507  11.392
87686W        W55904  28.091   9.141  13.976
87687W        W55905   2.723  10.932  12.359
87688W        W55906   1.679  25.634   0.868
87689W        W55907  11.874  24.090   2.920
87690W        W55908  38.095  20.609  11.770
87691W        W55909  34.355   9.278  13.413
87692W        W55910   6.436  33.206   1.465
87693W        W55911  26.346  37.992   1.643
87694W        W55912  40.925  21.959  10.793
87695W        W55913   6.898   5.178   1.222
87696W        W55914   6.889   2.019  13.757
87697W        W55915   2.901  33.778  12.633
87698W        W55916  11.901   4.920  13.225
87699W        W55917  22.517  27.465   0.148
87700W        W55918  12.761  13.698   3.532
87701W        W55919  41.584   1.357  14.329
87702W        W55920  31.637  24.998   3.302
87703W        W55921   1.909  24.542   1.321
87704W        W55922  36.849   3.133  12.771
87705W        W55923  24.668  29.353  13.794
87706W        W55924   3.514  15.082   1.772
87707W        W55925  36.429  42.742  14.286
87708W        W55926  33.377  15.136  11.140
87709W        W55927  11.349  20.507   1.538
87710W        W55928  28.588  43.176  14.933
87711W        W55929  40.344  10.670  13.187
87712W        W55930  15.595  25.046  12.578
87713W        W55931  25.019  42.684   4.191
87714W        W55932  29.080  10.784   3.731
87715W        W55933  39.410  42.982   0.386
87716W        W55934  27.534  43.537  13.131
87717W        W55935   2.590  18.794  13.416
87718W        W55936  14.281  38.510  10.788
87719W        W55937  28.088  39.308   2.811
87720W        W55938  25.238  38.308   4.106
87721W        W55939  35.027  39.664  11.825
87722W        W55940  40.130  36.918   2.927
87723W        W55941  25.195  15.339   1.731
87724W        W55942  23.183  14.964  11.869
87725W        W55943   4.869   7.344   3.546
87726W        W55944  16.820  32.500   2.300
87727W        W55945  22.047   2.229  11.576
87728W        W55946  26.481  17.246  10.707
87729W        W55947  35.312   5.832  13.223
87730W        W55948  30.822  22.099   4.301
87731W        W55949  38.561  12.681  11.961
87732W        W55950  42.954  38.990   5.232
87733W        W55951   7.410  31.867  13.493
87734W        W55952  39.423  42.535   0.688
87735W        W55953  32.867   6.190   1.593
87736W        W55954  35.783  28.672  14.476
87737W        W55955  43.880  23.964  13.777
87738W        W55956  12.313  38.204  11.467
87739W        W55957  17.848  22.025   2.374
87740W        W55958  19.616  27.039  14.336
87741W        W55959  27.513  37.971  11.659
87742W        W55960   3.263  40.014   1.842
87743W        W55961  22.341   2.789   0.021
87744W        W55962  27.038  11.381  13.046
87745W        W55963  41.980  38.313   1.781
87746W        W55964  18.210  16.330   0.346
87747W        W55965  22.654  42.488   2.643
87748W        W55966  11.957  19.072   1.766
87749W        W55967  19.174  39.244  13.917
87750W        W55968  23.995  28.463   1.833
87751W        W55969  14.762  32.139  13.543
87752W        W55970   4.859  22.150  11.894
87753W        W55971  39.232  38.887   5.123
87754W        W55972  26.945   8.924   4.545
87755W        W55973  10.678  24.610  12.899
87756W        W55974  39.847  22.256  13.750
87757W        W55975  38.819  36.442   2.724
87758W        W55976  42.562  23.641  14.358
87759W        W55977  23.650  31.436  11.095
87760W        W55978  16.796  32.597   3.266
87761W        W55979  12.589  15.854   2.203
87762W        W55980  13.139   6.860   1.213
87763W        W55981  30.087  17.292   1.311
87764W        W55982  13.440  37.114  14.991
87765W        W55983   5.710  25.521   4.222
87766W        W55984  13.781  39.043  13.957
87767W        W55985   3.748  36.414  13.412
87768W        W55986  38.371  41.717   3.208
87769W        W55987  14.319  25.482   2.333
87770W        W55988  20.911  10.162   2.764
87771W        W55989  39.349  16.046   3.632
87772W        W55990  24.279  30.402  11.261
87773W        W55991  42.433   7.087  12.461
87774W        W55992  22.572  22.260   1.118
87775W        W55993  39.118   4.104  11.722
87776W        W55994   2.483  33.751  13.581
87777W        W55995  23.495  21.367   1.405
87778W        W55996   1.480  34.506   1.384
87779W        W55997  23.254  34.516  13.325
87780W        W55998  25.158  33.318   1.403
87781W        W55999  41.235  16.124   1.304
87782W        W56000  11.415   5.332  12.173
87783W        W56001  32.061  37.608  14.386
87784W        W56002  36.866  34.680   0.376
87785W        W56003  17.061  25.040   2.759
87786W        W56004   2.298  19.815   3.439
87787W        W56005  25.520  17.742   4.816
87788W        W56006  10.564  24.094   0.755
87789W        W56007  14.332  13.593  12.793
87790W        W56008  37.560  24.499  11.006
87791W        W56009  35.976   3.048  12.138
87792W        W56010   1.010  16.002   1.646
87793W        W56011   2.761   7.131  10.826
87794W        W56012  21.621  44.617   4.611
87795W        W56013  15.731  29.750   4.791
87796W        W56014  10.366  26.968  14.912
87797W        W56015  14.370  21.548   4.585
87798W        W56016   6.380  36.490  11.910
87799W        W56017   8.088   1.469   0.674
87800W        W56018   1.760   8.802  13.522
87801W        W56019  43.747  33.156   3.854
87802W        W56020  21.161  16.658   2.334
87803W        W56021  27.657  26.681  10.770
87804W        W56022   2.034  26.001   2.681
87805W        W56023  12.096  24.179  13.440
87806W        W56024  24.480  26.757   2.518
87807W        W56025  39.790  41.679   4.014
87808W        W56026   2.419   0.478   2.419
87809W        W56027  40.797  34.328  13.943
87810W        W56028   1.520  15.586   3.155
87811W        W56029  44.731   0.697   4.950
87812W        W56030  43.777  40.002  13.518
87813W        W56031  40.677   6.811   4.490
87814W        W56032   0.946  38.764  10.687
87815W        W56033  22.062  14.757   0.461
87816W        W56034   6.261  35.662  10.778
87817W        W56035  16.655  20.755   5.033
87818W        W56036  33.487  22.970  14.864
87819W        W56037   4.497  38.348  13.895
87820W        W56038  19.757  15.794   2.835
87821W        W56039  28.155  27.476  12.052
87822W        W56040  38.447   1.807  11.418
87823W        W56041  16.246  12.233  14.815
87824W        W56042  38.375  44.329   1.466
87825W        W56043  34.008  14.539  12.892
87826W        W56044   5.840   2.409  12.463
87827W        W56045  19.671  24.976   4.766
87828W        W56046  42.510  16.081  13.126
87829W        W56047  14.759   1.777  14.389
87830W        W56048  29.852  36.998   0.909
87831W        W56049  24.518  28.573   3.761
87832W        W56050  27.943  33.125  10.667
87833W        W56051  44.561  27.535   1.468
87834W        W56052  10.261   8.715  11.625
87835W        W56053  16.857   5.148   0.228
87836W        W56054  24.057  18.231   0.956
87837W        W56055   4.381  33.009  12.914
87838W        W56056  14.212  25.051   0.574
87839W        W56057  33.827  18.339  11.148
87840W        W56058  43.012  26.204   4.539
87841W        W56059   7.425  11.964  12.892
87842W        W56060  14.640  11.295  14.432
87843W        W56061  34.013   0.459  14.596
87844W        W56062  13.413  29.747   2.745
87845W        W56063  38.403  42.463   3.813
87846W        W56064   6.453  43.605  10.885
87847W        W56065   3.201  25.311  12.084
87848W        W56066  28.798   6.144   0.889
87849W        W56067  38.469  42.994   2.659
87850W        W56068   8.440   0.608  13.760
87851W        W56069   0.747   9.322   4.296
87852W        W56070  36.140  28.548  12.126
87853W        W56071   9.271  32.312   2.223
87854W        W56072  14.216   4.421   1.767
87855W        W56073  15.592  10.919   0.831
87856W        W56074  34.618   1.419  13.760
87857W        W56075   8.278  29.289  12.803
87858W        W56076  18.814  19.135   2.020
87859W        W56077  23.498   3.343   2.805
87860W        W56078  35.627  22.762  12.517
87861W        W56079  12.253  43.396  11.917
87862W        W56080  17.875  28.760   4.208
87863W        W56081  43.363  33.806   2.356
87864W        W56082   6.647  31.566  11.481
87865W        W56083  29.926   7.603  13.904
87866W        W56084  11.870  21.363   4.246
87867W        W56085  25.128  31.816   2.427
87868W        W56086  35.097  17.780   4.853
87869W        W56087  20.084  23.660  10.748
87870W        W56088  29.060  20.103   1.004
87871W        W56089  35.923  14.796   3.689
87872W        W56090  26.258  40.469   1.780
87873W        W56091  31.430   4.118   4.457
87874W        W56092   5.098  25.789  14.328
87875W        W56093  36.315  29.889   2.280
87876W        W56094  16.044  26.623   4.919
87877W        W56095  26.023  24.138  14.919
87878W        W56096  16.314  19.130  12.794
87879W        W56097  34.655  35.793   3.247
87880W        W56098  28.950  35.914   4.075
87881W        W56099  13.336  39.505  14.870
87882W        W56100  23.155  37.599   1.162
87883W        W56101  37.523   8.493  11.159
87884W        W56102  14.645  25.098   2.772
87885W        W56103  40.945  43.457  11.545
87886W        W56104  36.978   5.226   3.386
87887W        W56105  37.579  37.876  13.229
87888W        W56106   7.723   0.954   2.225
87889W        W56107  15.165  24.467  12.100
87890W        W56108   8.307  21.047   0.744
87891W        W56109  17.034  30.398   0.049
87892W        W56110   4.862  15.749   2.161
87893W        W56111  31.535  37.497   3.759
87894W        W56112  36.963  17.848  13.715
87895W        W56113  32.412  25.142   1.226
87896W        W56114   0.029  20.899   2.282
87897W        W56115  14.440  42.033   3.706
87898W        W56116  38.026  29.078  12.542
87899W        W56117  25.824   8.051   3.796
87900W        W56118  21.529  42.622  11.449
87901W        W56119   8.457   7.642   1.265
87902W        W56120  22.994  30.130   2.588
87903W        W56121  39.881  26.139   4.273
87904W        W56122  12.886   5.412  10.551
87905W        W56123  25.666  19.170  11.950
87906W        W56124   8.082  12.647   1.532
87907W        W56125   4.237  27.864   3.802
87908W        W56126   5.495  43.687  11.238
87909W        W56127  32.668  22.607  10.482
87910W        W56128  27.856  11.469  13.962
87911W        W56129   3.013  32.539   2.403
87912W        W56130   1.735  15.137  10.641
87913W        W56131  29.617  40.604  14.522
87914W        W56132  25.179   1.903   4.933
87915W        W56133  22.199   0.279  10.741
87916W        W56134  13.514  23.093  13.289
87917W        W56135   5.595  42.998   5.114
87918W        W56136  38.363  18.747   2.304
87919W        W56137  14.763  33.675  10.370
87920W        W56138  17.107  16.713  12.880
87921W        W56139  18.983   7.749  10.433
87922W        W56140  24.896  41.819   3.568
87923W        W56141  32.124  27.690   2.320
87924W        W56142  30.910  24.232   3.646
87925W        W56143  33.507   8.194   1.402
87926W        W56144  19.082  43.752   0.769
87927W        W56145  34.125  29.496   0.465
87928W        W56146  14.218  23.170   3.662
87929W        W56147   9.885   2.918  11.091
87930W        W56148   3.748  19.529   2.771
87931W        W56149  27.860  37.794   2.760
87932W        W56150   9.468  41.119   0.722
87933W        W56151   3.721  19.757   4.100
87934W        W56152  43.746  26.863   0.194
87935W        W56153  14.678  21.327   2.214
87936W        W56154  34.611   9.463   2.008
87937W        W56155  36.959   1.408  12.908
87938W        W56156  36.637  27.535   2.113
87939W        W56157  27.930  36.491   3.292
87940W        W56158  44.048  39.866   2.641
87941W        W56159  32.961   5.323  11.110
87942W        W56160   1.402  13.787  12.363
87943W        W56161   3.780   8.643   0.558
87944W        W56162   0.003  34.505   1.276
87945W        W56163  37.597  32.439   2.321
87946W        W56164  37.786   7.216  12.358
87947W        W56165  11.380  30.011   3.534
87948W        W56166  23.616  20.103  11.915
87949W        W56167  36.058  39.103   3.722
87950W        W56168  27.740  12.839   0.023
87951W        W56169  13.094   4.723   2.356
87952W        W56170   0.069   6.436   1.111
87953W        W56171  31.173  14.585  13.528
87954W        W56172  18.944  40.892  13.751
87955W        W56173   4.041  21.634  14.753
87956W        W56174  38.769  10.687   0.420
87957W        W56175  20.738   6.406   0.885
87958W        W56176  10.653  18.327   3.580
87959W        W56177  17.532  21.947  12.003
87960W        W56178  23.061  40.563  11.612
87961W        W56179   0.226   9.363  12.019
87962W        W56180  24.471  43.896  11.237
87963W        W56181   3.966  33.585  12.557
87964W        W56182  37.704   8.137  11.540
87965W        W56183   7.178  39.674   1.818
87966W        W56184  32.551  16.219   1.281
87967W        W56185   4.429  11.396  11.892
87968W        W56186  13.334  31.938   0.437
87969W        W56187   9.288  12.376  14.070
87970W        W56188  31.682  44.679  11.531
87971W        W56189  18.541  23.264   2.219
87972W        W56190  14.855   2.971  10.249
87973W        W56191  14.065  29.079   2.244
87974W        W56192  13.661  37.036  13.358
87975W        W56193  25.179  38.509  14.967
87976W        W56194  24.571   0.784  14.005
87977W        W56195  39.090  24.420  11.319
87978W        W56196  36.608  27.151  13.897
87979W        W56197  38.411  39.345   2.771
87980W        W56198  29.197  28.979  10.697
87981W        W56199  32.440  22.091   1.024
87982W        W56200   7.306  35.564   4.861
87983W        W56201  40.324   3.373   4.907
87984W        W56202  43.909  21.592  12.359
87985W        W56203  26.767  34.638   4.071
87986W        W56204  20.917  33.091  13.516
87987W        W56205  40.792  24.311  14.056
87988W        W56206   7.661  18.315  13.263
87989W        W56207  24.514  22.101   3.286
87990W        W56208  33.196  24.300   3.109
87991W        W56209  42.112  29.946   1.718
87992W        W56210  34.519  44.090  10.977
87993W        W56211  14.050  16.778  13.898
87994W        W56212  44.214   8.843  12.487
87995W        W56213  26.553  21.572  11.473
87996W        W56214  32.845  10.345  13.420
87997W        W56215  35.127  18.999  14.542
87998W        W56216  28.985  41.319  11.696
87999W        W56217  28.140  26.218  10.639
88000W        W56218  22.594  14.696   1.252
88001W        W56219  30.720   6.921   1.832
88002W        W56220   7.563  43.239   0.866
88003W        W56221  32.962  41.112   3.535
88004W        W56222  26.126  13.217  14.379
88005W        W56223  15.607   8.811   0.809
88006W        W56224  42.828  38.775  11.168
88007W        W56225  42.414  15.585   3.278
88008W        W56226   9.669  43.038   0.043
88009W        W56227   9.509  17.316   0.451
88010W        W56228   4.740  24.722  12.448
88011W        W56229   3.187   6.167   0.240
88012W        W56230  15.500   1.267  14.349
88013W        W56231  28.386   5.349   3.626
88014W        W56232  23.679  13.626   0.468
88015W        W56233  38.018  16.777   3.933
88016W        W56234  11.133  14.882  10.615
88017W        W56235   5.856  12.324   4.578
88018W        W56236  34.575   8.135   3.111
88019W        W56237  11.905  21.233   3.748
88020W        W56238  37.887  41.033   1.408
88021W        W56239  22.859   9.891  11.995
88022W        W56240   8.323  35.849   1.879
88023W        W56241  38.269  24.213  14.842
88024W        W56242   9.272  10.933   2.256
88025W        W56243  12.496  22.093  11.376
88026W        W56244   7.132  20.284   2.464
88027W        W56245  29.591  43.454  13.070
88028W        W56246   7.260  16.547  12.136
88029W        W56247  20.206  17.535   1.041
88030W        W56248  37.908  29.907  11.320
88031W        W56249  13.635  35.286   4.540
88032W        W56250  28.274  33.254   1.227
88033W        W56251  20.780  14.116   9.497
88034W        W56252  33.945  33.829   0.464
88035W        W56253  28.772  25.481   0.407
88036W        W56254   7.277  19.601   3.240
88037W        W56255  43.009  16.255  10.676
88038W        W56256  29.551  40.675  11.286
88039W        W56257   8.653   0.686   0.457
88040W        W56258  30.548   1.013   3.685
88041W        W56259  18.658  22.949   1.819
88042W        W56260  28.029  38.368  12.913
88043W        W56261  32.496  38.570  10.586
88044W        W56262  20.128  36.155  10.552
88045W        W56263  37.873  33.619   2.193
88046W        W56264  30.110  11.564   3.688
88047W        W56265  20.616  43.081   0.901
88048W        W56266  28.568   5.033  12.412
88049W        W56267  30.970  12.436  12.418
88050W        W56268  42.006  18.171   3.226
88051W        W56269  34.791  17.893   1.633
88052W        W56270  11.633  26.969   2.858
88053W        W56271  37.926   2.285   2.162
88054W        W56272  40.299  22.779  14.847
88055W        W56273  23.611  41.451  11.892
88056W        W56274  39.948  21.570  11.041
88057W        W56275  12.559  34.212   0.207
88058W        W56276  25.622  12.760   2.502
88059W        W56277  12.765   7.704  13.503
88060W        W56278  25.622  19.787  10.663
88061W        W56279  28.418   7.319  12.996
88062W        W56280  13.161  43.603  13.815
88063W        W56281  11.584  31.097   2.644
88064W        W56282  23.391   2.184   0.885
88065W        W56283   9.729   1.222  11.712
88066W        W56284  13.137  43.730   3.235
88067W        W56285  17.092  36.354  11.970
88068W        W56286  25.477  16.702   2.433
88069W        W56287  31.897  31.010  14.403
88070W        W56288  21.461  40.368   0.769
88071W        W56289   2.705  16.346  12.098
88072W        W56290  25.536  15.583   0.846
88073W        W56291   0.440  24.645   2.432
88074W        W56292  19.060  24.770   1.808
88075W        W56293  15.575   0.847   0.472
88076W        W56294  12.198  20.327  14.931
88077W        W56295  25.730  14.310   3.551
88078W        W56296  33.487  10.986   3.745
88079W        W56297   2.359  43.126  12.123
88080W        W56298  27.921  16.019   3.162
88081W        W56299  43.882  28.868  10.731
88082W        W56300  28.706  12.196   2.762
88083W        W56301  11.717  17.679  10.986
88084W        W56302   6.694  33.407   0.684
88085W        W56303   1.108  13.731  11.508
88086W        W56304  33.524   8.194   2.318
88087W        W56305   0.909  32.177   1.407
88088W        W56306  23.786  14.789   1.715
88089W        W56307  26.189  44.826  12.949
88090W        W56308  24.274  36.487   4.206
88091W        W56309  33.365  16.135  13.581
88092W        W56310  44.448  22.272   4.098
88093W        W56311  15.226  31.672  12.578
88094W        W56312  24.948  43.908   3.707
88095W        W56313  21.910  10.100  12.347
88096W        W56314   8.349   5.684  14.361
88097W        W56315  29.141  39.354   1.937
88098W        W56316   0.387  43.466   4.647
88099W        W56317  43.406  28.571  11.683
88100W        W56318   3.421  30.501  13.378
88101W        W56319   6.211   8.907   2.262
88102W        W56320  31.905  38.912   1.822
88103W        W56321  44.291   1.980   1.785
88104W        W56322  41.765  43.812  10.417
88105W        W56323  42.695  24.081  13.036
88106W        W56324   8.892  19.271   4.089
88107W        W56325  27.227   9.827   2.248
88108W        W56326  39.140  11.839  10.838
88109W        W56327   7.442  11.115   2.366
88110W        W56328  23.492  26.244   2.694
88111W        W56329   0.092  16.967  11.114
88112W        W56330   9.753  18.618  14.224
88113W        W56331  13.697  27.166   2.312
88114W        W56332  40.184  31.871  12.964
88115W        W56333  18.463   0.457  13.694
88116W        W56334  39.552  19.623   4.198
88117W        W56335  35.512   4.237   1.484
88118W        W56336   7.315   6.975  12.455
88119W        W56337   2.777  42.728   4.229
88120W        W56338   0.417   1.234  11.324
88121W        W56339  36.359   5.714  10.909
88122W        W56340  17.492  14.658  13.930
88123W        W56341   0.780  16.332  13.456
88124W        W56342  31.086  36.288  11.200
88125W        W56343  18.789  10.859   3.514
88126W        W56344   6.709  21.219  13.518
88127W        W56345   1.225   4.454   4.025
88128W        W56346  12.889  14.392  14.610
88129W        W56347  41.179   8.876   1.216
88130W        W56348  44.488  11.025  11.173
88131W        W56349  15.419  44.728   0.353
88132W        W56350  15.337  26.014   0.398
88133W        W56351   5.658   5.325   1.894
88134W        W56352  40.234  23.781   3.668
88135W        W56353  23.598  32.518  10.944
88136W        W56354  34.142  22.500  12.361
88137W        W56355  16.175  41.223   4.428
88138W        W56356  33.633  13.574   2.122
88139W        W56357   8.304   2.416   3.207
88140W        W56358  32.977   8.515  14.369
88141W        W56359  15.223  38.485   3.318
88142W        W56360  10.473   5.807  13.319
88143W        W56361  18.956   2.535   2.368
88144W        W56362   6.865  12.606   1.438
88145W        W56363  24.045  41.096  11.990
88146W        W56364   7.199  10.712   0.934
88147W        W56365  10.808  11.662  10.692
88148W        W56366  18.225  36.355   4.527
88149W        W56367  13.589  36.403  14.618
88150W        W56368  34.435  39.845   3.615
88151W        W56369  34.956  24.289   0.318
88152W        W56370  39.859  14.488   2.906
88153W        W56371  35.824  24.098   2.585
88154W        W56372  38.877  12.512   4.487
88155W        W56373  32.863  11.105   2.289
88156W        W56374  24.800   3.348  13.430
88157W        W56375  17.828  42.887  11.416
88158W        W56376  43.862  29.647   4.486
88159W        W56377  30.267   1.561  13.821
88160W        W56378  24.692  20.190   3.612
88161W        W56379   5.384  20.116  11.525
88162W        W56380  43.738  15.719  13.760
88163W        W56381  41.855  26.055   0.870
88164W        W56382  36.949  31.673   2.179
88165W        W56383  11.217  28.539  13.369
88166W        W56384  18.722  35.096  10.642
88167W        W56385   2.473  14.345  10.996
88168W        W56386   8.853  20.237   9.764
88169W        W56387   5.423  11.560   2.789
88170W        W56388   8.718   7.685   0.808
88171W        W56389  40.469  33.475  10.575
88172W        W56390  30.680   6.265  13.886
88173W        W56391   7.311  35.386   1.142
88174W        W56392  21.549  20.658   0.507
88175W        W56393  30.273   7.070   0.045
88176W        W56394  18.423  35.582   1.704
88177W        W56395  23.061  30.657  14.999
88178W        W56396  18.151   4.425  14.351
88179W        W56397  44.841  22.498   1.727
88180W        W56398   2.805  13.976  14.470
88181W        W56399   7.149  36.880   3.983
88182W        W56400  32.680   4.152  11.624
88183W        W56401  13.650  10.602  12.421
88184W        W56402  34.364  13.743   2.791
88185W        W56403  25.545  17.384   0.677
88186W        W56404  25.197  10.091  13.997
88187W        W56405   1.978  43.721  14.378
88188W        W56406  21.656  35.632  13.890
88189W        W56407  35.228  33.892   1.455
88190W        W56408   3.654  17.188  14.808
88191W        W56409   5.796  37.615   3.109
88192W        W56410  42.462  10.257  10.969
88193W        W56411  38.615  17.304   4.749
88194W        W56412  13.842   9.216   0.537
88195W        W56413   2.010  27.643   2.423
88196W        W56414  14.291  13.218   2.796
88197W        W56415  37.647  20.989   4.566
88198W        W56416  44.513   5.371   3.084
88199W        W56417  10.695  35.038   1.989
88200W        W56418  32.474   5.635  10.220
88201W        W56419  19.489  25.243   1.961
88202W        W56420  28.898  29.896   0.399
88203W        W56421   6.711  37.945  13.918
88204W        W56422  10.133  20.970   0.257
88205W        W56423  12.958  38.251  13.019
88206W        W56424  17.350  16.896  11.128
88207W        W56425  21.677   2.976  10.746
88208W        W56426   6.148  17.631  10.609
88209W        W56427  39.395  17.256   2.852
88210W        W56428  36.436  36.615  12.397
88211W        W56429   3.794  22.048  10.598
88212W        W56430  42.285  22.230  11.126
88213W        W56431  27.010  22.010  10.126
88214W        W56432   7.866  19.673   2.343
88215W        W56433  36.813  11.257   0.411
88216W        W56434  17.334  35.590  13.823
88217W        W56435   6.174  17.296  11.008
88218W        W56436   7.366  28.296   0.789
88219W        W56437  19.040  15.833  11.433
88220W        W56438  14.177  18.227   4.162
88221W        W56439  11.116   0.407   1.519
88222W        W56440  36.360  42.233   3.177
88223W        W56441  21.080  13.705  12.460
88224W        W56442  14.959   5.760  12.820
88225W        W56443  37.468  11.581   0.851
88226W        W56444  39.294   1.358   1.942
88227W        W56445  19.588   2.570  10.718
88228W        W56446  36.808   0.936   3.596
88229W        W56447  33.185   4.250  11.639
88230W        W56448  41.035   2.622  14.077
88231W        W56449  20.816  21.417  11.265
88232W        W56450   7.376  14.557  14.409
88233W        W56451   8.340  24.422   2.519
88234W        W56452   1.231  40.863   3.553
88235W        W56453  42.538  17.713  12.377
88236W        W56454  39.040  39.080  14.903
88237W        W56455  12.067  25.205   3.402
88238W        W56456  43.672  43.404   2.912
88239W        W56457  33.514  44.699   0.649
88240W        W56458  36.921   1.009   3.097
88241W        W56459   8.719   1.022   0.084
88242W        W56460  25.883   8.007   1.633
88243W        W56461  39.012  29.964   4.432
88244W        W56462  37.004  18.018   4.403
88245W        W56463  37.608  39.317  13.367
88246W        W56464  39.222  11.961  13.367
88247W        W56465   1.390  24.868   1.475
88248W        W56466  19.614   4.352  13.448
88249W        W56467   0.733   6.704   2.446
88250W        W56468  12.587  32.653   2.666
88251W        W56469   2.185   2.283  11.134
88252W        W56470   5.585   0.704   9.935
88253W        W56471   8.218  30.528  10.413
88254W        W56472  17.333  43.407  12.630
88255W        W56473  32.273  15.278  11.654
88256W        W56474  19.619  27.473   2.744
88257W        W56475  39.998  34.007   0.433
88258W        W56476  14.309   2.940  14.998
88259W        W56477  27.000   5.752  12.708
88260W        W56478  38.181  21.158   0.885
88261W        W56479   3.382  39.542  12.955
88262W        W56480  39.381  12.169  13.793
88263W        W56481   1.414  22.132   2.728
88264W        W56482  36.274  38.629  11.048
88265W        W56483   5.843   4.288  11.668
88266W        W56484  18.145  10.116   3.557
88267W        W56485   0.576  42.491   3.624
88268W        W56486   7.524   3.182   4.172
88269W        W56487  38.406  20.616  10.912
88270W        W56488  39.397   6.257   0.762
88271W        W56489   9.850  19.120   1.902
88272W        W56490  25.008  13.498   2.283
88273W        W56491  43.709  21.452   3.041
88274W        W56492  31.454  23.546  11.987
88275W        W56493  35.948  27.375   1.528
88276W        W56494  40.929   9.953  14.430
88277W        W56495  11.869  16.074  14.792
88278W        W56496   6.497   4.163   4.593
88279W        W56497  43.079  33.677  11.576
88280W        W56498  25.019   4.502  14.691
88281W        W56499   8.138  18.303   2.306
88282W        W56500  17.602  25.243   1.513
88283W        W56501  41.303  43.054  12.520
88284W        W56502  30.616  41.691  11.932
88285W        W56503   8.515  37.016   4.050
88286W        W56504  23.396  33.081   5.016
88287W        W56505  22.104   1.046  14.974
88288W        W56506  20.432  15.051   4.653
88289W        W56507   7.892  31.122   3.646
88290W        W56508  15.515  14.228   4.266
88291W        W56509   0.825  36.595  12.733
88292W        W56510  27.543  20.263   4.790
88293W        W56511  24.134   1.197  11.194
88294W        W56512  30.692  14.752  14.269
88295W        W56513  21.250   9.800   0.256
88296W        W56514   8.758  41.946  12.518
88297W        W56515  38.285   3.983  11.615
88298W        W56516   4.382  42.918   1.193
88299W        W56517  20.126   7.770  14.848
88300W        W56518  12.176   5.193   2.257
88301W        W56519  15.198  14.535  14.859
88302W        W56520  38.757  26.517   3.318
88303W        W56521  22.130  29.656   2.619
88304W        W56522  10.169  33.617  12.096
88305W        W56523  36.936  33.199  14.837
88306W        W56524  12.336  14.632   2.095
88307W        W56525  15.148  24.271  11.527
88308W        W56526  18.649  12.641   3.229
88309W        W56527   3.803  27.471   3.670
88310W        W56528  39.352  28.387  10.627
88311W        W56529  12.184   0.725  14.042
88312W        W56530  19.231  16.222  14.303
88313W        W56531   3.321  36.769   0.208
88314W        W56532  38.569  10.475   2.763
88315W        W56533   4.166  37.747   2.713
88316W        W56534  17.851  44.317   3.641
88317W        W56535  26.605   4.838  10.463
88318W        W56536  38.771  39.313  10.982
88319W        W56537  18.741  30.628  11.178
88320W        W56538  33.949  19.682   4.640
88321W        W56539  24.124   0.275   4.548
88322W        W56540   9.707  38.832   0.592
88323W        W56541  13.134  36.912   4.609
88324W        W56542  17.578  43.278  13.984
88325W        W56543   4.461  22.981  12.113
88326W        W56544  39.756  20.035   0.334
88327W        W56545  29.413  33.806  14.037
88328W        W56546  43.858  32.368  14.939
88329W        W56547  24.295  14.610  14.379
88330W        W56548  24.180  12.319   0.737
88331W        W56549   4.377  26.520   4.616
88332W        W56550  27.326  15.124   3.625
88333W        W56551  18.375   4.716  13.933
88334W        W56552   0.085  19.309   2.753
88335W        W56553  24.864   4.471  13.544
88336W        W56554   2.449  33.136  12.470
88337W        W56555  13.803  41.824   1.694
88338W        W56556   9.958   9.937   4.451
88339W        W56557   5.986  19.711   2.891
88340W        W56558   5.964  15.237  12.416
88341W        W56559  41.342  39.268   3.207
88342W        W56560  44.305  40.246  13.493
88343W        W56561   2.217  40.791  12.635
88344W        W56562   1.248  29.109   1.842
88345W        W56563  33.416   9.436   2.886
88346W        W56564   8.793  32.399   3.257
88347W        W56565   5.723  10.247   4.599
88348W        W56566  20.574  11.403  14.919
88349W        W56567  34.821  14.171   1.798
88350W        W56568  24.579  19.725   0.363
88351W        W56569  12.559   2.458   9.957
88352W        W56570  37.113   3.822   1.917
88353W        W56571  16.033  40.096   3.339
88354W        W56572   7.935  31.210   1.145
88355W        W56573  15.986  11.820   2.169
88356W        W56574  19.559  38.942   0.932
88357W        W56575  39.069  29.912   4.981
88358W        W56576  36.571  17.443   2.423
88359W        W56577  32.665  16.541  10.984
88360W        W56578  30.946  15.230  12.095
88361W        W56579  25.005   9.772   3.243
88362W        W56580  12.450   2.835  14.853
88363W        W56581  24.682   3.106   0.819
88364W        W56582  37.167   9.272   3.667
88365W        W56583   6.931  42.271  11.048
88366W        W56584  17.256  32.619  11.616
88367W        W56585  18.226  32.793   3.578
88368W        W56586  23.621  21.620  14.559
88369W        W56587  31.772  20.982  12.552
88370W        W56588  20.655  30.938  11.165
88371W        W56589   1.741   9.260   4.127
88372W        W56590  41.981  20.976   0.931
88373W        W56591  20.718  39.328   4.573
88374W        W56592  11.531  13.587   2.718
88375W        W56593  39.074   7.533  12.001
88376W        W56594  36.128  40.391  12.516
88377W        W56595   7.390  41.912  14.657
88378W        W56596  37.914  34.672  14.799
88379W        W56597  13.185  36.979  13.517
88380W        W56598  35.124  26.891  14.000
88381W        W56599  19.477  17.048   4.036
88382W        W56600   4.902  31.390  12.771
88383W        W56601   8.123   6.413   3.257
88384W        W56602   2.835  34.211  13.910
88385W        W56603  24.316  44.707   3.734
88386W        W56604  13.016  31.129   3.070
88387W        W56605  18.307  21.030  14.009
88388W        W56606  26.949   5.555   1.874
88389W        W56607   8.468  41.417  11.668
88390W        W56608   6.726  32.486   1.938
88391W        W56609  23.325   6.648   2.090
88392W        W56610  16.207  44.020   0.822
88393W        W56611  20.053  20.679   0.295
88394W        W56612  24.860  22.757   4.832
88395W        W56613  28.990  14.118   1.746
88396W        W56614  12.260   0.679  14.945
88397W        W56615   8.189  15.457   5.411
88398W        W56616   8.322  20.105  10.494
88399W        W56617  40.407  36.461  13.013
88400W        W56618  38.485  36.093   2.562
88401W        W56619  23.470   2.834  10.563
88402W        W56620  15.102  32.144   3.625
88403W        W56621  33.513  22.545   4.912
88404W        W56622   4.020  43.562   3.351
88405W        W56623  12.664   3.734   0.468
88406W        W56624  30.888  27.017   3.350
88407W        W56625  10.484   2.174   0.324
88408W        W56626  36.585  20.578   4.203
88409W        W56627   2.113  20.582   3.189
88410W        W56628  10.136   9.219   4.106
88411W        W56629  28.586  17.698   5.055
88412W        W56630   8.856   7.241  10.677
88413W        W56631   7.342  19.971  13.506
88414W        W56632  16.001  12.097  12.945
88415W        W56633  16.651  37.649  13.392
88416W        W56634  20.555  44.257   1.812
88417W        W56635  24.223  17.229  12.105
88418W        W56636  39.690  23.053  12.403
88419W        W56637   3.345  17.517  13.472
88420W        W56638  17.388  13.108  13.269
88421W        W56639  13.627   6.236  12.938
88422W        W56640  19.740   9.625  10.759
88423W        W56641   7.913  32.832   1.813
88424W        W56642  34.986  36.069   2.417
88425W        W56643  10.152  37.543   2.399
88426W        W56644  28.587  32.403   4.770
88427W        W56645  33.613  19.995   0.804
88428W        W56646   5.287  31.688  11.157
88429W        W56647  13.794   0.288  14.277
88430W        W56648   6.671  20.851  14.791
88431W        W56649  18.317  32.891  10.560
88432W        W56650  28.552  18.747   2.248
88433W        W56651  22.658  12.221  14.968
88434W        W56652  29.838   7.181   2.390
88435W        W56653  17.553  25.215   3.793
88436W        W56654  23.379  23.102  10.404
88437W        W56655   2.027  39.831  11.091
88438W        W56656  28.192   7.874  11.007
88439W        W56657  21.012  29.718   2.103
88440W        W56658  14.345  22.677   1.311
88441W        W56659   1.225  26.618  10.960
88442W        W56660  25.133  32.880  14.360
88443W        W56661   0.081  22.134  12.933
88444W        W56662  32.874  24.076   3.904
88445W        W56663  22.691  28.518  13.519
88446W        W56664  35.643  39.465  13.479
88447W        W56665  37.845   8.164  13.934
88448W        W56666  22.029  19.751   0.689
88449W        W56667   9.411  31.334  13.944
88450W        W56668   0.580  21.726   1.827
88451W        W56669   3.499  31.055   0.330
88452W        W56670  10.179   1.841  12.410
88453W        W56671  11.377  12.088  14.526
88454W        W56672   2.886  33.379  11.259
88455W        W56673  22.213  39.902  13.542
88456W        W56674   3.274  26.975  13.921
88457W        W56675   8.406  40.130  10.314
88458W        W56676   6.951  42.245   3.689
88459W        W56677  42.864  34.166   1.244
88460W        W56678   6.681  42.349  13.461
88461W        W56679  34.231  12.552  10.863
88462W        W56680   2.019  30.927   1.906
88463W        W56681  15.870  19.580  13.380
88464W        W56682  19.579  18.815  12.952
88465W        W56683  25.209   7.901   4.771
88466W        W56684  12.376  27.022  11.612
88467W        W56685  30.232   7.735  11.945
88468W        W56686   0.310  13.189   1.428
88469W        W56687  31.404  29.354  11.259
88470W        W56688  35.554  24.086  13.797
88471W        W56689   1.313  28.407  11.935
88472W        W56690  17.209   2.907  10.409
88473W        W56691  42.358   7.216  10.718
88474W        W56692  13.903  24.354  10.438
88475W        W56693   7.082  44.872  13.413
88476W        W56694  18.184   8.281   4.692
88477W        W56695  11.412   7.850   0.464
88478W        W56696  21.757  43.032   1.448
88479W        W56697  36.447  24.501  12.012
88480W        W56698  41.716  33.885   2.788
88481W        W56699  30.482  21.033  12.156
88482W        W56700   4.706  43.211   3.754
88483W        W56701  25.046  24.160  11.149
88484W        W56702  25.479  31.833  12.894
88485W        W56703   2.457  29.364   3.602
88486W        W56704  40.408  27.896  12.154
88487W        W56705  15.791  11.328   4.114
88488W        W56706  42.440  36.451   0.389
88489W        W56707   5.627  10.130   2.392
88490W        W56708   6.123  21.128   2.257
88491W        W56709  24.455  20.686   0.332
88492W        W56710  31.918  26.929   1.368
88493W        W56711  27.541   6.139  14.512
88494W        W56712  36.973  31.961   0.884
88495W        W56713  38.517  26.286   1.982
88496W        W56714  42.554  10.279   3.954
88497W        W56715  43.347  30.943  12.948
88498W        W56716  19.417  33.039   2.846
88499W        W56717  39.002  34.338   4.313
88500W        W56718   7.455  16.538  13.392
88501W        W56719  40.433  10.390   4.653
88502W        W56720  32.865   4.940  13.818
88503W        W56721  12.115  19.830   3.685
88504W        W56722  39.590  39.657  14.654
88505W        W56723  36.906  41.313   1.624
88506W        W56724  16.281  41.074   3.084
88507W        W56725  32.141   1.673  11.631
88508W        W56726   5.448   0.305   3.296
88509W        W56727  33.399   1.658   4.548
88510W        W56728  43.820  27.159   0.604
88511W        W56729  10.219  22.302   3.808
88512W        W56730   4.626   4.645  11.250
88513W        W56731  40.423  42.096   3.660
88514W        W56732  16.285  29.077  10.820
88515W        W56733  29.915  35.647  12.720
88516W        W56734  44.933   3.796   1.227
88517W        W56735  42.056  19.025  11.584
88518W        W56736  32.501  26.345  10.164
88519W        W56737  20.237  33.613   3.184
88520W        W56738  30.751  24.188  12.029
88521W        W56739  29.587  41.247   1.340
88522W        W56740  40.808   4.409   5.027
88523W        W56741   5.153  14.277   4.863
88524W        W56742  39.891   1.277  14.324
88525W        W56743   8.088  16.698  12.518
88526W        W56744  19.757   5.915   2.300
88527W        W56745   4.211  18.279  14.077
88528W        W56746  44.850  18.334  12.351
88529W        W56747   9.265  40.788   5.040
88530W        W56748  13.207   7.930   3.638
88531W        W56749  41.339  42.086  10.692
88532W        W56750   2.305  44.902   3.993
88533W        W56751  20.968  24.046   4.565
88534W        W56752  41.887  20.334   0.019
88535W        W56753  25.601  36.216   4.507
88536W        W56754  31.923   2.210   4.140
88537W        W56755  36.172   3.371   3.659
88538W        W56756  18.262  33.991   0.997
88539W        W56757   4.906  28.304  12.479
88540W        W56758  16.583   7.955  12.496
88541W        W56759  32.303   0.943   1.437
88542W        W56760   9.347   8.783  14.860
88543W        W56761  20.991  29.174  14.327
88544W        W56762  26.431  21.752  12.373
88545W        W56763   5.223   2.672   3.248
88546W        W56764  20.473  22.704   2.401
88547W        W56765  41.897  14.039   3.602
88548W        W56766  22.304  37.111   1.768
88549W        W56767  26.033  21.768   5.318
88550W        W56768  27.295  11.303  11.142
88551W        W56769  29.886  25.707   1.968
88552W        W56770  42.913  41.959   0.503
88553W        W56771  26.980  36.121  14.917
88554W        W56772  20.229  35.912  13.799
88555W        W56773   3.827  19.556  10.656
88556W        W56774  27.684  20.632   4.424
88557W        W56775  24.613  17.265   2.375
88558W        W56776  36.338  13.344   4.116
88559W        W56777   9.629  24.230   2.898
88560W        W56778  23.616  36.256   1.912
88561W        W56779  22.207   1.250  11.487
88562W        W56780  10.639   6.792  12.502
88563W        W56781  18.908   2.381   5.042
88564W        W56782  42.457   5.167   3.832
88565W        W56783  40.561   2.110  14.512
88566W        W56784  12.216  35.733   3.636
88567W        W56785  13.120  13.998  12.451
88568W        W56786  38.133  34.912   2.140
88569W        W56787  26.482  32.532   1.298
88570W        W56788   3.631  34.050   3.119
88571W        W56789  44.733  21.523   0.348
88572W        W56790  11.768  13.709  14.322
88573W        W56791   6.580  29.630   3.147
88574W        W56792  44.428  21.745   4.098
88575W        W56793  30.475  37.777   3.629
88576W        W56794  25.047  31.690   4.205
88577W        W56795  19.983  23.035  12.502
88578W        W56796  29.660  32.579  12.544
88579W        W56797  37.057  24.175   1.739
88580W        W56798  43.759   1.934  12.136
88581W        W56799  16.790   1.915   5.007
88582W        W56800  29.925  43.330   1.249
88583W        W56801  13.119  27.727   4.158
88584W        W56802  44.856  15.858   1.254
88585W        W56803  38.423  37.850  11.563
88586W        W56804  33.597  33.099   1.557
88587W        W56805  14.349  32.833   4.668
88588W        W56806  23.134   5.756  11.833
88589W        W56807  22.541  30.171   0.388
88590W        W56808  22.669   1.834  10.247
88591W        W56809  35.081  27.627  11.086
88592W        W56810  18.788  38.893   2.291
88593W        W56811  12.240  16.593  12.696
88594W        W56812  28.547   6.189  10.991
88595W        W56813   5.985   9.394   3.805
88596W        W56814  20.439  11.274   0.884
88597W        W56815  26.420  10.305   3.693
88598W        W56816  11.900  21.238  12.634
88599W        W56817  38.604   7.360   3.721
88600W        W56818  25.679   5.633   0.726
88601W        W56819  12.672  15.096  12.024
88602W        W56820  24.065  32.110   0.235
88603W        W56821  44.939  23.065   4.189
88604W        W56822  28.875   9.217  11.739
88605W        W56823  32.810   3.848  11.213
88606W        W56824  43.241  10.250   2.296
88607W        W56825  10.759  31.653   3.568
88608W        W56826   3.453  27.498  11.529
88609W        W56827   0.470  42.629  14.213
88610W        W56828  29.061  17.721  13.951
88611W        W56829   3.207   3.860  12.035
88612W        W56830  19.396   8.763   2.138
88613W        W56831  16.871  17.148  13.012
88614W        W56832   0.193  44.174  14.966
88615W        W56833   1.065  15.763  10.395
88616W        W56834  18.723   7.810   0.902
88617W        W56835  43.215  28.405   1.175
88618W        W56836   1.356  28.515  14.786
88619W        W56837  38.267  30.187   3.134
88620W        W56838  31.422  25.016   1.535
88621W        W56839  13.181  10.940  11.115
88622W        W56840   8.404   0.583   3.727
88623W        W56841  40.473  23.645   3.235
88624W        W56842   2.718  44.553  10.790
88625W        W56843   1.854  43.326  13.442
88626W        W56844   4.256  11.919  13.114
88627W        W56845  28.753   5.922   4.392
88628W        W56846  25.085  23.620   4.054
88629W        W56847  30.376  36.774   0.187
88630W        W56848  18.030  12.657   5.182
88631W        W56849   0.755   6.280  11.493
88632W        W56850   4.249  30.067  13.844
88633W        W56851   7.695  14.045  13.598
88634W        W56852   7.166  14.814   4.502
88635W        W56853  25.834  17.720   2.104
88636W        W56854  29.440  10.753   0.271
88637W        W56855  27.545   4.051  13.387
88638W        W56856  30.076  23.130  10.687
88639W        W56857  14.856  15.153   1.799
88640W        W56858  16.293  11.225  12.622
88641W        W56859  10.664  28.953   0.395
88642W        W56860  23.274  13.904  10.987
88643W        W56861  39.087  31.452   4.431
88644W        W56862   8.709   7.455  13.364
88645W        W56863  42.200  36.436  14.933
88646W        W56864  35.995  43.651   4.251
88647W        W56865   7.887   9.531  11.532
88648W        W56866  17.750  42.380   4.736
88649W        W56867  13.285  11.277  12.053
88650W        W56868  35.815  35.619  13.617
88651W        W56869  41.420  11.912   2.044
88652W        W56870  43.600  26.923  11.664
88653W        W56871  32.071  41.368  14.691
88654W        W56872  19.193  11.395  14.964
88655W        W56873  34.119   8.392   3.161
88656W        W56874  13.727  35.672  11.470
88657W        W56875  41.299   4.442  12.134
88658W        W56876  17.019  42.990  12.607
88659W        W56877  17.086  15.368  14.903
88660W        W56878  34.234  42.004  12.735
88661W        W56879  15.276  33.585   0.375
88662W        W56880  30.340  22.033   4.157
88663W        W56881  22.533   2.684   1.014
88664W        W56882   1.804  31.894  13.376
88665W        W56883  27.619  37.470  11.572
88666W        W56884  40.625  31.631   0.247
88667W        W56885  20.599  17.543   2.802
88668W        W56886  39.414  24.384   3.331
88669W        W56887  36.538  27.667   2.613
88670W        W56888  10.660   2.937   2.086
88671W        W56889   1.707  40.764  12.561
88672W        W56890  37.091  21.318  14.354
88673W        W56891  33.838  28.847  11.126
88674W        W56892   9.152  32.899  12.151
88675W        W56893  24.624  28.998   2.253
88676W        W56894  37.924  12.264  14.936
88677W        W56895  14.066  33.305   0.069
88678W        W56896  23.145  27.488   3.440
88679W        W56897  19.674  19.935  11.592
88680W        W56898  25.454  37.373  12.134
88681W        W56899   1.473   9.340  11.557
88682W        W56900  41.432  21.573  12.070
88683W        W56901  31.712  31.507   3.620
88684W        W56902  31.896  17.135   0.001
88685W        W56903  40.755  36.104   2.909
88686W        W56904  36.525  19.522   1.829
88687W        W56905  10.413  41.075  13.539
88688W        W56906   3.287  29.713   1.402
88689W        W56907  35.894   8.083  13.921
88690W        W56908  32.716  32.404  12.017
88691W        W56909  41.818  14.466  11.342
88692W        W56910  41.847  44.713   2.188
88693W        W56911  41.307  21.973  11.142
88694W        W56912  12.061  11.843  11.263
88695W        W56913  17.563  42.749  14.762
88696W        W56914   0.384   3.073  12.504
88697W        W56915   9.406  26.206  11.132
88698W        W56916  13.576  41.563  13.999
88699W        W56917  38.910  36.584  11.448
88700W        W56918  17.636  23.478   2.372
88701W        W56919  27.652  23.631  10.918
88702W        W56920  32.839  34.765   4.144
88703W        W56921  26.062   9.307   1.341
88704W        W56922  15.062  28.978   3.990
88705W        W56923   1.069  17.222  12.305
88706W        W56924  30.920  44.172   4.094
88707W        W56925  22.768  41.007  11.505
88708W        W56926  20.541  13.505   2.234
88709W        W56927  10.563  44.677  12.253
88710W        W56928  39.549  13.250  11.770
88711W        W56929  35.881   6.010   2.704
88712W        W56930  10.345  26.238   3.191
88713W        W56931  42.221  43.953   3.829
88714W        W56932  32.668   4.761   2.133
88715W        W56933   9.432  40.664   1.727
88716W        W56934  23.190  36.708  11.225
88717W        W56935  35.852  31.257   3.257
88718W        W56936  33.662  28.905  14.311
88719W        W56937   0.796  28.459  10.722
88720W        W56938  43.552  37.147   2.431
88721W        W56939  22.224  14.346   0.811
88722W        W56940  18.315  36.356   0.251
88723W        W56941  36.407  43.984   3.578
88724W        W56942  36.381  32.552  14.516
88725W        W56943  29.214  10.215   1.351
88726W        W56944  44.113   2.442  12.960
88727W        W56945  24.363  28.551   2.311
88728W        W56946   4.768  34.563   0.316
88729W        W56947  38.084  36.773  11.998
88730W        W56948  16.184  24.142   4.846
88731W        W56949  14.599   9.131  12.108
88732W        W56950  21.714  36.360  12.581
88733W        W56951  27.946  15.555   1.682
88734W        W56952  16.167   1.480   4.371
88735W        W56953  21.038  35.844  13.030
88736W        W56954  38.497   6.238   1.686
88737W        W56955   9.212  19.087   0.795
88738W        W56956  36.592  30.980  13.789
88739W        W56957  14.658  12.360   4.906
88740W        W56958  19.214  24.980   3.649
88741W        W56959  41.301  41.815   2.816
88742W        W56960  25.182  13.178  10.979
88743W        W56961  21.620  40.992  14.157
88744W        W56962  23.418  17.705  12.717
88745W        W56963  10.316  26.710   0.360
88746W        W56964  40.159  16.535  11.828
88747W        W56965   6.702  10.920  12.947
88748W        W56966  37.930  37.375  14.402
88749W        W56967  41.941  36.877   1.331
88750W        W56968  29.487  16.671   4.514
88751W        W56969  16.979  37.487   2.257
88752W        W56970  15.872  41.735   1.807
88753W        W56971  26.143   1.770  14.516
88754W        W56972  14.480  21.442  11.618
88755W        W56973   6.150  30.749   0.854
88756W        W56974  12.111  33.926   0.207
88757W        W56975  38.731  26.993   0.370
88758W        W56976  18.371  15.724   5.498
88759W        W56977   1.515  13.120   2.268
88760W        W56978  38.805   8.098   1.816
88761W        W56979  20.084  23.390   2.712
88762W        W56980  32.044   1.486   3.080
88763W        W56981  31.627  43.481   4.659
88764W        W56982  29.452  32.562   2.736
88765W        W56983  25.112   6.863  12.480
88766W        W56984  37.308  37.047  11.156
88767W        W56985  39.558  44.214  10.763
88768W        W56986  10.334  44.960  13.589
88769W        W56987  41.777  28.620  10.605
88770W        W56988  38.405  44.380   0.002
88771W        W56989  44.002  41.333   3.650
88772W        W56990  32.594   1.402   4.674
88773W        W56991  32.449  42.743   0.601
88774W        W56992  17.766  23.121  11.939
88775W        W56993  41.312  24.289   0.993
88776W        W56994  23.664   1.083  14.080
88777W        W56995  21.442  24.228   4.601
88778W        W56996  39.804  15.295   1.777
88779W        W56997  11.656  21.243   5.147
88780W        W56998  39.867   4.793   3.586
88781W        W56999  41.996  21.481  11.223
88782W        W57000  21.212  25.458   2.278
88783W        W57001  13.136   6.670  14.821
88784W        W57002  14.285   8.370   2.941
88785W        W57003   4.389  42.424   1.359
88786W        W57004  23.230  23.636   3.782
88787W        W57005  32.130  15.126   1.959
88788W        W57006  22.950  27.099   4.196
88789W        W57007  25.648  29.417  13.818
88790W        W57008  25.760  34.900  13.006
88791W        W57009  44.353  40.852   2.752
88792W        W57010  25.615  35.363   3.017
88793W        W57011   9.152  25.409   2.317
88794W        W57012  42.566  44.766  12.591
88795W        W57013  38.793  26.031   2.930
88796W        W57014  22.952  44.255   3.871
88797W        W57015   1.701  32.922   1.289
88798W        W57016   5.514  20.372  11.101
88799W        W57017   0.514  10.747   2.447
88800W        W57018   3.272  11.529  11.127
88801W        W57019  13.875  32.430   3.154
88802W        W57020  18.316  20.211   0.969
88803W        W57021  42.424  19.018  13.047
88804W        W57022  20.906  19.108  14.203
88805W        W57023  16.087   2.527   0.841
88806W        W57024   4.827  35.895   3.910
88807W        W57025  11.189  10.104  12.482
88808W        W57026  26.130  37.530  14.999
88809W        W57027  30.575  36.504  12.044
88810W        W57028   9.368  32.639   0.888
88811W        W57029  19.712  25.028  11.625
88812W        W57030   5.124  12.030   2.799
88813W        W57031  25.936  33.652  13.038
88814W        W57032   8.327  23.282   0.861
88815W        W57033  36.530  33.432  10.646
88816W        W57034   2.509  44.805   3.069
88817W        W57035  13.255  33.845   1.203
88818W        W57036  43.688  31.007   4.867
88819W        W57037  17.735  30.635  13.906
88820W        W57038  28.950  43.887   1.564
88821W        W57039   0.128   4.568  10.855
88822W        W57040   5.495   8.897   3.242
88823W        W57041   8.359  13.108   1.436
88824W        W57042   4.145  24.135   2.900
88825W        W57043  33.157  31.994   4.236
88826W        W57044  12.370   1.935  11.663
88827W        W57045   7.831  39.914   0.351
88828W        W57046  12.033  44.108  10.502
88829W        W57047  21.113  31.496  10.655
88830W        W57048  31.662  32.873   3.581
88831W        W57049  39.968  22.730   1.402
88832W        W57050   8.949  38.368   0.851
88833W        W57051   8.262  31.534  14.377
88834W        W57052  10.357  34.395  14.970
88835W        W57053   8.992   5.320   0.734
88836W        W57054  33.747  43.480   2.297
88837W        W57055  30.955  15.409   2.901
88838W        W57056  33.057  23.380  11.984
88839W        W57057  35.540  18.797   3.802
88840W        W57058  40.694  29.012   3.026
88841W        W57059  12.925  40.438   1.374
88842W        W57060  15.799  29.612   2.172
88843W        W57061  21.755  17.411   1.709
88844W        W57062  33.126  10.041   3.214
88845W        W57063   0.448  44.976  11.093
88846W        W57064  22.617   1.202  12.546
88847W        W57065  24.509  25.956   2.782
88848W        W57066  43.851  34.961  10.869
88849W        W57067  44.101  24.186   2.345
88850W        W57068   0.200  29.260   1.510
88851W        W57069  12.775   8.199   3.698
88852W        W57070  34.304  39.587  10.928
88853W        W57071  36.086   2.919  13.954
88854W        W57072  36.524   2.251  13.916
88855W        W57073  23.580  16.823   2.917
88856W        W57074  28.200  35.495   0.693
88857W        W57075  20.754  14.188   3.693
88858W        W57076  13.243  17.080  10.751
88859W        W57077  17.267  32.606   0.251
88860W        W57078  36.471  43.014   1.247
88861W        W57079  38.307  28.291  13.473
88862W        W57080  22.034  23.660   1.341
88863W        W57081  16.655  43.915  12.535
88864W        W57082  24.760  13.019   2.342
88865W        W57083  11.251  42.523   2.153
88866W        W57084   5.240  34.144   3.016
88867W        W57085  31.999  24.968   2.012
88868W        W57086  35.972   8.818   1.659
88869W        W57087  15.691   1.450   2.653
88870W        W57088  23.834  35.015  14.029
88871W        W57089  22.605  12.679   2.381
88872W        W57090  11.598  23.737   3.177
88873W        W57091  40.006  17.592  12.943
88874W        W57092   2.013  29.448  12.803
88875W        W57093  15.781  21.684   4.559
88876W        W57094  30.111  30.511  12.503
88877W        W57095   9.202  23.846   3.228
88878W        W57096   4.650  44.760  12.832
88879W        W57097  28.245  27.999  14.276
88880W        W57098  24.167   9.429   4.196
88881W        W57099  33.307  38.059  14.375
88882W        W57100  31.125  18.331   0.861
88883W        W57101   4.369  31.750   3.131
88884W        W57102  22.653  13.842   0.652
88885W        W57103  17.461  30.422  14.767
88886W        W57104  39.465   3.233   3.621
88887W        W57105  41.581   3.803   2.786
88888W        W57106   7.154  18.858   3.818
88889W        W57107  43.792  33.078  11.052
88890W        W57108  27.944  33.547   0.268
88891W        W57109  38.470   8.671   0.882
88892W        W57110  27.879  38.495   3.386
88893W        W57111  15.631  18.922  11.772
88894W        W57112  17.649   6.815  14.843
88895W        W57113  27.976  24.905  14.270
88896W        W57114  38.882  38.654  12.993
88897W        W57115  36.992  35.446  13.863
88898W        W57116  29.898  43.876  12.013
88899W        W57117  28.617  44.507   0.400
88900W        W57118  23.016  25.514  11.867
88901W        W57119  35.423  39.286  11.943
88902W        W57120  17.671  16.142  14.885
88903W        W57121  33.969  18.112   0.758
88904W        W57122  18.214  28.013   1.766
88905W        W57123  26.232  37.589  11.401
88906W        W57124  43.585  31.942   1.317
88907W        W57125  40.491  16.802   2.718
88908W        W57126  33.562  12.004   4.538
88909W        W57127   1.365  30.192  13.142
88910W        W57128  24.041  16.729  14.696
88911W        W57129   5.868  29.041  12.813
88912W        W57130  20.163  34.440   2.311
88913W        W57131  12.283  21.758  13.433
88914W        W57132  22.287  30.800  12.492
88915W        W57133   6.681   2.912  13.735
88916W        W57134   0.848  29.895   4.832
88917W        W57135   4.788  43.117  12.892
88918W        W57136  17.968  22.439   3.683
88919W        W57137  23.017   2.455  11.621
88920W        W57138  32.545   1.508  11.323
88921W        W57139  10.683  27.421  12.982
88922W        W57140   7.956  20.501  12.037
88923W        W57141   6.364  28.238   2.720
88924W        W57142   0.913  34.979  14.440
88925W        W57143  42.228  42.104  12.453
88926W        W57144  19.496   0.773   2.209
88927W        W57145  33.568   1.860  10.770
88928W        W57146  41.449   3.005   1.752
88929W        W57147   2.326  16.053  11.124
88930W        W57148  30.551  15.320   3.216
88931W        W57149  17.847  39.873  13.719
88932W        W57150  40.410  33.551   4.979
88933W        W57151  14.676   7.796   2.341
88934W        W57152  44.335  18.012  12.027
88935W        W57153  24.467  15.298   1.411
88936W        W57154  30.924   6.699   4.068
88937W        W57155   4.821  29.553   4.099
88938W        W57156   4.912  32.618  11.931
88939W        W57157  34.389  16.434   0.769
88940W        W57158  24.388  30.107  10.711
88941W        W57159  43.520   3.831   3.832
88942W        W57160  19.195   9.309   0.766
88943W        W57161  43.802  32.542   0.438
88944W        W57162  26.706  23.257   4.515
88945W        W57163  35.227  11.333  11.321
88946W        W57164  12.743  25.645   1.474
88947W        W57165   7.718  15.700  13.851
88948W        W57166   9.468  39.064   4.005
88949W        W57167  25.624  10.955   3.121
88950W        W57168  44.452   4.301  11.594
88951W        W57169  41.909  25.023   0.611
88952W        W57170  22.324  27.373  11.203
88953W        W57171  17.785  39.362  10.664
88954W        W57172  24.503   7.133   3.769
88955W        W57173  30.859   3.147  13.449
88956W        W57174  25.027  29.914   0.893
88957W        W57175  10.599  24.391   0.334
88958W        W57176   2.927  27.099   1.722
88959W        W57177  24.381  23.007   9.722
88960W        W57178  17.195  28.292   4.783
88961W        W57179  33.514   6.226   3.331
88962W        W57180  36.268   0.494   4.090
88963W        W57181  11.686  29.605   1.463
88964W        W57182  25.541  29.063  12.510
88965W        W57183  23.961  40.920   2.624
88966W        W57184  44.966   1.835  11.156
88967W        W57185  18.305   1.781   4.091
88968W        W57186   5.648  40.109   1.735
88969W        W57187   9.905  18.810   4.162
88970W        W57188  25.657   9.407   3.342
88971W        W57189  39.296  27.537  11.087
88972W        W57190   2.994  11.754   5.106
88973W        W57191  34.873  35.919  14.497
88974W        W57192  15.030  13.980   9.748
88975W        W57193  33.537  36.411  10.598
88976W        W57194  11.325  15.512   2.774
88977W        W57195  24.477  41.886   4.099
88978W        W57196  15.231   1.735  14.991
88979W        W57197   4.803  10.786   3.614
88980W        W57198  24.651  36.411   1.196
88981W        W57199  10.236  12.250  12.608
88982W        W57200   0.899   1.220  11.130
88983W        W57201  24.167  41.728  10.615
88984W        W57202  37.287  26.986   1.890
88985W        W57203   0.993  17.149   4.117
88986W        W57204  38.378  17.011  14.509
88987W        W57205  27.153  16.038   2.748
88988W        W57206  36.910  12.504   1.284
88989W        W57207  33.998   1.995  10.500
88990W        W57208  38.940  34.207   0.871
88991W        W57209  22.596  23.189  11.568
88992W        W57210  41.242  42.246  12.939
88993W        W57211  17.320   0.772   4.084
88994W        W57212  13.689  27.422   1.410
88995W        W57213  26.749  10.381  10.681
88996W        W57214  33.437   6.820   1.885
88997W        W57215  32.405  28.166   2.755
88998W        W57216   8.789  37.403  11.682
88999W        W57217  40.887   2.488  11.057
89000W        W57218   7.352  27.028   2.864
89001W        W57219  33.519  16.070  14.062
89002W        W57220  37.020  24.932  12.493
89003W        W57221  44.229  20.442   0.365
89004W        W57222  19.576  37.568   5.066
89005W        W57223   6.992   8.200   4.340
89006W        W57224   6.634  11.696  13.902
89007W        W57225  20.759   9.825   3.323
89008W        W57226  20.832  37.342  12.335
89009W        W57227  37.415  39.409   2.739
89010W        W57228  15.999  21.594   1.806
89011W        W57229  44.587  19.342  12.544
89012W        W57230  14.614  26.207   1.821
89013W        W57231  32.172   5.173   3.202
89014W        W57232   9.542  16.218   0.957
89015W        W57233  38.689   1.085  12.991
89016W        W57234  28.437  32.645   3.426
89017W        W57235  14.421  22.732   2.678
89018W        W57236   5.722   2.385   1.288
89019W        W57237   6.487  20.683   4.171
89020W        W57238  27.059  28.703   4.276
89021W        W57239  10.387   5.824   1.886
89022W        W57240  21.156   1.203  12.940
89023W        W57241   5.432  28.432   2.754
89024W        W57242  42.370  10.878  14.401
89025W        W57243  40.038  16.204   1.985
89026W        W57244  16.951  20.141  12.047
89027W        W57245  31.702  36.818  11.428
89028W        W57246   8.608  10.893  11.163
89029W        W57247   6.756  11.180  13.422
89030W        W57248  14.901  43.245  11.613
89031W        W57249  30.130  31.939  13.098
89032W        W57250  22.655   9.208   9.806
89033W        W57251  20.630  28.470   0.488
89034W        W57252  30.589   6.843  10.262
89035W        W57253  32.692  26.727   2.012
89036W        W57254  29.491  36.982  11.180
89037W        W57255   4.681   1.818  14.756
89038W        W57256   0.383  39.309   1.680
89039W        W57257  44.975   0.012   2.675
89040W        W57258  44.340   0.283   1.320
89041W        W57259  12.828  32.583   4.801
89042W        W57260   4.103  41.916   9.759
89043W        W57261   4.827  40.355  11.684
89044W        W57262  39.523  27.629  13.391
89045W        W57263  35.210  43.545   1.460
89046W        W57264   7.768  23.301   3.233
89047W        W57265  13.852  21.506  11.483
89048W        W57266   7.290  26.013  10.696
89049W        W57267  21.181  17.533  11.891
89050W        W57268  14.838  32.656  14.268
89051W        W57269  24.558  11.687  14.317
89052W        W57270  14.062  39.767  14.462
89053W        W57271  32.920  34.457  12.480
89054W        W57272  24.374   8.768   0.362
89055W        W57273  19.764  13.852   1.876
89056W        W57274   3.493  15.174  11.099
89057W        W57275  38.177  37.376  13.835
89058W        W57276  39.579  19.693  10.562
89059W        W57277   6.158   3.230  11.443
89060W        W57278  21.600  42.957  10.506
89061W        W57279  29.146  28.573   2.786
89062W        W57280  14.803  15.294   2.747
89063W        W57281   9.714  26.158   4.322
89064W        W57282  33.330   3.702   3.265
89065W        W57283   0.723  24.086   4.094
89066W        W57284  19.946  36.841  13.829
89067W        W57285  37.499   2.289  11.132
89068W        W57286  42.411  33.741  13.005
89069W        W57287  14.109  34.876  10.640
89070W        W57288   9.278   0.290  13.555
89071W        W57289  42.424  27.464   3.648
89072W        W57290   6.708   3.887  14.934
89073W        W57291  19.180  41.768   1.399
89074W        W57292  24.114  26.016  12.382
89075W        W57293   9.088  44.289   4.176
89076W        W57294  25.548   4.372   3.771
89077W        W57295  37.132  44.301  11.608
89078W        W57296  31.534   8.698   4.829
89079W        W57297  10.188  24.090   4.018
89080W        W57298  27.440  28.417  11.543
89081W        W57299   9.310  33.873  11.661
89082W        W57300  18.300   4.981   3.978
89083W        W57301   1.509  21.905   3.187
89084W        W57302  42.539  32.884  13.917
89085W        W57303  44.494   8.862   3.292
89086W        W57304  38.188  30.665  13.408
89087W        W57305   8.963  33.130  14.151
89088W        W57306  36.184  28.997  13.370
89089W        W57307   9.645   3.324  11.268
89090W        W57308  15.557  17.267   4.335
89091W        W57309  11.426  31.489  14.727
89092W        W57310  26.816  17.700   4.527
89093W        W57311  20.578  28.971   1.270
89094W        W57312  20.335  30.548   4.032
89095W        W57313  21.666   7.910  14.913
89096W        W57314   5.072  43.585   2.866
89097W        W57315  24.989  39.741  10.749
89098W        W57316  35.186  31.577  12.955
89099W        W57317  37.929  24.417   4.612
89100W        W57318   1.983  19.244   1.270
89101W        W57319  16.097  30.588  14.558
89102W        W57320  35.443   0.047  11.483
89103W        W57321  16.566  40.887  10.983
89104W        W57322  22.731   5.819   2.302
89105W        W57323  44.956  25.473  14.724
89106W        W57324  37.955  37.591  11.094
89107W        W57325   1.781   7.327  10.712
89108W        W57326   1.994  29.974  14.909
89109W        W57327  18.789  21.675   4.714
89110W        W57328  12.312  28.723  14.349
89111W        W57329   9.949  21.190   4.675
89112W        W57330  24.130   3.775   4.910
89113W        W57331  30.148  43.264   3.777
89114W        W57332  41.744  44.348   4.056
89115W        W57333  25.861  41.363   3.461
89116W        W57334  18.518  25.130   0.918
89117W        W57335  24.709   0.288   1.208
89118W        W57336  40.980  23.377   1.995
89119W        W57337  11.759  44.810   0.473
89120W        W57338  18.611  43.825  11.976
89121W        W57339   1.284  18.267  13.625
89122W        W57340  10.167   9.179  13.450
89123W        W57341  28.562   8.686  11.144
89124W        W57342  16.713  33.896  12.638
89125W        W57343   8.640  42.173  14.802
89126W        W57344  19.669  31.769   1.314
89127W        W57345  22.346   6.576   1.832
89128W        W57346  31.555  15.364   5.040
89129W        W57347  37.333  42.148   2.168
89130W        W57348  15.739   2.211   4.909
89131W        W57349  10.354   0.950   2.410
89132W        W57350  15.925  41.940   0.493
89133W        W57351  16.226  33.477  11.647
89134W        W57352  21.369  26.999   4.122
89135W        W57353  26.297  39.951  12.089
89136W        W57354   3.486  13.689   0.248
89137W        W57355  24.430  21.975   4.984
89138W        W57356  24.559  25.507  14.941
89139W        W57357  40.027  10.096   1.921
89140W        W57358  44.242  35.087   0.473
89141W        W57359  37.370  31.965  14.539
89142W        W57360  39.414  37.538   3.103
89143W        W57361  27.924  44.243   4.267
89144W        W57362  25.253   5.195  13.879
89145W        W57363  21.778   6.231   2.880
89146W        W57364  35.653  41.901   1.741
89147W        W57365  36.572  34.666  14.905
89148W        W57366  23.405   1.907  10.993
89149W        W57367  35.324   0.806   0.361
89150W        W57368  31.232  23.756   3.186
89151W        W57369  42.050  36.836  13.433
89152W        W57370  35.053  13.012  12.097
89153W        W57371  33.902  15.397  14.069
89154W        W57372  35.057  28.709  11.228
89155W        W57373  35.077  31.172   0.429
89156W        W57374   5.431  38.406  14.393
89157W        W57375  35.398  10.854  14.038
89158W        W57376  33.081   6.265  12.154
89159W        W57377  41.946   1.837  10.727
89160W        W57378  28.351  44.713  12.894
89161W        W57379   6.299  20.473   1.450
89162W        W57380  41.021  41.356   0.774
89163W        W57381  43.759  12.715  12.456
89164W        W57382  37.972  24.950   4.622
89165W        W57383  22.313   9.829  12.849
89166W        W57384   5.858  12.809   4.375
89167W        W57385  28.505  35.939   1.819
89168W        W57386  42.303  11.816   0.689
89169W        W57387   4.200  34.179  10.556
89170W        W57388   6.161  28.984  11.623
89171W        W57389  10.741  26.231   1.910
89172W        W57390  29.163   6.506   0.807
89173W        W57391  21.182  36.127   3.345
89174W        W57392  25.196  34.819  13.716
89175W        W57393  24.251  16.287   2.009
89176W        W57394  18.021  13.382   2.232
89177W        W57395  29.977  31.310   2.272
89178W        W57396   1.849  44.071   1.950
89179W        W57397   3.474  30.484   1.604
89180W        W57398  11.266  42.550   3.556
89181W        W57399   0.799   3.297   3.784
89182W        W57400  37.310  30.116   2.357
89183W        W57401  44.010  19.000   4.861
89184W        W57402  11.846  29.865  12.493
89185W        W57403  26.114  40.944   1.606
89186W        W57404  44.783  19.815  14.540
89187W        W57405  10.144  29.565  11.368
89188W        W57406   5.947   2.188  13.995
89189W        W57407   3.186  40.432   0.230
89190W        W57408  29.008  31.121   3.675
89191W        W57409   8.313  21.211  11.572
89192W        W57410  13.071  22.063   3.868
89193W        W57411  14.257  38.903  12.905
89194W        W57412  24.033   5.793  13.053
89195W        W57413  20.769  12.527   4.280
89196W        W57414  18.794  23.301   0.986
89197W        W57415   3.283  18.456  11.529
89198W        W57416  30.129  31.290  14.260
89199W        W57417  25.499   2.519  10.627
89200W        W57418   8.182   6.329  14.159
89201W        W57419  42.519   4.562  13.052
89202W        W57420  11.100  32.667  12.294
89203W        W57421  25.935  13.748   2.866
89204W        W57422  29.907   4.964  11.134
89205W        W57423  31.002  12.591   4.619
89206W        W57424  18.566   0.203  14.914
89207W        W57425  15.207  35.569  10.665
89208W        W57426  23.777   8.247  10.480
89209W        W57427  44.993  33.159   4.176
89210W        W57428  31.477  22.785   2.813
89211W        W57429  39.547  21.996   2.692
89212W        W57430   4.500  11.107  13.278
89213W        W57431  13.015  13.176  10.749
89214W        W57432  10.287  25.904  10.790
89215W        W57433  20.115  14.609   0.888
89216W        W57434  29.936  34.738   1.776
89217W        W57435   7.359  27.527  12.032
89218W        W57436  26.468  27.557   3.926
89219W        W57437   9.723  17.302  14.494
89220W        W57438  12.112  24.558  12.912
89221W        W57439  20.677  27.485  14.263
89222W        W57440   2.837  30.994  12.866
89223W        W57441  42.497  34.283   3.593
89224W        W57442  20.526  44.969  13.128
89225W        W57443  43.421  33.920   0.518
89226W        W57444  32.428  38.296   3.718
89227W        W57445  39.492  44.751   4.529
89228W        W57446  22.606   2.499   4.213
89229W        W57447  34.436  26.778   2.655
89230W        W57448  27.659  17.012  12.516
89231W        W57449  39.496  12.048  14.987
89232W        W57450  29.512   2.348   0.804
89233W        W57451   0.515  23.770  12.368
89234W        W57452  14.803  27.141   4.273
89235W        W57453   3.038  37.866   1.964
89236W        W57454  40.774  11.808  11.606
89237W        W57455  35.137  12.814  14.926
89238W        W57456   9.843  31.158  11.024
89239W        W57457  22.222  27.510   0.962
89240W        W57458  31.989  29.820   1.700
89241W        W57459  30.426  26.732   3.332
89242W        W57460  31.351  43.489   4.197
89243W        W57461   6.187  21.169  13.619
89244W        W57462  20.121   2.629  14.850
89245W        W57463  44.829  29.065   3.850
89246W        W57464  37.865  40.322   1.097
89247W        W57465  10.221   5.853  11.120
89248W        W57466  24.425   6.405   4.246
89249W        W57467   3.410  43.239  12.534
89250W        W57468  35.946  20.225   4.198
89251W        W57469  17.731  15.677   2.117
89252W        W57470  44.451  33.497   4.043
89253W        W57471  43.506  42.818   0.329
89254W        W57472  25.861  14.133   4.785
89255W        W57473  18.490   6.105  10.264
89256W        W57474   2.422   1.284  13.335
89257W        W57475  15.812  31.868   4.810
89258W        W57476   7.083  19.171   0.780
89259W        W57477  18.696  30.964  14.778
89260W        W57478  14.225  18.976   1.954
89261W        W57479  13.378  23.500  12.459
89262W        W57480  11.715  25.365   2.758
89263W        W57481   6.252  31.358   3.624
89264W        W57482  27.014  21.493  10.185
89265W        W57483  29.605   1.010  13.685
89266W        W57484  12.893  10.814   0.468
89267W        W57485  38.400   4.738  10.581
89268W        W57486  19.719  30.658   3.663
89269W        W57487   5.236  39.120  11.824
89270W        W57488   9.778  23.190  14.427
89271W        W57489  41.816  11.742   1.747
89272W        W57490  27.918   3.307   4.538
89273W        W57491  18.543  10.191  13.458
89274W        W57492  37.445  40.361   0.751
89275W        W57493   8.678  14.353  11.565
89276W        W57494  23.928  17.298   3.781
89277W        W57495  26.131  35.924  13.739
89278W        W57496  30.367  17.208  14.939
89279W        W57497   3.455  36.334   0.480
89280W        W57498  33.687  12.687   1.776
89281W        W57499  17.074   0.037   0.763
89282W        W57500   6.142  25.524  13.986
89283W        W57501  26.276   4.349   1.395
89284W        W57502  29.426  23.722   0.214
89285W        W57503  19.570  10.090   3.191
89286W        W57504   2.310  38.107  10.992
89287W        W57505  41.461  23.763  11.386
89288W        W57506  20.160  29.898   3.700
89289W        W57507  24.965   9.275   4.705
89290W        W57508  25.204  26.094  14.986
89291W        W57509  31.634   7.881  13.625
89292W        W57510   2.317  19.740   2.930
89293W        W57511  21.822  33.626  11.463
89294W        W57512  26.210  12.931  12.970
89295W        W57513  10.102  17.395  13.321
89296W        W57514   4.674  30.495  12.327
89297W        W57515  25.487  40.028  12.542
89298W        W57516  23.284   3.388  14.552
89299W        W57517   0.312  35.179   1.848
89300W        W57518  32.518  39.469  11.500
89301W        W57519  17.593  29.902   2.015
89302W        W57520  17.252   2.208  12.024
89303W        W57521  31.520  37.340   0.402
89304W        W57522  33.269   5.295   2.576
89305W        W57523   1.398  35.600   2.807
89306W        W57524  43.946  37.983   2.911
89307W        W57525  43.547   6.081  13.918
89308W        W57526  18.682   1.701  13.972
89309W        W57527  34.130  18.680   2.218
89310W        W57528   5.875   1.771   0.902
89311W        W57529   0.401  35.395  11.615
89312W        W57530  15.096  44.274  10.633
89313W        W57531   3.262   6.709   4.532
89314W        W57532   7.850   5.923  12.765
89315W        W57533  10.187   6.140  12.415
89316W        W57534  18.029  10.003  11.143
89317W        W57535  20.574  33.969   3.842
89318W        W57536  16.815  42.226   3.318
89319W        W57537  37.357  26.393   2.752
89320W        W57538  19.114  14.306   2.798
89321W        W57539   1.729  12.089  12.131
89322W        W57540   2.398   0.614  12.042
89323W        W57541   5.862  37.175  10.600
89324W        W57542   5.907   0.383  12.789
89325W        W57543  41.211   7.868   2.403
89326W        W57544  16.052  14.693   3.971
89327W        W57545  22.157  21.053   4.542
89328W        W57546  21.230  24.345   1.449
89329W        W57547   2.195   3.969   2.712
89330W        W57548  22.747  19.070  14.694
89331W        W57549  37.874  14.262   3.691
89332W        W57550  21.574   1.921  11.421
89333W        W57551  36.395  43.296   4.174
89334W        W57552  22.348   6.198  11.607
89335W        W57553  19.747  25.794  10.683
89336W        W57554  28.068  27.172   2.552
89337W        W57555  17.819  41.338   1.363
89338W        W57556  34.346  34.092   0.262
89339W        W57557  33.400  11.142   2.283
89340W        W57558  44.941  24.514  10.664
89341W        W57559  28.588  17.141  12.481
89342W        W57560  25.382  37.102  11.006
89343W        W57561   4.681  10.318   4.545
89344W        W57562  43.708  29.138   3.604
89345W        W57563   0.908   6.941  14.576
89346W        W57564  34.362  30.069   3.378
89347W        W57565  16.604  43.684   4.738
89348W        W57566  12.378  13.207   1.196
89349W        W57567  26.026  19.416   0.642
89350W        W57568  22.307  40.323  11.202
89351W        W57569  27.212  21.217  11.620
89352W        W57570  22.467  36.873  14.363
89353W        W57571  33.789   0.326  13.980
89354W        W57572  44.387  35.927   2.919
89355W        W57573  28.831  12.463  10.705
89356W        W57574  37.673  35.636   4.184
89357W        W57575  31.233   6.421   9.704
89358W        W57576  18.345   6.459  13.595
89359W        W57577  42.431  13.947   2.451
89360W        W57578   8.574  13.899   0.949
89361W        W57579  19.751   3.654  12.885
89362W        W57580  11.704  31.954  11.891
89363W        W57581  40.471  22.729   2.260
89364W        W57582  13.689   5.448   3.642
89365W        W57583  25.930   8.631   2.174
89366W        W57584  39.873   5.524   0.968
89367W        W57585   7.748  23.529  14.326
89368W        W57586  33.714  36.059   2.256
89369W        W57587  34.043   5.668   2.440
89370W        W57588  25.979  32.401   1.901
89371W        W57589   2.340  39.422  11.110
89372W        W57590   2.643  32.262   1.539
89373W        W57591  36.140   3.585   3.198
89374W        W57592  12.676  35.678   2.757
89375W        W57593  36.979  26.067  13.504
89376W        W57594  15.112  29.675  11.499
89377W        W57595  38.424  22.671   4.631
89378W        W57596  21.443   4.699   3.356
89379W        W57597  33.426   8.728  14.056
89380W        W57598   0.222  21.077  14.900
89381W        W57599  41.633  20.809  13.806
89382W        W57600  31.634  15.816  14.829
89383W        W57601  20.564   1.045   0.993
89384W        W57602  36.854   7.610  11.552
89385W        W57603  43.955  31.093  14.325
89386W        W57604  42.422  14.619  12.994
89387W        W57605   3.871   5.249  14.285
89388W        W57606   5.890  27.545   0.855
89389W        W57607   4.036  24.274  12.058
89390W        W57608  44.398  36.697  14.803
89391W        W57609  40.863  42.516  13.930
89392W        W57610  18.376   5.924  11.152
89393W        W57611  28.176  16.615   1.907
89394W        W57612   9.654  36.674   2.356
89395W        W57613   0.893   8.871   1.651
89396W        W57614  15.557  31.382   2.721
89397W        W57615  38.523  23.503  13.997
89398W        W57616  23.746  11.359  13.289
89399W        W57617  44.717  37.389   0.496
89400W        W57618  24.494   0.900  14.534
89401W        W57619  39.365  33.789   2.752
89402W        W57620  38.079   8.535   2.910
89403W        W57621  30.666  11.812   0.079
89404W        W57622  15.749   2.251   4.304
89405W        W57623  25.163   9.257  10.683
89406W        W57624  18.596  16.567   1.303
89407W        W57625  23.996   1.402   0.290
89408W        W57626   3.828  20.969   1.867
89409W        W57627   7.372  38.134   1.783
89410W        W57628  11.976  13.781   1.909
89411W        W57629  38.979  37.410   0.450
89412W        W57630  11.782  42.003   4.124
89413W        W57631  41.351  31.143  11.582
89414W        W57632   0.206  40.981   3.720
89415W        W57633  33.985  27.398  11.361
89416W        W57634  21.624  22.424  12.980
89417W        W57635   8.585  39.779   4.158
89418W        W57636  44.694   8.769  11.578
89419W        W57637   7.872  26.429   1.800
89420W        W57638  25.569  29.455  11.186
89421W        W57639  36.047   7.774   0.725
89422W        W57640   1.700  43.241   1.436
89423W        W57641   1.427  43.281  14.728
89424W        W57642  35.984  29.141  10.538
89425W        W57643   0.718  25.762   2.668
89426W        W57644   1.809  13.186  13.492
89427W        W57645  24.948  21.094   4.405
89428W        W57646  18.808   5.975   4.121
89429W        W57647  43.929   3.375   2.729
89430W        W57648  23.138  39.196   1.703
89431W        W57649  18.314  37.376   2.784
89432W        W57650   6.339  15.748   0.270
89433W        W57651   0.610  27.970  12.450
89434W        W57652  19.317   4.822   0.875
89435W        W57653   2.371  26.020   3.802
89436W        W57654  23.042  29.306   3.866
89437W        W57655  27.891  22.038  13.983
89438W        W57656  18.850   0.459  13.210
89439W        W57657  14.834  19.686   0.953
89440W        W57658   1.359  27.142   1.956
89441W        W57659   3.680  34.129  12.905
89442W        W57660   1.065  30.463   2.145
89443W        W57661  12.906   4.915   2.823
89444W        W57662  13.703  22.986   4.670
89445W        W57663  19.508  28.985   2.796
89446W        W57664  11.986  31.333   1.012
89447W        W57665  11.754   4.353   2.630
89448W        W57666  21.915   8.301   1.448
89449W        W57667  28.163  10.426  13.008
89450W        W57668  32.573   2.303   2.157
89451W        W57669  42.110  35.548  11.962
89452W        W57670  15.712  14.704   2.202
89453W        W57671  42.519   4.711   4.624
89454W        W57672  14.132   4.248   0.811
89455W        W57673  12.392  26.778  12.075
89456W        W57674  29.891  24.954   3.938
89457W        W57675   0.691  44.062  12.973
89458W        W57676  35.875   3.561  14.586
89459W        W57677  25.434  42.555   3.860
89460W        W57678   6.168  29.520   0.728
89461W        W57679  22.286   7.356  14.442
89462W        W57680  35.849   6.202  14.008
89463W        W57681  27.371  33.542  13.034
89464W        W57682  28.474  41.071  13.058
89465W        W57683  35.075  31.850   3.190
89466W        W57684  18.813  40.339  12.569
89467W        W57685  20.485  21.024   0.257
89468W        W57686   4.610  42.459   1.808
89469W        W57687  36.538  33.593   1.490
89470W        W57688  16.633  19.725   3.432
89471W        W57689   1.636  17.684   4.489
89472W        W57690  31.489   8.678   1.250
89473W        W57691  44.460   4.481  12.063
89474W        W57692  44.418  24.532   3.605
89475W        W57693  15.358  14.158  14.351
89476W        W57694   0.387  39.764  14.813
89477W        W57695  30.922  26.228  12.962
89478W        W57696  26.000   9.648   1.742
89479W        W57697  24.978  16.726  11.546
89480W        W57698   6.763  36.749   1.803
89481W        W57699  39.945  14.690   0.014
89482W        W57700  33.725  24.145  11.843
89483W        W57701  33.102  37.126  14.147
89484W        W57702   6.403  17.584  12.853
89485W        W57703  44.007  23.061  10.467
89486W        W57704  34.495   6.870   3.576
89487W        W57705  24.460   4.990   0.578
89488W        W57706  31.635  15.797  11.594
89489W        W57707  40.916  30.165  14.541
89490W        W57708  39.852  15.595  10.463
89491W        W57709  43.291  17.488  12.795
89492W        W57710   5.264   2.531   2.270
89493W        W57711  34.888   0.464  12.844
89494W        W57712  37.098   6.271   0.382
89495W        W57713  21.603  36.337  13.360
89496W        W57714   6.003   9.826   4.544
89497W        W57715  39.156  32.889  13.756
89498W        W57716  24.320  26.102  10.432
89499W        W57717  38.118   2.435  12.963
89500W        W57718   7.668   1.824   3.601
89501W        W57719  10.660   5.603  11.178
89502W        W57720  12.573   8.202   4.174
89503W        W57721  14.036   2.836   0.412
89504W        W57722  31.018   5.497   1.781
89505W        W57723  36.957  18.088   1.750
89506W        W57724  21.618  43.251   3.302
89507W        W57725   4.795   5.230  13.382
89508W        W57726  39.095  14.141   2.319
89509W        W57727  10.378  36.799  13.145
89510W        W57728  12.196  24.509   4.961
89511W        W57729  14.623   1.894  11.732
89512W        W57730  39.568   6.763  10.768
89513W        W57731  42.902   5.222   3.173
89514W        W57732  12.512  15.700   4.415
89515W        W57733  40.568  29.053  11.129
89516W        W57734  25.580  32.156  13.294
89517W        W57735  21.899  12.108   3.641
89518W        W57736  19.717  27.749   3.177
89519W        W57737   1.436  10.582  10.247
89520W        W57738  27.449  18.206   2.932
89521W        W57739   6.803  21.233   0.773
89522W        W57740  19.498  24.075   3.081
89523W        W57741  34.525  29.123   3.652
89524W        W57742  17.093  31.664  11.128
89525W        W57743  36.249  41.931  13.601
89526W        W57744  43.521  26.652  11.227
89527W        W57745  13.740  36.792   2.820
89528W        W57746  23.430  42.828   2.271
89529W        W57747  18.861  31.152   3.230
89530W        W57748  44.267   9.367   9.872
89531W        W57749   5.320  29.524  11.528
89532W        W57750  35.341  40.544  11.118
89533W        W57751  21.572  29.995  12.411
89534W        W57752  15.286  28.941  13.402
89535W        W57753  27.567   6.594  13.686
89536W        W57754  38.841   3.842  10.904
89537W        W57755  35.379  29.153   1.549
89538W        W57756  36.072   9.652  11.134
89539W        W57757  41.024  34.074  14.405
89540W        W57758  25.938  15.067   3.423
89541W        W57759  23.891   8.664   3.053
89542W        W57760  40.917  17.611  11.199
89543W        W57761  12.128  41.432  14.088
89544W        W57762  37.589  17.307  12.987
89545W        W57763  32.614  35.032   1.204
89546W        W57764  21.265  27.995   5.157
89547W        W57765  32.848   6.904   3.304
89548W        W57766   3.898  27.723  11.726
89549W        W57767  11.933  36.624  11.089
89550W        W57768  20.692  22.105  11.639
89551W        W57769  23.239  29.467  12.011
89552W        W57770  12.665  19.753   0.711
89553W        W57771  33.559   8.816   4.089
89554W        W57772  36.642  22.793  14.372
89555W        W57773  24.471   2.952  11.982
89556W        W57774  24.364   3.727   0.472
89557W        W57775  12.753   9.830  12.090
89558W        W57776  31.883   0.479  14.398
89559W        W57777  33.642   0.153   0.933
89560W        W57778  33.374  41.910   2.242
89561W        W57779  31.553  22.324  11.601
89562W        W57780  14.044  28.613   4.672
89563W        W57781  16.498  15.022   9.698
89564W        W57782  24.664  18.319   0.761
89565W        W57783  40.893  33.135  10.534
89566W        W57784   8.400  32.335  10.591
89567W        W57785  18.203  27.068   4.314
89568W        W57786  13.112   7.847  12.627
89569W        W57787  10.843  10.227   2.390
89570W        W57788  41.973  13.838   2.168
89571W        W57789  40.754   5.607   0.126
89572W        W57790  36.389  10.332   3.177
89573W        W57791  22.661  35.811   1.718
89574W        W57792  24.920   3.714   0.377
89575W        W57793   8.142  13.935  13.850
89576W        W57794  31.200  25.682   2.889
89577W        W57795  38.398  34.794   3.188
89578W        W57796   5.167  18.240   1.219
89579W        W57797  12.276  13.066  12.580
89580W        W57798  41.278  12.829   1.501
89581W        W57799  28.574  37.374  11.714
89582W        W57800  27.476  35.956   3.772
89583W        W57801  17.754  35.317  12.922
89584W        W57802  35.941  38.790   3.339
89585W        W57803   1.954  40.433  11.582
89586W        W57804  19.041  30.933   4.965
89587W        W57805   4.191  22.467   2.257
89588W        W57806   5.875   4.383  10.675
89589W        W57807  41.347  25.214  14.299
89590W        W57808  39.911  14.057   4.356
89591W        W57809  40.756   3.920   1.681
89592W        W57810   9.867  30.679  12.865
89593W        W57811   3.786  41.893   4.606
89594W        W57812  20.533  31.504   1.593
89595W        W57813   4.177  23.437   0.386
89596W        W57814  33.003  20.471   1.901
89597W        W57815  22.650  42.706  10.704
89598W        W57816  24.998  28.220  11.761
89599W        W57817  41.818  44.951  14.998
89600W        W57818  42.888  20.122  11.176
89601W        W57819  39.292  12.818  14.591
89602W        W57820   9.480  33.354  13.469
89603W        W57821   3.525  26.628  10.784
89604W        W57822  38.267  14.656  12.898
89605W        W57823  31.160  30.600   5.001
89606W        W57824  21.947  24.215   4.496
89607W        W57825  40.221  28.617  12.030
89608W        W57826  29.032  22.724  13.099
89609W        W57827  32.728  12.195  14.391
89610W        W57828  32.817  41.860   4.334
89611W        W57829  44.631  12.333  11.004
89612W        W57830  44.190  12.408  14.343
89613W        W57831   2.802  26.119  11.631
89614W        W57832  34.135   5.302   4.624
89615W        W57833  21.580   3.751   5.169
89616W        W57834  17.661  36.954   4.596
89617W        W57835  32.933  44.398  12.029
89618W        W57836  34.089   8.246  14.397
89619W        W57837   0.741  16.813  14.742
89620W        W57838  33.567  23.166  13.160
89621W        W57839  22.197   7.601   1.836
89622W        W57840   7.218  16.529   1.222
89623W        W57841  18.065  15.329   1.309
89624W        W57842  41.311  36.451   0.812
89625W        W57843  21.331  41.961   2.192
89626W        W57844  31.898  18.104   4.347
89627W        W57845  33.947  38.273   3.181
89628W        W57846  17.193  30.889   2.745
89629W        W57847  28.962  44.794   0.986
89630W        W57848  29.515  12.632  11.598
89631W        W57849  20.795   7.918  11.397
89632W        W57850  16.560   4.974   1.241
89633W        W57851  33.778  36.290   0.761
89634W        W57852  44.969   7.225   4.565
89635W        W57853  38.938  16.333   1.316
89636W        W57854  37.437  34.320  11.511
89637W        W57855  39.496  32.063  14.887
89638W        W57856   1.328  25.261  12.396
89639W        W57857  26.047  44.453   1.637
89640W        W57858  38.504  14.609  13.857
89641W        W57859  32.693  20.321  12.023
89642W        W57860  26.477   5.852   2.168
89643W        W57861  41.386   2.819  13.751
89644W        W57862  10.871  24.006  11.064
89645W        W57863  15.867   6.066   3.157
89646W        W57864   6.765  44.039   2.322
89647W        W57865   8.609   4.204   1.791
89648W        W57866   7.845  34.890   1.270
89649W        W57867  41.877  21.094   3.625
89650W        W57868  23.624  24.007  14.230
89651W        W57869  13.684  21.030  14.433
89652W        W57870  34.671  10.237   2.262
89653W        W57871  44.728  11.845   3.245
89654W        W57872  16.994  17.728  13.345
89655W        W57873  38.078  14.661   2.906
89656W        W57874  18.328  36.460   1.664
89657W        W57875  18.713  31.131  13.849
89658W        W57876  15.575  33.484  10.623
89659W        W57877  14.643  41.772  14.429
89660W        W57878  32.849  30.960   2.276
89661W        W57879  18.818   7.432  14.042
89662W        W57880  23.802  10.838  11.219
89663W        W57881  41.503  22.919  12.485
89664W        W57882  27.903  14.687   0.308
89665W        W57883   8.068  34.062  14.447
89666W        W57884   1.967  27.442   0.488
89667W        W57885  38.547  16.883   0.872
89668W        W57886  17.236   1.512   0.816
89669W        W57887  39.546  24.248   2.832
89670W        W57888   2.978   5.221  14.518
89671W        W57889  39.428  21.265   4.395
89672W        W57890  23.941  30.445  12.952
89673W        W57891  25.774  13.679   5.031
89674W        W57892  33.443   2.420  12.967
89675W        W57893  11.379  15.401  12.008
89676W        W57894  21.241  42.016   0.381
89677W        W57895  35.926   2.891   4.257
89678W        W57896  43.935   5.364  10.956
89679W        W57897  17.273  19.086  11.322
89680W        W57898  10.519  14.275  12.502
89681W        W57899   4.363  18.912   3.288
89682W        W57900  41.784  25.385   3.798
89683W        W57901  24.239  27.648  14.899
89684W        W57902  24.310  37.458   9.807
89685W        W57903   9.865  39.593  11.853
89686W        W57904  29.042  30.085   4.739
89687W        W57905  30.525   1.899  12.087
89688W        W57906   0.804   8.465   2.922
89689W        W57907  11.866   0.288   4.187
89690W        W57908  12.694  30.446  10.748
89691W        W57909  40.526   6.277   3.479
89692W        W57910  15.296   2.484   4.076
89693W        W57911  23.091  25.455   4.609
89694W        W57912  36.896   5.261   2.893
89695W        W57913  14.116  21.631  12.411
89696W        W57914  16.751  13.385  14.282
89697W        W57915  11.138  11.726   2.289
89698W        W57916  34.056  27.932   1.334
89699W        W57917   4.844  25.428  14.695
89700W        W57918   1.918  17.779   1.853
89701W        W57919  12.229  28.375  11.922
89702W        W57920   0.233  17.180   0.328
89703W        W57921  30.181  21.050  11.701
89704W        W57922  33.205  37.997   3.441
89705W        W57923   5.138  32.006  14.044
89706W        W57924   8.893  21.639   1.755
89707W        W57925  38.483  19.578   2.432
89708W        W57926  11.682  22.174  14.043
89709W        W57927  41.038  29.705  13.880
89710W        W57928  21.147  43.365  12.534
89711W        W57929  30.505  11.503  13.822
89712W        W57930  29.123  24.006  12.515
89713W        W57931   3.457  14.327   0.908
89714W        W57932  25.456  40.339   1.090
89715W        W57933  42.449  40.604  12.331
89716W        W57934  10.974  27.484   1.709
89717W        W57935  17.944  27.848  10.959
89718W        W57936   1.204  37.240   1.288
89719W        W57937  30.912  39.469   0.790
89720W        W57938   2.668  37.094   0.737
89721W        W57939  12.579  38.963  10.566
89722W        W57940   3.246  12.302  10.785
89723W        W57941  33.048  35.987  13.028
89724W        W57942  25.601  43.446   4.653
89725W        W57943  20.643  25.999  11.765
89726W        W57944  17.919  14.390  13.999
89727W        W57945  12.316  17.242  13.966
89728W        W57946  37.842  10.695   4.866
89729W        W57947  29.102  26.243   2.834
89730W        W57948  26.964  24.486   3.786
89731W        W57949  44.113  27.657  14.521
89732W        W57950   1.432   3.975   1.189
89733W        W57951  28.456  15.011   2.476
89734W        W57952  40.549  44.840   2.811
89735W        W57953  12.623  21.651   0.950
89736W        W57954   7.871  30.441  13.033
89737W        W57955   6.856  42.320  11.554
89738W        W57956  27.935   0.596   1.689
89739W        W57957  34.063   8.970   2.339
89740W        W57958   3.838   6.726   0.353
89741W        W57959  39.774  41.060  14.939
89742W        W57960   8.418  43.297   0.391
89743W        W57961  31.617   9.218  13.515
89744W        W57962  14.628  32.174   0.394
89745W        W57963  32.476  15.105  12.649
89746W        W57964  10.770  43.605   1.014
89747W        W57965  22.731  26.170   4.500
89748W        W57966   1.917  33.622  14.042
89749W        W57967   2.139  21.023  14.288
89750W        W57968   6.860  18.165  12.426
89751W        W57969  29.856  23.561   0.508
89752W        W57970  43.213  38.216  12.624
89753W        W57971   6.721  19.848   4.590
89754W        W57972  20.007  37.247  14.630
89755W        W57973   5.619  16.786   4.090
89756W        W57974  17.029  12.215  12.960
89757W        W57975   2.426  27.919   2.971
89758W        W57976   3.570  15.619  12.398
89759W        W57977   9.880  15.520  12.646
89760W        W57978  12.094  38.884  13.407
89761W        W57979  40.485   3.004   0.197
89762W        W57980  29.274   8.778  14.169
89763W        W57981  35.074  20.505   1.420
89764W        W57982  44.833  27.153   1.187
89765W        W57983  16.205  41.599  12.569
89766W        W57984  21.936  10.889   3.266
89767W        W57985   5.362  34.090   4.657
89768W        W57986  21.567   0.078  13.558
89769W        W57987   6.275   7.101   4.185
89770W        W57988   7.623   4.005   0.784
89771W        W57989  27.936   2.189  12.482
89772W        W57990  39.500  10.701  14.900
89773W        W57991  35.995  10.214   0.523
89774W        W57992  11.901   5.105   0.960
89775W        W57993  44.496  32.876   3.327
89776W        W57994  40.900  35.332   0.835
89777W        W57995  23.148   1.329   4.987
89778W        W57996  19.169  23.450  13.775
89779W        W57997  17.631  42.468  10.700
89780W        W57998  11.742  24.664   4.080
89781W        W57999  14.577  41.931  12.840
89782W        W58000  24.127  33.552  12.818
89783W        W58001  41.689   3.365   0.489
89784W        W58002  25.559  37.538   1.206
89785W        W58003   5.445  38.045  11.076
89786W        W58004  30.741  14.543   3.653
89787W        W58005  23.631  14.123  10.711
89788W        W58006  25.642  35.401   3.931
89789W        W58007  16.351  43.478  12.519
89790W        W58008  24.978  28.620   4.124
89791W        W58009  30.564  29.449  11.487
89792W        W58010   1.247  21.432  11.112
89793W        W58011  24.114  19.155  14.868
89794W        W58012   9.010  42.594   2.770
89795W        W58013  33.313  38.248   1.332
89796W        W58014   6.389  34.722  10.286
89797W        W58015  15.086  38.211  11.072
89798W        W58016  22.069  22.638  14.736
89799W        W58017  22.571  14.237  10.563
89800W        W58018  40.645   1.464   1.383
89801W        W58019  31.156  19.529   1.629
89802W        W58020  33.295  26.776   0.711
89803W        W58021   5.645  35.068   0.498
89804W        W58022  22.722  12.051  13.410
89805W        W58023  21.938  24.077   0.922
89806W        W58024   7.648  38.141  12.854
89807W        W58025  24.943  29.133   4.593
89808W        W58026   0.752  14.439  12.560
89809W        W58027   0.925  20.003   4.208
89810W        W58028  11.102  15.657   3.771
89811W        W58029  14.849   0.916  14.967
89812W        W58030  14.649  23.044  10.716
89813W        W58031  22.462  15.691   3.241
89814W        W58032   8.328  39.023  10.882
89815W        W58033  34.274   8.287  12.516
89816W        W58034  13.780  36.988  13.927
89817W        W58035  28.109  24.693  11.492
89818W        W58036   4.685   0.708   4.233
89819W        W58037  11.831  32.619   3.820
89820W        W58038  21.670  40.252   2.282
89821W        W58039  21.359  37.022   1.776
89822W        W58040   3.197  13.739   1.669
89823W        W58041   7.685  28.150  11.962
89824W        W58042  22.988  16.020   9.976
89825W        W58043  13.636  22.223   2.870
89826W        W58044  21.066  41.930   2.761
89827W        W58045  41.407  40.984  11.723
89828W        W58046   4.503  33.408   1.412
89829W        W58047  30.933  12.291   3.077
89830W        W58048  40.385  42.555   4.568
89831W        W58049  28.028  33.418   2.091
89832W        W58050   3.552  14.657   1.343
89833W        W58051  13.774  20.729  13.751
89834W        W58052  17.123  29.188   0.829
89835W        W58053  17.419   8.832   5.185
89836W        W58054   7.822  28.500   1.842
89837W        W58055  12.809  13.613  12.111
89838W        W58056  17.652   0.887   4.978
89839W        W58057  41.927  26.367   3.662
89840W        W58058  34.419  42.707  12.821
89841W        W58059   6.611   8.721   4.841
89842W        W58060   3.134   3.705   1.812
89843W        W58061  27.032  42.572  14.335
89844W        W58062  36.296  26.603   9.989
89845W        W58063  34.074  40.342  14.844
89846W        W58064   7.406  29.866   3.432
89847W        W58065  40.266  21.888  14.002
89848W        W58066  28.113  32.744   1.296
89849W        W58067  26.235   3.414   4.208
89850W        W58068   5.158  21.268  13.807
89851W        W58069   4.770  18.539   1.384
89852W        W58070  12.986   5.154  10.982
89853W        W58071  33.472  31.760  14.921
89854W        W58072  19.699  16.777   4.945
89855W        W58073   2.643  21.686  11.458
89856W        W58074  22.222  11.602  12.949
89857W        W58075  18.833  24.191  11.537
89858W        W58076  42.402  18.220  12.416
89859W        W58077  43.439  16.834   1.622
89860W        W58078  19.099  18.302  13.477
89861W        W58079  31.562  34.636  10.655
89862W        W58080   1.082  34.010   2.810
89863W        W58081  44.923   9.227  12.629
89864W        W58082   3.503   2.250   0.911
89865W        W58083  29.181   8.263   1.406
89866W        W58084  34.447  12.230   4.619
89867W        W58085  20.746  15.555   4.126
89868W        W58086  10.662   8.136   2.140
89869W        W58087  40.698  28.784   0.353
89870W        W58088  39.378  33.459   0.956
89871W        W58089  34.686  37.798   1.443
89872W        W58090  38.696  24.497  11.713
89873W        W58091  36.130  32.510  11.779
89874W        W58092  25.114  18.532   0.624
89875W        W58093  39.452  39.335  10.595
89876W        W58094  17.011   5.786   4.544
89877W        W58095  37.240  43.740   2.490
89878W        W58096  35.062  36.385  11.867
89879W        W58097  32.609   9.828   0.432
89880W        W58098  18.860   4.537  13.919
89881W        W58099  35.619  32.337   3.760
89882W        W58100   5.790  15.822  13.099
89883W        W58101  26.546  19.681  10.258
89884W        W58102  20.818  20.945  14.338
89885W        W58103   6.195   6.287   4.743
89886W        W58104  33.313  25.025  14.870
89887W        W58105  44.460  24.762  12.911
89888W        W58106  44.444  11.407  10.213
89889W        W58107   9.495  31.004  13.529
89890W        W58108  44.184  16.838  11.974
89891W        W58109  33.495  23.517   1.816
89892W        W58110  38.989  38.130  10.298
89893W        W58111   1.812  20.947  10.568
89894W        W58112   3.709  21.557  12.956
89895W        W58113  20.647  43.449  12.415
89896W        W58114   4.832   6.741   5.126
89897W        W58115  43.999  18.282   1.846
89898W        W58116   8.797  16.767   3.184
89899W        W58117  11.129  21.255   2.318
89900W        W58118  40.574   1.183  10.707
89901W        W58119  41.661  40.424  12.814
89902W        W58120   1.713  34.325  11.498
89903W        W58121  35.434   8.827  11.031
89904W        W58122  43.786   9.890  10.710
89905W        W58123   1.297   5.877  12.440
89906W        W58124  23.740  32.403  13.473
89907W        W58125  15.348   3.298  11.622
89908W        W58126  29.721   8.991  11.671
89909W        W58127  22.662  31.947  12.338
89910W        W58128  21.095   0.769  14.744
89911W        W58129  29.207  13.292   4.518
89912W        W58130  29.050   9.235  10.652
89913W        W58131  21.159  36.646  13.425
89914W        W58132  41.109   3.365   5.420
89915W        W58133   2.767   5.326  12.388
89916W        W58134   9.929   3.944   2.917
89917W        W58135  11.121  37.093  11.931
89918W        W58136  41.833  17.606   4.897
89919W        W58137  39.407  17.427  11.917
89920W        W58138  44.572  32.218  10.761
89921W        W58139  19.519  15.609  12.399
89922W        W58140  36.053  16.357  10.774
89923W        W58141  39.755  40.375   0.756
89924W        W58142  30.600  37.979  12.507
89925W        W58143  12.152  33.351   2.683
89926W        W58144  13.414  36.134  12.408
89927W        W58145   3.774  28.367   3.364
89928W        W58146  37.934  25.487   4.593
89929W        W58147  26.815  15.312  13.428
89930W        W58148   8.660   6.150   3.135
89931W        W58149  14.799  44.005   0.847
89932W        W58150   9.462   5.947  12.876
89933W        W58151  18.597   9.964   3.771
89934W        W58152  17.386   6.831   1.814
89935W        W58153  27.167   1.981  13.043
89936W        W58154   9.709  29.810  11.148
89937W        W58155  41.830  40.623  14.478
89938W        W58156  43.561  12.700   1.130
89939W        W58157   9.993  28.995  13.286
89940W        W58158  41.011  10.108   0.839
89941W        W58159  27.938  14.095  11.591
89942W        W58160  41.478  10.828  10.410
89943W        W58161  26.907   7.726   2.317
89944W        W58162   3.483   6.826  14.957
89945W        W58163  25.553  44.908   2.206
89946W        W58164  31.672  20.892  14.394
89947W        W58165  43.080   7.286  13.824
89948W        W58166  24.121  31.183  12.455
89949W        W58167  37.284  37.152   1.123
89950W        W58168  32.596  17.905  13.110
89951W        W58169  17.665  19.194  12.602
89952W        W58170   0.452  19.826  11.579
89953W        W58171  31.903   0.215   3.614
89954W        W58172  37.848  18.595   0.116
89955W        W58173   2.459   0.770   4.621
89956W        W58174  24.135  21.624  10.797
89957W        W58175  12.987  10.682  10.701
89958W        W58176  11.453   9.358   0.454
89959W        W58177   9.349  25.984  10.570
89960W        W58178   3.736  26.027   4.183
89961W        W58179  35.209  32.599   0.055
89962W        W58180  11.740   9.802  10.601
89963W        W58181  28.457  36.588  10.912
89964W        W58182   1.260  38.559  11.576
89965W        W58183  18.476  20.746   4.041
89966W        W58184  19.248  27.960   3.286
89967W        W58185  29.993  18.689  14.911
89968W        W58186  13.634  39.983   2.142
89969W        W58187  36.615  18.033   4.775
89970W        W58188  34.296  42.210  13.899
89971W        W58189  10.434   4.003   3.005
89972W        W58190  31.706   5.877  13.467
89973W        W58191  23.942  23.084   4.569
89974W        W58192  29.412  14.077   2.056
89975W        W58193   2.392  38.917   2.370
89976W        W58194  14.463  30.035   0.965
89977W        W58195  25.987   7.981   0.503
89978W        W58196  21.107  10.348   1.193
89979W        W58197  32.049  44.066   4.635
89980W        W58198   4.983   9.346  10.138
89981W        W58199  42.521   8.053  12.795
89982W        W58200   2.069  33.066  11.051
89983W        W58201  29.871  26.479   3.193
89984W        W58202   7.681  23.427  13.832
89985W        W58203  32.433  42.404   0.175
89986W        W58204   0.734  35.338   4.064
89987W        W58205   0.060  31.427   0.894
89988W        W58206  33.426   3.067   1.298
89989W        W58207  36.897  30.682  12.464
89990W        W58208  10.703   1.620  12.468
89991W        W58209  27.426  11.240   2.222
89992W        W58210  44.073  21.284   3.406
89993W        W58211  44.297  38.430   4.138
89994W        W58212  19.254  30.058  13.429
89995W        W58213   9.786  15.590   3.200
89996W        W58214   2.762  22.018   2.227
89997W        W58215   4.787  29.640   2.677
89998W        W58216  37.583   9.282  14.082
89999W        W58217  29.060  31.075  14.738
90000W        W58218  40.616  36.903   3.154
90001W        W58219  39.418  29.051  12.356
90002W        W58220  15.338   5.255   1.367
90003W        W58221  36.054   8.099   1.800
90004W        W58222  31.939  42.270   0.809
90005W        W58223  33.473  37.087   4.513
90006W        W58224  31.052  30.561   2.239
90007W        W58225  28.991  18.870   5.492
90008W        W58226   9.753  44.333  13.442
90009W        W58227   3.445  31.927  12.944
90010W        W58228  20.686  35.329   0.506
90011W        W58229  29.729   6.000   4.068
90012W        W58230  23.075  13.892   1.475
90013W        W58231   6.788  37.432  14.629
90014W        W58232  11.311  28.683  10.661
90015W        W58233  27.960  32.367  13.901
90016W        W58234  25.362   4.864   0.501
90017W        W58235  15.060   4.781   9.989
90018W        W58236  39.645   7.285   2.319
90019W        W58237  27.657  11.343   3.153
90020W        W58238  44.329   6.874  11.608
90021W        W58239   6.192   6.194  14.019
90022W        W58240  38.393  43.826   1.323
90023W        W58241  38.892   5.306  13.110
90024W        W58242  15.262  23.308   2.717
90025W        W58243  27.327  10.329  11.549
90026W        W58244   6.411  29.954  14.975
90027W        W58245  15.780  25.133   1.520
90028W        W58246  35.613  11.653   4.764
90029W        W58247  35.412  33.908  12.269
90030W        W58248  41.026   0.044   4.547
90031W        W58249  16.720  33.584  14.653
90032W        W58250  26.343   0.393  14.465
90033W        W58251  24.903   3.816   3.606
90034W        W58252  26.972  33.541   3.549
90035W        W58253  19.245  20.501   3.600
90036W        W58254  35.905  41.107  10.783
90037W        W58255   5.616  16.576  12.636
90038W        W58256   2.177  21.341   2.095
90039W        W58257  12.799   0.528   3.729
90040W        W58258  34.093  17.472   3.233
90041W        W58259  20.554  15.885   3.694
90042W        W58260   3.735  13.266   0.508
90043W        W58261  29.002   7.505   2.679
90044W        W58262  39.337  38.030   0.870
90045W        W58263   6.793  35.254  13.511
90046W        W58264  41.026  36.008  13.558
90047W        W58265  42.472  29.621   0.200
90048W        W58266  12.771  27.951  11.632
90049W        W58267   0.342  30.730  12.071
90050W        W58268  11.805  35.074  13.478
90051W        W58269  36.943   2.791  13.444
90052W        W58270  30.941  19.610  10.871
90053W        W58271  27.671  12.881   3.670
90054W        W58272   0.808  31.696  12.589
90055W        W58273  36.520   0.499   4.546
90056W        W58274  13.454   6.768  10.666
90057W        W58275  26.097  14.284   2.888
90058W        W58276  32.934  32.877  12.814
90059W        W58277  14.891  34.294   4.599
90060W        W58278  14.750   3.619   2.291
90061W        W58279  25.946  32.522   1.381
90062W        W58280  15.585  24.309  11.783
90063W        W58281   4.699   1.444  12.026
90064W        W58282  23.295  24.486  12.424
90065W        W58283   9.455  43.500   0.238
90066W        W58284   0.356  16.755   2.600
90067W        W58285  11.548  14.151  11.623
90068W        W58286  35.209  33.206  11.152
90069W        W58287   4.810   0.274   2.656
90070W        W58288  29.988  10.385   0.897
90071W        W58289  36.701  27.780   3.568
90072W        W58290   6.869   0.389  12.767
90073W        W58291   0.357  28.170   0.225
90074W        W58292   0.707   3.465   0.855
90075W        W58293  12.213  19.622  14.368
90076W        W58294  19.323   8.280   2.504
90077W        W58295  28.660  41.402   2.314
90078W        W58296   6.187  10.865   4.137
90079W        W58297  38.461   0.673   3.168
90080W        W58298  16.487  23.413   4.043
90081W        W58299   3.417   4.405  11.542
90082W        W58300  35.994  20.275  10.641
90083W        W58301  35.538  37.328  13.371
90084W        W58302  31.659  33.082  11.602
90085W        W58303  20.787  21.807  12.060
90086W        W58304  36.094  15.545  11.135
90087W        W58305  10.595  41.496   2.806
90088W        W58306  17.051  28.938  14.878
90089W        W58307  17.348  15.772   2.456
90090W        W58308  18.677  14.492  13.786
90091W        W58309  39.976  25.320  13.621
90092W        W58310  17.786  35.557   3.696
90093W        W58311  22.579  23.466  10.238
90094W        W58312   9.187  27.492  11.681
90095W        W58313   6.811   5.444  14.894
90096W        W58314  24.160  44.472   2.140
90097W        W58315  11.320  36.214   1.362
90098W        W58316  44.870  35.818   0.094
90099W        W58317  19.641   1.909  13.562
90100W        W58318   2.528  32.080  10.063
90101W        W58319  40.891   1.105  10.297
90102W        W58320  35.170   8.829  12.897
90103W        W58321   6.253  22.860   1.313
90104W        W58322  38.414  26.528   0.878
90105W        W58323  42.321  31.472   1.196
90106W        W58324  19.740  14.200   3.148
90107W        W58325  35.436  16.820  14.937
90108W        W58326   4.766   0.840   4.780
90109W        W58327  26.824  38.071  12.919
90110W        W58328   6.530   5.884   1.160
90111W        W58329  23.951  37.634   2.946
90112W        W58330  24.284   1.928  14.479
90113W        W58331  42.518   0.272   2.781
90114W        W58332  17.297  18.775   1.484
90115W        W58333   5.193   4.462  12.143
90116W        W58334   1.704  42.813   2.376
90117W        W58335  14.073  27.457  14.777
90118W        W58336  21.245  41.794  11.641
90119W        W58337  26.969  42.051  14.365
90120W        W58338  33.936  11.421   2.250
90121W        W58339  30.430   3.268   0.827
90122W        W58340  23.194   4.990   0.786
90123W        W58341  40.994  34.437  11.434
90124W        W58342  20.325  36.452   1.553
90125W        W58343   3.027  27.690  14.875
90126W        W58344  40.068   1.231   4.694
90127W        W58345  30.995  35.037  14.921
90128W        W58346  17.173  39.403   3.379
90129W        W58347  44.674  36.238  14.839
90130W        W58348  30.931  26.551  12.555
90131W        W58349  16.709  35.149  12.723
90132W        W58350  18.323  26.047   1.355
90133W        W58351  12.218  35.391  11.814
90134W        W58352  32.916  36.100   2.638
90135W        W58353   9.782  38.314  14.453
90136W        W58354   1.761  18.017   2.388
90137W        W58355   0.748  16.641   4.456
90138W        W58356  27.382  13.254  11.808
90139W        W58357  29.973  44.388  10.324
90140W        W58358  26.517  39.366  10.956
90141W        W58359  23.653   5.782  11.019
90142W        W58360   6.343  26.900  14.204
90143W        W58361  17.225  13.677   0.417
90144W        W58362  17.035  35.630  11.732
90145W        W58363  28.346  17.812   0.409
90146W        W58364  19.263  26.666  14.232
90147W        W58365  37.862  18.475   2.906
90148W        W58366  44.165  14.216  12.072
90149W        W58367  29.311   2.919   0.211
90150W        W58368  38.641  23.661  11.176
90151W        W58369   9.206  14.202   1.468
90152W        W58370  31.058  29.476  11.611
90153W        W58371  19.134   9.281   4.041
90154W        W58372  10.229  38.116  13.523
90155W        W58373  41.262  23.176   0.469
90156W        W58374  20.263  40.841   1.817
90157W        W58375   3.752  29.007   0.251
90158W        W58376  18.531  43.503   2.927
90159W        W58377  21.842  15.673  11.746
90160W        W58378  38.574  37.571   3.614
90161W        W58379  12.231  22.498   0.525
90162W        W58380  34.043  39.315  10.589
90163W        W58381  32.776   6.253  10.671
90164W        W58382   6.918  29.539  13.813
90165W        W58383  33.181  16.582   2.418
90166W        W58384  17.785  40.844   1.202
90167W        W58385   6.532  40.209   5.574
90168W        W58386  15.348  42.264   1.176
90169W        W58387   8.241  31.166  11.981
90170W        W58388  42.201   3.938   3.160
90171W        W58389   5.903  16.992  14.469
90172W        W58390  13.673   8.160  13.946
90173W        W58391  32.991  14.104  13.249
90174W        W58392   9.418   2.992  12.521
90175W        W58393  34.435  11.425   3.570
90176W        W58394  38.664  28.073   4.637
90177W        W58395  29.992  29.695  10.298
90178W        W58396  41.646   8.092  14.297
90179W        W58397  32.435  39.339   0.883
90180W        W58398   7.380  25.042   3.758
90181W        W58399  37.014  34.860  11.455
90182W        W58400   8.294   3.632   1.191
90183W        W58401  12.618  27.910   1.477
90184W        W58402  27.974   2.975   2.676
90185W        W58403   7.275  19.497  14.462
90186W        W58404  24.064  36.925   2.172
90187W        W58405  43.255   2.820   3.264
90188W        W58406  28.285  24.586   1.886
90189W        W58407  28.215   4.476   4.607
90190W        W58408  12.633  35.188   3.648
90191W        W58409  11.197  26.921   2.585
90192W        W58410  44.284  18.862  14.898
90193W        W58411  13.226  18.305   0.373
90194W        W58412  19.592   3.872   2.716
90195W        W58413  23.135  28.734  13.430
90196W        W58414   0.702  14.888   2.605
90197W        W58415  32.332  17.383  10.599
90198W        W58416  17.502  30.478  13.380
90199W        W58417  16.078   0.407   3.379
90200W        W58418  28.056  14.786   2.240
90201W        W58419  16.253  18.194   3.634
90202W        W58420  19.230  31.255   4.133
90203W        W58421  39.957  20.093   1.795
90204W        W58422  13.053   8.874  11.083
90205W        W58423  10.656   6.129  11.168
90206W        W58424  42.676  17.813  11.502
90207W        W58425  43.070  24.225  13.421
90208W        W58426  13.357  29.845  14.808
90209W        W58427   4.744  14.425  11.472
90210W        W58428  41.484  25.987  11.429
90211W        W58429  10.835  17.258  10.703
90212W        W58430  21.199   7.287  11.927
90213W        W58431  21.479  26.447  12.648
90214W        W58432   2.250  17.664  12.100
90215W        W58433  12.373   9.653   4.334
90216W        W58434   5.923  14.527  13.492
90217W        W58435   7.257  10.634  11.133
90218W        W58436  37.514  27.476   4.276
90219W        W58437  44.530  13.574   1.662
90220W        W58438  38.133  21.926   2.266
90221W        W58439  19.132   3.485  14.393
90222W        W58440  20.007  25.903  12.483
90223W        W58441  27.783  38.791  13.555
90224W        W58442  30.094   8.963   4.977
90225W        W58443  39.421  23.219  14.808
90226W        W58444  16.909  10.586  14.740
90227W        W58445  35.547  42.240  14.334
90228W        W58446   7.231  25.530  11.579
90229W        W58447  22.037  44.684   0.626
90230W        W58448  15.209  44.560  11.049
90231W        W58449  23.583  33.146  10.144
90232W        W58450  17.494  34.540  12.489
90233W        W58451  29.160  30.095  12.995
90234W        W58452   6.784  24.178   4.624
90235W        W58453  36.064  40.515   1.711
90236W        W58454  39.610  33.140  13.786
90237W        W58455  40.601  43.336  11.191
90238W        W58456   7.522  13.278   4.425
90239W        W58457   6.160  22.185   3.912
90240W        W58458  36.991   7.110   2.634
90241W        W58459  12.494  31.418  11.505
90242W        W58460  21.443   3.075  12.723
90243W        W58461   5.275   6.384   2.346
90244W        W58462   0.814  42.460  12.011
90245W        W58463  43.823  26.949  13.425
90246W        W58464  43.819  30.058   0.290
90247W        W58465   8.323  26.698   1.754
90248W        W58466  39.068  23.682   1.280
90249W        W58467  28.614  30.279   3.652
90250W        W58468  20.792   0.312  12.864
90251W        W58469   6.663  42.867   2.342
90252W        W58470   8.143  43.331   1.726
90253W        W58471   4.257  23.158  13.845
90254W        W58472  38.882   1.010  14.358
90255W        W58473  18.060  26.590  12.220
90256W        W58474  39.367   9.350   3.578
90257W        W58475  10.125   8.324   4.766
90258W        W58476  44.863   0.475   3.675
90259W        W58477   7.830  43.092  12.066
90260W        W58478  13.832   6.860  11.394
90261W        W58479  42.491  34.964  13.595
90262W        W58480  11.682  22.235   1.867
90263W        W58481  17.441  10.042   4.170
90264W        W58482  44.978  21.669   3.769
90265W        W58483  11.283  11.400  12.004
90266W        W58484   8.235  12.122   2.672
90267W        W58485  23.969  27.952  10.485
90268W        W58486  16.424  43.933   4.337
90269W        W58487   6.413  15.558   3.931
90270W        W58488   7.164  14.773   2.220
90271W        W58489   6.683  34.869   3.799
90272W        W58490   8.404  44.766   2.531
90273W        W58491  12.313  44.702  13.892
90274W        W58492  17.511  37.403  14.341
90275W        W58493  30.635   3.453   2.266
90276W        W58494   9.229   4.834   0.876
90277W        W58495  29.492   7.127   5.022
90278W        W58496  21.201  39.414  13.030
90279W        W58497  25.910  16.620   1.099
90280W        W58498  44.441  16.600  14.247
90281W        W58499  39.443  23.017   4.488
90282W        W58500  41.858  39.909  13.108
90283W        W58501  32.149  10.884  14.417
90284W        W58502  23.770  11.024  12.586
90285W        W58503  41.722  27.826  11.311
90286W        W58504  39.958  41.416   0.835
90287W        W58505  40.724  26.910   0.359
90288W        W58506   0.521  44.343   1.341
90289W        W58507  22.008  43.747  13.500
90290W        W58508  16.156  42.825   3.209
90291W        W58509  23.736   2.279   0.515
90292W        W58510  44.102  22.793   2.176
90293W        W58511  16.813  24.110  10.635
90294W        W58512  43.221   3.419   4.678
90295W        W58513   5.173   7.175   1.357
90296W        W58514  18.539  32.976  13.012
90297W        W58515  36.463  18.269  13.362
90298W        W58516  18.104   6.693  12.607
90299W        W58517  40.513  39.843  10.766
90300W        W58518  28.486  27.476  14.290
90301W        W58519  43.262  30.270  13.566
90302W        W58520  28.389  44.453   4.072
90303W        W58521  38.306   7.322   2.842
90304W        W58522   1.003  36.383  11.249
90305W        W58523  19.232   1.252   1.448
90306W        W58524  34.708  21.072  14.348
90307W        W58525  18.107  18.098   0.689
90308W        W58526  10.160   3.493   0.869
90309W        W58527  17.073   7.650   5.013
90310W        W58528  28.728  44.127  14.484
90311W        W58529  28.567  13.688  13.958
90312W        W58530  42.930  26.009  14.476
90313W        W58531  41.034  21.782   3.328
90314W        W58532   0.358  24.688  11.909
90315W        W58533  23.298  42.365  14.789
90316W        W58534   0.420  43.229  14.912
90317W        W58535   1.506  28.007   4.326
90318W        W58536  12.374  39.285   4.091
90319W        W58537  29.027  12.884  11.668
90320W        W58538  15.602   8.818  11.506
90321W        W58539  34.358   2.208   1.407
90322W        W58540   8.390  16.850  11.616
90323W        W58541  11.084  44.285  11.976
90324W        W58542  24.286  30.682   0.865
90325W        W58543  41.966  36.421   4.108
90326W        W58544  26.162  28.654   3.208
90327W        W58545  34.678  21.146   4.472
90328W        W58546   3.915  42.790   3.670
90329W        W58547  19.480   5.957  11.976
90330W        W58548  10.258  15.788  12.356
90331W        W58549   6.162  20.370  11.083
90332W        W58550  37.340  44.826  13.330
90333W        W58551  23.696  17.811   1.288
90334W        W58552   4.825   3.267   1.641
90335W        W58553  16.725  23.356   3.253
90336W        W58554  37.578  19.785  13.160
90337W        W58555   1.323  27.039  12.992
90338W        W58556   2.194   9.610  12.979
90339W        W58557  33.536  43.860  13.305
90340W        W58558  33.869   6.578   1.739
90341W        W58559  42.444   5.054  13.546
90342W        W58560  25.128  44.318  11.786
90343W        W58561   4.134  14.816  13.310
90344W        W58562  39.470  24.692  12.844
90345W        W58563  30.858  37.625  10.331
90346W        W58564  38.480  25.062   3.430
90347W        W58565   4.670  14.596  13.272
90348W        W58566  32.742   1.319  10.337
90349W        W58567  32.381  30.861   3.306
90350W        W58568  17.304   5.182   1.322
90351W        W58569  31.145  18.174   2.758
90352W        W58570  37.575   4.947  13.589
90353W        W58571  43.154   9.874  14.885
90354W        W58572  34.897  13.241  10.438
90355W        W58573   7.991  35.128   3.405
90356W        W58574   6.091  12.318   0.891
90357W        W58575  39.963  15.289  12.310
90358W        W58576   8.448   8.127   1.050
90359W        W58577   2.124  39.064   3.222
90360W        W58578  35.164  10.421   0.855
90361W        W58579  15.144  41.916   1.935
90362W        W58580  38.447  24.025  10.462
90363W        W58581  21.277  23.056   3.279
90364W        W58582  33.810  44.489  14.363
90365W        W58583  34.455  28.139  13.898
90366W        W58584  29.494  21.275  12.070
90367W        W58585   4.784  40.795  11.419
90368W        W58586  44.939   9.454   1.175
90369W        W58587  34.127   9.759  13.371
90370W        W58588  31.552  26.593  10.182
90371W        W58589  37.864  35.179   1.782
90372W        W58590  40.040  18.683  11.593
90373W        W58591  27.614   4.692   2.320
90374W        W58592   2.385  40.855   2.445
90375W        W58593  33.578  12.461   2.641
90376W        W58594  17.137  14.621  14.298
90377W        W58595  16.028   4.722  11.415
90378W        W58596  30.991  36.204  12.120
90379W        W58597   2.498   4.814   0.818
90380W        W58598   3.001  29.852   0.975
90381W        W58599  21.647   9.597   2.328
90382W        W58600  36.528  38.812  12.859
90383W        W58601   5.504   6.647  12.630
90384W        W58602   3.204   2.742   1.767
90385W        W58603  33.529  11.971   2.766
90386W        W58604  39.362   4.926  12.059
90387W        W58605  34.538  12.233  12.941
90388W        W58606   6.603  20.329  12.000
90389W        W58607  20.583   3.457  12.130
90390W        W58608   2.683  28.452   3.639
90391W        W58609  32.648   7.578  12.607
90392W        W58610  29.088  17.192   3.108
90393W        W58611   7.942   3.936  11.933
90394W        W58612  11.138  30.409   3.735
90395W        W58613   8.687   5.719   0.940
90396W        W58614   2.585  36.838   4.852
90397W        W58615  28.769  11.812   4.505
90398W        W58616   9.471   3.095  13.337
90399W        W58617  21.492   3.628   2.350
90400W        W58618  19.306  12.260  11.372
90401W        W58619  39.016  19.363   1.223
90402W        W58620  41.905  15.547   0.875
90403W        W58621  26.840  35.656   1.331
90404W        W58622   9.719  25.251   4.085
90405W        W58623  44.492   2.948  13.578
90406W        W58624  12.123   9.196   3.495
90407W        W58625  26.468  35.808  12.466
90408W        W58626  30.029  42.436   0.820
90409W        W58627   4.953  38.590   1.953
90410W        W58628  13.448  23.323   2.004
90411W        W58629  20.586  41.687  14.162
90412W        W58630  34.231   4.794   0.911
90413W        W58631  35.095  43.976   4.432
90414W        W58632  41.362  23.372  14.794
90415W        W58633  19.113  44.231  12.533
90416W        W58634  35.100  32.736   4.592
90417W        W58635  40.772   1.392   0.065
90418W        W58636  35.064  40.489   1.020
90419W        W58637  36.192  34.598   2.286
90420W        W58638  21.735  19.808   4.025
90421W        W58639  40.313  11.379  11.040
90422W        W58640  17.140   7.784   1.027
90423W        W58641  28.563  10.859   3.200
90424W        W58642  15.807  30.075  13.992
90425W        W58643  32.573  23.251   1.945
90426W        W58644  17.575  38.249   3.677
90427W        W58645  39.965   3.020  11.174
90428W        W58646  11.464  37.704   1.760
90429W        W58647   4.958  44.416  13.074
90430W        W58648   5.254  38.517  11.215
90431W        W58649   8.309  19.682  12.210
90432W        W58650   2.556  42.511  12.504
90433W        W58651  18.684  24.440   0.283
90434W        W58652  22.234   2.173   4.017
90435W        W58653  16.577  30.953   4.695
90436W        W58654  39.573   1.810   1.929
90437W        W58655  19.182  28.800   4.709
90438W        W58656  24.459  26.986  12.140
90439W        W58657  19.846  20.691  13.502
90440W        W58658  11.794  44.578  11.381
90441W        W58659   9.419  40.973   1.226
90442W        W58660  19.184   3.446  13.868
90443W        W58661  19.706   0.045   4.988
90444W        W58662  10.463   9.212   4.664
90445W        W58663  41.056  39.911   1.332
90446W        W58664  26.921  38.035  11.099
90447W        W58665  12.996   0.470   2.717
90448W        W58666  39.835   0.024   2.460
90449W        W58667  43.356  23.769  12.159
90450W        W58668  35.742   5.497   4.292
90451W        W58669   5.167  29.356   2.855
90452W        W58670   0.763   7.640  11.376
90453W        W58671  18.725  16.491  11.538
90454W        W58672  27.624  41.430   3.258
90455W        W58673  38.857  23.060  12.900
90456W        W58674   7.228  37.279  13.848
90457W        W58675  12.289  36.521  13.808
90458W        W58676  37.312  10.435   2.731
90459W        W58677  29.646  20.281  11.219
90460W        W58678  44.779  35.373  14.810
90461W        W58679   1.528  18.629  12.533
90462W        W58680  15.099  41.882  12.953
90463W        W58681   5.940  23.257   1.709
90464W        W58682  31.483  22.205  13.477
90465W        W58683  26.990  21.920   3.649
90466W        W58684  16.888   6.134  13.014
90467W        W58685  40.832  16.304   2.218
90468W        W58686  19.382  20.024  11.156
90469W        W58687  41.928  35.288   4.179
90470W        W58688  34.946  28.638  14.385
90471W        W58689   7.778  19.766  14.320
90472W        W58690   6.468  33.451   2.461
90473W        W58691  27.644   4.134   3.840
90474W        W58692  29.930  10.275  14.469
90475W        W58693   7.582   4.423   0.506
90476W        W58694  10.100  28.586   3.365
90477W        W58695  13.338  14.418   4.209
90478W        W58696  25.076  14.090   4.140
90479W        W58697  34.589  35.812   2.159
90480W        W58698  31.794   0.109  12.513
90481W        W58699  17.039  22.986  12.477
90482W        W58700  19.623  25.930  13.637
90483W        W58701  31.618   4.647   4.488
90484W        W58702   0.573  41.736   3.996
90485W        W58703  27.113  36.401  11.042
90486W        W58704  40.245  40.808   2.059
90487W        W58705   0.467  19.641  10.754
90488W        W58706   0.276   4.990   4.226
90489W        W58707  22.161   4.750   2.651
90490W        W58708   0.648  13.295  14.181
90491W        W58709   6.879   9.172  10.674
90492W        W58710  35.573  43.283  11.033
90493W        W58711  12.921   9.922  12.933
90494W        W58712  28.967  39.541   0.246
90495W        W58713  38.338   1.571  10.142
90496W        W58714  11.610  11.122   1.660
90497W        W58715  12.551  41.469   4.519
90498W        W58716  23.143  20.396   4.594
90499W        W58717  19.721   0.307   2.275
90500W        W58718  35.502   9.203  10.667
90501W        W58719  41.310  32.580  13.419
90502W        W58720  37.039  14.712  11.565
90503W        W58721  13.592   5.664   0.454
90504W        W58722  13.633  33.428  13.089
90505W        W58723  27.089  44.412  10.877
90506W        W58724  30.924  40.014  13.972
90507W        W58725  36.425  29.463   0.301
90508W        W58726   2.398  30.239  13.889
90509W        W58727   9.444  25.704  10.996
90510W        W58728  19.408  39.419  13.021
90511W        W58729  41.805  10.604   0.668
90512W        W58730  38.257  18.160   1.231
90513W        W58731  33.372  30.538  11.032
90514W        W58732   5.375   5.753   2.024
90515W        W58733  12.350  13.213   2.687
90516W        W58734  25.205   1.494  13.565
90517W        W58735  25.431  13.533   0.773
90518W        W58736  18.658  44.342  10.475
90519W        W58737  21.109  22.907   0.987
90520W        W58738  24.558   2.468  11.858
90521W        W58739   2.034  33.856   2.801
90522W        W58740  42.164   5.139   0.768
90523W        W58741  37.424  34.609  10.619
90524W        W58742  25.779  36.424   0.309
90525W        W58743  38.432  19.776   2.906
90526W        W58744  12.868  22.553  14.731
90527W        W58745  19.958  40.491   2.049
90528W        W58746  35.078  44.278  13.877
90529W        W58747  29.955  26.202   0.163
90530W        W58748  35.613  20.774  14.824
90531W        W58749   4.211  27.652  12.764
90532W        W58750  32.838  26.643  13.932
90533W        W58751  42.131  38.773  13.889
90534W        W58752  25.098   8.792   4.276
90535W        W58753  26.653  27.349   2.906
90536W        W58754  31.189   4.713  12.855
90537W        W58755   5.203  28.235   1.426
90538W        W58756  37.041  43.925  11.965
90539W        W58757  34.736  19.652   1.505
90540W        W58758  29.693   1.641  11.601
90541W        W58759  28.992  24.689  13.883
90542W        W58760   2.698  41.011  10.698
90543W        W58761  42.015   1.836   0.583
90544W        W58762  10.168  22.964  13.294
90545W        W58763  23.137  26.603  10.743
90546W        W58764  23.587  31.657   3.236
90547W        W58765  10.145  37.425   5.029
90548W        W58766   5.135  21.317  12.081
90549W        W58767   5.278   3.887  12.748
90550W        W58768  16.653  29.164  13.142
90551W        W58769  19.449  12.152  13.208
90552W        W58770  26.915  28.156   1.356
90553W        W58771   7.840  28.567   3.914
90554W        W58772  18.219  36.640  11.116
90555W        W58773  16.431  20.439  12.943
90556W        W58774   8.813  27.938  13.923
90557W        W58775  41.772  14.351   1.315
90558W        W58776  21.022  29.687  14.389
90559W        W58777  21.869  21.064  13.130
90560W        W58778  41.639  32.666  12.492
90561W        W58779  37.619  33.975  14.290
90562W        W58780  23.825  18.564  13.441
90563W        W58781   7.858  36.985   0.925
90564W        W58782  30.229   6.121   3.942
90565W        W58783  27.573  32.660   0.748
90566W        W58784  27.761   2.388  11.136
90567W        W58785  44.467  43.596  14.096
90568W        W58786  14.647  26.248   3.370
90569W        W58787  29.915  44.952   4.167
90570W        W58788   3.148  21.250   3.246
90571W        W58789  10.566  19.526   2.749
90572W        W58790  31.022   5.675   3.191
90573W        W58791  15.752   2.772   3.559
90574W        W58792  20.114  37.912  10.450
90575W        W58793  41.289  32.073  13.279
90576W        W58794  14.270   8.420  11.144
90577W        W58795   1.814  38.766  12.460
90578W        W58796   3.950  16.483   4.775
90579W        W58797  31.468   8.331   2.186
90580W        W58798  16.293  22.964  13.020
90581W        W58799  15.719  37.265   0.928
90582W        W58800  44.331  20.112  12.090
90583W        W58801  20.200  44.804   1.206
90584W        W58802  12.604  12.391   1.684
90585W        W58803  15.594   5.017   4.973
90586W        W58804  28.063   1.983  12.022
90587W        W58805  19.116  27.663   0.121
90588W        W58806  25.456  30.206  10.713
90589W        W58807  26.720   4.208  14.707
90590W        W58808   9.161  33.421   1.346
90591W        W58809  13.573  28.577   2.368
90592W        W58810  23.739   4.392  12.162
90593W        W58811  27.871  19.344   1.214
90594W        W58812  34.125  31.031   3.627
90595W        W58813  25.035   7.882   2.474
90596W        W58814  33.382   0.397   2.381
90597W        W58815  31.038   0.097   3.095
90598W        W58816  36.855  32.493   2.579
90599W        W58817  32.434  29.886  12.644
90600W        W58818  42.953   5.207   2.261
90601W        W58819  13.365  44.035  14.044
90602W        W58820   6.500  32.428   0.512
90603W        W58821  43.284  10.864   3.479
90604W        W58822   9.951  16.576   0.220
90605W        W58823  18.318  19.033   3.936
90606W        W58824  28.205  37.121  13.519
90607W        W58825  38.384   6.873   3.762
90608W        W58826   8.398  19.159  10.917
90609W        W58827  14.786  27.183  11.036
90610W        W58828  17.836  19.770  11.129
90611W        W58829  24.981   6.985  14.308
90612W        W58830  37.441   1.773  11.029
90613W        W58831  44.874  33.991  14.878
90614W        W58832  28.002  10.461  11.044
90615W        W58833  26.234  34.328   0.859
90616W        W58834   8.772  18.673  10.234
90617W        W58835  36.324   6.892  14.295
90618W        W58836   4.973  11.771   0.514
90619W        W58837  19.754   6.847  10.793
90620W        W58838  34.123  38.661  11.422
90621W        W58839  17.803   7.495  13.815
90622W        W58840   8.908  28.018   4.103
90623W        W58841  19.981  32.126   2.776
90624W        W58842  17.634   6.285   1.672
90625W        W58843   5.766  10.201  14.045
90626W        W58844  13.520  35.065   3.242
90627W        W58845  40.969  31.573  14.307
90628W        W58846  26.619   3.222   0.675
90629W        W58847  31.391  18.348   3.160
90630W        W58848  43.903  44.133   3.918
90631W        W58849   6.188   8.405   4.536
90632W        W58850  42.453  43.101  14.542
90633W        W58851  19.216   6.383  12.004
90634W        W58852  14.407   4.322   1.260
90635W        W58853  22.803  26.440  12.868
90636W        W58854  43.833   8.355   4.759
90637W        W58855   7.106  26.677  11.999
90638W        W58856   3.913  31.373   0.412
90639W        W58857   6.395  26.986   3.072
90640W        W58858  18.441  15.045   1.505
90641W        W58859  14.893  32.486  12.351
90642W        W58860  11.722  17.731  13.460
90643W        W58861  32.196  40.059   1.399
90644W        W58862  24.560  32.081  11.163
90645W        W58863  24.700  19.326   4.519
90646W        W58864  14.573   3.419  14.021
90647W        W58865  21.030  24.965  12.023
90648W        W58866  21.321  39.418   2.090
90649W        W58867  42.849  24.876   2.386
90650W        W58868  12.908   2.404  14.535
90651W        W58869  39.337  18.649  13.933
90652W        W58870   0.039  40.434  13.859
90653W        W58871  11.308   7.346  12.946
90654W        W58872  14.636  38.947  11.243
90655W        W58873  17.595  21.802   4.604
90656W        W58874  26.655  28.400   4.116
90657W        W58875  32.934  35.735  12.569
90658W        W58876   7.469  32.182  10.581
90659W        W58877  31.155  25.640   3.789
90660W        W58878   8.425  15.893   1.372
90661W        W58879  19.805   2.465   1.703
90662W        W58880  33.596  36.426   3.109
90663W        W58881  26.620  10.229  14.240
90664W        W58882  26.888  29.021  11.077
90665W        W58883  25.134  31.042  12.115
90666W        W58884  14.977  15.016   5.011
90667W        W58885   5.033  12.312  12.828
90668W        W58886  32.663  26.516   1.477
90669W        W58887  39.802   3.889  14.292
90670W        W58888  12.594  44.961  10.953
90671W        W58889   0.994   6.398  10.556
90672W        W58890  30.872  38.150  14.800
90673W        W58891   1.499  30.708   3.303
90674W        W58892  26.227  22.203  12.470
90675W        W58893  30.954  14.884   4.261
90676W        W58894  11.580  25.730   2.437
90677W        W58895   5.717  14.624  11.501
90678W        W58896  14.592  27.147  13.279
90679W        W58897  36.516  27.193   4.348
90680W        W58898  16.230  37.937   0.982
90681W        W58899  35.589  41.373   2.401
90682W        W58900  40.333  31.578   3.738
90683W        W58901  24.421   6.694  10.651
90684W        W58902  41.440  33.117  11.586
90685W        W58903  35.425  41.512   0.394
90686W        W58904  17.107  27.967  14.240
90687W        W58905  21.465  20.384   1.306
90688W        W58906  32.096   5.422  12.621
90689W        W58907   0.853  10.553  10.647
90690W        W58908   9.318  31.682   4.237
90691W        W58909  30.403  34.113   2.280
90692W        W58910  32.065  34.356  14.252
90693W        W58911  38.646  40.198   0.685
90694W        W58912  23.974  39.346  11.525
90695W        W58913  23.552   8.126  13.744
90696W        W58914  33.555   7.804  14.159
90697W        W58915  13.584  10.272   3.300
90698W        W58916  37.974  22.223   1.708
90699W        W58917  32.676  42.391  14.394
90700W        W58918  35.321   3.797  12.475
90701W        W58919  33.096  11.598   5.002
90702W        W58920  41.265   2.437   4.074
90703W        W58921  21.069  15.265  11.616
90704W        W58922  34.568   1.616   2.389
90705W        W58923   1.215  41.400  11.436
90706W        W58924  31.826   6.015  13.971
90707W        W58925  41.547   7.170  10.778
90708W        W58926  27.681   1.421  10.946
90709W        W58927   5.443   3.235  12.999
90710W        W58928  18.138  40.350  12.079
90711W        W58929  10.920  23.805  11.974
90712W        W58930  43.351  17.359  13.982
90713W        W58931  21.391  12.460  14.472
90714W        W58932  25.618  28.466   1.519
90715W        W58933  26.589   0.888   2.348
90716W        W58934  33.037  19.524   0.302
90717W        W58935  19.483  11.127   2.945
90718W        W58936   1.927  15.992  12.896
90719W        W58937  41.056   8.641   3.652
90720W        W58938  44.700  42.025  13.504
90721W        W58939  16.303  37.400   5.083
90722W        W58940  24.285  40.752  13.963
90723W        W58941  31.458  12.364   3.892
90724W        W58942   5.984  27.269   0.401
90725W        W58943   1.507  40.938  12.097
90726W        W58944  13.205  32.886  13.032
90727W        W58945  33.862  35.614  13.127
90728W        W58946  24.705  43.131  11.635
90729W        W58947   8.931  16.243   3.089
90730W        W58948  18.694  36.344  13.791
90731W        W58949  10.593  40.459   2.473
90732W        W58950  17.991  22.052  11.094
90733W        W58951  41.334  43.147  11.566
90734W        W58952  18.372  44.447   4.516
90735W        W58953   5.009  20.839   3.728
90736W        W58954  17.463  44.863  10.238
90737W        W58955  43.288  42.934   4.369
90738W        W58956  35.830  40.326  13.935
90739W        W58957  12.827   5.537   0.435
90740W        W58958  29.138  19.421   2.226
90741W        W58959  17.020  10.719  12.526
90742W        W58960  10.675  26.120   0.409
90743W        W58961  20.171  15.566   1.157
90744W        W58962  22.508  21.268   3.638
90745W        W58963  31.191  17.093  12.633
90746W        W58964   8.009  42.172  11.931
90747W        W58965   1.365  23.983  12.887
90748W        W58966  15.380  43.497   1.582
90749W        W58967  11.202  27.022   4.658
90750W        W58968   8.141  11.823  13.907
90751W        W58969   7.926  32.667   2.380
90752W        W58970  29.115  10.825  10.696
90753W        W58971  44.825  39.062   3.772
90754W        W58972   0.994  38.237  10.674
90755W        W58973  30.040   8.361  14.446
90756W        W58974  44.299  43.754  10.545
90757W        W58975  43.788  37.505   0.693
90758W        W58976  17.166  36.896  12.527
90759W        W58977  43.056   6.698  10.945
90760W        W58978  27.390  11.914  14.595
90761W        W58979   2.382  22.216   3.408
90762W        W58980   8.764  40.362   2.447
90763W        W58981  24.987   5.629   3.136
90764W        W58982   0.835  38.936   3.699
90765W        W58983  44.450  15.040  10.742
90766W        W58984  37.280  10.630  13.851
90767W        W58985   0.483  18.245   3.750
90768W        W58986  40.110  28.125  13.986
90769W        W58987  22.014  32.598  13.829
90770W        W58988   9.715  42.807   0.918
90771W        W58989   5.066  18.153  11.680
90772W        W58990  31.581  25.296   2.000
90773W        W58991  27.012  19.436   3.179
90774W        W58992  29.329   3.839   3.649
90775W        W58993  17.220  25.610  13.914
90776W        W58994  10.672  30.984   0.532
90777W        W58995  36.238  32.614   0.012
90778W        W58996  35.220  33.853  10.884
90779W        W58997  22.153  39.888   3.937
90780W        W58998  28.866  14.105   5.090
90781W        W58999   5.920  41.398  14.902
90782W        W59000  29.409   3.802  14.915
90783W        W59001  27.020  42.527  11.582
90784W        W59002  13.073  33.480   1.523
90785W        W59003  31.379  44.337  14.552
90786W        W59004  43.086  13.028  13.560
90787W        W59005  11.152   5.827   4.654
90788W        W59006  14.814  23.772  11.219
90789W        W59007  22.379  38.965  13.325
90790W        W59008  41.348  38.033  10.748
90791W        W59009   9.730  36.783  14.423
90792W        W59010  14.985  30.527  11.850
90793W        W59011  15.261   1.820   3.310
90794W        W59012  22.253  36.896  13.325
90795W        W59013  34.261  40.754  12.532
90796W        W59014  25.652  18.632   0.650
90797W        W59015  10.295  16.200  10.477
90798W        W59016  21.701   9.777   0.016
90799W        W59017  36.896  44.491   4.483
90800W        W59018  19.296   4.338   1.607
90801W        W59019   6.934  25.620  14.254
90802W        W59020  28.648  16.417   2.040
90803W        W59021  42.886  10.957  10.675
90804W        W59022   2.969  41.390  11.901
90805W        W59023  21.216  38.100  14.395
90806W        W59024  13.181   2.782  14.351
90807W        W59025  12.115  15.845   5.031
90808W        W59026  37.252  44.743  12.427
90809W        W59027   4.631  13.322  11.484
90810W        W59028  14.229   4.995  14.995
90811W        W59029  22.661   9.017  12.073
90812W        W59030  12.068  37.650   4.998
90813W        W59031  10.784  33.504  11.527
90814W        W59032  38.056  29.729   3.440
90815W        W59033  24.971  23.800  14.132
90816W        W59034   4.151  31.946  14.435
90817W        W59035  40.277  21.650   1.733
90818W        W59036  16.789  31.629  12.155
90819W        W59037   0.372  15.663   4.115
90820W        W59038   3.681   5.708  14.269
90821W        W59039  27.958  21.612  12.544
90822W        W59040  41.471  12.663   4.330
90823W        W59041  24.845  23.539   1.695
90824W        W59042  33.524   1.286   3.419
90825W        W59043  36.525  12.382   2.379
90826W        W59044   4.980  30.459   1.622
90827W        W59045  21.811  28.955  14.881
90828W        W59046  35.978  42.984   2.652
90829W        W59047  15.783  35.922   3.294
90830W        W59048  15.820  20.980   4.503
90831W        W59049   0.324  26.732   2.693
90832W        W59050  39.999  12.246  14.960
90833W        W59051  23.119  32.416   1.285
90834W        W59052  17.324  11.157  12.348
90835W        W59053  13.158  35.095   1.883
90836W        W59054  18.573  17.800   2.761
90837W        W59055  19.779  16.388  11.989
90838W        W59056  41.733  19.281  11.859
90839W        W59057   1.661  30.978   1.525
90840W        W59058   3.433  19.791  12.788
90841W        W59059  40.278   2.778   1.734
90842W        W59060   4.616  17.566   3.724
90843W        W59061   8.910  42.331   1.127
90844W        W59062   7.401   4.457  11.302
90845W        W59063  23.239  26.825  11.809
90846W        W59064   3.139  35.907   3.165
90847W        W59065  10.260  40.042   3.192
90848W        W59066  36.703  11.468  11.135
90849W        W59067  16.434  34.691  14.329
90850W        W59068  17.289  21.714  14.356
90851W        W59069  34.872  35.380  13.369
90852W        W59070  13.524  10.117  12.341
90853W        W59071  28.662   7.859  11.275
90854W        W59072  16.868  25.488  13.378
90855W        W59073  42.418  33.848  12.129
90856W        W59074  41.289  13.594  12.252
90857W        W59075  21.268  12.203  13.468
90858W        W59076  37.487  21.702  12.163
90859W        W59077  11.711  18.818   5.207
90860W        W59078  21.575  37.761  10.077
90861W        W59079  32.360  29.123   1.314
90862W        W59080  34.812   2.131   3.912
90863W        W59081  17.285  35.927   2.568
90864W        W59082  13.266  16.597  13.121
90865W        W59083  36.383  34.188  14.785
90866W        W59084  20.467   9.066   1.755
90867W        W59085  24.746  33.924  14.021
90868W        W59086  33.052   8.885  13.748
90869W        W59087  29.523  33.236   0.477
90870W        W59088  34.034  15.853   0.741
90871W        W59089   3.721   9.938   4.129
90872W        W59090  42.274   6.850  12.037
90873W        W59091  28.436  14.145  10.702
90874W        W59092  39.368   5.377   4.653
90875W        W59093  31.024   7.692  11.216
90876W        W59094  31.495   8.105  10.565
90877W        W59095  41.364  22.148   2.221
90878W        W59096   1.138  37.083  11.564
90879W        W59097  15.837  38.554   9.833
90880W        W59098  43.802  18.656   0.036
90881W        W59099   2.982  43.609  13.773
90882W        W59100  26.158  32.483   0.867
90883W        W59101  23.691   6.181  12.918
90884W        W59102  33.546  28.938  12.397
90885W        W59103  19.309  22.211  10.729
90886W        W59104  25.993  30.345  10.748
90887W        W59105  22.258  27.636  11.992
90888W        W59106   6.768  26.519   1.233
90889W        W59107  30.219  41.254   2.260
90890W        W59108  31.835   6.911   3.406
90891W        W59109  39.330  15.005   0.464
90892W        W59110  24.694  25.344  12.832
90893W        W59111  17.198  32.187   2.477
90894W        W59112  10.254   3.259  13.693
90895W        W59113  40.244  43.427   2.718
90896W        W59114  22.714   0.006   3.641
90897W        W59115  17.541  26.201  14.875
90898W        W59116  42.067  27.559   2.268
90899W        W59117   4.658  11.661   1.519
90900W        W59118  10.679   5.103   4.613
90901W        W59119  19.203  37.404  10.608
90902W        W59120  20.955   7.436  11.512
90903W        W59121  15.603  11.434  11.496
90904W        W59122  41.502  19.809  14.857
90905W        W59123  39.225  42.321   3.924
90906W        W59124   4.306  40.829  10.104
90907W        W59125  30.208  22.639  10.610
90908W        W59126  40.153   6.725   2.925
90909W        W59127   9.922  41.377   4.125
90910W        W59128  36.575  35.587   1.436
90911W        W59129  16.354  29.774   3.233
90912W        W59130  38.504   6.556   3.353
90913W        W59131  31.868  44.542   2.069
90914W        W59132  28.106   1.572  14.789
90915W        W59133   0.544  15.607  13.395
90916W        W59134  10.125  37.267   3.126
90917W        W59135  37.477   6.657   0.858
90918W        W59136  19.872   9.523   4.212
90919W        W59137  17.263  32.638  13.826
90920W        W59138  23.328  23.133   2.208
90921W        W59139  40.123  36.346   4.701
90922W        W59140  25.178  33.163   4.535
90923W        W59141  28.685  10.538  10.613
90924W        W59142  27.496  12.854   2.590
90925W        W59143  23.161  20.070  11.633
90926W        W59144  17.963  39.387  12.525
90927W        W59145   1.403  17.119  11.922
90928W        W59146   9.490  25.410  14.736
90929W        W59147  17.636   2.006   0.351
90930W        W59148  32.323  26.066   0.185
90931W        W59149  30.384   9.988   2.629
90932W        W59150  10.834  16.242  14.142
90933W        W59151  35.107   4.734  13.421
90934W        W59152   6.955  25.921   2.812
90935W        W59153  38.020  10.643   1.490
90936W        W59154  44.441  25.581   3.582
90937W        W59155  15.028  44.237   1.293
90938W        W59156  31.957  12.916   4.475
90939W        W59157  26.042  22.264   4.390
90940W        W59158  11.450  42.015   2.716
90941W        W59159   1.201  26.633   4.191
90942W        W59160  26.183  36.526   1.193
90943W        W59161   7.460  11.961   2.879
90944W        W59162  43.917  27.271  14.894
90945W        W59163  16.851   0.852   1.240
90946W        W59164  35.709  12.098  12.814
90947W        W59165   2.801  35.299   0.601
90948W        W59166  28.168  44.488  12.443
90949W        W59167  25.230  25.193   1.484
90950W        W59168  11.211  22.458   1.711
90951W        W59169   7.345  44.840  10.674
90952W        W59170   5.842  16.200   5.141
90953W        W59171  15.635   9.383  11.258
90954W        W59172  28.478  43.055  13.527
90955W        W59173  20.748  44.600   4.586
90956W        W59174   0.996   9.323   2.838
90957W        W59175  44.940  43.704  13.885
90958W        W59176   9.140  22.822  11.855
90959W        W59177   0.341  36.865   2.831
90960W        W59178  39.037  32.438  11.484
90961W        W59179  37.780  19.798  11.020
90962W        W59180  39.343  22.067   1.774
90963W        W59181   8.586  12.063   1.790
90964W        W59182  22.350  23.723   1.773
90965W        W59183  13.013  21.184  11.984
90966W        W59184   0.983  43.958  14.386
90967W        W59185  29.934  10.878   3.234
90968W        W59186  26.193   3.966   2.731
90969W        W59187  23.181  17.624   1.858
90970W        W59188  19.044   6.453   4.031
90971W        W59189  27.696  20.277   3.676
90972W        W59190   5.352  33.215  10.960
90973W        W59191   4.309  30.416   3.350
90974W        W59192   1.202  28.202   3.413
90975W        W59193   6.816  18.795   2.038
90976W        W59194  35.403  13.714  14.457
90977W        W59195  27.888  35.667  10.991
90978W        W59196   8.390  19.312   4.319
90979W        W59197  25.872  26.050   1.871
90980W        W59198  20.685  14.799   5.542
90981W        W59199  22.726   6.928   1.803
90982W        W59200   2.705  20.658   0.510
90983W        W59201  43.556  16.143   4.174
90984W        W59202  33.443  14.336   0.039
90985W        W59203   8.705  10.473   0.792
90986W        W59204  36.007  38.988  13.144
90987W        W59205  34.526  41.046  11.483
90988W        W59206  32.674  13.689   1.883
90989W        W59207  25.054  17.333   0.847
90990W        W59208   8.825  42.386  11.579
90991W        W59209  14.576   0.955  11.658
90992W        W59210  23.007  12.057  12.975
90993W        W59211  26.678  21.728  12.825
90994W        W59212  26.210  43.991  10.476
90995W        W59213  23.578  40.877  11.922
90996W        W59214  41.119  16.108  12.868
90997W        W59215  31.360  25.143   3.733
90998W        W59216  27.065   0.820  12.481
90999W        W59217   6.220   6.419   0.344
91000W        W59218  28.913  12.893   2.475
91001W        W59219  11.567   3.934   2.887
91002W        W59220   9.402   9.422  12.896
91003W        W59221   6.013  30.154   3.339
91004W        W59222  22.296  15.071   2.780
91005W        W59223  26.960  12.024   1.869
91006W        W59224  31.377  20.097   2.466
91007W        W59225  13.808  14.680  13.339
91008W        W59226  32.912  14.380   2.773
91009W        W59227  35.363  39.942  13.411
91010W        W59228  27.627  30.579   0.532
91011W        W59229  19.238  44.290   3.127
91012W        W59230  28.872  39.483   3.247
91013W        W59231  23.175  19.839  10.801
91014W        W59232  44.822   5.974  13.144
91015W        W59233  27.165  43.764   0.799
91016W        W59234  43.829  36.596  14.883
91017W        W59235  41.686  17.209   1.349
91018W        W59236  27.922  35.769  12.336
91019W        W59237   5.384  44.334  11.981
91020W        W59238  35.528   0.559   1.247
91021W        W59239  17.128   2.516   0.804
91022W        W59240  17.522   1.327  12.470
91023W        W59241  42.488  37.469  12.365
91024W        W59242  21.514  31.131   4.614
91025W        W59243  20.257   9.377   3.379
91026W        W59244  28.624  33.388   0.315
91027W        W59245  25.578  30.344   4.235
91028W        W59246   6.947  33.393  13.890
91029W        W59247  20.338  36.131   3.304
91030W        W59248  39.758  14.175  13.844
91031W        W59249   0.511  14.858  12.755
91032W        W59250   8.344  39.283   0.035
91033W        W59251  16.723  31.041   4.160
91034W        W59252   4.796  22.265   4.738
91035W        W59253  41.377  40.860  13.845
91036W        W59254  29.978  21.131  13.894
91037W        W59255  30.779  17.040   5.213
91038W        W59256   6.832  40.059   4.695
91039W        W59257   4.489  27.583  14.970
91040W        W59258   5.948  24.531  10.841
91041W        W59259   4.212  40.518  14.403
91042W        W59260   2.794  36.485   4.182
91043W        W59261  40.174  37.060  12.747
91044W        W59262   7.666  32.317   4.259
91045W        W59263  28.211  18.964  10.616
91046W        W59264  25.052  16.836  13.940
91047W        W59265  33.529  15.792   4.587
91048W        W59266  43.503  41.912   4.204
91049W        W59267  20.641  15.358  11.336
91050W        W59268  27.172  35.338  11.861
91051W        W59269  30.406   5.801  13.931
91052W        W59270   4.159  34.881   1.437
91053W        W59271  41.310   3.471   0.163
91054W        W59272  34.094  43.524   4.882
91055W        W59273  39.015   4.243  13.495
91056W        W59274  19.793  29.095   2.369
91057W        W59275  29.240   3.153  10.655
91058W        W59276  16.857  25.185  11.981
91059W        W59277  42.344  29.401  11.756
91060W        W59278  34.038  31.056  13.979
91061W        W59279  28.837  42.808  14.308
91062W        W59280   7.743  28.683  11.125
91063W        W59281   6.375  12.724  12.037
91064W        W59282  43.724   5.353  13.832
91065W        W59283  31.927  33.802   3.137
91066W        W59284  12.681   0.014   3.694
91067W        W59285  13.800  31.614  12.851
91068W        W59286   7.504  10.275   4.185
91069W        W59287  26.968  32.042  13.031
91070W        W59288  27.223  43.001   0.408
91071W        W59289  35.946  36.315   2.236
91072W        W59290  11.898  28.674   4.517
91073W        W59291  33.387  35.347  11.492
91074W        W59292  29.388   2.485  12.007
91075W        W59293  15.412  42.027   0.483
91076W        W59294   1.401  41.866   3.660
91077W        W59295  17.608  36.289  12.042
91078W        W59296   3.278  24.037   0.860
91079W        W59297  21.197  39.793   3.295
91080W        W59298  40.849  44.808   0.872
91081W        W59299  18.766  40.648   0.020
91082W        W59300  26.974   9.696  11.593
91083W        W59301  13.772  15.853   2.722
91084W        W59302  32.562  14.385   1.492
91085W        W59303  40.756   5.220  13.057
91086W        W59304  19.205  22.723  11.574
91087W        W59305  38.358  16.712  14.955
91088W        W59306  38.426  11.433   3.694
91089W        W59307   4.363  41.965  13.349
91090W        W59308  15.649  15.280   4.095
91091W        W59309  37.550  36.027   2.232
91092W        W59310  31.709  43.032  11.584
91093W        W59311  38.611  20.278  13.997
91094W        W59312   7.154  11.775   1.231
91095W        W59313  37.274  25.600   4.082
91096W        W59314  33.966   3.740   4.080
91097W        W59315  24.185   1.785   3.107
91098W        W59316  26.616  21.357   0.829
91099W        W59317  44.393  40.631  10.069
91100W        W59318  10.810  20.721  13.948
91101W        W59319  38.671  24.837  14.449
91102W        W59320  43.753   9.270  13.551
91103W        W59321   2.219  13.669   0.710
91104W        W59322   6.727  14.830  10.581
91105W        W59323  40.341  19.109  11.488
91106W        W59324  35.962  40.369   4.685
91107W        W59325  32.891  44.027   0.559
91108W        W59326  13.641   2.454  11.379
91109W        W59327  15.142  29.541   3.419
91110W        W59328   4.480  40.047  14.516
91111W        W59329   4.497   0.689   0.294
91112W        W59330  43.606   2.364  12.917
91113W        W59331   6.204  31.382   1.472
91114W        W59332  10.997  39.797  14.390
91115W        W59333  42.462  40.413   4.790
91116W        W59334   3.270  44.887   1.162
91117W        W59335  15.865   4.455  11.839
91118W        W59336   9.256  34.014  12.643
91119W        W59337  38.760  20.072   1.709
91120W        W59338  37.141  43.982   4.692
91121W        W59339  14.763   2.204   0.417
91122W        W59340  44.003  25.277   4.809
91123W        W59341   0.822  25.975   1.795
91124W        W59342  35.960   5.919   2.198
91125W        W59343   9.913   2.904  14.224
91126W        W59344  30.876  10.275  14.277
91127W        W59345  23.362  35.851  13.014
91128W        W59346  21.008  23.263  14.318
91129W        W59347  42.391  44.542   3.346
91130W        W59348  20.973  22.507  11.896
91131W        W59349  17.358  41.282   1.128
91132W        W59350  16.133   7.330   1.409
91133W        W59351  25.467   2.686   4.215
91134W        W59352  20.937  21.278   0.317
91135W        W59353   3.826  22.171  13.391
91136W        W59354  20.023  27.753  11.859
91137W        W59355   3.877   4.489  13.985
91138W        W59356  40.679  38.045   0.426
91139W        W59357   3.706   1.684   4.617
91140W        W59358  22.811  42.668   5.081
91141W        W59359   2.304  31.243  11.204
91142W        W59360   7.721   4.519   5.058
91143W        W59361  12.243   8.878   1.745
91144W        W59362   6.187  15.593  13.352
91145W        W59363  21.708  22.512   4.544
91146W        W59364  26.949  19.798  13.753
91147W        W59365  26.679   7.061   1.013
91148W        W59366   7.935  35.675   2.408
91149W        W59367  14.354  27.450   0.512
91150W        W59368   7.755  39.922   3.240
91151W        W59369  39.557  17.073   1.749
91152W        W59370  27.489   4.853   2.819
91153W        W59371  28.033  40.873  14.563
91154W        W59372   4.291  32.616  12.549
91155W        W59373  25.069  35.177  10.366
91156W        W59374  32.333   7.756   3.375
91157W        W59375  42.087   4.851  12.553
91158W        W59376  34.144   4.525  10.565
91159W        W59377  43.230  25.973  12.519
91160W        W59378   0.212  30.065   0.299
91161W        W59379  38.753  32.293   4.079
91162W        W59380  10.674  42.863  13.550
91163W        W59381  36.783  29.644   0.683
91164W        W59382   3.484  13.363   3.355
91165W        W59383  22.287  33.031  13.913
91166W        W59384  41.768  35.149  13.858
91167W        W59385  39.589  42.872   1.044
91168W        W59386  25.566   1.954   3.216
91169W        W59387   5.852   4.428   0.004
91170W        W59388  12.395   3.195   2.275
91171W        W59389  15.072  20.592   3.226
91172W        W59390  25.386  29.550  12.318
91173W        W59391  41.450  15.581   2.361
91174W        W59392  23.234  17.686   3.642
91175W        W59393  12.140  16.101  12.844
91176W        W59394  40.850   8.872  11.698
91177W        W59395  34.600  24.067  12.057
91178W        W59396  37.936   8.645   3.829
91179W        W59397  33.664  31.577   1.199
91180W        W59398  16.544  38.898   0.822
91181W        W59399  40.841  35.889  14.578
91182W        W59400  24.662   8.957   2.976
91183W        W59401  25.156  20.066  12.895
91184W        W59402  26.544  17.048  13.541
91185W        W59403  28.341  32.377  12.911
91186W        W59404  27.638  21.391   1.848
91187W        W59405  24.920   4.827   4.906
91188W        W59406  38.053  16.390  11.721
91189W        W59407   5.844  41.923   3.281
91190W        W59408  22.692  21.476  14.306
91191W        W59409  33.031   2.581   2.018
91192W        W59410   8.014  10.611   1.822
91193W        W59411  15.519   1.626   5.028
91194W        W59412  27.757  34.242   3.150
91195W        W59413  11.238  11.223   4.616
91196W        W59414  44.454  39.581   0.778
91197W        W59415  35.744  33.116   1.362
91198W        W59416  44.888  25.436  11.488
91199W        W59417  30.819  16.357   4.635
91200W        W59418  12.809  19.062   3.294
91201W        W59419  31.048  20.557  11.606
91202W        W59420   5.636   8.976   4.937
91203W        W59421  41.113  40.709  13.451
91204W        W59422  21.812  32.088  13.437
91205W        W59423  18.480   1.014  11.177
91206W        W59424  26.226  18.723  11.541
91207W        W59425  38.248  44.456  12.981
91208W        W59426   7.855   0.693  14.449
91209W        W59427  20.261   2.212   0.781
91210W        W59428  39.972  38.484  14.254
91211W        W59429  40.892  12.842  13.113
91212W        W59430   1.894   9.428   4.619
91213W        W59431  28.678  12.361  14.550
91214W        W59432  40.567  35.252  11.726
91215W        W59433  40.815  35.355   3.782
91216W        W59434  23.715  42.510   0.888
91217W        W59435  42.267   3.409  10.772
91218W        W59436  12.825   2.373  10.393
91219W        W59437  37.006  34.346   2.720
91220W        W59438  34.042  33.407  11.545
91221W        W59439   4.512  25.438   4.582
91222W        W59440  14.256   4.722  14.562
91223W        W59441  39.487   2.202  11.497
91224W        W59442  25.219   3.327   4.223
91225W        W59443  20.738  26.484  11.947
91226W        W59444  23.053   2.233  14.921
91227W        W59445  37.010  29.876  14.736
91228W        W59446  23.608   9.578   3.114
91229W        W59447  36.430  34.854  12.655
91230W        W59448  42.487  22.112   2.375
91231W        W59449  29.775  28.910  13.876
91232W        W59450   8.458   6.835   1.081
91233W        W59451  22.663  39.067  14.117
91234W        W59452   2.356  12.214  13.525
91235W        W59453  41.425  43.269   2.766
91236W        W59454  29.978  38.531  14.077
91237W        W59455   7.707   6.356   3.703
91238W        W59456  12.856  22.768   4.550
91239W        W59457  44.301  16.324   1.209
91240W        W59458   4.769  13.755  10.719
91241W        W59459   9.939  44.337  11.114
91242W        W59460  43.034  37.841   0.411
91243W        W59461  26.082  29.765   3.331
91244W        W59462   7.202   3.783  13.992
91245W        W59463  30.875  39.044   0.116
91246W        W59464  16.120  40.457   3.734
91247W        W59465  35.490  35.329   2.392
91248W        W59466  42.002  11.420  11.940
91249W        W59467  16.731  38.936   4.421
91250W        W59468  24.108  30.905   4.687
91251W        W59469  42.501   9.882  13.100
91252W        W59470   9.323  36.805  12.462
91253W        W59471  24.670  33.521   2.160
91254W        W59472  26.649  37.372  11.590
91255W        W59473  28.506  38.047   1.929
91256W        W59474  12.712   3.420   4.875
91257W        W59475  44.915   1.872   0.441
91258W        W59476  21.542  43.875   1.033
91259W        W59477  21.721  12.755  11.598
91260W        W59478  16.307  12.686   2.237
91261W        W59479   1.188  38.538  13.332
91262W        W59480  17.205  34.980   3.328
91263W        W59481  24.858  22.244  13.482
91264W        W59482  27.422  21.744  13.267
91265W        W59483  37.666  30.732   0.747
91266W        W59484  42.856  13.376   2.699
91267W        W59485  20.811   4.245  10.831
91268W        W59486  39.408  22.177   3.940
91269W        W59487   3.334  23.646   2.791
91270W        W59488  38.133  16.226  10.602
91271W        W59489  27.599  42.336   2.235
91272W        W59490  31.011  24.288   2.177
91273W        W59491   6.912  21.527  11.487
91274W        W59492  10.140  41.272   1.962
91275W        W59493  37.606   3.276   3.404
91276W        W59494  43.076   3.809   3.549
91277W        W59495  22.208   4.749  12.934
91278W        W59496   1.687   3.847  12.080
91279W        W59497  12.091  18.318  14.585
91280W        W59498  31.616   3.150  13.876
91281W        W59499  12.641  33.504   4.754
91282W        W59500  38.514  27.048  12.893
91283W        W59501  11.617  21.797   4.296
91284W        W59502  36.206  26.935  11.168
91285W        W59503  17.660  41.501  13.453
91286W        W59504  12.238  15.378   3.248
91287W        W59505  29.125  24.998  10.140
91288W        W59506  32.621  39.774   3.638
91289W        W59507  19.487  25.206   4.348
91290W        W59508   6.990  27.175  12.104
91291W        W59509  12.385  33.325  12.341
91292W        W59510   9.280  15.105   0.008
91293W        W59511  29.250  23.476   1.904
91294W        W59512   3.839  44.178  14.758
91295W        W59513  41.484  41.493   1.039
91296W        W59514  33.745  28.602   0.789
91297W        W59515  32.099  22.978   4.546
91298W        W59516  44.992  37.002   0.197
91299W        W59517  14.111  30.597   0.941
91300W        W59518  23.106  15.287  10.534
91301W        W59519  44.353  11.087   1.059
91302W        W59520  12.747   6.905  13.029
91303W        W59521  42.797  29.955  13.425
91304W        W59522  37.848   1.696   1.125
91305W        W59523  36.290  43.786  12.397
91306W        W59524  32.527  34.945  13.097
91307W        W59525   5.226  27.587   4.547
91308W        W59526  28.360  21.425   0.283
91309W        W59527  17.614  36.363   0.991
91310W        W59528  16.691  36.488   0.345
91311W        W59529  16.174   1.649   2.831
91312W        W59530  26.757  14.137  13.035
91313W        W59531  16.867  11.663   1.941
91314W        W59532  14.777  44.578   0.922
91315W        W59533  40.091  11.436   1.831
91316W        W59534  20.608   7.093  13.871
91317W        W59535  41.205  22.174  12.001
91318W        W59536   4.772  16.270  13.502
91319W        W59537  37.025  11.880  14.038
91320W        W59538  12.293  23.125  11.666
91321W        W59539  19.746  31.007  14.937
91322W        W59540  11.893  38.829  12.593
91323W        W59541  41.915  15.830   0.433
91324W        W59542  28.223  26.265  13.597
91325W        W59543  27.263  24.841   3.518
91326W        W59544  13.679  20.733  13.238
91327W        W59545  40.008   9.399  13.316
91328W        W59546   6.403  43.120  10.175
91329W        W59547  30.693  20.184  11.580
91330W        W59548  37.833   1.436  14.347
91331W        W59549  12.543  25.219  10.493
91332W        W59550   5.997   5.725   1.328
91333W        W59551  39.111  20.200   3.630
91334W        W59552   2.373   2.155   1.331
91335W        W59553   6.641   2.450   3.225
91336W        W59554  26.092  26.037  14.730
91337W        W59555  11.190  35.888  11.126
91338W        W59556  37.667  30.667  13.457
91339W        W59557  42.359  34.513  12.458
91340W        W59558  42.157  24.142  13.787
91341W        W59559  25.974  24.713  14.380
91342W        W59560  30.953  13.227   0.550
91343W        W59561  16.338  27.337   3.587
91344W        W59562  35.132  24.964  13.988
91345W        W59563  22.136  32.910   0.331
91346W        W59564  21.145  38.904  12.853
91347W        W59565  11.634   9.738   1.414
91348W        W59566  11.881  19.220  14.425
91349W        W59567  38.110  38.675   1.198
91350W        W59568  21.526   6.778   0.660
91351W        W59569  36.884  33.408   3.355
91352W        W59570  41.486   5.374  14.477
91353W        W59571  40.914  15.381  11.525
91354W        W59572  26.026  42.071   0.888
91355W        W59573  27.141  10.782  12.281
91356W        W59574   2.724  44.916   3.515
91357W        W59575   2.743  28.977  14.881
91358W        W59576   2.621  38.888   0.454
91359W        W59577  18.657  34.195  11.957
91360W        W59578  26.952  11.880  12.898
91361W        W59579   2.380   9.439  13.752
91362W        W59580  17.103   1.337   1.321
91363W        W59581   6.208  31.922   1.413
91364W        W59582  24.946  39.571   2.286
91365W        W59583  27.612   5.464  13.493
91366W        W59584  22.766  14.695   3.277
91367W        W59585  10.151  30.641   1.235
91368W        W59586  25.509  19.246   3.871
91369W        W59587  19.128  27.756  12.508
91370W        W59588  24.585  10.610  11.164
91371W        W59589  18.219  26.984   2.276
91372W        W59590  27.539  31.327   4.704
91373W        W59591  19.990  21.125  10.699
91374W        W59592  31.921   5.194  12.194
91375W        W59593  20.422  43.159   3.518
91376W        W59594  18.656  41.894  10.841
91377W        W59595  27.526  12.633  14.058
91378W        W59596  24.752  38.750   0.221
91379W        W59597  28.097  16.097  11.552
91380W        W59598  20.956   6.826  13.074
91381W        W59599   9.604  33.072  12.299
91382W        W59600  21.027  12.067   4.218
91383W        W59601  32.719  39.287   3.808
91384W        W59602  12.154   2.115   4.288
91385W        W59603  16.904  11.842  11.118
91386W        W59604  38.972  38.666   2.221
91387W        W59605  33.009  10.885   3.963
91388W        W59606  39.892  10.708   3.686
91389W        W59607  33.689   9.921   2.837
91390W        W59608  28.181   1.650   3.715
91391W        W59609  32.444  22.179  13.075
91392W        W59610   9.695  32.521  14.781
91393W        W59611  37.482  33.965   3.828
91394W        W59612  25.699   9.907   2.369
91395W        W59613   3.529  37.000   4.061
91396W        W59614  14.582  20.659  13.069
91397W        W59615  32.480   5.361   3.622
91398W        W59616   3.383  42.381  11.447
91399W        W59617   6.398  27.947   1.730
91400W        W59618  31.657  36.027   2.321
91401W        W59619  20.835  14.782  10.699
91402W        W59620   5.569  15.767  10.639
91403W        W59621   7.770  16.193   2.098
91404W        W59622   4.943  25.282  14.208
91405W        W59623   0.506   1.231  12.941
91406W        W59624  29.580  19.304  13.403
91407W        W59625  43.454  33.140   2.691
91408W        W59626  36.100  22.812  10.614
91409W        W59627  39.358  30.982  10.838
91410W        W59628   7.851  39.134   0.745
91411W        W59629  40.675  42.368   1.845
91412W        W59630  40.031  22.592  10.745
91413W        W59631  28.553  13.895   1.306
91414W        W59632  31.042  34.628  13.083
91415W        W59633  23.197  42.016  14.445
91416W        W59634  44.685  37.966   1.766
91417W        W59635  33.997  22.461   2.302
91418W        W59636  15.058   4.002  12.886
91419W        W59637  25.025   8.941  14.430
91420W        W59638  44.934  35.509  11.426
91421W        W59639  40.971  18.665   1.430
91422W        W59640  36.882  44.039   3.744
91423W        W59641  35.565   4.261   2.790
91424W        W59642  36.298  43.824  10.685
91425W        W59643  30.628  15.119   4.624
91426W        W59644  21.807  33.146   0.015
91427W        W59645  37.980  18.574  11.940
91428W        W59646  24.022  37.077   0.800
91429W        W59647   3.315  27.742   3.548
91430W        W59648   4.278  28.010  11.522
91431W        W59649  10.572  24.390   1.220
91432W        W59650  40.821  40.282   4.382
91433W        W59651  28.668   6.333   3.593
91434W        W59652   7.167   4.639  10.395
91435W        W59653  29.926   1.032  12.448
91436W        W59654   8.168   6.934   1.892
91437W        W59655   1.395  38.565  10.786
91438W        W59656  29.008   6.724   3.130
91439W        W59657   8.386  41.104  12.871
91440W        W59658  44.447  16.944   1.751
91441W        W59659  27.388   0.975  12.099
91442W        W59660  12.829  14.030   0.920
91443W        W59661  35.832   6.497  11.897
91444W        W59662  27.967   7.618   0.626
91445W        W59663  43.667  13.813  11.514
91446W        W59664  36.990  13.293  13.046
91447W        W59665  14.446  14.218  14.437
91448W        W59666  20.007  21.148  11.217
91449W        W59667  12.000  25.493   0.179
91450W        W59668  23.586   6.363   2.415
91451W        W59669  10.631  13.518   4.811
91452W        W59670   2.121   0.729   1.338
91453W        W59671  25.996  10.244   4.587
91454W        W59672  18.643  27.088   4.573
91455W        W59673   1.303  22.963  13.103
91456W        W59674  23.242   7.601  13.365
91457W        W59675  42.831  15.630   1.922
91458W        W59676  29.884  35.600  11.162
91459W        W59677  11.902  41.336   3.194
91460W        W59678   4.317  21.034  14.718
91461W        W59679  44.676  34.968  10.638
91462W        W59680  42.331  35.775   3.580
91463W        W59681  34.336  12.288   3.156
91464W        W59682  32.492   9.545   1.930
91465W        W59683  14.192  27.016  12.128
91466W        W59684  43.316  18.477  13.073
91467W        W59685  43.908  33.877  14.265
91468W        W59686  15.147   9.645   0.755
91469W        W59687  16.005   3.429  14.917
91470W        W59688  28.095   0.456  13.052
91471W        W59689  30.984  42.344  10.700
91472W        W59690  12.131   5.832   0.963
91473W        W59691  10.758  16.308   3.209
91474W        W59692  21.604  14.196  12.988
91475W        W59693  44.901  41.898  12.649
91476W        W59694   1.774  12.661   2.244
91477W        W59695   3.862  24.671  11.073
91478W        W59696  44.239  13.472  10.688
91479W        W59697  14.379  40.574  14.352
91480W        W59698  37.252   4.406   3.298
91481W        W59699  16.753   7.712   1.405
91482W        W59700  39.839  35.451   3.570
91483W        W59701   4.843   4.455  13.923
91484W        W59702  17.564  42.960   2.537
91485W        W59703   8.761  22.275   4.304
91486W        W59704  42.499  38.977   3.314
91487W        W59705  40.832  30.961   0.805
91488W        W59706  37.265   6.739  13.334
91489W        W59707  30.906  25.192   2.812
91490W        W59708   4.962   3.537   1.218
91491W        W59709  37.548  15.690  11.104
91492W        W59710  43.695  20.716  10.882
91493W        W59711  11.336  25.396  12.379
91494W        W59712  25.628  29.853   4.420
91495W        W59713  30.175  41.464  14.285
91496W        W59714  38.809  43.889   2.605
91497W        W59715  25.645  38.471  14.330
91498W        W59716  29.666  27.186   0.406
91499W        W59717  27.574  28.564   4.288
91500W        W59718  30.646  29.009  13.991
91501W        W59719   3.527  35.362  11.517
91502W        W59720  26.575  17.035   2.219
91503W        W59721  43.465   8.236   3.644
91504W        W59722  23.026  27.994   2.258
91505W        W59723  25.436   7.817   3.452
91506W        W59724   4.874  15.909   1.142
91507W        W59725  31.583   0.694  11.589
91508W        W59726  28.073   8.890  10.973
91509W        W59727  42.151  41.454   4.226
91510W        W59728  13.378  24.655  14.912
91511W        W59729  19.516  39.293  13.502
91512W        W59730  21.583  32.020   4.658
91513W        W59731  33.034  39.274   3.270
91514W        W59732  31.545  18.152  14.054
91515W        W59733  15.302  10.104   4.759
91516W        W59734  14.860  34.247   2.261
91517W        W59735  31.821   1.257   3.950
91518W        W59736   8.395  17.211   2.303
91519W        W59737  34.922   8.852  11.179
91520W        W59738  21.899  37.543   0.009
91521W        W59739  44.912  43.705   3.347
91522W        W59740  13.778   5.005  13.398
91523W        W59741   5.774   8.122   4.434
91524W        W59742  20.258   9.919   2.170
91525W        W59743  33.024   7.576   4.928
91526W        W59744  23.719  12.755   2.930
91527W        W59745  12.066  41.939  11.005
91528W        W59746  36.718  28.512   3.996
91529W        W59747  43.509  16.737   1.123
91530W        W59748   3.577  16.626   4.463
91531W        W59749  34.188  18.717  14.420
91532W        W59750   9.775  20.220  13.258
91533W        W59751  28.243   4.477  13.139
91534W        W59752   4.831   7.062  10.627
91535W        W59753  24.236  44.916   0.293
91536W        W59754  19.574  12.269   2.203
91537W        W59755  22.038  21.981   0.425
91538W        W59756  18.385   8.638  12.656
91539W        W59757  15.752  33.144  13.381
91540W        W59758  18.888  37.849  14.895
91541W        W59759  20.643  35.659   5.071
91542W        W59760  44.206  31.618   3.659
91543W        W59761  42.989  36.160  10.648
91544W        W59762   1.358   7.406   3.264
91545W        W59763  14.952  13.354  11.550
91546W        W59764  44.692  37.147  14.760
91547W        W59765   0.481  18.223  10.853
91548W        W59766  43.454   7.801   3.321
91549W        W59767  20.930  19.297  11.515
91550W        W59768   3.411  11.832   4.738
91551W        W59769   3.845   0.872   4.832
91552W        W59770  37.324  25.617   1.909
91553W        W59771  23.138  12.286  12.409
91554W        W59772  17.431  20.629  10.107
91555W        W59773  34.400   5.219  12.995
91556W        W59774  33.890  34.472  11.617
91557W        W59775  33.515  24.030  13.899
91558W        W59776  31.598  35.888  13.117
91559W        W59777   2.071  35.895   0.464
91560W        W59778  21.132  35.446  11.640
91561W        W59779   7.283  35.610   3.751
91562W        W59780  41.868  28.216  11.000
91563W        W59781  13.960  13.361   3.806
91564W        W59782  41.559  29.126   1.231
91565W        W59783  28.151   2.456   4.080
91566W        W59784   5.569  39.894  10.629
91567W        W59785   7.630  25.275   3.385
91568W        W59786  38.847   7.341  11.518
91569W        W59787   7.135  13.499  11.926
91570W        W59788  24.095  20.198  12.059
91571W        W59789  30.518  25.826   4.508
91572W        W59790  38.507  34.544   1.457
91573W        W59791  11.898   0.290  13.166
91574W        W59792  17.645   9.471   1.422
91575W        W59793  12.411  40.043   4.542
91576W        W59794  30.989  21.195   0.374
91577W        W59795  16.776   3.152  14.464
91578W        W59796  38.094  42.413   0.843
91579W        W59797  23.578  40.455   4.037
91580W        W59798  21.616  19.312   4.075
91581W        W59799  16.224  25.950  13.992
91582W        W59800  18.840  42.976   3.543
91583W        W59801  26.230   3.322  14.805
91584W        W59802  16.241  39.151  13.148
91585W        W59803  22.024  10.910  14.800
91586W        W59804  15.958  11.180   1.399
91587W        W59805  33.449  13.875   4.367
91588W        W59806  27.165   2.705  12.423
91589W        W59807  29.071  33.847  12.461
91590W        W59808  14.318  40.934  11.972
91591W        W59809  39.164   5.424  14.437
91592W        W59810  14.698  17.532  14.444
91593W        W59811  42.814  21.080   0.259
91594W        W59812  37.439   4.421  12.254
91595W        W59813  22.892  38.954  10.674
91596W        W59814  44.546  32.644  12.074
91597W        W59815  23.332  43.282   0.752
91598W        W59816  15.637  12.177  13.877
91599W        W59817  24.027  43.879   0.312
91600W        W59818  12.653   8.814  14.241
91601W        W59819  44.616  37.501  12.044
91602W        W59820  39.498   2.437  14.388
91603W        W59821  20.631  37.075   0.425
91604W        W59822  12.842  11.785   4.290
91605W        W59823  39.480  32.366   1.895
91606W        W59824  35.440  37.423   1.259
91607W        W59825   5.277  24.144   0.564
91608W        W59826  40.915  31.056  14.444
91609W        W59827   2.408  28.990  13.830
91610W        W59828  11.406   8.515  14.865
91611W        W59829   3.265  26.401  11.194
91612W        W59830  17.331   9.771   2.453
91613W        W59831   6.163   9.417   2.295
91614W        W59832   6.461   8.939  11.908
91615W        W59833  34.956   0.730   4.953
91616W        W59834   6.947  11.270   1.278
91617W        W59835   9.768  15.216  14.888
91618W        W59836  17.396  18.262  14.490
91619W        W59837   7.956   6.173  11.142
91620W        W59838  35.689  24.010  12.007
91621W        W59839  28.778  11.593  14.508
91622W        W59840  24.208  16.584   0.160
91623W        W59841  14.366  24.472  10.628
91624W        W59842  19.563   6.724  13.956
91625W        W59843  20.758  30.913  14.875
91626W        W59844  24.642  39.645   4.733
91627W        W59845  36.301  42.011   1.365
91628W        W59846  28.602  17.625  14.188
91629W        W59847   5.938  26.565  14.824
91630W        W59848  44.435  18.889   2.428
91631W        W59849  19.111  44.607  11.905
91632W        W59850  27.862  30.168  13.527
91633W        W59851   4.450  30.542  13.895
91634W        W59852  13.188  20.572  11.581
91635W        W59853  21.123  23.443  11.865
91636W        W59854  19.681  24.005   0.243
91637W        W59855  16.688  23.551   2.749
91638W        W59856   1.171  41.796  12.584
91639W        W59857  19.819  39.059  12.984
91640W        W59858  38.614   7.956   0.216
91641W        W59859  37.743  18.165   1.124
91642W        W59860  34.137  42.758  14.912
91643W        W59861  41.118  30.717   0.385
91644W        W59862  39.612  16.225   4.547
91645W        W59863   7.796   4.689  11.516
91646W        W59864  23.085  22.628  11.172
91647W        W59865   2.878  19.274  10.729
91648W        W59866  24.595   6.692  12.138
91649W        W59867  15.072   7.127   2.747
91650W        W59868   4.879  37.536   3.332
91651W        W59869  32.080   5.231  14.379
91652W        W59870  12.506  25.541   0.290
91653W        W59871  41.688  40.517   4.475
91654W        W59872  19.643  31.182  13.111
91655W        W59873  21.075   2.494   2.320
91656W        W59874   1.815   4.359  14.361
91657W        W59875  36.512  33.281   1.946
91658W        W59876  19.744  29.210  12.396
91659W        W59877  21.750   7.259  13.545
91660W        W59878  38.932  40.615   2.761
91661W        W59879  32.872   5.043   3.736
91662W        W59880  27.037  38.414  12.035
91663W        W59881   5.140  38.819  10.443
91664W        W59882  25.392   9.440  11.099
91665W        W59883   0.708  31.930  13.785
91666W        W59884  42.400   4.386   2.837
91667W        W59885  10.720   7.069   1.346
91668W        W59886  44.509   6.303  10.466
91669W        W59887  41.949  17.877   0.281
91670W        W59888   6.772  33.164   0.223
91671W        W59889  21.012   9.598   1.605
91672W        W59890  29.171  41.873  10.921
91673W        W59891  10.665  24.894   0.286
91674W        W59892  32.988  43.624   1.866
91675W        W59893  38.331  29.699  13.601
91676W        W59894   4.893  17.676  11.648
91677W        W59895  19.634   4.701  11.414
91678W        W59896  15.254  32.373   2.324
91679W        W59897   1.461  43.839  13.463
91680W        W59898  18.856   3.336  10.307
91681W        W59899   9.646  41.425  14.370
91682W        W59900  44.286  43.004   2.386
91683W        W59901  30.891   6.871  12.485
91684W        W59902  17.244  41.691   0.189
91685W        W59903  17.615  28.219   3.666
91686W        W59904  30.719  10.851   3.624
91687W        W59905  26.008  22.685   3.478
91688W        W59906  35.141  33.943  13.293
91689W        W59907  25.584   8.260  11.587
91690W        W59908  26.197  19.128  10.655
91691W        W59909  24.902   7.446   0.349
91692W        W59910  12.695   7.323  12.094
91693W        W59911  21.336  42.482  12.891
91694W        W59912  28.147  12.236  14.613
91695W        W59913  37.361  26.039  14.331
91696W        W59914  24.621  20.778  13.448
91697W        W59915  42.556  11.101   0.426
91698W        W59916  27.494  18.689  12.076
91699W        W59917  41.261  14.549  14.559
91700W        W59918   6.835  24.683  11.650
91701W        W59919   2.374   7.175   4.769
91702W        W59920  27.685   9.804   1.978
91703W        W59921  16.074  19.520   1.208
91704W        W59922  27.873  19.455  14.192
91705W        W59923  16.815  15.780   2.302
91706W        W59924   9.905  15.883  10.261
91707W        W59925   8.225  43.872  14.483
91708W        W59926  18.158   5.389   0.699
91709W        W59927  31.667   9.374  12.008
91710W        W59928  27.079  18.653   4.620
91711W        W59929   1.401  44.362   0.000
91712W        W59930  24.078  20.706   4.210
91713W        W59931  36.409  32.718  13.138
91714W        W59932   8.142  37.431   3.143
91715W        W59933  40.010   3.239   2.366
91716W        W59934  33.090  11.337  14.776
91717W        W59935   4.799  39.710  14.919
91718W        W59936  21.888   8.047  12.040
91719W        W59937  13.614  35.961   1.449
91720W        W59938  24.598  38.051   2.424
91721W        W59939  26.184  36.601   3.296
91722W        W59940  36.376  18.567   3.826
91723W        W59941   0.896  37.208   0.640
91724W        W59942  39.565  11.210   3.175
91725W        W59943  22.169   6.830  14.357
91726W        W59944  25.199   4.673  10.082
91727W        W59945  35.987  15.179  12.436
91728W        W59946   1.719  43.958  13.020
91729W        W59947  30.481  25.332   4.653
91730W        W59948   4.826  15.093  14.881
91731W        W59949  43.732   8.965  14.275
91732W        W59950  40.138  33.440   4.527
91733W        W59951  14.113  29.527   4.604
91734W        W59952  44.629  40.330  14.543
91735W        W59953  14.784  23.548  10.766
91736W        W59954  23.306   6.415  14.268
91737W        W59955   3.261   5.290   3.762
91738W        W59956  15.725   4.477   5.063
91739W        W59957   5.480  39.003   4.096
91740W        W59958  43.500  15.092   4.010
91741W        W59959   8.343  32.875  13.990
91742W        W59960  13.470  33.515   2.790
91743W        W59961  21.481  13.179  12.572
91744W        W59962  17.823  30.564   4.918
91745W        W59963   4.247  32.445  10.776
91746W        W59964  15.991  24.969  12.979
91747W        W59965  20.700  42.858  14.877
91748W        W59966  25.121  17.156   2.163
91749W        W59967   2.836   8.693  10.454
91750W        W59968  20.080  30.521   1.353
91751W        W59969  37.018   7.148   1.313
91752W        W59970   1.207  43.896  13.917
91753W        W59971  37.355  20.683  13.585
91754W        W59972  35.019   3.375  14.018
91755W        W59973   0.961  30.389   4.820
91756W        W59974  36.391  37.077   3.640
91757W        W59975  37.130  33.007   3.074
91758W        W59976  32.320   0.997  10.175
91759W        W59977  28.035  37.828  10.507
91760W        W59978  11.636  36.302   0.959
91761W        W59979  41.675  39.843   4.819
91762W        W59980  40.332   1.029   0.502
91763W        W59981  25.679  17.555   3.665
91764W        W59982  44.914  23.889   4.697
91765W        W59983  40.324   2.916   2.645
91766W        W59984  16.845  35.799  13.880
91767W        W59985  10.649   9.945  12.472
91768W        W59986  21.233  35.942   1.389
91769W        W59987  31.292  20.946  12.365
91770W        W59988  38.064  44.528  13.924
91771W        W59989   5.783  14.705  13.961
91772W        W59990  33.736  21.476   1.942
91773W        W59991  10.727  28.206  12.469
91774W        W59992   7.298  38.933   0.728
91775W        W59993   9.113  42.377  13.904
91776W        W59994  17.761  36.529  13.823
91777W        W59995  19.698  37.413   3.794
91778W        W59996  40.905   7.719   1.786
91779W        W59997  42.695   2.305   2.306
91780W        W59998  36.551  31.675   1.816
91781W        W59999   6.726   5.214   0.351
91782W        W60000  42.957  39.121   3.617
91783W        W60001  38.992  13.184  11.003
91784W        W60002  29.193   4.667  12.459
91785W        W60003  18.071   6.867   1.017
91786W        W60004  33.676  19.159  12.526
91787W        W60005   6.667  28.705   2.822
91788W        W60006  34.281  15.154   0.422
91789W        W60007  43.853  18.725   2.795
91790W        W60008  28.070   1.796  11.003
91791W        W60009  44.765  26.894  12.494
91792W        W60010  32.382   7.909  10.810
91793W        W60011  16.250  19.962   4.931
91794W        W60012   6.416   9.967  13.779
91795W        W60013  44.460  42.863   5.023
91796W        W60014   1.343   2.458  14.694
91797W        W60015  24.495   4.280   2.742
91798W        W60016   8.799   7.185  12.445
91799W        W60017  10.052  22.643  11.918
91800W        W60018  25.956  12.584   4.598
91801W        W60019  24.246  26.971   2.925
91802W        W60020  28.313  13.728   0.836
91803W        W60021   5.251  16.203   4.935
91804W        W60022  16.298  27.023  14.353
91805W        W60023  22.710  13.879  14.784
91806W        W60024   4.628  44.008   4.893
91807W        W60025  20.335  21.545  11.182
91808W        W60026  18.641  21.014   5.263
91809W        W60027  13.126  26.666  11.059
91810W        W60028  41.356  22.405  12.470
91811W        W60029  39.405  14.548   3.620
91812W        W60030  21.272  23.260   0.024
91813W        W60031   8.464  20.254  11.523
91814W        W60032   0.257  36.335   4.602
91815W        W60033  18.552   4.378   0.988
91816W        W60034  26.369  26.999  11.923
91817W        W60035   2.359  34.446   1.125
91818W        W60036  38.266   1.123  10.383
91819W        W60037  16.876   7.237  11.593
91820W        W60038   9.829   1.058  12.647
91821W        W60039   2.930  35.440   0.094
91822W        W60040   9.273  28.489   4.484
91823W        W60041   7.445  25.238  13.447
91824W        W60042   6.360  22.234   0.650
91825W        W60043  23.943  40.264   1.720
91826W        W60044  30.477  42.586  11.681
91827W        W60045  19.470  28.111   2.302
91828W        W60046  29.849   2.452   2.883
91829W        W60047   5.219  41.289   3.080
91830W        W60048   9.946  40.929   0.871
91831W        W60049  26.525   6.397  12.071
91832W        W60050  26.025   0.835   1.548
91833W        W60051  25.588  36.829   0.020
91834W        W60052   9.090  26.272   1.220
91835W        W60053   3.842  29.592  13.614
91836W        W60054   4.144  20.218   2.597
91837W        W60055   5.337   3.654   3.117
91838W        W60056  37.996  15.773   0.074
91839W        W60057  33.674  32.575   2.967
91840W        W60058  26.067  22.529  13.783
91841W        W60059  25.045  18.621  13.583
91842W        W60060  38.037  16.328   4.660
91843W        W60061  44.053  14.099  14.106
91844W        W60062  30.056   8.525  13.807
91845W        W60063  36.011  11.168   3.198
91846W        W60064  19.564  30.570  13.421
91847W        W60065  36.894  39.260   2.729
91848W        W60066  19.138   4.710   4.947
91849W        W60067   0.775  34.403   2.578
91850W        W60068  15.850  18.046  14.286
91851W        W60069   7.800  41.561  14.734
91852W        W60070  25.853  36.963   4.638
91853W        W60071  25.216   9.604  13.852
91854W        W60072  34.433  43.212  12.055
91855W        W60073  30.514   7.201  11.640
91856W        W60074  40.019  18.288  14.314
91857W        W60075  11.301  19.195  11.461
91858W        W60076   5.448  20.836  10.808
91859W        W60077  11.008  29.042  14.381
91860W        W60078  35.430   7.918  14.427
91861W        W60079   4.399  11.622   2.823
91862W        W60080  20.196  36.363  11.411
91863W        W60081  41.012  23.434   2.522
91864W        W60082  38.711   2.301  10.786
91865W        W60083  43.772  19.124   0.285
91866W        W60084  15.301  41.827  12.483
91867W        W60085   4.958   7.414  13.916
91868W        W60086  39.968  30.013   4.366
91869W        W60087  37.391  41.578   2.191
91870W        W60088  12.660  14.031  10.852
91871W        W60089  12.406  40.314   1.370
91872W        W60090   6.178   9.245  12.658
91873W        W60091  33.090   5.231  11.610
91874W        W60092   0.920  37.554  12.504
91875W        W60093   3.767  13.268   1.493
91876W        W60094  16.151  41.920   0.965
91877W        W60095  32.354  44.663   2.106
91878W        W60096  23.671  33.124   0.909
91879W        W60097  37.607   9.321  11.821
91880W        W60098  33.153  43.415  14.572
91881W        W60099  18.099  23.918   3.700
91882W        W60100  37.504  39.303   0.963
91883W        W60101  37.835  23.226  12.803
91884W        W60102  26.316  26.025   9.943
91885W        W60103  37.337  41.768   1.164
91886W        W60104   8.834  39.315   2.660
91887W        W60105  15.378  18.459  12.037
91888W        W60106  41.350  42.120  12.455
91889W        W60107  15.243  21.198  11.181
91890W        W60108  12.276  12.546  12.607
91891W        W60109   2.536  33.930   4.175
91892W        W60110   5.324  21.406  11.426
91893W        W60111  17.513  34.839  12.015
91894W        W60112  32.609  36.516  14.761
91895W        W60113  26.155  32.672   4.305
91896W        W60114   0.019  44.457  12.660
91897W        W60115  40.599  44.172   1.624
91898W        W60116  30.436  27.053  10.254
91899W        W60117   6.273  12.397  11.650
91900W        W60118  17.042   2.799   1.792
91901W        W60119  23.074   0.008  12.470
91902W        W60120   7.719   6.204  14.401
91903W        W60121   0.833  39.291   2.309
91904W        W60122  19.664  19.837  10.763
91905W        W60123  11.928  23.660  13.632
91906W        W60124   6.666   1.898   3.842
91907W        W60125  25.178  42.817  12.531
91908W        W60126   2.240  23.568  14.804
91909W        W60127  23.972   3.366   2.578
91910W        W60128  35.689  36.607  10.695
91911W        W60129  35.601  43.427  11.556
91912W        W60130  43.023  40.807  14.017
91913W        W60131  29.393  32.399  12.969
91914W        W60132  10.190   2.757  13.822
91915W        W60133  10.857  24.152  14.877
91916W        W60134   7.560  39.079   4.612
91917W        W60135  31.415  11.415  11.520
91918W        W60136  43.451  24.564  13.380
91919W        W60137  35.851  23.112  14.781
91920W        W60138  18.305   3.807  11.920
91921W        W60139  25.867  11.858  11.633
91922W        W60140  20.416  28.676  11.520
91923W        W60141   2.402  27.118  12.876
91924W        W60142  19.514   6.685   1.888
91925W        W60143   9.368   9.363   3.371
91926W        W60144  43.137  35.615   2.428
91927W        W60145  17.669  39.735   3.769
91928W        W60146  28.232  44.181  14.268
91929W        W60147  17.518  12.412  12.148
91930W        W60148  41.574  27.672  12.950
91931W        W60149   8.838  34.064  10.859
91932W        W60150  41.775  34.326   0.739
91933W        W60151  32.452  16.586  14.408
91934W        W60152  41.633  16.758   4.532
91935W        W60153  19.024  36.939  13.462
91936W        W60154   1.569  20.582  14.942
91937W        W60155  17.887   1.964   2.335
91938W        W60156  10.257  23.255   0.740
91939W        W60157  11.776  27.925  10.629
91940W        W60158   3.169   0.025  12.317
91941W        W60159   0.307  35.066  12.002
91942W        W60160  40.601   8.315  12.139
91943W        W60161   5.316  42.952   1.665
91944W        W60162  37.904  36.452   3.807
91945W        W60163   3.597  27.158   2.389
91946W        W60164  30.979  25.174  12.916
91947W        W60165  27.406  22.262   1.786
91948W        W60166  32.988  43.583   0.019
91949W        W60167  21.563   5.393   2.593
91950W        W60168  16.019  36.427   0.959
91951W        W60169  42.534  44.739   4.707
91952W        W60170  10.307  27.343   5.013
91953W        W60171  23.516   8.809  11.525
91954W        W60172  37.464  38.014   1.368
91955W        W60173  36.995  38.431  14.308
91956W        W60174  24.052   5.150   0.289
91957W        W60175  32.958   0.067  13.595
91958W        W60176  44.775  35.148  12.058
91959W        W60177  13.850  31.349  14.421
91960W        W60178  22.161  10.417   3.204
91961W        W60179  10.276  17.894  13.302
91962W        W60180  17.850  44.949   1.244
91963W        W60181  37.544   5.535  12.378
91964W        W60182  27.724  22.393  12.233
91965W        W60183   7.791  32.685  12.039
91966W        W60184  21.180  31.148   2.825
91967W        W60185  14.332  35.015  12.398
91968W        W60186   0.858  39.243   4.742
91969W        W60187  21.529   1.037   3.123
91970W        W60188  35.404   7.930   0.483
91971W        W60189   6.411  11.107  14.567
91972W        W60190  12.320  37.836   2.694
91973W        W60191  34.894   0.741   2.413
91974W        W60192  13.629  42.365  11.576
91975W        W60193  21.013  26.625   4.135
91976W        W60194  16.294  26.474  12.836
91977W        W60195  38.050   1.536   0.296
91978W        W60196  43.101   8.370   2.418
91979W        W60197  41.638  35.973   0.206
91980W        W60198  25.007  40.447  11.601
91981W        W60199  19.587   2.680  11.232
91982W        W60200  26.959  25.107  10.216
91983W        W60201  26.033  25.252  14.383
91984W        W60202  12.181   8.015  13.842
91985W        W60203  37.884  43.281   1.888
91986W        W60204  21.998  37.116  12.516
91987W        W60205  11.392  33.336   1.883
91988W        W60206  13.217   2.154  11.123
91989W        W60207   1.144  10.792   0.780
91990W        W60208  28.737  32.853   3.814
91991W        W60209  11.545  21.504  12.983
91992W        W60210   9.637  13.018  13.532
91993W        W60211   9.784  42.272   4.800
91994W        W60212  16.707  34.317   3.702
91995W        W60213  11.697   3.405  12.157
91996W        W60214  17.179  32.285   4.217
91997W        W60215  14.271  28.627  11.655
91998W        W60216  12.530  18.890  12.002
91999W        W60217   3.747  10.615  10.906
92000W        W60218   0.845  17.063   2.140
92001W        W60219  27.972  24.159   1.848
92002W        W60220   6.071  39.834  10.561
92003W        W60221  40.744  21.544   1.923
92004W        W60222   4.791  36.511   1.905
92005W        W60223  33.871  41.958  11.211
92006W        W60224  33.101  10.512   3.003
92007W        W60225  23.540   3.391   0.018
92008W        W60226  29.422  32.914  12.895
92009W        W60227  16.285  22.297   2.709
92010W        W60228   3.172  10.168   2.780
92011W        W60229   4.751   4.257  10.626
92012W        W60230   9.508   5.817   1.322
92013W        W60231   4.776  34.329  13.513
92014W        W60232  40.474  16.844  12.088
92015W        W60233  17.562  41.644   3.794
92016W        W60234  39.012  25.502   3.773
92017W        W60235  16.735   0.281  10.057
92018W        W60236  25.737  18.487   4.105
92019W        W60237  44.235  16.349  11.127
92020W        W60238  23.443  33.473   3.641
92021W        W60239  43.803  40.470  12.808
92022W        W60240  40.897  23.962   0.422
92023W        W60241  35.601  13.685   3.324
92024W        W60242  25.003  37.182   1.872
92025W        W60243  34.834  17.238  12.413
92026W        W60244  20.726  19.504   0.434
92027W        W60245  11.790   0.779   4.581
92028W        W60246   1.028  33.851  13.786
92029W        W60247  14.396   6.587   2.607
92030W        W60248  23.166  33.874   0.717
92031W        W60249   7.325  13.315  13.927
92032W        W60250  35.088   1.424   0.877
92033W        W60251  16.450   3.388   3.192
92034W        W60252  19.826  28.570  13.096
92035W        W60253  30.195  43.034  13.955
92036W        W60254  12.721  11.663  13.322
92037W        W60255   5.734   4.695   0.474
92038W        W60256  36.119  37.802  11.193
92039W        W60257   2.675   8.693  11.653
92040W        W60258  42.230  14.333   5.105
92041W        W60259  33.341  27.233   1.315
92042W        W60260  17.747  22.589  12.467
92043W        W60261   7.730  14.722  12.875
92044W        W60262  30.131  41.710  13.825
92045W        W60263  13.673   1.105   0.742
92046W        W60264   1.225  20.935  14.891
92047W        W60265  30.060  16.682   5.138
92048W        W60266  14.347   8.199  10.700
92049W        W60267  20.722  23.113   3.165
92050W        W60268  10.760  35.118  13.367
92051W        W60269  24.443  12.088   2.544
92052W        W60270  35.874  25.070   2.737
92053W        W60271   2.214  43.802   0.923
92054W        W60272   9.491  29.436  10.664
92055W        W60273   4.137  31.532  13.496
92056W        W60274   9.323  14.927  13.019
92057W        W60275  14.057  32.908  11.066
92058W        W60276  24.607  27.907   0.709
92059W        W60277   2.220   5.891  11.602
92060W        W60278  38.037  17.716  12.383
92061W        W60279   2.695   0.441  11.471
92062W        W60280  16.562  16.740   4.186
92063W        W60281  18.517   8.358  13.976
92064W        W60282   6.665  10.779  12.010
92065W        W60283  20.570  16.865   1.393
92066W        W60284  34.921  27.380   0.087
92067W        W60285   3.925  37.092   1.008
92068W        W60286  32.975  42.492  10.446
92069W        W60287  17.916  38.963   3.411
92070W        W60288  33.535  10.415   4.652
92071W        W60289  43.385  22.738  11.808
92072W        W60290  44.423  35.580  12.015
92073W        W60291  19.640  21.173   2.437
92074W        W60292  35.561  40.429   3.890
92075W        W60293   6.222  36.525   1.956
92076W        W60294  44.752  40.019   2.406
92077W        W60295  43.294  34.017   1.022
92078W        W60296  24.693  40.607   2.207
92079W        W60297  40.870  18.545  13.856
92080W        W60298  37.908  38.581  13.801
92081W        W60299  14.877  43.725  11.819
92082W        W60300  24.693  25.552   0.492
92083W        W60301  26.150  19.161  13.834
92084W        W60302  12.472   5.384   4.146
92085W        W60303  17.097  44.452  12.801
92086W        W60304  35.979   4.530   0.584
92087W        W60305   9.266  25.696   4.575
92088W        W60306  43.897  41.331   0.072
92089W        W60307  32.598   6.429   4.733
92090W        W60308  25.196  19.589   4.617
92091W        W60309  26.624  43.857   3.242
92092W        W60310  31.060  43.321  10.870
92093W        W60311   3.975   7.897  14.411
92094W        W60312   4.354   0.437   3.918
92095W        W60313  25.345   9.758  12.872
92096W        W60314   0.370   1.422  13.950
92097W        W60315  38.992  44.747  14.033
92098W        W60316  42.364  15.567   0.633
92099W        W60317  19.751  39.944   1.990
92100W        W60318  34.481  31.935  11.925
92101W        W60319   5.933  13.606  12.813
92102W        W60320   8.819  41.343   3.245
92103W        W60321   2.798  38.654   5.040
92104W        W60322  24.480  33.476  10.575
92105W        W60323  22.507  43.808  13.547
92106W        W60324  22.053   0.307  12.642
92107W        W60325  15.276  18.995   3.815
92108W        W60326   5.885   3.373  14.262
92109W        W60327  23.084  23.292  11.739
92110W        W60328  29.704   1.744   4.146
92111W        W60329  19.174  12.183   0.443
92112W        W60330   1.110   5.455   4.087
92113W        W60331  13.324  19.710  11.274
92114W        W60332  17.403  44.814   5.020
92115W        W60333  28.861  32.391  12.965
92116W        W60334  32.145   1.480   2.560
92117W        W60335  43.859  31.128   2.841
92118W        W60336  24.624  22.596  10.492
92119W        W60337  19.404  29.470  12.067
92120W        W60338  37.533  16.240   4.789
92121W        W60339  36.376  37.325   1.370
92122W        W60340  24.444  20.575   3.851
92123W        W60341   2.932  28.481   0.435
92124W        W60342  36.785  11.703  14.582
92125W        W60343   5.317  17.393  11.762
92126W        W60344  38.399  43.269   3.085
92127W        W60345  23.641  21.746   0.053
92128W        W60346  25.901   9.959  14.541
92129W        W60347  37.498  10.810   3.673
92130W        W60348  26.252  36.924   3.700
92131W        W60349   7.402  21.067   3.642
92132W        W60350  22.561  33.210   0.374
92133W        W60351  20.260  24.008  12.448
92134W        W60352   8.716  25.490  13.071
92135W        W60353  16.298   5.829   0.427
92136W        W60354  37.920  36.154   1.901
92137W        W60355  24.502  32.508   2.184
92138W        W60356  33.654  37.985   4.909
92139W        W60357  25.477  13.204   1.772
92140W        W60358  37.585  31.260   0.814
92141W        W60359  21.084  27.668   4.344
92142W        W60360   3.491  10.552   3.223
92143W        W60361  20.297  17.241  13.825
92144W        W60362   7.733  28.205   2.253
92145W        W60363   4.332   8.220  14.731
92146W        W60364  26.258  37.406   0.480
92147W        W60365  22.201  17.065  12.011
92148W        W60366  10.939  35.940  10.693
92149W        W60367  30.547  20.075   0.885
92150W        W60368  26.052  21.676  11.610
92151W        W60369  27.746   9.126  12.759
92152W        W60370   8.733  17.535  14.469
92153W        W60371  40.125  38.398  12.605
92154W        W60372  33.499  21.239  11.197
92155W        W60373  38.410  19.734   1.030
92156W        W60374  38.265  17.381  13.645
92157W        W60375  20.612  36.776  12.999
92158W        W60376  22.088  43.482  14.326
92159W        W60377  17.764  22.618   1.382
92160W        W60378  16.180  37.554   2.743
92161W        W60379  17.719   0.060   3.286
92162W        W60380   7.777  16.995  13.469
92163W        W60381  21.815  44.243  13.837
92164W        W60382  23.464  39.398  14.844
92165W        W60383  14.165   3.405  12.056
92166W        W60384  16.179  28.526  13.484
92167W        W60385  12.038   3.185  13.976
92168W        W60386  16.651  25.630  12.904
92169W        W60387  29.914  32.430  12.978
92170W        W60388   6.262  44.338   2.812
92171W        W60389  28.743  27.947  14.410
92172W        W60390  31.077   7.887  12.530
92173W        W60391  34.614   8.651  10.791
92174W        W60392   0.927  40.358  13.728
92175W        W60393  11.736  43.058  12.795
92176W        W60394  14.245  39.530   4.657
92177W        W60395  41.347  44.345   4.889
92178W        W60396  31.068  27.187   9.873
92179W        W60397  26.405   6.752  10.645
92180W        W60398  44.835  12.972  13.903
92181W        W60399  21.786  30.599  14.471
92182W        W60400  15.745   7.384  11.443
92183W        W60401  34.118  32.234  14.363
92184W        W60402  26.062  43.592   0.961
92185W        W60403  31.415   5.678  13.833
92186W        W60404   4.232  10.672  11.079
92187W        W60405   9.003  12.700   1.190
92188W        W60406  32.593  42.468   1.425
92189W        W60407  21.972   6.105   3.472
92190W        W60408  31.577  37.597  10.313
92191W        W60409   9.286  42.004   3.663
92192W        W60410  22.648  16.485  10.713
92193W        W60411  12.936  34.006  12.797
92194W        W60412  41.044  10.098  12.810
92195W        W60413  40.815   7.215  11.143
92196W        W60414   3.832  18.510  12.510
92197W        W60415  44.098  26.778   1.613
92198W        W60416  35.310  18.005   4.170
92199W        W60417   6.650  13.175   3.598
92200W        W60418  27.711  19.653  14.835
92201W        W60419  15.535  25.700   1.148
92202W        W60420  26.387  28.965  11.056
92203W        W60421  33.379  11.221   3.178
92204W        W60422  15.733  25.927  14.225
92205W        W60423  11.897  39.287   0.712
92206W        W60424  18.549  27.376  14.440
92207W        W60425  10.864   0.260  13.041
92208W        W60426  42.868  38.315  12.087
92209W        W60427  34.806  13.756  14.924
92210W        W60428  31.072  29.656  14.502
92211W        W60429   4.714  44.305   4.176
92212W        W60430  23.598  43.405  14.851
92213W        W60431  19.198  37.346   9.717
92214W        W60432  14.583   2.935   3.106
92215W        W60433  43.128  21.268  14.726
92216W        W60434  20.890  18.609  13.234
92217W        W60435   9.147  28.082   1.990
92218W        W60436  27.222  23.555  14.806
92219W        W60437   4.763  10.661  12.315
92220W        W60438  23.756  17.291   0.735
92221W        W60439  16.500  18.101   0.860
92222W        W60440   8.647   7.180  13.801
92223W        W60441  29.540   8.144   3.222
92224W        W60442   4.846  16.837   0.753
92225W        W60443  14.829  39.786  11.606
92226W        W60444  21.944  11.900  12.648
92227W        W60445  22.754  14.860  11.548
92228W        W60446  44.323  41.217  12.533
92229W        W60447  34.954  36.273  13.411
92230W        W60448  35.027  42.910   3.047
92231W        W60449  36.964  34.958   0.818
92232W        W60450  20.496  17.676   1.841
92233W        W60451   7.046   4.731   0.958
92234W        W60452  33.089  38.495  12.397
92235W        W60453  43.110  17.040  12.570
92236W        W60454  23.633  22.501   3.356
92237W        W60455   9.234  26.669  12.015
92238W        W60456  18.739   2.824  11.983
92239W        W60457   5.933  30.578  13.040
92240W        W60458   1.225   8.867  13.503
92241W        W60459   3.651   7.917  12.798
92242W        W60460  19.528  35.826   2.343
92243W        W60461   4.851  35.303  13.133
92244W        W60462  17.598  37.364   0.793
92245W        W60463   1.930  22.925   2.463
92246W        W60464  21.157  11.009  10.141
92247W        W60465  39.352  20.515   2.332
92248W        W60466  42.498  32.451  11.221
92249W        W60467   0.596  44.667   4.213
92250W        W60468  30.816  26.554   0.791
92251W        W60469  25.544  21.710   2.783
92252W        W60470   1.860  14.370  13.920
92253W        W60471   1.269  44.487   0.844
92254W        W60472  43.270  27.491  14.752
92255W        W60473  20.794  19.130  10.777
92256W        W60474  21.598  15.764  12.943
92257W        W60475  38.343  38.486  10.925
92258W        W60476   6.369   1.992  13.564
92259W        W60477  39.359  42.699   2.164
92260W        W60478  43.339  34.276  10.677
92261W        W60479   9.283  39.948  11.502
92262W        W60480  11.856  19.396  12.728
92263W        W60481  23.344  34.847  11.607
92264W        W60482  18.752  34.002  13.418
92265W        W60483  39.117  15.047  14.644
92266W        W60484   8.284  42.384  11.509
92267W        W60485  28.181   2.827   4.530
92268W        W60486  39.305   2.723  11.667
92269W        W60487  33.530  38.888   0.358
92270W        W60488  42.460  20.843  14.907
92271W        W60489  38.740  43.587  11.063
92272W        W60490  23.144  33.175  10.821
92273W        W60491  39.720   6.110   0.399
92274W        W60492  32.452   8.203  11.649
92275W        W60493  43.812   1.084   1.399
92276W        W60494  37.082   8.091  11.989
92277W        W60495  10.871  13.028  11.856
92278W        W60496  42.716  24.363  10.936
92279W        W60497  28.061   9.098  14.852
92280W        W60498  23.992  14.703   2.655
92281W        W60499  25.447   0.103  14.284
92282W        W60500   2.293   7.405  10.748
92283W        W60501   2.857  16.676  13.576
92284W        W60502   5.160  23.720  13.372
92285W        W60503  34.260  10.099  14.828
92286W        W60504   7.690  32.535  11.200
92287W        W60505  15.230  15.276  10.231
92288W        W60506  21.666  15.245  12.848
92289W        W60507  18.225  11.867   2.549
92290W        W60508   6.725   9.847  12.859
92291W        W60509  26.429  42.789   0.296
92292W        W60510  31.606  21.998   2.321
92293W        W60511  16.134  27.493  14.195
92294W        W60512  17.216   5.693   1.438
92295W        W60513  10.263   3.685  13.402
92296W        W60514   9.179  28.940  13.000
92297W        W60515   2.757  44.018  14.000
92298W        W60516  20.455  43.495  10.899
92299W        W60517   1.724  33.879  14.449
92300W        W60518   9.336  27.136   2.810
92301W        W60519  39.465   4.285   2.752
92302W        W60520   0.481  14.161   2.664
92303W        W60521  12.082  24.198  11.598
92304W        W60522  10.619   9.884  13.497
92305W        W60523  22.642  12.294  11.177
92306W        W60524   9.161  26.024  14.421
92307W        W60525  25.083  19.316   4.182
92308W        W60526  31.239  44.350   0.280
92309W        W60527  44.337   6.139   2.283
92310W        W60528  38.632   4.369   4.195
92311W        W60529   5.881  11.853   2.890
92312W        W60530  12.821  31.123  14.767
92313W        W60531  35.037   6.364   1.362
92314W        W60532  34.659  24.955   2.472
92315W        W60533  23.276  13.326   0.328
92316W        W60534  24.340  18.755   0.914
92317W        W60535  36.604  17.379  12.905
92318W        W60536  44.153  20.500  12.567
92319W        W60537  41.753  32.633   4.691
92320W        W60538   2.513   2.420  12.417
92321W        W60539  19.818  41.817   4.533
92322W        W60540   4.428  12.243  13.524
92323W        W60541  28.448  27.488  11.108
92324W        W60542   8.243   1.004   4.199
92325W        W60543   8.258   5.194   4.051
92326W        W60544  42.553   2.809  13.617
92327W        W60545  17.060  14.682   1.878
92328W        W60546  20.178  10.733   2.676
92329W        W60547  22.082  18.517   1.284
92330W        W60548  26.208  26.437   0.060
92331W        W60549  31.633  21.957   4.833
92332W        W60550  10.684  40.535   0.672
92333W        W60551  38.833  34.901  11.825
92334W        W60552  42.311   6.177   2.857
92335W        W60553  17.306   4.349  11.288
92336W        W60554  27.662  37.307   2.880
92337W        W60555  30.989  24.529  11.310
92338W        W60556  11.179  41.415   4.553
92339W        W60557  33.975  19.048   2.592
92340W        W60558  15.673   5.686   1.298
92341W        W60559  12.312   0.478   0.561
92342W        W60560  15.730  44.257   0.833
92343W        W60561   3.919  30.236  11.210
92344W        W60562  17.592  37.680  11.957
92345W        W60563  25.057  44.381   3.881
92346W        W60564  35.911  34.137   0.342
92347W        W60565  24.257  20.101   1.283
92348W        W60566   9.180  38.192  11.172
92349W        W60567  28.167  42.811   5.100
92350W        W60568  30.877  29.567  10.610
92351W        W60569   5.833  24.709  14.058
92352W        W60570  38.703  44.847  11.425
92353W        W60571  11.342   5.645   2.217
92354W        W60572  22.130  12.256   1.695
92355W        W60573  38.583  18.073  13.112
92356W        W60574  29.183  25.639   4.854
92357W        W60575  38.441  35.315   3.179
92358W        W60576  44.708  27.931   1.031
92359W        W60577  10.942  28.626   2.820
92360W        W60578  25.973  15.300  13.078
92361W        W60579  11.804   3.534  10.838
92362W        W60580  30.539  27.096  13.372
92363W        W60581   1.739  25.105   4.578
92364W        W60582  33.040  36.539   4.358
92365W        W60583  28.003  26.303   3.102
92366W        W60584  38.848  22.802   1.559
92367W        W60585  17.812  10.796   1.314
92368W        W60586  29.469  31.057  13.152
92369W        W60587  30.637  27.674  12.867
92370W        W60588  39.609  41.863   2.741
92371W        W60589  22.195  12.568   3.822
92372W        W60590  14.572   7.332   3.679
92373W        W60591   2.248  30.079  14.406
92374W        W60592   2.608  33.297   3.625
92375W        W60593  44.295  32.201   4.151
92376W        W60594   3.615  11.177  12.947
92377W        W60595  26.431  33.560   1.327
92378W        W60596  10.133  30.786   1.745
92379W        W60597  43.822  30.121  11.111
92380W        W60598  18.252   7.175   1.367
92381W        W60599   8.271   4.243   2.783
92382W        W60600  42.606   0.240   4.139
92383W        W60601  32.914  34.362   1.282
92384W        W60602  12.366   7.744   2.359
92385W        W60603  37.523  16.275  11.709
92386W        W60604   5.416  43.200  11.105
92387W        W60605  22.276  24.077  10.741
92388W        W60606  36.922   9.091  12.215
92389W        W60607   8.148   1.890   3.846
92390W        W60608  22.091   1.043   1.920
92391W        W60609  42.412  16.700   1.567
92392W        W60610  31.103  28.936  13.763
92393W        W60611  27.544  33.206   1.841
92394W        W60612  38.751   7.781  12.952
92395W        W60613  12.178  23.104  12.168
92396W        W60614  18.020  27.709  12.566
92397W        W60615   7.833  13.132  14.023
92398W        W60616  26.683   1.135  13.937
92399W        W60617  14.776  30.053   1.392
92400W        W60618   3.382  42.280   2.951
92401W        W60619  34.444  26.904   4.534
92402W        W60620  44.674   7.299  11.573
92403W        W60621  15.032   7.779   4.430
92404W        W60622   1.744  33.127  14.093
92405W        W60623  35.470  41.055  11.534
92406W        W60624  28.958  34.843  12.068
92407W        W60625  43.364   5.336  12.648
92408W        W60626  34.561  38.380  11.096
92409W        W60627  42.345  29.053  13.978
92410W        W60628  36.504   5.781   0.402
92411W        W60629  11.811   3.340   4.651
92412W        W60630   1.849  12.678   2.788
92413W        W60631  38.655  43.223   0.777
92414W        W60632   1.499  27.450  11.210
92415W        W60633  28.873  30.097  13.485
92416W        W60634  37.852  33.861   0.935
92417W        W60635   2.903   6.334  13.103
92418W        W60636  37.125  14.156   5.083
92419W        W60637  26.740  25.733  11.786
92420W        W60638   7.944  23.571  12.137
92421W        W60639  15.392  15.748   1.433
92422W        W60640  27.240  38.851  11.438
92423W        W60641  15.538  10.878  13.518
92424W        W60642  19.285  32.857  12.106
92425W        W60643  11.695  16.637   2.644
92426W        W60644  22.547  27.120  12.043
92427W        W60645  36.306  36.360   1.854
92428W        W60646  23.061   2.038   1.880
92429W        W60647  17.287   1.774  12.339
92430W        W60648  26.123  17.335   2.289
92431W        W60649  15.391  22.807   2.576
92432W        W60650  14.195  38.819   0.346
92433W        W60651  12.459  16.697   3.889
92434W        W60652   0.814  39.493  12.245
92435W        W60653  28.657  25.174  14.722
92436W        W60654  15.609  17.251   1.505
92437W        W60655  44.269   7.006   0.839
92438W        W60656  24.498  15.637  12.007
92439W        W60657   4.029   7.896   3.273
92440W        W60658  10.383  37.839  13.913
92441W        W60659   0.573  10.167   1.876
92442W        W60660  32.219  38.470   1.826
92443W        W60661  32.322  28.783  14.410
92444W        W60662  37.716  35.055   0.384
92445W        W60663  29.476  10.946   4.035
92446W        W60664  29.770   7.872  14.349
92447W        W60665  38.499  13.857  14.344
92448W        W60666   5.498   6.146   1.676
92449W        W60667  12.092  16.078   0.883
92450W        W60668  27.029  24.525  11.195
92451W        W60669  22.662   5.469   4.253
92452W        W60670  39.795  19.080   2.691
92453W        W60671  37.418   7.353  14.099
92454W        W60672  19.539   0.914  12.961
92455W        W60673  30.443  18.688  14.694
92456W        W60674  44.890  27.158  12.057
92457W        W60675  21.178   5.844  13.139
92458W        W60676   9.787  41.503   0.823
92459W        W60677   6.860  38.598   3.591
92460W        W60678  16.161  28.195   2.386
92461W        W60679  12.552  15.650  10.378
92462W        W60680  36.470  37.951   1.388
92463W        W60681  40.584  44.986   1.288
92464W        W60682   8.740   2.319  12.794
92465W        W60683  14.412  29.440   2.709
92466W        W60684  15.066   0.932   3.187
92467W        W60685  16.193  31.546  14.804
92468W        W60686  27.015  42.097   3.276
92469W        W60687  39.419  37.381  13.112
92470W        W60688   7.947  29.731   1.396
92471W        W60689  43.578  34.276  13.786
92472W        W60690  36.661  41.818   3.289
92473W        W60691  32.641   3.163   4.401
92474W        W60692   2.826  38.113  13.067
92475W        W60693  22.210  38.035   1.750
92476W        W60694  13.634  21.202  13.962
92477W        W60695  33.400   1.228  12.429
92478W        W60696  34.134  14.137   4.556
92479W        W60697  43.074  12.567  13.785
92480W        W60698  38.800   4.771   3.789
92481W        W60699  33.280  11.708  11.972
92482W        W60700  42.520  31.336   2.515
92483W        W60701  35.828  35.377  12.311
92484W        W60702  21.627  11.630   3.718
92485W        W60703  28.623   8.942  12.140
92486W        W60704  12.835   9.230  11.428
92487W        W60705  27.563  20.721  13.979
92488W        W60706  21.685  22.710   3.116
92489W        W60707  23.424  31.799  12.068
92490W        W60708  38.388  28.112   4.132
92491W        W60709  23.655   3.484   1.216
92492W        W60710  34.847  17.810  11.101
92493W        W60711  24.648  24.371  10.537
92494W        W60712  14.643  10.787   3.790
92495W        W60713  27.879  37.477   5.082
92496W        W60714  36.874  37.192   1.473
92497W        W60715  25.649   9.058  10.829
92498W        W60716   3.706  44.236   2.268
92499W        W60717  21.522  42.020   4.805
92500W        W60718   8.667  30.639  10.680
92501W        W60719   3.999   0.454  12.989
92502W        W60720  13.680  16.180  14.242
92503W        W60721  33.172  23.022  12.353
92504W        W60722  16.730   0.763  14.213
92505W        W60723  19.271   0.889  13.832
92506W        W60724  20.493  30.459  10.270
92507W        W60725  19.848  14.039   4.054
92508W        W60726  21.125   6.657  14.954
92509W        W60727  17.814  15.228   5.082
92510W        W60728  36.409  30.712  12.025
92511W        W60729  26.415  27.590   4.453
92512W        W60730  32.042  41.472  14.195
92513W        W60731  29.932  18.885  12.058
92514W        W60732  21.308  25.192  12.441
92515W        W60733  35.962  42.847   1.274
92516W        W60734   3.857  21.682   0.235
92517W        W60735  32.536  10.865   3.381
92518W        W60736   1.252  11.258  11.684
92519W        W60737  18.117  12.761  12.014
92520W        W60738  38.777  30.361   3.207
92521W        W60739  14.643  28.428   2.660
92522W        W60740   9.191   3.731   4.056
92523W        W60741  25.942  18.357   1.610
92524W        W60742  12.786  39.463   0.502
92525W        W60743   5.924  32.575   3.200
92526W        W60744  38.269  15.671  10.538
92527W        W60745  38.757  25.598  13.461
92528W        W60746  17.234   0.251   0.281
92529W        W60747  44.873   0.437  10.702
92530W        W60748  13.304  37.999   4.136
92531W        W60749  24.403  12.113   0.279
92532W        W60750   9.281  16.155   1.862
92533W        W60751   1.624   6.304   1.030
92534W        W60752  14.359   3.329  10.530
92535W        W60753   5.360  37.111   3.717
92536W        W60754   3.442   6.136  14.395
92537W        W60755  38.067  37.635  13.379
92538W        W60756  19.616  35.629  14.243
92539W        W60757  24.119  35.339   5.267
92540W        W60758  38.252  24.988  10.674
92541W        W60759   5.280   9.772   3.284
92542W        W60760  43.328  11.220  10.725
92543W        W60761  18.108   1.333  13.631
92544W        W60762  10.375  41.357  11.629
92545W        W60763   8.321  41.079   3.257
92546W        W60764  22.683  24.231  13.728
92547W        W60765  14.622  19.324   4.667
92548W        W60766   9.260   2.306  12.563
92549W        W60767  19.651  26.758  13.894
92550W        W60768  15.141   8.711  14.494
92551W        W60769  23.537  32.326  12.053
92552W        W60770  37.284   8.035  11.185
92553W        W60771  36.909  41.549   0.305
92554W        W60772   8.490   3.359  10.142
92555W        W60773  25.922  33.535  12.540
92556W        W60774  20.400  24.923   2.218
92557W        W60775  34.993  26.523  14.773
92558W        W60776  28.661  12.350   0.436
92559W        W60777  12.811  30.552  13.055
92560W        W60778  16.625   0.314   0.887
92561W        W60779  13.590  19.261  11.182
92562W        W60780   0.724  38.509   0.193
92563W        W60781   6.854  16.773   4.142
92564W        W60782  14.354  12.045   3.642
92565W        W60783  13.419   7.939   0.424
92566W        W60784  34.338  39.556  14.135
92567W        W60785   5.805  24.601   4.353
92568W        W60786  44.707   0.183   5.033
92569W        W60787   4.950  30.382  13.809
92570W        W60788   2.798  18.600  14.762
92571W        W60789  26.570  42.352  14.390
92572W        W60790  22.619   2.476  13.850
92573W        W60791  19.544  39.963   0.106
92574W        W60792  41.485   1.997   4.607
92575W        W60793  40.489  29.387  14.909
92576W        W60794  40.552   6.964   2.225
92577W        W60795  23.642  24.136  11.118
92578W        W60796  41.395  43.796   2.686
92579W        W60797  16.583  11.582   4.688
92580W        W60798  26.655  11.048   1.702
92581W        W60799   0.864   5.309   2.955
92582W        W60800   9.424  32.642   1.776
92583W        W60801   4.852   8.110  10.623
92584W        W60802   9.676   4.031   1.986
92585W        W60803  17.996  32.331  11.045
92586W        W60804  29.457  15.724  11.498
92587W        W60805   2.408  16.804  10.966
92588W        W60806  22.778   6.395   2.698
92589W        W60807  13.592  43.771  13.491
92590W        W60808   1.412   7.659   2.830
92591W        W60809  39.571  23.568  11.838
92592W        W60810   5.605  20.009   2.164
92593W        W60811   8.844  35.577   2.258
92594W        W60812  42.571  26.792  11.414
92595W        W60813  12.230  36.797   2.638
92596W        W60814  44.853   2.798  14.757
92597W        W60815  10.137  10.676   0.886
92598W        W60816   1.261  40.991   0.415
92599W        W60817  24.538  19.684  11.462
92600W        W60818   8.572  21.007   4.164
92601W        W60819  43.298  35.647   2.999
92602W        W60820  31.039  32.328   5.227
92603W        W60821  34.838   2.305   3.435
92604W        W60822  28.639   4.538   3.684
92605W        W60823  40.069  37.333   1.234
92606W        W60824   2.556  35.101  13.951
92607W        W60825  29.816  32.709  14.299
92608W        W60826  19.082   0.417   4.446
92609W        W60827  11.243  26.538  14.867
92610W        W60828  24.712  35.339   1.788
92611W        W60829  17.539  14.726   1.721
92612W        W60830  30.341  30.203   4.121
92613W        W60831  26.222  41.392   3.100
92614W        W60832  18.266   0.918   1.899
92615W        W60833  43.050  41.963   2.771
92616W        W60834   9.674  19.665   4.551
92617W        W60835  15.163   7.390  14.296
92618W        W60836  35.335  21.040   0.428
92619W        W60837  30.857  27.201   5.032
92620W        W60838   7.794   2.569   2.447
92621W        W60839  18.582  25.135   4.648
92622W        W60840  13.663  10.402   0.298
92623W        W60841   4.138  30.291   0.747
92624W        W60842  28.768  23.680   1.850
92625W        W60843  10.888  15.823   2.804
92626W        W60844  10.847  19.161  10.540
92627W        W60845   3.421   7.861  12.324
92628W        W60846  32.645  34.004   0.350
92629W        W60847  26.949  30.025   0.764
92630W        W60848  43.421  19.382  11.278
92631W        W60849  28.694  41.055   1.851
92632W        W60850  16.007  38.539  11.250
92633W        W60851  25.409  10.638   2.740
92634W        W60852   7.418   4.260  10.785
92635W        W60853  27.114  29.617   0.500
92636W        W60854  10.220  16.364  13.424
92637W        W60855  29.423  41.839   3.207
92638W        W60856  44.437  25.669   4.260
92639W        W60857  21.781  12.326  13.513
92640W        W60858   8.212  37.898  12.328
92641W        W60859  22.516  36.451  14.023
92642W        W60860  15.680  17.121  12.958
92643W        W60861  18.068  10.893  11.006
92644W        W60862  18.285  17.250   1.695
92645W        W60863   0.447   1.698   4.917
92646W        W60864  29.641  19.487  14.850
92647W        W60865  27.014  25.545  12.615
92648W        W60866  34.089   7.125   3.763
92649W        W60867  21.926   0.888   4.516
92650W        W60868   9.342  43.260  13.362
92651W        W60869   4.862  17.545  12.542
92652W        W60870  38.111  14.586  11.994
92653W        W60871  13.604  34.871   0.882
92654W        W60872   5.360   2.164  13.219
92655W        W60873  17.542   7.641  13.396
92656W        W60874  40.369   2.555   0.408
92657W        W60875  19.950   3.769  14.943
92658W        W60876  20.020  18.081   4.702
92659W        W60877  43.953  25.375  12.388
92660W        W60878  37.427  44.728  11.440
92661W        W60879  19.732  15.479  10.307
92662W        W60880  13.205  39.243   0.309
92663W        W60881  34.224  22.702  12.843
92664W        W60882   3.598  42.670  14.329
92665W        W60883  28.102   9.281   2.770
92666W        W60884  39.886  20.755  10.701
92667W        W60885   2.863  22.474   3.440
92668W        W60886  35.280  33.857   0.548
92669W        W60887  26.086  18.099   4.097
92670W        W60888  41.961  34.352   4.169
92671W        W60889  37.409  30.961   0.358
92672W        W60890  10.896  36.926  13.054
92673W        W60891  25.202   1.423  12.571
92674W        W60892  21.217  17.974  10.372
92675W        W60893  24.794  41.333   4.498
92676W        W60894  27.021  44.390  11.378
92677W        W60895  28.470   2.386  14.225
92678W        W60896  34.446   8.765   1.934
92679W        W60897   1.414  28.669   4.162
92680W        W60898  39.537  13.842   0.874
92681W        W60899   3.945  23.434  10.428
92682W        W60900  31.866  43.019  13.459
92683W        W60901   8.931  25.488   1.392
92684W        W60902  40.996  15.342   3.264
92685W        W60903  22.893  34.429   1.999
92686W        W60904  34.531   8.284   4.764
92687W        W60905  42.017   1.778  12.426
92688W        W60906  33.852  14.993   4.692
92689W        W60907  36.540  42.729   4.664
92690W        W60908  12.390  25.587   0.803
92691W        W60909  34.421  42.057  11.490
92692W        W60910  17.694   5.265   0.963
92693W        W60911  42.572  15.550  11.534
92694W        W60912   1.730  33.023   2.640
92695W        W60913  34.544  24.190  11.021
92696W        W60914  30.027  42.574  11.942
92697W        W60915  31.079  42.035   2.812
92698W        W60916   2.752  17.183  10.731
92699W        W60917  20.503   1.067   2.156
92700W        W60918  35.564  24.126   3.826
92701W        W60919   8.419   3.930  11.025
92702W        W60920  23.744   3.850  12.152
92703W        W60921  18.287  13.032  14.941
92704W        W60922   2.343  30.801  14.899
92705W        W60923  17.114   6.218   1.379
92706W        W60924  29.903  35.497   0.432
92707W        W60925   7.783  34.568   0.838
92708W        W60926   6.326  19.434   1.495
92709W        W60927  15.580  24.769  12.134
92710W        W60928  18.613   9.183  12.011
92711W        W60929  15.911  37.367  12.933
92712W        W60930  42.757  10.470   1.396
92713W        W60931  40.565   2.324  11.430
92714W        W60932  24.692  32.033   1.462
92715W        W60933  23.085   3.968   4.938
92716W        W60934  29.973  33.489  12.807
92717W        W60935  35.621  35.812   2.190
92718W        W60936  39.471   9.241   4.262
92719W        W60937   9.299  14.893  13.967
92720W        W60938  36.253  27.500   3.604
92721W        W60939  24.684  30.392   2.610
92722W        W60940   9.937  42.093   1.646
92723W        W60941  40.759   9.831   1.385
92724W        W60942   1.888   2.797   4.187
92725W        W60943  17.267  43.785  13.481
92726W        W60944   5.899  36.131   4.821
92727W        W60945  25.267  38.967   0.777
92728W        W60946  11.413  22.139   2.420
92729W        W60947   9.338  12.833  12.972
92730W        W60948   4.034  11.995   4.118
92731W        W60949  10.574   9.390  12.636
92732W        W60950   0.033  18.584   0.427
92733W        W60951  17.897   0.263  12.326
92734W        W60952   5.950   6.303   4.291
92735W        W60953  21.109  14.046   3.232
92736W        W60954  43.484   8.366   0.331
92737W        W60955  30.670  15.902   3.263
92738W        W60956   9.812  40.714   3.731
92739W        W60957  14.161  11.891  13.896
92740W        W60958   7.281  15.325  11.563
92741W        W60959  24.526  42.410   3.483
92742W        W60960  23.482  24.907   0.364
92743W        W60961   1.396  18.155  11.679
92744W        W60962   7.757  38.148  12.360
92745W        W60963  24.679  36.145   3.306
92746W        W60964  44.758  12.629  12.836
92747W        W60965   2.755  17.313  12.081
92748W        W60966  44.532   7.245   3.676
92749W        W60967  44.339  30.714  10.777
92750W        W60968  31.998   5.412   1.744
92751W        W60969  18.680  15.840   1.771
92752W        W60970  36.030   9.590  14.940
92753W        W60971  31.428   2.830  12.075
92754W        W60972  13.234  27.172   1.320
92755W        W60973   0.749  39.938  11.669
92756W        W60974  15.333  33.963   0.836
92757W        W60975  44.148  27.951   5.004
92758W        W60976  13.804  18.157  10.581
92759W        W60977   2.290  15.630  12.836
92760W        W60978   4.362  13.416  13.044
92761W        W60979  31.139  10.856  12.037
92762W        W60980   0.386  22.655  13.764
92763W        W60981  36.138   8.211   1.024
92764W        W60982  31.145  44.350   4.532
92765W        W60983  14.178   0.005  11.664
92766W        W60984  16.204  25.794   4.134
92767W        W60985  15.576   4.955   0.485
92768W        W60986  16.685  36.264   2.269
92769W        W60987  21.065  29.932  10.661
92770W        W60988  28.648   0.460  14.394
92771W        W60989  44.283  21.291   0.164
92772W        W60990  34.957  37.332  10.029
92773W        W60991   3.311  12.363   4.686
92774W        W60992  29.871  25.423  12.108
92775W        W60993   6.701  10.202  10.715
92776W        W60994   6.735   0.752  10.651
92777W        W60995  23.536  33.186  12.589
92778W        W60996  36.534   3.887   4.110
92779W        W60997  37.572  22.561   0.067
92780W        W60998  32.097  16.298   4.162
92781W        W60999  37.563  24.206   1.899
92782W        W61000  35.518  12.196  10.914
92783W        W61001  12.231  24.045   1.646
92784W        W61002  13.116  18.470   0.883
92785W        W61003   6.009  37.362   0.881
92786W        W61004  36.481  22.552   2.646
92787W        W61005   6.326  18.735  14.893
92788W        W61006   3.308  18.947   0.816
92789W        W61007  22.588  13.386  10.720
92790W        W61008   8.152  27.420   1.351
92791W        W61009  39.989  10.175   2.878
92792W        W61010   8.194  11.825   2.222
92793W        W61011  36.615  16.881   0.394
92794W        W61012  39.759  10.395  12.008
92795W        W61013  13.699  16.073   4.525
92796W        W61014   8.662  19.525   3.416
92797W        W61015  33.106  44.058  12.559
92798W        W61016  26.648  32.007   1.978
92799W        W61017  25.483  37.609   2.671
92800W        W61018  44.263   0.822   4.123
92801W        W61019  42.951   6.854  12.726
92802W        W61020  26.736  44.396   4.518
92803W        W61021  42.902  43.247   4.121
92804W        W61022  41.896  35.045  11.853
92805W        W61023   8.985  27.497  14.176
92806W        W61024  44.764   6.781  10.681
92807W        W61025  37.554   2.811   0.347
92808W        W61026  29.124  16.139   2.885
92809W        W61027  18.270  15.808  12.871
92810W        W61028  31.136  24.082  11.102
92811W        W61029  33.772  10.234  14.755
92812W        W61030   2.817  31.029   3.299
92813W        W61031  23.658  22.780   0.066
92814W        W61032   3.908   6.388   3.884
92815W        W61033  40.246  17.046  11.636
92816W        W61034  18.104   7.487  10.604
92817W        W61035  34.341  20.881   1.693
92818W        W61036  21.532  24.288   1.844
92819W        W61037  42.897  35.530  12.472
92820W        W61038  16.548  19.780   1.219
92821W        W61039  42.992  23.819   4.595
92822W        W61040  15.119   2.013  11.857
92823W        W61041  12.298  12.152  14.343
92824W        W61042  10.311  33.664  10.778
92825W        W61043  42.269  36.532   1.023
92826W        W61044  12.350   9.844  13.940
92827W        W61045  10.265   0.446  13.860
92828W        W61046   9.788  26.704  14.813
92829W        W61047  33.953  28.061  14.019
92830W        W61048  31.872   0.535  13.494
92831W        W61049  43.370  15.921   1.435
92832W        W61050  23.151  27.486   1.473
92833W        W61051  20.479  20.444  13.007
92834W        W61052  27.556  32.238   2.003
92835W        W61053  20.006  26.219  14.835
92836W        W61054  27.635   7.258   0.835
92837W        W61055  33.446   9.489  14.917
92838W        W61056  33.588  11.485   4.563
92839W        W61057  32.901   5.222   2.171
92840W        W61058  42.278   8.858  11.747
92841W        W61059  22.194  38.482  13.364
92842W        W61060   5.740  21.093  11.526
92843W        W61061  35.512   0.460  13.438
92844W        W61062  33.651  23.289   2.267
92845W        W61063  13.390  39.051  12.624
92846W        W61064  17.409   0.874  10.294
92847W        W61065  36.640   9.302   0.477
92848W        W61066  31.828  33.565   0.469
92849W        W61067  16.702  19.059  13.573
92850W        W61068  39.917  11.073   1.021
92851W        W61069   7.103  30.204   2.655
92852W        W61070  14.689  17.090   2.559
92853W        W61071  42.338  27.963   4.530
92854W        W61072  35.484  43.773  11.118
92855W        W61073  13.825   1.679  14.886
92856W        W61074  22.435  40.984   3.346
92857W        W61075  10.341  40.396  10.703
92858W        W61076  15.030  24.707  12.993
92859W        W61077  29.107  30.557  13.438
92860W        W61078  35.010  29.734   4.560
92861W        W61079  30.949  40.527  13.029
92862W        W61080  16.222  33.082   2.614
92863W        W61081   8.461   2.889  12.470
92864W        W61082   3.366  23.196   2.322
92865W        W61083  43.928  21.695   4.645
92866W        W61084  23.178  18.469   1.220
92867W        W61085   5.921  41.402  11.080
92868W        W61086  32.431  37.247   9.947
92869W        W61087  14.516  38.412  13.774
92870W        W61088  14.109  12.386  14.816
92871W        W61089  37.937  27.382  11.081
92872W        W61090  26.828   3.691   1.958
92873W        W61091  25.609  37.239  14.660
92874W        W61092   6.133  18.185  11.502
92875W        W61093  13.715  42.389  13.829
92876W        W61094  27.610  36.526  11.508
92877W        W61095  28.128  22.968  14.298
92878W        W61096  38.370  29.550  13.105
92879W        W61097  18.941   7.385  10.833
92880W        W61098  24.185  32.658  10.274
92881W        W61099  43.408  11.783   2.703
92882W        W61100  21.097  26.479   4.624
92883W        W61101  14.657  42.302  10.665
92884W        W61102  20.252  43.942  10.747
92885W        W61103  31.948   3.424  12.157
92886W        W61104   4.884  34.796   1.879
92887W        W61105  16.451   5.192  14.856
92888W        W61106   1.237  18.225  11.198
92889W        W61107  37.542  25.122   2.397
92890W        W61108   9.881  29.022   4.111
92891W        W61109   0.734  40.658   0.967
92892W        W61110  44.415  32.291  11.675
92893W        W61111  34.563  27.200   1.153
92894W        W61112  43.244  29.244   3.416
92895W        W61113   3.494  19.313   3.216
92896W        W61114  24.753  17.243  11.111
92897W        W61115  13.279  14.395  14.983
92898W        W61116   8.754   9.946   3.788
92899W        W61117   2.217  40.402   0.378
92900W        W61118  30.086  40.705  10.717
92901W        W61119  21.833  33.126   3.997
92902W        W61120  30.272   6.807   1.052
92903W        W61121  31.156   9.686   2.036
92904W        W61122  25.141  29.464   1.807
92905W        W61123  42.721  24.673   0.265
92906W        W61124   8.673  19.167  10.299
92907W        W61125   2.832  23.756  11.199
92908W        W61126  10.264  13.408  13.567
92909W        W61127  38.563  27.656   1.947
92910W        W61128  35.389   7.661  12.604
92911W        W61129  13.982  15.126  13.540
92912W        W61130  26.169  26.183   2.911
92913W        W61131  19.165  42.851   4.411
92914W        W61132  33.357  43.353   3.229
92915W        W61133  36.887   2.682  12.511
92916W        W61134  21.846  39.100   2.906
92917W        W61135   0.271  33.429   3.179
92918W        W61136   9.338   6.307   4.319
92919W        W61137  25.407  38.076   2.880
92920W        W61138  42.018   3.407   1.809
92921W        W61139   8.915  14.634  11.915
92922W        W61140  40.074  12.833   0.872
92923W        W61141  14.835  28.089   0.841
92924W        W61142   1.907  25.546  13.506
92925W        W61143   3.768   2.427  13.474
92926W        W61144  43.952  30.412   3.195
92927W        W61145  18.090  31.148   2.483
92928W        W61146   5.798   7.202   4.028
92929W        W61147  35.385  26.820  14.439
92930W        W61148  43.436  10.384  13.804
92931W        W61149  35.859  11.534   2.863
92932W        W61150  13.637  19.227  10.671
92933W        W61151  35.626  39.075   1.921
92934W        W61152   2.685  41.802   3.398
92935W        W61153  11.181  27.245  11.758
92936W        W61154  26.487  16.632   5.082
92937W        W61155   9.768  22.683  14.603
92938W        W61156  16.077  18.475   1.326
92939W        W61157  19.694   9.844   1.338
92940W        W61158  24.681  27.805   2.779
92941W        W61159  26.697   6.196   2.556
92942W        W61160  15.945  42.654   5.064
92943W        W61161  42.385  37.596  14.493
92944W        W61162  13.335  11.030   4.608
92945W        W61163  25.760  40.795  13.339
92946W        W61164  27.709  42.795   0.488
92947W        W61165   5.829  22.201  12.168
92948W        W61166   2.739   0.803  13.323
92949W        W61167  24.878  27.923  13.905
92950W        W61168  42.304  17.964   2.421
92951W        W61169  31.691  16.260   2.309
92952W        W61170  12.148  12.363   1.968
92953W        W61171  41.833   1.299  12.482
92954W        W61172  28.248  18.187  14.004
92955W        W61173  18.112  27.689  14.373
92956W        W61174  28.281  34.071   4.132
92957W        W61175  10.932  35.878   1.456
92958W        W61176  24.611  29.538  12.023
92959W        W61177  10.330  43.736   0.218
92960W        W61178  33.299  13.507   0.440
92961W        W61179  24.651   2.871   1.327
92962W        W61180  24.036  14.852  12.734
92963W        W61181  41.337  22.755  13.439
92964W        W61182   6.964   3.353   4.846
92965W        W61183   7.711  33.086  12.879
92966W        W61184  16.565  27.525  11.245
92967W        W61185  26.663  36.904   2.588
92968W        W61186  10.120  35.684   1.657
92969W        W61187  25.134   0.542   1.467
92970W        W61188  43.923  35.528  10.585
92971W        W61189  25.750  38.458   1.204
92972W        W61190  34.854  21.677   2.621
92973W        W61191   8.171   7.817  14.775
92974W        W61192  11.587   0.776   1.728
92975W        W61193  19.190  27.035   2.114
92976W        W61194  32.810  35.571   0.412
92977W        W61195  36.808  17.575   4.615
92978W        W61196  38.798  13.869   3.647
92979W        W61197   3.545  34.073  11.349
92980W        W61198  40.336  34.683   4.201
92981W        W61199  20.951  17.498  12.353
92982W        W61200  19.060  40.635   0.438
92983W        W61201  39.367  31.868   3.613
92984W        W61202  22.652  21.610   4.633
92985W        W61203  16.136  14.212  12.658
92986W        W61204  29.672   2.720   3.309
92987W        W61205  24.205  21.491   1.105
92988W        W61206  39.361  18.790   2.558
92989W        W61207  25.559  28.992  14.569
92990W        W61208  33.304   6.844   0.928
92991W        W61209  17.654  41.086  13.126
92992W        W61210  40.286  37.338  13.272
92993W        W61211   9.113  12.273  14.949
92994W        W61212  37.983  28.674  10.691
92995W        W61213  35.299  42.436  11.866
92996W        W61214   4.369   4.898  11.618
92997W        W61215  26.264   3.721  12.996
92998W        W61216  44.330   9.667   0.270
92999W        W61217  43.049  40.468   3.747
93000W        W61218  38.760  14.114   1.388
93001W        W61219  23.516  40.391  14.322
93002W        W61220   6.695  26.839   0.434
93003W        W61221  28.216  18.872  12.569
93004W        W61222  39.541   8.975  13.436
93005W        W61223  21.617  11.352  14.276
93006W        W61224   8.135  18.125  10.612
93007W        W61225  15.598  28.407   2.549
93008W        W61226  40.456  42.025   2.756
93009W        W61227  18.202  29.443   3.177
93010W        W61228  25.224  16.664  10.413
93011W        W61229  11.643  25.686  11.558
93012W        W61230   7.585  27.452   2.672
93013W        W61231  41.613  19.016  13.170
93014W        W61232  36.408  44.966  13.420
93015W        W61233  16.512  27.835  13.305
93016W        W61234  17.196  17.785   3.280
93017W        W61235   2.194   9.227   0.222
93018W        W61236  40.548  15.055   3.257
93019W        W61237  14.176  36.430   4.025
93020W        W61238  37.993  11.481  13.894
93021W        W61239  32.502  40.952  12.453
93022W        W61240  35.026  41.314   1.836
93023W        W61241  29.418  29.222   1.816
93024W        W61242  42.279  24.519   1.474
93025W        W61243   3.706  31.649  14.374
93026W        W61244   2.080  37.941   2.223
93027W        W61245   3.233  33.110   1.289
93028W        W61246  28.206  34.000   4.789
93029W        W61247  11.652   7.170   1.370
93030W        W61248  35.519  18.564   0.386
93031W        W61249  29.783  35.105   3.622
93032W        W61250  32.718   8.799   1.331
93033W        W61251   5.754  11.886   4.891
93034W        W61252  17.125   8.437   2.014
93035W        W61253  19.591  38.826   3.697
93036W        W61254  43.070  38.398   4.924
93037W        W61255  24.277  35.098  13.131
93038W        W61256  25.544  37.548  14.230
93039W        W61257  38.885  42.381  12.466
93040W        W61258  21.565  28.422   4.259
93041W        W61259  24.026  35.611   2.243
93042W        W61260  21.134  27.663  10.822
93043W        W61261  16.355  30.392  12.835
93044W        W61262  42.583   1.437   2.259
93045W        W61263  14.737  20.225  12.101
93046W        W61264  34.063   5.147  13.396
93047W        W61265  16.806  31.646   0.441
93048W        W61266   3.903  40.257  10.513
93049W        W61267  42.587  16.842   4.573
93050W        W61268  20.489  26.840   3.362
93051W        W61269  19.664  23.956  10.756
93052W        W61270  29.412   3.386  13.892
93053W        W61271   7.877  11.698   4.361
93054W        W61272  40.823  20.251   4.083
93055W        W61273  27.479  39.735   0.601
93056W        W61274  32.289   2.910  12.616
93057W        W61275  25.781  35.285  10.758
93058W        W61276  15.114  36.774   1.155
93059W        W61277  13.208  11.857  11.139
93060W        W61278   7.780  19.536   3.250
93061W        W61279  33.669  40.504  10.604
93062W        W61280  36.620   6.347  13.542
93063W        W61281  26.715  11.769   1.381
93064W        W61282  26.627   0.430  13.230
93065W        W61283  11.615   8.286  11.861
93066W        W61284   8.757  26.250   2.203
93067W        W61285  34.429  10.285  14.035
93068W        W61286  18.443   4.487   4.021
93069W        W61287  10.280  24.685  11.169
93070W        W61288  13.090  39.555  14.417
93071W        W61289   3.819  35.694  13.835
93072W        W61290  24.599  33.378  12.949
93073W        W61291   7.320  38.270   3.807
93074W        W61292   9.929  24.684   2.913
93075W        W61293  38.867   1.018   4.865
93076W        W61294   3.853  38.814  11.714
93077W        W61295  30.427   2.783   0.621
93078W        W61296   0.743   1.993  11.888
93079W        W61297  22.706  23.473  11.147
93080W        W61298  32.569   8.131   0.260
93081W        W61299  16.753  26.492  10.547
93082W        W61300  32.327  41.193  11.192
93083W        W61301  19.201  18.392   2.183
93084W        W61302   5.212  41.962  14.783
93085W        W61303  36.096  42.019   2.755
93086W        W61304   5.345  19.532  13.412
93087W        W61305   4.911   2.240  12.485
93088W        W61306  23.770  14.176   4.676
93089W        W61307  41.419  40.313  13.267
93090W        W61308  18.594  41.936  14.542
93091W        W61309  43.743  22.175  12.495
93092W        W61310   3.786  12.824   3.746
93093W        W61311  27.979  30.543   3.130
93094W        W61312  40.824  18.274  12.522
93095W        W61313   8.654  19.819   0.372
93096W        W61314  23.555  13.734  13.006
93097W        W61315  40.380  34.540  12.927
93098W        W61316  43.587  28.391  13.963
93099W        W61317  39.983   9.156  11.594
93100W        W61318  18.079  38.946  11.856
93101W        W61319  13.139  25.810  11.162
93102W        W61320   1.570  10.871   3.185
93103W        W61321  35.175  27.008  14.864
93104W        W61322  30.819  17.691  14.881
93105W        W61323  31.999  19.528   4.612
93106W        W61324  17.635  18.592   0.389
93107W        W61325   6.818   1.625   0.595
93108W        W61326   2.404  31.202   1.702
93109W        W61327  37.075  26.630  14.298
93110W        W61328  17.550  33.411   2.267
93111W        W61329  25.527  16.705   3.461
93112W        W61330   5.082  26.979   4.059
93113W        W61331  32.357  24.620   2.158
93114W        W61332   3.529  41.466   3.723
93115W        W61333  41.537   9.876   4.110
93116W        W61334  11.853  31.963  11.411
93117W        W61335  39.357  36.776  11.523
93118W        W61336  24.659  35.989  10.593
93119W        W61337  24.000   0.025  12.572
93120W        W61338  35.974  36.929  11.065
93121W        W61339  15.323   5.397  14.178
93122W        W61340  30.058   4.807   3.389
93123W        W61341  15.395   1.412   0.765
93124W        W61342   2.265   0.796  12.509
93125W        W61343  15.552  33.155  13.852
93126W        W61344   0.902  21.241  13.077
93127W        W61345  30.229  23.966   3.255
93128W        W61346  31.765  18.104   4.868
93129W        W61347  42.964   4.950   0.872
93130W        W61348  22.652  44.292  13.494
93131W        W61349  14.369  20.143   4.305
93132W        W61350   5.949  14.347  12.662
93133W        W61351  12.354  10.146  14.392
93134W        W61352  24.530  32.206  14.466
93135W        W61353  35.553  11.179  11.924
93136W        W61354  29.000  18.270  11.112
93137W        W61355  19.848   7.624   1.686
93138W        W61356  37.508  11.246  14.955
93139W        W61357  38.296  44.886  12.358
93140W        W61358  16.865  16.773  11.126
93141W        W61359  18.848  21.051   1.913
93142W        W61360  44.530   7.852  13.727
93143W        W61361  18.215  21.492  14.213
93144W        W61362  18.047  21.720  10.475
93145W        W61363  26.012  30.823   1.735
93146W        W61364  15.137  42.036  10.590
93147W        W61365   5.921  25.156  14.305
93148W        W61366  18.123  40.704   1.651
93149W        W61367  38.884   6.667   3.736
93150W        W61368  35.555  36.958  11.361
93151W        W61369   6.244  42.034   2.940
93152W        W61370  19.546   8.634  13.941
93153W        W61371  40.987  21.993  11.563
93154W        W61372  38.121  19.367   1.341
93155W        W61373  16.632   8.286   2.186
93156W        W61374  42.385  12.264   1.449
93157W        W61375  15.106  13.995  14.804
93158W        W61376   6.372  23.609  14.022
93159W        W61377  13.547  16.235  12.852
93160W        W61378  40.974   9.376   1.242
93161W        W61379  11.093   3.188   1.919
93162W        W61380   3.611  23.715  13.553
93163W        W61381  23.012  14.210   3.274
93164W        W61382  24.722  44.290   1.339
93165W        W61383  23.285  35.824  11.991
93166W        W61384  19.171  44.003   0.340
93167W        W61385   6.400  19.423  12.031
93168W        W61386  36.397  37.238   0.059
93169W        W61387   9.021  38.051   4.188
93170W        W61388  22.552  43.739  14.315
93171W        W61389   0.386  20.175  14.076
93172W        W61390  26.169  25.151   2.450
93173W        W61391  33.006   9.215   1.520
93174W        W61392  20.211  13.259   0.302
93175W        W61393   2.977  37.363   0.431
93176W        W61394  11.321   0.751  13.917
93177W        W61395  20.575   8.857   0.750
93178W        W61396  19.118  21.567   0.699
93179W        W61397  34.570  33.378  10.553
93180W        W61398  35.879  35.930  10.952
93181W        W61399   8.820  24.463  12.312
93182W        W61400  14.551  41.000   0.985
93183W        W61401  15.105  32.005   0.487
93184W        W61402  16.610  21.842   1.881
93185W        W61403   0.466  15.269   0.643
93186W        W61404   3.643   4.087  13.746
93187W        W61405   0.030  37.392  10.853
93188W        W61406  34.443  42.304  13.106
93189W        W61407  29.076  13.869  11.311
93190W        W61408  12.733  44.450   2.860
93191W        W61409  35.720  15.156   0.469
93192W        W61410   0.294  18.666   0.004
93193W        W61411  42.402  36.049   1.879
93194W        W61412  13.787   7.078   0.322
93195W        W61413   3.414  33.651  12.639
93196W        W61414   2.886  39.036   2.213
93197W        W61415   7.011   0.024   0.030
93198W        W61416  15.067  21.535   3.079
93199W        W61417  12.720  42.581  12.326
93200W        W61418  44.860  21.005  11.922
93201W        W61419  43.958  23.511   3.260
93202W        W61420  26.895   3.358  14.168
93203W        W61421  30.016  26.954  13.433
93204W        W61422  21.440  21.626   4.690
93205W        W61423   8.884   7.991   1.279
93206W        W61424  17.596  25.953   3.277
93207W        W61425  44.511  16.145   0.200
93208W        W61426  33.841  27.054  10.526
93209W        W61427  40.777   4.995  14.488
93210W        W61428   4.801  30.595   2.616
93211W        W61429  23.576  34.195  12.500
93212W        W61430  17.835  23.173  14.022
93213W        W61431  44.234   0.044   4.886
93214W        W61432   0.457   9.523   0.393
93215W        W61433  29.147  39.006   2.375
93216W        W61434  32.323  23.767  11.080
93217W        W61435  44.709  10.088   0.921
93218W        W61436  38.449   1.112   9.889
93219W        W61437  15.269  39.476   2.481
93220W        W61438  29.456   2.696  10.689
93221W        W61439  41.014  20.003  14.812
93222W        W61440   2.007   5.171   3.234
93223W        W61441   6.844  13.681  13.401
93224W        W61442  10.327  19.880   3.688
93225W        W61443  32.439  44.331   4.150
93226W        W61444  12.575   9.143   3.200
93227W        W61445  44.937  29.204  11.136
93228W        W61446  43.017  32.483  11.082
93229W        W61447  31.592  23.284  14.246
93230W        W61448  32.070  15.326  12.932
93231W        W61449  35.989  10.141   1.768
93232W        W61450  21.237  22.726  14.617
93233W        W61451  16.756  24.142   3.693
93234W        W61452  22.427  32.308   4.479
93235W        W61453  29.656   8.196  13.796
93236W        W61454   5.383  35.396  13.838
93237W        W61455  22.650   2.720   2.792
93238W        W61456  26.606   5.194   4.632
93239W        W61457  25.429   1.017   4.934
93240W        W61458  44.478   6.434   2.697
93241W        W61459  43.112  36.523   4.469
93242W        W61460   5.874  42.882  13.588
93243W        W61461  39.525  27.978  12.980
93244W        W61462  10.122  41.317   2.825
93245W        W61463  42.938  33.981  10.830
93246W        W61464   7.667   7.767  10.746
93247W        W61465  35.136  12.206  11.255
93248W        W61466   1.893   0.422  14.742
93249W        W61467  33.669  32.509  13.912
93250W        W61468  20.004  12.741   0.441
93251W        W61469   0.256   0.079   0.416
93252W        W61470   6.480  23.287   4.676
93253W        W61471  44.217  41.463  12.991
93254W        W61472  21.703  19.063   0.226
93255W        W61473  39.848  21.788  10.597
93256W        W61474   6.769   6.384   0.978
93257W        W61475  32.422  16.345   1.776
93258W        W61476   0.787  28.664   1.633
93259W        W61477  21.172   3.997   4.916
93260W        W61478  15.209  15.536   4.117
93261W        W61479  32.725   8.097  13.450
93262W        W61480   4.850   0.363   3.184
93263W        W61481  40.427  20.080  10.606
93264W        W61482   8.330  39.282   0.904
93265W        W61483  17.814  41.523   0.874
93266W        W61484  18.487  38.329   0.311
93267W        W61485  25.179  27.475   1.677
93268W        W61486  21.691  10.325  11.526
93269W        W61487  30.134  29.210  12.524
93270W        W61488  32.514  37.286   2.253
93271W        W61489   2.952  23.661   3.687
93272W        W61490  32.633   8.702  13.985
93273W        W61491   0.499   8.379  12.463
93274W        W61492  15.286  34.508   4.908
93275W        W61493  30.712  41.162  11.842
93276W        W61494  15.158  15.996  13.505
93277W        W61495   3.238  31.387   4.339
93278W        W61496  42.323  33.223  12.963
93279W        W61497  13.620  27.930   4.132
93280W        W61498  20.642  12.871  14.857
93281W        W61499  37.094  22.053  13.890
93282W        W61500  44.792  38.407   3.137
93283W        W61501  28.457  42.848   3.262
93284W        W61502  40.734  30.048  11.125
93285W        W61503  15.591   7.226   3.756
93286W        W61504  35.466  14.070   1.335
93287W        W61505  33.568   3.849   1.745
93288W        W61506  33.892  12.339  11.359
93289W        W61507  34.540  18.389   1.884
93290W        W61508   7.448  40.777  12.890
93291W        W61509  39.190  33.462   4.567
93292W        W61510   3.437   2.746   3.799
93293W        W61511  16.467  23.006  11.195
93294W        W61512   0.503  24.337   0.896
93295W        W61513  16.329   4.407  11.162
93296W        W61514  10.612   0.398   1.730
93297W        W61515  18.272  18.711   1.964
93298W        W61516  22.142  43.260  14.870
93299W        W61517  42.305  24.996   0.270
93300W        W61518  21.754  32.900   2.034
93301W        W61519  36.037  22.124   4.418
93302W        W61520  39.494  12.709   1.475
93303W        W61521   3.681  16.799  10.095
93304W        W61522  25.543  30.867   4.251
93305W        W61523   3.238   8.788   0.323
93306W        W61524  14.913  33.482   4.091
93307W        W61525  37.789  18.128  14.118
93308W        W61526  20.991   7.824  14.458
93309W        W61527   8.418  29.865   1.890
93310W        W61528  44.545  33.533  11.653
93311W        W61529  20.469  11.171   0.375
93312W        W61530  41.384  34.804  13.969
93313W        W61531  24.015  39.906  14.894
93314W        W61532  42.414  28.093  10.705
93315W        W61533  19.687  33.777  12.931
93316W        W61534  11.822  29.624   4.879
93317W        W61535  39.769   9.825   3.174
93318W        W61536   0.047  22.128   3.546
93319W        W61537  18.975  23.512   2.330
93320W        W61538  27.397   3.234   0.983
93321W        W61539  22.240  40.788   0.446
93322W        W61540  28.586  25.618   3.226
93323W        W61541  43.275   8.191  13.304
93324W        W61542   8.687   2.887   2.284
93325W        W61543   1.871  40.446   0.812
93326W        W61544  39.595  14.298  14.864
93327W        W61545  41.208  17.163   1.154
93328W        W61546  38.270  12.638  13.781
93329W        W61547   8.490  29.792   0.208
93330W        W61548   5.854  44.938  14.538
93331W        W61549  27.248  36.882  14.474
93332W        W61550  40.503  24.797  12.893
93333W        W61551  18.767   0.849  13.538
93334W        W61552  15.648  20.463   0.489
93335W        W61553   8.971  28.525   1.748
93336W        W61554  20.608  19.980   3.369
93337W        W61555  25.723  36.862   2.787
93338W        W61556  38.386  42.194   2.217
93339W        W61557   9.897  11.809   1.809
93340W        W61558  43.354   6.966  11.644
93341W        W61559  44.384   9.395  11.080
93342W        W61560  18.237  34.820  13.430
93343W        W61561  19.776  12.148  10.660
93344W        W61562  25.393  24.952  14.976
93345W        W61563  12.849  21.786  14.587
93346W        W61564   9.732  12.657   4.212
93347W        W61565  43.510  21.275  11.637
93348W        W61566  31.493  19.966  14.425
93349W        W61567   0.339  26.434  10.849
93350W        W61568  14.289  44.377  14.283
93351W        W61569  29.529  12.996  10.101
93352W        W61570  20.637  14.585  13.500
93353W        W61571   5.398   9.444  12.745
93354W        W61572  38.258   8.890  11.150
93355W        W61573  36.452   9.060  12.631
93356W        W61574  16.788  33.241   2.703
93357W        W61575   3.823  23.453  14.738
93358W        W61576  31.118  36.243   4.557
93359W        W61577  35.401  10.740   1.440
93360W        W61578  31.490  40.395  14.268
93361W        W61579   8.979  14.299  10.663
93362W        W61580   7.627  16.051   4.386
93363W        W61581   8.277  14.509   2.757
93364W        W61582  32.832  30.713  11.823
93365W        W61583  11.589   3.747   1.262
93366W        W61584  15.635   9.218   0.452
93367W        W61585  36.688  23.215  11.122
93368W        W61586  32.994  38.376   3.142
93369W        W61587  37.284  17.031   0.230
93370W        W61588  42.985  11.286   3.376
93371W        W61589  33.134   6.635  10.640
93372W        W61590  31.919  39.025   5.103
93373W        W61591  30.908  11.371   5.067
93374W        W61592  18.861   2.214  13.072
93375W        W61593  20.247   0.769   2.609
93376W        W61594  31.528  41.569  10.699
93377W        W61595   7.827   7.272  10.857
93378W        W61596  41.267   8.570   1.720
93379W        W61597  28.148  12.305   4.017
93380W        W61598  26.680  24.494  13.819
93381W        W61599   2.005  13.416  11.502
93382W        W61600  13.669  36.763   0.874
93383W        W61601  16.526  38.783  12.909
93384W        W61602  16.461  16.784   4.705
93385W        W61603  17.665   2.759   1.490
93386W        W61604  11.378  40.357   4.084
93387W        W61605   1.379  37.327   0.799
93388W        W61606  19.106  21.225   1.507
93389W        W61607  42.142  20.982  12.096
93390W        W61608   8.671  39.044   3.504
93391W        W61609  37.322  21.446   3.626
93392W        W61610  15.769  43.637   3.279
93393W        W61611  42.986   6.600   4.177
93394W        W61612  12.834  44.770   1.368
93395W        W61613  13.185  31.416  11.521
93396W        W61614  24.778  35.439   0.408
93397W        W61615   3.224   9.769  11.978
93398W        W61616  37.352  33.372   4.723
93399W        W61617  42.874  26.472   0.873
93400W        W61618  34.715  41.665  10.710
93401W        W61619   6.242  14.462   4.745
93402W        W61620  33.907  23.997  14.838
93403W        W61621  36.224  17.053   2.530
93404W        W61622  24.005  23.721  14.699
93405W        W61623   7.315  34.050   0.520
93406W        W61624   2.243   2.008  14.354
93407W        W61625  17.505   3.330  10.530
93408W        W61626  43.042  26.927   4.082
93409W        W61627  42.937  16.016  14.955
93410W        W61628  41.453   6.214   2.955
93411W        W61629  38.476  28.051  11.042
93412W        W61630   4.898  17.139   2.197
93413W        W61631  15.123   3.433   3.673
93414W        W61632  18.491  28.992   3.238
93415W        W61633  31.596   8.206   4.058
93416W        W61634  41.567  14.232  10.556
93417W        W61635  42.031  27.510  11.560
93418W        W61636  23.155  44.850  10.466
93419W        W61637  22.111  37.653  11.739
93420W        W61638  38.009   8.227   4.810
93421W        W61639  28.535  24.927  13.935
93422W        W61640  37.304  40.411  14.858
93423W        W61641  25.992  34.678   4.547
93424W        W61642  38.483  40.621   2.393
93425W        W61643  20.969  28.539  10.554
93426W        W61644  19.579   6.300  11.586
93427W        W61645  17.248  16.992  11.619
93428W        W61646  14.020  12.319   1.644
93429W        W61647  16.209  37.575  10.978
93430W        W61648  17.519  35.564  11.625
93431W        W61649   5.330  25.533   0.889
93432W        W61650  31.833  13.779  10.388
93433W        W61651   2.727  25.067   0.285
93434W        W61652  36.373   0.195   3.075
93435W        W61653  19.466  44.543   4.206
93436W        W61654  44.362  31.201   0.256
93437W        W61655  17.742  23.011  10.983
93438W        W61656  31.133   6.715   2.243
93439W        W61657  13.107  38.641   1.782
93440W        W61658   2.507  15.842   2.270
93441W        W61659  27.669   9.203   4.253
93442W        W61660  28.189  27.675   4.212
93443W        W61661  26.147  37.863   0.835
93444W        W61662  34.575   9.892  12.031
93445W        W61663  30.216  44.363  13.153
93446W        W61664  29.401   4.506   4.042
93447W        W61665  40.799  35.500  13.788
93448W        W61666   4.310  37.406   0.429
93449W        W61667  14.141  12.846   1.684
93450W        W61668  16.749  20.465   3.881
93451W        W61669  27.998   5.854  12.606
93452W        W61670  18.444  15.581  13.312
93453W        W61671   9.874  26.508   3.348
93454W        W61672  16.712  40.405   3.741
93455W        W61673  18.996   0.944  11.143
93456W        W61674  20.341  33.136  13.074
93457W        W61675  29.157   0.924   3.877
93458W        W61676  13.576   9.454  13.415
93459W        W61677   9.332  14.196   2.422
93460W        W61678  26.506   9.619   1.905
93461W        W61679  44.681   7.925   0.615
93462W        W61680  30.261  37.889   1.890
93463W        W61681   1.964  27.592   0.998
93464W        W61682  40.705  30.160   1.537
93465W        W61683  30.176  17.286  12.726
93466W        W61684  27.910   8.826   4.550
93467W        W61685   7.244  37.548   0.923
93468W        W61686  16.332  34.024  10.548
93469W        W61687  15.876  33.496  12.398
93470W        W61688  33.474  16.723  14.675
93471W        W61689  25.045  30.520   1.759
93472W        W61690  10.758  41.935   2.571
93473W        W61691  32.371  30.501  10.937
93474W        W61692  14.142   5.737  14.531
93475W        W61693   5.767  32.399  13.286
93476W        W61694  31.456  33.006  12.138
93477W        W61695  40.599  10.464  12.808
93478W        W61696  37.935   9.109  10.626
93479W        W61697  26.773   1.517  14.850
93480W        W61698  38.424   1.774   4.725
93481W        W61699  27.046   1.845   4.232
93482W        W61700   5.971  33.055  14.644
93483W        W61701  23.117  37.256   5.163
93484W        W61702  37.143   6.306  14.482
93485W        W61703  28.546  42.462  13.401
93486W        W61704  22.733  32.504  11.189
93487W        W61705  12.302  15.322  13.523
93488W        W61706  44.766   6.339  11.444
93489W        W61707  40.936  32.547   4.177
93490W        W61708  26.099  13.538  13.496
93491W        W61709  26.588   7.504  14.105
93492W        W61710  37.343  41.263   0.279
93493W        W61711   2.743  21.218   2.884
93494W        W61712   7.854  10.144  12.025
93495W        W61713  43.228   3.946  12.183
93496W        W61714  17.340  30.771   5.005
93497W        W61715  37.851   0.912  11.120
93498W        W61716  33.143  34.451  12.003
93499W        W61717  13.774  34.656  11.911
93500W        W61718  14.841  29.914   4.886
93501W        W61719  20.629  34.877  14.590
93502W        W61720  27.545  44.025  13.006
93503W        W61721  11.665   2.437   9.981
93504W        W61722  30.717  39.789   0.391
93505W        W61723  37.053   0.451  12.978
93506W        W61724  23.343  31.431   2.838
93507W        W61725  28.063  36.262  12.220
93508W        W61726  15.559   1.438   2.152
93509W        W61727  27.643  35.455  12.023
93510W        W61728  38.353   0.823   5.623
93511W        W61729  35.269   1.842   3.697
93512W        W61730  43.277  29.254   0.841
93513W        W61731  35.372   6.097  13.886
93514W        W61732  31.432  24.989  10.705
93515W        W61733  35.711  35.454  10.797
93516W        W61734  10.834  18.833   3.217
93517W        W61735  21.600  11.648  12.125
93518W        W61736  37.899  22.751  10.618
93519W        W61737  34.473  40.537  11.578
93520W        W61738   2.587  20.185  14.380
93521W        W61739  13.752  16.030  11.887
93522W        W61740   0.873   2.890  12.633
93523W        W61741  20.223  32.821   3.765
93524W        W61742  33.178  12.255   4.274
93525W        W61743  22.452  23.244   3.814
93526W        W61744  28.738  37.536  10.731
93527W        W61745  12.058  26.620  11.611
93528W        W61746  37.671  17.726  11.967
93529W        W61747   5.327  30.724   4.811
93530W        W61748   8.628   5.885   0.026
93531W        W61749  19.774  42.457   2.724
93532W        W61750  26.063  17.955   0.295
93533W        W61751  15.389  27.686  13.001
93534W        W61752  29.379  27.590  12.603
93535W        W61753   5.947   4.209   2.767
93536W        W61754  25.966   1.399   0.419
93537W        W61755  30.555  12.253   3.490
93538W        W61756  40.367  36.317  12.513
93539W        W61757   6.456  38.120  13.491
93540W        W61758   7.330   4.683  12.401
93541W        W61759  34.658  30.934  14.806
93542W        W61760  29.336  31.918   1.427
93543W        W61761  24.980  13.132  12.332
93544W        W61762  37.137  32.791  14.477
93545W        W61763  16.668  30.000  14.525
93546W        W61764  21.010  24.908   0.765
93547W        W61765  43.599  29.677   0.763
93548W        W61766   5.080   1.309   0.444
93549W        W61767  42.286  22.131   1.344
93550W        W61768  22.659  22.556  14.359
93551W        W61769  23.025   5.841  13.822
93552W        W61770  41.958  39.760  10.327
93553W        W61771  21.653   0.913  10.736
93554W        W61772  44.800  10.103  14.453
93555W        W61773  11.630  38.631   1.339
93556W        W61774   4.600   8.670  11.984
93557W        W61775  11.561  14.505   4.605
93558W        W61776  40.582   1.585   2.624
93559W        W61777  38.903   0.241   0.801
93560W        W61778  44.233  21.511  14.515
93561W        W61779   7.899  29.056   0.267
93562W        W61780  41.386   2.280  14.360
93563W        W61781   7.802   8.720  10.268
93564W        W61782  29.002   3.801   0.945
93565W        W61783   4.957   5.678   2.308
93566W        W61784  37.966   0.448  13.050
93567W        W61785  17.623   9.557  12.024
93568W        W61786  41.785  19.165   2.280
93569W        W61787  25.431  27.591  10.684
93570W        W61788  19.178  13.224   3.909
93571W        W61789  26.297  22.488   0.157
93572W        W61790  32.277  22.283  12.164
93573W        W61791  22.505   7.833  13.841
93574W        W61792  38.763  15.633   3.127
93575W        W61793   9.087  15.053   3.472
93576W        W61794   2.705   7.219   2.531
93577W        W61795  33.862   3.277  13.528
93578W        W61796  27.087   2.849   2.323
93579W        W61797   1.247  32.130  14.848
93580W        W61798   2.279  19.313   2.209
93581W        W61799  17.636  29.207   3.734
93582W        W61800  19.553  20.699  14.725
93583W        W61801  37.577   7.957  11.996
93584W        W61802  36.355  41.839  12.698
93585W        W61803  34.272  33.630  13.429
93586W        W61804  20.065  40.384   1.021
93587W        W61805   3.093  30.702   1.187
93588W        W61806  21.676  11.099   1.328
93589W        W61807   6.432  37.429   2.285
93590W        W61808  29.483  14.777   0.391
93591W        W61809  42.327   1.971   2.157
93592W        W61810  10.200  20.761   0.918
93593W        W61811  12.079  31.031  14.326
93594W        W61812  37.918  26.484   2.815
93595W        W61813  26.183  32.689  13.993
93596W        W61814  24.234  35.163  11.380
93597W        W61815  13.220  12.578  10.382
93598W        W61816  21.965  29.577  11.529
93599W        W61817  16.747  12.421  11.995
93600W        W61818  15.803   0.018  14.930
93601W        W61819  19.593  20.892   0.203
93602W        W61820  38.014  35.183  10.969
93603W        W61821  38.081  32.572  12.172
93604W        W61822  33.314   0.930  14.426
93605W        W61823  16.360  13.887   3.657
93606W        W61824  16.218  10.517   1.351
93607W        W61825  28.555  16.470   3.674
93608W        W61826  44.353  44.181  11.627
93609W        W61827  44.033  12.673   1.371
93610W        W61828  22.104  11.917  13.382
93611W        W61829  42.396  33.512  13.479
93612W        W61830  17.183  14.888  14.737
93613W        W61831   7.015  19.125   4.243
93614W        W61832  24.245  36.990   3.075
93615W        W61833   4.808  35.843  10.407
93616W        W61834   9.389  20.650   4.274
93617W        W61835   7.132   2.838   4.115
93618W        W61836  43.041  14.643  12.492
93619W        W61837  39.924  41.291   3.622
93620W        W61838  16.592  38.855  14.077
93621W        W61839  26.630  27.176  14.696
93622W        W61840  33.496  26.355   5.470
93623W        W61841  15.696  14.119   3.344
93624W        W61842  12.494   8.718  10.739
93625W        W61843   8.527  23.664  10.261
93626W        W61844  24.065  30.657  13.411
93627W        W61845  44.868  29.985   3.292
93628W        W61846  25.223  23.372   3.611
93629W        W61847  36.834   4.480  13.052
93630W        W61848  39.844  13.677   0.454
93631W        W61849  15.393  29.537   3.894
93632W        W61850  10.200  41.201   0.061
93633W        W61851  15.075   9.348  12.110
93634W        W61852  41.215  41.514   3.231
93635W        W61853  34.653  29.006   0.791
93636W        W61854   0.360   4.319   2.059
93637W        W61855  15.511  38.881   2.581
93638W        W61856   5.100  13.460  11.637
93639W        W61857  34.219  41.550   3.197
93640W        W61858  39.862  10.602   0.771
93641W        W61859  19.468  32.069  13.362
93642W        W61860  42.490  30.374  11.449
93643W        W61861  27.910   3.238   3.188
93644W        W61862  13.465  19.652   0.540
93645W        W61863  12.357  30.079  14.757
93646W        W61864  34.047  14.739   0.649
93647W        W61865  32.726   4.403  13.437
93648W        W61866   5.149  32.415  10.652
93649W        W61867  10.176  18.658  13.957
93650W        W61868   9.436  19.315   2.359
93651W        W61869   6.431  13.957  11.628
93652W        W61870  16.232  12.454   5.046
93653W        W61871  23.788  11.760   5.014
93654W        W61872  28.195  40.383  13.939
93655W        W61873  22.941  31.640  12.047
93656W        W61874   4.202  40.546  11.579
93657W        W61875  14.501  14.534  12.078
93658W        W61876  41.406   7.116   0.454
93659W        W61877   2.439  15.332   2.194
93660W        W61878  27.672  43.309   0.395
93661W        W61879  15.653  21.086  13.842
93662W        W61880  13.869  20.306  12.003
93663W        W61881  32.459  22.995   0.509
93664W        W61882  30.468  11.680   0.580
93665W        W61883   3.151  35.035   3.212
93666W        W61884  16.746  21.395  14.799
93667W        W61885  23.086   4.085  13.329
93668W        W61886  33.639  18.837   2.232
93669W        W61887  39.034   8.228   1.361
93670W        W61888  20.758  40.983  13.361
93671W        W61889  15.421  32.171   5.022
93672W        W61890  28.210  32.437  11.464
93673W        W61891  10.651  25.652   0.599
93674W        W61892  41.010   4.383   1.859
93675W        W61893  13.153  15.091   0.759
93676W        W61894  14.608  43.386   3.273
93677W        W61895  35.543  44.375   1.810
93678W        W61896  31.103  21.287  13.550
93679W        W61897  44.814   3.484  13.737
93680W        W61898  39.333   5.812  10.908
93681W        W61899  44.060  42.735   3.733
93682W        W61900  27.786  22.250   2.349
93683W        W61901  26.997  24.140   0.956
93684W        W61902   1.644   0.814   4.967
93685W        W61903  36.862   6.267  12.114
93686W        W61904  25.858  30.847   2.306
93687W        W61905  21.189  33.549   2.733
93688W        W61906  32.234  37.792   4.675
93689W        W61907  36.080  12.800  12.979
93690W        W61908   5.734  30.471   3.669
93691W        W61909  18.020  15.352  10.759
93692W        W61910  43.576  37.548   3.172
93693W        W61911  18.178  35.703   5.000
93694W        W61912  14.631   4.193  11.468
93695W        W61913  36.476  38.166  11.174
93696W        W61914   1.056   4.692  11.942
93697W        W61915  43.286  44.778  12.457
93698W        W61916  20.793  30.565   3.767
93699W        W61917  28.695  14.773  14.161
93700W        W61918  10.372  28.379  12.889
93701W        W61919   1.222  28.743  10.691
93702W        W61920  31.357  37.802   4.461
93703W        W61921  25.734  39.965   3.232
93704W        W61922  37.975  32.856   2.839
93705W        W61923   1.214  34.634   2.406
93706W        W61924  29.418   9.714  12.123
93707W        W61925  44.318  27.083  11.178
93708W        W61926  44.211  11.614   4.128
93709W        W61927  39.027   5.777   2.513
93710W        W61928  17.629  38.957  11.610
93711W        W61929  10.119   7.787   0.931
93712W        W61930  16.812  30.645  12.820
93713W        W61931  43.086  23.573  14.385
93714W        W61932  29.639  20.150   1.640
93715W        W61933   4.179   7.925  12.087
93716W        W61934   2.790  26.659  13.369
93717W        W61935  20.647   2.167  10.719
93718W        W61936  12.006   7.467  12.551
93719W        W61937  26.181  42.828   4.790
93720W        W61938   4.831  39.137  10.757
93721W        W61939  27.663  25.051   1.460
93722W        W61940  36.760  23.279  14.262
93723W        W61941  40.926  24.521   1.790
93724W        W61942  24.703   2.826  11.519
93725W        W61943  32.939  10.146  10.510
93726W        W61944  35.546  36.957  13.756
93727W        W61945  35.407   4.113  13.960
93728W        W61946  11.279  42.291  11.240
93729W        W61947  17.141  19.039  13.859
93730W        W61948  33.604   1.734   0.021
93731W        W61949  42.186  24.472   4.527
93732W        W61950   1.885  20.319  11.462
93733W        W61951  39.618  25.699   4.196
93734W        W61952  42.758  34.478  11.548
93735W        W61953  40.010   8.613  11.516
93736W        W61954   8.368  40.537   1.603
93737W        W61955  10.904   9.302   0.499
93738W        W61956  25.656  37.811  13.523
93739W        W61957  27.932  15.317   3.656
93740W        W61958  41.098   9.891  10.788
93741W        W61959   5.172  29.287   1.353
93742W        W61960   6.776  16.828  12.910
93743W        W61961  17.723  20.538  11.876
93744W        W61962  24.663   4.188  10.533
93745W        W61963  30.991  36.958   4.697
93746W        W61964  38.852  31.139  13.591
93747W        W61965  13.726  14.145   0.015
93748W        W61966  32.200  33.980   1.300
93749W        W61967  28.520  18.337  13.548
93750W        W61968   5.510   1.611  10.725
93751W        W61969  16.058  27.335  14.691
93752W        W61970  26.297  22.999   0.331
93753W        W61971  37.729  29.008  14.924
93754W        W61972  44.860  32.940  11.807
93755W        W61973  29.333   7.276   2.285
93756W        W61974  43.350  19.314  14.819
93757W        W61975  41.214  28.761   0.270
93758W        W61976  44.750   6.718   3.707
93759W        W61977  30.857  19.343   3.730
93760W        W61978   0.063   8.671   2.433
93761W        W61979  18.797  23.567  12.836
93762W        W61980  18.602  23.064  10.711
93763W        W61981  24.811  13.370  11.916
93764W        W61982  44.848  20.252   2.295
93765W        W61983  11.438  20.293  12.410
93766W        W61984  37.617  15.756   0.460
93767W        W61985  32.408  36.360   0.751
93768W        W61986   7.380  32.704  14.792
93769W        W61987   6.320  39.365   3.761
93770W        W61988   9.934   1.198   2.175
93771W        W61989  25.929  32.060  14.781
93772W        W61990  33.855   2.218   3.259
93773W        W61991  21.313  44.367  13.930
93774W        W61992  10.564  20.292   1.390
93775W        W61993  36.307   5.426   1.171
93776W        W61994   0.602  20.323  11.570
93777W        W61995  17.714   0.348  10.321
93778W        W61996   1.716   3.211   0.781
93779W        W61997  17.698  17.043   0.333
93780W        W61998  35.538  17.719   4.547
93781W        W61999  35.623  21.146   4.255
93782W        W62000  28.621   1.413   0.683
93783W        W62001  11.546  17.324  11.632
93784W        W62002   4.432  27.122   3.230
93785W        W62003  36.597   9.103   4.604
93786W        W62004   1.827   4.132   0.474
93787W        W62005  30.111  40.019   3.380
93788W        W62006  36.880  39.447  12.901
93789W        W62007   8.997  15.939  13.978
93790W        W62008  37.227  21.191  10.233
93791W        W62009  14.313  11.425  11.164
93792W        W62010  23.650  25.405   0.521
93793W        W62011  35.945  34.554   3.197
93794W        W62012  44.185   0.433  14.387
93795W        W62013  20.240  16.185  13.370
93796W        W62014  37.357  37.840   1.892
93797W        W62015   2.772  42.505   1.843
93798W        W62016  21.817   0.961   3.706
93799W        W62017  13.236  40.434   4.766
93800W        W62018   0.971  38.980  12.431
93801W        W62019  30.994  14.709  10.600
93802W        W62020  35.835   2.047  12.289
93803W        W62021  31.547  12.311   0.242
93804W        W62022  28.572  38.887  10.703
93805W        W62023  34.740  11.814   0.981
93806W        W62024  24.523  26.836  14.185
93807W        W62025  32.669  42.942   9.868
93808W        W62026  25.155  12.578   1.412
93809W        W62027  19.091  18.291   1.687
93810W        W62028  27.578  25.411   4.279
93811W        W62029   9.981  10.341  14.452
93812W        W62030  41.334   4.882   1.186
93813W        W62031  19.684  29.349   1.714
93814W        W62032  14.424  41.997  14.033
93815W        W62033  39.830  38.553  11.248
93816W        W62034  41.934   1.926   3.775
93817W        W62035  42.341  43.678   1.636
93818W        W62036  21.074  44.853   0.187
93819W        W62037  35.817  11.101   0.249
93820W        W62038  44.341   4.731   2.721
93821W        W62039  39.502  24.180  11.122
93822W        W62040  34.373  27.153  13.463
93823W        W62041  28.510   0.765   0.742
93824W        W62042  43.802   5.252  11.910
93825W        W62043  16.195  17.106   2.130
93826W        W62044   2.234   0.259  13.300
93827W        W62045  30.951  32.912   0.300
93828W        W62046  12.270  13.074  14.346
93829W        W62047  36.581   2.009   1.835
93830W        W62048  44.279  33.834   3.167
93831W        W62049  36.981  30.733  10.758
93832W        W62050  35.906  15.087   1.906
93833W        W62051  44.162  31.942  12.675
93834W        W62052   2.029  40.971   4.203
93835W        W62053   3.763  22.853   3.529
93836W        W62054  33.793  14.347   1.769
93837W        W62055   6.256  44.358  13.481
93838W        W62056  33.740  40.769  11.042
93839W        W62057  39.050  42.856   3.385
93840W        W62058  19.337  29.048  12.835
93841W        W62059  36.304  23.218  13.443
93842W        W62060  18.869  30.505   3.862
93843W        W62061   8.565  11.959  14.157
93844W        W62062  43.379  39.484   4.726
93845W        W62063   7.709  37.671  13.031
93846W        W62064  32.870  25.236   2.761
93847W        W62065  32.969  22.264   4.074
93848W        W62066  41.781  30.895  11.187
93849W        W62067  23.503  41.516   3.609
93850W        W62068   5.738  42.966  14.552
93851W        W62069  30.406  29.623  14.787
93852W        W62070  43.785  10.792  13.885
93853W        W62071  32.284   6.361  10.780
93854W        W62072  38.262  44.854   0.173
93855W        W62073  11.453  22.551   1.260
93856W        W62074  15.025  39.955  14.943
93857W        W62075   3.877  23.588  12.650
93858W        W62076  23.603   7.698   2.835
93859W        W62077  12.742  38.820   2.132
93860W        W62078  32.055  16.536  13.550
93861W        W62079   3.157  11.803   2.365
93862W        W62080  42.555  21.223  11.878
93863W        W62081  23.423  12.685   3.347
93864W        W62082   9.690  23.601  14.108
93865W        W62083   4.165  24.954  13.546
93866W        W62084  37.376   8.642   4.551
93867W        W62085  19.493  20.060   3.699
93868W        W62086  36.319  27.429  10.081
93869W        W62087  13.410  34.688  12.581
93870W        W62088  16.414  25.066  13.348
93871W        W62089  44.268  42.283   1.661
93872W        W62090   9.207   7.419   3.400
93873W        W62091  16.092   7.412  11.868
93874W        W62092  29.958  23.096   1.313
93875W        W62093  11.320   8.285  12.896
93876W        W62094  34.432  39.217   4.721
93877W        W62095  27.568  27.491   0.342
93878W        W62096  33.833  42.551   0.300
93879W        W62097  31.314  31.635   2.703
93880W        W62098  30.506   6.381  14.406
93881W        W62099  20.335  31.242   3.260
93882W        W62100  32.805  16.185   4.618
93883W        W62101  18.682  38.084  14.386
93884W        W62102   6.180  38.591   3.254
93885W        W62103   4.853  28.672  11.009
93886W        W62104  28.440  18.749  14.611
93887W        W62105  10.283  18.804  12.630
93888W        W62106   8.436  36.089   4.210
93889W        W62107  27.970  37.770   1.887
93890W        W62108  18.670  18.622   1.633
93891W        W62109  11.721   0.457   3.173
93892W        W62110  26.458   6.822  12.375
93893W        W62111  33.828   8.782  14.391
93894W        W62112  24.058  27.446  10.553
93895W        W62113  23.484  20.948   3.166
93896W        W62114  38.908  23.442   0.844
93897W        W62115  15.714  28.329  13.731
93898W        W62116  31.920   4.288  12.262
93899W        W62117  14.833  23.230   4.779
93900W        W62118  16.844  40.417   4.269
93901W        W62119  17.241  27.034   4.627
93902W        W62120  25.010  12.904   3.045
93903W        W62121   2.250  42.414  10.728
93904W        W62122  32.894  29.767   4.525
93905W        W62123   5.241   5.429  11.189
93906W        W62124  14.422  35.369   1.422
93907W        W62125  23.393  34.588   1.843
93908W        W62126  26.198  15.313   2.284
93909W        W62127  18.486  38.413   3.842
93910W        W62128   4.709  43.967   0.955
93911W        W62129  12.332  19.251   2.097
93912W        W62130  22.986  37.616   4.290
93913W        W62131  34.419  34.296  10.666
93914W        W62132  13.043   2.566   2.663
93915W        W62133  28.683  40.774  12.508
93916W        W62134  44.893  44.332   3.915
93917W        W62135  35.636   7.780  12.139
93918W        W62136  17.993  23.927  13.872
93919W        W62137  30.438  25.982   0.169
93920W        W62138   3.478   4.253   1.537
93921W        W62139  15.121   8.164   0.961
93922W        W62140   8.368  34.122   3.066
93923W        W62141  15.555   0.351   2.614
93924W        W62142   6.277  31.252   0.968
93925W        W62143   9.663  16.933  11.090
93926W        W62144   9.499  19.114   1.502
93927W        W62145  23.331  23.049  14.016
93928W        W62146  32.991   0.497   3.799
93929W        W62147  36.930  30.485   3.034
93930W        W62148  41.280  33.427  10.255
93931W        W62149   2.975  23.559   4.648
93932W        W62150  29.093  21.273   1.820
93933W        W62151  35.922  38.127  13.510
93934W        W62152   0.896   3.875   1.837
93935W        W62153   2.712  37.423   2.790
93936W        W62154   3.296  30.997  12.596
93937W        W62155  37.084   3.729   0.316
93938W        W62156  39.425   3.938  13.505
93939W        W62157   2.783  39.075   3.676
93940W        W62158  17.618   8.721  11.923
93941W        W62159  34.697  32.555  11.527
93942W        W62160  26.663  13.703   3.730
93943W        W62161  22.212  29.572   3.113
93944W        W62162  18.876  17.228   3.953
93945W        W62163  14.322  19.862   2.264
93946W        W62164  18.549  10.703   3.088
93947W        W62165  28.335  40.474   4.060
93948W        W62166  29.205  20.508   1.323
93949W        W62167  20.227  20.669  11.242
93950W        W62168  42.077  32.174  12.985
93951W        W62169  30.690  29.601  13.446
93952W        W62170  14.265  22.979  11.119
93953W        W62171  43.916  25.866  13.441
93954W        W62172   1.507  32.731   0.845
93955W        W62173  10.954   4.760  10.126
93956W        W62174  20.808  20.214   1.007
93957W        W62175   1.340  41.905  10.591
93958W        W62176   8.323  16.523   4.578
93959W        W62177  21.237  18.867   2.388
93960W        W62178   9.792  10.089   3.149
93961W        W62179  25.041  32.858   3.545
93962W        W62180  44.817   5.836   0.546
93963W        W62181  43.861  36.854  13.508
93964W        W62182  41.541  33.516   3.127
93965W        W62183  25.049  16.468   3.410
93966W        W62184  24.196  23.517   1.717
93967W        W62185  30.163  38.965   2.460
93968W        W62186   8.554   0.184   4.042
93969W        W62187  43.883  15.679  12.818
93970W        W62188   4.759  35.989   2.840
93971W        W62189  17.466  29.632  13.414
93972W        W62190   6.162  17.494   1.147
93973W        W62191  31.419  11.297   0.285
93974W        W62192  14.577  20.486   3.275
93975W        W62193  36.030  26.195   2.336
93976W        W62194   4.248  42.727   3.167
93977W        W62195  11.646  25.083  14.033
93978W        W62196  24.008  15.164   2.373
93979W        W62197  31.710  31.385   1.501
93980W        W62198   8.375  15.576   4.587
93981W        W62199  16.839  17.643  11.694
93982W        W62200  33.857  35.439   1.476
93983W        W62201  27.059  16.859   3.607
93984W        W62202  26.590  31.870  12.434
93985W        W62203  35.140  30.651  13.127
93986W        W62204  34.910  28.110  14.490
93987W        W62205  33.595  17.019   4.195
93988W        W62206  16.582   7.219   1.678
93989W        W62207   4.167  28.954   0.769
93990W        W62208  40.288  21.392   2.187
93991W        W62209  43.325  40.463   1.275
93992W        W62210   9.988  25.527  14.592
93993W        W62211  10.844  25.916  12.876
93994W        W62212   2.311  33.595   2.173
93995W        W62213  26.042   3.186  10.658
93996W        W62214  24.209  35.447   3.551
93997W        W62215  26.534  35.844  14.975
93998W        W62216   6.435   6.130   4.200
93999W        W62217  16.790  28.036  12.400
94000W        W62218  21.231  19.049  11.173
94001W        W62219  16.226  43.335   4.967
94002W        W62220  37.888  13.208  10.447
94003W        W62221  36.315  23.940   2.753
94004W        W62222  31.077  12.560   0.153
94005W        W62223  31.627  33.347   0.015
94006W        W62224   2.657   3.199  13.523
94007W        W62225   3.540  25.014  13.900
94008W        W62226   2.762  24.584  10.958
94009W        W62227   2.912   2.442   2.666
94010W        W62228  26.674  11.045  12.902
94011W        W62229  10.120   1.151   4.222
94012W        W62230  11.956  13.722  12.474
94013W        W62231  35.917   6.001  12.049
94014W        W62232   0.769   9.839  13.057
94015W        W62233  29.432  25.685   1.703
94016W        W62234   7.349  38.553  13.001
94017W        W62235  12.487   9.185   0.417
94018W        W62236  27.858  31.672  12.850
94019W        W62237  26.975   1.904   1.002
94020W        W62238  23.110  20.224  13.588
94021W        W62239  18.643  43.740  13.786
94022W        W62240  24.637  35.495   4.344
94023W        W62241  38.838  20.292   4.072
94024W        W62242  41.501  20.423  13.124
94025W        W62243  20.907  43.311  13.536
94026W        W62244  17.669   5.289   2.669
94027W        W62245  42.022  26.486   2.871
94028W        W62246   4.380  42.801   2.156
94029W        W62247   2.645   5.585   2.756
94030W        W62248  21.636  27.003  11.666
94031W        W62249  20.071  22.988   1.812
94032W        W62250  17.260  26.778   4.185
94033W        W62251  15.756  27.291  12.884
94034W        W62252  25.926  14.214  10.714
94035W        W62253  33.594  18.677  11.484
94036W        W62254  35.805  43.923  11.558
94037W        W62255  19.641   2.689  12.623
94038W        W62256  38.412  36.361   3.969
94039W        W62257   6.061   6.723  12.020
94040W        W62258  29.928  27.063   1.446
94041W        W62259   5.748  11.721   4.390
94042W        W62260  19.558  43.370  11.229
94043W        W62261   2.804  23.477   0.339
94044W        W62262  29.187   5.474   0.787
94045W        W62263  19.753  18.676  14.770
94046W        W62264  35.257  10.255  10.371
94047W        W62265  41.877  17.823   1.945
94048W        W62266  21.259  35.324  13.921
94049W        W62267  12.650  41.521   3.836
94050W        W62268  11.755  35.564  11.902
94051W        W62269   7.358  39.867  12.121
94052W        W62270  15.422  20.466   5.032
94053W        W62271  28.108   7.850  12.581
94054W        W62272  19.090  13.679   3.593
94055W        W62273  32.068  31.441  10.647
94056W        W62274  14.437  19.491  12.110
94057W        W62275  44.076  22.311  12.929
94058W        W62276  16.979  34.857  10.557
94059W        W62277  32.570   2.339   3.630
94060W        W62278  21.283  40.861   0.849
94061W        W62279  42.038  27.136   4.127
94062W        W62280   2.090  31.729  10.511
94063W        W62281  37.843  24.730   4.166
94064W        W62282  10.739  28.990  11.066
94065W        W62283  28.099  32.414  12.419
94066W        W62284   6.767  37.629   4.273
94067W        W62285  19.632   6.772  14.981
94068W        W62286   2.635   4.910  13.607
94069W        W62287  37.084  32.945   0.748
94070W        W62288  15.528  40.092  11.095
94071W        W62289  41.987   9.709  13.053
94072W        W62290   4.020  41.305   3.629
94073W        W62291  33.434  27.736   1.897
94074W        W62292   0.858   2.918   2.520
94075W        W62293  37.704  43.878   2.009
94076W        W62294  28.898  17.879   1.372
94077W        W62295   7.925   8.823   1.747
94078W        W62296  19.213  18.807   2.964
94079W        W62297  12.030  10.018  13.545
94080W        W62298  41.205   3.925   4.087
94081W        W62299  11.160  17.761  13.506
94082W        W62300  14.056  27.417   4.762
94083W        W62301  25.246  10.248   3.145
94084W        W62302  10.304  27.528   0.863
94085W        W62303  14.868  39.791  12.557
94086W        W62304  20.895   1.354  10.711
94087W        W62305   4.923  19.230  10.491
94088W        W62306  15.323  43.440  10.708
94089W        W62307  31.056  37.933  13.842
94090W        W62308  26.827  19.670   2.292
94091W        W62309  41.003   3.208   2.168
94092W        W62310   4.905   2.920  11.107
94093W        W62311  22.127  30.673  13.514
94094W        W62312  14.540  33.656  10.837
94095W        W62313  35.332  27.741  13.069
94096W        W62314  22.585   2.606  13.315
94097W        W62315  15.587  22.287   1.761
94098W        W62316  41.591  19.704   0.445
94099W        W62317  24.224  32.518  14.949
94100W        W62318  44.665  24.072  12.363
94101W        W62319  44.414  37.752   2.693
94102W        W62320   4.370  18.750  14.218
94103W        W62321  31.433  42.485   3.633
94104W        W62322  44.118  26.673   2.111
94105W        W62323  16.535  12.350  13.871
94106W        W62324  35.774  19.603  14.011
94107W        W62325  30.909   3.495   1.839
94108W        W62326  17.810   0.223  10.804
94109W        W62327  14.271   9.286  14.801
94110W        W62328  26.440   2.429  12.702
94111W        W62329  21.704  18.774  10.740
94112W        W62330   2.326  38.198  11.574
94113W        W62331   1.014  18.286   4.568
94114W        W62332  11.129  21.115  10.633
94115W        W62333  23.540  25.266   1.800
94116W        W62334  35.087  24.986  11.178
94117W        W62335   7.766  28.645  14.908
94118W        W62336   5.680  15.695   1.739
94119W        W62337  35.462   6.195   0.875
94120W        W62338  26.186   3.509  13.482
94121W        W62339  16.572  42.883  10.357
94122W        W62340   4.070  17.801  13.911
94123W        W62341  20.805  42.953  12.379
94124W        W62342  10.525  13.503   1.730
94125W        W62343   9.726  35.131   4.637
94126W        W62344  32.630  44.930   0.901
94127W        W62345  22.320  24.602  13.496
94128W        W62346   2.457  27.218  10.855
94129W        W62347   1.759  13.421  13.972
94130W        W62348  24.006  42.575   3.454
94131W        W62349  10.811  18.557   5.271
94132W        W62350  26.304  13.083  13.455
94133W        W62351   4.449  39.275  13.964
94134W        W62352   3.888  43.459  12.374
94135W        W62353  44.456  40.507   4.660
94136W        W62354  15.811  15.218  14.453
94137W        W62355  38.418  30.152   1.196
94138W        W62356  21.679  16.948   0.283
94139W        W62357  36.077   1.696   9.913
94140W        W62358  12.655  34.552   0.574
94141W        W62359   7.216  39.548  13.311
94142W        W62360  11.282  15.571   0.839
94143W        W62361   2.527  11.563   3.608
94144W        W62362  23.193  44.249   0.775
94145W        W62363  27.687  11.135  14.864
94146W        W62364   5.221  37.340   4.170
94147W        W62365  43.313  18.062  14.536
94148W        W62366   6.376  31.026  11.561
94149W        W62367  27.559   3.811  12.897
94150W        W62368  20.999  20.961  11.162
94151W        W62369  34.544  16.701  11.778
94152W        W62370  25.648  25.436   1.296
94153W        W62371  25.486   9.242   3.808
94154W        W62372  44.470   4.029  10.643
94155W        W62373  20.552  30.897  12.033
94156W        W62374   9.772   4.760  11.995
94157W        W62375  16.270  41.288  13.530
94158W        W62376   8.826  32.636  10.716
94159W        W62377  36.929  44.770  11.684
94160W        W62378  44.011  29.614  11.453
94161W        W62379  31.587  11.741  13.786
94162W        W62380  23.274  43.563  11.758
94163W        W62381  12.370  37.019   2.193
94164W        W62382   8.569  14.296   0.184
94165W        W62383  13.151  37.033   3.628
94166W        W62384  37.069   9.341   4.676
94167W        W62385   8.773   4.270   4.818
94168W        W62386  21.147  41.412   3.637
94169W        W62387   5.577  39.485   1.056
94170W        W62388   1.973  20.832  11.439
94171W        W62389  36.432  29.048  10.310
94172W        W62390  42.254   6.427  11.195
94173W        W62391  10.649  10.739  10.319
94174W        W62392  11.676  43.513   3.697
94175W        W62393  40.787  16.869  10.703
94176W        W62394  42.717  27.826  11.176
94177W        W62395  15.364  38.023  11.509
94178W        W62396   7.055   2.305  14.434
94179W        W62397  29.682  21.344   5.009
94180W        W62398  43.091   8.633  11.123
94181W        W62399  33.582  25.033   3.630
94182W        W62400  17.412  22.554  13.383
94183W        W62401  36.030   6.629  11.443
94184W        W62402  36.586  29.538   3.263
94185W        W62403  29.053   2.105   4.571
94186W        W62404   4.896   8.764   0.952
94187W        W62405   1.944   9.945   4.684
94188W        W62406   8.687  13.686   2.245
94189W        W62407   5.034  44.829   4.852
94190W        W62408   4.355  40.582  12.933
94191W        W62409  18.289   3.279   3.775
94192W        W62410  20.116   3.754   1.401
94193W        W62411  42.542  40.359   3.668
94194W        W62412  32.914   3.488   1.812
94195W        W62413  11.272  22.980   1.495
94196W        W62414  41.465  24.736  10.562
94197W        W62415   2.706  42.160  10.862
94198W        W62416  32.154  25.643   0.416
94199W        W62417  41.100  19.314   3.251
94200W        W62418   6.366  14.785   1.423
94201W        W62419  28.110  34.086   2.807
94202W        W62420  36.718  21.397  10.176
94203W        W62421  34.674  24.024  14.369
94204W        W62422  17.502  22.584  14.753
94205W        W62423  42.311  26.243   1.694
94206W        W62424  28.214  12.896  11.858
94207W        W62425  42.825   3.432   1.145
94208W        W62426  30.488  22.530  13.443
94209W        W62427  29.350  35.289   1.265
94210W        W62428  16.038  35.857  11.651
94211W        W62429  25.010  15.284   2.203
94212W        W62430  12.978   9.842   2.696
94213W        W62431  28.056  34.537   1.224
94214W        W62432   4.897  44.575  14.530
94215W        W62433  22.251  11.569  10.330
94216W        W62434  36.715  16.828  13.991
94217W        W62435  15.045   6.721   1.790
94218W        W62436  40.348  43.544   3.790
94219W        W62437  16.679   3.761  13.907
94220W        W62438  29.920  43.477   2.209
94221W        W62439  32.549  27.071  13.806
94222W        W62440  23.674  18.471  11.980
94223W        W62441  34.539  25.968  10.678
94224W        W62442  21.737  18.840  13.470
94225W        W62443   4.319  18.463   4.583
94226W        W62444  10.690  27.784   4.160
94227W        W62445  33.319  37.058   3.197
94228W        W62446  38.451  21.972  10.664
94229W        W62447  10.816  38.894  12.591
94230W        W62448   2.232  17.251  10.728
94231W        W62449  34.362  41.303  10.572
94232W        W62450  37.832  43.661   0.039
94233W        W62451   4.725  34.443  11.574
94234W        W62452   7.129  35.063  11.562
94235W        W62453  20.457  42.397  10.709
94236W        W62454  29.243  33.360   2.868
94237W        W62455  21.506  35.637   5.350
94238W        W62456  15.459  13.657   9.810
94239W        W62457  39.041  36.442   0.252
94240W        W62458  28.489  15.173   4.410
94241W        W62459  14.220   9.283   1.346
94242W        W62460  44.394  24.609  12.379
94243W        W62461  19.602   4.912   3.148
94244W        W62462  35.205  32.485   0.992
94245W        W62463  40.609  16.773   1.563
94246W        W62464  26.532  15.076   1.374
94247W        W62465  42.006   8.267   2.594
94248W        W62466  40.947  31.692   1.820
94249W        W62467   8.863   2.466   3.885
94250W        W62468  38.408   4.028  11.124
94251W        W62469  22.524   6.225   4.824
94252W        W62470  28.226  36.056  11.032
94253W        W62471  30.523  35.341  13.788
94254W        W62472  19.476  34.896   3.854
94255W        W62473  18.792   8.978   2.711
94256W        W62474   9.836   9.548   4.782
94257W        W62475  18.967  42.031  12.212
94258W        W62476   1.680   0.046  12.580
94259W        W62477  19.150  33.645  12.499
94260W        W62478  15.190  24.456  13.413
94261W        W62479   3.064   9.455  13.285
94262W        W62480   7.644   2.119   3.185
94263W        W62481  32.414  36.431   0.234
94264W        W62482  37.262   8.173   1.848
94265W        W62483   4.167  43.376  11.648
94266W        W62484  10.149  23.996  14.008
94267W        W62485  28.408  27.550   3.227
94268W        W62486  40.061   8.887   3.254
94269W        W62487  12.857   9.440   1.823
94270W        W62488  30.686  34.050  11.013
94271W        W62489  38.013  32.023  13.791
94272W        W62490  24.778   4.833   4.375
94273W        W62491  29.945  44.839  13.638
94274W        W62492  43.982  35.409  11.088
94275W        W62493   3.868   1.482   0.526
94276W        W62494  16.395   2.117   0.961
94277W        W62495  38.962  29.665   2.632
94278W        W62496  10.855  30.620   2.915
94279W        W62497  25.867  19.788  12.514
94280W        W62498  40.567  15.187  11.225
94281W        W62499  28.190  12.404   1.389
94282W        W62500  10.764   7.290  12.574
94283W        W62501  34.986  12.627   0.942
94284W        W62502  27.126  20.703   1.745
94285W        W62503  30.268  32.547   3.665
94286W        W62504  26.692  42.004  10.789
94287W        W62505  44.895   2.234  10.752
94288W        W62506  23.703  31.865  13.028
94289W        W62507  38.830  36.282   4.683
94290W        W62508  36.171  15.184  11.967
94291W        W62509  21.515  17.453   0.322
94292W        W62510  13.706   2.189  14.815
94293W        W62511  27.174  21.167   0.880
94294W        W62512   3.475  17.084  14.354
94295W        W62513   3.528  38.525  11.084
94296W        W62514  27.799  36.357   3.787
94297W        W62515  21.746  38.815  14.173
94298W        W62516  27.642  26.083  14.264
94299W        W62517  25.495  18.613  14.290
94300W        W62518   9.464  42.985  10.574
94301W        W62519   9.576   6.875  13.344
94302W        W62520   8.679  31.382  11.739
94303W        W62521  16.323  26.139  12.065
94304W        W62522   8.431  19.742  14.330
94305W        W62523  19.563  20.632  13.071
94306W        W62524  28.453  31.103  13.588
94307W        W62525  22.750   3.428   4.470
94308W        W62526   2.727  29.290  12.634
94309W        W62527  33.156  22.612  10.678
94310W        W62528  18.795  25.033  10.724
94311W        W62529  22.700  33.464   4.990
94312W        W62530  24.917  15.795  10.089
94313W        W62531   2.483  22.721   3.704
94314W        W62532  39.548  19.068  14.388
94315W        W62533   9.254  19.657   3.143
94316W        W62534  12.399  24.997   1.327
94317W        W62535  40.364   0.337  11.202
94318W        W62536  44.924  27.130  12.950
94319W        W62537  12.090   0.914  11.488
94320W        W62538  15.806  39.865  10.705
94321W        W62539  31.370  31.037  14.430
94322W        W62540  28.933  21.070  12.877
94323W        W62541  16.029  34.499   0.908
94324W        W62542  10.659   2.937   1.114
94325W        W62543  20.745   4.708   0.698
94326W        W62544  13.680  35.053   1.811
94327W        W62545  14.591  12.677   0.727
94328W        W62546  43.251   9.514   3.354
94329W        W62547  39.926   0.537  12.953
94330W        W62548  42.589  11.139   1.833
94331W        W62549  15.798  43.903   5.530
94332W        W62550  31.962  16.131   0.556
94333W        W62551   7.866  21.856   0.868
94334W        W62552  25.014  25.917  12.327
94335W        W62553  39.883  34.315   0.836
94336W        W62554  31.607  29.564   0.433
94337W        W62555   5.976  41.234  12.607
94338W        W62556   8.180  40.959   1.835
94339W        W62557  25.584  33.974  14.719
94340W        W62558  20.641   4.926   2.954
94341W        W62559  16.550  39.763  11.087
94342W        W62560  38.399  14.379   2.210
94343W        W62561  27.866  25.495   2.941
94344W        W62562   4.082   4.505   2.227
94345W        W62563  40.193   6.006   4.852
94346W        W62564  23.543   1.314   2.758
94347W        W62565  12.748  14.109  12.103
94348W        W62566   6.412   0.755  11.087
94349W        W62567  28.552  15.162  12.303
94350W        W62568  18.085  32.048  12.626
94351W        W62569   7.181  33.042  12.965
94352W        W62570  31.666  38.915   0.316
94353W        W62571  23.614  21.396   0.484
94354W        W62572  28.521  25.696  12.485
94355W        W62573  28.286  39.792  11.167
94356W        W62574  20.900  12.787  11.942
94357W        W62575  19.991  40.844  12.872
94358W        W62576  20.331  37.471  12.417
94359W        W62577   8.515   6.704  11.295
94360W        W62578  16.634  43.510   5.227
94361W        W62579   1.363  10.053  12.763
94362W        W62580  14.730   6.301   0.937
94363W        W62581   3.681   8.760  14.410
94364W        W62582  33.800  29.426  12.459
94365W        W62583   1.925  20.622  10.962
94366W        W62584  20.664  14.320  11.075
94367W        W62585  18.956   5.855   0.856
94368W        W62586   9.664  23.077  11.018
94369W        W62587  34.103  39.731  12.551
94370W        W62588  11.701  32.087   1.729
94371W        W62589  22.724  36.864   0.815
94372W        W62590  24.648   5.220   3.131
94373W        W62591  14.402  43.396   1.839
94374W        W62592  14.423  27.083  11.396
94375W        W62593  38.127   0.725  10.045
94376W        W62594  30.677  13.306  14.897
94377W        W62595  37.023  29.351  14.801
94378W        W62596  19.197   6.394  12.812
94379W        W62597   4.846  38.284   0.864
94380W        W62598   1.299   4.067  13.829
94381W        W62599  15.777  21.141  11.929
94382W        W62600  18.242   7.708  12.924
94383W        W62601  11.217   0.948   2.864
94384W        W62602  18.726   8.558  10.177
94385W        W62603  11.889   7.158   0.478
94386W        W62604  43.528  32.012   3.331
94387W        W62605  39.967  34.348  12.665
94388W        W62606  37.032  42.470   3.623
94389W        W62607  34.105  32.416  13.587
94390W        W62608   9.877  26.205   2.930
94391W        W62609   4.343   6.443   1.026
94392W        W62610  18.282  36.970   1.310
94393W        W62611  29.527  16.511  12.895
94394W        W62612   9.450  26.644   9.873
94395W        W62613  14.155  10.179   0.249
94396W        W62614  32.904  42.022  10.937
94397W        W62615  43.943  30.994   1.333
94398W        W62616  39.188  34.159  14.289
94399W        W62617  21.217  30.912  11.617
94400W        W62618  38.184   8.340   2.053
94401W        W62619   7.079  19.586   1.877
94402W        W62620   3.683   6.810   3.686
94403W        W62621  24.074  44.235   3.736
94404W        W62622  38.486   2.186   3.200
94405W        W62623  13.574   2.452   0.760
94406W        W62624  41.521   6.131   3.596
94407W        W62625  42.928  13.343   4.272
94408W        W62626  10.197  37.834  10.561
94409W        W62627  12.750  32.404  12.563
94410W        W62628  23.107  10.717  14.818
94411W        W62629  33.876  21.516   4.581
94412W        W62630  20.476  26.532   1.287
94413W        W62631   8.142  15.030  12.873
94414W        W62632  34.443  28.754  13.064
94415W        W62633  22.208   7.378  11.544
94416W        W62634  29.407  18.638  12.082
94417W        W62635  19.936  40.973   4.839
94418W        W62636  11.371  21.439  13.463
94419W        W62637  24.559   7.873   0.392
94420W        W62638  40.367  40.435  12.143
94421W        W62639  18.854   8.881  13.587
94422W        W62640  19.835  26.715  11.664
94423W        W62641  35.884  19.222  11.944
94424W        W62642  30.458   0.982  11.623
94425W        W62643  20.103  30.450  13.614
94426W        W62644  36.396  44.307  10.888
94427W        W62645   0.878  15.026   4.688
94428W        W62646  21.543  19.910   2.279
94429W        W62647  11.050  42.345  14.864
94430W        W62648  28.161   9.621   2.302
94431W        W62649   0.950  31.264   1.890
94432W        W62650   4.399  44.431  13.754
94433W        W62651   5.102  14.209  11.783
94434W        W62652  42.901  33.940  12.904
94435W        W62653  21.582  11.784  13.480
94436W        W62654  10.555  28.384   1.946
94437W        W62655  39.207   7.510  11.181
94438W        W62656  31.984  42.450  10.795
94439W        W62657  28.910  44.095   2.800
94440W        W62658  15.642   5.673   2.353
94441W        W62659   9.090  10.362  11.193
94442W        W62660   0.829   4.297  11.707
94443W        W62661  35.131  26.562  12.753
94444W        W62662  11.144  15.728  10.664
94445W        W62663  38.705  34.987  12.299
94446W        W62664   9.408  16.794   1.215
94447W        W62665  16.665  21.685  10.574
94448W        W62666  35.432  16.033   0.390
94449W        W62667  18.768   1.367  10.909
94450W        W62668   1.330   4.229   3.131
94451W        W62669  23.718  18.084  11.073
94452W        W62670  21.627  10.768   4.572
94453W        W62671  21.737  36.818  13.426
94454W        W62672  37.780  32.572   4.665
94455W        W62673  29.871  30.444  12.958
94456W        W62674  33.788  16.209  11.577
94457W        W62675  44.880   5.001  10.642
94458W        W62676  10.232  39.620   3.491
94459W        W62677  24.883  44.128  11.038
94460W        W62678  35.704   8.894  12.908
94461W        W62679   7.791  19.161   1.445
94462W        W62680  31.428   8.431  12.946
94463W        W62681  20.990   0.739  13.058
94464W        W62682   8.721  43.546   3.089
94465W        W62683  38.879  22.291   1.682
94466W        W62684  11.898   4.770  12.637
94467W        W62685  41.127   1.756   1.374
94468W        W62686  32.603  21.311   3.817
94469W        W62687   5.978  26.536  14.306
94470W        W62688  14.415  12.572  11.641
94471W        W62689  38.457   1.704  14.760
94472W        W62690   7.466  10.329  14.997
94473W        W62691  43.202   2.539   1.266
94474W        W62692  37.264  12.328   0.349
94475W        W62693   0.235   2.788   0.348
94476W        W62694  11.023  17.408  11.719
94477W        W62695  41.813   8.880  13.455
94478W        W62696   1.070  21.233  11.611
94479W        W62697  11.771   3.328  13.553
94480W        W62698   0.480  16.044   1.783
94481W        W62699  34.012  10.940   4.397
94482W        W62700  15.290  29.679   0.483
94483W        W62701  23.606   3.830   1.699
94484W        W62702  37.009  27.250   5.126
94485W        W62703  16.610  25.390   2.461
94486W        W62704  13.381  24.085  13.987
94487W        W62705  14.732  41.698   0.186
94488W        W62706  12.565  30.854   2.917
94489W        W62707  16.719  35.162   4.086
94490W        W62708   5.082  29.347  13.307
94491W        W62709  35.489   1.687  14.042
94492W        W62710   0.313  29.433  12.922
94493W        W62711  20.618  23.597   0.723
94494W        W62712  21.237   9.826   3.077
94495W        W62713   6.923  15.774   1.794
94496W        W62714  20.423  20.590  11.703
94497W        W62715  40.328  41.497   1.449
94498W        W62716   7.724   2.190  11.494
94499W        W62717  25.249  29.980  14.585
94500W        W62718  40.456  10.317   0.257
94501W        W62719  26.636  27.088   0.563
94502W        W62720  28.137  13.752   3.580
94503W        W62721  27.494  28.776   1.492
94504W        W62722  25.916  27.496   2.596
94505W        W62723  34.881   4.825  11.126
94506W        W62724  38.167  27.467  12.038
94507W        W62725  39.062   5.838   4.601
94508W        W62726  26.291  16.256   0.904
94509W        W62727  17.662  44.870  14.207
94510W        W62728   4.313  38.688   2.801
94511W        W62729  37.570  38.376  11.470
94512W        W62730  40.028   1.433   1.231
94513W        W62731  10.164  39.480   0.299
94514W        W62732   5.109  33.634  11.138
94515W        W62733  37.056  24.976   2.184
94516W        W62734  14.139   0.302   2.417
94517W        W62735  35.127  44.980  11.061
94518W        W62736  15.639   1.391  11.923
94519W        W62737  18.313  12.369  13.942
94520W        W62738  20.818  23.903  13.433
94521W        W62739   3.333   3.863  13.390
94522W        W62740  26.107  37.803   4.033
94523W        W62741   1.447  24.629   1.017
94524W        W62742   3.533   6.125   3.136
94525W        W62743  41.974  35.051  13.390
94526W        W62744   6.322  13.217   2.461
94527W        W62745   3.220   6.827  13.783
94528W        W62746  13.026  24.161   4.547
94529W        W62747  32.494  25.984  14.706
94530W        W62748  33.020  31.473  12.875
94531W        W62749   3.319  39.363   0.336
94532W        W62750  27.079  35.483   1.806
94533W        W62751  32.938  12.265  14.877
94534W        W62752  27.554  38.465   2.025
94535W        W62753  21.170  17.194   4.024
94536W        W62754  30.027  26.116   1.704
94537W        W62755  13.645   3.348   1.002
94538W        W62756   7.781  29.088  12.829
94539W        W62757  32.610  10.386   0.499
94540W        W62758   5.623  18.251  10.483
94541W        W62759  36.965  41.883  13.496
94542W        W62760  38.249  26.480   3.294
94543W        W62761  32.925  17.104  13.428
94544W        W62762  41.037  27.542   1.357
94545W        W62763  14.612  18.688   0.367
94546W        W62764  15.560  10.744   0.274
94547W        W62765  36.933  10.630   4.399
94548W        W62766  37.559  10.745  14.831
94549W        W62767   4.772  26.084  10.685
94550W        W62768  43.491  16.032  10.692
94551W        W62769  26.155  10.591  13.326
94552W        W62770  17.403  16.610   1.860
94553W        W62771  41.269   8.586   4.571
94554W        W62772  22.922   6.274   4.383
94555W        W62773   9.003  25.289  11.580
94556W        W62774  17.779  14.941  12.098
94557W        W62775  17.759  24.234   1.907
94558W        W62776  18.396  31.181   1.685
94559W        W62777  43.669  21.783  13.863
94560W        W62778  24.675  20.162   0.599
94561W        W62779  13.167   2.453  12.119
94562W        W62780  19.620  32.956   3.320
94563W        W62781  37.996  30.571  10.770
94564W        W62782  24.683  18.816  12.773
94565W        W62783  37.999  14.318  13.807
94566W        W62784  19.036  35.863  13.389
94567W        W62785   8.186  40.961  11.526
94568W        W62786   9.907  24.737   4.217
94569W        W62787   4.244  17.795   1.312
94570W        W62788  16.279  20.904   4.717
94571W        W62789  10.381  43.515   0.693
94572W        W62790  42.843  23.520  12.950
94573W        W62791  29.719  44.681  12.368
94574W        W62792  39.762  19.171   3.217
94575W        W62793  26.733  29.946  14.448
94576W        W62794  38.863  15.531   0.988
94577W        W62795   4.202   0.165   2.303
94578W        W62796  44.278   4.865   1.302
94579W        W62797   2.306  33.169   0.432
94580W        W62798  33.393  21.375  12.027
94581W        W62799  42.182  13.326   2.989
94582W        W62800  37.324   0.089  11.821
94583W        W62801  41.576  38.870  13.975
94584W        W62802  14.845   7.168   3.231
94585W        W62803  13.105  18.154  12.904
94586W        W62804  20.188   9.811   0.653
94587W        W62805  32.635  28.746   0.270
94588W        W62806  42.081  35.376  11.479
94589W        W62807  16.174  21.442  12.038
94590W        W62808  33.898  24.171   2.938
94591W        W62809   0.410   5.637   3.183
94592W        W62810  20.488  28.262  14.489
94593W        W62811  19.600  37.257  14.994
94594W        W62812  20.649  39.970  13.427
94595W        W62813  17.578   6.713  14.333
94596W        W62814  23.481  16.379   2.674
94597W        W62815  37.998   7.694  11.645
94598W        W62816   0.390  13.877   0.695
94599W        W62817   1.990   3.858  14.368
94600W        W62818  36.069   9.930  11.864
94601W        W62819  10.626  36.856   0.424
94602W        W62820   3.287  10.782  10.669
94603W        W62821  22.192  32.991  10.800
94604W        W62822   9.354  43.336   1.311
94605W        W62823  40.452  35.103   1.402
94606W        W62824   3.402   8.235   2.668
94607W        W62825   2.532  28.484  14.969
94608W        W62826  24.004  29.132   4.098
94609W        W62827  14.217  10.963   2.751
94610W        W62828  14.204  42.021   1.443
94611W        W62829  42.524  16.573  13.318
94612W        W62830   2.705  32.131  11.575
94613W        W62831  39.347  38.329  12.958
94614W        W62832  28.009  29.154  11.414
94615W        W62833   6.837  13.561  13.950
94616W        W62834  12.616   0.100  14.681
94617W        W62835  44.790  16.201   4.817
94618W        W62836  44.262  32.429  14.547
94619W        W62837  17.624  33.945   4.782
94620W        W62838   3.893  13.582   4.827
94621W        W62839  17.199   8.295  14.766
94622W        W62840  36.183  26.913   5.192
94623W        W62841  41.469  39.921  10.383
94624W        W62842  12.637  39.733  14.632
94625W        W62843  23.110  13.363  12.458
94626W        W62844  21.680   1.343   1.808
94627W        W62845   0.369  25.476  13.113
94628W        W62846  17.287  14.263   1.620
94629W        W62847  15.755   7.044   3.295
94630W        W62848   4.409  17.943   4.574
94631W        W62849  33.287   5.697  12.915
94632W        W62850  40.043  15.284   2.427
94633W        W62851  39.164  20.691  10.614
94634W        W62852  12.842  27.785  13.979
94635W        W62853  31.342   4.216  12.964
94636W        W62854  11.608  37.055  14.940
94637W        W62855  21.941  23.182  10.668
94638W        W62856   8.736  22.480  11.616
94639W        W62857  21.537  38.347  14.048
94640W        W62858   1.418  25.327   2.430
94641W        W62859  39.832  36.121   2.429
94642W        W62860   2.379  25.191   4.159
94643W        W62861   4.689  19.012  11.823
94644W        W62862   9.496  24.609  13.915
94645W        W62863  36.755  27.565  14.972
94646W        W62864   9.849  41.453  11.626
94647W        W62865  32.128  38.876  12.572
94648W        W62866   4.811  39.310  13.582
94649W        W62867  40.141  39.141  13.631
94650W        W62868  20.998  31.514   5.040
94651W        W62869  27.915  33.866   3.829
94652W        W62870  40.489  19.000   2.207
94653W        W62871  17.637  28.540  13.761
94654W        W62872  15.700  42.000  13.624
94655W        W62873  37.093  29.102   2.687
94656W        W62874   1.678  23.229   1.696
94657W        W62875   1.358  11.875  10.609
94658W        W62876  16.342  34.604   1.316
94659W        W62877   4.251  26.300   2.655
94660W        W62878  22.096  19.588  11.969
94661W        W62879  21.177   9.469   3.825
94662W        W62880  16.129  10.947   3.373
94663W        W62881  29.398  42.958  12.323
94664W        W62882  20.409  12.797  12.087
94665W        W62883  39.815  10.658  14.410
94666W        W62884  34.962   1.190   0.404
94667W        W62885  36.092  42.011   0.724
94668W        W62886  31.044  24.438   4.106
94669W        W62887  38.836  43.114  13.003
94670W        W62888   7.289   1.828  13.427
94671W        W62889  39.269  38.939   1.297
94672W        W62890   0.777   5.788   2.793
94673W        W62891   3.325  31.094  13.622
94674W        W62892  20.412  17.671  11.440
94675W        W62893  28.437   4.622  12.682
94676W        W62894   7.938   7.334   3.418
94677W        W62895  23.269  15.881   1.159
94678W        W62896  34.886   3.658  14.977
94679W        W62897   1.260  14.279  12.483
94680W        W62898  18.156   6.300   0.411
94681W        W62899  17.567  40.847  12.173
94682W        W62900   6.688  16.153   4.575
94683W        W62901  42.464  18.992  14.391
94684W        W62902  22.074   1.845   0.181
94685W        W62903  31.533  22.970   3.327
94686W        W62904  26.639   6.862   3.649
94687W        W62905  24.935  43.052  14.948
94688W        W62906   2.251  15.173   1.194
94689W        W62907  26.017  37.472   2.121
94690W        W62908  19.139  34.830  13.322
94691W        W62909  28.570   9.639   2.631
94692W        W62910  33.707  22.225   2.703
94693W        W62911  13.921  15.019   3.102
94694W        W62912  37.103  17.540  14.323
94695W        W62913   1.503  10.721   0.395
94696W        W62914  44.041  21.702   3.753
94697W        W62915  19.523  40.464  10.487
94698W        W62916  38.574   1.945   3.714
94699W        W62917  20.505  35.553   0.037
94700W        W62918  32.621  42.891   0.142
94701W        W62919   7.384  12.488  10.778
94702W        W62920  39.432  31.418  11.446
94703W        W62921  38.339  21.753  12.337
94704W        W62922   9.163   4.191   2.661
94705W        W62923  12.216  22.594   3.399
94706W        W62924  38.776  43.986  14.865
94707W        W62925  11.720  12.267  14.192
94708W        W62926  35.628   2.453   0.911
94709W        W62927   0.299  14.793   0.801
94710W        W62928  19.575  34.033   4.369
94711W        W62929  18.274  35.489   0.756
94712W        W62930  37.924  17.276  10.717
94713W        W62931  26.570  17.878  11.693
94714W        W62932  34.318  27.980   0.858
94715W        W62933  35.718  11.252  11.432
94716W        W62934  19.057  27.003   3.144
94717W        W62935  39.369  20.612  14.475
94718W        W62936  10.235  33.073  12.878
94719W        W62937  21.224  21.274   1.655
94720W        W62938  31.684  27.428   3.362
94721W        W62939  20.866  31.482  12.847
94722W        W62940  38.092  31.437   0.832
94723W        W62941   2.285  26.202  11.546
94724W        W62942  25.550   2.180   4.117
94725W        W62943  18.767  11.689   4.604
94726W        W62944   3.715  23.827   3.639
94727W        W62945  19.677   5.253  13.488
94728W        W62946  16.246  12.529  12.847
94729W        W62947  44.840  22.953   1.015
94730W        W62948  38.173  20.650  12.283
94731W        W62949  17.670  39.803  11.940
94732W        W62950  27.984  10.752   1.845
94733W        W62951  26.769  34.021  12.209
94734W        W62952   6.979   6.584   2.616
94735W        W62953  39.713  41.281  10.802
94736W        W62954   5.381  12.929  10.798
94737W        W62955   8.379   9.407   1.384
94738W        W62956   4.285  36.885  12.167
94739W        W62957  18.773  24.057   1.765
94740W        W62958  12.804  28.850  14.286
94741W        W62959  17.756  41.949   1.926
94742W        W62960  18.810  31.454   1.903
94743W        W62961   9.420  38.538   0.918
94744W        W62962  35.514  15.012  10.696
94745W        W62963  37.050  26.926   3.168
94746W        W62964   3.781  19.615  14.190
94747W        W62965  30.283   2.999   4.534
94748W        W62966   2.388  23.278  11.167
94749W        W62967  17.608   0.563   0.479
94750W        W62968  28.332  13.708  12.419
94751W        W62969  35.035   3.408  14.544
94752W        W62970  13.716  19.819  13.288
94753W        W62971  10.057  34.427   2.586
94754W        W62972  10.170  33.063   0.851
94755W        W62973  19.666   2.892   0.872
94756W        W62974   2.302  27.352  13.331
94757W        W62975  27.905  24.892   0.158
94758W        W62976  35.448  25.172  11.625
94759W        W62977  43.233   6.219   3.202
94760W        W62978  12.160   1.980   3.778
94761W        W62979  34.601  15.621  13.587
94762W        W62980   6.224  17.585   9.835
94763W        W62981  17.120  33.376   1.817
94764W        W62982  17.689  24.984  12.512
94765W        W62983  38.315   4.365  13.024
94766W        W62984   8.314  22.274   3.801
94767W        W62985  27.833  28.515   3.824
94768W        W62986  23.558   1.696  13.364
94769W        W62987  26.955  17.299  14.965
94770W        W62988  14.153  10.236   1.296
94771W        W62989  37.529   7.586  14.558
94772W        W62990   5.786  33.057  12.667
94773W        W62991  12.601  10.891   1.880
94774W        W62992  22.594  43.204   2.427
94775W        W62993  25.262  27.548   1.160
94776W        W62994   6.448  29.060   3.278
94777W        W62995  31.483  16.014  11.029
94778W        W62996  13.656  25.627   1.683
94779W        W62997   4.166   2.791   2.788
94780W        W62998  43.514  29.384  14.357
94781W        W62999  29.771  32.614  11.739
94782W        W63000   1.406  37.837   4.656
94783W        W63001  31.892  17.175  10.798
94784W        W63002  19.234  35.474   0.177
94785W        W63003  28.311  37.168   5.018
94786W        W63004  22.938  34.445  12.901
94787W        W63005  31.845  15.705   0.288
94788W        W63006   6.859  40.767  14.957
94789W        W63007  43.894  42.486   4.156
94790W        W63008  20.914  37.345  14.811
94791W        W63009  35.641  41.814   3.214
94792W        W63010  22.358  34.062   4.348
94793W        W63011  12.608   7.963  14.151
94794W        W63012  37.265  10.113   3.237
94795W        W63013   6.353  28.423  12.644
94796W        W63014  23.730  16.730   1.378
94797W        W63015  18.134  33.935   5.697
94798W        W63016  28.118   7.989  14.511
94799W        W63017  13.735  30.786  11.569
94800W        W63018  40.101  11.367  11.926
94801W        W63019   8.609  26.146  12.656
94802W        W63020   2.105  18.451   3.216
94803W        W63021  20.693  18.733  12.080
94804W        W63022   7.586  23.932  12.036
94805W        W63023  17.132  27.104  12.974
94806W        W63024  15.510  17.955  11.436
94807W        W63025  26.439  31.231   2.605
94808W        W63026  43.930  20.295   4.254
94809W        W63027  44.525  20.137   1.887
94810W        W63028  13.018  33.988  11.876
94811W        W63029   1.704  11.142   3.612
94812W        W63030  33.327  42.801   4.322
94813W        W63031   6.436  15.367   3.159
94814W        W63032  32.588  34.527   0.424
94815W        W63033   3.276  37.143  14.762
94816W        W63034  21.162   5.674  11.040
94817W        W63035  27.750   9.343   0.740
94818W        W63036  30.018  13.533   4.495
94819W        W63037  35.783  12.250  12.018
94820W        W63038  19.484  44.970  12.007
94821W        W63039   3.826  15.183   0.802
94822W        W63040   8.198  10.260  13.822
94823W        W63041   2.956  25.916   2.362
94824W        W63042   9.054  44.877   4.578
94825W        W63043  25.440  29.002   4.542
94826W        W63044  15.789  29.891  14.912
94827W        W63045   5.308  18.608  11.612
94828W        W63046  10.086  15.723   5.007
94829W        W63047  35.494   8.140  10.464
94830W        W63048  32.534  11.094  12.309
94831W        W63049  15.184   4.964  12.851
94832W        W63050  11.126  41.019   4.157
94833W        W63051  26.601  13.435  11.430
94834W        W63052  25.004   3.768   2.176
94835W        W63053  28.922   0.704  13.357
94836W        W63054  32.969  42.191   0.795
94837W        W63055  11.328  39.060   4.448
94838W        W63056  41.543  25.528  11.166
94839W        W63057  15.258  15.500  13.351
94840W        W63058  36.653  15.216  13.040
94841W        W63059  27.622  44.434   3.091
94842W        W63060   9.946   1.390  13.035
94843W        W63061  21.227   9.342   3.316
94844W        W63062  31.576  42.211   3.230
94845W        W63063  12.084  19.093   3.836
94846W        W63064  15.842  18.587  12.888
94847W        W63065   7.003   8.457  14.992
94848W        W63066  39.956  29.451   1.651
94849W        W63067   5.479  35.394   4.260
94850W        W63068  28.510  10.260  10.198
94851W        W63069   3.561  42.400  10.552
94852W        W63070  13.126  42.547   1.783
94853W        W63071  30.185   1.366   0.843
94854W        W63072   4.934  22.532   2.701
94855W        W63073  29.947   4.203  12.393
94856W        W63074  44.341  22.668  10.745
94857W        W63075  13.429  15.172   3.026
94858W        W63076  15.117  42.971   9.597
94859W        W63077  17.487  31.952   2.858
94860W        W63078  11.078  27.309  12.474
94861W        W63079  41.570  21.179   4.299
94862W        W63080  15.893  41.417   0.690
94863W        W63081   3.792  14.656   0.023
94864W        W63082  31.172  23.677   4.512
94865W        W63083  42.142  18.527   0.987
94866W        W63084  33.560   4.910   2.343
94867W        W63085  40.942   8.889  14.403
94868W        W63086   8.644  21.503  13.984
94869W        W63087  21.000  36.845  11.282
94870W        W63088  19.896   7.253  11.550
94871W        W63089   9.867  23.504  12.579
94872W        W63090  36.535   0.304  10.243
94873W        W63091  44.342  31.330  11.598
94874W        W63092  15.054   2.640  13.462
94875W        W63093  41.629  11.078  12.084
94876W        W63094  20.154   8.217  11.917
94877W        W63095  36.331  26.474   4.970
94878W        W63096  10.349  22.515  10.698
94879W        W63097  24.076  33.669  11.810
94880W        W63098  28.203  15.785  12.936
94881W        W63099  22.669  11.676   3.631
94882W        W63100  41.511  39.721   3.454
94883W        W63101  30.041  17.629   0.713
94884W        W63102  31.910  11.705   4.091
94885W        W63103  27.017  37.472  12.801
94886W        W63104  13.846  30.116  14.833
94887W        W63105  10.581   1.779  11.534
94888W        W63106  40.533  23.994  12.536
94889W        W63107  42.824   9.136   4.653
94890W        W63108  31.408   5.262   3.759
94891W        W63109  38.608  33.333   0.654
94892W        W63110  36.424  34.923  12.143
94893W        W63111  16.621   6.377  11.094
94894W        W63112  33.456  37.751  13.295
94895W        W63113  33.834  44.908   0.290
94896W        W63114  37.468  29.646  10.802
94897W        W63115  27.554  19.479   0.291
94898W        W63116  23.582  43.469   2.717
94899W        W63117  36.410  30.520  14.753
94900W        W63118  36.396  38.409   2.216
94901W        W63119  10.786  24.566  10.909
94902W        W63120  10.109   3.617  12.479
94903W        W63121  10.369  30.352  12.027
94904W        W63122   3.529  28.197  14.278
94905W        W63123   1.346  21.542   0.498
94906W        W63124  36.156  19.595   2.823
94907W        W63125  17.633  29.973   0.639
94908W        W63126  37.039  13.731   4.804
94909W        W63127  39.212   0.194   4.575
94910W        W63128  36.570   6.344   1.637
94911W        W63129  37.819  21.307  13.040
94912W        W63130  12.709  18.528   3.975
94913W        W63131   1.942   1.293  10.667
94914W        W63132   9.271  24.378  11.113
94915W        W63133  12.725  38.508  11.596
94916W        W63134   1.227  25.981   3.178
94917W        W63135  28.821   7.267  12.041
94918W        W63136   1.298  41.356  12.828
94919W        W63137  24.797  22.483   0.726
94920W        W63138  44.080  36.461  14.277
94921W        W63139  29.694  27.192  12.513
94922W        W63140  31.811  10.516  11.268
94923W        W63141   4.817  39.728   2.318
94924W        W63142  22.218  25.146   4.647
94925W        W63143  28.946  32.407   0.371
94926W        W63144  24.001  33.321   4.328
94927W        W63145  12.154   9.005   0.775
94928W        W63146  43.265  22.542   3.938
94929W        W63147  42.624  38.535  10.449
94930W        W63148  20.318  18.124  13.867
94931W        W63149  39.379  31.046  12.780
94932W        W63150  36.995  40.414   1.211
94933W        W63151  17.234  40.760   1.173
94934W        W63152   4.101   2.965  14.849
94935W        W63153  13.195  31.940  11.643
94936W        W63154   5.916  11.462  13.286
94937W        W63155  38.340  29.106   0.967
94938W        W63156  18.359   9.831   2.263
94939W        W63157   3.824  17.695   4.018
94940W        W63158  38.815  39.385  14.513
94941W        W63159  35.940  40.589  12.942
94942W        W63160  36.164   4.933  13.427
94943W        W63161  38.558   0.167   4.044
94944W        W63162   2.370  29.025   3.209
94945W        W63163  20.151  28.070   3.143
94946W        W63164   0.968  22.372   2.550
94947W        W63165  16.130   8.647   1.013
94948W        W63166  12.890  10.326   4.576
94949W        W63167  23.224  15.374  14.246
94950W        W63168  22.819  11.637   1.666
94951W        W63169  38.803  18.774  11.122
94952W        W63170  15.084  14.924  10.570
94953W        W63171  10.090  24.239   2.653
94954W        W63172   1.308   9.926   2.246
94955W        W63173  41.939  43.997  12.485
94956W        W63174  31.924  25.522   4.251
94957W        W63175  31.632  39.807   2.220
94958W        W63176  26.693   1.938   0.239
94959W        W63177   9.154  12.842  14.969
94960W        W63178  19.677   3.149   0.418
94961W        W63179  15.577   1.973  13.887
94962W        W63180   4.014  35.294   2.695
94963W        W63181  14.754  28.003  10.677
94964W        W63182  28.733  44.432   1.295
94965W        W63183  42.030  37.812   1.606
94966W        W63184  14.231   5.283  11.607
94967W        W63185   8.791  20.801  10.595
94968W        W63186  29.191   8.765   1.215
94969W        W63187  27.701   3.416   1.353
94970W        W63188   3.324  25.918  14.025
94971W        W63189  44.889  16.266   0.535
94972W        W63190  40.950  22.480  13.626
94973W        W63191  13.136  16.952   2.685
94974W        W63192  33.877  11.375   3.151
94975W        W63193  31.137   2.295  12.253
94976W        W63194  17.310   3.651   2.301
94977W        W63195   8.686  10.450  14.024
94978W        W63196  15.256  17.506   1.225
94979W        W63197   9.827   1.285   1.433
94980W        W63198  35.014  27.155   0.538
94981W        W63199  35.836  31.942  10.444
94982W        W63200  41.234  27.102   4.581
94983W        W63201  22.708  33.407  10.240
94984W        W63202  41.310  16.367  12.321
94985W        W63203  23.109   4.761  13.808
94986W        W63204  32.934  19.137   0.666
94987W        W63205  19.301  30.018  14.979
94988W        W63206  20.711  18.274  13.570
94989W        W63207  24.173   9.238   2.236
94990W        W63208   4.903  30.449   5.011
94991W        W63209  19.553  43.732  13.809
94992W        W63210   4.735  29.208   5.063
94993W        W63211  11.782  37.086  14.015
94994W        W63212  36.752  16.117   0.188
94995W        W63213   1.640   5.351  10.644
94996W        W63214  23.123  33.563  12.225
94997W        W63215  10.110  33.359  11.172
94998W        W63216  44.861  10.308  11.325
94999W        W63217  18.182  37.148  11.114
95000W        W63218  14.632  35.589  10.625
95001W        W63219   9.903  18.298  11.601
95002W        W63220  17.684  10.267  12.432
95003W        W63221   1.665  10.246   0.291
95004W        W63222   4.791   3.255   2.204
95005W        W63223  15.518  19.674   1.116
95006W        W63224   3.785  32.812  12.502
95007W        W63225  25.628  27.066  12.609
95008W        W63226  27.102  20.543  14.243
95009W        W63227  23.255   0.505  11.133
95010W        W63228  30.521  41.614   4.157
95011W        W63229  19.031  10.684  11.097
95012W        W63230   1.832  17.882   1.161
95013W        W63231  29.991  19.326   2.565
95014W        W63232  21.011  27.455  13.379
95015W        W63233  34.075   9.136  11.929
95016W        W63234  34.180  31.429   1.389
95017W        W63235  42.937  28.081  14.356
95018W        W63236  15.286   8.280   3.682
95019W        W63237  10.597  37.375  13.795
95020W        W63238   8.244  15.239   1.821
95021W        W63239  37.563  18.592  12.243
95022W        W63240  28.524  33.165   1.837
95023W        W63241  27.196  28.354  12.913
95024W        W63242   1.971  20.504  12.754
95025W        W63243  12.919  17.839  14.045
95026W        W63244  31.970   8.405   4.332
95027W        W63245   6.377  17.031  12.023
95028W        W63246  38.863  39.392   4.386
95029W        W63247  32.016  11.956  14.678
95030W        W63248   2.986  39.909   2.775
95031W        W63249  12.928  40.556  14.516
95032W        W63250  11.668  39.293  14.407
95033W        W63251  32.563  41.268   4.252
95034W        W63252  21.632  24.977   0.440
95035W        W63253  31.447   7.320  14.269
95036W        W63254  35.254  38.944   1.540
95037W        W63255  41.357  30.489  14.989
95038W        W63256   3.514   6.392  13.936
95039W        W63257   0.937   2.801   4.472
95040W        W63258   9.763  27.655  10.571
95041W        W63259  37.962  23.986  12.164
95042W        W63260  29.024   7.796   4.777
95043W        W63261   3.662  11.064   2.689
95044W        W63262  20.808   2.357   0.349
95045W        W63263   1.184   1.266  11.973
95046W        W63264  43.350  32.490   3.279
95047W        W63265  15.737  27.238  12.079
95048W        W63266   8.790  13.073   3.737
95049W        W63267  20.608  44.982  14.950
95050W        W63268   9.856  12.681  14.457
95051W        W63269  23.066  29.231  13.486
95052W        W63270   6.316  33.708   2.882
95053W        W63271  43.303  42.083  11.491
95054W        W63272  36.478  31.498  12.485
95055W        W63273  28.888   4.972  13.336
95056W        W63274  14.630  39.332  11.688
95057W        W63275  37.946   4.326  12.098
95058W        W63276  28.548  20.060  14.819
95059W        W63277   6.791   4.360   2.799
95060W        W63278   3.703  17.303  13.754
95061W        W63279  24.078  22.059   4.612
95062W        W63280  12.256  25.417  12.213
95063W        W63281  39.061   6.916   4.284
95064W        W63282  20.868  15.521  13.455
95065W        W63283  44.768  33.037   2.308
95066W        W63284  34.900  40.862  11.124
95067W        W63285   0.792   6.182  13.075
95068W        W63286  23.127  13.093   4.108
95069W        W63287  20.072  35.145   1.437
95070W        W63288  23.508  18.619  11.113
95071W        W63289  11.146  41.852  12.590
95072W        W63290  31.482  32.670   1.661
95073W        W63291  23.729  16.417  12.033
95074W        W63292   3.214   2.505  12.088
95075W        W63293  20.489  31.969   2.883
95076W        W63294  26.593  13.766   4.644
95077W        W63295  36.642   0.318   2.632
95078W        W63296  11.440  44.268   3.794
95079W        W63297   1.780  36.051  14.773
95080W        W63298  16.207   1.682   1.858
95081W        W63299  38.341  21.478   1.971
95082W        W63300  40.320  24.520   1.640
95083W        W63301  38.496   9.894   4.776
95084W        W63302   8.102  32.597   4.289
95085W        W63303  31.977  24.532   1.694
95086W        W63304  11.337  43.508  12.450
95087W        W63305  39.139  18.686  12.595
95088W        W63306  19.484   4.752   1.354
95089W        W63307  27.936  40.347  13.483
95090W        W63308   3.935  26.572  12.393
95091W        W63309   7.369  28.658  12.016
95092W        W63310  35.569  17.047   0.383
95093W        W63311  27.463   7.331   3.716
95094W        W63312  41.408  11.181  14.919
95095W        W63313  39.358  16.922  10.693
95096W        W63314   7.493  27.673  10.760
95097W        W63315  16.065   1.447   1.390
95098W        W63316  13.249  30.213   1.244
95099W        W63317  14.543  26.241  12.451
95100W        W63318   1.830  10.109  12.316
95101W        W63319   3.911  41.548  11.467
95102W        W63320  18.777  33.683  12.053
95103W        W63321   7.320  11.808  14.232
95104W        W63322  10.780  32.566   3.516
95105W        W63323  41.912   2.192  10.339
95106W        W63324   4.427  35.354   1.414
95107W        W63325   4.724  24.930  11.980
95108W        W63326  24.012  28.769  13.909
95109W        W63327  18.072  40.870  10.953
95110W        W63328  42.731   4.736  14.340
95111W        W63329  13.089  32.445  13.894
95112W        W63330  20.175   5.982  12.416
95113W        W63331   9.891   1.635   1.855
95114W        W63332   5.896  34.850  13.329
95115W        W63333  19.741  12.136   4.406
95116W        W63334  36.030  35.257   3.635
95117W        W63335  20.264  10.627  12.530
95118W        W63336  18.078  39.078  14.335
95119W        W63337  37.310  44.216   4.262
95120W        W63338  34.870  10.420  13.776
95121W        W63339   6.467   8.538   0.781
95122W        W63340   6.210  28.225   1.295
95123W        W63341   5.126  22.582  12.912
95124W        W63342   1.225  42.302   4.357
95125W        W63343  14.188   0.975  13.285
95126W        W63344  27.972  43.715  12.925
95127W        W63345  28.923  27.274  12.889
95128W        W63346   6.752  39.498  10.167
95129W        W63347  26.980  27.165  11.127
95130W        W63348  24.124   5.841  10.344
95131W        W63349   1.268  40.549  12.811
95132W        W63350  29.078  33.466  11.606
95133W        W63351  30.907  10.642  13.906
95134W        W63352   1.862  36.343  11.653
95135W        W63353  16.601  13.339   1.409
95136W        W63354  23.673  33.359  12.076
95137W        W63355  16.291  33.867  13.929
95138W        W63356  37.455  22.741  12.281
95139W        W63357  24.218  11.337   2.056
95140W        W63358  39.990   4.740  11.089
95141W        W63359  44.247  38.503  11.592
95142W        W63360  30.637  35.807   4.962
95143W        W63361  44.809  34.379  12.399
95144W        W63362  19.436   0.802   1.287
95145W        W63363   9.842   5.372   2.213
95146W        W63364   5.696  31.624  11.464
95147W        W63365  32.097   4.948   0.931
95148W        W63366   2.722  12.730  11.508
95149W        W63367   5.754  21.038   1.905
95150W        W63368  11.527  33.392   1.371
95151W        W63369  39.557  32.239  13.616
95152W        W63370  26.013  30.403   3.841
95153W        W63371  16.687  15.890  11.059
95154W        W63372  40.774  40.466   0.970
95155W        W63373  24.537  13.843  10.686
95156W        W63374   6.312  38.240  14.864
95157W        W63375  14.630  19.706   2.669
95158W        W63376   3.442  22.209  14.335
95159W        W63377  24.478  21.687   1.914
95160W        W63378  29.586  41.569   1.760
95161W        W63379  25.558  38.652  11.022
95162W        W63380  29.725  42.980   1.920
95163W        W63381  18.051  33.170  14.270
95164W        W63382  21.302  37.843   5.772
95165W        W63383  12.408  22.319   1.479
95166W        W63384  42.006  28.923   2.423
95167W        W63385  28.136  25.090   1.134
95168W        W63386  30.724  21.076  14.941
95169W        W63387   1.053   0.638  10.977
95170W        W63388  15.484  42.879   3.804
95171W        W63389  26.675  18.792   1.012
95172W        W63390  25.479  41.174   5.159
95173W        W63391  39.488  32.333  12.500
95174W        W63392  38.798   4.865  14.515
95175W        W63393  41.293  13.215   2.285
95176W        W63394  25.066  37.322  13.865
95177W        W63395  23.923  19.281   2.186
95178W        W63396  18.714  20.790   0.351
95179W        W63397  31.285   1.462  13.928
95180W        W63398  34.096  10.624  10.912
95181W        W63399  24.605   6.643   4.690
95182W        W63400   7.136  39.498  14.524
95183W        W63401   6.926  15.607  13.494
95184W        W63402  40.393  35.843  14.345
95185W        W63403  41.875  14.201  11.793
95186W        W63404   0.225   2.702   1.152
95187W        W63405  27.131  42.856   4.438
95188W        W63406  34.238  36.117  12.476
95189W        W63407   0.886   3.726   2.339
95190W        W63408  35.837  32.568   3.145
95191W        W63409  39.433  12.238   1.294
95192W        W63410  33.288  33.511  12.358
95193W        W63411  42.570  37.100   3.864
95194W        W63412  12.925  15.743   0.902
95195W        W63413  28.940  18.378   2.285
95196W        W63414  28.535   2.841   4.165
95197W        W63415  41.304  11.582  13.361
95198W        W63416  17.938   7.972  13.305
95199W        W63417   2.572   7.505   0.363
95200W        W63418  30.122  12.695   2.101
95201W        W63419  38.957  33.600  12.096
95202W        W63420  15.663  29.677   1.315
95203W        W63421  27.596  12.959  10.449
95204W        W63422  34.719  41.312  13.072
95205W        W63423  24.023   1.663  11.427
95206W        W63424  24.407  38.326   3.707
95207W        W63425   3.878  20.995   0.932
95208W        W63426  17.299   0.876  12.389
95209W        W63427   7.972  27.964  14.370
95210W        W63428   2.912  11.830  11.373
95211W        W63429  16.881  16.519   1.856
95212W        W63430  37.516  37.047   3.762
95213W        W63431  21.140   6.325  13.626
95214W        W63432  11.310  16.620   3.030
95215W        W63433   4.481  35.056   0.949
95216W        W63434  34.226  38.032  14.460
95217W        W63435   1.537  42.915   0.109
95218W        W63436   1.068  39.908  12.431
95219W        W63437  17.592  44.275  14.870
95220W        W63438  41.849   7.291   9.916
95221W        W63439  41.509   2.773   2.769
95222W        W63440   4.842   3.787  13.439
95223W        W63441   1.212  40.777   1.260
95224W        W63442  28.870   2.045  14.241
95225W        W63443  25.971   0.005  14.344
95226W        W63444  30.510   4.259   0.931
95227W        W63445   9.104   0.908   0.549
95228W        W63446  36.909  17.617   4.103
95229W        W63447   7.855  15.286  14.127
95230W        W63448  22.745   5.457  11.955
95231W        W63449  35.424  29.922  14.487
95232W        W63450  14.976  41.441  13.510
95233W        W63451   1.472  37.362  11.860
95234W        W63452  43.718  44.614   4.876
95235W        W63453  25.622   0.261   1.352
95236W        W63454  22.975   6.182  12.484
95237W        W63455  28.252  10.711  10.376
95238W        W63456  31.673  10.601   3.480
95239W        W63457  42.984  17.263   4.657
95240W        W63458  18.754  16.781   1.753
95241W        W63459  17.593   2.833   2.473
95242W        W63460  23.084   7.938  11.514
95243W        W63461  32.370  19.018   2.762
95244W        W63462   2.266  14.162   4.533
95245W        W63463   0.998  26.298  14.504
95246W        W63464   8.853  19.080  11.180
95247W        W63465  27.128  37.223  13.228
95248W        W63466  30.135  30.597   0.466
95249W        W63467  29.992   2.875  12.306
95250W        W63468  20.234   3.827  12.875
95251W        W63469  11.213  29.171   0.254
95252W        W63470  44.477  42.738  14.990
95253W        W63471  25.089   1.324  10.783
95254W        W63472  41.359  38.494   2.464
95255W        W63473   0.245  12.451   2.825
95256W        W63474  28.230  13.748   2.649
95257W        W63475  37.508  19.302   2.749
95258W        W63476  19.501  36.843   1.830
95259W        W63477  25.688  16.215   2.618
95260W        W63478  41.383  28.223  10.673
95261W        W63479  17.757   1.778   3.205
95262W        W63480  44.276  28.631  13.446
95263W        W63481  35.031  33.575  12.092
95264W        W63482  28.400  25.254  11.024
95265W        W63483   4.317  35.892  12.166
95266W        W63484  18.591  33.656   0.715
95267W        W63485  34.457  27.481   0.744
95268W        W63486   5.977  29.495  10.587
95269W        W63487  29.691  12.182   4.480
95270W        W63488   1.969   9.540   1.290
95271W        W63489  26.284   5.942   0.429
95272W        W63490  25.044   8.768   4.793
95273W        W63491  11.843  22.946   1.291
95274W        W63492  35.496   1.701   4.874
95275W        W63493  29.193  16.939  12.931
95276W        W63494  20.118  27.549  11.072
95277W        W63495   2.925  16.172  13.388
95278W        W63496  37.818  32.860   1.357
95279W        W63497  28.975  13.326   3.503
95280W        W63498   5.908  35.912  13.390
95281W        W63499   9.189   5.497   3.558
95282W        W63500  35.411  36.135  10.977
95283W        W63501  41.268  29.701   0.336
95284W        W63502  32.184  33.651   0.870
95285W        W63503  44.378  41.258  11.609
95286W        W63504  34.515  21.534  12.194
95287W        W63505  44.767  14.641   2.275
95288W        W63506  15.781  21.656   2.607
95289W        W63507  31.641  28.012   1.683
95290W        W63508   7.826  39.590  14.933
95291W        W63509  19.459   1.554  11.562
95292W        W63510   6.406  29.561   1.721
95293W        W63511  32.938  37.135   0.452
95294W        W63512   5.690  24.771   2.609
95295W        W63513  44.145   1.830  10.269
95296W        W63514  31.626  18.134  14.848
95297W        W63515  24.951  28.108  14.745
95298W        W63516  40.810  39.358   2.442
95299W        W63517   8.640  31.046   4.269
95300W        W63518  14.685  36.366   4.288
95301W        W63519  34.591  36.125  11.289
95302W        W63520  33.456  20.683   1.730
95303W        W63521   8.396  27.962  12.676
95304W        W63522   9.343  40.847  12.862
95305W        W63523  22.084  34.335  11.963
95306W        W63524   4.001   7.733   4.344
95307W        W63525   9.871  19.870   4.128
95308W        W63526  29.904  11.511  11.606
95309W        W63527  37.462  44.792  14.232
95310W        W63528   5.962  26.877   4.423
95311W        W63529  22.494  34.190   3.352
95312W        W63530   6.114   2.377   2.202
95313W        W63531  34.095  16.099   4.164
95314W        W63532  32.524  44.998  13.922
95315W        W63533  27.932   6.768  14.034
95316W        W63534  38.303  24.659   1.667
95317W        W63535  34.406  33.547   1.430
95318W        W63536  13.941  34.629   4.311
95319W        W63537   9.363   5.363  14.009
95320W        W63538  12.411  20.728  10.990
95321W        W63539  35.204   5.208   0.962
95322W        W63540  32.029  29.650  12.883
95323W        W63541  30.633   5.960  13.448
95324W        W63542  25.996  36.073  12.375
95325W        W63543  40.652  20.188  12.430
95326W        W63544  14.806  39.854  13.977
95327W        W63545  43.430  27.709  10.602
95328W        W63546  43.313  40.329  12.815
95329W        W63547  19.201  13.271   1.234
95330W        W63548  33.235  21.827   4.188
95331W        W63549  31.993   9.419   1.203
95332W        W63550  13.601  35.465   0.267
95333W        W63551  25.499  36.033   3.647
95334W        W63552  43.248  27.641  12.090
95335W        W63553  32.831   4.356   0.741
95336W        W63554  29.878  39.953   1.866
95337W        W63555   6.602  21.447  13.962
95338W        W63556  33.001  32.890   0.868
95339W        W63557  11.172   1.856  12.377
95340W        W63558  17.717  33.794   4.300
95341W        W63559  37.412   7.320  10.458
95342W        W63560   3.413  44.060   3.493
95343W        W63561  18.200  37.392  10.647
95344W        W63562   2.245   4.785   4.930
95345W        W63563  20.668   1.664  13.382
95346W        W63564   3.528  26.610   2.303
95347W        W63565  12.117   2.447   2.801
95348W        W63566  38.353   7.848   2.019
95349W        W63567   5.356  42.827  13.537
95350W        W63568  41.301  42.623   3.677
95351W        W63569   1.308  20.967  12.352
95352W        W63570  38.069  13.756   3.330
95353W        W63571  25.137  24.348   1.513
95354W        W63572   2.431  44.048   2.606
95355W        W63573  36.407  35.032  13.542
95356W        W63574  19.665   3.121  11.647
95357W        W63575  39.458   9.936   2.768
95358W        W63576   9.079   3.864  11.455
95359W        W63577  25.877  16.903  14.260
95360W        W63578  37.961  28.536   2.724
95361W        W63579   3.511   3.880   5.012
95362W        W63580   6.746  11.392  11.175
95363W        W63581  40.373   3.435  14.895
95364W        W63582  26.571  19.934  13.121
95365W        W63583  12.218   5.382  13.319
95366W        W63584  21.134  21.483  14.131
95367W        W63585  31.130  33.323  13.392
95368W        W63586  25.665  35.098   0.799
95369W        W63587  20.070  31.057  12.855
95370W        W63588  18.562  31.070  10.950
95371W        W63589  32.689  10.180  11.872
95372W        W63590  29.320  20.211   0.234
95373W        W63591  26.122  14.534  13.532
95374W        W63592  13.871  23.989  11.368
95375W        W63593  30.690  27.593  11.130
95376W        W63594  33.418  39.122  12.421
95377W        W63595  12.561  39.345  12.575
95378W        W63596  35.656   0.662  14.028
95379W        W63597   5.983  13.170   4.724
95380W        W63598  36.995  16.986  12.923
95381W        W63599  12.698  28.997   0.350
95382W        W63600  20.246  12.405  14.929
95383W        W63601  36.458   9.665   2.392
95384W        W63602  20.276  44.041  12.139
95385W        W63603  13.233  29.644   1.301
95386W        W63604  10.856  23.257   3.724
95387W        W63605  38.935  43.279  11.522
95388W        W63606  30.248  21.997   3.656
95389W        W63607  21.505  21.688  11.335
95390W        W63608  28.672  42.096   1.794
95391W        W63609  14.441   6.106   4.923
95392W        W63610  41.584  28.481   3.258
95393W        W63611   4.712  15.475  10.779
95394W        W63612  24.352  17.040   4.666
95395W        W63613  13.029  42.909   0.985
95396W        W63614  18.083  39.821  12.821
95397W        W63615  17.026  38.447  11.488
95398W        W63616   2.825  42.989  14.706
95399W        W63617  15.670   3.014  14.835
95400W        W63618  38.220  17.640  11.926
95401W        W63619  16.094   1.509  10.347
95402W        W63620  18.009  32.151  13.131
95403W        W63621   0.300   8.274   1.370
95404W        W63622  13.849  43.177   3.295
95405W        W63623  44.637  28.983  14.231
95406W        W63624  20.006  15.866   3.692
95407W        W63625  26.604   0.087  14.802
95408W        W63626  35.307  26.215   4.262
95409W        W63627  31.437  22.979   3.862
95410W        W63628   9.086   2.287   1.712
95411W        W63629  40.527  18.646  11.413
95412W        W63630  35.508  17.209   1.916
95413W        W63631  38.865  19.930   1.214
95414W        W63632  19.247  14.339  12.443
95415W        W63633  32.940  14.090  14.884
95416W        W63634  12.076  18.346   2.356
95417W        W63635  19.195  15.680  11.981
95418W        W63636  39.887  35.537   3.065
95419W        W63637  15.743  37.784   1.768
95420W        W63638  30.999  28.247   2.766
95421W        W63639  16.502  19.443   2.864
95422W        W63640   9.802  12.092  12.870
95423W        W63641  37.327  24.748   2.905
95424W        W63642  16.199  36.230   3.759
95425W        W63643  10.094  27.543   2.637
95426W        W63644  44.956  12.216  13.498
95427W        W63645  33.871  44.693  13.339
95428W        W63646  15.183   0.793  14.527
95429W        W63647   7.798  43.889  10.850
95430W        W63648  29.938  35.391   2.372
95431W        W63649   0.606  19.025  14.787
95432W        W63650   9.964  27.175   4.116
95433W        W63651  19.212  13.689  14.458
95434W        W63652   0.776  29.514  13.656
95435W        W63653  13.855  44.613  11.973
95436W        W63654   4.872  22.518  14.019
95437W        W63655  19.099   6.929  12.809
95438W        W63656  28.699  11.334   1.845
95439W        W63657  17.809   4.797   2.772
95440W        W63658  31.340   2.540   5.403
95441W        W63659  28.574  16.892   2.857
95442W        W63660  14.795  41.562   2.757
95443W        W63661  36.371  28.105   3.820
95444W        W63662   3.237   3.456  10.320
95445W        W63663  20.123  25.129  14.770
95446W        W63664  13.654   6.596   0.536
95447W        W63665   5.194  23.096   4.803
95448W        W63666  38.974  23.153   0.090
95449W        W63667  30.554  22.005  11.030
95450W        W63668  24.519  11.349  11.554
95451W        W63669  35.143  28.806  10.332
95452W        W63670   7.911  34.584   4.121
95453W        W63671  18.015  13.997   3.549
95454W        W63672  25.031  42.830   0.406
95455W        W63673  21.587  14.115   1.730
95456W        W63674   2.507  10.637   4.221
95457W        W63675  22.209   1.456  11.004
95458W        W63676  25.596  21.500  12.788
95459W        W63677   7.786  22.422   3.706
95460W        W63678  30.288  20.574   3.516
95461W        W63679  36.530   3.187  10.742
95462W        W63680  29.956  42.303   1.378
95463W        W63681  16.786  20.058   3.073
95464W        W63682   1.288  37.354   0.287
95465W        W63683  13.039   3.744  11.121
95466W        W63684  16.768  34.117  14.821
95467W        W63685  32.874   3.447   2.722
95468W        W63686   3.845  32.097  11.084
95469W        W63687  44.478  29.990  13.461
95470W        W63688  16.149  13.116  14.240
95471W        W63689  18.721  13.742  13.339
95472W        W63690  16.046   0.753  12.411
95473W        W63691  25.285   4.122   0.417
95474W        W63692  35.031  25.728  12.387
95475W        W63693  20.286  14.474   5.457
95476W        W63694   7.219   9.593  10.829
95477W        W63695  31.390  24.141   4.354
95478W        W63696  23.715  41.538  13.966
95479W        W63697  20.626  17.133   0.354
95480W        W63698  40.417  34.705  11.688
95481W        W63699  35.073  17.802   0.282
95482W        W63700   6.363  18.263  13.831
95483W        W63701  39.041  10.195   0.487
95484W        W63702  44.572  27.623  14.262
95485W        W63703  38.123  12.111  10.815
95486W        W63704  14.191   9.863  13.941
95487W        W63705  31.623  26.953   0.626
95488W        W63706  29.494  26.591   3.725
95489W        W63707  24.206  33.902   1.926
95490W        W63708   6.746   7.174  11.597
95491W        W63709   0.879  20.800   4.514
95492W        W63710  43.584  42.171  12.635
95493W        W63711  11.905   3.926  13.521
95494W        W63712  13.710  41.067  11.141
95495W        W63713  15.241  31.663  14.831
95496W        W63714   6.133  33.464  13.415
95497W        W63715  22.957  15.821  12.186
95498W        W63716  41.474   2.019  10.592
95499W        W63717  14.799  12.841  12.977
95500W        W63718  36.499  17.900   4.290
95501W        W63719  11.094   7.442  13.431
95502W        W63720   4.267  11.037  14.106
95503W        W63721  22.038  21.024  13.843
95504W        W63722  35.497  34.467   2.968
95505W        W63723  36.795  22.013  12.578
95506W        W63724  28.665  26.195  13.321
95507W        W63725  23.032   4.368  12.899
95508W        W63726  22.705  22.180   1.636
95509W        W63727  33.883   3.204  14.883
95510W        W63728  32.907  29.652   0.773
95511W        W63729  34.069  17.758   4.523
95512W        W63730  21.699  18.239   2.055
95513W        W63731   7.042  35.779   1.924
95514W        W63732   4.593  27.266  14.545
95515W        W63733  17.141  27.618   3.522
95516W        W63734   8.714  36.059   4.670
95517W        W63735  17.979   1.724   1.877
95518W        W63736  16.213  36.352  14.477
95519W        W63737  28.918  24.248  12.090
95520W        W63738  28.045  38.596   0.822
95521W        W63739  11.424  37.768   2.909
95522W        W63740  27.254   4.789  13.972
95523W        W63741  20.672   6.492   4.091
95524W        W63742  33.011  38.048  11.988
95525W        W63743  27.104  36.081  13.942
95526W        W63744   5.742  29.446  13.109
95527W        W63745  22.549  11.263   2.857
95528W        W63746  42.742  40.712  13.586
95529W        W63747  39.460  28.002  10.210
95530W        W63748  32.845  22.919   3.351
95531W        W63749  33.373  23.475  14.877
95532W        W63750  29.714   6.612   5.040
95533W        W63751  25.137   1.930  12.468
95534W        W63752   2.165  23.571  13.354
95535W        W63753  26.915   5.213   1.094
95536W        W63754  21.891  26.998   4.142
95537W        W63755  12.683  22.252  11.895
95538W        W63756  25.206  37.917   0.684
95539W        W63757  32.013  38.198  13.015
95540W        W63758   6.231   0.651  14.764
95541W        W63759  16.733  20.776  13.472
95542W        W63760   2.391   9.729   0.332
95543W        W63761   6.896  22.692   3.464
95544W        W63762   3.295  41.920  11.677
95545W        W63763  14.504  27.501   4.518
95546W        W63764  28.907   8.231  13.029
95547W        W63765  11.119  33.677   2.119
95548W        W63766  40.812  16.258   3.925
95549W        W63767  38.523  41.201   3.212
95550W        W63768  33.401  19.509  14.846
95551W        W63769  21.587  29.604  12.774
95552W        W63770  27.569  12.805  12.531
95553W        W63771   3.219   3.760   0.791
95554W        W63772  20.440  13.088  12.513
95555W        W63773   0.923  21.888  13.899
95556W        W63774  38.019  22.153   3.823
95557W        W63775  32.251  29.506  14.778
95558W        W63776  35.435   1.574   2.434
95559W        W63777   8.756  31.154   1.845
95560W        W63778  20.634  31.059  13.992
95561W        W63779  17.236  20.608  12.005
95562W        W63780  21.895  22.132  14.929
95563W        W63781  21.676  18.540   0.231
95564W        W63782  24.311  38.632  12.407
95565W        W63783   3.212  37.575  13.899
95566W        W63784  21.030  34.544   2.664
95567W        W63785  27.509  26.668  12.153
95568W        W63786  34.857  34.610   3.381
95569W        W63787   4.658   6.417   4.639
95570W        W63788   2.933   5.838  13.396
95571W        W63789  13.054   8.946  14.544
95572W        W63790  13.781  37.377  11.070
95573W        W63791  38.476  11.692   2.764
95574W        W63792   6.270   9.012   3.572
95575W        W63793  36.860  40.517   2.813
95576W        W63794  12.208  13.536  14.103
95577W        W63795  44.428  14.851  14.717
95578W        W63796  24.881  22.918   4.335
95579W        W63797  33.888  12.807   4.333
95580W        W63798  16.736  21.756   4.408
95581W        W63799   9.859  40.923   2.250
95582W        W63800  18.701  27.583   0.432
95583W        W63801  19.062  10.204  14.341
95584W        W63802  30.743   5.699  14.331
95585W        W63803  15.522   2.695   1.581
95586W        W63804  15.783  20.087  12.721
95587W        W63805   0.935  40.296   4.736
95588W        W63806  25.124  27.146   3.235
95589W        W63807  39.068   9.288  14.019
95590W        W63808  20.135  35.639   1.312
95591W        W63809   2.453  23.586   3.778
95592W        W63810  26.028   6.455   3.126
95593W        W63811  25.524  36.133   2.209
95594W        W63812  32.644  21.640   0.256
95595W        W63813  18.706  42.584   0.104
95596W        W63814  38.591  12.750   1.209
95597W        W63815   0.185  16.226   1.395
95598W        W63816  29.449  30.862   3.773
95599W        W63817  38.058  21.334  12.546
95600W        W63818  13.182  40.939   4.622
95601W        W63819   1.090  32.479   0.690
95602W        W63820  38.393   4.831   2.761
95603W        W63821  16.811  36.785   1.255
95604W        W63822  14.505   0.380   4.926
95605W        W63823   1.814  26.896  13.019
95606W        W63824  31.583  34.658  11.961
95607W        W63825  32.896  31.649  14.294
95608W        W63826   7.922  19.622  11.855
95609W        W63827  34.734  23.545  12.675
95610W        W63828  39.341  37.315  14.625
95611W        W63829   1.224  28.237   3.932
95612W        W63830   1.576  42.333  11.437
95613W        W63831  15.241   8.227   4.587
95614W        W63832   1.970   6.822   0.644
95615W        W63833   1.285  21.450  12.216
95616W        W63834  31.357   2.782   0.562
95617W        W63835  37.326  29.018  13.985
95618W        W63836   1.499  15.687  14.184
95619W        W63837  33.493  26.594  11.460
95620W        W63838  19.771   0.941   3.633
95621W        W63839  39.886  23.198   4.294
95622W        W63840   2.042  33.957   4.287
95623W        W63841  42.310   0.400  10.639
95624W        W63842  42.914  24.046   0.020
95625W        W63843  36.710  26.719   2.262
95626W        W63844   3.482  17.133   4.604
95627W        W63845  15.797   9.891  10.818
95628W        W63846  21.159  23.852   1.282
95629W        W63847  43.196  33.400  14.454
95630W        W63848   8.797  11.701  10.778
95631W        W63849   0.907  35.475  13.107
95632W        W63850  27.154  23.246   0.455
95633W        W63851  29.611  39.426   1.051
95634W        W63852  42.302   6.171   0.774
95635W        W63853  10.839   2.799  14.389
95636W        W63854  43.459   1.236   0.013
95637W        W63855  31.991  43.444  11.720
95638W        W63856  29.756  31.163  11.072
95639W        W63857  36.636  38.454   3.201
95640W        W63858  33.564   3.768  13.450
95641W        W63859  39.964  28.655  12.478
95642W        W63860  13.050  25.096  10.668
95643W        W63861  17.314  39.955  11.038
95644W        W63862  32.936  39.643  11.159
95645W        W63863   5.267  18.112   3.560
95646W        W63864   4.213  21.579  12.033
95647W        W63865  17.606  14.267   3.767
95648W        W63866  32.655   8.463   2.715
95649W        W63867  23.655  35.015  11.183
95650W        W63868  43.581  15.313   2.234
95651W        W63869  40.809  32.346  11.127
95652W        W63870   9.016   1.219   2.713
95653W        W63871  33.661  32.646  11.532
95654W        W63872   1.860  16.858  12.049
95655W        W63873  11.644  32.111   0.841
95656W        W63874  41.933  13.141   1.447
95657W        W63875  35.407  31.391   2.984
95658W        W63876  32.369   0.500  12.079
95659W        W63877   2.045   5.032   0.891
95660W        W63878  36.483  11.619  12.797
95661W        W63879  34.352  13.638  13.870
95662W        W63880  40.829  40.390   3.366
95663W        W63881   4.131  11.813  13.606
95664W        W63882  22.339  29.060  13.029
95665W        W63883  22.158  34.661  14.895
95666W        W63884   8.999  17.310   0.399
95667W        W63885  10.215  30.147  12.502
95668W        W63886  24.135  43.914   3.317
95669W        W63887   4.339  23.912  14.372
95670W        W63888   9.871  36.608  11.685
95671W        W63889  12.671  44.935  14.182
95672W        W63890   6.204   4.400  12.013
95673W        W63891  22.739  19.161   3.188
95674W        W63892  32.866  17.266   3.843
95675W        W63893  14.677  43.846   2.062
95676W        W63894  25.470  32.863  13.022
95677W        W63895  14.747   3.775   3.743
95678W        W63896  20.252  26.650   1.743
95679W        W63897  10.821   1.575  11.122
95680W        W63898  21.715   9.834   2.818
95681W        W63899  17.578  16.320  12.424
95682W        W63900  34.823  42.261   0.240
95683W        W63901  13.097  15.179   3.679
95684W        W63902   5.062   5.948   0.655
95685W        W63903  40.760  41.876  11.310
95686W        W63904   1.944  25.037  13.897
95687W        W63905   7.885  29.229  12.011
95688W        W63906  39.578  44.517  13.481
95689W        W63907   6.730   4.368  13.784
95690W        W63908   5.437  21.967  13.459
95691W        W63909  21.677   1.377   2.345
95692W        W63910  32.121  34.646  12.887
95693W        W63911  18.035   0.256   0.841
95694W        W63912  24.625  14.833   1.219
95695W        W63913  13.821  43.270   9.829
95696W        W63914  28.163  29.374   4.658
95697W        W63915  22.439   2.332  10.272
95698W        W63916  12.070   0.489  10.628
95699W        W63917  12.858  19.100  13.437
95700W        W63918  25.509   1.860   0.252
95701W        W63919  14.768  14.153  12.312
95702W        W63920  33.988  27.246   2.360
95703W        W63921  27.724  29.127   2.278
95704W        W63922   1.429   9.821   4.559
95705W        W63923  35.211  12.181  12.933
95706W        W63924  28.205  41.819   1.864
95707W        W63925  29.990  36.230   1.619
95708W        W63926  36.340   4.349  13.063
95709W        W63927  12.558   4.232  11.690
95710W        W63928  21.521   8.882  12.783
95711W        W63929   6.608  20.198   2.413
95712W        W63930  35.329  34.190  11.250
95713W        W63931   9.427   3.877  11.066
95714W        W63932  16.603  25.629  12.000
95715W        W63933  31.496   7.677   0.065
95716W        W63934  41.334  28.461   3.882
95717W        W63935  32.623  24.320  12.117
95718W        W63936  35.237   9.047   3.739
95719W        W63937  11.330  25.545  11.151
95720W        W63938  30.045  12.119   1.276
95721W        W63939  25.975  17.177   0.868
95722W        W63940  22.725   8.345   1.801
95723W        W63941  19.061  19.540   4.521
95724W        W63942  35.392  20.619   2.701
95725W        W63943  11.637  12.563   2.027
95726W        W63944  43.505  43.243   0.010
95727W        W63945  18.548  20.492  11.527
95728W        W63946  21.968  13.223  12.399
95729W        W63947  28.435  17.994  14.487
95730W        W63948   8.362  13.055   0.575
95731W        W63949   7.220  20.580   0.947
95732W        W63950   9.301   2.845   2.435
95733W        W63951  43.698   8.874   0.150
95734W        W63952  18.052  24.429  12.025
95735W        W63953   8.709  12.682  14.728
95736W        W63954  31.700  18.666  12.615
95737W        W63955  21.108   5.180   1.353
95738W        W63956   3.241  29.166   2.257
95739W        W63957  18.784  29.667   1.376
95740W        W63958  27.391  40.417  11.990
95741W        W63959  25.876   8.189  10.601
95742W        W63960  33.820  29.480  11.110
95743W        W63961   5.972  11.387  14.689
95744W        W63962  37.870  26.955   0.220
95745W        W63963  34.833  14.802  12.368
95746W        W63964   0.489   3.211  13.842
95747W        W63965  23.558  41.235  11.040
95748W        W63966  18.156  44.946  13.344
95749W        W63967  21.314   1.059   5.113
95750W        W63968  37.341  17.670   4.653
95751W        W63969  42.444  22.607  14.390
95752W        W63970  44.904  15.961  13.860
95753W        W63971  38.834  17.079  11.644
95754W        W63972  36.400  24.476   3.762
95755W        W63973  23.674  21.431  11.582
95756W        W63974  29.720  30.319   0.317
95757W        W63975  17.157   3.912  13.783
95758W        W63976  40.790  37.381   3.336
95759W        W63977  10.618  32.019   4.833
95760W        W63978  31.398   9.857   2.861
95761W        W63979  16.210  24.603  13.523
95762W        W63980  28.994   0.201  13.479
95763W        W63981   2.916  25.194   4.692
95764W        W63982   6.848  38.947  13.504
95765W        W63983  20.146  30.099   3.153
95766W        W63984   4.228   0.892  11.877
95767W        W63985  34.077  36.385   3.318
95768W        W63986  35.120  11.616   4.576
95769W        W63987  18.994  25.988   3.146
95770W        W63988   4.629   7.618   2.295
95771W        W63989   8.428  40.055   1.421
95772W        W63990   9.242  23.342  11.092
95773W        W63991  33.387  26.154   1.775
95774W        W63992  29.517  39.118  13.429
95775W        W63993  33.556  43.220  11.397
95776W        W63994   6.594  29.412  10.735
95777W        W63995  28.939  32.654  12.068
95778W        W63996  22.423  44.694   0.270
95779W        W63997  40.903  29.080   3.491
95780W        W63998   0.794  23.691   4.414
95781W        W63999  39.298   6.305   4.608
95782W        W64000  22.068   6.261  13.940
95783W        W64001  38.252  21.098   0.374
95784W        W64002   7.873   7.766   0.299
95785W        W64003  27.587  21.518  11.724
95786W        W64004   7.389  18.083   1.300
95787W        W64005  40.721  23.778   1.628
95788W        W64006  12.260  25.504   1.300
95789W        W64007  32.894  42.463  12.207
95790W        W64008  25.638   7.646  12.430
95791W        W64009   5.877   5.167  12.537
95792W        W64010   5.959  22.752   2.615
95793W        W64011  16.198  21.124  11.596
95794W        W64012  32.677  11.329  10.860
95795W        W64013  38.816  10.262  10.273
95796W        W64014  32.845   2.560   2.497
95797W        W64015   7.252  28.263  12.951
95798W        W64016  37.413   2.830  12.486
95799W        W64017  26.056  37.422   3.688
95800W        W64018  18.920  22.899   0.468
95801W        W64019  16.333  42.002   1.975
95802W        W64020  32.018  26.936   4.598
95803W        W64021  39.678   2.076   3.311
95804W        W64022  25.648  31.107   0.532
95805W        W64023   6.360  39.498  10.828
95806W        W64024  21.586   7.991  13.876
95807W        W64025  39.665  12.388  13.334
95808W        W64026  16.403  14.982  11.869
95809W        W64027  40.054  10.111  11.613
95810W        W64028  42.740  31.799   2.361
95811W        W64029  22.687  18.588   2.806
95812W        W64030  23.743  35.750   2.661
95813W        W64031   8.630  25.744   2.232
95814W        W64032  36.389  32.847  12.459
95815W        W64033  19.521  16.078  11.555
95816W        W64034  20.839  22.215   3.704
95817W        W64035  17.078  11.850   5.084
95818W        W64036  33.516   1.313   0.313
95819W        W64037  14.388  22.151   3.321
95820W        W64038   1.675  36.510   3.801
95821W        W64039  23.474  21.315  11.102
95822W        W64040  19.138   9.305  13.446
95823W        W64041  30.188  20.174  12.473
95824W        W64042  42.347  42.470   2.261
95825W        W64043  43.374  39.811  14.219
95826W        W64044  40.417   6.271   2.972
95827W        W64045  40.468  36.394  14.505
95828W        W64046  37.246  15.814   0.962
95829W        W64047  20.065  41.122  11.999
95830W        W64048  31.376   1.712   0.003
95831W        W64049   5.804  30.232   0.225
95832W        W64050  44.413   0.702  10.649
95833W        W64051  39.433   0.930   1.697
95834W        W64052  18.842  16.860   3.285
95835W        W64053  22.985  36.086   4.305
95836W        W64054  30.563   4.024  14.817
95837W        W64055  19.242  38.299  14.940
95838W        W64056  40.526  17.677   3.734
95839W        W64057  19.719  31.815   4.441
95840W        W64058   8.653  28.115   1.699
95841W        W64059  20.681  26.451   2.643
95842W        W64060  44.878  21.256   4.049
95843W        W64061  21.987  33.835  11.907
95844W        W64062   4.332  32.130   2.170
95845W        W64063  37.370  21.929   4.572
95846W        W64064   8.210  39.140  10.388
95847W        W64065  42.345  25.023   2.225
95848W        W64066  24.970  24.028   1.883
95849W        W64067  32.808  20.596  11.079
95850W        W64068   0.518  44.889  13.273
95851W        W64069  40.147  23.638  12.695
95852W        W64070   0.478  11.318  13.525
95853W        W64071  39.220  30.883  13.857
95854W        W64072  44.769  33.524  14.390
95855W        W64073  31.426  12.670   1.976
95856W        W64074  29.034  28.174   0.914
95857W        W64075  42.054  34.073   0.203
95858W        W64076  38.842  18.428  13.977
95859W        W64077  19.031   5.691   3.632
95860W        W64078  36.088  38.460  13.112
95861W        W64079   2.034   3.080   0.395
95862W        W64080  43.118  30.988   2.154
95863W        W64081   7.111  18.197  14.504
95864W        W64082  18.149  33.118   1.168
95865W        W64083   1.741  25.618   4.650
95866W        W64084   8.032  41.959   1.992
95867W        W64085  29.336  12.140  11.613
95868W        W64086  15.037  36.847  13.516
95869W        W64087  37.684  36.082  14.118
95870W        W64088   9.628  37.419  13.035
95871W        W64089  29.541  11.948   1.346
95872W        W64090  43.537  26.021   2.717
95873W        W64091   7.842  22.964  13.061
95874W        W64092  42.209  24.460  11.963
95875W        W64093  42.857  10.669   0.539
95876W        W64094   1.183   9.654  14.819
95877W        W64095   1.877   4.361   4.358
95878W        W64096  14.620  11.629   3.752
95879W        W64097  19.824  12.577   2.513
95880W        W64098  11.570  16.671  10.577
95881W        W64099  25.490  30.028  11.590
95882W        W64100   2.844  12.374   2.201
95883W        W64101  22.173  34.149   2.691
95884W        W64102  25.022   0.468   4.329
95885W        W64103  23.525  31.971   4.362
95886W        W64104  43.299   2.697   2.665
95887W        W64105  30.582  19.720  12.287
95888W        W64106  44.297   3.810   3.633
95889W        W64107  23.583  15.158  11.617
95890W        W64108  23.726  33.015   3.628
95891W        W64109   5.731   7.637   3.740
95892W        W64110  44.431   6.664   0.268
95893W        W64111   2.686   1.386  12.044
95894W        W64112   6.717  39.054   0.836
95895W        W64113   5.319  24.030  14.593
95896W        W64114  42.348  16.207  12.641
95897W        W64115  38.781  31.415   2.309
95898W        W64116   5.836  22.257   2.719
95899W        W64117   4.241  13.629   2.910
95900W        W64118  12.711  34.673  11.507
95901W        W64119  14.846  34.598  11.656
95902W        W64120  41.286  26.204  11.896
95903W        W64121  19.238   9.102  13.910
95904W        W64122  17.802   0.673   4.543
95905W        W64123  36.356  16.861   0.863
95906W        W64124  21.742  13.609   1.890
95907W        W64125  15.342  18.454  12.961
95908W        W64126  17.098   0.071   1.598
95909W        W64127  30.962   1.022   2.895
95910W        W64128   6.338  39.816  11.234
95911W        W64129   8.360  18.143   9.752
95912W        W64130  31.529  25.615  13.531
95913W        W64131   8.891  13.384  12.541
95914W        W64132  42.964  19.070   1.507
95915W        W64133  30.883  35.620   2.297
95916W        W64134  30.165  14.665  12.028
95917W        W64135  17.341   5.349  10.632
95918W        W64136  24.226  29.383  10.964
95919W        W64137  15.330  15.573   0.496
95920W        W64138  41.284   4.469  13.065
95921W        W64139  29.325  29.087  14.063
95922W        W64140  14.787   9.330  13.062
95923W        W64141  13.184  27.485   4.617
95924W        W64142  19.203  34.854   0.717
95925W        W64143  35.941   7.792   4.290
95926W        W64144   9.561  36.928  11.133
95927W        W64145  17.674  18.330  13.064
95928W        W64146   4.764  27.801  11.445
95929W        W64147  11.188  17.248  14.886
95930W        W64148   3.738  24.026  11.675
95931W        W64149  19.485  22.959  12.400
95932W        W64150  26.511  23.571  14.225
95933W        W64151  35.527  36.996  10.371
95934W        W64152  37.892  36.439  14.449
95935W        W64153   3.414  20.983   2.866
95936W        W64154  44.961  42.983  14.946
95937W        W64155  36.452  32.552   1.279
95938W        W64156   0.033  39.139   1.247
95939W        W64157  34.829  33.690   4.829
95940W        W64158   1.463  18.660  11.293
95941W        W64159  34.519   5.602   1.398
95942W        W64160  18.697  10.669   2.588
95943W        W64161  18.286  20.071  12.441
95944W        W64162   7.453  11.554   4.077
95945W        W64163  33.058   9.925  14.269
95946W        W64164  17.288  15.044  13.394
95947W        W64165  19.314  35.379  12.490
95948W        W64166   6.943   0.806  12.012
95949W        W64167   8.292  18.167   4.468
95950W        W64168  27.053  44.643   2.401
95951W        W64169   3.298  43.727   2.996
95952W        W64170   7.843  27.750   4.919
95953W        W64171   6.325  24.525  14.011
95954W        W64172   9.244  30.320   0.776
95955W        W64173   1.780  32.354   1.099
95956W        W64174  20.189  30.053  14.849
95957W        W64175   6.200  24.561   3.596
95958W        W64176  41.265  29.080   0.798
95959W        W64177  35.312   2.010   1.458
95960W        W64178  40.909  28.724   1.636
95961W        W64179  15.600  11.413   2.710
95962W        W64180  28.291   0.321   3.918
95963W        W64181  41.806  36.044  11.218
95964W        W64182  30.133  39.582   3.702
95965W        W64183  23.014  36.467   3.221
95966W        W64184  27.753  32.201  14.997
95967W        W64185  13.370  25.145  13.609
95968W        W64186  27.510  13.366  11.283
95969W        W64187  35.549  36.944   1.017
95970W        W64188   7.053  30.500  13.836
95971W        W64189  41.137  16.878  11.524
95972W        W64190   5.781  39.653  10.173
95973W        W64191  12.424  38.912   3.691
95974W        W64192   7.937  21.010  13.882
95975W        W64193  41.899  41.546   4.667
95976W        W64194  44.925  44.052  12.297
95977W        W64195  41.380  29.517  13.071
95978W        W64196   0.522  16.721  10.980
95979W        W64197  39.938   4.240   0.976
95980W        W64198  37.997   5.751  12.598
95981W        W64199  40.099  39.547  13.305
95982W        W64200  16.242  21.732   0.498
95983W        W64201  28.778  12.092  11.989
95984W        W64202   6.315  43.240   2.287
95985W        W64203   8.151  11.853  12.505
95986W        W64204  41.946   8.087  13.884
95987W        W64205  23.447  25.643   3.586
95988W        W64206  24.504   8.927  14.525
95989W        W64207  42.596  25.914   4.392
95990W        W64208   2.887  35.546  13.900
95991W        W64209  39.285  25.160  12.371
95992W        W64210   2.858  42.459  13.971
95993W        W64211  38.124  15.147  11.083
95994W        W64212   4.505  20.848  10.376
95995W        W64213  22.628  37.436   2.363
95996W        W64214  34.870  11.530  12.450
95997W        W64215   5.602  20.119   3.106
95998W        W64216  12.563  21.158  11.218
95999W        W64217  40.414  21.506  10.760
96000W        W64218  20.236  11.227  14.556
96001W        W64219  11.690  24.178  10.757
96002W        W64220  10.578   6.946   4.295
96003W        W64221  31.058  10.561   2.387
96004W        W64222  27.700  16.259  11.204
96005W        W64223  31.889  13.613   0.432
96006W        W64224  26.650  41.460  14.112
96007W        W64225  21.643  21.146   1.932
96008W        W64226  14.912  12.644   0.311
96009W        W64227  11.237  18.272  12.545
96010W        W64228  17.175   7.097  12.431
96011W        W64229   4.800  34.477  12.575
96012W        W64230  33.945  37.554   4.867
96013W        W64231  27.940  29.431   1.909
96014W        W64232  44.265  22.067  12.486
96015W        W64233  17.851  23.963  13.363
96016W        W64234  20.249   1.452   2.406
96017W        W64235  13.756  24.812   3.158
96018W        W64236  22.974   4.474   1.715
96019W        W64237  18.284   4.595  13.425
96020W        W64238  23.728   5.221  13.871
96021W        W64239  17.311  30.111   4.312
96022W        W64240  35.358  27.589   2.619
96023W        W64241   3.804  15.561   0.228
96024W        W64242  38.810  40.857   0.066
96025W        W64243  36.825  42.437   2.290
96026W        W64244  19.826  43.296  13.720
96027W        W64245  28.700  18.182   4.594
96028W        W64246  38.640  23.384   1.302
96029W        W64247  14.294  13.269   0.942
96030W        W64248   7.973  20.090   1.980
96031W        W64249  41.488  32.939   2.351
96032W        W64250  40.534  17.507  12.877
96033W        W64251  32.987   1.561   2.761
96034W        W64252   5.482  17.307  13.983
96035W        W64253  42.499  14.767   0.023
96036W        W64254  36.556   3.021   0.505
96037W        W64255  15.702  17.634  13.043
96038W        W64256  15.143   4.210   0.792
96039W        W64257  32.476  35.356   2.303
96040W        W64258   7.162  12.750  14.525
96041W        W64259  35.050  40.515   4.600
96042W        W64260  25.024  11.736  12.089
96043W        W64261  32.247   7.958   1.090
96044W        W64262  28.583  31.963   3.695
96045W        W64263  38.793   5.277   2.726
96046W        W64264   0.364  42.140  14.095
96047W        W64265  24.941  26.865  12.010
96048W        W64266  16.452  18.500  10.404
96049W        W64267  38.449   3.902  13.791
96050W        W64268  38.266   7.867  13.117
96051W        W64269  14.403   6.515  13.798
96052W        W64270  10.619  25.546   2.358
96053W        W64271  23.557  30.998  12.953
96054W        W64272   4.487  15.417   1.940
96055W        W64273  28.021  36.492   1.284
96056W        W64274  22.202  43.325   2.742
96057W        W64275  43.569  14.611   3.214
96058W        W64276  26.621  21.394   2.694
96059W        W64277   7.414  35.866  12.107
96060W        W64278  26.877  23.108   2.794
96061W        W64279  16.318  30.215  13.305
96062W        W64280   4.866   6.208  14.437
96063W        W64281  42.998  32.043  14.363
96064W        W64282  37.528  39.987  12.103
96065W        W64283  17.436  24.673  14.438
96066W        W64284   4.353  23.787   4.328
96067W        W64285  23.033  22.494  12.630
96068W        W64286  44.343  26.227  11.277
96069W        W64287  32.833  34.047  12.123
96070W        W64288  24.563  34.332  14.330
96071W        W64289   1.523  36.480  14.924
96072W        W64290  13.199  17.710  13.614
96073W        W64291  42.341  30.886   0.332
96074W        W64292   3.847  35.376  10.547
96075W        W64293  14.961  32.113  13.064
96076W        W64294  25.530  30.511  11.917
96077W        W64295  28.427  14.929  11.017
96078W        W64296  32.631  13.221  12.855
96079W        W64297  30.620  12.198  10.484
96080W        W64298  12.929  37.570  11.380
96081W        W64299  44.014   9.696   2.183
96082W        W64300   3.573  39.685  11.603
96083W        W64301  42.943  40.532  12.134
96084W        W64302  42.830  13.816   4.059
96085W        W64303   7.299  31.511   2.163
96086W        W64304   9.610   0.851   0.615
96087W        W64305  11.710  11.822  13.929
96088W        W64306  43.992  28.866   4.948
96089W        W64307   5.512  24.920   0.022
96090W        W64308  44.302  42.801  11.715
96091W        W64309  42.213  11.717   3.113
96092W        W64310  11.509  16.704   2.160
96093W        W64311  34.653  40.868  11.935
96094W        W64312  16.612  12.590  12.489
96095W        W64313  33.028  13.504  10.628
96096W        W64314  34.820  32.207  14.374
96097W        W64315  15.615   6.095   4.511
96098W        W64316  12.103  15.679   2.820
96099W        W64317  44.910  22.645  12.929
96100W        W64318  43.904  43.002   1.149
96101W        W64319  19.398  17.619   2.940
96102W        W64320   7.800   0.824   3.263
96103W        W64321  29.434  13.536  14.248
96104W        W64322  37.949  23.948   1.374
96105W        W64323   7.448  25.387   5.035
96106W        W64324  12.584   7.694  11.213
96107W        W64325  38.455   6.497  12.569
96108W        W64326  41.822  21.520   3.947
96109W        W64327  36.580   0.198  12.920
96110W        W64328   1.400  21.853   1.391
96111W        W64329  16.008  40.912   4.044
96112W        W64330  23.838   9.047  13.253
96113W        W64331  11.286  14.170   3.160
96114W        W64332  28.482  32.390   2.570
96115W        W64333   5.249  38.779   0.821
96116W        W64334   4.953  27.107   1.788
96117W        W64335  43.903   1.819   0.575
96118W        W64336  41.110   2.599   3.605
96119W        W64337  14.284  35.059   0.895
96120W        W64338   9.735  34.453   1.676
96121W        W64339  22.328   9.199  14.939
96122W        W64340  12.375  34.775  12.448
96123W        W64341   6.752   0.722   2.307
96124W        W64342   5.773   6.833  14.212
96125W        W64343  32.589  27.723   1.964
96126W        W64344  40.927  36.925  10.712
96127W        W64345  34.630   6.842   0.477
96128W        W64346  30.918  15.372  10.600
96129W        W64347  21.552  30.021   3.303
96130W        W64348  36.475   7.914   1.307
96131W        W64349  32.170  28.809   5.386
96132W        W64350  27.513   2.447   1.428
96133W        W64351  25.654  20.498  14.525
96134W        W64352   4.153  32.922  13.377
96135W        W64353  13.841  36.144   4.296
96136W        W64354  16.209  27.304  13.406
96137W        W64355  23.473  32.166  13.984
96138W        W64356   9.363   9.628  14.169
96139W        W64357   0.861  39.447  11.696
96140W        W64358   5.612  44.946   2.271
96141W        W64359  40.027  28.366   4.768
96142W        W64360  23.600  43.958   0.913
96143W        W64361  41.274   1.255   2.148
96144W        W64362   7.032  30.465  11.972
96145W        W64363  41.070  32.152  10.690
96146W        W64364   4.444  33.505  10.247
96147W        W64365  42.083  42.420   4.560
96148W        W64366  28.889   6.784   1.250
96149W        W64367  43.933  42.702  13.439
96150W        W64368  28.648  14.518  12.875
96151W        W64369  40.249  27.455   4.296
96152W        W64370  38.452  42.492  14.756
96153W        W64371  33.173   7.716  14.726
96154W        W64372  25.772  25.976   4.759
96155W        W64373  31.900   3.277  11.650
96156W        W64374  37.059  31.408  13.561
96157W        W64375  33.232  35.695   4.089
96158W        W64376  40.073  33.991   1.229
96159W        W64377  39.343   7.695   0.724
96160W        W64378  14.724   4.914  13.487
96161W        W64379  31.482  23.948   0.899
96162W        W64380  43.986  41.815   0.674
96163W        W64381  10.390  13.341  11.096
96164W        W64382   2.965  19.572  14.920
96165W        W64383  36.308  22.075  12.450
96166W        W64384   9.403  36.994   3.141
96167W        W64385  44.138   7.331  11.693
96168W        W64386  28.580  29.402  12.448
96169W        W64387   2.193   2.252   4.705
96170W        W64388   4.769  38.789   4.633
96171W        W64389  44.175   2.351   2.350
96172W        W64390  29.008  31.504   1.418
96173W        W64391   9.059   0.525   1.668
96174W        W64392  31.907  30.594  14.930
96175W        W64393  26.567  16.172  13.562
96176W        W64394   4.658  44.923   2.303
96177W        W64395   9.311   6.397   2.369
96178W        W64396  12.071   6.850  14.781
96179W        W64397  10.306  20.607  13.945
96180W        W64398   7.647  18.116  14.522
96181W        W64399  23.768  41.179   3.848
96182W        W64400  35.006  38.075  13.455
96183W        W64401   0.362  37.406   2.316
96184W        W64402  42.547  13.352   4.724
96185W        W64403   9.640  23.100  11.891
96186W        W64404  19.311   9.782  14.477
96187W        W64405  12.219  28.234   1.694
96188W        W64406  44.824   0.858   0.949
96189W        W64407  20.715  13.827   4.048
96190W        W64408  19.380  43.360  13.429
96191W        W64409   4.282   2.602   3.274
96192W        W64410  43.370  38.030   2.230
96193W        W64411  38.898   2.855   2.407
96194W        W64412  35.468   3.503  14.278
96195W        W64413  26.518  13.398  12.336
96196W        W64414  23.316   3.710  11.902
96197W        W64415  10.887  12.169   2.486
96198W        W64416   3.131  30.783   2.509
96199W        W64417  14.167  29.420  12.101
96200W        W64418  31.024  22.864  10.944
96201W        W64419  18.202  33.700  11.585
96202W        W64420  39.540  18.101   0.318
96203W        W64421  25.535  17.308  13.550
96204W        W64422  42.318  13.511   3.446
96205W        W64423  31.367   7.284  11.187
96206W        W64424  42.172  27.792  11.041
96207W        W64425   0.882   9.741   1.985
96208W        W64426  30.897   9.918   4.568
96209W        W64427  20.111  28.339  10.659
96210W        W64428   5.287  15.693   0.262
96211W        W64429  13.387  43.646   4.006
96212W        W64430  35.229  27.723   1.746
96213W        W64431  18.350  15.762  10.681
96214W        W64432  28.704   9.582  12.633
96215W        W64433   4.918   2.505  13.883
96216W        W64434  24.649  27.442  13.981
96217W        W64435  19.829  23.193  12.034
96218W        W64436  16.501  22.729  14.829
96219W        W64437   9.771  14.273   0.787
96220W        W64438  12.699  42.487   1.004
96221W        W64439  11.135  13.869  14.631
96222W        W64440  21.205   8.665  13.426
96223W        W64441  31.366  29.497  10.781
96224W        W64442  32.494  31.965   3.308
96225W        W64443  44.854  10.963   1.137
96226W        W64444   8.976  40.491   1.551
96227W        W64445  32.074  23.466  13.416
96228W        W64446  16.037   5.655  11.569
96229W        W64447  39.057   6.748   0.279
96230W        W64448  19.298  42.640   1.850
96231W        W64449  39.789  29.989  12.570
96232W        W64450  22.011   6.764  13.834
96233W        W64451  10.790   9.876  11.394
96234W        W64452  14.273  17.724  14.769
96235W        W64453   5.770  39.476   2.977
96236W        W64454  15.426  29.548  10.722
96237W        W64455  31.390  17.150  14.933
96238W        W64456   0.792  10.522   1.551
96239W        W64457   2.434  42.883  11.652
96240W        W64458  20.520  34.488   4.046
96241W        W64459  33.969  23.486  12.502
96242W        W64460   7.900   0.852  13.935
96243W        W64461  15.111  20.255  14.843
96244W        W64462  28.084  16.628  13.173
96245W        W64463  23.614  16.067  10.700
96246W        W64464  17.595  27.672   1.297
96247W        W64465  17.518  26.311  13.481
96248W        W64466  11.714  37.525   3.705
96249W        W64467   7.627  34.855   3.151
96250W        W64468  16.834   1.198  11.546
96251W        W64469   4.246  12.958   1.136
96252W        W64470  33.497  40.368  11.963
96253W        W64471   3.293  27.556   4.551
96254W        W64472  33.940  11.861   1.340
96255W        W64473   6.178  44.261   0.882
96256W        W64474   5.448  37.797   0.071
96257W        W64475  10.383   5.174   0.077
96258W        W64476  40.820   9.416  13.565
96259W        W64477  11.219  40.473   4.564
96260W        W64478   1.020   0.440   0.920
96261W        W64479  28.425  28.534  10.436
96262W        W64480  37.991  26.059   2.444
96263W        W64481  37.644   9.419   3.655
96264W        W64482  23.207  35.118   0.781
96265W        W64483  22.940  25.552  10.674
96266W        W64484  21.463  22.517   1.829
96267W        W64485  44.593  20.377   0.728
96268W        W64486   1.676  14.736  12.196
96269W        W64487  13.700  11.119  12.371
96270W        W64488  17.946  34.606   0.326
96271W        W64489  26.601   1.976  14.741
96272W        W64490  27.715   1.087   1.767
96273W        W64491  20.967  10.751  14.921
96274W        W64492  30.138  16.176  11.549
96275W        W64493   6.230   6.253  12.255
96276W        W64494   9.316  18.223   0.573
96277W        W64495  40.445   4.168  11.651
96278W        W64496  41.802  30.050   2.127
96279W        W64497   3.467  42.816  11.192
96280W        W64498  24.526  29.031   0.085
96281W        W64499   8.532  13.204  14.701
96282W        W64500  33.607   6.099   1.274
96283W        W64501  17.641   9.897  12.861
96284W        W64502  37.417   6.139   0.848
96285W        W64503  34.496   0.864  10.663
96286W        W64504  38.896  17.179  12.151
96287W        W64505  18.358  24.446  11.576
96288W        W64506  34.497  30.616  11.469
96289W        W64507  18.843  38.605  14.386
96290W        W64508  11.678  40.306   0.884
96291W        W64509  19.972   1.842   2.678
96292W        W64510  14.699   0.716  11.185
96293W        W64511  32.774  15.927  11.108
96294W        W64512  15.738  10.164  12.938
96295W        W64513  33.003  27.153  11.146
96296W        W64514  44.491   2.843  12.994
96297W        W64515  25.950  30.891  11.463
96298W        W64516   8.801  31.491   2.676
96299W        W64517  41.868   3.332   2.309
96300W        W64518  32.681  38.044   3.373
96301W        W64519  15.323  41.573  10.778
96302W        W64520  29.514   1.659  14.848
96303W        W64521   4.730  17.746   3.151
96304W        W64522   3.529  12.603  11.141
96305W        W64523   3.212  33.071  14.612
96306W        W64524   3.002   7.702   0.796
96307W        W64525   1.671  19.026  10.408
96308W        W64526  27.104   7.360   0.915
96309W        W64527  44.120  22.304   5.125
96310W        W64528  23.091  32.925   2.193
96311W        W64529   1.006  44.384  10.698
96312W        W64530  22.014  11.717  14.397
96313W        W64531   4.967  28.870  14.941
96314W        W64532   7.877  18.794  13.327
96315W        W64533  37.450  16.568  13.440
96316W        W64534  29.190  35.925  14.489
96317W        W64535   8.307   1.052   3.232
96318W        W64536   5.464  33.119  14.894
96319W        W64537  20.180  34.056  14.081
96320W        W64538  40.340  37.206   0.076
96321W        W64539  42.297  43.541   2.133
96322W        W64540  13.918  43.596   1.845
96323W        W64541   3.297  37.745   1.022
96324W        W64542  24.696   6.598  13.031
96325W        W64543   8.789  35.379   2.883
96326W        W64544  19.198  20.880   0.535
96327W        W64545  41.189  29.056  12.894
96328W        W64546  25.199  36.634  11.272
96329W        W64547  34.709  33.127  14.348
96330W        W64548  42.549   6.865   0.525
96331W        W64549  26.461   2.872  14.815
96332W        W64550  39.365  11.217   0.332
96333W        W64551  17.868   6.336  12.942
96334W        W64552   7.253  37.796   4.077
96335W        W64553   0.734   7.759  10.889
96336W        W64554  43.381  15.829   3.281
96337W        W64555  40.215  26.676   2.162
96338W        W64556  35.222  11.697  10.166
96339W        W64557  24.183  42.293   0.744
96340W        W64558  12.498   8.161  13.435
96341W        W64559   9.461  19.605  14.348
96342W        W64560  18.495   2.396  11.873
96343W        W64561  40.492   9.331   1.032
96344W        W64562  39.604  15.611   3.503
96345W        W64563   4.654  34.766   4.949
96346W        W64564  11.115  28.152   0.261
96347W        W64565  30.378  14.380  11.566
96348W        W64566  35.836   0.427  11.557
96349W        W64567  30.652   4.916   1.736
96350W        W64568  23.898  22.607  13.305
96351W        W64569  29.971   0.339   2.234
96352W        W64570  16.781  25.878   2.552
96353W        W64571  41.569  22.800   1.665
96354W        W64572  11.069  24.577   0.365
96355W        W64573  24.857   1.590  11.166
96356W        W64574  43.782  18.236   0.489
96357W        W64575   7.806  18.630   0.393
96358W        W64576   0.805   7.739  11.864
96359W        W64577  30.555  26.628   4.548
96360W        W64578  25.028   6.453   0.642
96361W        W64579  44.497  17.787  13.492
96362W        W64580   6.302  11.379  13.632
96363W        W64581  25.205  20.570  14.234
96364W        W64582  17.878   5.331  10.685
96365W        W64583  26.019  11.605  13.066
96366W        W64584  18.522  28.996   0.176
96367W        W64585  13.532  36.449  11.998
96368W        W64586  29.838   7.451  11.076
96369W        W64587  30.320   1.334   2.382
96370W        W64588  16.003  17.212  14.770
96371W        W64589   2.034  13.585   3.351
96372W        W64590  31.297  34.610   3.847
96373W        W64591  24.897  30.589   3.226
96374W        W64592  13.697  23.963   3.761
96375W        W64593  33.344  23.190   1.416
96376W        W64594  26.566  24.025  14.538
96377W        W64595   8.214  33.552  14.354
96378W        W64596  30.572  44.746  14.566
96379W        W64597   7.875  24.177  10.398
96380W        W64598   4.314   1.961   3.269
96381W        W64599  10.249  15.194  14.719
96382W        W64600  17.165   8.336   0.270
96383W        W64601   2.910  11.752   1.450
96384W        W64602  44.377  24.014   3.622
96385W        W64603  29.675  11.973   2.625
96386W        W64604   2.235   3.810  14.865
96387W        W64605  31.037  44.126   1.282
96388W        W64606  31.769  15.432   1.677
96389W        W64607  20.550  31.699  10.303
96390W        W64608  12.111  31.741  13.579
96391W        W64609  36.369  36.460  13.957
96392W        W64610  26.919   6.702  10.640
96393W        W64611   8.968  27.732  11.286
96394W        W64612   0.978  39.948  10.814
96395W        W64613  24.621  37.895  10.743
96396W        W64614  19.393  38.624  14.497
96397W        W64615  29.976  22.191  12.528
96398W        W64616  23.716  31.890  10.369
96399W        W64617  42.408  26.276  11.527
96400W        W64618  17.943   4.392   2.184
96401W        W64619  16.698  35.659   3.001
96402W        W64620  39.129  20.532  14.930
96403W        W64621  32.865  15.407  13.528
96404W        W64622  34.758   9.736   4.556
96405W        W64623  39.808  28.989   2.816
96406W        W64624  42.942  33.914  13.900
96407W        W64625  30.880   5.856  11.101
96408W        W64626  41.842  31.825   4.264
96409W        W64627  26.059   9.633  14.132
96410W        W64628   5.176  44.996   3.604
96411W        W64629  44.895  14.203  11.595
96412W        W64630   7.767  21.252   4.523
96413W        W64631  23.467   5.654   2.841
96414W        W64632  26.162  25.765   5.007
96415W        W64633  34.665  37.415   0.200
96416W        W64634  33.647  30.638   1.395
96417W        W64635   5.892  19.975   0.916
96418W        W64636  36.812   5.148   1.388
96419W        W64637  22.689  29.995  13.805
96420W        W64638  33.528  13.673  10.638
96421W        W64639  35.942  43.493   0.023
96422W        W64640  32.029  37.935  10.963
96423W        W64641   4.834  42.714  13.873
96424W        W64642   4.748  44.673   0.370
96425W        W64643  25.976   5.243   0.537
96426W        W64644  16.026   0.262   2.884
96427W        W64645  11.906   3.170   2.173
96428W        W64646  21.539  26.938   1.413
96429W        W64647  43.380  44.818   4.490
96430W        W64648  30.939  20.022  11.162
96431W        W64649  42.875  16.530  14.270
96432W        W64650  28.974  28.506  12.530
96433W        W64651  35.918  33.227   3.520
96434W        W64652  34.986  19.285   2.822
96435W        W64653  11.606   1.436  10.875
96436W        W64654  20.582  27.130   0.646
96437W        W64655  12.911  15.538   4.686
96438W        W64656   6.360  16.222  12.533
96439W        W64657  44.278  37.607   0.831
96440W        W64658   0.890   2.519   0.016
96441W        W64659  11.998  38.476  13.869
96442W        W64660  31.065  31.467  12.415
96443W        W64661  10.438   5.802   5.033
96444W        W64662   9.358   3.168   2.863
96445W        W64663   5.240  39.326   2.834
96446W        W64664   3.344  43.219  13.057
96447W        W64665  20.988  38.723  12.381
96448W        W64666  23.875  40.120   4.264
96449W        W64667  15.268  40.823  14.805
96450W        W64668  36.029  27.436  13.873
96451W        W64669   1.677  20.442   4.909
96452W        W64670  25.943  32.519   4.749
96453W        W64671  36.083   2.745  10.934
96454W        W64672   5.432  25.191   3.671
96455W        W64673   0.263  43.324   3.271
96456W        W64674  40.381   9.136  13.550
96457W        W64675  16.192  12.020  10.626
96458W        W64676  11.946  21.460  10.945
96459W        W64677  21.419  38.489  12.694
96460W        W64678   9.821  41.911  10.538
96461W        W64679  22.417  34.438  12.935
96462W        W64680   2.970  36.573  13.064
96463W        W64681  33.095   0.843   4.729
96464W        W64682  10.618   4.393   0.889
96465W        W64683  20.658  19.739   2.904
96466W        W64684  17.250   3.026   2.811
96467W        W64685  25.996   2.139   4.419
96468W        W64686  28.685  13.544  10.299
96469W        W64687  42.783  11.642   1.966
96470W        W64688  12.813  31.704  10.607
96471W        W64689   9.980  39.963   0.260
96472W        W64690  42.823   7.633  14.128
96473W        W64691  34.909  38.118  11.657
96474W        W64692   3.002  15.782  14.971
96475W        W64693  30.006  32.474   0.425
96476W        W64694   5.962  13.003   1.399
96477W        W64695  17.669  40.821   4.686
96478W        W64696  24.577  16.674   3.225
96479W        W64697  26.105  34.596  13.249
96480W        W64698  36.857  20.534  13.441
96481W        W64699  34.811  35.109   2.159
96482W        W64700  29.990  10.852   4.172
96483W        W64701  44.557  38.464   5.043
96484W        W64702  14.716   1.833   0.012
96485W        W64703  31.004  15.414   3.840
96486W        W64704  16.061  26.183   0.741
96487W        W64705  10.757   3.187   4.533
96488W        W64706   3.670  40.326   4.637
96489W        W64707  14.666  16.163   4.735
96490W        W64708  43.962  30.025  13.349
96491W        W64709  27.438  18.751   3.628
96492W        W64710   9.790  41.439   3.204
96493W        W64711  11.743   2.256  10.582
96494W        W64712  40.724  15.755  14.730
96495W        W64713  38.062  13.578  14.480
96496W        W64714  28.288   9.583   3.708
96497W        W64715  34.607  17.298   1.405
96498W        W64716  39.351  40.311  10.191
96499W        W64717  39.177  34.148   2.427
96500W        W64718  15.751  39.950  13.051
96501W        W64719  36.951  29.661  10.642
96502W        W64720  19.630  29.656  10.636
96503W        W64721   2.301  30.044   2.387
96504W        W64722  14.898  24.970   3.693
96505W        W64723  31.376  11.680   1.728
96506W        W64724  22.775  18.021  11.882
96507W        W64725  36.863   7.689  11.046
96508W        W64726  19.984  42.900   0.232
96509W        W64727  16.772  15.088  13.390
96510W        W64728   4.351   5.269   3.648
96511W        W64729   1.824  40.193   1.343
96512W        W64730   7.685   5.765  11.274
96513W        W64731  19.769  20.779   4.396
96514W        W64732  16.594   2.652  13.464
96515W        W64733  14.729  24.542   2.270
96516W        W64734  14.117   7.108   3.842
96517W        W64735   3.361  18.181   2.628
96518W        W64736  17.821  19.622  12.842
96519W        W64737  44.876   5.958   1.076
96520W        W64738  14.281  24.096   2.711
96521W        W64739  44.797  42.882  13.021
96522W        W64740  41.538  23.990   1.331
96523W        W64741  37.255   5.898  12.145
96524W        W64742  14.060   2.843   3.204
96525W        W64743  12.414   2.412   3.758
96526W        W64744  30.047  40.479  11.213
96527W        W64745  37.370  12.901  12.429
96528W        W64746  34.547  37.019   0.522
96529W        W64747  27.191  22.695   2.740
96530W        W64748  10.397  39.404   1.965
96531W        W64749   4.156  26.559   1.734
96532W        W64750  31.563  22.792  14.397
96533W        W64751  10.283  32.344   3.591
96534W        W64752   9.196  33.580   0.849
96535W        W64753  13.661   6.104   0.779
96536W        W64754   6.284  41.423   1.687
96537W        W64755  42.042   7.312  11.963
96538W        W64756  36.297   0.835   3.662
96539W        W64757  33.375  43.860  14.363
96540W        W64758  43.262   3.368  14.476
96541W        W64759  30.686  38.511   4.089
96542W        W64760  38.043  41.026  10.574
96543W        W64761  17.523  19.171   0.957
96544W        W64762   3.734  39.315   3.839
96545W        W64763  37.529  12.609  11.961
96546W        W64764  25.124  15.116  14.424
96547W        W64765  18.169  22.648   0.226
96548W        W64766   6.224  28.931  14.369
96549W        W64767  16.489  30.703  13.223
96550W        W64768   8.892  22.551  13.064
96551W        W64769   5.419  31.561  13.945
96552W        W64770  13.724   9.209  13.977
96553W        W64771  31.531   2.299   3.251
96554W        W64772  20.600   2.037  14.942
96555W        W64773   6.609   7.337  13.855
96556W        W64774  14.400  32.367   4.429
96557W        W64775  18.078  18.583   2.987
96558W        W64776  40.755  20.911  11.649
96559W        W64777   6.308  28.621   4.680
96560W        W64778  21.744  41.776   4.376
96561W        W64779  22.711   2.490   3.264
96562W        W64780  10.282  42.044   1.233
96563W        W64781  30.566   7.346   3.931
96564W        W64782   9.965  44.839  10.945
96565W        W64783  25.244  16.517   0.640
96566W        W64784  17.923  11.434  12.135
96567W        W64785  41.964  18.859  11.086
96568W        W64786   8.857  15.693  11.326
96569W        W64787  24.116   5.299   4.642
96570W        W64788  26.187  34.508  14.244
96571W        W64789  18.690   7.998   2.725
96572W        W64790  36.077  29.530   3.144
96573W        W64791   1.775   3.697  12.565
96574W        W64792  21.741  21.794  13.785
96575W        W64793  27.123  19.527  12.822
96576W        W64794   8.166  35.017  11.658
96577W        W64795  44.850  22.544   0.682
96578W        W64796  10.342  40.569  13.448
96579W        W64797  16.623  36.382   3.110
96580W        W64798  35.095  37.024  11.643
96581W        W64799  21.081   2.742   2.781
96582W        W64800  16.416  39.056  13.624
96583W        W64801  27.781  38.277  13.479
96584W        W64802  33.992  31.668  12.066
96585W        W64803  13.871  14.662   3.679
96586W        W64804  22.999  32.467  10.153
96587W        W64805  17.398  30.254   4.805
96588W        W64806   1.662  44.146   1.000
96589W        W64807   8.330  39.528   2.649
96590W        W64808   7.792  11.469   3.516
96591W        W64809  16.707  14.372  11.162
96592W        W64810  29.288  34.020  10.569
96593W        W64811  16.732   6.915  12.679
96594W        W64812   0.844  25.157  12.502
96595W        W64813   9.866  10.368  13.176
96596W        W64814  32.874  33.521  12.044
96597W        W64815  42.579  37.035   0.899
96598W        W64816  38.758   3.939  10.396
96599W        W64817  22.315  11.567  12.437
96600W        W64818  44.914  10.458   1.253
96601W        W64819   2.468   3.145   1.313
96602W        W64820  20.808   9.428   4.181
96603W        W64821  26.720   0.997  13.066
96604W        W64822  23.560  28.596   4.772
96605W        W64823  12.112  25.864  13.885
96606W        W64824  20.189  24.187  10.699
96607W        W64825  36.048   8.915   2.171
96608W        W64826  28.175  37.954   2.346
96609W        W64827  16.310  43.305   1.167
96610W        W64828  21.726  35.889   2.189
96611W        W64829  26.557  24.703  11.881
96612W        W64830  14.596  41.060   1.862
96613W        W64831  38.956  40.067   2.678
96614W        W64832   1.162  24.016   4.672
96615W        W64833  43.941  11.793  13.461
96616W        W64834  11.914  30.378   2.169
96617W        W64835   6.137  30.565   1.680
96618W        W64836  25.727  29.447  14.832
96619W        W64837   3.033  18.569   1.083
96620W        W64838  26.104  23.165   2.512
96621W        W64839  37.914  11.844   0.722
96622W        W64840  21.835  31.095  13.411
96623W        W64841   8.468   0.246   2.304
96624W        W64842  22.524  11.756  12.010
96625W        W64843  24.680   6.825   0.946
96626W        W64844  34.229  37.487   2.624
96627W        W64845  10.345  12.918  13.448
96628W        W64846  44.439  31.179   4.090
96629W        W64847  11.412  32.471   1.924
96630W        W64848  38.476  32.081  14.994
96631W        W64849  20.276   8.785   4.901
96632W        W64850  27.918  14.079  10.674
96633W        W64851  10.900   4.346   0.455
96634W        W64852  18.614  38.067  10.670
96635W        W64853   7.198  42.785  13.950
96636W        W64854  39.431  27.766   4.875
96637W        W64855  42.983  31.019   1.135
96638W        W64856  31.629  21.006   3.674
96639W        W64857  38.179  35.543   4.142
96640W        W64858  23.228  12.362   1.233
96641W        W64859  21.553  22.180   1.273
96642W        W64860  20.573   4.302  14.474
96643W        W64861  18.770   6.095  12.900
96644W        W64862  27.267  17.257  13.895
96645W        W64863  29.586   3.766  11.492
96646W        W64864   7.431   0.057  11.142
96647W        W64865  24.486  20.158   2.101
96648W        W64866  18.656  31.154  12.084
96649W        W64867   0.492   8.882   4.275
96650W        W64868  36.445  34.067  11.946
96651W        W64869   3.258  30.749   0.705
96652W        W64870   3.233  40.936  12.430
96653W        W64871  32.418  42.023  14.153
96654W        W64872   9.286  34.536  14.931
96655W        W64873   4.893  29.020   3.300
96656W        W64874  30.331  15.972  13.883
96657W        W64875  39.609  15.732  10.005
96658W        W64876   5.590   1.149  11.189
96659W        W64877  31.246  44.869  10.603
96660W        W64878  11.019   3.447   4.181
96661W        W64879  25.244   2.848   1.758
96662W        W64880  13.776   4.681   4.012
96663W        W64881  43.415  28.768   3.361
96664W        W64882   5.196  17.435   1.887
96665W        W64883  36.583  21.977  13.965
96666W        W64884   1.645  37.396   1.503
96667W        W64885  23.793   8.190  10.988
96668W        W64886  30.073  22.249  13.434
96669W        W64887   8.751   9.249   0.493
96670W        W64888   7.391  18.612   4.790
96671W        W64889  24.983  23.881   1.344
96672W        W64890  25.148  15.976   3.221
96673W        W64891  23.976  40.690  14.399
96674W        W64892  19.467   1.479   2.820
96675W        W64893   7.605  13.412   1.867
96676W        W64894  41.216  31.597  13.538
96677W        W64895  26.930   1.700  10.397
96678W        W64896  16.642  26.097   4.188
96679W        W64897   4.835  36.420  12.567
96680W        W64898  30.734  31.625   3.727
96681W        W64899  20.086   8.928   0.969
96682W        W64900   9.457  42.501   4.460
96683W        W64901  36.527  37.424   4.209
96684W        W64902  20.712  32.210   3.268
96685W        W64903   8.261  41.405  13.281
96686W        W64904   3.192  27.872   3.065
96687W        W64905   2.911  24.343  13.953
96688W        W64906   6.973  29.969   3.114
96689W        W64907  37.388  32.165  10.305
96690W        W64908  24.155  44.176  11.579
96691W        W64909  29.602  11.373  11.221
96692W        W64910   5.901  38.286   0.481
96693W        W64911  12.580  19.073   4.001
96694W        W64912  14.314   7.812  13.540
96695W        W64913  43.346   5.106  14.134
96696W        W64914  11.609   4.937   4.739
96697W        W64915  23.607  37.103  13.591
96698W        W64916  20.231  24.752  10.496
96699W        W64917  35.713  44.628   0.501
96700W        W64918  12.614  26.120   3.285
96701W        W64919   9.073  25.578   5.073
96702W        W64920   0.415  33.960   4.689
96703W        W64921  39.810  20.718  12.573
96704W        W64922  25.043  42.793  14.132
96705W        W64923  43.480  20.051   3.194
96706W        W64924  26.490  23.961   0.051
96707W        W64925   0.899  13.633   1.956
96708W        W64926  18.745  23.096  13.984
96709W        W64927  23.843  28.565   2.325
96710W        W64928   9.756  37.104  11.573
96711W        W64929  43.629  27.496  14.359
96712W        W64930   6.893  19.480  12.822
96713W        W64931  14.408  13.082   3.740
96714W        W64932  43.296  10.879   2.970
96715W        W64933  35.230   9.291  11.081
96716W        W64934  30.033  23.567   2.577
96717W        W64935  13.383  31.081  10.741
96718W        W64936  34.828  38.858   5.163
96719W        W64937  34.407  18.254  13.535
96720W        W64938  10.726  28.211   1.454
96721W        W64939  33.053   1.261   3.187
96722W        W64940  12.727  21.583  13.622
96723W        W64941  15.097   2.184  14.231
96724W        W64942  28.639  16.073   1.644
96725W        W64943  30.233  34.994   2.254
96726W        W64944  27.406  26.573   1.323
96727W        W64945  37.504  18.064   0.104
96728W        W64946  39.576   7.728  11.498
96729W        W64947  12.442  33.974  12.895
96730W        W64948  34.335   1.835  14.452
96731W        W64949  38.476  23.741   0.789
96732W        W64950  31.492   2.329  10.757
96733W        W64951  41.897  20.631  10.909
96734W        W64952   5.544   9.350   1.035
96735W        W64953  17.333  12.040   0.996
96736W        W64954  44.389  36.451   4.690
96737W        W64955  24.799   4.664  13.055
96738W        W64956  10.291  25.498   2.795
96739W        W64957  10.937  37.371   4.165
96740W        W64958  20.141  15.033  11.034
96741W        W64959   2.420  14.331   1.852
96742W        W64960  19.845   6.133   2.758
96743W        W64961  35.404   3.697  14.848
96744W        W64962   2.420  21.676   0.342
96745W        W64963  38.843  41.749  13.467
96746W        W64964   1.911   2.161   1.046
96747W        W64965  12.280   7.148  13.001
96748W        W64966   0.454  24.506  10.653
96749W        W64967  22.596  41.961   1.748
96750W        W64968  37.334   1.226  14.900
96751W        W64969  34.149  22.551   3.130
96752W        W64970   9.766  24.771  13.405
96753W        W64971  41.724  44.453  12.383
96754W        W64972  21.461   6.737   1.408
96755W        W64973   2.912  40.591  14.132
96756W        W64974  16.158  34.639  11.990
96757W        W64975   5.346  34.574   3.313
96758W        W64976  21.191  24.775  14.528
96759W        W64977   2.758  33.135  14.883
96760W        W64978  17.754  35.096  11.637
96761W        W64979  17.433  11.181  11.511
96762W        W64980  23.512  24.781   1.199
96763W        W64981   7.338  15.893  10.748
96764W        W64982   5.698  39.400  13.132
96765W        W64983  27.934  15.591  11.654
96766W        W64984  23.243  39.336   0.353
96767W        W64985  27.136  27.795   0.334
96768W        W64986  43.364  18.753  12.649
96769W        W64987  24.619   4.494  12.023
96770W        W64988   3.180  27.247  14.469
96771W        W64989  28.690  40.235  13.847
96772W        W64990  41.487   2.393  10.102
96773W        W64991  26.365  33.464   2.797
96774W        W64992  27.114  15.993  12.825
96775W        W64993  39.027  27.132  14.314
96776W        W64994  38.065  16.121   1.703
96777W        W64995  36.845  30.465  11.163
96778W        W64996  23.307  22.833  11.593
96779W        W64997   6.109  15.772   1.480
96780W        W64998   4.659   1.687  14.247
96781W        W64999  36.577  18.332   2.499
96782W        W65000  35.935  23.302  11.462
96783W        W65001   7.885   9.297  12.886
96784W        W65002  23.723  35.676  10.706
96785W        W65003  34.500  20.978   0.922
96786W        W65004  38.393  13.265   0.885
96787W        W65005  16.646  16.278   3.212
96788W        W65006   9.402  40.390  13.108
96789W        W65007   3.259  30.963   3.608
96790W        W65008   6.451  25.879   1.376
96791W        W65009  42.234   0.559   3.199
96792W        W65010  23.978  30.880   4.163
96793W        W65011  44.558   9.571  10.274
96794W        W65012  41.529  12.856   4.812
96795W        W65013  36.407  15.053   4.495
96796W        W65014  40.025   6.759  13.019
96797W        W65015   6.068  29.895   2.876
96798W        W65016  44.101  30.604   0.992
96799W        W65017  44.644  12.182  13.082
96800W        W65018  24.037   9.734   2.334
96801W        W65019  28.878   1.923  12.461
96802W        W65020  42.386  26.347  10.151
96803W        W65021   8.285  11.312   1.357
96804W        W65022  22.455  41.728  13.374
96805W        W65023  33.154  41.306   0.995
96806W        W65024  37.554   9.147   4.632
96807W        W65025  26.702  40.742   3.379
96808W        W65026  18.605  41.751   1.412
96809W        W65027  24.643  30.494   1.221
96810W        W65028  18.950  23.906  11.947
96811W        W65029   5.831  35.323  13.104
96812W        W65030   5.803  40.284  13.349
96813W        W65031   0.769  28.725   2.139
96814W        W65032  11.169  40.921   1.850
96815W        W65033  36.822  13.203  12.024
96816W        W65034   3.475  11.173  13.472
96817W        W65035  22.673  12.813   0.487
96818W        W65036  24.162  37.864  11.666
96819W        W65037  41.986  39.624   0.933
96820W        W65038  10.633   5.626   4.552
96821W        W65039  16.690   9.896   4.251
96822W        W65040  44.986   2.583  11.633
96823W        W65041  11.569  14.500  12.806
96824W        W65042  24.508  38.512  11.981
96825W        W65043  27.297  29.402  11.698
96826W        W65044   8.066  27.105  11.073
96827W        W65045  39.926  39.849   4.831
96828W        W65046  11.105  20.662   2.717
96829W        W65047  30.646  34.386  10.604
96830W        W65048   9.365  44.741   4.190
96831W        W65049  12.612  32.897  12.490
96832W        W65050   4.489  33.392  14.587
96833W        W65051  25.718   2.756   1.937
96834W        W65052  11.245  20.540  14.927
96835W        W65053  11.823   7.388  13.041
96836W        W65054  36.766  44.212   3.262
96837W        W65055   2.483   1.046  12.894
96838W        W65056  30.142  22.557  12.947
96839W        W65057   3.234  15.073   4.495
96840W        W65058  43.525   4.668  13.926
96841W        W65059  39.078   1.201   2.792
96842W        W65060   3.464   5.239   0.895
96843W        W65061  35.811  19.680  11.612
96844W        W65062  34.948  14.733   4.535
96845W        W65063  22.906  15.724   4.688
96846W        W65064   3.289  24.639  11.092
96847W        W65065  29.571  38.866   3.772
96848W        W65066  35.247  22.595  13.970
96849W        W65067  31.300  39.783   3.517
96850W        W65068  37.314  29.435   5.102
96851W        W65069  21.631  41.952  11.969
96852W        W65070   1.990  13.844  11.787
96853W        W65071  20.681   5.107   0.371
96854W        W65072  36.781   6.253   5.029
96855W        W65073  33.980  24.259   4.397
96856W        W65074   8.605  12.192  14.978
96857W        W65075  15.085   3.707   2.918
96858W        W65076  15.734  43.366   2.843
96859W        W65077  24.271   1.125   2.728
96860W        W65078   3.799  18.607   2.723
96861W        W65079  44.109   9.656   0.773
96862W        W65080   8.889  14.279  14.740
96863W        W65081  39.063   3.744   1.407
96864W        W65082  10.823   0.383   3.502
96865W        W65083   8.550  33.376  13.956
96866W        W65084  27.524  10.006  13.988
96867W        W65085  11.658   4.382  13.645
96868W        W65086  18.178  18.067  12.402
96869W        W65087  40.758  31.237  13.449
96870W        W65088  32.395  33.272  14.959
96871W        W65089  33.163  41.492  13.366
96872W        W65090   1.904  38.578   3.927
96873W        W65091  44.741  26.233   4.907
96874W        W65092   4.906  32.321  12.902
96875W        W65093  25.497   7.854  10.757
96876W        W65094  26.672  16.435  11.213
96877W        W65095  44.732   0.830   2.353
96878W        W65096  42.378  40.409   1.169
96879W        W65097  17.304  18.503   1.948
96880W        W65098  22.769  11.607  10.244
96881W        W65099  17.660   5.615  13.544
96882W        W65100  19.202  21.715  11.564
96883W        W65101   5.145   7.912  13.061
96884W        W65102   0.732  35.487   2.781
96885W        W65103  15.321  29.667   2.957
96886W        W65104  30.050   5.211  13.417
96887W        W65105   7.225  22.024  13.728
96888W        W65106  24.691  36.555  11.214
96889W        W65107   6.695  10.155  11.594
96890W        W65108   4.965  23.952   2.279
96891W        W65109  23.482   4.403   1.708
96892W        W65110  21.140  27.690  14.186
96893W        W65111   7.451  42.220   3.595
96894W        W65112  20.606  22.579  10.535
96895W        W65113   3.320  27.945   0.248
96896W        W65114  24.640  27.277   1.703
96897W        W65115  40.570  15.026   1.536
96898W        W65116  41.490  40.376  10.638
96899W        W65117  12.395  29.889   3.455
96900W        W65118  15.909  18.775   5.079
96901W        W65119   0.067  27.553  14.441
96902W        W65120  24.722   9.717   3.685
96903W        W65121  27.717  36.710  14.200
96904W        W65122   3.396  27.005   1.935
96905W        W65123  38.823  12.560  11.522
96906W        W65124   0.895  43.869  13.474
96907W        W65125  31.821   9.130   5.071
96908W        W65126  19.097   4.838  10.366
96909W        W65127  13.293  12.702   3.336
96910W        W65128  42.842  39.522   3.181
96911W        W65129  22.195  35.555   1.680
96912W        W65130  37.592  34.524   4.593
96913W        W65131  17.623  40.316  12.057
96914W        W65132   3.876   5.507   3.623
96915W        W65133   1.547  35.004   1.164
96916W        W65134  21.180  15.065   2.360
96917W        W65135  15.964  34.524  14.516
96918W        W65136   1.748  18.255  13.368
96919W        W65137  34.703  29.055  13.409
96920W        W65138   1.194  43.152   2.325
96921W        W65139  23.241  26.187  14.538
96922W        W65140  21.097   7.279  13.840
96923W        W65141  40.272   3.213   4.067
96924W        W65142   0.523  41.503   2.241
96925W        W65143  25.488   8.462  14.890
96926W        W65144  16.416  38.365   2.321
96927W        W65145  24.659  34.447   1.956
96928W        W65146   6.447   7.189   3.711
96929W        W65147  35.184   5.025   0.186
96930W        W65148  16.664  25.187   3.825
96931W        W65149  29.473   5.555   1.740
96932W        W65150  30.982  28.042  13.076
96933W        W65151  14.034  31.188   4.147
96934W        W65152  33.816  33.315  11.073
96935W        W65153  41.913   2.287   4.676
96936W        W65154  36.961   3.217   0.216
96937W        W65155  15.508  17.042  11.880
96938W        W65156  24.802  13.675  14.420
96939W        W65157   6.797  44.903  12.524
96940W        W65158  30.528  26.232  14.704
96941W        W65159  23.796   3.028   0.954
96942W        W65160  26.600  43.624   1.913
96943W        W65161  14.764  13.513  11.056
96944W        W65162  20.221   9.616   3.834
96945W        W65163   6.448  26.554   4.079
96946W        W65164   2.387   6.305  13.067
96947W        W65165  25.257  22.253   0.732
96948W        W65166   2.888  36.360   3.184
96949W        W65167  24.176  16.684  10.605
96950W        W65168  10.169  12.238   1.736
96951W        W65169  38.172  15.819  12.522
96952W        W65170  36.600  15.292  14.874
96953W        W65171  42.876   1.231   1.378
96954W        W65172  34.341  29.130   2.299
96955W        W65173  33.999  29.896  13.376
96956W        W65174  13.895  26.050  13.894
96957W        W65175  10.292   4.148  11.627
96958W        W65176  35.633  20.105  12.530
96959W        W65177  28.635  11.283  13.738
96960W        W65178   6.669  27.677   0.114
96961W        W65179   3.697   8.084   2.256
96962W        W65180  33.180   9.472  14.012
96963W        W65181  34.007  35.361   4.575
96964W        W65182   2.713  27.185   2.548
96965W        W65183  35.774  17.884   3.720
96966W        W65184  21.713  34.404  12.329
96967W        W65185  20.829   7.676   1.755
96968W        W65186  37.804  18.761   3.756
96969W        W65187  40.903  21.124  13.764
96970W        W65188  35.047  39.523  13.522
96971W        W65189  26.036   2.322  12.986
96972W        W65190  29.104  36.372  14.218
96973W        W65191   9.124  14.480  14.242
96974W        W65192   1.076  31.468  12.146
96975W        W65193  39.439  40.518   4.806
96976W        W65194  36.070  11.104   1.920
96977W        W65195   6.908   8.676   2.844
96978W        W65196  13.530   8.915   2.935
96979W        W65197   5.254  30.862  10.676
96980W        W65198  32.722   7.542  13.441
96981W        W65199   1.846  17.026   2.372
96982W        W65200  44.777  36.954   4.149
96983W        W65201   0.660  19.058   5.148
96984W        W65202  42.023  31.111   1.462
96985W        W65203  26.042  29.614   1.493
96986W        W65204  11.281  14.566   0.981
96987W        W65205  18.166  18.919  11.419
96988W        W65206  38.906   6.912   1.005
96989W        W65207  12.278   4.420   4.278
96990W        W65208   3.655  12.601  13.934
96991W        W65209  21.756  13.307  13.457
96992W        W65210  21.374  36.376   2.351
96993W        W65211   9.571  41.798  12.428
96994W        W65212  29.603  32.051   0.937
96995W        W65213  32.640  37.866  13.006
96996W        W65214  23.026  28.132   0.721
96997W        W65215  19.956   4.521   0.225
96998W        W65216  20.252  19.665  11.980
96999W        W65217   8.794   3.578   4.594
97000W        W65218  42.035  29.632  13.908
97001W        W65219  27.666  43.823   0.655
97002W        W65220  31.197  29.117  11.941
97003W        W65221  41.402  13.308  14.921
97004W        W65222  22.685  29.583   1.205
97005W        W65223  14.775  26.069  10.550
97006W        W65224   3.533   9.177   0.534
97007W        W65225   5.475  29.486   1.978
97008W        W65226  19.429  25.961  12.962
97009W        W65227  35.081  23.277   3.666
97010W        W65228   9.135  35.991   3.894
97011W        W65229  42.504  15.576  13.382
97012W        W65230  12.815   2.480   0.034
97013W        W65231  20.167  25.790  11.949
97014W        W65232  30.923  19.072  13.851
97015W        W65233   3.194   7.304   3.780
97016W        W65234  27.404  18.253   3.802
97017W        W65235  41.312  14.816   3.705
97018W        W65236   2.747  31.551  13.528
97019W        W65237  11.342  15.759  11.160
97020W        W65238  35.068  10.858   4.072
97021W        W65239   3.749  18.116   0.669
97022W        W65240  38.272  16.598  11.304
97023W        W65241  20.302  14.336  11.449
97024W        W65242  37.843  31.140  13.372
97025W        W65243  32.552   9.830  14.271
97026W        W65244   5.715  20.557  12.145
97027W        W65245  44.687  40.338   4.212
97028W        W65246  17.739  34.874   3.353
97029W        W65247  43.038  37.796  12.968
97030W        W65248  21.555   4.617   0.448
97031W        W65249  16.322  38.057  13.513
97032W        W65250  23.167  31.471   2.360
97033W        W65251  20.212  26.196   2.694
97034W        W65252  38.528  24.962  12.090
97035W        W65253   5.883   6.472   0.742
97036W        W65254  22.267  32.503   0.908
97037W        W65255  16.202   2.136  12.556
97038W        W65256  41.738  21.707  14.838
97039W        W65257   8.471  44.795   4.423
97040W        W65258  13.863  13.105   4.306
97041W        W65259   1.766  19.733  14.407
97042W        W65260  34.026  33.522  10.638
97043W        W65261  30.616  16.830  13.929
97044W        W65262  30.008   6.233   4.432
97045W        W65263  44.736   6.272  14.438
97046W        W65264   4.395   8.373   2.221
97047W        W65265   7.551  33.542   4.990
97048W        W65266  28.233  31.123   4.230
97049W        W65267   7.148  36.826   4.485
97050W        W65268   5.656  18.212  14.943
97051W        W65269   0.150  41.585  14.973
97052W        W65270  35.505  16.779  11.781
97053W        W65271  31.503  14.014  12.492
97054W        W65272  13.549  16.930   0.960
97055W        W65273  34.185  26.573  11.280
97056W        W65274  28.158  31.903  13.986
97057W        W65275  34.497  10.770   4.145
97058W        W65276  40.934   6.292   2.840
97059W        W65277  23.255   8.233  14.536
97060W        W65278  26.149  27.928   3.752
97061W        W65279  21.011  41.082  12.062
97062W        W65280  12.758  19.744   4.688
97063W        W65281  44.042   1.289   3.308
97064W        W65282  27.460   5.609  14.501
97065W        W65283  13.850  11.682   4.235
97066W        W65284  41.791  18.017  11.370
97067W        W65285  28.273  29.072  12.798
97068W        W65286  43.435  30.994  14.460
97069W        W65287   6.605  32.663  13.015
97070W        W65288  28.748  37.228   2.277
97071W        W65289  29.040  21.838   3.310
97072W        W65290   6.593  30.475   3.753
97073W        W65291   5.787  34.351   3.560
97074W        W65292   0.803  41.068   2.596
97075W        W65293  27.629  16.091  12.050
97076W        W65294   2.159  22.851  11.402
97077W        W65295  29.124   6.466   3.779
97078W        W65296  42.465  21.605  13.086
97079W        W65297   3.653  44.745   2.378
97080W        W65298  28.633   3.787  13.764
97081W        W65299  24.727  10.164  12.127
97082W        W65300  27.023   2.158  10.624
97083W        W65301  27.112  17.526   2.520
97084W        W65302  24.460  39.269   1.415
97085W        W65303  38.586   3.540   1.325
97086W        W65304  31.154  14.065  14.930
97087W        W65305  39.062  28.152   2.808
97088W        W65306  39.007   0.773   0.433
97089W        W65307  35.769  22.157   0.984
97090W        W65308  20.736  19.047   0.215
97091W        W65309  44.120  23.556  13.483
97092W        W65310   0.053  30.769   2.246
97093W        W65311  23.710  15.615  13.289
97094W        W65312  40.057  33.968   2.134
97095W        W65313  29.260  21.249   0.325
97096W        W65314   0.934  34.458   3.600
97097W        W65315   8.651   7.937   4.007
97098W        W65316  28.402  36.569  10.399
97099W        W65317  42.296  15.321  13.947
97100W        W65318  40.121   1.782   3.380
97101W        W65319  24.013  26.992  10.312
97102W        W65320  31.832  30.048   0.390
97103W        W65321  31.593   7.281  11.748
97104W        W65322  39.923  32.325   4.076
97105W        W65323  37.460  39.354  10.753
97106W        W65324  20.615  19.361   4.183
97107W        W65325  32.100  17.491  11.144
97108W        W65326  34.858  33.102  11.994
97109W        W65327  16.019   9.941   2.989
97110W        W65328  11.306  30.137  10.620
97111W        W65329   1.283  31.512  10.715
97112W        W65330  41.600  44.702   0.440
97113W        W65331   5.142  14.697  14.769
97114W        W65332   0.957  13.706   4.836
97115W        W65333   5.391   3.041  10.971
97116W        W65334  23.062  12.917   3.636
97117W        W65335  37.444   9.734   4.531
97118W        W65336  13.103  23.003  11.792
97119W        W65337  39.508   5.927   2.273
97120W        W65338  26.617  21.498  11.972
97121W        W65339  37.968  38.796  10.635
97122W        W65340   7.203   3.240   3.742
97123W        W65341  32.063  36.606  13.109
97124W        W65342  39.763  14.803  11.147
97125W        W65343  14.728  16.732  13.317
97126W        W65344   0.989  19.221   4.730
97127W        W65345  13.708  35.352   2.720
97128W        W65346  13.338  16.153  14.666
97129W        W65347   1.019  11.593  10.284
97130W        W65348  32.610  30.103   3.933
97131W        W65349  17.767  24.639  14.843
97132W        W65350  42.690   1.202  10.604
97133W        W65351  17.082  33.165   4.779
97134W        W65352  37.820   4.257  13.024
97135W        W65353  34.407  15.840  14.462
97136W        W65354   4.682   5.070   4.908
97137W        W65355  27.036  40.050  14.240
97138W        W65356   5.790  27.037  10.827
97139W        W65357  17.432  37.455   1.287
97140W        W65358  16.695  30.976   2.417
97141W        W65359   6.389  33.720   1.504
97142W        W65360  27.495  23.671  13.093
97143W        W65361  25.075  33.882  14.585
97144W        W65362  34.128   7.770   1.818
97145W        W65363  13.193  41.987  13.174
97146W        W65364  32.115  33.054   1.403
97147W        W65365  19.658  34.912   3.373
97148W        W65366  13.696  30.608  13.988
97149W        W65367  18.726   6.239  12.028
97150W        W65368  41.823  38.951  10.478
97151W        W65369  25.098  22.602  11.985
97152W        W65370  11.756  42.450   2.657
97153W        W65371  12.422  31.428  13.134
97154W        W65372  11.188   1.706   3.365
97155W        W65373  42.620  23.082  13.115
97156W        W65374  37.032  21.630  11.963
97157W        W65375  42.309  17.759   4.128
97158W        W65376  17.418  36.773  12.011
97159W        W65377  27.631  40.135  12.351
97160W        W65378  18.464  27.934  11.135
97161W        W65379  42.318  37.525   0.008
97162W        W65380  37.358  37.407   4.538
97163W        W65381  10.854  37.569  12.923
97164W        W65382  41.962  29.914   3.618
97165W        W65383  34.653  29.700  12.842
97166W        W65384  17.868  21.333   0.429
97167W        W65385  44.715  34.545  11.554
97168W        W65386   5.816  10.422   1.776
97169W        W65387   7.343   0.211   3.123
97170W        W65388  43.866  32.670   3.791
97171W        W65389  15.148  42.993   1.788
97172W        W65390  39.900   5.308  13.609
97173W        W65391   3.940   8.554  14.822
97174W        W65392   3.303  12.569   2.909
97175W        W65393  36.004  21.818   3.362
97176W        W65394  42.354  32.980   4.073
97177W        W65395  16.410  41.491  13.994
97178W        W65396   5.743  16.511  14.454
97179W        W65397  38.422  15.615   4.210
97180W        W65398  22.702  10.893   4.587
97181W        W65399  34.671  41.221   2.308
97182W        W65400   1.836  43.723   1.274
97183W        W65401   8.306   7.947  14.271
97184W        W65402  17.571  29.585  12.375
97185W        W65403  20.759  36.549  14.434
97186W        W65404  34.115  14.802  14.726
97187W        W65405  30.931  35.465   3.233
97188W        W65406   7.660   7.635   2.613
97189W        W65407  35.971  31.111  10.605
97190W        W65408  19.227  36.884   0.006
97191W        W65409  26.100  25.651  10.252
97192W        W65410  10.952  23.030  11.431
97193W        W65411  40.357  33.122   0.873
97194W        W65412  25.281   4.400   3.189
97195W        W65413  24.175  27.701  12.529
97196W        W65414  23.091  38.914   2.164
97197W        W65415  38.076  22.105   4.344
97198W        W65416  26.674  44.399   2.722
97199W        W65417  10.641  26.141   4.395
97200W        W65418  15.512   2.738  12.558
97201W        W65419  39.422  16.517  10.375
97202W        W65420  38.390  15.666  14.297
97203W        W65421  34.118   8.322   0.876
97204W        W65422  28.724   9.554   2.127
97205W        W65423  22.638  31.780   4.913
97206W        W65424   4.006  15.922  12.285
97207W        W65425  31.999   5.922   5.391
97208W        W65426  19.111   9.504  11.681
97209W        W65427  20.301  21.959   0.860
97210W        W65428   0.932  35.947   1.656
97211W        W65429   3.903  29.357  11.474
97212W        W65430  31.401  41.417   1.336
97213W        W65431   9.858  31.008   2.649
97214W        W65432   0.271  36.772   4.253
97215W        W65433  14.718   4.773  12.993
97216W        W65434   9.129  29.420   2.467
97217W        W65435  25.744  15.769   1.278
97218W        W65436   0.146  30.272  11.966
97219W        W65437  30.537  24.978  13.391
97220W        W65438  38.332  29.641  14.498
97221W        W65439  38.065  25.465  14.004
97222W        W65440  13.774   7.913   4.306
97223W        W65441   2.513  21.614  13.530
97224W        W65442   1.035  16.764   0.186
97225W        W65443  22.696  28.619   1.522
97226W        W65444  16.728   2.844  10.628
97227W        W65445  40.875  43.603   2.132
97228W        W65446  32.364  44.380   3.243
97229W        W65447  42.769  11.925   0.894
97230W        W65448  41.852  23.822  13.049
97231W        W65449  40.485  32.919   3.659
97232W        W65450   6.481  23.095  13.306
97233W        W65451  12.324  37.557  14.619
97234W        W65452  26.947   9.220  13.235
97235W        W65453  41.287  10.203   3.674
97236W        W65454  41.921  33.994  11.361
97237W        W65455  13.319  19.144  12.604
97238W        W65456  21.328  44.001   1.491
97239W        W65457  40.085  18.362   4.959
97240W        W65458   7.152   4.113  11.588
97241W        W65459  20.763  36.876  12.111
97242W        W65460  37.383  23.184  11.436
97243W        W65461  10.800  17.643   2.869
97244W        W65462  18.509  14.877   3.040
97245W        W65463  32.922  10.998   3.063
97246W        W65464  23.191  42.993   1.482
97247W        W65465  27.274  32.847  14.310
97248W        W65466  10.218   4.927   3.532
97249W        W65467  25.982  39.987   1.544
97250W        W65468  22.857  16.624  11.567
97251W        W65469  10.413  40.598  12.097
97252W        W65470  32.427  16.753  11.639
97253W        W65471  14.522  39.501  13.449
97254W        W65472  33.856  41.422  14.445
97255W        W65473   4.346   0.289  11.019
97256W        W65474  40.327  33.961   3.107
97257W        W65475  11.346  34.812   2.781
97258W        W65476  21.681  12.788   4.520
97259W        W65477   1.236  17.675   3.482
97260W        W65478  37.497  43.143  12.810
97261W        W65479  36.222  35.593  11.128
97262W        W65480  44.423  41.369   1.876
97263W        W65481  43.416  28.739   4.316
97264W        W65482   8.408  30.970  13.530
97265W        W65483  21.203  16.255   1.812
97266W        W65484   9.356  36.803  11.617
97267W        W65485   1.716  30.469  14.260
97268W        W65486   2.235  19.565   0.553
97269W        W65487  17.160  44.552   2.864
97270W        W65488  38.141  39.511  11.533
97271W        W65489  13.719  14.863  10.958
97272W        W65490   5.079  39.976  10.461
97273W        W65491   3.243  29.145   3.597
97274W        W65492  28.899  17.332   4.129
97275W        W65493   1.868   5.376  11.128
97276W        W65494  40.615   8.606   4.933
97277W        W65495  31.187   4.770  12.013
97278W        W65496  26.740  34.249  10.757
97279W        W65497  24.984  28.431  10.725
97280W        W65498   4.227  43.091   4.498
97281W        W65499  24.094   2.368  10.678
97282W        W65500   7.329  12.329  14.305
97283W        W65501  42.473  17.562  13.617
97284W        W65502  33.311  39.016  11.540
97285W        W65503  16.448  20.539  13.844
97286W        W65504  14.214   4.210  14.585
97287W        W65505   5.922   1.429   0.272
97288W        W65506  27.170   5.340   2.290
97289W        W65507  27.825  26.492   0.422
97290W        W65508  19.339  42.950   3.419
97291W        W65509  23.023  16.858   0.196
97292W        W65510  14.452   5.732  12.975
97293W        W65511  34.899  14.630   0.961
97294W        W65512  10.702  42.418   1.367
97295W        W65513   8.327  23.682  11.113
97296W        W65514  24.662  25.225  10.442
97297W        W65515  42.115  18.363   2.195
97298W        W65516  24.982  30.097   4.191
97299W        W65517  17.270  41.606  10.578
97300W        W65518  18.417   2.207  10.879
97301W        W65519  29.794  28.005   1.300
97302W        W65520  29.137  11.322  14.291
97303W        W65521  35.446  12.912  13.386
97304W        W65522  43.100  35.213  10.527
97305W        W65523  32.842  36.593  13.411
97306W        W65524   1.685  21.127   1.119
97307W        W65525  11.828   9.346  14.385
97308W        W65526  41.069  14.630  12.950
97309W        W65527  15.360  29.184  12.156
97310W        W65528   2.759  29.970  14.604
97311W        W65529  17.101  34.595  13.973
97312W        W65530  35.585  15.809  12.063
97313W        W65531  42.669  25.301   0.021
97314W        W65532  16.662  41.141   0.074
97315W        W65533  43.474  19.660  11.708
97316W        W65534  41.692   0.456  14.198
97317W        W65535   4.886  23.025   0.467
97318W        W65536  24.215  35.573   4.075
97319W        W65537  39.110   3.627  11.930
97320W        W65538  13.861  38.937  12.375
97321W        W65539  31.924  20.155   1.720
97322W        W65540  20.016  22.788  11.180
97323W        W65541  39.834   3.619   5.295
97324W        W65542  14.589  14.162   2.518
97325W        W65543  34.482  34.374   1.091
97326W        W65544  20.006  40.059   3.825
97327W        W65545  36.205  42.902   2.191
97328W        W65546  39.513  41.931   1.383
97329W        W65547  34.396  28.050   1.800
97330W        W65548   4.561  18.132  11.802
97331W        W65549   9.622  18.057  11.948
97332W        W65550  30.368  31.653   2.239
97333W        W65551  12.191  39.024   1.696
97334W        W65552  21.597  25.233  12.011
97335W        W65553  21.674   9.353  11.103
97336W        W65554   1.312  33.153   2.262
97337W        W65555  32.165  35.115   1.448
97338W        W65556  21.732  11.289  13.418
97339W        W65557  23.081  41.020  11.896
97340W        W65558  12.418  23.895  11.188
97341W        W65559  44.891  19.695   0.022
97342W        W65560   9.545  16.813  14.537
97343W        W65561   7.118   9.474   1.756
97344W        W65562  17.425  16.598  11.963
97345W        W65563  13.634  24.360   2.324
97346W        W65564  43.915  36.316   4.817
97347W        W65565  12.241  32.594   2.267
97348W        W65566   9.553  41.444  12.044
97349W        W65567  11.108  22.179  12.901
97350W        W65568   7.227  26.753  13.300
97351W        W65569  23.129   4.319   0.175
97352W        W65570   2.215   3.319  13.793
97353W        W65571  43.684  44.555   9.831
97354W        W65572  10.130  19.340   1.101
97355W        W65573   6.164  17.103   1.782
97356W        W65574  35.806  39.943  12.572
97357W        W65575  18.007  25.039   2.286
97358W        W65576  11.288  19.586   4.611
97359W        W65577  28.676   1.884   0.440
97360W        W65578  37.941   3.537   0.022
97361W        W65579  40.742  42.305  13.476
97362W        W65580  19.182  15.289  14.548
97363W        W65581  13.155  42.974  13.298
97364W        W65582  24.061  42.941  13.420
97365W        W65583  42.250  23.107   1.283
97366W        W65584  32.911  20.760   0.885
97367W        W65585   4.892  28.471  14.561
97368W        W65586  19.056   1.196   3.925
97369W        W65587  43.373  30.179  14.058
97370W        W65588  39.269  31.495  10.779
97371W        W65589   6.935  14.247  12.368
97372W        W65590  21.539   8.869  14.769
97373W        W65591  31.319   1.870   2.393
97374W        W65592   4.008  13.221   1.949
97375W        W65593  12.161  43.213   0.307
97376W        W65594  27.658  27.026   4.544
97377W        W65595  41.915   2.778   4.534
97378W        W65596  29.004  19.974  13.371
97379W        W65597  26.530  38.348   0.326
97380W        W65598  32.947  10.568   1.480
97381W        W65599  29.526   9.113  14.489
97382W        W65600   4.049   0.787  10.895
97383W        W65601  28.484   6.622   4.961
97384W        W65602   0.369   4.098  10.774
97385W        W65603  35.161   2.297   2.522
97386W        W65604  37.486   1.895   3.679
97387W        W65605  26.144  13.917   1.898
97388W        W65606  13.372  15.728  12.059
97389W        W65607  11.668  17.090  14.765
97390W        W65608  24.712  36.481   2.810
97391W        W65609  25.649   9.911   3.225
97392W        W65610  17.166  41.350   3.549
97393W        W65611  31.991  16.676   3.200
97394W        W65612  32.360  16.749   4.174
97395W        W65613  36.306  42.393   2.276
97396W        W65614  43.324  32.598   4.133
97397W        W65615  19.826   5.608   1.886
97398W        W65616   3.838   5.823   0.180
97399W        W65617   9.173  37.832  12.532
97400W        W65618  34.897  32.143  13.538
97401W        W65619   2.921  41.686  10.850
97402W        W65620   5.308  33.234   4.546
97403W        W65621   6.588  36.897   2.707
97404W        W65622   7.844  13.643   4.604
97405W        W65623  43.486  37.807   1.364
97406W        W65624  33.997   7.978   4.049
97407W        W65625  17.830  25.471  12.446
97408W        W65626   2.789  38.770  12.509
97409W        W65627   4.016  13.637   0.273
97410W        W65628  11.047  19.729   2.671
97411W        W65629  17.024  34.075   1.129
97412W        W65630  37.037  42.961   3.800
97413W        W65631  31.992  36.157   0.390
97414W        W65632   8.854  44.744   4.105
97415W        W65633  13.162  26.786  10.088
97416W        W65634  34.345   6.092  14.942
97417W        W65635  41.428  37.978   4.548
97418W        W65636   7.945  24.697  12.533
97419W        W65637   7.294   4.812   4.896
97420W        W65638  32.115  43.016   9.935
97421W        W65639  33.550  42.100   3.672
97422W        W65640  23.518  18.611   3.283
97423W        W65641  35.964  37.773  12.520
97424W        W65642  21.014  41.782  14.945
97425W        W65643  21.174  20.127   1.944
97426W        W65644  10.356  28.228  13.770
97427W        W65645  23.273  37.422   0.160
97428W        W65646  20.762  16.742  14.398
97429W        W65647  39.551  43.124  11.513
97430W        W65648  19.301  32.133   1.450
97431W        W65649   3.663  14.584  13.138
97432W        W65650  10.292   1.558  11.167
97433W        W65651   1.912  23.029   0.339
97434W        W65652  27.522  43.344   2.937
97435W        W65653  27.422  23.537   2.194
97436W        W65654  26.316  31.420  14.269
97437W        W65655  19.574  43.340   3.679
97438W        W65656  21.410   9.102   4.133
97439W        W65657  38.890   5.633  11.153
97440W        W65658  44.408  30.439   2.885
97441W        W65659  36.528  10.706  14.400
97442W        W65660  42.005  13.640  11.650
97443W        W65661  30.477   1.800  14.687
97444W        W65662  20.685  40.308  13.827
97445W        W65663  44.723   6.284  11.952
97446W        W65664  23.470  36.168  13.406
97447W        W65665  17.286  35.862  12.141
97448W        W65666   4.151   7.774  13.946
97449W        W65667  35.908  37.607   5.042
97450W        W65668  35.116   8.666   0.899
97451W        W65669  32.803  24.706  13.261
97452W        W65670  19.294  39.579  14.358
97453W        W65671  15.665   3.869   4.180
97454W        W65672   7.384  11.404  11.582
97455W        W65673   5.688  31.025   2.709
97456W        W65674  25.629  43.730  13.259
97457W        W65675  41.865  11.892  14.445
97458W        W65676  36.107  40.329   0.237
97459W        W65677  38.443  16.727   2.247
97460W        W65678   8.196   3.346  11.587
97461W        W65679  24.019  31.070  14.052
97462W        W65680   3.555  38.336  14.223
97463W        W65681  16.003  27.170   2.635
97464W        W65682  16.957  20.468  13.867
97465W        W65683  14.206  11.077   0.215
97466W        W65684  37.783  39.994   4.582
97467W        W65685   5.124  21.205  10.976
97468W        W65686  27.276  11.710   3.131
97469W        W65687  39.846  21.335   4.665
97470W        W65688  17.754  23.911  11.532
97471W        W65689  21.973  36.163   4.011
97472W        W65690  34.393  44.267   3.270
97473W        W65691   2.165  32.167   0.793
97474W        W65692  25.749   8.502  12.029
97475W        W65693  16.615  20.665   1.298
97476W        W65694  29.696  26.047  14.466
97477W        W65695   1.293  27.445  13.831
97478W        W65696  39.103   3.196  14.768
97479W        W65697   8.675  20.714   3.741
97480W        W65698  44.851   9.605   2.651
97481W        W65699  35.357   1.514   9.697
97482W        W65700   3.458  15.221  12.033
97483W        W65701  11.498   2.444   4.181
97484W        W65702  23.696  29.547   4.192
97485W        W65703   0.778  27.379   3.864
97486W        W65704  41.152  42.350   3.237
97487W        W65705  42.244   0.316  13.331
97488W        W65706  40.729   8.676   2.796
97489W        W65707  38.042  35.769   0.842
97490W        W65708  21.036  13.178  13.048
97491W        W65709   5.003   3.410  11.310
97492W        W65710  44.147   5.490   0.730
97493W        W65711   2.313   6.723   1.359
97494W        W65712  15.246  35.075  12.927
97495W        W65713  21.937  13.658   3.122
97496W        W65714  22.165  30.384   4.706
97497W        W65715   7.726   1.736   0.360
97498W        W65716  29.746  30.893   3.361
97499W        W65717  33.934  34.378  14.308
97500W        W65718  42.124  17.226  13.950
97501W        W65719   8.601  29.089  12.460
97502W        W65720  41.345  40.895   2.684
97503W        W65721  23.706  16.804   3.815
97504W        W65722  36.461  15.778   1.683
97505W        W65723  29.491   0.857   4.588
97506W        W65724  10.902   5.343   3.155
97507W        W65725   3.359   9.269  12.910
97508W        W65726  16.573  29.938   1.902
97509W        W65727   0.951  23.939  11.212
97510W        W65728  10.874  28.127  11.880
97511W        W65729  25.752   8.575   5.264
97512W        W65730  24.194  30.708   0.346
97513W        W65731  28.126  32.206   4.926
97514W        W65732  23.076  42.046  11.298
97515W        W65733   7.626  14.312   1.816
97516W        W65734  18.205   1.940  11.504
97517W        W65735   8.450  41.950  11.739
97518W        W65736  44.034  23.725   4.592
97519W        W65737  22.794  34.661   4.285
97520W        W65738   6.767   9.903  11.122
97521W        W65739   5.945   4.898   1.766
97522W        W65740  17.779   4.971  12.675
97523W        W65741   6.409  18.256   2.197
97524W        W65742   5.642   0.705  13.109
97525W        W65743  33.426  26.708   4.037
97526W        W65744  15.469  29.414  11.215
97527W        W65745  18.883  41.305   1.433
97528W        W65746  21.635  37.989   0.957
97529W        W65747  33.385  41.520   1.434
97530W        W65748  38.828  19.446   2.870
97531W        W65749  24.185  34.679   4.615
97532W        W65750  12.119  17.480   4.580
97533W        W65751   4.060   7.179  11.092
97534W        W65752  10.516  13.873  11.059
97535W        W65753  31.350  31.025  12.548
97536W        W65754  13.783  19.625  11.492
97537W        W65755  22.562  38.861   0.451
97538W        W65756  44.832   3.670   2.356
97539W        W65757  22.925  38.623  12.372
97540W        W65758  13.176  33.410  10.518
97541W        W65759  17.056  12.888  12.519
97542W        W65760  41.519  19.603   1.335
97543W        W65761   6.571  40.463  13.906
97544W        W65762  34.575  14.109   1.332
97545W        W65763  12.894  14.130   4.964
97546W        W65764  11.308  31.345   4.909
97547W        W65765  38.629  36.930  14.323
97548W        W65766   5.332   7.004  12.974
97549W        W65767  12.847  11.137  11.509
97550W        W65768  27.897  24.118   3.694
97551W        W65769  20.496   5.386  14.972
97552W        W65770  10.481   8.989   1.390
97553W        W65771  20.130  24.608  10.990
97554W        W65772   9.158   2.173  14.911
97555W        W65773  38.017  20.603   0.284
97556W        W65774  28.070  12.507   4.556
97557W        W65775  19.199  24.278  14.386
97558W        W65776  18.047  25.182   1.780
97559W        W65777  43.417  26.669  12.059
97560W        W65778  35.275   2.099   4.614
97561W        W65779  23.946   3.862   3.241
97562W        W65780  13.692  14.169  13.994
97563W        W65781  11.853  42.530  14.413
97564W        W65782  22.295  31.028  14.722
97565W        W65783   1.296  31.898   1.679
97566W        W65784  44.284   5.348   2.068
97567W        W65785   0.825   9.108   1.192
97568W        W65786  11.040   7.651   2.836
97569W        W65787  27.241  15.276   3.123
97570W        W65788  12.350  38.488  10.613
97571W        W65789   7.818  18.502  11.319
97572W        W65790  34.581  31.715  12.390
97573W        W65791   9.224  18.343   3.734
97574W        W65792  44.361  25.935   4.711
97575W        W65793  22.189  10.384   1.287
97576W        W65794  21.658  40.585   0.314
97577W        W65795  22.609  28.218   4.899
97578W        W65796  16.686  40.833  14.313
97579W        W65797  37.067  10.837   2.450
97580W        W65798  32.196   4.612  13.101
97581W        W65799  23.946  24.442  13.875
97582W        W65800  43.055  29.749   2.255
97583W        W65801  21.241  24.213  10.701
97584W        W65802   6.712  34.445   4.605
97585W        W65803  26.540  32.400  11.624
97586W        W65804  43.329  12.684   3.207
97587W        W65805  20.206  42.602  11.119
97588W        W65806  18.607  16.758   4.686
97589W        W65807  44.754   8.069  11.154
97590W        W65808   6.336   0.418   2.238
97591W        W65809  14.246  41.046   0.495
97592W        W65810  17.269  33.914  14.910
97593W        W65811   4.853  22.771  10.228
97594W        W65812  20.977  36.855  12.593
97595W        W65813  26.610  20.056  14.052
97596W        W65814  26.016  16.667   2.576
97597W        W65815  29.347   4.867  13.504
97598W        W65816  19.588  13.749  14.849
97599W        W65817  20.462  20.357   3.727
97600W        W65818  24.558   4.673  12.550
97601W        W65819  21.642  44.254   1.866
97602W        W65820  24.523  24.930   1.886
97603W        W65821  17.270  36.106  13.908
97604W        W65822  39.556  10.212   0.539
97605W        W65823   8.447  16.651   0.309
97606W        W65824  24.135   6.859   4.541
97607W        W65825  42.126   8.696   1.425
97608W        W65826   8.933  11.685  10.265
97609W        W65827   6.122  34.495  12.969
97610W        W65828   5.340  32.405  14.883
97611W        W65829  29.965   5.094   2.801
97612W        W65830  40.288  37.134  11.325
97613W        W65831  28.149  23.066  12.236
97614W        W65832  16.978   2.216   3.286
97615W        W65833  42.911   4.452   2.735
97616W        W65834  37.299  39.995   4.395
97617W        W65835  34.429  44.021  11.479
97618W        W65836  35.274  34.360   2.190
97619W        W65837  15.745  41.721   3.691
97620W        W65838  21.960  44.438  11.245
97621W        W65839  22.743  15.841   2.287
97622W        W65840  39.259  41.313  10.492
97623W        W65841  41.092  20.690  13.981
97624W        W65842  42.398  31.849  10.710
97625W        W65843  28.711  19.051  14.941
97626W        W65844  14.707  36.142   1.962
97627W        W65845  18.963  17.368   3.230
97628W        W65846   7.258   2.291  11.648
97629W        W65847  18.062  20.294   2.848
97630W        W65848  41.873   2.056  12.012
97631W        W65849  43.979  43.078   0.234
97632W        W65850  35.012   7.048   0.788
97633W        W65851  16.754   9.319   1.369
97634W        W65852  18.983  24.047   2.257
97635W        W65853   2.090  40.031  11.916
97636W        W65854   7.731  28.496  13.492
97637W        W65855   3.192  43.260   5.311
97638W        W65856  12.600  17.260  11.568
97639W        W65857  42.935  25.176  14.070
97640W        W65858  15.160  23.499   1.916
97641W        W65859   5.744  16.036   3.631
97642W        W65860  15.840  21.039   1.006
97643W        W65861  25.211  41.478  14.858
97644W        W65862   0.390  38.007   4.643
97645W        W65863  26.162  37.115  12.552
97646W        W65864  14.406   5.230   0.409
97647W        W65865  16.369   2.912   2.895
97648W        W65866  15.594   2.762  14.367
97649W        W65867   3.481   4.728   2.652
97650W        W65868  38.113   0.192  10.809
97651W        W65869  20.222  33.063   5.115
97652W        W65870  25.133  20.019   0.388
97653W        W65871   0.223  27.692  10.605
97654W        W65872  32.178  10.263   2.825
97655W        W65873  21.530  13.047  13.082
97656W        W65874  27.895  38.305  11.936
97657W        W65875  19.494  24.791  14.001
97658W        W65876  28.112   6.463  10.276
97659W        W65877  34.713  39.940   3.161
97660W        W65878   1.582  17.347  11.204
97661W        W65879  19.494  43.727   1.335
97662W        W65880  24.238   5.216  13.872
97663W        W65881  34.385  41.454   3.674
97664W        W65882  17.035  21.510  12.902
97665W        W65883  12.347  15.202  14.431
97666W        W65884  16.658   2.667   3.690
97667W        W65885   3.981  32.577  11.215
97668W        W65886  15.732  20.988  14.835
97669W        W65887  18.489  39.109   9.992
97670W        W65888  24.802  26.405   2.868
97671W        W65889   9.271  19.572   1.663
97672W        W65890   4.228  36.470  11.438
97673W        W65891  10.766  33.840   4.177
97674W        W65892  33.986  36.879  11.242
97675W        W65893  19.008  19.175  13.626
97676W        W65894   5.343  35.636   3.806
97677W        W65895  36.933  38.348  14.956
97678W        W65896  23.485  29.696  11.605
97679W        W65897   7.718  34.761  13.431
97680W        W65898  35.432  33.101  14.907
97681W        W65899  17.246  42.415   4.770
97682W        W65900  16.884   5.416   1.138
97683W        W65901  38.958   1.825  14.784
97684W        W65902  40.964  28.617   4.294
97685W        W65903  29.465  32.068   4.187
97686W        W65904  16.218   5.371   2.431
97687W        W65905  20.426  15.359   5.053
97688W        W65906   8.490  42.211   4.588
97689W        W65907   4.771  12.139  12.381
97690W        W65908  40.853  11.450   3.442
97691W        W65909  36.481   6.327  11.602
97692W        W65910  17.731  28.931  10.708
97693W        W65911  28.064  22.172  12.586
97694W        W65912   0.049  27.656   1.332
97695W        W65913   8.654  43.441   4.037
97696W        W65914  33.548  40.580  11.491
97697W        W65915  24.898  11.703  11.520
97698W        W65916   7.266  33.617   1.410
97699W        W65917   8.368  38.982   0.459
97700W        W65918   2.208  27.495   4.262
97701W        W65919  43.241  38.021  13.400
97702W        W65920   4.993  32.556   4.243
97703W        W65921  26.618  17.573  12.115
97704W        W65922  38.719  43.102   4.152
97705W        W65923  36.896  44.340   4.983
97706W        W65924  33.881   1.959   3.725
97707W        W65925  22.004   9.513  11.446
97708W        W65926   1.304  12.137  14.864
97709W        W65927  33.507   6.839   4.268
97710W        W65928  26.532  42.986   2.889
97711W        W65929  10.329  10.616  11.457
97712W        W65930  16.296   6.203   2.908
97713W        W65931  23.914  16.119   0.348
97714W        W65932  28.164  17.047   2.244
97715W        W65933  26.159  12.350   0.858
97716W        W65934   5.245  38.086  13.207
97717W        W65935  35.053   5.526   3.637
97718W        W65936  40.911  17.377   2.402
97719W        W65937  42.937   0.873   2.656
97720W        W65938  23.811  21.057  12.401
97721W        W65939   3.316  40.874  13.421
97722W        W65940  19.224   3.001  11.372
97723W        W65941  43.033  37.953   4.585
97724W        W65942   9.405   6.043   0.457
97725W        W65943  12.333  34.925  14.538
97726W        W65944  20.837  21.591  13.498
97727W        W65945  17.002  25.004  13.358
97728W        W65946   9.744   3.268  10.741
97729W        W65947  16.572  23.997   0.460
97730W        W65948   1.556  29.624   2.792
97731W        W65949  22.191  38.199  11.178
97732W        W65950   5.566  41.350   0.293
97733W        W65951   3.264  15.715  12.000
97734W        W65952  15.507  14.554   2.720
97735W        W65953  38.936   9.166   1.817
97736W        W65954  29.997  18.598   0.832
97737W        W65955   7.532  35.965   0.611
97738W        W65956   4.468  22.061  12.258
97739W        W65957  16.622   2.134   5.441
97740W        W65958  39.111  39.759   1.295
97741W        W65959  21.561  36.542   2.904
97742W        W65960  39.960  11.774   0.161
97743W        W65961  23.947  32.364   5.158
97744W        W65962  39.548  36.853  14.767
97745W        W65963   3.888  14.869  11.316
97746W        W65964  37.380  36.400  14.397
97747W        W65965  26.608  35.755  10.798
97748W        W65966   4.465  22.653   1.778
97749W        W65967  13.598  23.598  12.916
97750W        W65968  43.505  20.754   1.330
97751W        W65969  15.159  26.456   0.754
97752W        W65970  11.859  37.026   3.852
97753W        W65971  40.288  42.795  10.469
97754W        W65972  29.265  35.041  13.976
97755W        W65973  13.322  40.288  12.997
97756W        W65974  38.363  15.882   3.375
97757W        W65975  44.480   9.353  13.932
97758W        W65976  32.275   1.163  11.547
97759W        W65977  37.465  10.643  11.607
97760W        W65978  16.864  43.020  13.432
97761W        W65979   6.429  31.693   1.835
97762W        W65980   5.219  42.786   3.162
97763W        W65981  37.077  31.864  13.300
97764W        W65982  40.148  34.769   0.083
97765W        W65983   2.767  12.187  12.132
97766W        W65984  17.254   8.369   4.402
97767W        W65985  40.719   3.413   0.844
97768W        W65986  37.344  12.432  13.445
97769W        W65987  22.433  36.689  14.874
97770W        W65988  39.946  30.823  11.465
97771W        W65989  44.636  28.549  11.611
97772W        W65990  11.911  13.422  13.616
97773W        W65991  34.351  42.178   2.309
97774W        W65992  39.845  44.662  11.994
97775W        W65993  40.284  34.903  14.606
97776W        W65994   8.157  24.063   4.324
97777W        W65995  15.708  22.522  11.694
97778W        W65996  28.501  28.147   3.391
97779W        W65997  20.216   4.862  12.498
97780W        W65998   3.107  30.878  11.633
97781W        W65999  24.338  39.382  11.175
97782W        W66000  24.721  44.492  12.054
97783W        W66001  20.232  39.347  12.797
97784W        W66002  24.209   4.835   4.381
97785W        W66003  39.984   9.385   3.295
97786W        W66004  38.280  18.761  11.038
97787W        W66005   6.631   1.101  13.384
97788W        W66006   5.142   3.943  10.776
97789W        W66007  36.069  12.317   1.356
97790W        W66008   9.645  12.351   1.770
97791W        W66009  17.786   4.455  12.527
97792W        W66010  10.762  14.263   4.249
97793W        W66011   4.249  29.364  11.975
97794W        W66012  21.710  10.804  11.694
97795W        W66013  30.530  15.788  10.660
97796W        W66014   8.947   8.294   3.141
97797W        W66015  11.886  26.527  10.928
97798W        W66016  30.953   2.933   3.664
97799W        W66017  41.313   7.144   0.964
97800W        W66018  12.625  25.120   0.861
97801W        W66019  27.974   6.285  14.799
97802W        W66020  44.979  22.239   2.293
97803W        W66021  26.419  35.967   0.801
97804W        W66022  12.631  10.115   0.340
97805W        W66023  10.182  32.226  12.083
97806W        W66024  31.978  42.924   5.069
97807W        W66025  15.063  40.981   0.891
97808W        W66026  10.161  29.609   2.184
97809W        W66027  41.311  24.949   4.576
97810W        W66028  33.019  26.952   1.636
97811W        W66029  30.455  20.910   3.163
97812W        W66030  27.615   9.781   4.109
97813W        W66031  23.211  43.244  13.954
97814W        W66032  10.291  44.061   4.656
97815W        W66033  21.103   5.463  10.542
97816W        W66034  39.125  42.881   1.318
97817W        W66035   8.346   2.665   0.898
97818W        W66036   0.373  39.319  10.922
97819W        W66037  32.850  25.733   2.998
97820W        W66038   9.695  14.594   2.870
97821W        W66039  20.542   7.493   3.263
97822W        W66040  24.813  35.980   0.247
97823W        W66041   5.866  27.519  14.457
97824W        W66042  13.441  30.574  13.046
97825W        W66043  34.937  34.971  12.123
97826W        W66044  29.083  29.467   3.329
97827W        W66045   9.275   3.682   1.633
97828W        W66046  37.628  26.735   3.692
97829W        W66047  26.121  27.698   3.031
97830W        W66048  37.472  43.321  10.722
97831W        W66049   3.356  36.319  14.280
97832W        W66050   9.953  38.501  12.003
97833W        W66051  15.196  25.545   4.378
97834W        W66052  31.893  13.441   4.443
97835W        W66053  14.861   0.719   1.276
97836W        W66054  34.882  26.685  12.337
97837W        W66055   4.459  21.688   3.636
97838W        W66056  38.836  14.256   1.895
97839W        W66057  25.988  43.099  13.428
97840W        W66058  28.089  43.905   1.448
97841W        W66059  11.067  22.604   0.014
97842W        W66060  27.920   8.374   0.927
97843W        W66061  24.027  14.811  10.683
97844W        W66062  38.008  41.494   3.764
97845W        W66063  14.657  41.841   2.193
97846W        W66064   8.874   4.220   2.239
97847W        W66065  38.096  19.597   3.262
97848W        W66066  28.622  10.314   4.099
97849W        W66067  43.768  37.128   2.909
97850W        W66068  40.975  18.893   0.933
97851W        W66069   0.949  25.976   1.287
97852W        W66070  15.383   6.766  10.460
97853W        W66071  11.549  16.970  10.135
97854W        W66072   4.926  10.133   1.368
97855W        W66073   1.263  23.658  13.807
97856W        W66074  41.007  15.310   2.393
97857W        W66075  43.008  26.752  11.692
97858W        W66076  38.843  39.970   3.179
97859W        W66077  42.544  15.116   2.316
97860W        W66078  23.974   1.985   0.139
97861W        W66079  27.565  26.377  11.170
97862W        W66080  39.772  34.432   0.248
97863W        W66081  28.322   8.798   2.721
97864W        W66082  35.146  30.949   3.664
97865W        W66083  18.753  11.922  14.235
97866W        W66084   3.335   2.444  14.388
97867W        W66085  30.139  40.526  14.414
97868W        W66086   9.217  42.957  10.137
97869W        W66087  43.733  20.737  12.359
97870W        W66088   6.683  29.166  11.680
97871W        W66089  31.090  31.123  12.984
97872W        W66090  16.586  30.481  14.785
97873W        W66091  44.054   7.367   3.911
97874W        W66092  26.782   4.124   2.243
97875W        W66093  17.202   0.495  13.952
97876W        W66094  39.315   1.426  13.492
97877W        W66095   7.736  29.029   3.686
97878W        W66096   3.546   5.254   3.321
97879W        W66097   6.857  33.041   4.606
97880W        W66098  27.589  29.626  12.459
97881W        W66099  21.671  26.888   0.013
97882W        W66100  25.769  11.374  11.174
97883W        W66101  16.031   8.936  12.098
97884W        W66102  30.625  33.054  11.608
97885W        W66103   8.827  22.010   0.969
97886W        W66104  31.629  16.728  14.773
97887W        W66105  17.255  42.645  12.256
97888W        W66106  34.118   8.189  11.525
97889W        W66107  37.928   5.246   3.179
97890W        W66108  13.592  12.812   0.901
97891W        W66109   5.131   0.715   2.425
97892W        W66110   8.416  30.458  14.029
97893W        W66111  28.325  31.537   0.828
97894W        W66112  41.256  26.669  13.040
97895W        W66113  21.653   7.426   3.956
97896W        W66114  43.755  36.239   1.076
97897W        W66115  25.032  17.797  13.919
97898W        W66116  22.461  38.477   4.835
97899W        W66117  43.458  26.939  14.010
97900W        W66118   7.059  34.084   1.075
97901W        W66119  17.589  19.155   1.802
97902W        W66120  36.109  35.342   0.387
97903W        W66121  44.233  44.251  14.964
97904W        W66122  41.262   4.662  13.551
97905W        W66123   6.330  37.419  10.407
97906W        W66124  22.664  40.798   2.605
97907W        W66125  12.129  30.457   0.041
97908W        W66126  19.601  43.683   3.216
97909W        W66127   8.239  21.399   4.168
97910W        W66128  36.444  12.847   0.911
97911W        W66129  42.041  14.922  13.253
97912W        W66130  30.435  15.366  10.382
97913W        W66131  12.297  27.720   2.439
97914W        W66132  27.709   8.969  12.010
97915W        W66133   6.219  11.613   3.198
97916W        W66134  43.843  11.116   2.341
97917W        W66135   2.166  29.061   1.691
97918W        W66136  11.574  36.773   1.757
97919W        W66137  42.814  16.778   3.779
97920W        W66138  33.872  24.618  11.998
97921W        W66139  22.273  14.182  13.824
97922W        W66140  18.287  43.810  11.124
97923W        W66141   5.314  18.498  10.788
97924W        W66142  10.430  35.524  13.323
97925W        W66143  44.960  11.779  12.975
97926W        W66144  40.465  39.104   4.717
97927W        W66145  16.560   5.931   3.693
97928W        W66146  11.679  16.307  14.377
97929W        W66147  19.709  23.173  11.031
97930W        W66148   5.339  19.767   1.275
97931W        W66149  39.749  20.010   2.670
97932W        W66150  42.845  39.421  12.011
97933W        W66151  13.393   4.283   2.214
97934W        W66152  11.798  36.896  11.647
97935W        W66153  17.768  36.078  14.071
97936W        W66154   9.822  20.992  12.509
97937W        W66155  16.134  33.347  13.766
97938W        W66156  17.729  12.084   0.313
97939W        W66157  18.143  37.663   4.112
97940W        W66158  40.811  14.853  14.464
97941W        W66159   2.785   4.485  13.323
97942W        W66160  34.880   8.266   3.823
97943W        W66161  14.951   7.642   1.690
97944W        W66162  31.427   1.275   5.511
97945W        W66163  43.238  31.253   4.809
97946W        W66164  22.275  13.131   0.363
97947W        W66165   2.768   5.169  14.067
97948W        W66166  16.731   1.808  14.765
97949W        W66167  28.758  25.416  10.710
97950W        W66168  23.469  20.309  14.754
97951W        W66169  14.616  34.048   3.311
97952W        W66170   7.223   5.345   1.621
97953W        W66171  24.116  17.130   2.441
97954W        W66172  31.836   2.863  10.067
97955W        W66173  38.012  14.047  10.977
97956W        W66174   9.850  40.550  10.518
97957W        W66175  40.022   6.460  12.586
97958W        W66176   5.637   4.810  11.207
97959W        W66177   9.353  26.612  13.961
97960W        W66178  19.320  43.768  12.433
97961W        W66179  38.987  27.443   1.725
97962W        W66180  28.058  42.953  13.807
97963W        W66181  31.905  43.272   2.399
97964W        W66182   1.011  40.745  12.061
97965W        W66183  20.624  44.042  10.404
97966W        W66184   0.958   4.841   4.629
97967W        W66185   6.323  12.782   3.686
97968W        W66186   5.647  21.060  13.773
97969W        W66187  32.571  29.608   2.156
97970W        W66188  23.699  43.359   4.678
97971W        W66189  17.178  23.572  14.864
97972W        W66190  43.379   9.681   4.197
97973W        W66191  40.254  32.086   3.718
97974W        W66192  37.599  18.376   1.967
97975W        W66193   4.788   4.852   3.173
97976W        W66194   9.366  21.498  13.390
97977W        W66195   2.711   1.743  11.677
97978W        W66196  28.851  15.614   0.438
97979W        W66197   0.821  29.505  11.592
97980W        W66198  33.062  34.460   3.760
97981W        W66199  14.316  24.183   4.177
97982W        W66200  22.741   3.802  13.007
97983W        W66201  33.449  36.169  11.958
97984W        W66202  25.802  34.372   3.093
97985W        W66203  14.196   6.156  11.931
97986W        W66204  17.145  34.628   2.335
97987W        W66205  38.041  24.966   3.723
97988W        W66206  22.727   1.802   2.797
97989W        W66207  40.654  20.754  12.139
97990W        W66208  31.327  20.839   1.906
97991W        W66209  32.856  19.609  11.087
97992W        W66210  17.106  29.592  12.143
97993W        W66211   9.550  19.745   9.523
97994W        W66212  34.507   1.961  11.632
97995W        W66213  41.280  10.159   0.134
97996W        W66214   0.348  25.835  13.493
97997W        W66215  25.596  32.573   4.142
97998W        W66216   1.289  13.287  12.057
97999W        W66217  39.952  28.286   4.159
98000W        W66218  26.346  37.495   2.500
98001W        W66219  43.356  17.623  11.502
98002W        W66220  28.097  13.617  14.299
98003W        W66221  40.853  43.300   0.456
98004W        W66222  15.658  26.995  14.745
98005W        W66223  40.510  34.954   3.821
98006W        W66224  38.523  40.564   4.675
98007W        W66225   4.187   6.928  14.384
98008W        W66226  16.936   4.468  13.359
98009W        W66227   2.849  23.089  12.512
98010W        W66228  18.525  25.612   4.415
98011W        W66229  37.841  42.910  13.135
98012W        W66230   4.946  17.860  12.120
98013W        W66231  25.980  33.420  12.036
98014W        W66232  29.984  15.226  14.291
98015W        W66233  42.049   0.233  11.766
98016W        W66234  40.771   0.703  11.856
98017W        W66235  14.562  34.997  13.996
98018W        W66236  30.669  35.478   1.745
98019W        W66237  35.080  20.086  10.405
98020W        W66238  23.728  20.730  13.536
98021W        W66239  27.533  22.291  13.079
98022W        W66240  18.672  23.547  10.576
98023W        W66241   6.340   7.180   0.841
98024W        W66242  10.891  36.062   3.676
98025W        W66243  19.065  25.200   2.730
98026W        W66244  24.088  23.146  12.420
98027W        W66245   7.305  39.889   2.320
98028W        W66246  32.137  36.552  14.521
98029W        W66247  32.517  44.725   2.904
98030W        W66248  24.697  29.584  11.054
98031W        W66249  14.305  14.137  12.545
98032W        W66250   7.601  13.133  11.986
98033W        W66251  31.879  13.829   3.527
98034W        W66252  20.971  14.140   0.083
98035W        W66253  13.616   7.706   3.856
98036W        W66254  18.010  38.772   1.900
98037W        W66255  18.317  18.698  14.829
98038W        W66256  19.154  35.960   0.432
98039W        W66257  44.026   3.654  11.140
98040W        W66258   3.903  18.519  14.436
98041W        W66259  11.361   5.435  14.912
98042W        W66260  22.775  29.640  14.478
98043W        W66261  15.999  36.616   4.058
98044W        W66262   9.795   9.747  13.908
98045W        W66263  33.617  26.522  14.374
98046W        W66264   4.398  42.924  14.670
98047W        W66265   0.131   5.468  10.584
98048W        W66266  10.031  31.884  14.992
98049W        W66267  37.959  37.320  10.648
98050W        W66268  17.043  17.104   1.357
98051W        W66269  28.726  30.404   1.525
98052W        W66270  42.918  39.305   2.699
98053W        W66271  30.624  31.563   4.581
98054W        W66272   5.695  17.086   0.401
98055W        W66273  44.779  27.917  10.461
98056W        W66274  29.967  25.931  12.114
98057W        W66275  16.200  42.444   4.642
98058W        W66276  24.553  42.866  11.195
98059W        W66277  37.834  39.468  13.805
98060W        W66278  10.675  19.299  11.222
98061W        W66279   1.689  10.260   4.347
98062W        W66280  21.172  15.131  13.608
98063W        W66281  42.930  28.648  12.840
98064W        W66282  17.269   1.510  11.569
98065W        W66283   6.238  30.991   0.385
98066W        W66284  30.636  22.540   0.648
98067W        W66285  28.267  30.544   1.762
98068W        W66286  29.163   4.953  10.597
98069W        W66287  32.634  37.394  11.113
98070W        W66288  16.493  18.843  11.406
98071W        W66289  13.916  20.976  10.171
98072W        W66290  33.986   1.897  14.018
98073W        W66291  44.428  23.687  11.366
98074W        W66292  14.226  20.436  14.924
98075W        W66293  10.874  30.202   4.156
98076W        W66294  41.570  20.979  11.087
98077W        W66295  13.089  36.011   2.763
98078W        W66296   7.042   4.704   3.516
98079W        W66297  23.269  37.514  12.131
98080W        W66298  44.030   3.654   4.943
98081W        W66299  33.534  43.813  11.973
98082W        W66300   9.274  15.570  14.794
98083W        W66301  42.892  41.170   2.253
98084W        W66302  32.417  35.354  12.810
98085W        W66303  36.129  22.848  12.490
98086W        W66304   2.825  22.648   1.920
98087W        W66305   2.164   6.410   2.751
98088W        W66306   9.264  24.140   4.547
98089W        W66307   8.176   2.817   4.422
98090W        W66308  23.159  43.986   0.304
98091W        W66309   4.346  22.978   2.200
98092W        W66310  15.255   7.612  13.455
98093W        W66311  12.423   7.773  12.058
98094W        W66312  24.036  20.136  12.751
98095W        W66313   2.006  36.438   2.742
98096W        W66314  14.108  44.274  11.668
98097W        W66315  22.498  27.924   2.250
98098W        W66316  44.209  39.981  11.183
98099W        W66317  30.362   5.764   2.246
98100W        W66318  19.127   7.585  14.858
98101W        W66319  27.584  31.935  13.956
98102W        W66320  44.194  41.496  13.854
98103W        W66321  25.690  34.566  11.458
98104W        W66322  41.987   9.108   2.763
98105W        W66323  38.893   8.332   3.171
98106W        W66324  32.914  37.493  12.065
98107W        W66325   6.225  42.728   0.879
98108W        W66326  39.060  44.417  10.652
98109W        W66327  21.768  16.186  10.849
98110W        W66328  17.145  25.408   4.602
98111W        W66329  20.203  16.669   4.826
98112W        W66330  23.782  32.903   2.799
98113W        W66331  13.246  12.807   0.227
98114W        W66332   5.550  40.699   5.385
98115W        W66333  40.245  33.518   3.730
98116W        W66334  11.782  14.526  10.683
98117W        W66335  26.567  29.436  11.052
98118W        W66336  30.648  22.895   1.058
98119W        W66337  43.514  36.823   1.210
98120W        W66338   0.326  22.991   1.303
98121W        W66339   4.284   3.910   4.364
98122W        W66340  38.399  43.369   3.615
98123W        W66341  20.828  39.528   2.181
98124W        W66342  20.211  42.421   1.705
98125W        W66343   0.373  42.485  13.708
98126W        W66344  13.751  20.508   2.580
98127W        W66345  28.150  26.978  11.603
98128W        W66346   5.154  23.532  12.373
98129W        W66347   1.881  17.215  13.524
98130W        W66348  20.724  12.348   1.289
98131W        W66349  27.184  23.787   4.047
98132W        W66350  39.094  12.835   1.005
98133W        W66351  24.590   0.525  10.559
98134W        W66352  26.035  43.486   0.404
98135W        W66353  44.913   6.977   4.111
98136W        W66354  27.209  30.546  13.903
98137W        W66355  42.549  14.549   2.439
98138W        W66356   1.245  11.861   2.455
98139W        W66357  28.756  33.099  11.003
98140W        W66358   7.000  18.250   3.009
98141W        W66359  23.270  18.127   4.076
98142W        W66360   7.168  23.877   0.317
98143W        W66361  38.045  12.654  11.963
98144W        W66362  35.210   1.226   3.690
98145W        W66363   3.351  13.053  11.936
98146W        W66364  40.950   8.386  14.346
98147W        W66365  42.363  23.165  14.935
98148W        W66366  22.599  29.499   3.705
98149W        W66367   1.377   4.535   3.547
98150W        W66368  33.930  26.894  11.563
98151W        W66369  29.532  42.020   0.818
98152W        W66370  12.641  23.014  14.925
98153W        W66371  24.730  43.777   1.412
98154W        W66372  39.173   5.024   1.761
98155W        W66373  29.179  17.513  12.862
98156W        W66374  16.347  39.858  11.550
98157W        W66375   8.644  26.298  13.499
98158W        W66376  21.504  13.927  14.264
98159W        W66377  15.169   5.147  11.631
98160W        W66378   6.397  18.333  13.318
98161W        W66379  37.531  16.193   0.726
98162W        W66380  33.580   1.936  12.087
98163W        W66381  43.364  42.433  12.011
98164W        W66382  38.043  28.416  13.925
98165W        W66383  33.898  44.518   4.421
98166W        W66384  42.419   7.822  10.817
98167W        W66385  43.840  27.517   2.478
98168W        W66386  14.248  13.097   2.283
98169W        W66387   7.931  41.354   3.017
98170W        W66388  29.410  35.462   0.327
98171W        W66389  34.536  32.723  13.473
98172W        W66390  14.290  13.193  14.268
98173W        W66391  42.253  43.837  10.643
98174W        W66392  23.625  35.573   3.421
98175W        W66393   6.380  28.171  11.404
98176W        W66394  22.067   2.483   0.867
98177W        W66395   7.937  25.151  14.233
98178W        W66396  40.307  37.337   1.870
98179W        W66397  13.074  25.708   3.748
98180W        W66398  33.493  27.425   2.306
98181W        W66399   8.711   7.141   0.746
98182W        W66400  17.740  25.657  10.704
98183W        W66401   6.795  42.753   4.437
98184W        W66402   9.660  22.246  14.316
98185W        W66403   6.334  38.444   1.776
98186W        W66404   7.387  35.509  11.530
98187W        W66405  33.143  29.844  13.074
98188W        W66406  23.418  25.748   2.778
98189W        W66407  20.777  25.514  14.262
98190W        W66408   8.403  16.078   3.681
98191W        W66409   7.269  15.807   0.741
98192W        W66410  21.053  20.043  11.943
98193W        W66411  18.011  25.992   0.941
98194W        W66412  24.991  27.882  10.825
98195W        W66413  27.093  34.859   3.219
98196W        W66414  44.379  31.134   3.582
98197W        W66415   7.010  14.540   3.120
98198W        W66416  25.566  22.720   2.674
98199W        W66417  32.555  18.571   2.134
98200W        W66418   3.348  14.279   4.888
98201W        W66419  34.420  25.075  10.393
98202W        W66420  39.423  32.297   0.481
98203W        W66421  42.925  35.506  11.514
98204W        W66422  37.371  24.216   2.902
98205W        W66423   0.331  42.303   3.143
98206W        W66424  20.258  13.348   4.612
98207W        W66425  10.656  20.037   4.077
98208W        W66426  13.744  38.525  14.838
98209W        W66427  30.437  39.580   4.129
98210W        W66428  30.901  44.949   4.464
98211W        W66429  15.246  33.408   2.346
98212W        W66430   3.641  28.606  11.981
98213W        W66431   2.889  39.822  10.519
98214W        W66432   8.307  11.057  14.308
98215W        W66433  21.504   8.186  10.690
98216W        W66434  30.221   6.231  12.379
98217W        W66435  21.814  31.473   0.728
98218W        W66436  37.509  32.366   3.675
98219W        W66437  17.613   2.760  14.407
98220W        W66438  13.096  33.880  14.309
98221W        W66439  14.899  44.971  13.297
98222W        W66440   4.002  22.066  12.007
98223W        W66441  19.340  41.220   2.738
98224W        W66442   6.998  37.786   1.749
98225W        W66443  20.853  33.495   9.914
98226W        W66444  12.458  12.926  10.973
98227W        W66445  28.465  15.936   2.663
98228W        W66446  44.471   4.027   3.192
98229W        W66447   4.856   8.307  14.223
98230W        W66448   3.735  26.004   0.330
98231W        W66449  29.903   2.146   4.900
98232W        W66450  10.855  14.225  13.401
98233W        W66451   8.863  36.879  14.048
98234W        W66452  13.644   0.023   2.368
98235W        W66453   8.207   9.786   1.710
98236W        W66454  22.810  43.479  11.579
98237W        W66455  38.933  25.899  14.447
98238W        W66456   1.496  20.584  11.246
98239W        W66457  15.585  13.650   4.157
98240W        W66458   5.490  22.186   3.385
98241W        W66459  20.277  25.679  10.616
98242W        W66460  36.950  19.553   1.457
98243W        W66461  34.846  26.570  11.859
98244W        W66462  24.466  22.286  11.239
98245W        W66463  20.134   5.390   0.914
98246W        W66464  12.701  13.678  10.457
98247W        W66465   1.913  43.871   3.408
98248W        W66466  26.976  27.984  12.430
98249W        W66467  18.038  15.883   9.674
98250W        W66468  35.834  35.414  11.788
98251W        W66469  40.857  19.075  13.853
98252W        W66470  32.492  27.539   0.589
98253W        W66471  24.728  40.131   3.124
98254W        W66472   3.886  28.025   1.199
98255W        W66473  39.330  28.204   1.925
98256W        W66474   9.358  38.390   3.692
98257W        W66475   4.493  28.603  12.859
98258W        W66476   4.567  27.568  13.626
98259W        W66477   4.881  19.887   0.898
98260W        W66478   4.893  34.864   3.707
98261W        W66479  10.585  28.502  11.132
98262W        W66480  28.497  44.995  14.245
98263W        W66481  40.898  40.788  14.347
98264W        W66482  24.293  28.627  13.462
98265W        W66483  11.737  31.207   3.131
98266W        W66484  44.238   6.643   2.283
98267W        W66485  44.299  40.982   2.234
98268W        W66486  40.859  13.922   2.288
98269W        W66487  24.217  28.701  12.565
98270W        W66488  28.173  11.427  13.533
98271W        W66489   5.230  12.149   0.248
98272W        W66490   1.812  13.377  12.017
98273W        W66491  36.461  24.519   0.643
98274W        W66492  13.651  41.743  14.471
98275W        W66493  11.172  13.831  13.742
98276W        W66494  27.226  11.057  10.352
98277W        W66495  39.252   8.258  14.474
98278W        W66496   4.938  24.387  11.160
98279W        W66497  29.433  31.229  13.637
98280W        W66498  23.537  19.573   0.452
98281W        W66499  11.368  33.533  12.564
98282W        W66500  18.183  36.466  11.585
98283W        W66501  19.622  16.280   1.420
98284W        W66502  18.225  33.985  12.988
98285W        W66503  44.066  43.851  11.890
98286W        W66504   2.208  43.376   1.432
98287W        W66505  43.816  22.779   4.593
98288W        W66506  22.952  24.752  14.742
98289W        W66507  14.700  25.473   3.683
98290W        W66508  29.138   2.320   1.808
98291W        W66509  35.158  34.131   3.492
98292W        W66510  13.099  23.706  12.832
98293W        W66511  23.028   3.213   2.236
98294W        W66512  28.244   6.632   3.713
98295W        W66513  41.316  14.206  13.817
98296W        W66514  14.390  30.569  14.594
98297W        W66515  21.943  35.782  11.957
98298W        W66516  44.819   5.004   3.319
98299W        W66517  44.474  36.650  12.904
98300W        W66518  28.015  23.677  11.973
98301W        W66519  15.064   2.901  10.719
98302W        W66520  25.521   5.940   3.682
98303W        W66521  20.123  27.887  13.361
98304W        W66522  31.229  42.013   3.684
98305W        W66523  29.394  25.499   1.219
98306W        W66524  41.486   9.605   3.672
98307W        W66525  13.361  15.359   4.104
98308W        W66526  33.569   1.420  14.332
98309W        W66527  41.229  18.680   2.798
98310W        W66528  19.984  38.441   0.327
98311W        W66529  11.258  43.331   1.099
98312W        W66530  19.893   1.757  14.491
98313W        W66531  31.871  15.669  14.367
98314W        W66532  16.030  39.344   0.483
98315W        W66533  40.581  24.919   1.910
98316W        W66534  27.313   1.194   4.551
98317W        W66535  18.826  14.285   1.774
98318W        W66536  13.818  12.657  10.990
98319W        W66537  19.657  44.747  10.789
98320W        W66538  42.261  15.380   2.803
98321W        W66539  29.875   7.354  12.020
98322W        W66540  39.272  41.404  13.523
98323W        W66541  18.779  14.814   0.770
98324W        W66542  16.753  36.221   1.232
98325W        W66543  22.694   7.276   0.526
98326W        W66544  12.859  18.885   1.928
98327W        W66545  41.304  28.454  11.506
98328W        W66546  38.139  11.358  12.980
98329W        W66547  43.556  30.611   4.571
98330W        W66548  22.234  36.006  10.687
98331W        W66549  38.956  17.296   0.286
98332W        W66550   2.014  37.353  10.650
98333W        W66551  13.577  18.918   4.174
98334W        W66552  29.234  16.128   3.383
98335W        W66553   9.905  35.464  13.337
98336W        W66554   1.722   2.228  12.982
98337W        W66555  14.156  17.309  11.236
98338W        W66556  17.166   7.642   2.666
98339W        W66557  37.040   0.826   4.398
98340W        W66558   5.320  39.011   4.596
98341W        W66559  15.072  38.059   3.071
98342W        W66560  14.691  42.249   4.350
98343W        W66561   6.354   1.648   5.086
98344W        W66562  21.665  26.963   3.678
98345W        W66563  28.135  22.044  10.819
98346W        W66564  28.215  20.993   0.534
98347W        W66565  27.899  23.540  13.430
98348W        W66566  12.216  33.849  11.507
98349W        W66567   2.246   7.804  13.338
98350W        W66568   8.335  32.089  13.522
98351W        W66569  14.552   9.349  12.589
98352W        W66570  31.200  40.797  12.598
98353W        W66571  35.442   4.959  11.616
98354W        W66572  18.140   5.299   1.757
98355W        W66573  13.758   5.214  10.686
98356W        W66574  35.641   0.889   1.864
98357W        W66575  10.727  21.268  14.763
98358W        W66576  33.242  40.280   0.522
98359W        W66577  36.767   9.694  11.626
98360W        W66578  43.395  40.019   2.344
98361W        W66579   1.082  42.402  11.409
98362W        W66580  41.028  33.170  11.910
98363W        W66581   9.694  41.414   2.196
98364W        W66582   6.922   2.338   4.114
98365W        W66583  42.510   1.975  12.420
98366W        W66584  33.408  10.828   1.347
98367W        W66585  31.334  11.458  13.202
98368W        W66586  29.692  30.500   1.204
98369W        W66587  39.938  25.715   2.470
98370W        W66588  24.046   7.763  12.889
98371W        W66589  30.357  32.153   5.105
98372W        W66590  10.744   7.810   1.746
98373W        W66591  26.145  43.976  13.963
98374W        W66592   6.663  19.572  11.490
98375W        W66593  39.432   9.179  14.415
98376W        W66594   4.698  27.109  13.361
98377W        W66595  18.630  21.802  14.886
98378W        W66596  36.090  17.748   0.412
98379W        W66597   2.795   4.578   2.807
98380W        W66598  32.522  10.817   1.262
98381W        W66599  32.976  27.492   0.384
98382W        W66600  26.897  26.001   2.291
98383W        W66601   5.914  28.141   1.715
98384W        W66602  12.636  20.049  11.380
98385W        W66603  30.003  27.668   0.958
98386W        W66604   8.040  17.372  12.216
98387W        W66605  28.748   5.301   2.677
98388W        W66606  29.415  32.055   2.913
98389W        W66607  28.529  19.654   0.615
98390W        W66608   5.487  41.727  11.732
98391W        W66609   6.529  30.169  12.855
98392W        W66610  44.409  44.930   4.394
98393W        W66611  22.850  21.033   3.970
98394W        W66612   4.674  22.719   3.648
98395W        W66613  34.756  43.046   2.220
98396W        W66614  40.879  32.559   0.323
98397W        W66615   3.754   1.301   4.065
98398W        W66616   5.265  25.933  10.600
98399W        W66617  13.272  40.346   3.361
98400W        W66618  11.241   1.497  13.613
98401W        W66619  40.398  31.589  12.579
98402W        W66620  41.800  10.910  14.315
98403W        W66621  27.409  25.700  14.531
98404W        W66622  10.415  10.253   2.128
98405W        W66623  37.052  42.428   1.830
98406W        W66624   6.903  11.366   2.740
98407W        W66625  24.596  11.210   1.326
98408W        W66626   6.647  35.263   0.471
98409W        W66627  22.478  20.977  11.944
98410W        W66628  36.533  25.682  14.029
98411W        W66629  41.792  36.659   0.835
98412W        W66630   4.470  25.924  13.532
98413W        W66631  12.173   4.831  10.479
98414W        W66632  23.268   2.198   2.353
98415W        W66633   4.896  13.055  11.870
98416W        W66634  44.484  13.823   4.901
98417W        W66635  20.788  34.173   2.906
98418W        W66636  29.973  21.212  10.245
98419W        W66637  39.315  13.003  13.424
98420W        W66638   8.828  26.588   4.601
98421W        W66639  10.443  35.805  10.704
98422W        W66640  12.792   3.675  13.318
98423W        W66641  15.898   2.927   2.709
98424W        W66642  21.853  21.094  14.392
98425W        W66643  36.328   9.860  10.393
98426W        W66644  41.612  39.236   1.755
98427W        W66645  42.496  21.292  12.384
98428W        W66646  30.049  35.408  14.042
98429W        W66647  43.602   4.276  14.265
98430W        W66648  13.819  25.618  10.643
98431W        W66649  39.108  16.336  13.086
98432W        W66650  24.529  28.036  11.564
98433W        W66651  39.386  27.103   2.943
98434W        W66652  36.631  39.790   3.251
98435W        W66653   1.361  39.488   3.583
98436W        W66654  19.257   4.746   3.904
98437W        W66655  31.977   5.127  11.163
98438W        W66656   7.396   8.144   2.182
98439W        W66657  21.184  25.427   0.654
98440W        W66658   7.244  43.664   0.914
98441W        W66659  14.176  37.111   0.779
98442W        W66660  39.485   3.480   3.149
98443W        W66661  31.637  36.888   1.380
98444W        W66662  30.536   9.332   1.442
98445W        W66663  26.171  41.866  12.910
98446W        W66664  11.091  20.724   0.527
98447W        W66665   4.346  40.950  13.440
98448W        W66666  15.205  23.786   0.949
98449W        W66667  40.413  37.001  10.837
98450W        W66668   0.266  33.419  12.318
98451W        W66669  26.700  23.547   4.069
98452W        W66670  23.207   4.698   2.685
98453W        W66671  28.623   7.835  14.989
98454W        W66672  19.245   0.440  11.953
98455W        W66673   2.461  36.072   4.065
98456W        W66674   0.295  10.300   2.325
98457W        W66675   6.941  10.742  14.264
98458W        W66676   4.782  42.017  14.506
98459W        W66677  37.071  43.959  11.234
98460W        W66678  36.860  20.317   2.063
98461W        W66679   6.281  11.072  12.207
98462W        W66680   6.869   2.376  14.936
98463W        W66681   0.390  24.863  13.707
98464W        W66682  25.107   4.684  12.040
98465W        W66683   1.490  22.055  12.961
98466W        W66684   2.440  30.394  10.628
98467W        W66685  20.054   2.790   2.840
98468W        W66686  42.367  21.638   2.590
98469W        W66687   5.197  16.301  12.809
98470W        W66688  34.896   3.624   3.749
98471W        W66689   0.848  28.435  12.518
98472W        W66690  24.785  21.237  12.447
98473W        W66691  10.842   5.692   1.179
98474W        W66692  13.369  15.259  14.443
98475W        W66693   5.052   6.520  10.671
98476W        W66694  16.596   3.981  11.140
98477W        W66695   3.513  37.478  14.317
98478W        W66696  35.668   3.750   1.643
98479W        W66697  12.830  42.821   5.017
98480W        W66698  24.010  31.823   3.467
98481W        W66699   2.612  34.674   3.770
98482W        W66700  14.832  40.388  10.445
98483W        W66701  41.575  12.820   2.483
98484W        W66702  38.325  44.234  14.489
98485W        W66703  37.623  15.162   3.916
98486W        W66704  27.237  26.111   2.730
98487W        W66705   8.897  10.531   3.118
98488W        W66706  21.637  15.146  13.359
98489W        W66707  43.742  24.738   1.534
98490W        W66708  18.211  18.689  13.242
98491W        W66709  43.712  43.779   0.747
98492W        W66710  34.991  17.173  14.025
98493W        W66711  18.432  14.622  13.319
98494W        W66712  18.310  35.452  13.867
98495W        W66713  43.335   9.714  12.012
98496W        W66714  25.738  33.349   4.551
98497W        W66715  38.869  32.026  14.080
98498W        W66716  31.013   8.837   1.993
98499W        W66717   0.760  41.039  11.552
98500W        W66718  43.224  22.191  11.135
98501W        W66719   3.875   4.058   0.210
98502W        W66720  31.575  15.867   1.896
98503W        W66721  26.688  41.520  13.072
98504W        W66722  29.959   2.963  13.357
98505W        W66723   4.270   9.040   0.326
98506W        W66724  44.396  20.324  13.435
98507W        W66725  30.085  32.528   4.860
98508W        W66726  21.854  14.003   0.688
98509W        W66727  32.143   7.371   4.507
98510W        W66728  22.300  13.351  12.008
98511W        W66729   1.708  40.765  14.810
98512W        W66730   0.366  25.723   3.792
98513W        W66731   6.817  16.154  11.536
98514W        W66732  33.889   9.260   4.644
98515W        W66733  28.855  25.527  13.462
98516W        W66734  44.304  37.415   4.172
98517W        W66735  10.804  31.095   4.502
98518W        W66736  20.477  35.181  12.893
98519W        W66737  10.275  14.009   4.316
98520W        W66738  33.496  43.789   1.849
98521W        W66739  10.964  19.211   3.620
98522W        W66740  34.096  16.713   0.421
98523W        W66741  14.315  34.484   1.719
98524W        W66742  29.552  25.374   3.082
98525W        W66743  43.738  37.170  13.119
98526W        W66744  41.201   6.751   4.596
98527W        W66745  18.262  21.631   3.246
98528W        W66746   7.445  15.580  13.429
98529W        W66747  35.781  13.502   3.776
98530W        W66748  28.435  23.720  11.609
98531W        W66749   8.963   5.324  13.243
98532W        W66750  36.531  14.968   2.330
98533W        W66751  14.757  21.141   4.483
98534W        W66752  21.640  18.593  12.435
98535W        W66753   1.810   7.259   0.907
98536W        W66754  12.109   6.299  13.338
98537W        W66755  31.313  14.179   4.240
98538W        W66756   8.233   2.177  11.197
98539W        W66757  11.792  37.931  10.160
98540W        W66758   5.319  31.601   0.927
98541W        W66759  11.433   4.548  12.563
98542W        W66760  34.893  12.977  10.874
98543W        W66761  36.516  27.631   4.029
98544W        W66762  22.625  20.408  13.376
98545W        W66763  10.345  16.070   4.117
98546W        W66764  10.199  26.284   4.142
98547W        W66765   3.497  32.643   2.223
98548W        W66766  38.624  41.205  12.907
98549W        W66767   4.251   7.545   2.854
98550W        W66768  15.954   8.415  14.008
98551W        W66769  20.675  25.554  13.402
98552W        W66770  22.867  27.122   1.797
98553W        W66771  15.338  26.907  14.344
98554W        W66772  23.844  35.171  10.719
98555W        W66773  31.892  24.859  11.982
98556W        W66774  34.480  11.452   0.174
98557W        W66775  24.260  40.489  11.106
98558W        W66776  16.391   1.184   1.848
98559W        W66777  42.408  13.645   4.301
98560W        W66778  13.202   8.276   2.562
98561W        W66779  42.309  39.808   3.961
98562W        W66780  24.330  34.902   5.093
98563W        W66781  19.987  13.216   3.101
98564W        W66782   5.855  33.051  11.185
98565W        W66783   6.136  29.694   3.995
98566W        W66784  21.546  16.286   2.758
98567W        W66785  13.847  44.049   0.217
98568W        W66786  27.337   2.209  12.473
98569W        W66787  33.608  27.068  14.833
98570W        W66788  13.128  17.312   4.518
98571W        W66789  34.877   3.671   1.314
98572W        W66790  27.694  44.936  11.594
98573W        W66791  11.081  42.381   2.636
98574W        W66792  26.850   8.516   2.616
98575W        W66793  19.985   6.162   4.898
98576W        W66794   7.666  26.266   4.177
98577W        W66795   0.455  10.294  12.577
98578W        W66796  28.086  33.939   0.936
98579W        W66797  24.985   5.029   0.825
98580W        W66798  17.018  40.284   3.156
98581W        W66799  33.604  44.841   3.251
98582W        W66800  25.406  40.526   3.406
98583W        W66801  39.365  23.166  10.570
98584W        W66802  40.483  25.929   0.239
98585W        W66803  31.755   8.872  12.926
98586W        W66804  39.001   2.669   1.465
98587W        W66805  42.089  21.429   2.180
98588W        W66806  11.272  30.362   2.704
98589W        W66807  13.574  44.319  11.651
98590W        W66808  23.088   8.918  11.803
98591W        W66809  33.966  34.625  13.389
98592W        W66810  33.538  20.872  12.136
98593W        W66811  27.534  43.397  14.456
98594W        W66812  40.542  28.757  13.388
98595W        W66813  27.543   6.406   2.715
98596W        W66814  11.562  31.578   2.444
98597W        W66815  36.330   0.508  14.515
98598W        W66816  32.414   6.950   9.829
98599W        W66817  27.296  40.456   4.193
98600W        W66818  38.751   3.006   0.656
98601W        W66819  30.763  40.907   3.699
98602W        W66820  21.498  35.677   2.910
98603W        W66821  24.041   1.481  13.432
98604W        W66822   7.171  43.454   4.735
98605W        W66823   5.391  20.330   2.686
98606W        W66824  15.306  39.336  13.068
98607W        W66825  19.097  17.885   0.363
98608W        W66826  42.867   2.250   3.251
98609W        W66827   5.367  18.960   2.971
98610W        W66828  31.844  32.502  14.651
98611W        W66829  20.735  15.179  13.888
98612W        W66830  36.391  41.358  13.481
98613W        W66831  34.046   7.903  14.972
98614W        W66832  39.989  44.237  12.242
98615W        W66833   6.414  29.421  14.387
98616W        W66834  27.519  19.266  11.579
98617W        W66835   4.096  34.674   0.955
98618W        W66836  39.280   5.269  11.705
98619W        W66837  15.478  24.570   4.532
98620W        W66838  38.382  30.077  13.011
98621W        W66839  23.611  37.616   2.261
98622W        W66840  15.021  23.193  14.955
98623W        W66841  43.266  34.553  14.655
98624W        W66842   2.350  33.967  14.038
98625W        W66843  14.746  40.806  11.044
98626W        W66844   7.888   5.795   3.719
98627W        W66845  10.102  21.974  13.030
98628W        W66846  10.150  37.420   3.635
98629W        W66847  27.996  19.308  10.943
98630W        W66848  28.629  15.286  14.072
98631W        W66849  34.464  25.753   3.203
98632W        W66850  33.347  37.961  13.764
98633W        W66851  41.926  11.222   1.710
98634W        W66852  40.870  34.805  13.032
98635W        W66853  44.537   2.427  14.505
98636W        W66854   2.682  21.751  13.043
98637W        W66855   7.732  36.707  12.225
98638W        W66856   7.344  25.502  14.552
98639W        W66857   5.705  17.194   5.467
98640W        W66858  32.886  20.237   0.968
98641W        W66859  37.882   8.861  14.127
98642W        W66860  28.053  41.297   0.981
98643W        W66861  26.563   2.092   1.535
98644W        W66862  17.597   3.890  11.246
98645W        W66863  44.898   2.554   3.818
98646W        W66864  41.053  11.759   3.800
98647W        W66865   8.649  33.329   1.115
98648W        W66866   3.224  24.895  12.911
98649W        W66867   9.915  39.370   0.873
98650W        W66868   5.630   0.234  11.014
98651W        W66869  22.541  10.719   2.209
98652W        W66870   6.723   9.364  12.575
98653W        W66871   6.918  13.873  11.618
98654W        W66872   5.819  30.382  13.524
98655W        W66873  36.335   2.029  12.423
98656W        W66874  10.121  43.810   2.152
98657W        W66875  36.074  44.993   4.664
98658W        W66876  11.267   9.319   3.588
98659W        W66877  12.882  28.092   3.388
98660W        W66878   1.458  43.855   0.278
98661W        W66879  16.142  36.579   0.462
98662W        W66880   3.394  15.468   2.726
98663W        W66881  42.551  38.005   4.369
98664W        W66882  15.146   4.796   4.158
98665W        W66883  17.372  26.636   4.969
98666W        W66884   9.683  32.362   3.198
98667W        W66885   3.491  39.467   2.190
98668W        W66886  38.796  23.972  12.876
98669W        W66887  13.870  33.593  13.545
98670W        W66888  18.234  23.841  14.329
98671W        W66889   2.407  22.688   4.212
98672W        W66890  17.120  20.023   4.682
98673W        W66891  22.588  11.220  14.550
98674W        W66892   1.486  40.108  12.658
98675W        W66893   3.372  22.530   1.179
98676W        W66894  11.074  23.481   0.357
98677W        W66895  11.145  15.841  13.882
98678W        W66896  38.455   6.788  14.505
98679W        W66897  37.514   2.459  13.544
98680W        W66898  26.548  37.011  12.940
98681W        W66899  14.812  17.774  10.599
98682W        W66900  10.810   5.651  12.962
98683W        W66901   6.227  35.164  12.457
98684W        W66902   6.757  28.841  12.564
98685W        W66903  25.426  41.931   0.239
98686W        W66904  41.903  11.924  12.098
98687W        W66905  15.339   0.256   0.357
98688W        W66906   7.286  35.478  14.392
98689W        W66907   1.926  21.252   4.522
98690W        W66908  32.627   0.300   4.177
98691W        W66909  20.062  33.360  11.306
98692W        W66910  13.813  24.071  13.014
98693W        W66911  43.297  44.709  14.890
98694W        W66912  29.446  24.940  13.824
98695W        W66913  37.873  32.503   0.522
98696W        W66914  31.528  30.373  11.100
98697W        W66915  29.733  31.451  11.923
98698W        W66916  30.518  42.689  12.754
98699W        W66917  38.815   5.862   0.375
98700W        W66918  22.987  15.325  11.557
98701W        W66919  30.181   5.702  13.441
98702W        W66920  18.871   2.584  14.304
98703W        W66921  10.535  22.671   0.030
98704W        W66922  44.865  14.256   3.253
98705W        W66923   6.289  24.174   0.773
98706W        W66924  26.564   5.294  14.031
98707W        W66925   1.530   9.295  13.362
98708W        W66926  33.808  29.111   0.611
98709W        W66927  31.655  36.118   3.238
98710W        W66928  18.686  41.931   2.977
98711W        W66929  32.159  23.248   2.279
98712W        W66930  20.461  26.606  13.545
98713W        W66931  16.612  10.257   3.149
98714W        W66932  32.010  42.932   0.858
98715W        W66933  23.001  18.134   4.533
98716W        W66934  38.568  16.675  12.263
98717W        W66935   0.361   6.084  12.824
98718W        W66936  39.257   9.916  10.712
98719W        W66937   7.843   4.198   4.671
98720W        W66938  12.410  25.003  12.973
98721W        W66939  26.705  19.099  11.973
98722W        W66940   3.300  31.838  14.931
98723W        W66941  25.020  23.021   0.328
98724W        W66942  37.082  10.380  12.642
98725W        W66943  25.562  23.217  11.141
98726W        W66944  29.589  18.904   0.904
98727W        W66945  28.935  33.066   0.026
98728W        W66946   5.112  37.916  10.705
98729W        W66947  40.144  44.035  11.370
98730W        W66948  17.732  21.681   3.282
98731W        W66949  18.326  29.995   1.236
98732W        W66950  34.467  34.454   2.183
98733W        W66951  37.627  14.353   2.779
98734W        W66952  42.123  26.997  11.269
98735W        W66953  24.769  37.807  13.521
98736W        W66954  29.610  39.029   3.272
98737W        W66955  40.071  15.351   4.332
98738W        W66956  19.597   4.301  14.347
98739W        W66957  27.424  23.667   1.293
98740W        W66958   2.154   4.675  13.604
98741W        W66959  41.465  41.290  14.758
98742W        W66960  19.548   1.296   2.287
98743W        W66961   4.418   9.909  10.716
98744W        W66962  20.006  17.609  10.130
98745W        W66963   5.274  20.961  13.390
98746W        W66964  33.700  25.512   4.537
98747W        W66965  29.072  42.280   0.930
98748W        W66966  37.128  28.406   4.338
98749W        W66967   1.782   7.141  12.836
98750W        W66968  33.868  30.932   0.264
98751W        W66969  20.457  19.076  14.771
98752W        W66970  26.874  27.886  10.703
98753W        W66971  38.649  11.229  12.097
98754W        W66972   0.195  27.664  12.492
98755W        W66973  24.934  38.191  13.907
98756W        W66974  24.977   8.240  14.872
98757W        W66975  25.430  28.587   3.808
98758W        W66976  21.209  38.936  13.850
98759W        W66977  11.729  39.541   3.789
98760W        W66978   9.111  23.469  12.989
98761W        W66979  32.673   2.665  14.227
98762W        W66980  18.774  30.606  13.042
98763W        W66981  18.887  17.403   2.698
98764W        W66982  28.036   8.870   1.198
98765W        W66983  25.159  14.402   2.789
98766W        W66984  42.763   8.775  13.419
98767W        W66985  41.495  37.539   4.878
98768W        W66986  18.315  27.123   1.275
98769W        W66987  25.802  37.780   0.453
98770W        W66988  42.393   9.285  14.977
98771W        W66989  28.968   0.843   0.471
98772W        W66990   9.979  36.375   0.324
98773W        W66991  34.354  38.541  14.354
98774W        W66992   9.314  42.857   4.110
98775W        W66993  25.550  26.409  11.453
98776W        W66994  40.116   6.982  12.560
98777W        W66995  33.584  15.256   3.892
98778W        W66996  36.434  41.951  10.650
98779W        W66997  22.320   8.503  13.497
98780W        W66998  29.871  32.125  12.089
98781W        W66999  13.701  35.615   4.123
98782W        W67000  42.598   3.652   2.627
98783W        W67001  23.054   8.515   5.259
98784W        W67002  12.784  43.433   0.988
98785W        W67003  11.572  33.606   4.787
98786W        W67004  29.127  25.151   4.638
98787W        W67005  28.718  25.103   3.261
98788W        W67006  36.387  36.836  14.746
98789W        W67007   3.681   0.110  11.491
98790W        W67008  13.901  12.446   2.141
98791W        W67009   1.758   9.689   2.190
98792W        W67010  31.111  43.290   3.746
98793W        W67011   2.892  41.904   4.766
98794W        W67012  42.200  36.710  11.205
98795W        W67013  41.813  44.946  13.129
98796W        W67014   3.496  34.986  10.625
98797W        W67015  17.861  12.779  10.728
98798W        W67016  23.489   0.370   1.759
98799W        W67017  30.465  29.366   4.237
98800W        W67018   5.495   3.502   5.060
98801W        W67019  41.467  14.749   5.097
98802W        W67020  12.226   9.205  10.657
98803W        W67021  26.217  39.950   3.727
98804W        W67022  38.044  35.095  11.481
98805W        W67023  15.657  17.059   1.977
98806W        W67024  41.111  19.851  12.485
98807W        W67025  27.519  39.624   4.102
98808W        W67026   7.428   7.770  13.869
98809W        W67027  41.032  42.538  14.811
98810W        W67028  20.628   0.280   1.740
98811W        W67029  31.169  18.250  12.169
98812W        W67030  28.685  42.549  11.228
98813W        W67031  21.556  41.491   0.400
98814W        W67032  44.699  35.825   0.856
98815W        W67033  39.449  23.968  12.135
98816W        W67034  23.656  36.351  14.106
98817W        W67035  35.440  14.882   4.563
98818W        W67036  13.986  27.727   2.782
98819W        W67037  31.388  33.723  14.136
98820W        W67038  30.335  23.309   4.354
98821W        W67039  17.785  17.099  14.833
98822W        W67040  37.789  18.122  12.705
98823W        W67041  34.346   1.974   2.693
98824W        W67042  39.965  41.025  13.938
98825W        W67043  30.938  34.923   4.117
98826W        W67044  13.379   0.289  11.159
98827W        W67045  16.822   0.820  14.718
98828W        W67046  38.392  33.977   3.707
98829W        W67047  36.918   4.262   1.519
98830W        W67048  38.943  22.497  14.677
98831W        W67049  27.228  34.019  11.948
98832W        W67050   3.948  37.546   2.262
98833W        W67051  33.294  21.227   3.233
98834W        W67052  11.929  27.136  14.002
98835W        W67053  19.948  30.833  10.631
98836W        W67054  31.415  25.477   3.358
98837W        W67055   1.748   3.332   3.172
98838W        W67056  19.367  37.621   4.182
98839W        W67057   0.445   9.625   4.624
98840W        W67058  14.253  43.638   2.270
98841W        W67059  13.447  11.343   4.190
98842W        W67060   3.473  16.321   2.303
98843W        W67061  18.582  33.096   1.465
98844W        W67062   8.727   3.027   0.147
98845W        W67063  13.761  31.884  10.968
98846W        W67064   1.202  30.123  12.094
98847W        W67065  12.718  25.911  12.584
98848W        W67066  29.843  24.084  14.078
98849W        W67067  42.326  17.581   3.169
98850W        W67068  11.645  35.986  13.049
98851W        W67069  37.367  32.035   1.307
98852W        W67070  11.826  24.231   0.699
98853W        W67071  21.435  11.039  12.972
98854W        W67072  20.976  23.402  13.444
98855W        W67073  36.322   4.072   3.181
98856W        W67074  23.785  28.684   4.300
98857W        W67075  15.347  33.012  10.662
98858W        W67076  11.763   0.284  12.619
98859W        W67077   3.542  17.294   2.873
98860W        W67078  13.568  38.501   2.018
98861W        W67079   5.649   9.909   1.680
98862W        W67080  43.279  41.677   1.835
98863W        W67081  11.661  25.750  13.603
98864W        W67082   9.544  16.561   1.639
98865W        W67083  16.135  38.071   3.926
98866W        W67084   5.385  18.568  12.499
98867W        W67085  38.839  28.127   0.962
98868W        W67086  20.770  18.625   4.571
98869W        W67087   0.894  34.000   3.845
98870W        W67088  31.714   9.672   0.388
98871W        W67089  19.242  37.500  13.792
98872W        W67090  33.544  27.081   2.713
98873W        W67091  34.878  29.250  12.080
98874W        W67092   7.357  26.132   0.898
98875W        W67093  33.037   7.313   1.381
98876W        W67094  44.921  40.342  12.393
98877W        W67095  31.632  16.726  13.888
98878W        W67096  15.357  40.469   1.795
98879W        W67097   0.903   0.829   1.973
98880W        W67098  18.597   0.480  11.234
98881W        W67099  19.507  41.906   0.114
98882W        W67100  43.856   0.535   2.299
98883W        W67101  35.300  43.885  11.576
98884W        W67102  17.226  15.654  10.437
98885W        W67103   5.908  22.525   4.275
98886W        W67104   9.930   1.216   3.668
98887W        W67105  40.317   1.954  11.673
98888W        W67106  18.623  19.641   2.769
98889W        W67107  44.448  36.527   3.700
98890W        W67108  34.435  29.135   4.543
98891W        W67109  12.212  32.332   0.863
98892W        W67110   8.895  36.314   3.595
98893W        W67111  42.413  35.683   2.721
98894W        W67112  10.829  16.928  11.713
98895W        W67113  27.606  24.910   4.228
98896W        W67114   2.295  28.407  11.956
98897W        W67115  30.820  26.299   0.310
98898W        W67116   6.392  33.044  11.107
98899W        W67117   3.227  11.768   4.258
98900W        W67118  17.259  44.987   2.564
98901W        W67119  13.648  43.054   0.326
98902W        W67120  33.363  19.153  13.542
98903W        W67121  16.316  23.083  14.444
98904W        W67122  37.404  38.792   3.349
98905W        W67123  15.961  31.433  11.880
98906W        W67124   9.122  26.875  12.905
98907W        W67125   8.447  42.197  12.200
98908W        W67126  16.538  35.284   3.329
98909W        W67127  10.448  26.964  12.985
98910W        W67128  43.433  37.961  11.494
98911W        W67129  13.961  15.311  12.577
98912W        W67130  36.364  41.099   4.299
98913W        W67131  33.063   2.865  10.929
98914W        W67132   5.261  11.666   0.040
98915W        W67133  22.289  37.148   3.195
98916W        W67134  33.397  37.481   4.153
98917W        W67135  18.987  36.014   3.239
98918W        W67136  27.249   8.356  11.164
98919W        W67137   5.068   5.665   0.201
98920W        W67138   0.278  15.468  12.132
98921W        W67139  12.279  23.980   4.887
98922W        W67140  37.751  32.549  12.572
98923W        W67141  29.094   2.811  10.277
98924W        W67142  36.128  44.460  14.083
98925W        W67143  27.234  23.564  12.655
98926W        W67144  16.599  17.271   1.123
98927W        W67145  11.131   2.034   5.114
98928W        W67146  19.363   7.019   4.077
98929W        W67147  31.155   3.359  13.857
98930W        W67148  22.453   8.481  14.859
98931W        W67149  44.283  13.080  10.332
98932W        W67150  17.265  19.050   2.750
98933W        W67151  14.079  10.858   1.801
98934W        W67152  33.288  14.274   0.849
98935W        W67153   7.449  18.763  12.053
98936W        W67154  24.160  25.685   3.068
98937W        W67155   3.250  29.781  14.787
98938W        W67156  12.129   6.338   1.669
98939W        W67157  34.506  39.761  11.367
98940W        W67158   7.536  21.558  10.696
98941W        W67159  15.258   0.184  12.408
98942W        W67160  22.450  25.567   3.932
98943W        W67161  35.839  35.113   4.145
98944W        W67162  17.274  14.616   0.698
98945W        W67163   4.279  33.973   2.461
98946W        W67164   9.252  15.911  10.596
98947W        W67165  39.888  28.130  11.585
98948W        W67166  13.580  18.193  14.437
98949W        W67167   8.360  18.376  10.230
98950W        W67168  44.384  37.265   2.825
98951W        W67169  41.853  18.306   1.754
98952W        W67170  24.534  17.676   3.211
98953W        W67171  17.715  33.918  11.142
98954W        W67172  22.836  13.622   1.894
98955W        W67173  13.162  28.562   4.593
98956W        W67174   4.894   0.542  14.038
98957W        W67175  36.752  12.680  10.772
98958W        W67176   4.335   5.731  14.989
98959W        W67177  29.744  22.309   2.222
98960W        W67178  27.328  42.499   2.651
98961W        W67179  21.292  25.879  11.871
98962W        W67180   3.247   1.358   4.591
98963W        W67181   0.389  17.368  11.142
98964W        W67182   1.130  17.547  11.105
98965W        W67183  29.465  27.511  14.539
98966W        W67184   3.679  37.425   2.714
98967W        W67185  12.538  26.520   1.321
98968W        W67186  42.232  40.543   2.672
98969W        W67187  13.369  12.673  11.868
98970W        W67188   2.315   2.810  12.997
98971W        W67189   6.774  10.681   3.297
98972W        W67190  40.526  20.979   2.391
98973W        W67191  19.699  21.308   4.261
98974W        W67192  19.651  42.985  12.462
98975W        W67193  34.151  28.911   0.959
98976W        W67194  17.064  16.066   1.617
98977W        W67195  36.581   2.268   2.330
98978W        W67196  34.932   5.729   2.611
98979W        W67197  35.380  31.563   4.856
98980W        W67198  32.055   9.220  13.260
98981W        W67199   2.004  10.673  14.534
98982W        W67200  24.134  44.099  14.818
98983W        W67201   9.787  44.890  14.966
98984W        W67202  11.086  43.903   5.500
98985W        W67203   5.872  39.884  12.978
98986W        W67204  13.721  18.210  12.278
98987W        W67205  13.831  26.192  12.088
98988W        W67206   1.997  14.123   4.080
98989W        W67207  16.796  21.084   2.660
98990W        W67208  33.529  26.545   2.633
98991W        W67209  18.281  36.862   2.790
98992W        W67210  32.031   8.788   0.550
98993W        W67211  42.447  28.603  12.667
98994W        W67212   3.855  15.179  14.879
98995W        W67213  26.211  23.100   2.007
98996W        W67214  43.825  20.711   4.576
98997W        W67215   9.416   1.331   3.640
98998W        W67216   1.577  17.177   2.807
98999W        W67217  16.759   6.281  12.123
99000W        W67218   5.413  19.838   0.227
99001W        W67219  17.547  26.391   2.375
99002W        W67220  21.545   7.207  12.283
99003W        W67221  18.641  10.237   4.771
99004W        W67222  38.935  12.084  11.650
99005W        W67223  30.477   0.429   2.373
99006W        W67224  44.751  26.275  13.957
99007W        W67225  32.014  43.201   1.883
99008W        W67226  20.785   0.909   4.594
99009W        W67227   8.309   0.707  14.769
99010W        W67228  33.971  26.484  12.162
99011W        W67229  37.880  44.250  14.834
99012W        W67230   3.338  32.867   2.681
99013W        W67231  34.353  22.619   2.645
99014W        W67232   5.130  40.047   3.506
99015W        W67233  18.843   0.404  14.497
99016W        W67234  15.704  32.601  13.348
99017W        W67235  26.818  41.939   0.442
99018W        W67236   7.263  25.594   3.198
99019W        W67237  18.589   6.798   0.865
99020W        W67238  24.633  12.923  14.036
99021W        W67239  14.099  28.937  11.195
99022W        W67240  21.556  28.477  14.790
99023W        W67241  28.501  11.353   4.091
99024W        W67242  12.912  30.491   3.797
99025W        W67243  11.672   7.967  11.447
99026W        W67244  13.788  24.311   4.137
99027W        W67245   2.193  24.590  11.062
99028W        W67246  14.144  16.604  14.591
99029W        W67247  16.208  22.000   3.828
99030W        W67248  17.375   7.278  11.635
99031W        W67249  10.723  37.770   0.209
99032W        W67250   8.247  15.173   2.794
99033W        W67251   0.919   5.228  13.988
99034W        W67252  34.529  28.143  11.598
99035W        W67253  32.812  20.490   4.262
99036W        W67254  34.286  34.453  12.993
99037W        W67255   8.911   3.191  12.767
99038W        W67256   6.953  24.531   2.338
99039W        W67257  40.991  42.272   0.249
99040W        W67258   3.947   0.422   3.145
99041W        W67259  44.375  37.552  14.859
99042W        W67260   3.458  24.600   0.763
99043W        W67261  11.317  15.111  13.361
99044W        W67262  33.963   6.120  12.035
99045W        W67263   6.414  33.641  12.421
99046W        W67264   7.114  14.586   4.964
99047W        W67265  38.005  30.882  12.956
99048W        W67266  27.071  22.479  12.983
99049W        W67267  31.031   9.376  10.484
99050W        W67268  12.215   3.772  14.841
99051W        W67269  14.520  40.910   2.359
99052W        W67270  14.388  40.087  14.176
99053W        W67271  19.393  42.457   3.198
99054W        W67272   9.338  15.725  11.474
99055W        W67273  19.130   5.157   3.616
99056W        W67274  20.087  35.456  14.065
99057W        W67275  11.321  39.828  11.665
99058W        W67276   6.833  35.887  12.941
99059W        W67277   8.913  20.797  14.981
99060W        W67278  22.620   3.750   4.887
99061W        W67279  10.815  26.959   3.396
99062W        W67280  32.152   2.690   3.992
99063W        W67281  14.549  19.724   5.013
99064W        W67282  33.673  12.237   4.068
99065W        W67283  35.488  24.009   1.642
99066W        W67284  31.742  12.179   4.271
99067W        W67285  28.033  27.629   0.981
99068W        W67286   7.396  21.271  11.570
99069W        W67287  11.961  36.165   3.830
99070W        W67288  18.257  39.928  10.869
99071W        W67289  10.880  34.547   2.753
99072W        W67290  11.252  22.262   0.372
99073W        W67291  36.009  36.220   4.652
99074W        W67292  11.588  24.030  13.428
99075W        W67293  41.873  34.652  13.958
99076W        W67294  41.874   1.535  12.016
99077W        W67295  17.261   5.720   3.199
99078W        W67296  16.442  40.364   1.749
99079W        W67297  25.521  14.328   4.029
99080W        W67298  23.003  25.151  13.056
99081W        W67299  31.477  35.483  14.370
99082W        W67300   9.423  20.611   3.240
99083W        W67301  16.221  37.392  12.490
99084W        W67302  10.780  26.021  13.832
99085W        W67303  36.150  24.955  11.960
99086W        W67304  23.138  12.979  14.975
99087W        W67305  44.939  21.190   4.570
99088W        W67306   2.171   9.631   3.228
99089W        W67307  30.969  10.411  11.557
99090W        W67308   5.037   2.597   0.692
99091W        W67309  38.061  18.287   0.731
99092W        W67310  34.340  21.751   3.737
99093W        W67311  37.109  16.351  13.858
99094W        W67312  38.634  15.418  13.420
99095W        W67313  22.216  22.463   4.434
99096W        W67314  22.513   5.708  11.586
99097W        W67315  40.220  22.252   0.016
99098W        W67316  35.622   0.325   2.660
99099W        W67317  16.631  23.083  10.695
99100W        W67318  21.643  16.174  11.606
99101W        W67319   2.270   1.110  12.031
99102W        W67320  37.829  19.153   3.125
99103W        W67321   5.271   6.881  11.422
99104W        W67322  28.007  34.629  11.113
99105W        W67323  29.165  44.256  14.275
99106W        W67324  30.703   6.410  12.334
99107W        W67325  11.274  33.369  14.945
99108W        W67326  43.497  31.690  13.013
99109W        W67327  31.403  37.510   3.257
99110W        W67328  34.016  36.498  12.750
99111W        W67329  15.339  12.601   4.131
99112W        W67330  19.293  34.413   3.791
99113W        W67331  13.145  32.726   0.813
99114W        W67332  37.441  38.832  10.686
99115W        W67333  43.564  11.331  14.501
99116W        W67334  19.818  37.433  12.886
99117W        W67335  12.585   5.358   2.874
99118W        W67336  10.196   0.299   1.253
99119W        W67337   3.474  14.143   1.920
99120W        W67338  22.536  18.270  10.894
99121W        W67339  43.931  20.374   3.287
99122W        W67340  25.698   5.647   4.063
99123W        W67341   0.394   5.002  10.689
99124W        W67342  37.193  42.805  14.942
99125W        W67343  13.417   5.199   1.692
99126W        W67344  28.736   2.898   4.636
99127W        W67345  26.154  22.021   9.859
99128W        W67346   3.104  16.167  11.627
99129W        W67347  11.071  33.550  14.069
99130W        W67348  18.110  39.027  10.834
99131W        W67349  26.919  33.604  11.932
99132W        W67350  22.632  40.204  10.426
99133W        W67351  41.962  15.719   2.442
99134W        W67352  11.093   0.506  14.387
99135W        W67353  22.642   4.206   0.377
99136W        W67354  22.567   7.345   1.537
99137W        W67355   0.771  24.005   5.052
99138W        W67356  39.293   7.244   0.953
99139W        W67357  24.242  11.280  13.157
99140W        W67358  17.586  37.666  12.496
99141W        W67359  15.631  20.043  13.462
99142W        W67360  36.771  18.458   4.498
99143W        W67361  19.532  39.994  14.091
99144W        W67362   0.004  22.026   2.779
99145W        W67363  17.777  41.229  13.865
99146W        W67364  44.766  44.068  12.825
99147W        W67365  13.151  10.257   0.381
99148W        W67366  32.660  41.850   2.971
99149W        W67367  36.426  31.005  14.452
99150W        W67368  26.658  17.763   1.775
99151W        W67369  35.359   0.149   3.082
99152W        W67370  26.879  14.227   1.639
99153W        W67371  12.227  28.694  10.642
99154W        W67372   5.763   7.487  14.156
99155W        W67373   7.908  40.035   3.726
99156W        W67374  14.070  24.996   1.086
99157W        W67375  34.055  28.600  11.998
99158W        W67376  14.827  34.601   1.770
99159W        W67377  43.927  26.953   4.108
99160W        W67378  15.978  18.155  11.545
99161W        W67379  34.154  44.563   1.794
99162W        W67380  44.626  35.033  12.966
99163W        W67381  42.729  36.871   4.459
99164W        W67382  40.919  22.960   2.322
99165W        W67383  36.523  44.738   1.830
99166W        W67384   6.417  42.162  11.817
99167W        W67385   1.694  14.554   4.139
99168W        W67386  14.462  41.390  13.420
99169W        W67387  13.379  21.706   2.312
99170W        W67388   8.319  36.925   3.191
99171W        W67389   7.643  22.701  14.973
99172W        W67390  42.885  40.036   0.925
99173W        W67391  16.646  13.950  12.052
99174W        W67392  11.533   4.283  11.468
99175W        W67393  19.594  10.860   0.426
99176W        W67394   8.383  31.272  13.948
99177W        W67395  16.037  22.177  12.594
99178W        W67396  38.356  35.879   3.795
99179W        W67397  12.808  27.477   1.205
99180W        W67398  16.765   9.711   2.441
99181W        W67399  29.006  13.763   4.339
99182W        W67400  14.065   6.203   3.835
99183W        W67401   0.910  32.406   4.556
99184W        W67402   7.265   9.367   4.289
99185W        W67403  34.680   8.367  12.200
99186W        W67404  43.729   4.258  13.472
99187W        W67405  37.776  25.013   2.847
99188W        W67406  14.640  30.716   4.175
99189W        W67407  18.107  34.531   2.503
99190W        W67408  16.871  20.571   1.768
99191W        W67409   8.305  40.628  11.956
99192W        W67410  38.516  29.590  12.211
99193W        W67411  36.896  19.084   4.577
99194W        W67412  21.453  25.624   4.092
99195W        W67413  30.018  31.061   0.699
99196W        W67414  13.196  42.415   0.806
99197W        W67415  26.000  10.587   4.197
99198W        W67416  12.661  41.420  13.324
99199W        W67417  11.140   2.795   2.273
99200W        W67418   7.314  30.478   1.197
99201W        W67419   0.361  34.334  13.064
99202W        W67420  39.912  24.094   4.761
99203W        W67421  31.968  20.865  10.242
99204W        W67422  16.610  11.410  11.081
99205W        W67423  37.970  21.536  12.043
99206W        W67424   6.920  26.580  12.472
99207W        W67425  18.684  43.811   0.400
99208W        W67426   1.127  12.149   0.387
99209W        W67427  11.197  18.660   4.696
99210W        W67428  22.996  20.544  13.988
99211W        W67429   4.165   0.987  14.338
99212W        W67430  15.235  32.555  12.980
99213W        W67431  32.009  22.347   0.224
99214W        W67432  28.589   0.168  12.882
99215W        W67433   6.501  19.688  12.472
99216W        W67434  42.438  39.971  14.555
99217W        W67435  25.901  25.020   3.367
99218W        W67436  13.286  16.010   1.809
99219W        W67437  19.733   4.461   1.850
99220W        W67438   2.331  41.905   4.562
99221W        W67439   8.843  37.584   4.939
99222W        W67440  28.105  24.514   2.808
99223W        W67441  20.156  22.166  13.368
99224W        W67442  33.497  32.600  10.655
99225W        W67443  17.076  11.957   3.620
99226W        W67444  16.240  31.006  14.257
99227W        W67445  39.375  22.021  10.681
99228W        W67446  38.436  29.427  10.816
99229W        W67447   5.863  36.222   1.207
99230W        W67448  37.490  20.566   2.359
99231W        W67449  10.781  16.184   1.270
99232W        W67450  28.774  41.731  13.801
99233W        W67451  20.497   6.275  14.883
99234W        W67452  23.016  33.083   1.335
99235W        W67453   5.751   6.738   3.801
99236W        W67454  27.966  21.741  13.426
99237W        W67455  38.275  10.885   2.666
99238W        W67456  35.941  18.242   0.220
99239W        W67457  11.441  19.280  12.445
99240W        W67458   8.797   8.578  11.686
99241W        W67459   5.893  43.324  14.203
99242W        W67460   9.819   5.241   3.046
99243W        W67461  22.201  38.365  12.141
99244W        W67462   9.757  23.110   0.907
99245W        W67463  37.738   5.944   1.246
99246W        W67464   3.638  34.875  11.388
99247W        W67465  43.951  37.532   2.657
99248W        W67466  21.971  39.344   4.193
99249W        W67467  24.128  19.449  13.452
99250W        W67468   9.887  20.019   0.497
99251W        W67469  29.598  23.280   5.066
99252W        W67470  35.467  14.171   0.336
99253W        W67471  13.913  39.007  14.959
99254W        W67472  14.142  10.640   4.304
99255W        W67473  20.641  29.352  12.483
99256W        W67474  25.088  17.940   1.716
99257W        W67475   9.384  25.141   1.959
99258W        W67476  35.621  10.778   1.908
99259W        W67477  10.300  22.562  11.475
99260W        W67478  23.155  13.202   2.675
99261W        W67479  15.277  27.170  13.066
99262W        W67480  31.926   0.924  11.266
99263W        W67481  42.253  25.189  13.301
99264W        W67482  13.514   3.969  11.961
99265W        W67483  29.116  18.741  14.777
99266W        W67484  33.133  31.543   1.297
99267W        W67485   8.591  44.797  13.462
99268W        W67486  38.545  28.625   0.247
99269W        W67487  41.664  41.874  11.004
99270W        W67488  34.866   9.866   3.475
99271W        W67489  13.741  12.857   4.774
99272W        W67490   2.798  22.107  13.515
99273W        W67491   6.198  37.221   5.049
99274W        W67492   3.592   6.381   4.812
99275W        W67493   2.351  41.758   2.451
99276W        W67494  18.821  34.425   1.312
99277W        W67495   7.139  28.001   0.377
99278W        W67496  22.518   2.695   0.510
99279W        W67497  37.423   8.856  14.389
99280W        W67498  16.968  23.983   2.282
99281W        W67499  28.204  38.643  13.322
99282W        W67500  43.138  13.516  13.405
99283W        W67501  26.701  29.013   2.269
99284W        W67502  44.383   3.765  14.965
99285W        W67503   7.485  29.536  10.610
99286W        W67504  34.999  35.680   4.552
99287W        W67505  26.236  30.276   3.398
99288W        W67506  30.062   6.171  12.859
99289W        W67507  20.743  18.813  13.737
99290W        W67508  43.411   7.786  12.013
99291W        W67509  16.208  31.998  14.398
99292W        W67510  38.064  33.519  13.513
99293W        W67511  25.570   7.931  13.395
99294W        W67512  37.534  40.615  14.438
99295W        W67513  40.033  22.136   2.671
99296W        W67514  31.529   8.668  11.530
99297W        W67515  13.534   2.865   0.228
99298W        W67516  20.562   9.185  11.021
99299W        W67517  10.395  36.014   3.898
99300W        W67518  26.628  43.557   4.104
99301W        W67519   0.511   9.480  13.307
99302W        W67520   6.857  34.715  13.486
99303W        W67521  27.544  35.501   4.041
99304W        W67522  23.041   5.294   2.585
99305W        W67523  38.485  17.542  14.636
99306W        W67524  36.580  23.644  11.407
99307W        W67525  28.370   5.726  11.156
99308W        W67526  40.150   0.437  11.661
99309W        W67527  30.003  20.572  14.384
99310W        W67528  26.690  26.240  11.271
99311W        W67529  33.408  10.595   2.343
99312W        W67530  38.606  28.569   3.986
99313W        W67531  19.685  38.430   3.277
99314W        W67532   8.845  14.714   3.200
99315W        W67533  10.901  35.012   2.970
99316W        W67534  18.571  29.481  12.868
99317W        W67535  10.875  31.425  12.572
99318W        W67536  21.342  17.510   3.273
99319W        W67537  15.287  19.484  12.002
99320W        W67538  36.962  25.387   0.719
99321W        W67539   1.787  11.650  13.360
99322W        W67540   6.987  41.443   3.741
99323W        W67541  21.683  27.005  10.767
99324W        W67542  17.832  11.191   3.763
99325W        W67543   7.634   1.754   4.566
99326W        W67544  19.659  24.479   4.858
99327W        W67545  39.787   6.252  13.614
99328W        W67546  43.012  37.379  14.338
99329W        W67547  36.425  10.781  10.642
99330W        W67548  35.923  31.957  14.432
99331W        W67549  42.027   0.753  11.684
99332W        W67550  37.449  27.881   1.761
99333W        W67551  13.132  42.137  13.656
99334W        W67552  14.656  33.830  14.663
99335W        W67553   0.837  30.519  12.181
99336W        W67554  16.256  15.920   4.506
99337W        W67555  16.114  13.479   3.094
99338W        W67556  19.182   8.263  13.644
99339W        W67557  15.516  37.573   4.567
99340W        W67558   9.156  27.978  11.852
99341W        W67559   0.719   8.820  12.607
99342W        W67560  41.046  35.048   2.371
99343W        W67561  27.403  40.806  14.418
99344W        W67562  21.609  24.778  10.679
99345W        W67563  34.709  36.115  14.020
99346W        W67564   6.625  42.325  14.942
99347W        W67565  25.996  40.078  12.469
99348W        W67566  23.407  35.611   0.931
99349W        W67567  25.526   5.207  12.549
99350W        W67568  34.515  32.603  14.450
99351W        W67569   6.228   3.616  13.949
99352W        W67570  18.701  43.449   2.440
99353W        W67571  22.658  22.637   1.944
99354W        W67572  10.790   3.648  14.831
99355W        W67573   5.369  18.124  13.452
99356W        W67574  23.116   2.349  14.418
99357W        W67575  28.988   6.850  11.488
99358W        W67576  23.368  44.060   1.771
99359W        W67577  34.371  35.573  13.337
99360W        W67578  34.160  35.868   2.451
99361W        W67579   2.765  35.909  14.973
99362W        W67580  18.786  22.186   4.745
99363W        W67581   8.883  14.834  12.748
99364W        W67582  43.716  34.451  12.465
99365W        W67583  33.575  44.957   2.267
99366W        W67584  32.936  43.779   3.631
99367W        W67585   7.655  27.613   4.429
99368W        W67586  13.132  40.548  11.306
99369W        W67587   9.655   9.213   0.005
99370W        W67588   6.442  23.707   0.045
99371W        W67589  32.396   7.120   4.141
99372W        W67590  23.399  18.109   0.329
99373W        W67591  27.317  33.123  13.861
99374W        W67592  12.672  12.323   2.927
99375W        W67593  43.712  44.979  12.839
99376W        W67594   7.239   8.903   0.782
99377W        W67595   2.043   4.889  14.478
99378W        W67596  22.194   5.614   4.068
99379W        W67597  17.565  14.168   1.183
99380W        W67598  32.557  17.740   4.465
99381W        W67599  10.642  43.395  12.882
99382W        W67600   5.602   4.035  10.945
99383W        W67601  35.319  20.558  11.097
99384W        W67602   2.312  38.289   2.611
99385W        W67603   9.854  41.090   4.549
99386W        W67604  44.415  33.592   1.372
99387W        W67605  35.292   5.709   0.853
99388W        W67606  20.542  13.633  10.654
99389W        W67607   1.869  37.070  14.404
99390W        W67608   7.577   0.432  14.105
99391W        W67609  15.695  31.976  12.551
99392W        W67610  38.305  21.609   3.606
99393W        W67611  17.030  42.100   2.634
99394W        W67612  39.857   1.754   5.386
99395W        W67613   8.770  41.881  10.654
99396W        W67614  30.436  28.669   0.019
99397W        W67615  31.018  18.677  11.901
99398W        W67616  14.258  38.364   4.920
99399W        W67617  36.827  29.085  10.641
99400W        W67618   1.663  16.270  14.056
99401W        W67619  31.539  33.437   3.013
99402W        W67620   8.974  16.426  14.861
99403W        W67621  26.419  38.795   2.765
99404W        W67622   8.860  11.164  11.526
99405W        W67623   4.126  33.328   1.772
99406W        W67624  40.720  24.231  14.955
99407W        W67625  28.637  24.764  11.690
99408W        W67626  28.166   3.399   0.057
99409W        W67627  26.735  36.474  13.939
99410W        W67628  41.804  31.534  13.736
99411W        W67629  13.373  19.942  12.920
99412W        W67630  40.904  27.050  12.931
99413W        W67631  18.487   2.287   2.431
99414W        W67632  41.992  17.726  13.921
99415W        W67633  30.267  13.745  13.346
99416W        W67634  37.623  17.232   4.576
99417W        W67635  10.468  29.020  10.626
99418W        W67636  12.129   6.440  12.450
99419W        W67637   5.681  32.534   0.738
99420W        W67638   9.924  13.114   2.200
99421W        W67639  31.215  35.108   3.711
99422W        W67640  15.705  18.616  11.083
99423W        W67641  28.994  44.675  13.575
99424W        W67642  16.073  14.005  13.985
99425W        W67643  23.233  24.050  14.995
99426W        W67644  31.686  21.278  11.503
99427W        W67645  26.766  15.182   1.844
99428W        W67646   9.711  21.757  11.717
99429W        W67647  18.655  36.378  11.029
99430W        W67648  12.307  22.079   0.841
99431W        W67649  30.520   4.688   1.257
99432W        W67650   4.791  30.911   0.905
99433W        W67651   5.175  37.926  14.185
99434W        W67652  21.942  26.949   3.249
99435W        W67653  22.586  33.907  14.442
99436W        W67654  41.083  15.386   0.976
99437W        W67655  44.714  38.284  11.623
99438W        W67656  38.404  25.595  11.386
99439W        W67657   4.497  42.792  11.056
99440W        W67658  31.843  36.901   2.704
99441W        W67659  26.794  13.518   3.029
99442W        W67660   7.636  35.824  12.600
99443W        W67661  39.636  44.242   1.387
99444W        W67662  13.446  23.098  12.770
99445W        W67663   1.415  11.401   2.357
99446W        W67664  11.830  37.879   4.261
99447W        W67665  11.457  27.018   1.124
99448W        W67666  36.497  39.055  13.309
99449W        W67667  28.949  42.059  12.818
99450W        W67668  12.652  12.767  13.978
99451W        W67669  34.756  32.530   3.898
99452W        W67670  38.986   8.483   0.887
99453W        W67671  28.140   9.119   3.450
99454W        W67672  37.812   0.064  11.636
99455W        W67673   4.205  10.833   1.181
99456W        W67674   6.332   3.850  12.961
99457W        W67675  25.307  43.725   2.014
99458W        W67676  27.601   4.192   0.056
99459W        W67677  42.987  21.126  12.493
99460W        W67678  12.908   2.158   2.247
99461W        W67679  27.211   1.378  11.733
99462W        W67680  13.122  23.497   1.664
99463W        W67681  30.858   4.156   3.203
99464W        W67682   7.619  36.775   1.340
99465W        W67683  35.385  22.563   4.196
99466W        W67684  17.087  16.200  12.443
99467W        W67685  27.347  40.546  10.719
99468W        W67686  23.494  34.355  10.731
99469W        W67687   3.354  41.503  10.578
99470W        W67688  41.526  16.796   0.973
99471W        W67689  41.291   9.114   3.697
99472W        W67690  32.362  11.335  11.326
99473W        W67691   3.660  29.572   3.066
99474W        W67692  12.171  19.100   4.362
99475W        W67693   8.389  39.340   1.745
99476W        W67694  36.820   5.919  13.316
99477W        W67695  38.021  24.498  13.592
99478W        W67696  14.747  16.903   4.189
99479W        W67697   2.286  31.106   0.894
99480W        W67698  14.118  44.385   4.123
99481W        W67699   5.858  14.796   1.700
99482W        W67700  23.474  17.595   0.324
99483W        W67701  39.426  26.925  11.883
99484W        W67702  14.637  25.628  13.844
99485W        W67703  38.712  22.702  12.543
99486W        W67704  27.614   8.244   3.729
99487W        W67705  38.879  30.087   2.284
99488W        W67706  44.229  37.577   2.212
99489W        W67707   5.269  21.684   1.495
99490W        W67708  34.534  33.477  13.882
99491W        W67709  43.559  32.504  11.074
99492W        W67710  41.691   7.836   3.262
99493W        W67711  33.462  44.376  13.371
99494W        W67712  39.790   8.596   3.851
99495W        W67713  39.497  38.312  14.255
99496W        W67714   2.194  10.587  10.493
99497W        W67715  13.325   5.187   2.267
99498W        W67716   7.366   2.237  14.870
99499W        W67717  26.365   3.934   4.652
99500W        W67718   3.923  37.851   4.386
99501W        W67719  42.558  24.539   4.161
99502W        W67720  28.217  21.163  12.436
99503W        W67721  31.648  42.311  11.207
99504W        W67722  16.117  10.164   4.385
99505W        W67723  36.156  43.286   0.443
99506W        W67724  26.651  32.393  14.057
99507W        W67725   5.015  37.686  11.621
99508W        W67726  27.426  42.331   3.721
99509W        W67727  21.111  15.437  14.574
99510W        W67728  21.827   9.270  14.913
99511W        W67729  35.076  37.961  11.197
99512W        W67730  33.426  21.617  14.343
99513W        W67731  10.054  32.607  13.018
99514W        W67732  21.851   6.834  11.994
99515W        W67733  18.825  24.674   3.802
99516W        W67734  44.559  20.464  11.036
99517W        W67735  14.943  15.850   4.423
99518W        W67736  24.429  31.427  10.453
99519W        W67737  28.129  15.379  12.110
99520W        W67738  40.717  17.292  11.564
99521W        W67739  14.278   3.433   2.301
99522W        W67740  31.252   8.932  12.763
99523W        W67741   6.060  34.902   2.310
99524W        W67742  27.269   7.439  12.513
99525W        W67743  18.106   9.464  11.171
99526W        W67744   6.454  36.553  10.903
99527W        W67745  28.319  43.391  14.559
99528W        W67746  11.393  31.722  14.286
99529W        W67747  37.965   8.299   3.374
99530W        W67748  23.985  11.146   1.644
99531W        W67749  35.044   1.520  12.077
99532W        W67750  41.323  11.306  14.052
99533W        W67751  15.737  25.871  12.850
99534W        W67752  15.691   1.680   1.681
99535W        W67753  32.162  24.226   3.068
99536W        W67754  27.376   1.951   1.437
99537W        W67755  36.285  42.598   5.091
99538W        W67756   4.849  39.042   0.553
99539W        W67757  21.034   3.539  11.592
99540W        W67758  17.303   8.789   0.498
99541W        W67759  22.838  37.228   1.383
99542W        W67760  30.389  16.819   0.834
99543W        W67761  39.053  40.865  14.083
99544W        W67762  19.287  32.184   2.016
99545W        W67763   2.624  16.005  12.509
99546W        W67764   7.909  19.186   3.656
99547W        W67765  27.648  16.546  13.450
99548W        W67766  14.664  31.194  13.126
99549W        W67767  39.696  32.278  14.287
99550W        W67768  32.137  31.513   1.223
99551W        W67769  12.227   0.592  11.922
99552W        W67770  11.227   6.310  14.514
99553W        W67771  22.442  40.363  13.433
99554W        W67772  35.490  36.426   0.122
99555W        W67773  24.301  17.704  14.431
99556W        W67774  36.232   0.504  12.476
99557W        W67775  32.022  29.970  14.917
99558W        W67776  35.532  21.625   4.696
99559W        W67777  42.260  21.669   1.668
99560W        W67778  32.350   1.992  12.030
99561W        W67779   8.290  43.174   3.791
99562W        W67780   9.131  30.945   2.141
99563W        W67781  36.894  28.451  13.261
99564W        W67782  35.150  26.423  14.214
99565W        W67783  40.335   7.269  14.928
99566W        W67784  27.207  10.688   3.474
99567W        W67785  16.335  41.041   1.391
99568W        W67786  40.785  24.486  11.168
99569W        W67787  42.428  40.797  11.863
99570W        W67788  34.183  40.310   3.672
99571W        W67789   0.552  33.033  14.623
99572W        W67790  15.815   2.558  10.911
99573W        W67791   3.843   4.282   4.452
99574W        W67792  39.587  16.543  12.390
99575W        W67793  38.379  41.213   4.074
99576W        W67794   0.033  16.290   1.897
99577W        W67795  39.402  22.463   0.361
99578W        W67796  16.339   0.375  13.086
99579W        W67797  20.016  31.519  11.166
99580W        W67798  35.505  23.289   2.707
99581W        W67799   4.362  29.619  11.540
99582W        W67800  38.365   1.337  11.669
99583W        W67801  31.170  31.982  13.820
99584W        W67802  39.781  40.670   2.752
99585W        W67803  24.802  12.206  12.850
99586W        W67804   0.603  18.310   1.934
99587W        W67805   8.970  25.589  14.898
99588W        W67806  12.890  39.554   1.521
99589W        W67807  17.611  15.115   1.369
99590W        W67808   3.611  12.198   3.246
99591W        W67809  19.209  18.320  12.605
99592W        W67810   6.117  35.658  12.330
99593W        W67811  31.625  11.417   0.768
99594W        W67812  11.843  39.772  12.391
99595W        W67813  29.575   7.903  11.244
99596W        W67814   5.784  37.484  11.015
99597W        W67815  44.718  27.069   4.031
99598W        W67816  26.716  17.098  13.035
99599W        W67817  12.297  13.815  12.059
99600W        W67818  19.948   7.900   4.842
99601W        W67819  14.716   0.013  13.804
99602W        W67820  39.819  28.293  12.069
99603W        W67821  39.868  30.401  13.743
99604W        W67822  23.238  17.286  11.159
99605W        W67823  44.830  44.841   4.672
99606W        W67824  23.380   2.150   4.487
99607W        W67825  33.374  30.929  14.375
99608W        W67826  25.126  13.720  13.537
99609W        W67827   9.314  14.539   5.388
99610W        W67828  30.086  21.577   2.866
99611W        W67829   3.231   0.384  10.312
99612W        W67830  20.571  23.528  13.151
99613W        W67831  37.562  16.811  11.933
99614W        W67832  20.782  25.976  14.025
99615W        W67833  13.050  12.772   0.765
99616W        W67834  44.517  11.382  14.186
99617W        W67835   3.247  33.692   3.147
99618W        W67836  14.693  10.436  13.421
99619W        W67837  18.991  37.377   4.431
99620W        W67838   4.813  14.180   2.217
99621W        W67839  38.710  24.427  13.088
99622W        W67840   3.665  28.491   1.935
99623W        W67841   7.363  24.776   2.186
99624W        W67842   6.149  36.095  12.604
99625W        W67843  11.708  10.374   2.901
99626W        W67844   1.946  39.336  12.504
99627W        W67845   4.200  27.171  14.869
99628W        W67846  29.530  23.203  12.507
99629W        W67847  34.511  29.898  13.286
99630W        W67848   9.871  38.794  11.169
99631W        W67849   2.759  23.182   3.744
99632W        W67850  34.995  35.409  12.388
99633W        W67851  25.700  38.337  14.836
99634W        W67852  32.128  37.338   2.618
99635W        W67853  42.795  33.177   0.749
99636W        W67854   8.891  21.417  13.103
99637W        W67855  23.660  40.849   4.756
99638W        W67856   1.358  43.003  13.590
99639W        W67857  18.649   6.891   3.371
99640W        W67858  12.864  34.965   0.340
99641W        W67859  34.481  31.377  14.547
99642W        W67860  24.146   9.618  11.582
99643W        W67861   7.473   9.420  14.562
99644W        W67862  16.073  40.754   1.755
99645W        W67863  10.875  19.185  13.505
99646W        W67864  26.434  15.094   0.467
99647W        W67865  33.215  34.357  13.847
99648W        W67866   5.479  32.085  11.572
99649W        W67867   5.905  21.725   1.812
99650W        W67868  26.977   1.728   2.420
99651W        W67869  14.706  30.219  14.330
99652W        W67870  19.418  31.063  11.473
99653W        W67871   3.317  12.859  13.514
99654W        W67872  23.584  44.878   3.739
99655W        W67873  10.209  11.295  12.875
99656W        W67874   5.753  24.325   1.296
99657W        W67875   9.025  13.145  14.575
99658W        W67876  41.013  11.670  12.034
99659W        W67877   6.753  12.619  13.346
99660W        W67878   9.790  27.206   2.360
99661W        W67879  44.904   3.062   3.763
99662W        W67880  11.891  42.047   1.734
99663W        W67881  39.424  34.473   1.487
99664W        W67882  27.691   4.305  14.553
99665W        W67883  38.365  32.701  13.142
99666W        W67884  23.269  20.653  11.827
99667W        W67885  28.100  35.910  11.843
99668W        W67886  30.501  16.230   2.861
99669W        W67887  34.628  42.855   4.213
99670W        W67888  13.660  30.884  12.654
99671W        W67889  31.056  22.674  14.296
99672W        W67890   1.976   0.871  12.930
99673W        W67891  39.872   8.792   0.646
99674W        W67892  29.011  39.946   4.476
99675W        W67893   3.481  23.551   4.818
99676W        W67894   5.234   8.171   1.061
99677W        W67895  35.014   8.597   4.626
99678W        W67896  11.193  10.694   4.682
99679W        W67897  30.425  13.681  12.846
99680W        W67898  30.450  20.487   4.519
99681W        W67899  39.630  35.936   3.611
99682W        W67900  11.788  30.329   4.103
99683W        W67901  22.502  18.133  12.292
99684W        W67902  10.353  16.194   5.060
99685W        W67903  10.040  13.838   0.885
99686W        W67904   8.452  25.706  14.883
99687W        W67905   5.398  36.470  12.556
99688W        W67906  16.712  21.667  11.679
99689W        W67907   7.317  33.837  13.317
99690W        W67908  19.631  10.740  12.401
99691W        W67909  31.575   5.737   1.020
99692W        W67910  15.774  15.534  14.014
99693W        W67911   0.984  10.752   0.283
99694W        W67912  33.446  39.749  11.012
99695W        W67913  25.142  19.652  12.574
99696W        W67914  26.481  11.259   2.552
99697W        W67915  10.107  37.927  12.515
99698W        W67916  29.895  17.599   9.493
99699W        W67917  19.995   6.157  11.897
99700W        W67918   4.194  13.299  11.190
99701W        W67919   3.298  40.997   2.111
99702W        W67920  13.829   8.669   4.884
99703W        W67921  15.849  36.521   2.807
99704W        W67922   4.846  18.645  12.530
99705W        W67923   3.028   9.206   0.573
99706W        W67924  14.463  12.841   5.065
99707W        W67925  42.243  25.746   1.800
99708W        W67926  25.693  10.471   3.248
99709W        W67927  19.611   4.835   0.451
99710W        W67928  36.163   0.955   1.382
99711W        W67929  26.136  33.513  13.966
99712W        W67930  15.361  12.913  10.406
99713W        W67931  43.753   5.301   1.992
99714W        W67932  42.069   7.343  14.746
99715W        W67933   7.397   3.346   2.222
99716W        W67934  22.804  41.350  13.401
99717W        W67935  10.340   6.756   1.644
99718W        W67936  20.455  21.511   0.461
99719W        W67937  15.538   3.807  13.043
99720W        W67938  15.183   7.168   1.498
99721W        W67939  40.588   1.826   0.856
99722W        W67940  41.756  39.276  14.540
99723W        W67941  28.488   0.395   3.035
99724W        W67942   1.791   4.330   3.299
99725W        W67943  27.951  26.536   1.403
99726W        W67944   3.335  14.379  10.818
99727W        W67945  34.833   8.863  14.538
99728W        W67946  29.979  34.669   4.564
99729W        W67947  32.765  26.233  11.323
99730W        W67948   5.867   5.303  13.396
99731W        W67949   1.291   2.021  10.741
99732W        W67950  28.331   4.058   0.284
99733W        W67951   3.630   0.391   0.364
99734W        W67952  25.238  17.934  11.500
99735W        W67953  37.820   0.984  12.908
99736W        W67954  16.110  12.891  11.104
99737W        W67955  11.116  25.823   0.443
99738W        W67956  43.435  23.604  11.218
99739W        W67957  26.984  10.421  11.973
99740W        W67958  17.659  17.553   3.155
99741W        W67959  24.660   0.378  11.548
99742W        W67960  12.653  35.152  14.892
99743W        W67961   2.121  21.243   3.597
99744W        W67962  20.978  25.161  10.304
99745W        W67963  14.375  20.579   2.814
99746W        W67964  40.117  24.526  11.494
99747W        W67965   2.855  19.139  11.725
99748W        W67966  27.046  12.718  14.331
99749W        W67967  29.546  12.250  14.039
99750W        W67968  32.672   4.830  12.038
99751W        W67969  39.579   3.220  12.878
99752W        W67970  38.480   7.479   1.680
99753W        W67971  33.576  17.798  11.886
99754W        W67972  38.028  36.050   4.162
99755W        W67973  17.657  18.107   0.957
99756W        W67974  30.604  10.818  11.536
99757W        W67975   6.106  24.172   3.941
99758W        W67976  11.964  39.845   0.381
99759W        W67977   9.672  43.359   4.540
99760W        W67978  25.152  37.260  14.396
99761W        W67979  18.581  15.961  11.125
99762W        W67980  15.250   8.758  13.445
99763W        W67981   7.782  30.100   3.086
99764W        W67982   5.250   0.739   4.902
99765W        W67983  31.171  22.274   2.254
99766W        W67984   6.679  36.374  12.872
99767W        W67985  11.625  35.311   1.270
99768W        W67986   9.883  16.453   2.826
99769W        W67987  17.663   7.701   4.361
99770W        W67988   3.917  35.173   0.309
99771W        W67989  24.990   9.370   2.867
99772W        W67990  26.646  26.314   4.098
99773W        W67991  38.119  44.953   4.255
99774W        W67992  20.263  14.572  11.897
99775W        W67993  16.572  15.320   0.610
99776W        W67994  31.524  13.317  13.784
99777W        W67995  18.541  12.043   4.908
99778W        W67996  44.020   7.320   0.067
99779W        W67997  16.554  15.514   2.865
99780W        W67998  10.183   6.457  14.383
99781W        W67999  16.752  43.203   4.808
99782W        W68000  40.461  44.213  12.998
99783W        W68001  29.472  32.871   4.603
99784W        W68002  29.282  10.108   3.208
99785W        W68003  17.172   3.545   2.804
99786W        W68004  26.053  14.086  14.283
99787W        W68005   4.361  12.876  12.961
99788W        W68006  24.013  33.696  10.613
99789W        W68007  10.386  13.795  12.618
99790W        W68008  41.436  11.835  14.729
99791W        W68009  24.162   6.300  11.138
99792W        W68010   4.667  30.996  13.962
99793W        W68011   0.343  27.189  13.813
99794W        W68012  43.726  37.804  12.342
99795W        W68013  18.583  43.088  13.228
99796W        W68014  27.716  44.412  12.135
99797W        W68015  14.302  16.345   2.115
99798W        W68016  13.426  32.117   1.209
99799W        W68017  38.125   7.609   3.245
99800W        W68018  35.651   8.710   0.825
99801W        W68019   2.752  21.145  14.456
99802W        W68020  40.396  28.455   4.401
99803W        W68021   8.967   7.861  13.949
99804W        W68022  15.337  36.450   1.493
99805W        W68023   8.080  44.821  13.611
99806W        W68024  15.458  12.616  14.773
99807W        W68025  35.408   2.849   4.075
99808W        W68026  16.936  24.166  13.761
99809W        W68027  30.634  37.637   5.206
99810W        W68028  32.828  29.182  13.964
99811W        W68029   7.876  16.569   2.900
99812W        W68030  32.259  36.341  12.471
99813W        W68031  15.492  20.243  10.565
99814W        W68032  25.388   5.841  10.766
99815W        W68033  21.195  31.423  11.603
99816W        W68034  24.169  35.623  14.398
99817W        W68035  17.052  16.274  14.197
99818W        W68036   5.813   0.013   4.116
99819W        W68037   0.725  40.483   2.717
99820W        W68038  13.607   9.423   4.279
99821W        W68039  12.226  41.450  11.135
99822W        W68040  28.036  16.708  12.669
99823W        W68041  41.050  15.293  13.467
99824W        W68042  41.532   4.822   1.654
99825W        W68043  11.772  41.391  11.414
99826W        W68044  11.526  16.120   9.666
99827W        W68045  32.585  37.599   2.683
99828W        W68046   8.620  41.643  12.120
99829W        W68047  41.399  18.833   4.253
99830W        W68048  20.849  37.549   0.298
99831W        W68049  20.277  13.758  13.559
99832W        W68050  32.063  24.217   3.574
99833W        W68051  38.937  39.128  10.480
99834W        W68052  16.468  30.382   3.911
99835W        W68053  44.812   9.164  11.252
99836W        W68054  32.714  29.559   3.075
99837W        W68055  10.779  36.564   3.707
99838W        W68056   8.426  39.842  13.277
99839W        W68057  37.548   0.683  14.093
99840W        W68058   2.739  18.199   3.795
99841W        W68059  24.465   8.191  12.321
99842W        W68060  30.023  32.638  12.171
99843W        W68061  36.525  37.235  10.775
99844W        W68062  12.907  27.562  11.272
99845W        W68063  25.161  37.063   3.699
99846W        W68064  17.701  12.983  14.087
99847W        W68065  30.003   2.953   2.825
99848W        W68066   8.369  39.922   0.386
99849W        W68067  44.537  43.564  14.600
99850W        W68068   2.757  39.376  10.750
99851W        W68069   1.508   6.444   1.495
99852W        W68070  40.983  20.650  11.271
99853W        W68071  34.910   4.823  11.640
99854W        W68072  39.751  30.636   3.260
99855W        W68073  21.256  39.580  14.531
99856W        W68074   5.608  23.065  11.723
99857W        W68075  28.208  34.609  12.881
99858W        W68076   8.344   2.287   1.732
99859W        W68077   9.816  22.551   2.399
99860W        W68078  40.976  43.228  11.994
99861W        W68079  32.301  19.103  13.548
99862W        W68080  19.034  25.165   0.906
99863W        W68081  39.936   9.204  10.740
99864W        W68082  12.414  14.584   4.602
99865W        W68083  24.160  36.928  11.607
99866W        W68084  24.112  28.102   2.196
99867W        W68085   5.301  24.217   3.277
99868W        W68086   1.349  31.203   3.349
99869W        W68087   8.249   6.403  10.777
99870W        W68088  24.044  24.111   4.995
99871W        W68089   3.354  44.715  11.488
99872W        W68090  12.607  16.336  11.131
99873W        W68091   7.763  26.692  11.128
99874W        W68092  16.522  31.084   3.647
99875W        W68093  26.607  26.108  14.755
99876W        W68094  40.310  12.746  12.520
99877W        W68095  42.975  32.282  12.459
99878W        W68096  37.709  32.063  13.368
99879W        W68097  33.389   2.968   0.761
99880W        W68098  21.903  43.370   1.818
99881W        W68099   8.184  16.485   2.338
99882W        W68100  39.753   5.899   3.269
99883W        W68101  44.005   8.887  14.723
99884W        W68102  31.127  15.597   3.358
99885W        W68103   7.566  21.073  14.776
99886W        W68104   2.677  15.105  12.464
99887W        W68105   4.234  27.844   0.429
99888W        W68106   3.279   7.230  14.302
99889W        W68107   0.439   7.588  12.868
99890W        W68108  24.518  24.404   1.984
99891W        W68109  38.987  37.598   4.422
99892W        W68110  41.979  14.044   0.950
99893W        W68111   8.566  36.000   0.653
99894W        W68112  36.121  34.091   2.297
99895W        W68113  25.553   6.786   4.198
99896W        W68114  43.598  35.444   2.637
99897W        W68115  13.187  43.930   1.965
99898W        W68116  17.116  15.105  11.602
99899W        W68117  24.671  37.777   0.820
99900W        W68118  23.655  37.724   0.388
99901W        W68119  28.143   9.371   1.375
99902W        W68120  19.048  23.002   2.227
99903W        W68121  19.592  26.944   0.373
99904W        W68122   4.089  22.180   1.012
99905W        W68123   6.251   7.693  14.015
99906W        W68124  38.852  42.399   3.575
99907W        W68125  33.884  31.028  10.308
99908W        W68126  29.099   2.888  13.274
99909W        W68127  43.295  17.645   3.626
99910W        W68128  22.666   4.698  11.464
99911W        W68129  23.067  22.592  13.988
99912W        W68130   9.204  42.802   3.245
99913W        W68131  37.777  13.782   0.370
99914W        W68132  39.973  21.103  13.435
99915W        W68133  43.407  37.350   1.062
99916W        W68134  26.413   4.457  13.714
99917W        W68135   4.672  39.932  14.019
99918W        W68136  39.587  14.298  10.785
99919W        W68137  24.344  19.129  11.561
99920W        W68138   1.251   1.867   3.427
99921W        W68139  20.804   8.915  11.806
99922W        W68140  35.912  24.995   4.059
99923W        W68141  43.760  19.095  13.816
99924W        W68142  12.576  42.970  10.315
99925W        W68143  33.260  33.573  13.371
99926W        W68144   4.229   9.312   2.796
99927W        W68145   5.975  24.569   0.896
99928W        W68146  22.203  42.756  13.463
99929W        W68147  42.679  12.254   4.549
99930W        W68148  27.006  15.322   1.301
99931W        W68149  43.199  18.573   0.877
99932W        W68150  29.559  20.368   3.733
99933W        W68151  39.570  18.051   1.790
99934W        W68152   8.321  25.538   4.332
99935W        W68153   0.739  43.076   3.269
99936W        W68154  43.000  19.597  11.496
99937W        W68155  23.080  37.314   9.356
99938W        W68156  13.616   1.293  14.576
99939W        W68157  11.661  22.049  14.548
99940W        W68158  24.624  14.819   2.162
99941W        W68159  36.955  38.862   3.609
99942W        W68160  29.903  40.871   2.125
99943W        W68161  13.062  33.360  13.835
99944W        W68162  19.541  15.976   3.885
99945W        W68163  21.755  24.647   2.766
99946W        W68164  33.895  35.613   2.008
99947W        W68165  21.639  40.031   2.766
99948W        W68166  43.493  13.767  12.598
99949W        W68167   0.866  44.817  14.222
99950W        W68168  34.851   1.228  11.424
99951W        W68169  42.212  34.619   0.811
99952W        W68170  42.577  17.157   3.408
99953W        W68171   1.979  27.176  10.670
99954W        W68172  36.351   9.817   3.340
99955W        W68173   6.924  38.564   0.701
99956W        W68174  19.618   9.273  11.107
99957W        W68175  23.290  24.727   3.756
99958W        W68176  43.791  32.179  12.399
99959W        W68177  23.708  16.072  13.534
99960W        W68178   0.008  34.856   4.366
99961W        W68179  35.810  15.660   0.470
99962W        W68180  36.442  13.819  14.411
99963W        W68181  31.839  24.013   1.722
99964W        W68182  43.392   1.941  14.253
99965W        W68183   4.640   8.979   5.018
99966W        W68184  21.640  41.921  14.220
99967W        W68185  38.841  21.945  11.140
99968W        W68186  16.910  16.327   0.991
99969W        W68187  32.913  13.239   1.896
99970W        W68188  27.933  17.991  14.406
99971W        W68189  27.483  27.622  14.487
99972W        W68190  13.110  21.684  12.876
99973W        W68191  12.286  29.282  13.465
99974W        W68192  24.996  18.136   1.234
99975W        W68193  31.049   9.369  11.356
99976W        W68194  10.375  32.209  10.678
99977W        W68195  31.960  43.591  12.210
99978W        W68196  24.737  22.153   2.362
99979W        W68197  17.231  30.648  10.698
99980W        W68198  16.062  21.255   0.590
99981W        W68199  13.811  18.596  11.484
99982W        W68200   4.706  21.007  11.223
99983W        W68201   3.291  14.717  11.198
99984W        W68202  36.056  30.623  10.773
99985W        W68203   5.424   1.295  13.815
99986W        W68204   7.506  19.938   1.755
99987W        W68205  37.594  28.620   2.191
99988W        W68206  37.867   7.254  12.878
99989W        W68207  15.008   8.553  14.990
99990W        W68208  25.357  44.737   2.782
99991W        W68209  39.035  37.594   2.396
99992W        W68210  32.036   5.569  11.434
99993W        W68211  25.575   2.996   1.303
99994W        W68212  34.580   8.653   3.173
99995W        W68213  27.506  12.148  13.264
99996W        W68214  14.145  24.984  12.021
99997W        W68215  36.657  18.689  11.911
99998W        W68216  23.700  11.310   2.793
99999W        W68217  14.668  24.725   0.081
    0W        W68218   2.282  29.397  13.501
    1W        W68219  12.510  27.470  14.782
    2W        W68220  25.192   7.351   2.675
    3W        W68221   6.275  35.279   2.600
    4W        W68222  38.660  39.806   1.010
    5W        W68223  30.888  24.148   4.543
    6W        W68224   6.545  10.682  11.525
    7W        W68225  40.621  34.549  13.400
    8W        W68226   4.647  15.093  13.980
    9W        W68227  11.140  43.852   2.206
   10W        W68228  30.426  36.018   1.847
   11W        W68229  24.215  36.353   9.884
   12W        W68230  43.597  41.478   2.767
   13W        W68231  30.019  32.678   2.260
   14W        W68232  33.695   4.306   1.404
   15W        W68233  42.491   3.861   1.227
   16W        W68234   8.055   9.319   1.918
   17W        W68235   8.147  19.670  14.746
   18W        W68236  22.606  40.107   3.192
   19W        W68237   7.353   1.863  14.393
   20W        W68238  39.453   9.207  12.559
   21W        W68239   3.746  26.950   3.775
   22W        W68240  42.788  43.952   2.773
   23W        W68241  41.282  18.803   0.412
   24W        W68242  35.855  36.267  12.808
   25W        W68243  24.178  39.403  13.477
   26W        W68244  16.244  19.071   0.311
   27W        W68245  35.982   2.558  12.327
   28W        W68246  21.766   2.083  12.383
   29W        W68247  11.275  26.294   2.208
   30W        W68248  15.734   0.504   2.170
   31W        W68249   9.157   2.829   4.345
   32W        W68250  25.255  24.040   2.305
   33W        W68251  23.605  37.913   1.836
   34W        W68252  17.145   8.750  13.964
   35W        W68253  21.189  28.676   2.238
   36W        W68254  44.324  16.478   4.858
   37W        W68255  10.126  32.649  13.522
   38W        W68256  23.752  18.108   1.820
   39W        W68257   2.441  16.839  10.451
   40W        W68258  21.628  35.714   3.949
   41W        W68259  23.531  10.075  12.520
   42W        W68260   7.366   6.757   4.749
   43W        W68261   0.372  24.047   0.481
   44W        W68262  30.239   6.822   1.635
   45W        W68263   0.755  37.047   1.127
   46W        W68264  24.012  17.243  13.092
   47W        W68265  11.069   8.903  11.179
   48W        W68266  35.223  17.491   3.221
   49W        W68267   4.339  44.750   1.032
   50W        W68268  21.983  27.074   2.337
   51W        W68269   0.765  11.097  11.549
   52W        W68270  13.102  31.013   0.360
   53W        W68271  18.493  30.422   5.113
   54W        W68272  25.999  34.028   0.481
   55W        W68273  40.862  13.260   1.468
   56W        W68274  11.766  14.371   3.250
   57W        W68275  10.679  44.940   1.981
   58W        W68276   7.572   2.349  14.405
   59W        W68277  22.615   0.522  10.514
   60W        W68278  41.803  30.340   3.279
   61W        W68279  40.568  40.282  10.424
   62W        W68280  32.635  16.321   0.340
   63W        W68281   8.291  18.310  12.459
   64W        W68282  20.346   1.642  14.736
   65W        W68283   4.770  25.166   0.537
   66W        W68284  34.872   0.741  13.420
   67W        W68285  26.825  32.099   5.055
   68W        W68286  17.827  27.994   3.089
   69W        W68287  18.773  21.095   2.850
   70W        W68288  31.001  32.608  10.931
   71W        W68289   7.935  32.918  11.428
   72W        W68290  32.671  17.822   3.944
   73W        W68291  30.362   5.203   3.657
   74W        W68292  32.921   2.073   2.811
   75W        W68293  35.139   2.473  13.800
   76W        W68294  30.354  23.003   1.646
   77W        W68295  44.036  42.813   2.813
   78W        W68296   6.813  44.016  10.939
   79W        W68297  34.995  13.349   1.276
   80W        W68298  33.118  14.306  11.444
   81W        W68299  19.529  16.311   3.497
   82W        W68300  25.316  11.326   3.278
   83W        W68301  19.180  36.114  13.834
   84W        W68302  14.698  31.649   0.330
   85W        W68303  34.981  40.944   4.923
   86W        W68304  20.630  40.334   0.330
   87W        W68305  27.509  33.587   2.213
   88W        W68306  29.363  41.862   4.581
   89W        W68307   1.304  12.237  11.375
   90W        W68308  41.539  17.162  11.134
   91W        W68309  11.737  17.022   0.709
   92W        W68310  43.358   1.986   0.419
   93W        W68311  37.167  25.829  14.794
   94W        W68312  20.539   4.549   3.311
   95W        W68313  29.210  34.804  11.588
   96W        W68314  30.385  34.400   3.646
   97W        W68315   3.681   9.946  12.807
   98W        W68316  20.100  34.080   4.090
   99W        W68317  19.698  37.307   1.926
  100W        W68318  41.302  18.344   2.400
  101W        W68319  26.467  25.230  13.469
  102W        W68320  28.834  30.775  11.090
  103W        W68321  44.693   8.747  12.609
  104W        W68322  16.287  17.321  11.427
  105W        W68323  28.750  13.668  13.465
  106W        W68324  43.202  21.290   1.436
  107W        W68325   4.470  39.551   3.758
  108W        W68326  31.133  22.493   4.189
  109W        W68327   5.729  35.133  14.127
  110W        W68328  41.287   9.136  13.505
  111W        W68329  27.721  41.618  14.154
  112W        W68330  27.633  18.383   0.615
  113W        W68331  41.718  37.442   2.408
  114W        W68332   7.642  20.010  12.901
  115W        W68333   9.753  27.989   4.575
  116W        W68334  40.967  12.878   1.082
  117W        W68335   1.796  33.815  12.006
  118W        W68336  19.181  23.759  14.358
  119W        W68337   6.440  14.090   3.983
  120W        W68338  42.522  19.735   3.187
  121W        W68339  17.713  42.800  12.035
  122W        W68340  37.421  13.105  14.876
  123W        W68341  28.590  13.135  13.048
  124W        W68342  19.160  40.500   2.005
  125W        W68343  37.963  23.995  13.410
  126W        W68344   1.600  34.143   0.789
  127W        W68345  31.717  29.402  12.053
  128W        W68346   0.253  23.502  10.650
  129W        W68347  32.928  15.159   2.279
  130W        W68348  39.544  31.226  14.334
  131W        W68349  38.114  23.998   2.314
  132W        W68350  34.082  18.492   3.268
  133W        W68351  27.040   6.554   2.772
  134W        W68352  37.502   9.866   1.483
  135W        W68353  30.863  29.407  14.915
  136W        W68354   3.248   9.604   0.289
  137W        W68355  11.646  29.845  11.780
  138W        W68356  31.000  20.506   1.636
  139W        W68357  38.964  15.502  14.844
  140W        W68358  44.293   6.554  14.351
  141W        W68359  35.572  15.844   1.650
  142W        W68360  31.636  21.223  14.840
  143W        W68361  14.649   1.050   4.559
  144W        W68362  20.248  17.142  11.857
  145W        W68363  17.608  21.739  13.863
  146W        W68364  37.784  27.117   1.373
  147W        W68365  32.168  41.218   0.723
  148W        W68366  44.344   2.247   0.881
  149W        W68367   9.924  30.862   0.095
  150W        W68368  34.180  33.450  14.867
  151W        W68369   0.859  10.399   1.008
  152W        W68370   8.203   6.211   3.730
  153W        W68371   0.313  32.409  11.177
  154W        W68372  21.963  43.969  12.985
  155W        W68373  18.454  39.312   4.257
  156W        W68374   0.743  30.543   1.758
  157W        W68375   9.412  12.863  12.054
  158W        W68376  40.442  41.099  11.023
  159W        W68377  13.350  43.337   4.426
  160W        W68378   2.635  17.068  14.917
  161W        W68379  21.796   9.795  12.765
  162W        W68380  29.001  26.651  12.344
  163W        W68381  42.689   4.751   3.108
  164W        W68382  30.064  14.223   2.888
  165W        W68383  16.697  27.038   4.587
  166W        W68384  33.543   0.310   0.435
  167W        W68385   8.681  21.660  12.207
  168W        W68386  30.491  41.568   1.378
  169W        W68387  28.523  36.529  11.431
  170W        W68388  28.027   2.506  12.887
  171W        W68389   7.674  31.637  11.207
  172W        W68390  11.885  43.755   1.812
  173W        W68391  35.912   0.119   4.187
  174W        W68392  14.310  42.323  11.141
  175W        W68393  24.164  17.565   1.432
  176W        W68394   6.255  34.392  11.126
  177W        W68395  14.285  42.507   1.606
  178W        W68396  37.339  38.508  11.915
  179W        W68397  23.026  38.602   2.607
  180W        W68398   2.371  24.591  12.363
  181W        W68399  15.533  25.234  13.970
  182W        W68400  23.974  20.743  13.978
  183W        W68401  34.916  26.705   2.839
  184W        W68402  25.425  22.251   0.204
  185W        W68403   5.425   2.689  12.989
  186W        W68404   1.881  35.586  12.993
  187W        W68405   3.256   4.326   5.035
  188W        W68406  33.978  39.484  13.008
  189W        W68407   6.243   5.765   2.165
  190W        W68408   5.887  12.149   0.423
  191W        W68409  10.775  40.221  12.077
  192W        W68410  30.731  13.096   4.524
  193W        W68411   5.561  32.923   4.185
  194W        W68412  13.594  41.033   3.842
  195W        W68413  10.882  15.301  11.904
  196W        W68414  15.667  25.666   4.053
  197W        W68415   9.782  14.177   3.203
  198W        W68416  19.691  29.933   3.936
  199W        W68417   8.464  17.597   3.567
  200W        W68418  21.086  12.673  12.873
  201W        W68419  33.924   7.106   2.611
  202W        W68420  36.326  35.126  14.965
  203W        W68421   3.763  33.973   1.307
  204W        W68422  29.142   4.356  11.125
  205W        W68423  21.635  32.599   3.098
  206W        W68424  12.140  44.607   3.328
  207W        W68425  31.056   2.575  11.483
  208W        W68426   3.330  34.130  11.802
  209W        W68427  20.148   2.844   4.352
  210W        W68428  13.639  40.468   2.922
  211W        W68429  33.490  27.510  13.489
  212W        W68430   4.427  26.142   0.840
  213W        W68431  38.939  31.777   4.865
  214W        W68432  41.517   5.631   3.752
  215W        W68433  37.646  28.696  11.088
  216W        W68434   5.059  21.525  14.933
  217W        W68435  20.104  35.657  12.050
  218W        W68436  15.804  33.319  11.052
  219W        W68437  27.293   5.977   1.884
  220W        W68438  17.072   4.887  10.618
  221W        W68439  42.093   7.060   4.979
  222W        W68440  34.079  41.319   0.939
  223W        W68441  24.279  14.691   3.102
  224W        W68442   2.506  40.420  12.852
  225W        W68443  34.741  10.848  11.503
  226W        W68444   0.710  31.012  14.811
  227W        W68445  20.684  24.676  11.747
  228W        W68446  18.527  26.214  13.835
  229W        W68447  37.860  28.157   1.951
  230W        W68448  34.013  14.364  10.632
  231W        W68449  35.268  16.772   1.657
  232W        W68450  44.802  43.789   4.822
  233W        W68451  29.318   8.484   4.348
  234W        W68452   2.730   3.726  12.145
  235W        W68453  21.283  36.418  11.450
  236W        W68454  39.141  42.835  11.705
  237W        W68455  33.387  14.258  14.535
  238W        W68456  42.908   9.391  12.077
  239W        W68457  30.657  44.520   3.619
  240W        W68458  19.264  25.551   3.370
  241W        W68459   1.276  13.308  14.076
  242W        W68460  26.019   1.924   3.961
  243W        W68461  43.564  23.503   0.419
  244W        W68462  29.579  30.092  14.853
  245W        W68463  12.704  36.650  11.390
  246W        W68464  43.589  10.759   1.694
  247W        W68465  33.576  40.408   2.718
  248W        W68466   2.641  21.884  13.963
  249W        W68467  31.720  44.899  11.987
  250W        W68468  18.515  36.910   1.865
  251W        W68469  30.242  40.515   3.215
  252W        W68470  19.562  11.758   4.728
  253W        W68471  20.391  24.440  12.688
  254W        W68472  39.468  16.425  10.892
  255W        W68473   7.878  29.234   1.310
  256W        W68474  31.145  35.324   1.923
  257W        W68475   1.361   3.629   2.162
  258W        W68476  44.237  31.475   4.469
  259W        W68477  35.991  13.782  13.001
  260W        W68478  22.448  34.410   0.722
  261W        W68479  38.857   5.544  11.657
  262W        W68480  32.497  37.450   4.345
  263W        W68481  15.676  28.132   4.183
  264W        W68482  18.700  33.136  12.152
  265W        W68483   2.185  23.142   3.744
  266W        W68484  42.920   3.235   3.342
  267W        W68485  38.474  10.509  14.291
  268W        W68486  10.750  39.034   2.781
  269W        W68487  23.218  23.729  13.351
  270W        W68488   6.211   6.330   1.135
  271W        W68489  27.564  22.661   3.712
  272W        W68490   1.398  31.327  14.347
  273W        W68491  35.172  32.685  11.978
  274W        W68492  29.443  32.066  12.493
  275W        W68493  19.199  33.132  10.608
  276W        W68494  17.068  36.932  14.268
  277W        W68495   4.296  22.796  11.478
  278W        W68496  24.054  31.183  13.559
  279W        W68497  43.329  31.883  12.559
  280W        W68498  37.349  35.024   3.715
  281W        W68499   8.614  31.629   0.255
  282W        W68500  18.598  25.055   2.885
  283W        W68501   1.782  39.360   1.488
  284W        W68502  19.793  20.702   2.653
  285W        W68503  10.607  35.163   0.628
  286W        W68504   6.638  44.288  13.821
  287W        W68505  31.212  31.493   1.323
  288W        W68506  25.471  28.867  11.175
  289W        W68507  30.504  34.134   0.363
  290W        W68508   9.793  17.033   1.465
  291W        W68509   0.820   9.178   2.313
  292W        W68510  19.274  22.781  13.037
  293W        W68511  37.113  28.739   0.479
  294W        W68512  18.852  30.949   1.814
  295W        W68513  19.437  25.322   5.079
  296W        W68514  15.722   0.816  13.608
  297W        W68515  23.082  18.326  11.083
  298W        W68516  21.024   6.771   3.814
  299W        W68517  43.864  10.884  12.073
  300W        W68518  13.193  41.474  14.869
  301W        W68519   7.892  30.375   5.004
  302W        W68520  28.162  31.557  14.798
  303W        W68521   9.786  25.088  10.769
  304W        W68522   4.227  22.723   2.725
  305W        W68523  24.493  10.221   4.508
  306W        W68524  15.051  14.365   1.169
  307W        W68525   2.559  18.997  12.517
  308W        W68526  13.680   4.502   4.788
  309W        W68527  18.618  35.487   4.827
  310W        W68528   4.092   0.856   3.694
  311W        W68529  28.946  10.368   1.817
  312W        W68530  43.862  25.890  12.489
  313W        W68531  28.628  34.365  13.854
  314W        W68532  21.943  29.865  10.470
  315W        W68533  22.115  15.170   0.756
  316W        W68534  30.392  25.591  12.068
  317W        W68535  28.155  32.000   2.268
  318W        W68536  36.088  13.304   2.698
  319W        W68537  33.384  31.131  10.538
  320W        W68538  13.370  24.494   1.695
  321W        W68539  39.282  25.509   1.692
  322W        W68540   3.768  17.662   1.479
  323W        W68541  21.779  16.766   1.090
  324W        W68542  41.098  22.902   1.839
  325W        W68543  20.749  13.255   1.295
  326W        W68544  15.238  30.418  14.436
  327W        W68545  38.315  14.418  13.406
  328W        W68546   4.269  12.591   0.774
  329W        W68547  12.231  37.409  14.129
  330W        W68548   1.381  39.947   4.673
  331W        W68549  13.516  10.932  10.688
  332W        W68550  35.009  42.943  11.001
  333W        W68551  20.526  21.235   3.759
  334W        W68552  40.264  42.957  12.351
  335W        W68553  15.372   7.473   4.151
  336W        W68554  35.092  18.744   4.592
  337W        W68555   4.973   3.359  10.789
  338W        W68556  25.570  44.367   1.926
  339W        W68557   9.597   7.342  13.560
  340W        W68558   2.879  31.683  11.731
  341W        W68559  14.596  26.632   2.600
  342W        W68560  31.985  15.197  14.458
  343W        W68561   2.306  16.089   0.247
  344W        W68562  20.716   8.330   0.016
  345W        W68563  14.008  12.211  10.776
  346W        W68564  29.676  40.532  12.560
  347W        W68565  26.741  11.592   4.647
  348W        W68566  39.410  19.174  13.887
  349W        W68567  32.387  23.277   4.260
  350W        W68568  14.557  14.086   3.421
  351W        W68569   2.343  23.758   3.329
  352W        W68570  14.529  19.626   0.158
  353W        W68571  26.298  42.445  12.158
  354W        W68572   3.199  21.673   0.870
  355W        W68573  41.556   6.237  13.523
  356W        W68574  40.740  35.549  10.792
  357W        W68575  39.585   5.862   4.642
  358W        W68576  24.064  23.348  11.568
  359W        W68577  34.337  17.159  11.566
  360W        W68578  20.257  24.629  12.018
  361W        W68579  33.461  23.700  10.966
  362W        W68580  41.332  22.049  14.749
  363W        W68581   2.360  22.090   2.860
  364W        W68582  29.952  44.294   1.659
  365W        W68583  14.971  13.451   9.810
  366W        W68584  17.648  26.957  11.145
  367W        W68585  16.209  37.395  11.971
  368W        W68586  38.378  14.493   1.291
  369W        W68587  41.604  16.795   1.898
  370W        W68588   2.366  41.722  12.923
  371W        W68589   0.957  17.311  10.315
  372W        W68590   1.902  30.423   4.085
  373W        W68591   9.175   1.214  14.773
  374W        W68592  21.434  24.222   0.975
  375W        W68593   7.948  38.430  14.556
  376W        W68594  40.555  44.486   1.223
  377W        W68595  16.515   4.092  13.008
  378W        W68596  19.117   1.690  13.395
  379W        W68597  43.334  31.872  10.677
  380W        W68598  25.518   3.275  11.758
  381W        W68599  17.718   8.251   3.578
  382W        W68600   9.469  13.859   1.746
  383W        W68601  38.354  30.111   2.286
  384W        W68602  26.693  28.404   1.749
  385W        W68603  39.471   8.218  11.558
  386W        W68604  42.026  41.346  14.826
  387W        W68605  31.078  34.146   3.702
  388W        W68606  37.670  20.583   5.013
  389W        W68607  41.471  42.291  13.888
  390W        W68608   3.671  43.338   2.442
  391W        W68609  19.172  10.441   2.696
  392W        W68610   0.905  20.259  10.705
  393W        W68611  36.853  32.971   0.294
  394W        W68612   4.945  37.643  13.347
  395W        W68613  16.621  40.452   4.735
  396W        W68614  12.690  21.475   1.438
  397W        W68615  13.743  20.631  12.385
  398W        W68616   1.381  11.431  13.607
  399W        W68617  20.675   0.515   2.418
  400W        W68618   3.079  42.976   0.666
  401W        W68619  14.214  22.809  14.468
  402W        W68620  21.226  14.238   4.573
  403W        W68621  15.889  36.194  13.846
  404W        W68622  42.088   5.691  12.527
  405W        W68623  29.045  36.845  12.388
  406W        W68624  40.028  36.270   3.723
  407W        W68625   5.770  17.605  12.660
  408W        W68626   9.467  12.521  13.555
  409W        W68627  10.322  10.415  12.901
  410W        W68628  29.286  17.713  10.303
  411W        W68629  22.557  25.604  12.092
  412W        W68630  26.968  10.632  13.567
  413W        W68631  39.377   2.214   3.698
  414W        W68632  37.542  30.133   0.066
  415W        W68633  37.510   5.421  14.374
  416W        W68634  12.006  35.362   4.528
  417W        W68635  37.879  16.230  12.595
  418W        W68636  40.383  39.047   1.248
  419W        W68637  19.293  28.578  13.107
  420W        W68638   6.997  12.586   2.307
  421W        W68639  11.768  24.950  11.134
  422W        W68640  32.014  18.398  13.992
  423W        W68641  20.777  15.050  14.406
  424W        W68642  16.225   1.480   3.326
  425W        W68643  12.171  19.601  12.382
  426W        W68644   3.026  41.648   0.458
  427W        W68645  24.245   7.745  12.412
  428W        W68646  25.658   0.823   3.884
  429W        W68647  37.325  18.665   0.307
  430W        W68648  42.163  27.265   3.262
  431W        W68649  27.707   5.773   1.533
  432W        W68650  23.471  31.445   1.961
  433W        W68651  26.930   8.228  10.778
  434W        W68652  29.104  24.009   4.760
  435W        W68653  40.277  40.871   2.744
  436W        W68654  39.841  22.048   3.610
  437W        W68655  42.939  19.197  11.194
  438W        W68656  19.942  27.035  11.069
  439W        W68657  44.967  32.573   3.219
  440W        W68658  36.395  18.799  10.804
  441W        W68659  35.786  18.285  11.947
  442W        W68660  30.187   3.732   0.523
  443W        W68661  24.049  14.711   3.580
  444W        W68662  35.741  27.414   3.559
  445W        W68663   6.093  22.868  10.360
  446W        W68664  23.542  18.899   2.148
  447W        W68665  19.026  11.955  10.650
  448W        W68666   2.194   9.860  13.981
  449W        W68667  34.411  25.000   4.852
  450W        W68668  38.061  39.882  14.417
  451W        W68669   7.945   1.398   1.197
  452W        W68670  21.142  12.253  11.657
  453W        W68671  44.934  27.480   2.827
  454W        W68672  26.445  22.073  13.149
  455W        W68673  44.234  43.265   1.479
  456W        W68674  26.948   1.059   0.688
  457W        W68675   3.295  28.415  13.460
  458W        W68676  29.311   5.794   3.103
  459W        W68677  25.196  25.064   2.597
  460W        W68678  10.382  27.862  12.956
  461W        W68679  21.740  16.570   3.250
  462W        W68680  18.282  16.725  10.263
  463W        W68681  23.281  35.972   0.262
  464W        W68682   0.591  22.799   2.374
  465W        W68683  18.164  18.209   2.161
  466W        W68684  31.607  14.289  12.920
  467W        W68685   3.605  44.773  12.422
  468W        W68686  26.661  44.597   3.195
  469W        W68687  35.651  19.576   2.829
  470W        W68688  22.503  24.546   1.413
  471W        W68689   7.158  12.547   0.007
  472W        W68690  20.267  40.283   3.020
  473W        W68691  34.003   1.801   1.352
  474W        W68692  14.302  42.583   4.260
  475W        W68693  20.344  14.829  10.621
  476W        W68694  38.718   9.991   0.921
  477W        W68695  35.846  16.205   2.264
  478W        W68696   8.282  32.815  12.063
  479W        W68697   8.371  14.608  11.237
  480W        W68698  40.832  42.334  11.597
  481W        W68699  42.919   6.400  13.745
  482W        W68700  21.935  35.854   5.147
  483W        W68701  15.125  28.197   2.644
  484W        W68702   8.857  44.502   1.188
  485W        W68703  34.109  15.041  12.832
  486W        W68704  30.517  35.618   3.574
  487W        W68705  21.295  34.975  11.714
  488W        W68706  25.101  30.030   2.312
  489W        W68707   3.501  42.410   4.852
  490W        W68708  27.322   2.863  12.865
  491W        W68709  16.130  23.269  10.670
  492W        W68710  19.758  39.119   1.395
  493W        W68711  39.578  26.507   1.584
  494W        W68712  33.467  33.059  12.091
  495W        W68713  31.639  37.049   3.167
  496W        W68714   6.928  18.760   4.641
  497W        W68715  26.632  40.289  11.146
  498W        W68716  32.178  11.270  10.781
  499W        W68717  41.896  24.280   1.875
  500W        W68718  32.109  14.292   0.486
  501W        W68719  15.084  36.925   1.645
  502W        W68720   2.315  15.524   4.132
  503W        W68721  27.108  41.829  14.807
  504W        W68722  19.169  16.770   4.771
  505W        W68723  29.170  41.385   3.183
  506W        W68724  13.608   1.741   2.758
  507W        W68725   0.370   9.763   3.657
  508W        W68726   6.681   0.432   1.401
  509W        W68727  40.838  35.983   1.437
  510W        W68728  31.328  36.862   2.765
  511W        W68729  44.079  18.910  11.466
  512W        W68730  25.002  19.610   5.097
  513W        W68731  36.039  26.646   3.166
  514W        W68732  42.574  28.196   3.281
  515W        W68733  27.084  31.451  14.716
  516W        W68734   9.874  44.099   3.123
  517W        W68735  30.940  31.884   1.823
  518W        W68736  21.486   0.425  10.708
  519W        W68737  13.038  23.677   2.144
  520W        W68738  26.124  25.615   2.189
  521W        W68739  29.473   7.678   0.432
  522W        W68740  16.832  25.593   0.693
  523W        W68741  31.997  29.701   0.761
  524W        W68742   5.652  19.791  13.718
  525W        W68743  15.061  39.418   4.178
  526W        W68744  43.975  34.902  12.432
  527W        W68745  33.708   5.927  12.723
  528W        W68746  41.461  43.509   0.812
  529W        W68747  44.282  22.563   2.610
  530W        W68748  16.738  38.910  11.546
  531W        W68749  17.173  37.006   4.377
  532W        W68750  16.591  10.164   2.264
  533W        W68751  23.341  29.949   1.192
  534W        W68752   6.154  30.910   2.955
  535W        W68753  41.611  10.927   4.033
  536W        W68754  12.638  24.517  12.896
  537W        W68755  34.421   6.681  14.988
  538W        W68756  17.548  13.316   2.446
  539W        W68757  40.889  17.735  12.502
  540W        W68758  25.057  38.662   2.853
  541W        W68759  18.515  22.186   3.260
  542W        W68760  38.562  37.476  13.412
  543W        W68761  37.464  41.137  13.303
  544W        W68762  36.530  17.523  11.182
  545W        W68763  42.798  39.236   2.198
  546W        W68764  43.364  27.593   2.756
  547W        W68765  24.753  32.543  11.032
  548W        W68766   4.996  29.641   1.693
  549W        W68767   1.393  14.556   1.862
  550W        W68768  19.567  39.904  10.657
  551W        W68769  17.029  42.856   4.519
  552W        W68770  19.211  35.598  13.819
  553W        W68771   5.926  29.971  14.774
  554W        W68772  35.640  40.906   2.176
  555W        W68773  44.278  16.795   0.881
  556W        W68774  28.306   6.145   0.810
  557W        W68775  11.854   1.066  14.840
  558W        W68776  28.268   5.691   5.487
  559W        W68777  38.939  32.935  10.587
  560W        W68778   8.237   7.768   3.436
  561W        W68779  42.762   3.629  13.967
  562W        W68780   0.076   5.766   2.375
  563W        W68781  12.817  21.912   2.359
  564W        W68782  34.422  10.575   0.483
  565W        W68783  18.231  21.223  12.972
  566W        W68784  20.286   2.371   3.644
  567W        W68785  35.917  32.384  11.357
  568W        W68786  34.994  16.630   2.860
  569W        W68787  10.904  38.314   0.973
  570W        W68788   3.281  23.199   0.494
  571W        W68789  29.394  18.324  12.516
  572W        W68790   2.431  16.492  11.370
  573W        W68791  43.852  39.569  11.217
  574W        W68792   5.237  43.430   1.456
  575W        W68793  25.996   7.748  14.586
  576W        W68794   0.485  31.423   1.779
  577W        W68795   9.906  29.783   0.392
  578W        W68796  23.485  26.553   1.317
  579W        W68797  12.217  17.094  10.597
  580W        W68798  29.564   0.457   0.924
  581W        W68799  43.554  28.224   4.251
  582W        W68800  13.000  34.061  13.294
  583W        W68801  27.559  32.201   0.990
  584W        W68802   9.261  18.024   4.164
  585W        W68803   4.548  43.754   1.399
  586W        W68804  40.038  38.712   2.243
  587W        W68805  27.614  15.824  12.947
  588W        W68806  22.240  23.645  14.967
  589W        W68807  44.550   3.475  10.535
  590W        W68808   2.326  21.219   2.570
  591W        W68809  35.537  41.417   4.469
  592W        W68810   8.154  18.671   4.474
  593W        W68811  29.091  12.624   0.316
  594W        W68812  27.995   7.186   2.450
  595W        W68813   6.661  30.370   1.670
  596W        W68814  40.962  17.016   2.797
  597W        W68815  14.285  27.228   0.971
  598W        W68816   7.786  19.012   0.048
  599W        W68817   3.691   8.309   3.305
  600W        W68818  30.942  14.124   3.238
  601W        W68819  44.337  36.032  13.419
  602W        W68820  21.322  35.040   1.306
  603W        W68821  40.365  10.175   1.415
  604W        W68822  21.865   7.812   4.233
  605W        W68823  22.762  43.046   4.695
  606W        W68824  34.702  41.793   2.305
  607W        W68825  10.347  44.846   4.138
  608W        W68826  14.233   8.871   0.638
  609W        W68827  11.214  16.981   1.247
  610W        W68828  38.546   4.991  13.404
  611W        W68829  36.020   5.874   1.698
  612W        W68830   7.157  31.541   1.269
  613W        W68831  16.322   4.294   4.013
  614W        W68832  41.502  27.452  11.600
  615W        W68833   1.038  16.967   5.117
  616W        W68834  30.651  36.657  10.683
  617W        W68835   4.747   1.027   0.740
  618W        W68836  35.205  43.760  13.835
  619W        W68837   4.493  36.939   2.580
  620W        W68838  17.213  30.466   1.811
  621W        W68839   1.777  17.661  14.795
  622W        W68840  13.324  42.515  10.326
  623W        W68841  13.845  33.134   1.250
  624W        W68842  10.648  15.850  10.675
  625W        W68843  23.797   1.918  11.936
  626W        W68844  23.201  23.989  10.603
  627W        W68845  16.654  22.572  11.508
  628W        W68846  31.022  38.918   3.976
  629W        W68847  22.283  14.306  12.433
  630W        W68848  17.318  40.730  13.504
  631W        W68849  28.136  43.850   0.940
  632W        W68850  13.133   5.163   0.664
  633W        W68851  41.219  15.124   0.263
  634W        W68852  39.468  26.979  12.898
  635W        W68853  21.082  17.695   2.890
  636W        W68854  44.967   9.800   4.115
  637W        W68855  43.881  43.405  10.692
  638W        W68856   6.453  20.771  11.040
  639W        W68857  31.607  32.361   1.128
  640W        W68858   4.926  35.371  12.610
  641W        W68859  34.033  28.006   2.733
  642W        W68860  38.345  17.681   3.717
  643W        W68861   2.487  43.354   0.939
  644W        W68862  35.827   1.404   4.121
  645W        W68863  39.519  38.083  13.392
  646W        W68864  28.306  13.236   4.174
  647W        W68865  36.129  26.739  12.845
  648W        W68866  10.672  28.692   4.660
  649W        W68867  34.569  20.241   4.585
  650W        W68868   9.591  29.645   3.296
  651W        W68869  20.029  39.071   3.839
  652W        W68870   3.279  38.924   3.619
  653W        W68871  35.358  28.555  12.601
  654W        W68872  21.506  32.104  12.555
  655W        W68873  19.637  36.630   0.790
  656W        W68874  26.183  16.188  13.928
  657W        W68875  26.116  17.846   1.701
  658W        W68876  34.862  19.699  12.398
  659W        W68877   9.312   2.014  14.248
  660W        W68878   4.472  28.107  13.442
  661W        W68879  12.495   1.752   3.074
  662W        W68880   7.224  42.022   2.466
  663W        W68881  19.491  16.059  10.624
  664W        W68882  17.656  22.103   1.252
  665W        W68883  11.258  44.962   0.677
  666W        W68884  24.645  44.008  13.833
  667W        W68885  21.471   2.363  13.342
  668W        W68886  26.217  15.031  12.624
  669W        W68887  33.488  37.505  11.512
  670W        W68888  43.750  27.685  12.113
  671W        W68889  42.727   1.789   3.496
  672W        W68890  36.185   7.154   4.370
  673W        W68891   2.571  37.941   4.412
  674W        W68892  32.410   2.569  13.790
  675W        W68893  39.427  43.934   0.675
  676W        W68894  20.736  11.193  10.397
  677W        W68895  19.692   1.161  14.038
  678W        W68896   9.893  36.904   3.411
  679W        W68897  13.819  31.191   1.447
  680W        W68898  42.769   4.492  11.980
  681W        W68899  26.383  25.850  11.422
  682W        W68900  14.584   8.279   2.479
  683W        W68901  24.594  34.379   3.856
  684W        W68902   9.860   5.257  12.926
  685W        W68903   2.002  19.020   4.538
  686W        W68904  34.411  40.214  11.188
  687W        W68905  44.518  22.468   2.153
  688W        W68906  15.143  23.226  10.598
  689W        W68907   2.175  32.277   2.815
  690W        W68908   8.214  35.215  10.472
  691W        W68909  11.243  32.865  14.814
  692W        W68910  34.297  31.815   2.817
  693W        W68911  38.400   6.347  12.071
  694W        W68912  44.489   7.458  14.939
  695W        W68913  27.909  20.278  10.603
  696W        W68914   6.813  31.651  12.967
  697W        W68915  23.647  25.492   9.757
  698W        W68916   2.448  43.509   1.894
  699W        W68917  13.720  32.584   3.658
  700W        W68918  11.641  38.597  11.263
  701W        W68919  30.737  22.018   2.200
  702W        W68920   3.205  43.464  10.654
  703W        W68921  41.402  15.131   4.732
  704W        W68922   0.031  13.330  12.511
  705W        W68923  16.782  35.831  12.985
  706W        W68924  18.873   2.017  14.405
  707W        W68925  33.014  32.449  10.746
  708W        W68926  35.915  18.700   1.547
  709W        W68927  33.075   6.192   2.136
  710W        W68928  14.193  30.197  10.505
  711W        W68929   9.925  23.607   4.154
  712W        W68930   5.659  22.026   1.442
  713W        W68931  22.009  20.460   3.252
  714W        W68932  34.186  29.278   4.986
  715W        W68933  16.437  38.610  14.983
  716W        W68934  13.274   4.824   0.065
  717W        W68935  31.544  25.410   1.197
  718W        W68936  16.355  32.558  11.444
  719W        W68937   7.184  29.991   1.324
  720W        W68938  36.291  37.482   4.657
  721W        W68939  41.901  42.208   2.431
  722W        W68940   1.909  17.354   3.226
  723W        W68941  42.085  13.667  12.156
  724W        W68942  11.635  21.091  12.197
  725W        W68943   0.081  10.477   0.335
  726W        W68944  11.752  38.857  11.691
  727W        W68945  14.293   7.162  10.744
  728W        W68946  39.795   9.084   3.668
  729W        W68947  34.107  25.513   0.417
  730W        W68948  19.646  11.584   2.784
  731W        W68949   1.784  22.734   1.642
  732W        W68950  29.630   1.797  14.348
  733W        W68951  23.950  32.179   1.470
  734W        W68952  14.057  29.860  11.826
  735W        W68953  17.313   3.362  12.910
  736W        W68954   8.638  26.535   5.103
  737W        W68955  11.389  39.433   3.303
  738W        W68956  15.502  32.797   2.429
  739W        W68957   7.892  29.510  13.700
  740W        W68958  35.336  23.547   1.825
  741W        W68959  33.329  28.972   4.332
  742W        W68960  31.050  19.905   3.810
  743W        W68961  35.960  40.555  11.903
  744W        W68962  17.596   6.713   2.781
  745W        W68963  43.928  23.061  11.834
  746W        W68964  36.094  42.428  13.487
  747W        W68965  26.122  24.741  12.132
  748W        W68966  41.261  20.693  13.488
  749W        W68967   9.210  18.369   5.059
  750W        W68968  33.172   3.222  12.487
  751W        W68969   0.223  25.162   0.048
  752W        W68970  25.564  17.837   0.431
  753W        W68971   7.772  37.169  13.097
  754W        W68972  11.281  37.003   2.102
  755W        W68973  30.554  18.918   4.933
  756W        W68974  22.136  39.308   1.239
  757W        W68975  18.429  43.925   2.094
  758W        W68976  13.315  24.147  13.062
  759W        W68977   9.114  16.712  12.372
  760W        W68978  44.751  31.713   4.557
  761W        W68979  16.258  20.562   3.782
  762W        W68980  39.245   2.969  11.205
  763W        W68981  16.884   9.803  12.532
  764W        W68982  22.985  19.016   4.504
  765W        W68983  34.617  30.131   3.870
  766W        W68984  28.700  38.759   0.223
  767W        W68985  38.732   8.707  11.040
  768W        W68986  39.128  21.631   2.353
  769W        W68987   8.832  10.164   2.748
  770W        W68988  22.718  44.719  12.168
  771W        W68989  43.512  29.130  13.904
  772W        W68990  38.375  38.664   0.126
  773W        W68991  12.055  20.302   1.228
  774W        W68992   7.422   0.261   3.625
  775W        W68993  16.247   7.819   1.449
  776W        W68994   0.896  41.360  12.467
  777W        W68995  26.952  28.300   4.583
  778W        W68996  35.745  40.105  11.679
  779W        W68997   9.399   4.121  13.546
  780W        W68998  33.647   3.391  10.484
  781W        W68999  15.093  36.085   1.212
  782W        W69000  43.887  14.618   4.655
  783W        W69001  11.303  41.466   2.234
  784W        W69002  17.037  38.923  12.804
  785W        W69003  36.409  17.560  12.447
  786W        W69004  27.883   2.202   2.179
  787W        W69005  14.674  28.661  14.308
  788W        W69006  29.729  15.735   2.291
  789W        W69007  36.882  14.753  13.563
  790W        W69008  44.989  26.598  12.988
  791W        W69009  12.284  21.302   1.189
  792W        W69010  36.960  22.916  11.562
  793W        W69011  42.222  24.809   4.990
  794W        W69012  30.709   1.737   1.655
  795W        W69013  13.888  21.694   4.452
  796W        W69014  23.539  37.861   2.708
  797W        W69015  25.378  21.131   1.189
  798W        W69016  36.103  23.805   2.264
  799W        W69017  16.048  10.629   0.798
  800W        W69018  18.750  15.972   4.214
  801W        W69019  27.000  19.496  11.088
  802W        W69020  22.050  21.742   2.585
  803W        W69021  10.664   3.645   3.306
  804W        W69022  10.204  21.742   0.895
  805W        W69023   0.293  35.118  11.195
  806W        W69024  37.526  32.417  11.150
  807W        W69025  16.600  43.226  13.911
  808W        W69026   0.880  32.355   3.666
  809W        W69027  15.660  24.443   2.371
  810W        W69028  36.775  17.559  14.735
  811W        W69029  35.629  26.146  13.895
  812W        W69030  44.996  44.965   3.676
  813W        W69031  42.481  12.052   1.932
  814W        W69032   1.418  38.506  13.814
  815W        W69033  28.444  12.763  10.882
  816W        W69034  38.275  28.677  14.328
  817W        W69035  14.674   1.437  10.749
  818W        W69036   6.221  28.594   3.158
  819W        W69037   0.942  32.646   1.633
  820W        W69038  28.660  28.753  11.876
  821W        W69039  19.287  43.748  11.017
  822W        W69040  32.021  16.117   1.065
  823W        W69041  40.929  16.511   2.710
  824W        W69042  37.864  41.762  12.542
  825W        W69043  16.420  11.632   0.232
  826W        W69044  37.889  36.820   2.586
  827W        W69045  11.928  27.697   1.609
  828W        W69046  13.528   3.649   3.202
  829W        W69047  30.595  14.174  13.286
  830W        W69048  35.235  35.463  10.558
  831W        W69049  16.980  22.121   3.381
  832W        W69050  30.585  23.861   4.869
  833W        W69051  14.721  16.775  12.306
  834W        W69052   8.212  41.467   1.921
  835W        W69053  25.254  38.143   4.990
  836W        W69054   8.202  17.314  11.720
  837W        W69055  39.442  16.071   1.371
  838W        W69056  24.188  42.716   1.052
  839W        W69057  11.221  23.252  14.364
  840W        W69058   0.422  42.950  13.251
  841W        W69059  23.006  38.375   0.274
  842W        W69060   2.500  27.933   4.316
  843W        W69061  33.164   6.354   1.199
  844W        W69062   1.017  18.785   3.769
  845W        W69063  38.075  29.375   3.802
  846W        W69064  39.942  11.563   3.124
  847W        W69065  18.156  33.591   2.963
  848W        W69066   3.833  22.370   2.624
  849W        W69067  14.119   2.456  11.176
  850W        W69068  30.064   7.462   3.831
  851W        W69069  42.493  34.880  14.917
  852W        W69070  13.284  20.825   3.707
  853W        W69071   0.834  19.054  13.157
  854W        W69072  28.352  38.858   2.776
  855W        W69073  15.431  37.469  11.554
  856W        W69074  13.010  20.296  12.876
  857W        W69075  41.039  31.118  10.726
  858W        W69076  15.022   9.250  13.531
  859W        W69077  38.431   1.639   4.100
  860W        W69078  36.952  26.127  12.467
  861W        W69079  12.585  32.390  13.942
  862W        W69080  17.197  21.311   1.397
  863W        W69081  28.515   5.560   1.275
  864W        W69082  28.133   9.512  12.820
  865W        W69083  28.067  11.754  12.303
  866W        W69084  39.622   6.743   2.876
  867W        W69085  29.565  19.782  11.154
  868W        W69086  22.172  41.408  10.342
  869W        W69087  19.504   1.970  11.860
  870W        W69088  37.409  23.107  10.592
  871W        W69089  30.518  36.407  12.546
  872W        W69090  32.594  43.351   3.701
  873W        W69091  38.590   5.740  12.887
  874W        W69092  34.526   9.780  13.874
  875W        W69093  18.599  41.603  12.987
  876W        W69094  13.829   1.559   1.844
  877W        W69095   2.318  33.543   1.646
  878W        W69096  23.550  14.031   0.172
  879W        W69097  42.955  21.434  12.089
  880W        W69098  17.175   5.296  13.113
  881W        W69099  28.045  20.342   2.718
  882W        W69100  21.062  33.380   5.127
  883W        W69101  42.077  29.063  10.612
  884W        W69102  37.781  40.454  13.985
  885W        W69103  25.088  44.739  14.336
  886W        W69104  25.892  26.050  13.787
  887W        W69105   9.661  28.049   0.705
  888W        W69106  27.443  16.693  11.045
  889W        W69107   1.421  33.685   2.263
  890W        W69108  10.476  19.273  12.548
  891W        W69109  21.798  42.420  13.537
  892W        W69110   2.779  28.212   4.676
  893W        W69111  12.069   1.910  13.447
  894W        W69112  31.657  22.735   4.321
  895W        W69113   6.472  34.173   0.228
  896W        W69114  22.025   3.962  12.430
  897W        W69115  12.439   3.373  11.602
  898W        W69116   1.333  40.654  13.932
  899W        W69117  39.747  39.387  11.021
  900W        W69118  37.426  16.656  14.223
  901W        W69119   5.278   7.435  14.878
  902W        W69120  33.730   2.421   2.773
  903W        W69121   6.144  37.383   0.058
  904W        W69122  32.947  19.875   1.889
  905W        W69123  25.960  36.981   1.961
  906W        W69124   0.608  30.523   3.878
  907W        W69125  13.270  33.653   3.261
  908W        W69126  22.130  24.814   0.377
  909W        W69127  10.421  39.199   3.255
  910W        W69128   7.677   4.952   0.015
  911W        W69129  18.560  20.005   1.409
  912W        W69130  33.953  37.747  11.497
  913W        W69131  31.011  20.489  12.532
  914W        W69132  36.354  22.653   3.728
  915W        W69133  25.111  43.479   4.504
  916W        W69134  19.662  41.886  13.604
  917W        W69135  21.790  37.072   0.953
  918W        W69136  22.939  29.719  13.431
  919W        W69137  24.601  22.596  13.960
  920W        W69138  42.649  44.882   3.726
  921W        W69139  10.228  20.872   3.550
  922W        W69140   7.904  11.380   0.006
  923W        W69141   5.139  44.732   2.335
  924W        W69142   4.967  37.325   4.715
  925W        W69143  39.590  13.339  13.129
  926W        W69144  32.562  34.572   0.962
  927W        W69145  44.276   1.992  12.106
  928W        W69146   0.090   9.214   2.874
  929W        W69147  13.209  23.001  12.314
  930W        W69148  41.922  10.708   2.499
  931W        W69149  35.055  20.641   3.377
  932W        W69150   8.518  41.607  12.851
  933W        W69151  21.182  33.137   4.670
  934W        W69152  32.096  39.112  13.029
  935W        W69153  36.470  24.193  14.391
  936W        W69154  31.476  38.881  14.398
  937W        W69155  15.075  30.692   4.462
  938W        W69156  17.291  12.209   2.289
  939W        W69157  28.226   8.942   9.727
  940W        W69158   3.247  24.317  11.754
  941W        W69159  16.069  31.662  11.429
  942W        W69160  38.660  21.788  13.593
  943W        W69161  29.273  35.944  13.952
  944W        W69162  22.783  40.607  11.175
  945W        W69163  42.569  44.183  11.184
  946W        W69164  22.896  12.616   3.242
  947W        W69165  12.712  32.691  12.977
  948W        W69166  39.619  31.771  14.430
  949W        W69167  24.066   8.341  12.063
  950W        W69168   5.748  19.617   4.905
  951W        W69169   3.173  32.378   1.763
  952W        W69170  11.882  33.104   4.067
  953W        W69171  38.324  26.873  10.565
  954W        W69172  39.331  28.939  10.674
  955W        W69173  12.327  22.613  13.601
  956W        W69174   4.208  10.776   3.939
  957W        W69175   4.152  31.176   2.767
  958W        W69176  43.221   6.429  12.883
  959W        W69177  17.078  12.035   4.111
  960W        W69178  25.935  34.893   3.724
  961W        W69179  16.614   9.073  10.745
  962W        W69180  17.887  12.418   3.639
  963W        W69181  25.767  10.663  12.983
  964W        W69182  28.583   6.142  13.021
  965W        W69183  12.677  42.959   1.937
  966W        W69184  43.246  18.596  11.762
  967W        W69185   9.468  29.087  11.530
  968W        W69186  16.258   2.815  10.936
  969W        W69187  10.353   4.761   1.762
  970W        W69188  41.872  16.411  12.597
  971W        W69189   4.213  25.026   2.266
  972W        W69190  36.562  21.750  14.437
  973W        W69191  31.035  25.939   1.567
  974W        W69192  31.937  18.022  11.155
  975W        W69193   7.122  29.466   3.139
  976W        W69194  35.453  13.584   1.199
  977W        W69195   8.724  19.520  13.932
  978W        W69196  25.063  24.263   0.989
  979W        W69197  34.575  13.743   3.257
  980W        W69198  26.655  36.335  10.705
  981W        W69199   2.242   6.936  11.617
  982W        W69200  19.063   3.848  10.983
  983W        W69201  39.114  17.531   2.295
  984W        W69202  27.494  28.547   3.387
  985W        W69203  33.680  40.388   3.635
  986W        W69204  25.502  38.457   3.673
  987W        W69205   5.441  25.464  11.526
  988W        W69206  20.547  19.409   3.333
  989W        W69207   3.988   9.090   0.749
  990W        W69208  35.009  15.602  10.643
  991W        W69209  23.301  41.303   4.094
  992W        W69210   4.183  36.817  12.677
  993W        W69211  13.762  29.232  13.045
  994W        W69212  17.814  36.357  12.913
  995W        W69213  26.669  28.024   3.748
  996W        W69214  42.789   5.110  13.976
  997W        W69215   1.868  31.041  11.004
  998W        W69216  11.424  25.800   3.390
  999W        W69217  41.542  16.783   2.712
 1000W        W69218  24.460   3.401   3.752
 1001W        W69219  24.745  16.280  10.167
 1002W        W69220   0.780   5.717  14.912
 1003W        W69221  18.448  32.931  11.753
 1004W        W69222   8.658   5.529   2.899
 1005W        W69223  31.553   9.314  14.042
 1006W        W69224  11.384  22.968   2.922
 1007W        W69225  24.635  18.698  14.328
 1008W        W69226  18.585  36.327   3.173
 1009W        W69227  12.281   0.850  10.129
 1010W        W69228   3.369   7.471   1.948
 1011W        W69229  24.703   7.964  13.389
 1012W        W69230  12.688  41.275  12.786
 1013W        W69231  34.438  44.985  14.003
 1014W        W69232  36.499  10.110  13.434
 1015W        W69233  17.472  32.408  11.096
 1016W        W69234  41.779  33.155  12.966
 1017W        W69235   1.833  44.293  11.804
 1018W        W69236  18.757  30.669   0.727
 1019W        W69237  29.297  20.991   2.699
 1020W        W69238  29.199  17.225   2.203
 1021W        W69239  21.134  42.906   0.844
 1022W        W69240   8.046  33.748  10.311
 1023W        W69241  21.603  40.424  12.663
 1024W        W69242  24.190  17.264   3.328
 1025W        W69243  41.799  26.137   4.105
 1026W        W69244  30.648  21.597  14.985
 1027W        W69245  42.553   5.599   1.330
 1028W        W69246  22.750   5.220  10.183
 1029W        W69247   2.893  26.952   4.396
 1030W        W69248  41.833  18.711  13.518
 1031W        W69249  34.437  16.966  14.860
 1032W        W69250  31.165  16.177   2.389
 1033W        W69251  24.271   1.713  11.891
 1034W        W69252  40.840  38.518   0.234
 1035W        W69253  14.377  12.903  13.804
 1036W        W69254  26.631  28.063  13.561
 1037W        W69255  26.226  14.179  10.006
 1038W        W69256  13.449   8.980  13.608
 1039W        W69257  40.990  43.747  11.997
 1040W        W69258  11.970   3.191  10.495
 1041W        W69259  23.789  19.853   3.680
 1042W        W69260  24.732   2.260   1.315
 1043W        W69261  27.926  20.183   0.278
 1044W        W69262  19.733  15.135  13.699
 1045W        W69263  44.940  23.019  11.545
 1046W        W69264  41.438  20.771  12.736
 1047W        W69265  12.348  35.893  11.701
 1048W        W69266  34.813  39.322  11.506
 1049W        W69267   9.278  44.250  13.602
 1050W        W69268  15.261  42.725   1.371
 1051W        W69269  27.637  33.066   0.388
 1052W        W69270  10.579   6.767  14.831
 1053W        W69271   7.121  24.164   2.771
 1054W        W69272   5.873  16.770  14.936
 1055W        W69273  23.545   3.935  13.454
 1056W        W69274  12.213  12.683   1.253
 1057W        W69275   6.645  35.994  14.711
 1058W        W69276  31.928   3.516   2.563
 1059W        W69277  21.277  13.264   1.303
 1060W        W69278  22.140   3.679   5.065
 1061W        W69279   0.897  15.921  10.863
 1062W        W69280  25.986  36.047  11.515
 1063W        W69281  41.282  23.707  10.915
 1064W        W69282   9.846  19.519  12.110
 1065W        W69283  22.591  18.260  12.807
 1066W        W69284  30.568  13.157  12.026
 1067W        W69285  18.968  27.997   2.394
 1068W        W69286   8.787   1.191   4.286
 1069W        W69287   2.642  20.620   4.053
 1070W        W69288  13.980  42.931   4.494
 1071W        W69289  21.644  37.354   4.892
 1072W        W69290  26.200  21.529   4.901
 1073W        W69291  36.898   5.521   5.820
 1074W        W69292   0.867  25.801  14.413
 1075W        W69293  23.062  36.450  13.797
 1076W        W69294  27.049  20.329  12.310
 1077W        W69295  17.634  43.305  11.181
 1078W        W69296  41.557  10.345  10.582
 1079W        W69297  42.735  25.701  14.106
 1080W        W69298  28.167  31.657  13.304
 1081W        W69299  15.794  20.334   3.822
 1082W        W69300  20.249  30.490  14.525
 1083W        W69301   7.623  33.847   3.702
 1084W        W69302   3.893  27.078   3.306
 1085W        W69303  40.015  21.159   4.155
 1086W        W69304  23.160  22.762   2.672
 1087W        W69305  24.638  33.910   3.289
 1088W        W69306  17.240  11.708   0.620
 1089W        W69307  14.579  25.266   1.896
 1090W        W69308   8.724  28.040   3.631
 1091W        W69309  18.597  12.275  11.966
 1092W        W69310  33.317  28.483  12.508
 1093W        W69311  16.779  31.124  13.050
 1094W        W69312  28.681  40.408  11.647
 1095W        W69313  41.548  23.775  11.909
 1096W        W69314   4.739  12.347   3.666
 1097W        W69315  16.516  10.774  12.448
 1098W        W69316  10.807  44.781   4.366
 1099W        W69317  26.226   5.672  14.688
 1100W        W69318  16.202   7.635   2.374
 1101W        W69319  44.028  22.442  11.140
 1102W        W69320  38.882   6.152  14.867
 1103W        W69321  29.501   4.845   2.216
 1104W        W69322  10.850  15.971  14.934
 1105W        W69323   0.839  42.480  10.929
 1106W        W69324  16.783   9.565  10.724
 1107W        W69325  26.591  14.573   4.958
 1108W        W69326  31.498  12.583  12.399
 1109W        W69327  32.410  10.777  13.303
 1110W        W69328  26.550  17.804   3.199
 1111W        W69329  31.582  36.418  14.000
 1112W        W69330  31.400  38.100   2.871
 1113W        W69331  13.363   6.355   2.902
 1114W        W69332  35.317  19.496  11.557
 1115W        W69333  29.526   2.718   5.056
 1116W        W69334   9.042  14.428   9.753
 1117W        W69335   9.652   2.919  13.786
 1118W        W69336  20.458  29.456   0.608
 1119W        W69337  24.669  34.025   2.252
 1120W        W69338  25.986  43.886  12.025
 1121W        W69339  33.115  35.191  10.741
 1122W        W69340   6.721  17.685  12.460
 1123W        W69341  14.770  36.097  11.414
 1124W        W69342  43.847  15.023  11.175
 1125W        W69343  33.289  29.398  12.341
 1126W        W69344  29.238  25.736   2.874
 1127W        W69345  15.702  29.229  13.419
 1128W        W69346  12.579  37.503   0.348
 1129W        W69347  12.747  44.053   0.387
 1130W        W69348   2.681  41.321   3.184
 1131W        W69349  27.903  18.720  12.963
 1132W        W69350  29.036   8.376  10.804
 1133W        W69351  25.084   9.792   0.904
 1134W        W69352   8.917  11.648   1.831
 1135W        W69353  25.589   4.731  10.442
 1136W        W69354   3.836  43.009   1.422
 1137W        W69355   0.419   2.278  14.274
 1138W        W69356  34.076  19.286  14.052
 1139W        W69357   7.324  21.104   0.824
 1140W        W69358  35.891  30.129  14.297
 1141W        W69359  22.390  41.856  10.557
 1142W        W69360  18.851   2.647  11.505
 1143W        W69361  27.112   3.377   0.534
 1144W        W69362   9.697  33.543   2.619
 1145W        W69363  44.765  17.005   2.166
 1146W        W69364  10.465  34.808   3.973
 1147W        W69365  12.285  11.615  12.113
 1148W        W69366   0.516  12.829  11.091
 1149W        W69367   5.155  39.461  10.514
 1150W        W69368  38.970   7.552   2.670
 1151W        W69369   8.015  42.378  12.436
 1152W        W69370  25.305   1.639  13.037
 1153W        W69371  22.083  36.970  10.611
 1154W        W69372   3.635  32.142   1.310
 1155W        W69373  19.124  37.928  10.585
 1156W        W69374  27.796  19.102   3.572
 1157W        W69375  28.542  20.994   3.188
 1158W        W69376   9.698  35.503  14.778
 1159W        W69377  44.767  19.443  11.123
 1160W        W69378  18.243  18.089   4.161
 1161W        W69379  30.442  40.031  13.779
 1162W        W69380  21.276  25.495  11.166
 1163W        W69381   8.006  30.834   2.748
 1164W        W69382  37.853  13.264   3.267
 1165W        W69383  16.358  38.456  10.875
 1166W        W69384  16.690   2.111  12.900
 1167W        W69385   8.163  37.080   2.693
 1168W        W69386  23.481  30.965   1.018
 1169W        W69387  15.868  31.984  14.815
 1170W        W69388  31.856  23.308   2.695
 1171W        W69389  42.095  34.006   3.761
 1172W        W69390  39.008  43.039  14.387
 1173W        W69391   3.263  12.409   3.534
 1174W        W69392  43.924  30.928   0.317
 1175W        W69393   9.943  36.577  13.851
 1176W        W69394  21.867  15.276   0.305
 1177W        W69395  20.132   4.601   3.600
 1178W        W69396  29.124  25.672   4.211
 1179W        W69397  19.932  17.953   1.282
 1180W        W69398  12.732  12.642   1.218
 1181W        W69399  33.701  37.841   3.392
 1182W        W69400  33.937  31.958  10.377
 1183W        W69401  10.242  10.480   0.337
 1184W        W69402  37.345  43.355   4.654
 1185W        W69403  21.727  37.141  12.062
 1186W        W69404  31.141  42.326   2.361
 1187W        W69405  24.011  37.378   1.306
 1188W        W69406  17.605  18.756  13.373
 1189W        W69407  12.606  44.980  12.644
 1190W        W69408  43.170  36.031   3.757
 1191W        W69409  33.078   9.671   3.750
 1192W        W69410  15.602  33.966  12.407
 1193W        W69411  11.939  37.823  11.501
 1194W        W69412   4.860   8.101   1.420
 1195W        W69413  41.986  25.623  13.300
 1196W        W69414  14.761  34.000  13.617
 1197W        W69415  22.778  43.311   0.742
 1198W        W69416   7.903  33.154   2.239
 1199W        W69417  16.290  33.357  14.854
 1200W        W69418  36.085  17.690   1.340
 1201W        W69419  34.214   9.552  12.205
 1202W        W69420  20.512  16.820  11.057
 1203W        W69421   3.985   3.518  12.871
 1204W        W69422  22.706   4.096  10.791
 1205W        W69423   5.324  34.536   4.387
 1206W        W69424  30.471  25.273  12.967
 1207W        W69425  30.978  39.790  11.728
 1208W        W69426   7.764  39.670   4.584
 1209W        W69427  13.678   5.957  14.455
 1210W        W69428  29.010   3.837   4.457
 1211W        W69429   7.293   8.374  13.588
 1212W        W69430   7.836  30.699  14.365
 1213W        W69431  21.286  32.058  13.464
 1214W        W69432   2.967  40.488  13.186
 1215W        W69433  27.422  31.112  13.478
 1216W        W69434  25.508  18.396  12.360
 1217W        W69435  25.954   7.385  12.772
 1218W        W69436   5.292  38.913  13.979
 1219W        W69437  11.855  10.312  10.511
 1220W        W69438  43.991  40.054   0.879
 1221W        W69439   2.698  29.724   3.288
 1222W        W69440  18.706  20.587  12.005
 1223W        W69441   4.009  38.353   0.657
 1224W        W69442   4.690  34.891   1.403
 1225W        W69443  19.150   1.834   4.735
 1226W        W69444  34.294  18.775   0.316
 1227W        W69445   4.477  32.596   2.372
 1228W        W69446  20.587   4.785   3.808
 1229W        W69447  41.253  39.372   2.166
 1230W        W69448  42.407  44.227   1.497
 1231W        W69449   1.286   6.368   0.240
 1232W        W69450  13.525  19.449  12.963
 1233W        W69451   0.758  24.701  11.004
 1234W        W69452  40.561  43.767   0.805
 1235W        W69453  27.706  21.318  13.291
 1236W        W69454   9.411  17.763  12.712
 1237W        W69455   0.911  25.572   3.128
 1238W        W69456  10.245  30.293   1.636
 1239W        W69457  35.170  38.477  11.918
 1240W        W69458   6.269  14.807  13.885
 1241W        W69459  20.098  44.241  12.588
 1242W        W69460  40.422  31.031  11.489
 1243W        W69461  29.496   8.967   4.304
 1244W        W69462   6.560   0.796   3.693
 1245W        W69463  40.456  28.474   1.676
 1246W        W69464  22.645  31.971  14.798
 1247W        W69465  30.431  42.749   4.964
 1248W        W69466  31.002  27.255  14.480
 1249W        W69467  21.427  21.169   0.339
 1250W        W69468   5.161  22.796  10.906
 1251W        W69469   2.383  12.778   5.151
 1252W        W69470  31.546  22.257   1.877
 1253W        W69471  17.537  20.726   4.147
 1254W        W69472   0.984  37.474  10.549
 1255W        W69473  42.772   2.725  14.078
 1256W        W69474  25.891  22.770   2.256
 1257W        W69475  21.239  18.140  14.429
 1258W        W69476  23.062   1.051   3.181
 1259W        W69477  29.988  27.143   2.424
 1260W        W69478  37.030   7.768  14.597
 1261W        W69479   8.864  28.242  14.355
 1262W        W69480  39.364   8.422   2.653
 1263W        W69481  25.610   9.304   2.101
 1264W        W69482  23.512  23.694  12.903
 1265W        W69483  31.580  32.222  14.047
 1266W        W69484  40.945  41.369   3.707
 1267W        W69485  41.795  15.469   4.980
 1268W        W69486  23.256  24.780   1.911
 1269W        W69487   3.421  18.523  13.493
 1270W        W69488  20.821  17.828  13.300
 1271W        W69489   4.725  43.854  13.799
 1272W        W69490   5.897  34.563  11.518
 1273W        W69491  26.394   7.780   2.268
 1274W        W69492  28.163   9.701   1.790
 1275W        W69493  27.166  41.325   1.254
 1276W        W69494  25.677  31.166   1.918
 1277W        W69495  38.692  19.152   2.199
 1278W        W69496  21.189  33.878  14.826
 1279W        W69497  32.777  12.401  12.881
 1280W        W69498  30.156  42.380  14.400
 1281W        W69499  15.346  15.743  10.384
 1282W        W69500  35.534  25.234  12.561
 1283W        W69501  37.829  34.450  12.545
 1284W        W69502  39.263  32.329  11.976
 1285W        W69503  43.997  14.752  10.748
 1286W        W69504  32.503  37.356  12.899
 1287W        W69505  11.684  28.169  11.078
 1288W        W69506  38.310  27.632   4.874
 1289W        W69507   7.384  37.063   3.024
 1290W        W69508  26.724  10.737  11.440
 1291W        W69509  30.019  35.379   4.429
 1292W        W69510  21.081   2.458  11.559
 1293W        W69511  31.579  22.214   4.347
 1294W        W69512  44.998   6.846  13.183
 1295W        W69513  13.854  36.869  11.942
 1296W        W69514  43.525  22.020  10.669
 1297W        W69515  38.122  24.092  13.905
 1298W        W69516  40.230  35.501  13.387
 1299W        W69517  11.713  21.648  14.211
 1300W        W69518  29.534  19.709  14.362
 1301W        W69519   2.081  26.915   0.426
 1302W        W69520  23.073   9.956   1.771
 1303W        W69521  44.447  36.422   2.684
 1304W        W69522  24.946   1.428   4.770
 1305W        W69523   6.346  23.500  11.461
 1306W        W69524  21.089  30.226   1.705
 1307W        W69525  29.564  36.988  12.627
 1308W        W69526   0.478  32.609  14.921
 1309W        W69527  27.754   5.869   4.161
 1310W        W69528  15.084   6.837   4.092
 1311W        W69529   6.019  38.294  12.108
 1312W        W69530  22.014  33.304   3.306
 1313W        W69531   4.935  37.370  12.900
 1314W        W69532  35.916  30.810  13.642
 1315W        W69533   1.921   8.926   2.688
 1316W        W69534  32.196   7.955  12.038
 1317W        W69535  21.536  24.219  11.981
 1318W        W69536  27.857  39.103   9.914
 1319W        W69537  11.937   9.119   0.296
 1320W        W69538  44.737   5.173   4.837
 1321W        W69539  24.534   9.240  12.059
 1322W        W69540  44.804  41.694  10.849
 1323W        W69541  17.538  43.320  10.668
 1324W        W69542  23.985  24.021   2.818
 1325W        W69543  28.713  37.519  11.247
 1326W        W69544  27.230  44.230  13.368
 1327W        W69545   5.815  11.667  12.190
 1328W        W69546   4.328  28.504  11.595
 1329W        W69547  25.918  38.636  11.418
 1330W        W69548   5.755  15.580   3.852
 1331W        W69549  32.242  16.976  12.067
 1332W        W69550  26.366  29.175   4.588
 1333W        W69551   6.964  18.682  11.697
 1334W        W69552  30.027  41.699   2.045
 1335W        W69553  30.579   0.784   3.228
 1336W        W69554  30.363   4.903  14.835
 1337W        W69555  25.190  27.742  12.080
 1338W        W69556  12.182  28.043  12.384
 1339W        W69557  14.300  13.315   4.186
 1340W        W69558  18.132  13.776   0.442
 1341W        W69559  19.135  35.887   1.884
 1342W        W69560  16.124  22.683  12.625
 1343W        W69561   2.768  34.655  14.844
 1344W        W69562  40.197  39.431   1.520
 1345W        W69563   8.185  25.065   4.573
 1346W        W69564  42.130  23.216  13.004
 1347W        W69565  11.521  35.280   4.317
 1348W        W69566  32.642  29.128  13.028
 1349W        W69567   1.908  18.668  13.941
 1350W        W69568  26.568   7.907   3.633
 1351W        W69569  42.198  24.279  13.110
 1352W        W69570  15.825  10.147   1.294
 1353W        W69571  21.683  44.449  10.798
 1354W        W69572   8.684  40.305   1.941
 1355W        W69573  14.812   1.799  13.496
 1356W        W69574  25.169  23.629  14.584
 1357W        W69575  13.306   9.809  11.983
 1358W        W69576  12.824  11.160   2.285
 1359W        W69577   7.259  27.569   1.348
 1360W        W69578  17.651  23.752   0.363
 1361W        W69579  16.279  26.292   3.147
 1362W        W69580  15.847   1.235   3.089
 1363W        W69581   4.584  17.956  13.919
 1364W        W69582  17.739  29.227   2.802
 1365W        W69583   0.618  37.772  14.833
 1366W        W69584   1.417   0.252   4.214
 1367W        W69585   6.167   5.373   1.754
 1368W        W69586  17.658  38.178  12.720
 1369W        W69587   9.468  15.564  10.266
 1370W        W69588  20.105  32.895   0.806
 1371W        W69589  29.661  19.714  10.352
 1372W        W69590  33.353  37.780  14.837
 1373W        W69591  13.463   0.718   2.651
 1374W        W69592  35.626  24.940  11.204
 1375W        W69593  12.648  19.339   5.004
 1376W        W69594  17.803  43.274   0.943
 1377W        W69595  15.852  23.242  13.101
 1378W        W69596  27.181  33.076   2.209
 1379W        W69597  21.758  19.594   3.565
 1380W        W69598  34.790  33.899  12.887
 1381W        W69599  36.596  42.239   1.006
 1382W        W69600  22.590  16.607   0.476
 1383W        W69601  40.418   4.165  13.501
 1384W        W69602  42.926  29.637   3.428
 1385W        W69603  24.948   2.774  12.009
 1386W        W69604  37.504  40.819   2.706
 1387W        W69605  13.697  43.283   2.824
 1388W        W69606   1.049  33.424   5.004
 1389W        W69607  44.360  35.995   2.394
 1390W        W69608   9.244  18.689  14.288
 1391W        W69609   9.614  43.835  13.349
 1392W        W69610  30.602  40.468   1.684
 1393W        W69611   4.013  17.129  12.867
 1394W        W69612  37.694  35.004  10.228
 1395W        W69613  12.100   4.671   2.393
 1396W        W69614  12.811  14.059   4.469
 1397W        W69615   9.134   5.803   0.011
 1398W        W69616  43.010  28.069  11.980
 1399W        W69617  17.702  35.539   0.405
 1400W        W69618  11.821  33.063   3.086
 1401W        W69619   0.988  33.112   1.820
 1402W        W69620  25.484  38.196  13.051
 1403W        W69621   6.899   8.712  13.398
 1404W        W69622   7.650  27.251   3.989
 1405W        W69623   7.668  39.941  10.492
 1406W        W69624  31.610  22.532   2.345
 1407W        W69625  12.775  23.120   1.715
 1408W        W69626  21.062  24.438  12.000
 1409W        W69627  14.585   8.578   1.760
 1410W        W69628  34.133  44.950  11.114
 1411W        W69629  36.376  38.817  10.577
 1412W        W69630  18.692  12.125   1.299
 1413W        W69631  16.167  15.858  14.108
 1414W        W69632  39.917  17.578  11.184
 1415W        W69633  40.154  40.705   4.881
 1416W        W69634  39.261  14.281  13.749
 1417W        W69635  12.898  30.618   2.585
 1418W        W69636  16.650   3.402   0.741
 1419W        W69637   4.951  36.184  13.576
 1420W        W69638  29.108   4.876   3.770
 1421W        W69639  17.530  30.914   0.613
 1422W        W69640  43.568  34.159   4.573
 1423W        W69641  10.358  19.810  13.904
 1424W        W69642  30.539  26.054   1.687
 1425W        W69643   5.459   8.927  10.191
 1426W        W69644   2.313  20.400  11.221
 1427W        W69645  13.775  19.982   2.579
 1428W        W69646   2.219  44.088  13.006
 1429W        W69647  36.535  30.058  14.483
 1430W        W69648  17.665  11.825  10.981
 1431W        W69649  44.080  32.452  12.003
 1432W        W69650  10.233  39.597   2.940
 1433W        W69651  30.669  15.711   1.937
 1434W        W69652  21.489  18.304  10.719
 1435W        W69653   8.435  43.621  10.215
 1436W        W69654  13.579   0.233   1.150
 1437W        W69655  22.244  30.516  11.204
 1438W        W69656   2.987  39.322  13.266
 1439W        W69657   9.191  23.843   1.664
 1440W        W69658   0.314  19.880  12.825
 1441W        W69659  29.613  43.842  12.440
 1442W        W69660  15.103  43.334   3.114
 1443W        W69661   3.737  35.662   0.314
 1444W        W69662  21.502  37.487   0.819
 1445W        W69663  41.954  10.881  12.537
 1446W        W69664  17.812  39.508  14.932
 1447W        W69665   2.263  18.663   4.819
 1448W        W69666   9.319  18.979  13.368
 1449W        W69667  36.502  15.210  12.504
 1450W        W69668  31.154  11.418   2.757
 1451W        W69669  11.611  39.103   2.937
 1452W        W69670  18.068  19.438   3.675
 1453W        W69671  27.342   5.717  13.107
 1454W        W69672  39.416  11.192   1.271
 1455W        W69673  24.529  12.563   2.303
 1456W        W69674  12.128  14.088  12.917
 1457W        W69675  14.144  15.562   3.737
 1458W        W69676  41.451   6.843   2.135
 1459W        W69677  32.714  29.799  14.394
 1460W        W69678  35.130  20.735  12.025
 1461W        W69679  30.218  32.055  13.606
 1462W        W69680  36.562   7.914  14.370
 1463W        W69681  21.008  23.264  10.709
 1464W        W69682  18.204  37.935   2.742
 1465W        W69683  24.403  16.139  11.381
 1466W        W69684  43.659  35.213   3.798
 1467W        W69685  19.490  36.124  13.355
 1468W        W69686  40.479  28.178   2.652
 1469W        W69687  33.572  38.898  13.943
 1470W        W69688   1.498  28.761  12.895
 1471W        W69689  12.742  13.218   3.331
 1472W        W69690  13.808  11.292   2.642
 1473W        W69691  22.545   6.069  13.993
 1474W        W69692  30.718  41.434   3.199
 1475W        W69693  13.774  40.882  12.048
 1476W        W69694  10.700  33.817   1.885
 1477W        W69695  42.980   8.005   3.637
 1478W        W69696  43.534   1.205   4.412
 1479W        W69697   5.157  41.047  14.109
 1480W        W69698  30.300   4.154   2.792
 1481W        W69699  34.029  20.681   3.317
 1482W        W69700  22.992  10.226   1.047
 1483W        W69701  15.314  28.507   1.672
 1484W        W69702  42.502  21.861  13.537
 1485W        W69703  33.052  28.229   1.446
 1486W        W69704  20.102  22.465   1.733
 1487W        W69705  17.392  29.060   4.158
 1488W        W69706  38.692  42.575  11.074
 1489W        W69707  31.740  25.875   2.140
 1490W        W69708  39.303   7.197  14.018
 1491W        W69709  10.356  19.710  11.199
 1492W        W69710  23.700  16.215   4.713
 1493W        W69711   0.487  32.732  13.401
 1494W        W69712  16.695  37.902   0.111
 1495W        W69713  43.221   1.576   4.252
 1496W        W69714   2.062  23.016   1.984
 1497W        W69715   7.636  17.317  11.136
 1498W        W69716  29.121  12.702  13.673
 1499W        W69717  27.085  28.086   0.813
 1500W        W69718  19.531  34.913   2.380
 1501W        W69719  15.338  31.632  10.306
 1502W        W69720  29.766   7.449  10.351
 1503W        W69721  19.130  35.028   4.208
 1504W        W69722  43.832  41.351  14.496
 1505W        W69723  20.415   2.266  12.025
 1506W        W69724  21.506  29.712   0.715
 1507W        W69725  13.411  16.753   2.309
 1508W        W69726  11.202  38.651   4.080
 1509W        W69727  10.555  34.267   0.973
 1510W        W69728   1.076  25.016   1.070
 1511W        W69729  40.870  36.068   2.400
 1512W        W69730  28.509  43.218  14.040
 1513W        W69731  43.658   2.951   2.913
 1514W        W69732  11.264   5.424  12.994
 1515W        W69733  11.800  33.939   1.370
 1516W        W69734  19.147  28.525   2.629
 1517W        W69735  17.127   4.186   4.388
 1518W        W69736  36.631  39.709   0.903
 1519W        W69737  41.993   6.639  11.666
 1520W        W69738  14.610   2.827   9.807
 1521W        W69739  39.473  44.740  10.649
 1522W        W69740  10.315  31.979  11.139
 1523W        W69741  20.516  20.584   3.234
 1524W        W69742  35.600  42.843  11.722
 1525W        W69743  34.542  31.742   1.884
 1526W        W69744  17.681  23.593  12.145
 1527W        W69745  34.989  14.081  10.732
 1528W        W69746  24.510  10.447  10.204
 1529W        W69747  17.832  20.772   4.568
 1530W        W69748  22.018  31.037   0.467
 1531W        W69749   7.960  35.140   2.340
 1532W        W69750   8.753  34.646  14.353
 1533W        W69751  41.862  36.562  13.854
 1534W        W69752   8.821  23.953   0.508
 1535W        W69753  16.186  34.557   0.399
 1536W        W69754  38.333  27.263  14.548
 1537W        W69755   7.228  27.969  13.699
 1538W        W69756  28.201  40.580  11.586
 1539W        W69757   5.288  25.177   4.169
 1540W        W69758  38.931  15.563   4.139
 1541W        W69759   7.859  20.358   2.883
 1542W        W69760  29.404  22.149  10.255
 1543W        W69761  34.206   1.846  12.950
 1544W        W69762  22.196  28.729   3.555
 1545W        W69763   5.047  11.335   0.861
 1546W        W69764  14.673  18.755   3.253
 1547W        W69765  24.571  18.286   0.246
 1548W        W69766   3.287  34.785  14.391
 1549W        W69767  17.612  37.149  12.535
 1550W        W69768   0.855  33.832  11.161
 1551W        W69769   7.652   5.991   2.369
 1552W        W69770  10.108  11.396  11.072
 1553W        W69771  31.556  29.648  11.637
 1554W        W69772  39.333   9.053  11.134
 1555W        W69773  34.954  44.443  12.868
 1556W        W69774  20.817  16.896  14.912
 1557W        W69775  25.145  18.586   1.476
 1558W        W69776  39.067  29.504  12.419
 1559W        W69777   4.926  11.505  10.236
 1560W        W69778  11.011  25.424   0.895
 1561W        W69779  20.614   9.173  13.911
 1562W        W69780  31.283  31.595  12.873
 1563W        W69781  26.914  12.731   0.676
 1564W        W69782  43.884  12.526  13.003
 1565W        W69783   2.880  16.068  14.519
 1566W        W69784   8.599  13.712  13.935
 1567W        W69785  39.813  10.283  14.761
 1568W        W69786   5.892   6.353  14.926
 1569W        W69787  11.609   4.618   2.208
 1570W        W69788   4.131  43.193  10.701
 1571W        W69789  43.507   5.723  13.546
 1572W        W69790  44.526   8.279  11.581
 1573W        W69791  15.613  14.210  13.880
 1574W        W69792  38.386  19.181   3.174
 1575W        W69793  36.113   4.424   9.908
 1576W        W69794  44.928  39.371   4.202
 1577W        W69795   9.139  43.294  13.889
 1578W        W69796  25.516  33.175  13.423
 1579W        W69797  35.620   1.450  12.610
 1580W        W69798  37.007  33.979  11.184
 1581W        W69799   1.834  36.877  11.710
 1582W        W69800  18.717  20.301   0.061
 1583W        W69801  36.340  25.258   4.036
 1584W        W69802   1.945  33.970   2.281
 1585W        W69803  21.250  22.306  14.309
 1586W        W69804  32.445  31.084  10.579
 1587W        W69805  11.569  17.781   9.944
 1588W        W69806  30.325  22.673   0.248
 1589W        W69807   0.506   7.285   4.589
 1590W        W69808   0.185  34.507   4.784
 1591W        W69809   9.847  26.129  13.009
 1592W        W69810  39.861  16.211  12.105
 1593W        W69811  25.237  20.027  14.127
 1594W        W69812  37.138  19.552  13.370
 1595W        W69813  40.547  42.864  11.937
 1596W        W69814  19.605   6.182  13.911
 1597W        W69815  41.857  37.345   0.297
 1598W        W69816   7.427  17.793  11.066
 1599W        W69817  25.307  30.024  12.064
 1600W        W69818   7.199   0.737   1.966
 1601W        W69819  15.775  41.420  10.570
 1602W        W69820  22.251   7.906  12.404
 1603W        W69821  41.314   9.745   0.482
 1604W        W69822  18.737  36.860  12.921
 1605W        W69823  40.471  38.885   4.027
 1606W        W69824  15.419   4.656  12.516
 1607W        W69825  25.976  33.878   3.733
 1608W        W69826   8.364  21.064   2.432
 1609W        W69827  16.631  17.780  10.730
 1610W        W69828  31.118   1.629   5.011
 1611W        W69829  36.022   3.883   4.126
 1612W        W69830  34.084  17.299   0.514
 1613W        W69831  10.283  32.989   1.760
 1614W        W69832  21.754   3.677   0.250
 1615W        W69833  13.841  20.461   1.217
 1616W        W69834  24.666  36.324   2.154
 1617W        W69835  31.606  17.082   2.498
 1618W        W69836  16.618  37.905   2.203
 1619W        W69837   2.834  44.765   3.997
 1620W        W69838  25.972  18.725  14.082
 1621W        W69839  43.281  33.687   4.545
 1622W        W69840  34.882   6.680   4.561
 1623W        W69841   0.741  31.415   2.351
 1624W        W69842  13.224   7.830   2.264
 1625W        W69843  31.369  36.798  12.751
 1626W        W69844  37.296  42.813  13.130
 1627W        W69845  24.508  23.095   5.077
 1628W        W69846  44.367  29.927   3.714
 1629W        W69847  36.016  20.780  11.491
 1630W        W69848   1.304   0.739  13.254
 1631W        W69849  14.991  32.852   2.372
 1632W        W69850  25.300   7.659  10.334
 1633W        W69851  10.778  32.008   4.340
 1634W        W69852  21.040  27.986  13.377
 1635W        W69853  39.770  16.406   4.003
 1636W        W69854  44.701  35.611   2.627
 1637W        W69855  23.613   0.397   2.872
 1638W        W69856  11.243   2.457  10.608
 1639W        W69857  41.619  15.820   3.716
 1640W        W69858  19.056  34.827   3.535
 1641W        W69859  43.910  28.598   3.542
 1642W        W69860  30.979  14.543   0.078
 1643W        W69861  31.768  18.372   0.275
 1644W        W69862  34.814  14.215   3.291
 1645W        W69863  36.929  16.495  14.338
 1646W        W69864   0.569  42.445  13.217
 1647W        W69865  16.603   5.686  14.775
 1648W        W69866  21.522  35.838  14.330
 1649W        W69867   4.838   9.868   4.924
 1650W        W69868  44.629   3.224   1.617
 1651W        W69869   8.223  26.721   0.874
 1652W        W69870   9.478  43.400  10.234
 1653W        W69871  21.098   6.980  10.635
 1654W        W69872  22.253  17.590  13.907
 1655W        W69873  15.966  29.513  11.358
 1656W        W69874  18.215   4.233  12.618
 1657W        W69875  21.196   1.279  14.782
 1658W        W69876  30.908  13.969   4.479
 1659W        W69877  12.733  38.017  11.223
 1660W        W69878  20.059  31.650   3.123
 1661W        W69879  37.382   5.212  10.235
 1662W        W69880  11.705  15.740   2.487
 1663W        W69881  28.163   2.075  13.946
 1664W        W69882   9.189  27.971  12.361
 1665W        W69883   4.430  37.421   2.428
 1666W        W69884  20.705  14.034  11.546
 1667W        W69885   4.642  27.735   1.710
 1668W        W69886  30.165  22.028  14.420
 1669W        W69887  23.797  17.763  13.083
 1670W        W69888  39.766  33.466  11.154
 1671W        W69889  38.808  10.644   4.552
 1672W        W69890   3.168  23.947   4.976
 1673W        W69891  42.048  17.592  10.623
 1674W        W69892  40.348  16.589  10.654
 1675W        W69893  18.231  35.044   4.246
 1676W        W69894  26.640  19.782   4.747
 1677W        W69895  16.480   4.300  14.943
 1678W        W69896  23.786   2.771  11.892
 1679W        W69897  28.089  22.781   2.672
 1680W        W69898  32.648  14.932  13.501
 1681W        W69899  29.528  43.935  13.458
 1682W        W69900   0.972  44.344  11.702
 1683W        W69901   0.270   5.161   3.095
 1684W        W69902   1.856  18.478  14.936
 1685W        W69903   2.936  18.373   1.658
 1686W        W69904   8.011   9.860   0.394
 1687W        W69905  17.050  15.235   0.420
 1688W        W69906  17.297  31.585   3.681
 1689W        W69907  30.161  13.313   4.055
 1690W        W69908  29.199  23.058  13.475
 1691W        W69909  28.873  18.761  14.316
 1692W        W69910  10.124   1.356   2.640
 1693W        W69911   3.379  10.021   3.279
 1694W        W69912  13.750  12.411  14.442
 1695W        W69913  13.147   8.307   2.054
 1696W        W69914  18.335  12.257   5.335
 1697W        W69915  31.244  14.828  12.373
 1698W        W69916  11.388  28.171   2.216
 1699W        W69917  11.167  40.943   3.285
 1700W        W69918  34.438  28.925  12.133
 1701W        W69919   1.661  38.917  13.285
 1702W        W69920  25.574  42.436   0.226
 1703W        W69921   2.375  26.669   3.224
 1704W        W69922   3.901   0.369   3.655
 1705W        W69923  37.857  41.322   0.285
 1706W        W69924  22.588  33.632   2.210
 1707W        W69925  13.914  41.590   2.138
 1708W        W69926  10.269  30.975  14.739
 1709W        W69927   2.644   7.173   2.018
 1710W        W69928  25.581  19.177   2.954
 1711W        W69929   4.135  37.337  14.948
 1712W        W69930  14.327  25.555  14.893
 1713W        W69931  17.534  30.374   2.235
 1714W        W69932  12.946  39.957   0.619
 1715W        W69933  42.935   4.700   2.276
 1716W        W69934  20.988   7.306  12.856
 1717W        W69935  35.422   1.856  11.603
 1718W        W69936  29.437   6.110  14.203
 1719W        W69937  10.876  18.636  13.319
 1720W        W69938  21.574   3.910   4.560
 1721W        W69939  31.685  24.052   0.435
 1722W        W69940  42.597   8.737  11.002
 1723W        W69941  42.731   9.736   2.656
 1724W        W69942  34.672  39.805  14.438
 1725W        W69943  12.405  17.708   3.730
 1726W        W69944  40.503  15.825   1.907
 1727W        W69945  21.234  37.273  11.463
 1728W        W69946  28.133   0.795   3.746
 1729W        W69947   4.949  44.773  10.964
 1730W        W69948   5.760  20.687   0.812
 1731W        W69949  44.962  20.594   1.406
 1732W        W69950  17.799  21.669  14.460
 1733W        W69951  13.709  34.351  12.850
 1734W        W69952   2.724  33.927  14.391
 1735W        W69953  26.767  29.308   0.228
 1736W        W69954  10.277  18.030   3.401
 1737W        W69955  17.073  43.868   4.597
 1738W        W69956  33.829  22.499   4.474
 1739W        W69957  43.964  29.349  13.872
 1740W        W69958  22.575  22.506   5.157
 1741W        W69959  30.448  20.202  14.889
 1742W        W69960  18.168  43.850   3.415
 1743W        W69961  27.957  44.719  11.185
 1744W        W69962  33.376  24.680  12.085
 1745W        W69963  35.735  27.788   1.758
 1746W        W69964  28.077  10.692   0.831
 1747W        W69965   2.337  33.978   1.369
 1748W        W69966  30.137  39.879  10.619
 1749W        W69967  16.555  27.116  14.790
 1750W        W69968  14.568  30.329   5.007
 1751W        W69969   5.252  15.308   3.261
 1752W        W69970   8.121  10.961   0.240
 1753W        W69971   3.244  40.443   9.935
 1754W        W69972   3.804  11.082  13.867
 1755W        W69973  29.708  44.526   1.271
 1756W        W69974  33.830  13.741  12.358
 1757W        W69975  19.537  44.018   4.161
 1758W        W69976  14.158  28.042  13.098
 1759W        W69977  37.981  16.731   2.460
 1760W        W69978  25.946  20.246  13.413
 1761W        W69979  12.686  33.027  13.362
 1762W        W69980   8.114  12.318   0.918
 1763W        W69981  26.093   6.388  12.881
 1764W        W69982   4.446   5.137  14.983
 1765W        W69983  38.152   1.368  13.035
 1766W        W69984  27.945  24.171  12.107
 1767W        W69985   6.462   1.350  10.807
 1768W        W69986  21.011  14.651   1.369
 1769W        W69987  37.881  26.262   1.106
 1770W        W69988  41.087   1.009  11.109
 1771W        W69989  20.645  19.045  12.501
 1772W        W69990  15.176  14.849   2.066
 1773W        W69991  13.680  21.245  11.906
 1774W        W69992  43.361  42.414   2.841
 1775W        W69993  42.069  35.972  12.761
 1776W        W69994  32.091   7.260  13.432
 1777W        W69995  26.665  27.170   4.689
 1778W        W69996  28.322  14.540  13.865
 1779W        W69997   3.891  40.875   3.261
 1780W        W69998  32.516   8.973  10.702
 1781W        W69999  43.914   6.868  14.827
 1782W        W70000  36.285  20.944   1.729
 1783W        W70001  40.879  39.406   0.142
 1784W        W70002   5.127   9.277   3.334
 1785W        W70003  30.462  41.215  11.069
 1786W        W70004  14.195  38.318  14.706
 1787W        W70005  27.487   6.656   2.002
 1788W        W70006  28.218   2.738  12.471
 1789W        W70007  11.642  38.825   5.216
 1790W        W70008  15.259   0.422   1.966
 1791W        W70009  26.378  19.776  12.582
 1792W        W70010  44.957  31.089  14.225
 1793W        W70011  36.053  32.838   1.019
 1794W        W70012  41.371   4.888   3.067
 1795W        W70013  35.354  26.108  14.746
 1796W        W70014  31.488  28.571  13.947
 1797W        W70015  25.514  16.305  12.407
 1798W        W70016  13.805  33.124   2.803
 1799W        W70017  25.271  14.627  12.395
 1800W        W70018  32.129   6.187   2.213
 1801W        W70019   0.448  31.164  13.420
 1802W        W70020  16.114  41.987  11.627
 1803W        W70021  33.857  18.264   4.624
 1804W        W70022  39.148  11.202  12.878
 1805W        W70023  41.785   0.218   4.554
 1806W        W70024   3.782  43.092   3.282
 1807W        W70025  21.002  27.717  11.621
 1808W        W70026  31.160  26.977   5.400
 1809W        W70027  36.877  42.293   3.159
 1810W        W70028   4.761  28.560  13.370
 1811W        W70029  44.271   1.347   1.419
 1812W        W70030   5.665  40.890  12.146
 1813W        W70031  17.932  38.281   1.033
 1814W        W70032  39.824  18.716   4.664
 1815W        W70033  28.710  14.210   4.220
 1816W        W70034   1.880  23.962  12.098
 1817W        W70035  20.714  34.338   1.430
 1818W        W70036   5.817  15.060   0.304
 1819W        W70037   6.349  14.284   1.173
 1820W        W70038  43.571  38.326   1.402
 1821W        W70039   2.298  37.839  14.200
 1822W        W70040  24.067  28.328   1.297
 1823W        W70041  33.980  10.346  10.512
 1824W        W70042  18.575  42.783   1.448
 1825W        W70043  41.736   7.640  11.707
 1826W        W70044  44.022  14.582  14.979
 1827W        W70045  43.046  40.492  14.949
 1828W        W70046  17.728  17.748   2.646
 1829W        W70047  19.979  16.842  13.903
 1830W        W70048  17.085  39.543   4.383
 1831W        W70049  24.983   0.805  10.784
 1832W        W70050  41.193   6.900   3.429
 1833W        W70051  40.444   6.011   0.327
 1834W        W70052  42.355  17.263   4.315
 1835W        W70053   8.527   0.502  14.355
 1836W        W70054  22.477  31.887  13.801
 1837W        W70055  35.096   9.307  14.441
 1838W        W70056  22.743   0.717   4.080
 1839W        W70057  12.316  38.345  14.866
 1840W        W70058  14.856   8.145  12.977
 1841W        W70059  29.785  21.348  12.583
 1842W        W70060   9.259   8.454   3.609
 1843W        W70061  26.925  42.027  12.552
 1844W        W70062  42.801  36.008  11.546
 1845W        W70063  36.233  12.045   3.618
 1846W        W70064   3.192  37.739  13.371
 1847W        W70065  39.699  22.726   1.971
 1848W        W70066   8.874  19.049  14.082
 1849W        W70067   8.110   1.912   3.324
 1850W        W70068   6.855  37.331   2.636
 1851W        W70069  26.563  35.374  11.743
 1852W        W70070  34.175  15.106   2.947
 1853W        W70071  26.122  39.638   2.881
 1854W        W70072  22.060  43.320  11.176
 1855W        W70073   3.476  34.404  12.207
 1856W        W70074   1.463   1.457   3.682
 1857W        W70075  20.092  15.749  14.322
 1858W        W70076  36.309  36.662   4.520
 1859W        W70077  27.624  12.331   4.239
 1860W        W70078  28.555   0.416   4.420
 1861W        W70079  10.434  17.731   5.129
 1862W        W70080  30.576  22.872  14.369
 1863W        W70081   0.860  39.634  13.056
 1864W        W70082  34.645  14.217   2.786
 1865W        W70083  10.460  32.524  11.680
 1866W        W70084  35.345   0.258  14.275
 1867W        W70085  33.347  41.752  12.948
 1868W        W70086  25.944  10.372   2.367
 1869W        W70087  41.206  42.467   0.703
 1870W        W70088  18.562  34.767   5.075
 1871W        W70089  36.603   0.272  11.111
 1872W        W70090  34.222  34.505   4.168
 1873W        W70091  39.545  15.295   4.639
 1874W        W70092  23.209  20.737  13.558
 1875W        W70093  16.790  21.027   2.075
 1876W        W70094  14.028   7.732  13.113
 1877W        W70095  24.139  28.079  13.470
 1878W        W70096  42.004   4.368   0.315
 1879W        W70097   4.953   2.752  10.146
 1880W        W70098  33.106  34.061  13.430
 1881W        W70099  26.466   0.826   0.824
 1882W        W70100  26.731  12.730  14.782
 1883W        W70101  39.469   6.360  12.511
 1884W        W70102  26.283  22.333  11.128
 1885W        W70103   9.925  38.983   4.298
 1886W        W70104  11.307  21.637   1.291
 1887W        W70105   2.663  30.941   1.326
 1888W        W70106  17.116   8.125   2.430
 1889W        W70107  34.262  27.481  13.866
 1890W        W70108  15.274  30.626  11.391
 1891W        W70109  36.546  32.837  10.679
 1892W        W70110  35.960  27.693   3.181
 1893W        W70111  40.898  25.540   3.837
 1894W        W70112  35.897   9.845  12.866
 1895W        W70113  30.594  28.730   1.474
 1896W        W70114  12.696   5.909   4.657
 1897W        W70115  42.694  36.149   3.633
 1898W        W70116  40.080  41.657   2.744
 1899W        W70117  30.713   1.412  11.460
 1900W        W70118  23.605  30.950   4.853
 1901W        W70119   9.420  19.447  14.846
 1902W        W70120   0.504  36.645   1.863
 1903W        W70121  18.124  14.049  14.999
 1904W        W70122   6.222  22.308  14.756
 1905W        W70123  17.318  14.756  12.339
 1906W        W70124  32.928   4.145   0.240
 1907W        W70125  37.488   7.671   0.905
 1908W        W70126  30.164  37.422   4.801
 1909W        W70127   3.807  14.651   3.227
 1910W        W70128   3.519  30.191  10.892
 1911W        W70129  33.129  41.015  10.554
 1912W        W70130  12.901  29.358  14.360
 1913W        W70131  12.833  39.056  13.886
 1914W        W70132  36.343   5.859  11.828
 1915W        W70133  21.173  42.172  14.115
 1916W        W70134  26.073  16.165  12.041
 1917W        W70135  28.110   6.357  14.292
 1918W        W70136  43.429   0.106   1.627
 1919W        W70137  37.347  32.584   0.419
 1920W        W70138  23.252  21.068   2.262
 1921W        W70139  42.170  24.897  11.016
 1922W        W70140  21.830  28.736  12.496
 1923W        W70141  24.293   9.592   1.249
 1924W        W70142  23.677  27.636   2.203
 1925W        W70143  19.762  30.195   0.340
 1926W        W70144   4.284  21.340   4.017
 1927W        W70145  40.620   4.309  14.863
 1928W        W70146  20.652   6.417  12.889
 1929W        W70147  11.252  35.296  14.098
 1930W        W70148   4.317   4.822   3.949
 1931W        W70149  27.627  23.657   2.655
 1932W        W70150  23.785  25.183   1.361
 1933W        W70151  14.781  23.472  11.625
 1934W        W70152  34.832   2.016  14.405
 1935W        W70153   9.660   7.311  14.060
 1936W        W70154  37.201  28.552  14.191
 1937W        W70155   0.078  32.617   2.215
 1938W        W70156  24.797  40.078   2.239
 1939W        W70157  35.055   8.333   0.401
 1940W        W70158  19.599   8.601   1.703
 1941W        W70159  35.527  28.269  11.523
 1942W        W70160  20.245   0.231  11.206
 1943W        W70161  39.460  36.163   3.184
 1944W        W70162  32.514   0.591   2.340
 1945W        W70163  41.785  13.823   0.181
 1946W        W70164  32.669  36.941  11.356
 1947W        W70165  28.129  38.452   4.633
 1948W        W70166  14.835  20.757   2.622
 1949W        W70167  36.901  14.112   3.117
 1950W        W70168  17.034  42.876  11.280
 1951W        W70169  12.688  10.051  14.788
 1952W        W70170  40.945  39.354   1.239
 1953W        W70171  35.349  17.268  13.650
 1954W        W70172   8.417  25.492   1.249
 1955W        W70173  40.357   0.927  11.637
 1956W        W70174  21.003  40.543  13.492
 1957W        W70175  14.396  39.421   3.201
 1958W        W70176  11.287  12.736  12.019
 1959W        W70177  15.760  31.615   3.711
 1960W        W70178  17.723  33.858  12.149
 1961W        W70179   3.353  10.022  12.406
 1962W        W70180  21.177   3.902  10.616
 1963W        W70181   9.736   7.389   1.259
 1964W        W70182  36.325  28.519   1.374
 1965W        W70183  40.355  32.647   4.129
 1966W        W70184  21.727  22.534  11.426
 1967W        W70185  34.152  11.314   2.703
 1968W        W70186  12.757  12.923  14.465
 1969W        W70187   0.061  31.694  11.235
 1970W        W70188  32.368   0.267  14.349
 1971W        W70189  24.870   3.731  13.077
 1972W        W70190  38.883   1.932   3.012
 1973W        W70191  12.439  27.932   3.173
 1974W        W70192  16.259  15.710   1.959
 1975W        W70193  41.091  44.776  11.100
 1976W        W70194  13.451  16.013  13.727
 1977W        W70195  16.317  42.015  14.456
 1978W        W70196  20.878  18.172   3.683
 1979W        W70197  29.826  22.615   0.460
 1980W        W70198  32.113  38.401  14.800
 1981W        W70199   1.031   9.548  10.947
 1982W        W70200  18.897  23.443   0.507
 1983W        W70201  10.761  18.091  13.810
 1984W        W70202   4.405   6.233  11.882
 1985W        W70203   7.880  32.163   2.266
 1986W        W70204  13.111  18.614   3.265
 1987W        W70205  16.167  11.165   1.938
 1988W        W70206  36.260  28.445  14.558
 1989W        W70207   7.886  38.313   4.251
 1990W        W70208  36.111  10.382  14.354
 1991W        W70209  22.618   3.347   3.651
 1992W        W70210  30.078  20.586  13.859
 1993W        W70211   3.534   0.813   0.680
 1994W        W70212  37.921  24.483   3.702
 1995W        W70213  28.595  13.402  14.391
 1996W        W70214  19.583  13.918  11.538
 1997W        W70215  18.775   3.669  11.728
 1998W        W70216  36.989  17.683   0.195
 1999W        W70217  20.043  43.748  13.559
 2000W        W70218  17.702   8.424   2.576
 2001W        W70219   6.590  42.989  13.027
 2002W        W70220  11.066   2.326   1.866
 2003W        W70221   7.832  13.657   0.881
 2004W        W70222  33.820  44.841  10.676
 2005W        W70223   5.458  15.330   1.437
 2006W        W70224  20.042   7.713   1.196
 2007W        W70225  21.441   3.884   1.487
 2008W        W70226  32.867  21.759  13.567
 2009W        W70227   5.507  25.472   2.275
 2010W        W70228  43.453   2.928  10.847
 2011W        W70229  16.561  12.090   2.850
 2012W        W70230  13.733   5.945  10.718
 2013W        W70231  15.311  43.635  14.484
 2014W        W70232  21.934  17.140   2.722
 2015W        W70233  19.110  15.031   3.330
 2016W        W70234  33.599   0.422   1.379
 2017W        W70235  11.509   2.708   0.900
 2018W        W70236   5.316  11.260   1.763
 2019W        W70237  44.414  22.069  13.304
 2020W        W70238  39.962  42.482  10.743
 2021W        W70239  43.333  25.456   3.424
 2022W        W70240   8.436  29.772  12.987
 2023W        W70241   0.780  38.463  12.430
 2024W        W70242  40.773  19.358  11.589
 2025W        W70243  10.430  18.235  10.740
 2026W        W70244  44.715  39.335   0.385
 2027W        W70245  17.212  15.549  13.420
 2028W        W70246  34.387  35.847  14.817
 2029W        W70247  18.118  35.328  13.396
 2030W        W70248  10.212  12.114  13.664
 2031W        W70249  27.765  19.801   2.385
 2032W        W70250  40.846  12.743  12.581
 2033W        W70251   4.974  31.046   3.290
 2034W        W70252  18.477  18.541  10.789
 2035W        W70253   8.274  11.611   2.710
 2036W        W70254  27.679   8.683  12.438
 2037W        W70255  41.622  18.497   0.677
 2038W        W70256  41.574  25.782   0.423
 2039W        W70257   3.354  36.181   4.248
 2040W        W70258   5.773  11.184  12.399
 2041W        W70259  39.504  35.969  12.088
 2042W        W70260  43.287  20.262   2.213
 2043W        W70261  41.981   1.269   3.174
 2044W        W70262  42.361  32.884   4.711
 2045W        W70263  19.259  41.043  12.420
 2046W        W70264   2.233   2.399   4.198
 2047W        W70265  20.710  37.684  10.622
 2048W        W70266  19.307  20.571   0.911
 2049W        W70267   6.116  17.755   5.006
 2050W        W70268   3.741  33.024   1.235
 2051W        W70269  32.202  28.287  11.612
 2052W        W70270  42.030  31.233   2.358
 2053W        W70271  26.489   1.794  10.117
 2054W        W70272  10.276   3.001   3.799
 2055W        W70273   5.294  39.944   2.224
 2056W        W70274  28.622  11.781  11.114
 2057W        W70275  39.189   0.447  12.476
 2058W        W70276   7.095  11.324  13.893
 2059W        W70277  26.546  31.914  14.339
 2060W        W70278  21.305  17.186  13.597
 2061W        W70279  28.042  43.215  11.136
 2062W        W70280  44.868  38.778  11.620
 2063W        W70281   8.661  44.074  11.017
 2064W        W70282  42.155   0.738  14.112
 2065W        W70283   1.475  22.508   3.912
 2066W        W70284  25.624  15.209  10.930
 2067W        W70285   3.704  41.517  13.006
 2068W        W70286  30.660  35.715  10.700
 2069W        W70287  31.635  21.740  14.839
 2070W        W70288   7.754  35.387   1.440
 2071W        W70289  42.491  32.203   0.721
 2072W        W70290  17.031   0.172  11.966
 2073W        W70291   5.415  23.808   2.494
 2074W        W70292  16.182  43.312  13.417
 2075W        W70293   2.864  16.924  11.167
 2076W        W70294  35.204   5.015  12.082
 2077W        W70295   0.877  30.625   2.632
 2078W        W70296  23.573  39.058  14.082
 2079W        W70297  40.938  24.100   3.195
 2080W        W70298  24.213   7.937  11.164
 2081W        W70299  26.653  35.316   4.916
 2082W        W70300  25.753  14.401   9.892
 2083W        W70301   8.779   3.316  11.858
 2084W        W70302  23.668  21.669  13.075
 2085W        W70303  34.407  32.432   4.255
 2086W        W70304  44.572  17.625   1.413
 2087W        W70305  11.834  24.193   0.187
 2088W        W70306  41.715  30.686  14.578
 2089W        W70307   5.804  12.239  11.510
 2090W        W70308  33.128  18.805  12.621
 2091W        W70309   0.937  22.804  12.145
 2092W        W70310  28.065  36.894  12.965
 2093W        W70311  30.419  16.544  14.348
 2094W        W70312  28.037   9.032   3.935
 2095W        W70313   5.175  41.405  11.002
 2096W        W70314  42.769   5.229   4.596
 2097W        W70315  21.689   4.413  13.076
 2098W        W70316   7.323   8.492   0.452
 2099W        W70317  26.682  17.303   3.118
 2100W        W70318  12.116  38.562  13.008
 2101W        W70319  44.584  22.572  12.470
 2102W        W70320  31.414  40.209   3.864
 2103W        W70321  29.981  29.217   4.175
 2104W        W70322  31.471   6.913   5.329
 2105W        W70323  40.246  14.224  11.439
 2106W        W70324  17.843  24.690   2.675
 2107W        W70325   1.414  33.174  13.394
 2108W        W70326  11.548  18.005  12.232
 2109W        W70327  24.094  30.298   3.318
 2110W        W70328  13.264  28.999  14.483
 2111W        W70329  44.311  23.724  12.990
 2112W        W70330  11.154  23.777  10.697
 2113W        W70331  15.112   8.652   0.845
 2114W        W70332  44.355  20.221  10.626
 2115W        W70333  21.132  44.808  13.709
 2116W        W70334  37.118  40.911   3.047
 2117W        W70335  21.878   4.850  12.061
 2118W        W70336  18.546   1.221  10.457
 2119W        W70337  41.447  32.280   0.633
 2120W        W70338  35.995  24.028   4.591
 2121W        W70339  11.128   2.274  12.020
 2122W        W70340   4.944  11.266   1.360
 2123W        W70341  39.860  36.321  13.865
 2124W        W70342  33.462  36.154   4.115
 2125W        W70343  25.523   2.694  11.146
 2126W        W70344  42.356  18.235   0.019
 2127W        W70345  12.507  30.141  12.853
 2128W        W70346  14.368  35.957   3.426
 2129W        W70347  36.593  29.251   2.833
 2130W        W70348   6.931  19.763  13.267
 2131W        W70349  43.227   8.643  13.596
 2132W        W70350  23.513  10.477   4.640
 2133W        W70351  12.200  33.865   2.689
 2134W        W70352  11.627  13.116   0.554
 2135W        W70353   4.745  10.670  11.798
 2136W        W70354  40.821  33.554  12.627
 2137W        W70355  13.015  32.449  14.775
 2138W        W70356  11.785  12.917  12.018
 2139W        W70357  32.194  38.551   2.758
 2140W        W70358  44.812  34.183  11.905
 2141W        W70359  35.654  26.664   5.091
 2142W        W70360  29.874  20.325   3.343
 2143W        W70361   9.863  15.935  12.038
 2144W        W70362   9.525  24.057  13.853
 2145W        W70363  25.430  33.226   0.782
 2146W        W70364   1.511   1.915  13.864
 2147W        W70365   8.351  16.849   4.974
 2148W        W70366  24.993   5.830  11.636
 2149W        W70367  17.622  20.999   2.194
 2150W        W70368  12.059  34.589   2.321
 2151W        W70369   6.792  25.331  11.793
 2152W        W70370  44.008  44.546   1.210
 2153W        W70371  21.020  35.031   0.874
 2154W        W70372  14.770  35.034  12.652
 2155W        W70373  40.928   6.434   1.302
 2156W        W70374  20.991  39.992  11.904
 2157W        W70375  18.029  33.534  11.121
 2158W        W70376  13.129  32.444   2.826
 2159W        W70377  17.896  16.478   1.743
 2160W        W70378  27.980  24.177  14.749
 2161W        W70379  42.333  42.403  10.670
 2162W        W70380  26.117   9.000  11.109
 2163W        W70381  21.699  44.005   2.324
 2164W        W70382   8.416  34.335  10.633
 2165W        W70383  43.919   5.762  14.097
 2166W        W70384  42.020  32.552   3.833
 2167W        W70385  15.769  21.822   4.043
 2168W        W70386  34.057  24.640   2.759
 2169W        W70387   2.755   1.815  10.726
 2170W        W70388  38.065  22.958   3.831
 2171W        W70389  37.670  10.227  14.847
 2172W        W70390  15.972   9.540  10.489
 2173W        W70391  44.524  40.684  11.572
 2174W        W70392   6.470  24.650   2.263
 2175W        W70393  13.824  19.318  13.366
 2176W        W70394  25.632  27.036   4.751
 2177W        W70395  31.131  29.065   4.559
 2178W        W70396  21.338  34.543  12.670
 2179W        W70397  22.255  39.907  12.663
 2180W        W70398  33.640  43.683   9.624
 2181W        W70399   5.576  36.961  13.389
 2182W        W70400  26.094   9.661  14.934
 2183W        W70401  26.883   1.925   3.386
 2184W        W70402   2.694  44.072  11.433
 2185W        W70403   2.727  26.408  11.203
 2186W        W70404   9.990   3.929  14.336
 2187W        W70405  10.848  29.141  11.551
 2188W        W70406  43.351  17.329   5.021
 2189W        W70407  29.522  12.877  12.048
 2190W        W70408  41.342  44.742  14.953
 2191W        W70409  15.516  29.436   1.769
 2192W        W70410  21.636  39.587  12.784
 2193W        W70411  12.132  36.875   4.780
 2194W        W70412  32.120  10.639   4.342
 2195W        W70413   3.056   6.167   3.395
 2196W        W70414  25.027  41.734  13.849
 2197W        W70415  44.205  38.360  12.411
 2198W        W70416  31.365  38.833  13.209
 2199W        W70417  24.164   3.831  12.640
 2200W        W70418  21.132  27.707  12.944
 2201W        W70419   4.366  17.335  12.344
 2202W        W70420  43.652  18.815   4.004
 2203W        W70421  40.412  24.512   4.158
 2204W        W70422  43.587  29.705  13.952
 2205W        W70423  36.122  34.333   2.766
 2206W        W70424  36.370  16.207   1.386
 2207W        W70425  37.022  41.982  11.509
 2208W        W70426  13.219  29.948  12.093
 2209W        W70427  34.595  44.544   3.719
 2210W        W70428   5.217  30.086   1.356
 2211W        W70429  26.377  17.217   4.349
 2212W        W70430  17.083  21.358  10.614
 2213W        W70431  33.153  32.400   4.568
 2214W        W70432  15.544  40.962  13.075
 2215W        W70433  37.264  31.602   3.454
 2216W        W70434  41.919  30.966   3.836
 2217W        W70435  12.468  27.252   0.895
 2218W        W70436  11.575   6.885   3.231
 2219W        W70437  31.506  34.041  11.565
 2220W        W70438  41.993  12.222   1.809
 2221W        W70439  13.692   4.421   3.578
 2222W        W70440  41.560  32.379  14.751
 2223W        W70441  13.677  36.615  11.524
 2224W        W70442  16.788  21.186   1.068
 2225W        W70443   1.016  40.230  12.000
 2226W        W70444  27.233   6.860  11.512
 2227W        W70445  30.449  33.339  12.958
 2228W        W70446  21.590   1.810   0.375
 2229W        W70447   2.292  33.481   4.055
 2230W        W70448  20.221   0.921   1.697
 2231W        W70449  41.369  41.522  10.630
 2232W        W70450  27.372  30.307  14.808
 2233W        W70451  23.541  31.922   2.789
 2234W        W70452  38.009  10.278   1.945
 2235W        W70453  12.036  43.779   1.319
 2236W        W70454  41.019  32.199   1.785
 2237W        W70455   8.801  19.311  14.984
 2238W        W70456   1.822  29.990  11.183
 2239W        W70457  27.445  23.177   3.651
 2240W        W70458  31.530  27.617  10.765
 2241W        W70459  29.991  38.576  10.721
 2242W        W70460   3.004  29.369  11.669
 2243W        W70461  37.015   4.293  13.526
 2244W        W70462  37.538  44.672  12.863
 2245W        W70463  40.319   3.141  14.447
 2246W        W70464  36.992  22.716  13.977
 2247W        W70465  23.430  28.004  14.855
 2248W        W70466  26.222  15.764  10.671
 2249W        W70467  17.840  34.975   4.587
 2250W        W70468  25.662  30.474  11.125
 2251W        W70469  24.254  30.340  14.351
 2252W        W70470  29.197  44.930   3.632
 2253W        W70471  25.563  34.945  10.456
 2254W        W70472  24.025  19.950  13.474
 2255W        W70473  42.605  32.517  12.213
 2256W        W70474  23.498   1.762   1.831
 2257W        W70475  24.192  35.423  14.871
 2258W        W70476  24.393  43.209  12.540
 2259W        W70477  26.505   8.831  10.805
 2260W        W70478  11.987  35.628   3.168
 2261W        W70479  18.272  37.438   3.667
 2262W        W70480  42.107   6.767  10.822
 2263W        W70481   2.307  13.508  12.085
 2264W        W70482   2.938  26.842   1.274
 2265W        W70483  40.367  22.435  12.304
 2266W        W70484  12.184  18.571  10.561
 2267W        W70485  31.619  41.261  14.965
 2268W        W70486  22.294  33.030   0.809
 2269W        W70487  44.400   7.328   1.823
 2270W        W70488  24.509  14.119  14.400
 2271W        W70489   7.887  25.488   1.387
 2272W        W70490   1.914  29.076  13.652
 2273W        W70491   2.772  20.485  13.846
 2274W        W70492   2.458  30.988   2.207
 2275W        W70493  25.695  16.834  13.341
 2276W        W70494  33.972  27.624  12.587
 2277W        W70495  37.846  40.747  10.952
 2278W        W70496  40.910  19.103   2.825
 2279W        W70497  32.119   6.256  14.389
 2280W        W70498   8.754  43.409  12.641
 2281W        W70499  16.136  44.549  14.907
 2282W        W70500  28.168  38.156   3.674
 2283W        W70501  23.665  23.227   1.813
 2284W        W70502  39.469  21.573  12.221
 2285W        W70503  18.509  19.034   0.630
 2286W        W70504  11.375  43.714  11.037
 2287W        W70505  12.086  31.691   2.318
 2288W        W70506  35.014  14.824  14.100
 2289W        W70507  38.492  16.382   3.306
 2290W        W70508  29.172   3.855  13.958
 2291W        W70509  20.187   7.703  10.775
 2292W        W70510  16.293   4.971  11.029
 2293W        W70511  23.933  16.563  12.792
 2294W        W70512  35.047  12.261  14.974
 2295W        W70513  18.232  21.620   2.214
 2296W        W70514  32.128  23.542  10.649
 2297W        W70515  18.503  41.523   1.899
 2298W        W70516   5.352  36.929   2.585
 2299W        W70517   4.191  11.782   2.319
 2300W        W70518  21.010  13.337   2.143
 2301W        W70519  18.596  11.764  11.121
 2302W        W70520  10.687  11.227   3.807
 2303W        W70521  26.786  11.685   0.383
 2304W        W70522   9.297   6.102  14.496
 2305W        W70523  34.931  40.128  14.722
 2306W        W70524  30.310  32.429   0.861
 2307W        W70525   9.179   1.466  10.558
 2308W        W70526  38.721   3.032  11.195
 2309W        W70527   1.570  25.183   1.851
 2310W        W70528   2.346  15.186   1.705
 2311W        W70529   6.299   6.185  13.090
 2312W        W70530  39.399  44.745   3.649
 2313W        W70531  21.304  32.159   1.862
 2314W        W70532   3.101  29.004  10.594
 2315W        W70533  25.240  30.509   4.810
 2316W        W70534  30.914  34.177  12.134
 2317W        W70535  36.885  20.260   0.190
 2318W        W70536  24.013  44.060  11.086
 2319W        W70537  38.251   1.459  11.072
 2320W        W70538  21.971  21.521   4.754
 2321W        W70539  18.366   4.620   3.546
 2322W        W70540   5.778  17.336   9.689
 2323W        W70541  11.808   6.356   3.242
 2324W        W70542  20.627  41.523   0.788
 2325W        W70543  34.226  18.013  14.920
 2326W        W70544  23.456  18.092  14.431
 2327W        W70545  19.963  11.802  11.397
 2328W        W70546  13.088  25.574  12.526
 2329W        W70547   3.904  34.976  10.942
 2330W        W70548  27.869  21.803   2.612
 2331W        W70549  26.960  11.115   4.224
 2332W        W70550  31.432  18.795  13.044
 2333W        W70551  17.088   1.301  14.435
 2334W        W70552  29.427  29.095   3.161
 2335W        W70553  36.072  11.164   0.814
 2336W        W70554  19.200  27.393  13.384
 2337W        W70555  24.672  16.538   1.850
 2338W        W70556   6.791  23.943  12.966
 2339W        W70557   4.049  42.473  13.572
 2340W        W70558   3.885  40.801  10.900
 2341W        W70559  35.371  43.842   2.718
 2342W        W70560  32.707  30.619   1.187
 2343W        W70561  18.690   0.792  10.758
 2344W        W70562  12.589   7.555   3.019
 2345W        W70563  16.539  43.944   5.509
 2346W        W70564   4.763   6.101  13.590
 2347W        W70565   2.479   3.194   2.363
 2348W        W70566  25.669  28.972   1.427
 2349W        W70567   5.339  30.870  11.561
 2350W        W70568   5.935  39.174   1.267
 2351W        W70569  36.254  30.382   4.124
 2352W        W70570  28.346   7.882   2.796
 2353W        W70571  42.294  20.832  12.543
 2354W        W70572  34.133  36.974   1.410
 2355W        W70573   5.776  44.897   0.842
 2356W        W70574  29.536   7.251  13.972
 2357W        W70575  11.155  42.233   1.253
 2358W        W70576  29.975   6.625  11.456
 2359W        W70577  29.004  38.350  14.342
 2360W        W70578  19.717  43.262   1.393
 2361W        W70579  37.558  27.614   0.030
 2362W        W70580  15.064  16.396   1.975
 2363W        W70581   0.305  32.352  12.491
 2364W        W70582   4.480  39.297  14.856
 2365W        W70583   0.002  42.471  14.877
 2366W        W70584  30.130  33.115  10.644
 2367W        W70585  36.413  19.531   2.364
 2368W        W70586   6.062   4.894   2.253
 2369W        W70587  27.350  19.716   4.121
 2370W        W70588  18.162   6.583   1.447
 2371W        W70589  36.809  24.751  13.027
 2372W        W70590  39.297  36.876  13.283
 2373W        W70591   0.227   2.180   2.302
 2374W        W70592   2.674   6.101   4.224
 2375W        W70593   0.311   9.115  12.995
 2376W        W70594  36.727  35.662  11.058
 2377W        W70595  40.355  35.085  11.298
 2378W        W70596  21.793   7.219  13.027
 2379W        W70597  33.768  24.568  11.460
 2380W        W70598  21.481  17.251  14.793
 2381W        W70599   2.448  20.888  11.219
 2382W        W70600  23.040  35.807   1.261
 2383W        W70601  21.542  36.486   4.781
 2384W        W70602  36.867  40.790  10.667
 2385W        W70603  32.872   9.328  10.792
 2386W        W70604  36.620   5.464  12.126
 2387W        W70605  38.739  22.927   1.053
 2388W        W70606  42.978  18.641   2.351
 2389W        W70607  10.301  40.777  12.592
 2390W        W70608  39.883  13.866  14.890
 2391W        W70609  39.903  31.056   3.910
 2392W        W70610  22.633  36.323   1.749
 2393W        W70611  34.694   2.962  11.038
 2394W        W70612  41.223  28.209  13.751
 2395W        W70613  16.244  41.860   1.484
 2396W        W70614  17.755   0.058   0.402
 2397W        W70615  15.190  33.357   3.235
 2398W        W70616  12.077  17.848   2.376
 2399W        W70617  16.335  42.423   3.711
 2400W        W70618  23.414  29.000   3.075
 2401W        W70619  11.433  35.364   4.827
 2402W        W70620  21.755   4.134   0.513
 2403W        W70621  44.707  14.838   2.755
 2404W        W70622  28.220  27.011  14.234
 2405W        W70623  16.606   4.186  13.649
 2406W        W70624  19.974  43.503  14.691
 2407W        W70625  28.621  39.954   2.371
 2408W        W70626  11.208  37.904   0.947
 2409W        W70627  14.664  34.361   1.332
 2410W        W70628  31.642  19.524  14.019
 2411W        W70629  17.729  29.064  13.787
 2412W        W70630  43.849  17.131  13.355
 2413W        W70631  41.984  28.090   1.010
 2414W        W70632   7.386  43.054  11.104
 2415W        W70633  32.208  29.629   3.112
 2416W        W70634  35.602  41.712   4.924
 2417W        W70635  38.370   6.125   4.810
 2418W        W70636  24.336  14.487   4.163
 2419W        W70637   4.780   8.804  12.893
 2420W        W70638  40.228   6.180   4.350
 2421W        W70639  17.839  30.688   3.704
 2422W        W70640   9.641  18.831  13.766
 2423W        W70641   9.624  30.427   3.842
 2424W        W70642  23.871  23.569   0.745
 2425W        W70643  26.415   9.866  14.554
 2426W        W70644  12.812  26.869  12.968
 2427W        W70645  39.816  34.557  14.737
 2428W        W70646   1.476  19.714   3.422
 2429W        W70647  40.926   4.937  11.465
 2430W        W70648  16.804  38.848   0.345
 2431W        W70649  22.962   3.779  14.492
 2432W        W70650  22.379  10.281   2.475
 2433W        W70651   9.273  19.924   5.514
 2434W        W70652  18.359   9.454   1.930
 2435W        W70653  26.992   3.894   4.591
 2436W        W70654  40.651  16.755  11.600
 2437W        W70655  22.142  42.753   0.012
 2438W        W70656  29.404  29.988  12.349
 2439W        W70657  43.591  24.098   2.367
 2440W        W70658   5.603  12.242   2.695
 2441W        W70659  37.431  29.108  13.011
 2442W        W70660  44.923   4.317  13.401
 2443W        W70661  11.690  44.880   4.923
 2444W        W70662   4.818  19.512   2.582
 2445W        W70663   9.213  17.085   0.848
 2446W        W70664  15.079   7.856  12.401
 2447W        W70665  35.467  33.199  11.587
 2448W        W70666  20.075   3.639   4.825
 2449W        W70667  42.323  40.721   0.768
 2450W        W70668  37.058  29.129   1.272
 2451W        W70669  42.653   3.346  11.243
 2452W        W70670  42.689  32.911  11.108
 2453W        W70671  16.886  35.616  10.723
 2454W        W70672  31.885   7.280  12.220
 2455W        W70673  40.547  27.052  14.494
 2456W        W70674  39.712  36.678  13.524
 2457W        W70675  43.314  16.094   3.723
 2458W        W70676  23.070  29.814  10.699
 2459W        W70677  30.365  26.588  13.387
 2460W        W70678  33.047  14.717   0.727
 2461W        W70679  34.116  43.427  13.111
 2462W        W70680  38.548   5.065   2.306
 2463W        W70681  27.527  44.732   0.180
 2464W        W70682  27.558  25.205   2.368
 2465W        W70683   5.699   5.271  12.039
 2466W        W70684  40.457  42.720   2.214
 2467W        W70685  37.537   0.780   1.687
 2468W        W70686   5.753  21.203   4.125
 2469W        W70687  11.792   8.855   4.612
 2470W        W70688  30.695  11.367   0.947
 2471W        W70689  37.322  16.050  10.755
 2472W        W70690   6.314  22.182  12.349
 2473W        W70691   5.332  15.512  11.038
 2474W        W70692  39.469  37.566  13.614
 2475W        W70693  34.904   3.328   4.164
 2476W        W70694  17.462   6.073   4.056
 2477W        W70695  41.234  43.449   3.253
 2478W        W70696  26.291   7.032   0.229
 2479W        W70697   6.919   5.871   1.599
 2480W        W70698  31.517  35.689   1.814
 2481W        W70699  23.262   8.638  12.181
 2482W        W70700  27.081  24.994  12.453
 2483W        W70701   5.386  10.725   1.847
 2484W        W70702  10.922  28.279   3.357
 2485W        W70703  33.875  33.548   2.319
 2486W        W70704  27.011   0.178  13.508
 2487W        W70705  11.997   9.562   4.666
 2488W        W70706  28.525  20.607  10.645
 2489W        W70707  39.035   9.128   4.500
 2490W        W70708   8.428  25.010   1.918
 2491W        W70709  18.966  17.862  12.544
 2492W        W70710   3.714  16.882   2.625
 2493W        W70711   9.668  13.337   4.692
 2494W        W70712  25.035  44.560  14.830
 2495W        W70713  43.280  11.399  14.935
 2496W        W70714  33.477  43.900  13.845
 2497W        W70715  10.292  22.703  12.351
 2498W        W70716  22.327  23.336   3.320
 2499W        W70717   7.911   5.716  10.820
 2500W        W70718   2.200   0.022   0.461
 2501W        W70719  41.939  23.882   2.703
 2502W        W70720  24.586  32.923   0.464
 2503W        W70721  31.150  20.134   2.938
 2504W        W70722  31.080  37.172  14.541
 2505W        W70723  12.336  17.348  11.997
 2506W        W70724   1.909   6.814  12.454
 2507W        W70725  31.075  12.613   2.681
 2508W        W70726   4.884  28.889   4.256
 2509W        W70727  30.607  14.382  10.719
 2510W        W70728   0.965  37.708   0.470
 2511W        W70729  25.093   0.929  13.834
 2512W        W70730  12.619   7.622  12.523
 2513W        W70731  32.733   5.793  13.517
 2514W        W70732  43.337  39.985   4.583
 2515W        W70733  42.958  23.471  11.089
 2516W        W70734  44.790  18.418  10.836
 2517W        W70735  22.184  18.346  14.431
 2518W        W70736  16.197  24.463   1.672
 2519W        W70737   8.011  34.532   2.623
 2520W        W70738  35.505  43.108   3.309
 2521W        W70739  24.239  35.711   4.585
 2522W        W70740  31.934  16.603  11.639
 2523W        W70741  14.234  18.279   4.687
 2524W        W70742  15.466  22.733  12.101
 2525W        W70743  10.280   9.781   4.907
 2526W        W70744   2.915  36.999  11.435
 2527W        W70745  32.121  29.133  12.874
 2528W        W70746  25.458  27.513  13.439
 2529W        W70747  40.317   5.890   1.670
 2530W        W70748   7.883  26.291  14.990
 2531W        W70749  44.304  20.475   4.575
 2532W        W70750  17.860   9.722   2.355
 2533W        W70751  37.160   5.500  10.611
 2534W        W70752  41.452  41.050  12.218
 2535W        W70753  16.474  19.254   2.364
 2536W        W70754   1.794  18.980  14.857
 2537W        W70755   0.655  37.895  10.516
 2538W        W70756   1.216   2.172  12.063
 2539W        W70757  26.975  41.086  14.295
 2540W        W70758  30.451  12.274  14.908
 2541W        W70759  42.022  35.543  14.517
 2542W        W70760   9.259  31.460  12.006
 2543W        W70761   5.145  30.970  13.012
 2544W        W70762  21.250  13.610  11.951
 2545W        W70763  19.636  43.707   0.399
 2546W        W70764  17.723  28.037  11.949
 2547W        W70765  32.115  44.445  13.239
 2548W        W70766   1.215   6.365  12.289
 2549W        W70767  25.437  11.067  13.418
 2550W        W70768  16.230  44.565   2.937
 2551W        W70769  19.647  23.511   3.934
 2552W        W70770  19.694   3.479  10.774
 2553W        W70771  20.067  21.479  11.619
 2554W        W70772  28.408  18.784  13.059
 2555W        W70773   5.984  34.380  14.994
 2556W        W70774  39.289   7.709  13.907
 2557W        W70775   9.495  27.668  12.070
 2558W        W70776  14.683  21.231   1.696
 2559W        W70777  12.111   4.000  10.776
 2560W        W70778   8.593  38.532   2.209
 2561W        W70779  31.153  20.266  10.751
 2562W        W70780   1.744   9.126   3.595
 2563W        W70781  44.409  12.763  11.137
 2564W        W70782  37.666  25.662   5.004
 2565W        W70783  39.016  36.420   1.195
 2566W        W70784   4.946  31.963   0.753
 2567W        W70785  37.986  43.225  13.539
 2568W        W70786  20.286  41.871   1.487
 2569W        W70787  32.610  10.756  14.767
 2570W        W70788  30.750   2.613  11.080
 2571W        W70789  19.776  28.980   0.734
 2572W        W70790  44.823  36.909  10.825
 2573W        W70791  12.776  17.060   3.686
 2574W        W70792  24.651  42.506   2.706
 2575W        W70793  14.153  37.870  12.973
 2576W        W70794  43.722  38.791  11.134
 2577W        W70795  23.773  13.602  14.482
 2578W        W70796   2.994   7.856  11.364
 2579W        W70797  22.581  31.438  14.029
 2580W        W70798  44.016  16.527  12.415
 2581W        W70799  43.076  36.081   3.256
 2582W        W70800  44.945  36.686  14.781
 2583W        W70801  42.684  41.495  10.236
 2584W        W70802  36.364  22.252  11.433
 2585W        W70803  12.535  18.564   2.214
 2586W        W70804  18.040  12.796   0.320
 2587W        W70805   6.661  16.050  13.377
 2588W        W70806  36.104  23.801  11.525
 2589W        W70807  17.128   2.940  13.453
 2590W        W70808   3.552  34.933  14.804
 2591W        W70809  38.758  35.422  13.537
 2592W        W70810  38.332  38.169  14.946
 2593W        W70811  38.593  22.203  12.944
 2594W        W70812  30.466   2.744   2.780
 2595W        W70813  19.597  26.981   4.331
 2596W        W70814   8.776   1.145  10.469
 2597W        W70815  41.030   8.469   3.159
 2598W        W70816  22.520  31.007   0.677
 2599W        W70817  12.767  37.347  12.901
 2600W        W70818  39.254  41.334  11.002
 2601W        W70819  36.293  29.179   1.692
 2602W        W70820  21.181  38.984  11.958
 2603W        W70821  43.266  29.453   2.609
 2604W        W70822   8.209  29.398   3.178
 2605W        W70823  32.030  35.100  14.980
 2606W        W70824  30.101  12.211  12.179
 2607W        W70825  30.422   0.402   1.313
 2608W        W70826  27.153  37.396   9.954
 2609W        W70827  14.469  15.913  10.521
 2610W        W70828   9.558  39.484  13.557
 2611W        W70829   3.214   1.430   1.324
 2612W        W70830  31.046  26.968  13.465
 2613W        W70831  31.230   1.011  13.004
 2614W        W70832  31.695  36.067  14.980
 2615W        W70833  23.137  25.984  12.480
 2616W        W70834  35.438  43.834  14.290
 2617W        W70835  33.551  27.512   4.441
 2618W        W70836  29.181  25.316  14.715
 2619W        W70837  38.138  18.855  10.167
 2620W        W70838  31.357  12.641  13.287
 2621W        W70839   4.867  38.066   1.874
 2622W        W70840  21.237  21.035   0.806
 2623W        W70841  43.998   8.178  11.487
 2624W        W70842  36.577  25.596   1.030
 2625W        W70843  43.012  28.115   1.920
 2626W        W70844  33.504  32.592   1.992
 2627W        W70845  16.334  38.431   1.687
 2628W        W70846   8.620  25.198  14.905
 2629W        W70847   3.748  27.323   4.471
 2630W        W70848  25.747  39.927  12.012
 2631W        W70849   9.364  36.929   1.175
 2632W        W70850   5.472  25.969  13.368
 2633W        W70851  39.876  27.413   3.099
 2634W        W70852  37.052  24.026  12.472
 2635W        W70853   4.402  10.849  12.647
 2636W        W70854  17.204   6.262   0.428
 2637W        W70855  39.519  36.064  14.605
 2638W        W70856   3.037  38.956  12.083
 2639W        W70857  42.952   0.748  13.581
 2640W        W70858   7.613  23.704  12.527
 2641W        W70859  13.170  38.949  10.600
 2642W        W70860  40.967  17.131  14.878
 2643W        W70861  34.124  32.638   2.720
 2644W        W70862   1.014  44.974  13.310
 2645W        W70863  41.038  20.496   3.687
 2646W        W70864  39.869  40.835  12.939
 2647W        W70865   0.312  27.250   2.557
 2648W        W70866  40.417  31.130   3.059
 2649W        W70867   4.605  29.138   0.496
 2650W        W70868  11.225   2.479  14.506
 2651W        W70869  19.128   2.744  12.380
 2652W        W70870  35.869  29.359  13.606
 2653W        W70871   0.446  18.570  14.538
 2654W        W70872  36.043  40.923   1.281
 2655W        W70873   2.937  18.326  13.326
 2656W        W70874   8.642  14.711   9.959
 2657W        W70875  25.522  16.228   3.627
 2658W        W70876  24.256  14.127   4.538
 2659W        W70877  34.769  23.051  11.504
 2660W        W70878  40.536   5.364  10.324
 2661W        W70879   0.500  17.685   3.170
 2662W        W70880   8.817  12.314  13.852
 2663W        W70881   0.842  14.907  11.862
 2664W        W70882  36.980  28.589  10.520
 2665W        W70883  34.456   0.481  14.885
 2666W        W70884  36.092  41.482   4.559
 2667W        W70885  28.680   3.513  12.006
 2668W        W70886  32.534  11.952  13.002
 2669W        W70887   1.310   2.547  12.862
 2670W        W70888  10.335  30.099   3.086
 2671W        W70889  32.991   7.115   1.875
 2672W        W70890  13.780  17.866   4.114
 2673W        W70891   3.685  23.447  11.802
 2674W        W70892  26.182  43.419  12.119
 2675W        W70893  44.272   1.202   2.798
 2676W        W70894  26.666   8.625   1.048
 2677W        W70895  16.819  18.101   0.442
 2678W        W70896  21.191   5.246   0.313
 2679W        W70897  35.836  20.526  13.464
 2680W        W70898  18.493  38.966   1.885
 2681W        W70899  16.907   8.011   1.815
 2682W        W70900  17.070   9.410   0.388
 2683W        W70901  35.394  34.613   3.465
 2684W        W70902  43.973  37.905  13.604
 2685W        W70903  44.882  35.423  13.226
 2686W        W70904  32.197  24.162   1.365
 2687W        W70905  12.546  14.265   0.530
 2688W        W70906  18.646   3.997  12.675
 2689W        W70907   1.843  33.586  12.746
 2690W        W70908  17.639  15.912  11.080
 2691W        W70909  42.278  36.203   5.040
 2692W        W70910   5.215  14.342   3.277
 2693W        W70911  22.539   2.878  14.191
 2694W        W70912  33.456  17.588  10.411
 2695W        W70913   2.347  42.411  14.106
 2696W        W70914  20.775   9.669   2.839
 2697W        W70915  37.319  12.119  11.181
 2698W        W70916  32.522  18.285   3.642
 2699W        W70917  43.444  37.457  10.971
 2700W        W70918  32.251   7.780  13.414
 2701W        W70919  14.663  16.691  11.343
 2702W        W70920  12.584  27.693   3.601
 2703W        W70921  14.256  42.072   5.032
 2704W        W70922  44.246   0.997  11.903
 2705W        W70923  14.048  34.138   0.316
 2706W        W70924  35.483   7.821   2.281
 2707W        W70925  33.502  28.603   5.347
 2708W        W70926  40.769  28.653  11.939
 2709W        W70927  43.860  14.508  11.182
 2710W        W70928  34.638  25.281   3.300
 2711W        W70929  27.943  19.271  12.847
 2712W        W70930  20.799  33.821   1.388
 2713W        W70931   1.898  42.488  13.856
 2714W        W70932   0.789  14.846   0.613
 2715W        W70933  20.565  29.605  13.302
 2716W        W70934  35.032   2.920   4.472
 2717W        W70935  32.416   6.654  12.441
 2718W        W70936  43.832  25.478  14.776
 2719W        W70937  19.007  29.769  11.124
 2720W        W70938  23.319  19.324  12.564
 2721W        W70939  36.033  39.222  11.037
 2722W        W70940  15.718  43.416   0.511
 2723W        W70941  44.014  30.912   3.291
 2724W        W70942  44.353  28.518   3.221
 2725W        W70943  11.687  38.770  14.344
 2726W        W70944   3.431  28.736   3.321
 2727W        W70945  27.733  11.823   3.372
 2728W        W70946  40.952  23.533   0.698
 2729W        W70947   8.702  28.931   3.621
 2730W        W70948  21.829  16.073  14.764
 2731W        W70949  43.657  34.578   2.844
 2732W        W70950  10.039  21.512   3.072
 2733W        W70951  27.546  38.503  13.908
 2734W        W70952  44.729  15.567  11.171
 2735W        W70953  25.056  25.933   4.051
 2736W        W70954  29.923  11.332  12.500
 2737W        W70955  17.851  39.700   4.832
 2738W        W70956  42.816  21.559   0.757
 2739W        W70957  41.034  11.163  13.542
 2740W        W70958  38.822  13.930  12.495
 2741W        W70959  31.967  19.780   1.331
 2742W        W70960  15.665  33.355   3.551
 2743W        W70961  22.606  16.739   1.570
 2744W        W70962   1.810  15.837  13.783
 2745W        W70963  33.763  27.549   2.746
 2746W        W70964   6.264  10.676   3.314
 2747W        W70965  17.176   0.511   4.521
 2748W        W70966   2.393  24.171   4.209
 2749W        W70967  36.908  39.920  10.447
 2750W        W70968  43.979  21.229   0.836
 2751W        W70969  10.114  31.532   3.198
 2752W        W70970  37.200  34.822   5.196
 2753W        W70971  38.449  32.755  13.637
 2754W        W70972  42.473  33.592   0.799
 2755W        W70973  39.011  33.615   3.112
 2756W        W70974  23.983  32.227  10.038
 2757W        W70975   9.715  44.244   1.671
 2758W        W70976  43.963  20.088   4.789
 2759W        W70977  23.253  23.498   3.301
 2760W        W70978  29.406  24.476  12.965
 2761W        W70979  39.573   4.401   0.033
 2762W        W70980   7.035  19.870   5.002
 2763W        W70981  15.119  15.787  14.387
 2764W        W70982   1.326  41.504  10.947
 2765W        W70983  14.032  25.408   1.388
 2766W        W70984  36.554  42.695  13.745
 2767W        W70985  20.835  34.852  13.111
 2768W        W70986  23.452  30.249  12.910
 2769W        W70987  16.178   3.450   3.640
 2770W        W70988   4.624  22.626   4.410
 2771W        W70989  36.668  19.093   2.434
 2772W        W70990  10.224   4.399  13.008
 2773W        W70991   5.234   2.162   3.247
 2774W        W70992  37.286  26.469   1.406
 2775W        W70993  11.160  40.384  12.421
 2776W        W70994  12.087   1.611   4.114
 2777W        W70995  31.452  14.029   3.163
 2778W        W70996  10.994  32.825   2.729
 2779W        W70997  39.297  29.910  12.636
 2780W        W70998  36.369  24.663   4.690
 2781W        W70999  12.579  27.469  13.449
 2782W        W71000  24.205  10.393  14.625
 2783W        W71001  24.729  23.008   0.800
 2784W        W71002  10.410  27.258  14.130
 2785W        W71003  38.082  43.008   3.406
 2786W        W71004  20.154  24.090   3.305
 2787W        W71005  11.169  43.262  12.885
 2788W        W71006   6.659  23.687   4.183
 2789W        W71007   8.623  30.821   0.715
 2790W        W71008  36.469  33.866   1.956
 2791W        W71009   9.321  34.960   0.256
 2792W        W71010  44.263  29.251   1.144
 2793W        W71011   1.112   2.071   1.025
 2794W        W71012   1.880  27.664   4.635
 2795W        W71013  19.734  21.645  13.035
 2796W        W71014  10.735  38.382  10.820
 2797W        W71015  39.026  28.532   3.305
 2798W        W71016  15.822  43.378   1.896
 2799W        W71017  10.676   1.763   3.546
 2800W        W71018  23.607  37.647  11.746
 2801W        W71019  13.729  25.752   1.164
 2802W        W71020  29.020  26.966   1.776
 2803W        W71021  44.374  27.983  12.913
 2804W        W71022  17.111  42.683   3.241
 2805W        W71023  42.157  14.076  13.509
 2806W        W71024  43.444  40.739   1.711
 2807W        W71025   6.709  44.085   2.885
 2808W        W71026  44.342  20.929  14.059
 2809W        W71027  41.698   6.252   4.101
 2810W        W71028  27.176  27.182   4.617
 2811W        W71029  29.083  42.971  14.752
 2812W        W71030  22.698  15.569   0.761
 2813W        W71031  12.846   6.924  11.740
 2814W        W71032   9.638  23.542   2.354
 2815W        W71033   6.523  41.558   0.191
 2816W        W71034   4.817  35.788   1.010
 2817W        W71035  25.697  18.592   2.301
 2818W        W71036  16.405  13.224  14.672
 2819W        W71037  19.314  37.030   0.933
 2820W        W71038   0.735   8.213  12.023
 2821W        W71039  24.179  44.944  12.062
 2822W        W71040  30.261  37.595  13.548
 2823W        W71041  17.595  15.288   2.405
 2824W        W71042  40.687  30.591   1.195
 2825W        W71043  14.304   0.234  14.428
 2826W        W71044  20.456  32.436  11.147
 2827W        W71045   5.887  19.449  14.627
 2828W        W71046  34.122  10.719  14.158
 2829W        W71047  26.031  19.211  14.348
 2830W        W71048   0.344  16.677   0.751
 2831W        W71049   6.947  34.544  14.408
 2832W        W71050  12.139  17.460  12.443
 2833W        W71051  26.725  30.015  12.091
 2834W        W71052  11.767  41.695   9.748
 2835W        W71053  32.884   4.350  12.055
 2836W        W71054   2.209  15.232   2.677
 2837W        W71055  38.589  37.410   4.097
 2838W        W71056  15.319   8.818   2.196
 2839W        W71057   7.048  13.783   3.678
 2840W        W71058  27.700  42.025   1.828
 2841W        W71059   1.525  27.043   3.991
 2842W        W71060  24.063  24.006   1.906
 2843W        W71061  27.715  18.178  13.961
 2844W        W71062  17.237  10.646   3.425
 2845W        W71063  19.271  40.244  12.775
 2846W        W71064  18.582   1.526  11.906
 2847W        W71065  41.265  13.349  11.813
 2848W        W71066  35.604  21.698   1.808
 2849W        W71067  10.673   7.800  14.380
 2850W        W71068  10.769   8.127   1.218
 2851W        W71069  19.010  23.167   3.225
 2852W        W71070   3.883   7.644  12.409
 2853W        W71071  38.960  27.522   2.254
 2854W        W71072  23.754  23.138   4.103
 2855W        W71073  15.623  27.472  14.946
 2856W        W71074  21.158  25.044   0.274
 2857W        W71075  32.400  18.392  13.102
 2858W        W71076  13.069  12.254   3.231
 2859W        W71077  27.163  22.731   1.864
 2860W        W71078  30.506  28.069   2.637
 2861W        W71079  21.036  23.934  11.974
 2862W        W71080  11.020  39.337  12.408
 2863W        W71081   0.210  28.629  11.557
 2864W        W71082  10.819  44.259  11.039
 2865W        W71083  15.593  35.287  13.305
 2866W        W71084  11.477  29.274  14.392
 2867W        W71085   8.730  38.869   4.029
 2868W        W71086  31.095  26.632   2.709
 2869W        W71087  43.279   1.230   2.862
 2870W        W71088  12.868  19.597   3.262
 2871W        W71089  38.089  23.745   3.302
 2872W        W71090   9.344  38.607  14.341
 2873W        W71091   4.972  11.192   3.240
 2874W        W71092   1.569   3.348   1.299
 2875W        W71093   7.055   6.534   1.366
 2876W        W71094  29.936  36.659  13.558
 2877W        W71095  36.088  25.675   3.322
 2878W        W71096  21.056  34.516  11.671
 2879W        W71097  30.828  24.079  11.521
 2880W        W71098   7.713  32.176  12.048
 2881W        W71099  42.988  18.093   3.216
 2882W        W71100   6.654   9.170  13.422
 2883W        W71101  26.428   8.897   4.773
 2884W        W71102  10.702  29.981   0.726
 2885W        W71103  12.234  24.699  13.388
 2886W        W71104   8.785  26.504  13.004
 2887W        W71105  44.279  40.510  13.016
 2888W        W71106  37.543  44.321  14.024
 2889W        W71107  41.386  26.311   2.751
 2890W        W71108   3.922  17.670  11.981
 2891W        W71109  14.597   3.910  11.932
 2892W        W71110  24.240  24.714   0.651
 2893W        W71111  16.364  36.281  11.628
 2894W        W71112  37.356  44.893  10.867
 2895W        W71113  10.649   7.701   4.799
 2896W        W71114   1.577   6.779   0.234
 2897W        W71115  21.541  35.136   4.076
 2898W        W71116  17.311  36.939   1.320
 2899W        W71117  39.331  16.674   4.562
 2900W        W71118  31.774   1.227   4.491
 2901W        W71119  15.997  35.411   3.397
 2902W        W71120   0.357  22.456   4.645
 2903W        W71121  21.023  32.869  10.184
 2904W        W71122  39.501  36.708   1.019
 2905W        W71123  36.520  36.273  10.442
 2906W        W71124  22.802  24.544   3.664
 2907W        W71125  27.237  44.460  14.264
 2908W        W71126  24.936  39.103   1.177
 2909W        W71127  36.087   6.809   2.241
 2910W        W71128   4.620  37.350   2.913
 2911W        W71129  15.606  35.694  12.513
 2912W        W71130  34.389   1.446   1.935
 2913W        W71131   7.504  41.076   2.865
 2914W        W71132  19.627  38.953  13.861
 2915W        W71133  21.987   9.953   4.118
 2916W        W71134   2.702  42.330  13.449
 2917W        W71135  42.884   8.071   0.007
 2918W        W71136  28.183  32.935   2.194
 2919W        W71137   0.191  12.434   0.372
 2920W        W71138   1.250   1.462   0.357
 2921W        W71139  30.475  21.611   3.345
 2922W        W71140  21.890  20.036  11.116
 2923W        W71141  44.413  23.893   9.838
 2924W        W71142  20.051  18.730   3.445
 2925W        W71143  14.903  21.935   3.426
 2926W        W71144  44.231  21.948  11.131
 2927W        W71145  26.001  38.304   4.623
 2928W        W71146  35.550   9.280  12.186
 2929W        W71147  26.947  31.410   2.470
 2930W        W71148  37.319  22.077  11.181
 2931W        W71149  19.279  19.762  11.884
 2932W        W71150  38.316  32.913  11.084
 2933W        W71151  35.234   9.072  10.233
 2934W        W71152  23.082  34.926  13.569
 2935W        W71153   8.979  13.678  13.534
 2936W        W71154  17.103  44.046   2.671
 2937W        W71155  23.633   2.502  14.480
 2938W        W71156  36.842  42.502   1.365
 2939W        W71157  40.784   2.929  11.681
 2940W        W71158   2.845  31.127  12.387
 2941W        W71159  25.429  14.972   4.563
 2942W        W71160  37.068   9.612   1.321
 2943W        W71161   8.019  30.866   0.206
 2944W        W71162  23.788  34.113   1.668
 2945W        W71163  25.986   4.438  12.548
 2946W        W71164  12.133  22.570  12.058
 2947W        W71165  34.546  24.445   2.946
 2948W        W71166   1.397  24.330   2.301
 2949W        W71167  17.965  20.299   0.452
 2950W        W71168  21.334  40.456  14.923
 2951W        W71169   6.817  10.397  11.175
 2952W        W71170  16.085  13.688  10.671
 2953W        W71171  27.751   9.642  11.109
 2954W        W71172  30.325  19.108   3.529
 2955W        W71173  13.403   0.950   4.023
 2956W        W71174  31.514  44.774   0.804
 2957W        W71175  18.593  10.878  14.324
 2958W        W71176  30.550  38.950  11.387
 2959W        W71177   3.996  41.944  12.924
 2960W        W71178   5.792  34.887  12.810
 2961W        W71179   2.533  38.855   1.306
 2962W        W71180  22.488  35.886  11.127
 2963W        W71181   6.314  29.882  11.860
 2964W        W71182  21.504   3.478  11.951
 2965W        W71183   7.867  11.134  11.577
 2966W        W71184  13.436  41.898  11.525
 2967W        W71185  40.976  18.019   4.521
 2968W        W71186   5.509  43.301   4.252
 2969W        W71187  44.966  18.347   5.237
 2970W        W71188  11.524   1.300  10.386
 2971W        W71189  44.785  36.614  11.241
 2972W        W71190  35.108  32.947   2.220
 2973W        W71191  17.291   2.462   3.665
 2974W        W71192  21.444  20.609  12.907
 2975W        W71193  31.564  23.929  14.027
 2976W        W71194   9.413  23.660  13.383
 2977W        W71195   2.265  28.677   0.862
 2978W        W71196   6.188  37.856   0.838
 2979W        W71197  32.094  33.341   9.519
 2980W        W71198  34.328  24.684   1.515
 2981W        W71199  29.563  33.654   4.142
 2982W        W71200  17.203   3.735   0.185
 2983W        W71201  24.490  17.807  10.742
 2984W        W71202  21.510   2.485  14.752
 2985W        W71203  31.626  26.582  14.009
 2986W        W71204  26.560  44.086  13.018
 2987W        W71205   1.666  21.766  12.444
 2988W        W71206  28.614  29.515  11.181
 2989W        W71207  37.860  25.762   0.966
 2990W        W71208  30.048   8.227   3.250
 2991W        W71209  28.998  31.938  14.369
 2992W        W71210  22.697   8.690   4.574
 2993W        W71211  34.428   3.380   2.820
 2994W        W71212  42.368  42.220   2.736
 2995W        W71213  25.750   3.345   3.361
 2996W        W71214  11.998  28.109   3.370
 2997W        W71215  27.980  28.413  14.082
 2998W        W71216   3.832  26.050  11.636
 2999W        W71217   8.425  41.137   0.974
 3000W        W71218   1.183   9.900  13.962
 3001W        W71219  25.940   4.617  13.887
 3002W        W71220   2.468   3.719   3.313
 3003W        W71221   5.767  20.743  12.639
 3004W        W71222   9.917  12.987   1.253
 3005W        W71223   1.179  21.724  12.625
 3006W        W71224  14.624   5.438  13.418
 3007W        W71225  31.195  31.409   3.400
 3008W        W71226  31.211  27.927  11.564
 3009W        W71227  14.203   0.870  11.236
 3010W        W71228  27.075  22.722   4.187
 3011W        W71229  18.121   0.273   4.693
 3012W        W71230  20.056  18.729   2.332
 3013W        W71231  40.528  40.732  10.686
 3014W        W71232   9.350  24.357  13.007
 3015W        W71233   6.190  27.901  14.384
 3016W        W71234  40.688  10.217   2.330
 3017W        W71235  36.409  18.754   2.771
 3018W        W71236   0.749  37.068   3.071
 3019W        W71237  26.615  14.444  13.432
 3020W        W71238  11.738  42.951   2.822
 3021W        W71239  20.230   6.897  14.750
 3022W        W71240  24.293  21.069  12.602
 3023W        W71241   9.177  30.608   3.619
 3024W        W71242   5.150   0.836   4.403
 3025W        W71243  35.961  14.055   4.838
 3026W        W71244   8.894  42.838  14.009
 3027W        W71245  19.177  33.537  14.898
 3028W        W71246  42.707   9.291   2.372
 3029W        W71247  21.735   9.331  12.537
 3030W        W71248  28.872  23.747  13.059
 3031W        W71249  17.212  36.031  14.814
 3032W        W71250  11.429  11.071  12.372
 3033W        W71251  27.386  39.546  10.783
 3034W        W71252  30.711  22.637  13.894
 3035W        W71253  37.132  36.399   1.751
 3036W        W71254  20.283  30.438   2.325
 3037W        W71255   9.814   5.906  14.400
 3038W        W71256  18.349  32.595   0.398
 3039W        W71257   8.302  35.024  13.478
 3040W        W71258   5.219   6.204  12.529
 3041W        W71259  31.360  33.459  12.373
 3042W        W71260  34.751  43.997  12.473
 3043W        W71261  34.544   3.778  10.732
 3044W        W71262  34.714   2.383  14.086
 3045W        W71263  28.104  35.367  10.624
 3046W        W71264  34.840   9.784  14.338
 3047W        W71265  38.954  40.973   0.542
 3048W        W71266  15.345  38.361  13.386
 3049W        W71267  36.365  39.500  14.698
 3050W        W71268  23.024  20.382  14.472
 3051W        W71269  35.017  39.401   1.358
 3052W        W71270   8.505  33.130  14.437
 3053W        W71271  32.357  33.384   3.620
 3054W        W71272  22.968  13.791   4.554
 3055W        W71273  31.810   5.699  12.103
 3056W        W71274   7.569  32.164  14.285
 3057W        W71275   5.272  19.226  12.989
 3058W        W71276  11.164   0.368  12.603
 3059W        W71277  13.816  35.517  13.825
 3060W        W71278  15.676  30.603   0.472
 3061W        W71279  39.934  37.856   2.402
 3062W        W71280  37.107  23.555  10.689
 3063W        W71281  39.511  17.767   0.933
 3064W        W71282  43.763  22.690   3.673
 3065W        W71283  33.114  20.947   2.077
 3066W        W71284  13.559  22.115   3.729
 3067W        W71285   5.736  17.009   2.767
 3068W        W71286  36.946  32.415   4.068
 3069W        W71287  23.184  25.158  13.554
 3070W        W71288  15.921  26.582   2.167
 3071W        W71289  34.661   3.151   0.314
 3072W        W71290  20.315   0.287   2.948
 3073W        W71291  36.208  19.680  14.308
 3074W        W71292   3.337  18.017  13.460
 3075W        W71293  22.413  36.663   3.282
 3076W        W71294  12.679   4.338  13.045
 3077W        W71295  12.186  15.037  13.115
 3078W        W71296  20.832  38.612  13.474
 3079W        W71297  23.690  29.022   2.101
 3080W        W71298  13.747   1.502  11.639
 3081W        W71299  31.558   2.666   2.588
 3082W        W71300  10.875  37.409  10.385
 3083W        W71301  42.834  42.350  13.956
 3084W        W71302   2.070  16.960   0.222
 3085W        W71303  42.770  38.044   3.319
 3086W        W71304  36.902  43.544   4.873
 3087W        W71305  19.186  19.084   4.322
 3088W        W71306  12.263  23.939  13.908
 3089W        W71307  36.387  20.609   2.857
 3090W        W71308   6.503   0.526   0.524
 3091W        W71309  33.541  27.435   3.646
 3092W        W71310  22.760  21.200  12.473
 3093W        W71311  28.682  29.443   4.038
 3094W        W71312   9.398  24.952  11.647
 3095W        W71313  20.368  14.170   0.724
 3096W        W71314  42.818  17.026  14.484
 3097W        W71315   5.796   1.714  13.812
 3098W        W71316  40.462  29.782   4.769
 3099W        W71317  39.362  24.445  11.937
 3100W        W71318  10.706  24.016  13.793
 3101W        W71319  21.002  24.228   1.928
 3102W        W71320   8.701  30.649   4.604
 3103W        W71321  24.825  44.414   3.215
 3104W        W71322   0.363  23.132  13.544
 3105W        W71323  34.369  27.899  12.038
 3106W        W71324  23.718  26.093  10.976
 3107W        W71325  17.115  25.219   3.256
 3108W        W71326  44.076  21.075  13.255
 3109W        W71327  17.266   7.219  13.308
 3110W        W71328   0.334  25.990   0.300
 3111W        W71329  23.798   9.493  14.274
 3112W        W71330   8.995  11.522   4.570
 3113W        W71331   3.895   9.188  11.817
 3114W        W71332  44.754  28.610   0.447
 3115W        W71333  11.627  41.580   3.598
 3116W        W71334   4.274  38.614   1.017
 3117W        W71335  44.282   6.459   0.803
 3118W        W71336   9.383  19.598   4.118
 3119W        W71337  26.133  12.156  10.841
 3120W        W71338  27.689  33.082   2.305
 3121W        W71339  10.765  21.688  11.223
 3122W        W71340   2.859  34.535  10.762
 3123W        W71341  33.125  41.027  11.826
 3124W        W71342   1.190  36.676   3.789
 3125W        W71343  36.183  28.929  12.476
 3126W        W71344   4.774  19.485   4.983
 3127W        W71345  42.771  29.776   0.933
 3128W        W71346  22.208  18.271   3.230
 3129W        W71347  22.861  17.141   1.784
 3130W        W71348  43.735  41.023   0.969
 3131W        W71349  14.093  32.091  10.660
 3132W        W71350   1.980  17.108   5.050
 3133W        W71351  25.626   8.431  13.313
 3134W        W71352   7.921  23.901   3.885
 3135W        W71353  19.811  16.881  11.842
 3136W        W71354  44.351   3.220  11.183
 3137W        W71355  31.390   8.352  13.459
 3138W        W71356  14.805  10.814  13.034
 3139W        W71357  39.971  19.815  13.933
 3140W        W71358  29.567  20.583   4.198
 3141W        W71359  22.187  23.745   4.443
 3142W        W71360  34.436   1.005  11.160
 3143W        W71361  16.494  13.636   1.847
 3144W        W71362   5.995  42.667  11.869
 3145W        W71363  12.097   3.771   1.334
 3146W        W71364  40.915   1.995  11.244
 3147W        W71365  10.571  37.995  11.114
 3148W        W71366  21.051   6.717   2.389
 3149W        W71367  12.849  23.750   3.734
 3150W        W71368  39.227  40.402  14.876
 3151W        W71369  40.934  27.638   1.874
 3152W        W71370   3.754  43.345   0.191
 3153W        W71371   7.160  11.628  13.224
 3154W        W71372  21.232  20.814   2.686
 3155W        W71373  35.934  44.419  11.694
 3156W        W71374   2.428  32.155  11.109
 3157W        W71375  31.589   3.718   2.222
 3158W        W71376  23.591  31.142   3.357
 3159W        W71377   5.419  13.111   1.743
 3160W        W71378   3.130  17.111   3.776
 3161W        W71379  25.770  16.976   0.425
 3162W        W71380  10.393  33.435   3.825
 3163W        W71381  21.627  15.237   3.624
 3164W        W71382  33.515  27.762   4.910
 3165W        W71383  29.540  30.478  12.523
 3166W        W71384   1.096  38.930   3.256
 3167W        W71385  22.653  30.432  12.503
 3168W        W71386  22.554  13.547  11.574
 3169W        W71387   6.919  42.415   2.258
 3170W        W71388  15.734  29.093   0.518
 3171W        W71389  26.065   1.796   1.988
 3172W        W71390   3.227  40.766  11.581
 3173W        W71391   3.517   6.390  11.683
 3174W        W71392  14.152  26.569  12.571
 3175W        W71393  27.480   5.064  14.514
 3176W        W71394  27.130  32.479   0.989
 3177W        W71395  22.523  21.263  13.856
 3178W        W71396  40.483  41.818  10.497
 3179W        W71397   9.706  22.701   2.887
 3180W        W71398  32.869  30.669  10.995
 3181W        W71399  22.865  12.091  14.500
 3182W        W71400  42.446  20.574   2.162
 3183W        W71401  38.815  11.505  12.548
 3184W        W71402  31.675  44.407   2.702
 3185W        W71403   6.126  36.151  11.600
 3186W        W71404   9.194  41.824  13.257
 3187W        W71405  21.193   2.389   1.226
 3188W        W71406  27.642  11.078   4.699
 3189W        W71407  36.587  35.760  10.350
 3190W        W71408  27.669   5.207   2.299
 3191W        W71409  38.475  29.141  11.261
 3192W        W71410  32.388  33.505   4.549
 3193W        W71411  19.520  12.413  14.312
 3194W        W71412  35.139  18.943   2.475
 3195W        W71413   5.572  15.670  14.789
 3196W        W71414  15.921  16.369  14.893
 3197W        W71415  16.834  36.094  11.617
 3198W        W71416  22.644  38.583  13.053
 3199W        W71417   8.764  10.284   4.661
 3200W        W71418  27.016  25.420  12.119
 3201W        W71419  19.280  23.733   4.217
 3202W        W71420  28.976  20.285   2.295
 3203W        W71421  41.833  39.058  13.567
 3204W        W71422  29.053  23.066   9.780
 3205W        W71423  18.239  20.722   3.579
 3206W        W71424  17.296  23.205  11.111
 3207W        W71425  38.595   1.178   0.953
 3208W        W71426  31.892  39.857  14.268
 3209W        W71427   5.281  37.883  13.681
 3210W        W71428  43.937  17.554  12.355
 3211W        W71429   9.554   7.088   1.645
 3212W        W71430  42.849  44.174  11.619
 3213W        W71431  37.840  16.828  14.877
 3214W        W71432  11.915  17.676  12.002
 3215W        W71433  20.071  35.488   1.852
 3216W        W71434  21.132  36.991  10.815
 3217W        W71435   0.014   3.023  13.698
 3218W        W71436  22.659   7.264  10.759
 3219W        W71437  23.327  44.224   4.720
 3220W        W71438  21.731  25.394  10.647
 3221W        W71439  32.005   2.554  12.388
 3222W        W71440  15.834  23.025   2.345
 3223W        W71441  37.044  40.105   3.068
 3224W        W71442   1.481   4.459  12.839
 3225W        W71443  41.333  44.750  14.027
 3226W        W71444   4.042   2.841   1.855
 3227W        W71445  25.103  43.938  11.463
 3228W        W71446  29.135   7.758  13.012
 3229W        W71447  10.646  36.368   3.237
 3230W        W71448  23.617  12.730   4.419
 3231W        W71449  27.559  39.801   0.075
 3232W        W71450  31.332  16.264  14.776
 3233W        W71451   5.795  32.717   1.661
 3234W        W71452  32.955  27.551  12.398
 3235W        W71453  37.474  40.434   4.571
 3236W        W71454  11.199  31.947  12.000
 3237W        W71455   1.962  14.747   1.820
 3238W        W71456  29.563  29.363   3.619
 3239W        W71457   2.221  32.290   3.694
 3240W        W71458  26.704   3.690   0.366
 3241W        W71459  21.651  21.735   0.977
 3242W        W71460  23.562  20.589  10.679
 3243W        W71461   1.386  37.721   1.165
 3244W        W71462  42.776  39.361   4.084
 3245W        W71463  40.536  28.073  14.758
 3246W        W71464  22.817  18.632  13.367
 3247W        W71465   8.888  29.375   3.792
 3248W        W71466  23.270  41.386  14.284
 3249W        W71467  21.273  42.540   0.421
 3250W        W71468  36.521   8.568   4.547
 3251W        W71469  23.684  22.505  14.600
 3252W        W71470  16.683  15.529  12.529
 3253W        W71471  26.471  29.942   4.973
 3254W        W71472  39.923  31.153  13.987
 3255W        W71473   3.226  33.872  12.223
 3256W        W71474  23.493  10.367   2.461
 3257W        W71475  20.303  40.481  14.562
 3258W        W71476   6.845  36.550   3.719
 3259W        W71477   5.360  35.500   3.314
 3260W        W71478   2.033  39.341   2.384
 3261W        W71479  41.209   0.992  14.331
 3262W        W71480  37.418  28.092   1.275
 3263W        W71481  13.471  21.530   1.827
 3264W        W71482  30.048  32.385  11.369
 3265W        W71483  28.198  12.923   1.400
 3266W        W71484  31.991  42.382   4.909
 3267W        W71485  26.688   4.960  11.356
 3268W        W71486  29.483  23.888   1.176
 3269W        W71487  39.003  38.489   0.805
 3270W        W71488   4.351  13.954  12.908
 3271W        W71489  13.678  16.719  11.436
 3272W        W71490  26.360  42.250   0.287
 3273W        W71491  24.172   6.373   3.750
 3274W        W71492  39.477  40.055   1.499
 3275W        W71493   0.486   5.262  14.923
 3276W        W71494  30.067  21.805   0.822
 3277W        W71495  23.007  39.783  13.065
 3278W        W71496   5.694   5.303  13.902
 3279W        W71497   8.439  37.342   1.714
 3280W        W71498   3.362  12.332  13.582
 3281W        W71499  38.714  10.404   4.067
 3282W        W71500   0.543  25.967  11.557
 3283W        W71501  26.977  19.160  13.167
 3284W        W71502  34.568  19.728   3.375
 3285W        W71503  18.309   0.390   1.842
 3286W        W71504  11.690  35.732   3.630
 3287W        W71505  22.284  21.404  10.965
 3288W        W71506  41.878   2.949  11.441
 3289W        W71507  31.107   1.820  11.472
 3290W        W71508  40.010  39.333   4.912
 3291W        W71509   6.684   6.179   4.638
 3292W        W71510  24.484  17.681   4.104
 3293W        W71511   8.290  10.154  14.728
 3294W        W71512  28.493   5.691  12.513
 3295W        W71513  41.018  40.605  10.626
 3296W        W71514  40.104   8.405  12.005
 3297W        W71515  29.663   9.937   1.438
 3298W        W71516  28.249  14.465  11.165
 3299W        W71517  29.169  25.735  12.564
 3300W        W71518  15.494   5.410  11.112
 3301W        W71519  26.673  28.554  11.139
 3302W        W71520  17.278  29.545   3.598
 3303W        W71521  26.981   8.965   1.311
 3304W        W71522  38.980   5.488   0.820
 3305W        W71523  18.174  18.780  11.910
 3306W        W71524  17.019  12.179  13.874
 3307W        W71525  25.562  27.369   0.205
 3308W        W71526  30.115  39.826   0.022
 3309W        W71527  19.076  39.814  13.000
 3310W        W71528  44.240   6.484  13.584
 3311W        W71529  26.908  41.124  11.669
 3312W        W71530  34.450  31.975   4.522
 3313W        W71531  21.398   7.370   4.502
 3314W        W71532  39.111  35.843   1.908
 3315W        W71533  30.827  16.346  13.933
 3316W        W71534  24.464  39.430  12.109
 3317W        W71535  32.565  10.844   0.757
 3318W        W71536   0.405   5.465   2.664
 3319W        W71537  16.388   5.319   0.352
 3320W        W71538  41.686  36.858  12.482
 3321W        W71539  12.660  19.751  12.468
 3322W        W71540  20.054  37.975   4.391
 3323W        W71541  11.362  29.625  10.785
 3324W        W71542  32.631   2.217  13.443
 3325W        W71543  40.847  44.914  14.041
 3326W        W71544  33.332  12.135  13.419
 3327W        W71545   0.169  15.291   3.373
 3328W        W71546   1.385  17.991   1.455
 3329W        W71547  12.154  31.896   4.364
 3330W        W71548  36.975  44.958   2.832
 3331W        W71549   2.743  38.536   2.317
 3332W        W71550   0.191  11.217   4.010
 3333W        W71551  11.306  27.930   2.677
 3334W        W71552  10.784  18.893  12.737
 3335W        W71553  43.512   3.731   1.742
 3336W        W71554  40.948  30.554   4.659
 3337W        W71555   1.539  41.939  11.105
 3338W        W71556  30.404  32.942   0.764
 3339W        W71557   7.561   2.884   2.830
 3340W        W71558  24.814  15.615   4.521
 3341W        W71559  27.472   1.875  10.748
 3342W        W71560  39.824  38.608   4.467
 3343W        W71561  25.109  11.120   3.717
 3344W        W71562  15.866  34.093   3.636
 3345W        W71563  16.857  41.400   1.757
 3346W        W71564   4.419  16.437   1.766
 3347W        W71565  13.356  12.272   3.643
 3348W        W71566  33.144   1.804  11.056
 3349W        W71567  26.589  44.908  13.350
 3350W        W71568  17.555  14.935  14.377
 3351W        W71569  36.847  14.329   0.808
 3352W        W71570  20.443  19.284  11.680
 3353W        W71571   1.785  32.560   3.833
 3354W        W71572  16.742  27.510   1.742
 3355W        W71573   7.772  22.024  10.637
 3356W        W71574  26.981  33.827   0.455
 3357W        W71575  16.591  13.126  12.559
 3358W        W71576  39.809  33.027   4.524
 3359W        W71577  29.508  34.116   0.729
 3360W        W71578  29.346  27.965   4.361
 3361W        W71579  29.436  26.813   4.203
 3362W        W71580   6.080  12.539  11.195
 3363W        W71581   3.726   6.165  13.363
 3364W        W71582  17.343   2.422   0.261
 3365W        W71583  31.632  28.523  11.739
 3366W        W71584  30.968  14.684   5.501
 3367W        W71585  18.162  11.533   0.829
 3368W        W71586  44.393  10.195   3.601
 3369W        W71587   0.529   5.931  14.315
 3370W        W71588  18.172  14.561  12.837
 3371W        W71589  44.358  39.412  13.824
 3372W        W71590  34.536  17.762  13.640
 3373W        W71591  27.213  29.199   1.368
 3374W        W71592   1.825   3.911   4.094
 3375W        W71593  16.321  10.401  12.119
 3376W        W71594  42.331  27.711   0.909
 3377W        W71595  37.554  26.714   1.047
 3378W        W71596  42.350  23.668  12.895
 3379W        W71597   5.963  16.409  11.512
 3380W        W71598  13.477  28.640  11.042
 3381W        W71599  15.951  33.548  10.184
 3382W        W71600  17.329  41.514   0.663
 3383W        W71601  34.796  17.696   3.810
 3384W        W71602  33.880  32.098  14.803
 3385W        W71603  17.741  21.989   3.745
 3386W        W71604   2.251  28.526  10.714
 3387W        W71605  41.012  28.961   2.603
 3388W        W71606   6.072   0.022   1.294
 3389W        W71607  26.645  22.119  10.786
 3390W        W71608  30.397  19.585  10.815
 3391W        W71609  14.192  24.455   2.318
 3392W        W71610   2.679  25.109  14.377
 3393W        W71611  38.609  30.627  14.358
 3394W        W71612  24.696  44.316   4.545
 3395W        W71613  19.548  11.939   1.804
 3396W        W71614   5.001  23.840  11.197
 3397W        W71615   7.895  17.226   4.101
 3398W        W71616  23.772  23.082  14.298
 3399W        W71617  42.475  23.153   2.819
 3400W        W71618  44.871   4.175   2.233
 3401W        W71619  25.461  18.108  14.423
 3402W        W71620  35.554  16.998   1.281
 3403W        W71621   1.628  44.286   0.500
 3404W        W71622  28.112   2.323   4.579
 3405W        W71623  10.825  16.778  14.067
 3406W        W71624  12.265  28.484  13.888
 3407W        W71625   8.850  19.340  10.742
 3408W        W71626  17.311  26.634  13.951
 3409W        W71627  13.677   9.725  13.844
 3410W        W71628  27.180   6.828  12.930
 3411W        W71629  10.257  12.258  12.103
 3412W        W71630  27.906  41.576  12.359
 3413W        W71631  21.574  34.570   4.033
 3414W        W71632   9.847  26.669   4.222
 3415W        W71633   5.355  34.602   3.843
 3416W        W71634  37.611  29.060  13.522
 3417W        W71635  25.333  34.379  11.121
 3418W        W71636  15.337  11.536  12.962
 3419W        W71637  25.060  29.411   3.659
 3420W        W71638   1.011  26.956   1.619
 3421W        W71639  43.813  12.765  14.305
 3422W        W71640  32.658  26.156   0.582
 3423W        W71641  27.667  19.811   4.553
 3424W        W71642  29.575   1.295  14.468
 3425W        W71643   0.511  22.318   2.250
 3426W        W71644  34.690  13.600   2.412
 3427W        W71645  34.910   7.618  11.459
 3428W        W71646  43.301  11.638   4.232
 3429W        W71647  37.867  36.116   1.227
 3430W        W71648  40.029  30.606   3.717
 3431W        W71649   2.983  10.347   3.221
 3432W        W71650  15.721  21.680  12.968
 3433W        W71651  37.305  27.114  14.349
 3434W        W71652  38.210  34.578  14.406
 3435W        W71653  32.818  14.966   0.336
 3436W        W71654   7.935   6.298  12.415
 3437W        W71655  36.861   8.679   1.422
 3438W        W71656  16.779   6.277   4.547
 3439W        W71657  42.090  34.538  13.480
 3440W        W71658  24.555  39.332   3.855
 3441W        W71659  13.852  36.801  14.869
 3442W        W71660  31.053  12.372  11.217
 3443W        W71661  13.377  36.024   3.215
 3444W        W71662  27.444   9.758   1.531
 3445W        W71663  30.460  30.448  10.938
 3446W        W71664  30.185  13.721   1.677
 3447W        W71665   1.233  15.549   1.794
 3448W        W71666   4.832  44.877  13.309
 3449W        W71667  10.641   9.159   4.191
 3450W        W71668  30.115  14.752   3.039
 3451W        W71669  14.203  17.165   1.305
 3452W        W71670  30.198  44.700   3.819
 3453W        W71671   9.835  43.922   0.205
 3454W        W71672  13.882  37.314  14.805
 3455W        W71673   0.015  36.432  11.654
 3456W        W71674  42.547  20.329  11.630
 3457W        W71675  39.880   9.218   4.599
 3458W        W71676  24.236  43.337  11.777
 3459W        W71677  43.714  17.662   2.669
 3460W        W71678  12.642  14.862  13.812
 3461W        W71679  26.005  35.104   1.629
 3462W        W71680  26.586  33.225  11.833
 3463W        W71681  34.931  34.688  11.140
 3464W        W71682  21.779  17.046  13.462
 3465W        W71683  15.175  13.068  11.951
 3466W        W71684  33.043  18.652  11.247
 3467W        W71685  17.571  37.124  11.616
 3468W        W71686  28.697  40.057  12.075
 3469W        W71687   6.841   0.448   3.165
 3470W        W71688  35.389  15.800   3.563
 3471W        W71689  20.613  43.990   0.721
 3472W        W71690  10.564  12.596  13.823
 3473W        W71691  28.657  30.881  14.467
 3474W        W71692   6.613   6.756  13.335
 3475W        W71693  25.023  17.094  14.572
 3476W        W71694  40.979  24.701  13.159
 3477W        W71695  35.033   9.654   2.639
 3478W        W71696  37.264  23.560  12.558
 3479W        W71697  22.057  15.283   4.031
 3480W        W71698  31.386  22.981  10.588
 3481W        W71699  39.397  29.434  11.992
 3482W        W71700   2.205   5.488  12.412
 3483W        W71701  23.460   9.988   3.921
 3484W        W71702  44.349  35.016  11.074
 3485W        W71703  44.959  32.058  13.342
 3486W        W71704  36.331  30.070  14.006
 3487W        W71705  32.196  14.736  14.419
 3488W        W71706  12.667  41.361  14.905
 3489W        W71707  11.419  24.540  13.944
 3490W        W71708  29.630  25.218   3.564
 3491W        W71709  26.703  42.518  13.916
 3492W        W71710  41.058  22.514  10.758
 3493W        W71711   1.944   1.455  13.558
 3494W        W71712  19.296  10.308  13.526
 3495W        W71713  29.115  10.185  14.795
 3496W        W71714  36.575   7.212   3.266
 3497W        W71715   4.977  18.691   2.233
 3498W        W71716  10.877  36.521   4.631
 3499W        W71717   1.512  16.285  12.894
 3500W        W71718  11.441   3.290  11.695
 3501W        W71719  18.604  13.745  11.991
 3502W        W71720  30.076   4.493   0.776
 3503W        W71721  15.596  32.391  11.892
 3504W        W71722  36.678  26.026  11.099
 3505W        W71723  17.283   0.250   4.087
 3506W        W71724   7.790  11.146   1.324
 3507W        W71725  29.139  26.388  13.178
 3508W        W71726  25.724  41.413   2.963
 3509W        W71727  34.343   6.909   0.916
 3510W        W71728  23.598  33.851   1.264
 3511W        W71729  19.762  34.895  14.762
 3512W        W71730  35.501  12.966   2.156
 3513W        W71731  21.453   3.864  12.636
 3514W        W71732  14.757  43.830  12.328
 3515W        W71733  26.743   8.223  13.993
 3516W        W71734  11.791   4.832  10.829
 3517W        W71735  10.104   7.498  14.302
 3518W        W71736  31.689  41.029   4.367
 3519W        W71737  28.796  24.645   2.138
 3520W        W71738  37.946   7.168  13.882
 3521W        W71739  14.760  18.231   1.394
 3522W        W71740  14.416  33.529   2.455
 3523W        W71741  21.925  42.774   1.866
 3524W        W71742  27.398  36.819   2.569
 3525W        W71743  19.287  10.463  11.478
 3526W        W71744  36.936  22.711   3.534
 3527W        W71745   9.817  16.215   5.144
 3528W        W71746  40.760  38.505  14.727
 3529W        W71747  34.380   5.917  14.391
 3530W        W71748   1.806  35.867   1.859
 3531W        W71749  30.485  36.574   2.352
 3532W        W71750  44.007  16.131   0.342
 3533W        W71751  40.457   4.716   3.360
 3534W        W71752  11.098  41.457  11.977
 3535W        W71753  41.918  35.016  12.355
 3536W        W71754   8.237  28.887   2.649
 3537W        W71755  38.941  34.102  12.067
 3538W        W71756  18.012  44.503  14.099
 3539W        W71757   5.920  18.564   0.244
 3540W        W71758  21.503  25.100  10.279
 3541W        W71759  32.616  25.937   5.085
 3542W        W71760  37.428  11.131   3.237
 3543W        W71761  23.200  21.606   2.249
 3544W        W71762  17.700  15.091  13.054
 3545W        W71763   3.803  21.839  13.804
 3546W        W71764  36.953   4.154  12.119
 3547W        W71765  41.015  22.007   3.799
 3548W        W71766  13.520  44.882  14.058
 3549W        W71767  38.501  24.318   2.165
 3550W        W71768  43.321  32.949   1.834
 3551W        W71769  20.684   3.504   4.200
 3552W        W71770  13.234  26.094   2.370
 3553W        W71771  23.740  42.218   3.208
 3554W        W71772  21.029  39.893  13.820
 3555W        W71773   6.416  15.732  14.271
 3556W        W71774  10.564  10.868  10.921
 3557W        W71775  39.787  27.279   4.108
 3558W        W71776   0.500  29.469   0.056
 3559W        W71777   6.320  33.914  13.595
 3560W        W71778  38.667   8.633  12.467
 3561W        W71779  30.653   5.918   2.650
 3562W        W71780   0.976  10.268   0.060
 3563W        W71781   7.261  24.048   3.296
 3564W        W71782   7.654  20.097  11.953
 3565W        W71783  35.128  35.049  10.852
 3566W        W71784  12.622  15.330  12.548
 3567W        W71785  16.746  22.621   0.291
 3568W        W71786  26.685  18.077  14.895
 3569W        W71787   7.873  44.336   1.415
 3570W        W71788  24.152  44.412  10.270
 3571W        W71789  12.262  37.333   1.792
 3572W        W71790  30.428   2.225  14.945
 3573W        W71791   5.752   3.416  13.768
 3574W        W71792  44.788  18.904  11.239
 3575W        W71793  37.666  20.659  12.200
 3576W        W71794  36.586  32.258  14.906
 3577W        W71795  28.571   5.021   1.442
 3578W        W71796   9.819  13.391  11.560
 3579W        W71797  37.420  43.089   1.716
 3580W        W71798  35.174  12.336   4.199
 3581W        W71799  13.083  14.021  11.644
 3582W        W71800  40.040  21.991   0.839
 3583W        W71801  39.759  39.022   1.890
 3584W        W71802  23.097   8.271   3.318
 3585W        W71803  42.180  29.842   1.042
 3586W        W71804  10.310   5.426  10.336
 3587W        W71805  12.241  42.023  10.517
 3588W        W71806  44.048  42.499  11.279
 3589W        W71807  43.462  16.123  13.535
 3590W        W71808  25.198  29.200  13.431
 3591W        W71809   3.182  28.497   1.775
 3592W        W71810  19.037  36.869  12.500
 3593W        W71811  20.858  38.037  11.717
 3594W        W71812  19.365   1.453  14.381
 3595W        W71813   9.075  32.817   2.762
 3596W        W71814  27.265   3.223  11.652
 3597W        W71815  23.023   6.271   1.335
 3598W        W71816  27.305  35.872   3.284
 3599W        W71817  14.548   7.702   4.264
 3600W        W71818  15.161  11.821   4.676
 3601W        W71819  11.763  28.124   2.906
 3602W        W71820   9.156  34.511   0.458
 3603W        W71821  32.683  35.821   2.203
 3604W        W71822  19.306   5.206   0.269
 3605W        W71823  22.424  21.251   4.950
 3606W        W71824   5.649  34.496  11.986
 3607W        W71825  29.174  40.281  11.700
 3608W        W71826  28.932  37.268   3.375
 3609W        W71827  10.325  10.267   3.645
 3610W        W71828  32.149  44.486   0.025
 3611W        W71829   2.236   9.811  12.501
 3612W        W71830  21.128  42.808  11.719
 3613W        W71831  38.385  24.079   4.871
 3614W        W71832   1.830  23.734   1.702
 3615W        W71833   6.932  29.402   0.346
 3616W        W71834  23.501  30.943   4.358
 3617W        W71835   4.658   3.274  13.395
 3618W        W71836   4.953  14.631  11.039
 3619W        W71837  40.423   6.671  13.357
 3620W        W71838  14.057   0.977   1.852
 3621W        W71839  15.592   5.182  14.602
 3622W        W71840   4.738  18.078   4.948
 3623W        W71841  16.199  19.032  14.309
 3624W        W71842  20.014   1.768   0.447
 3625W        W71843   1.365  14.207  11.609
 3626W        W71844   8.650  39.107  11.976
 3627W        W71845   4.742  29.297   4.550
 3628W        W71846  13.917  36.160  10.873
 3629W        W71847  35.424  23.540  12.070
 3630W        W71848   2.983  14.769  11.606
 3631W        W71849  34.473   7.482  11.204
 3632W        W71850  19.754  22.465  12.409
 3633W        W71851  11.681  36.503   3.144
 3634W        W71852   8.843  22.994   1.728
 3635W        W71853  32.964  36.415  12.059
 3636W        W71854   9.886  44.984   5.054
 3637W        W71855   8.329   1.289   2.194
 3638W        W71856   2.775  35.636   2.674
 3639W        W71857  11.728  32.580   2.330
 3640W        W71858   1.597  42.970   0.963
 3641W        W71859  26.691  27.656   1.467
 3642W        W71860  11.777  40.315  14.422
 3643W        W71861  23.251  32.879   4.548
 3644W        W71862   9.657   0.425   0.295
 3645W        W71863  35.910  36.287  11.754
 3646W        W71864  38.190   3.068   5.092
 3647W        W71865  19.848  19.118   3.746
 3648W        W71866   0.890  23.140  13.480
 3649W        W71867  12.308  21.085   0.689
 3650W        W71868   0.252   7.296  13.324
 3651W        W71869  39.813  39.536   1.853
 3652W        W71870   4.894  34.051  10.960
 3653W        W71871  16.621  26.120  14.778
 3654W        W71872  12.276  26.912  13.088
 3655W        W71873   9.167  26.634   2.707
 3656W        W71874   7.259  28.890   3.808
 3657W        W71875   3.577  12.882   1.797
 3658W        W71876  33.104  38.842   2.951
 3659W        W71877  26.570   9.354  11.516
 3660W        W71878   2.133   3.685   3.735
 3661W        W71879   9.977   6.448   1.345
 3662W        W71880  27.963  17.371   2.969
 3663W        W71881   2.419   1.541  14.302
 3664W        W71882  26.076  22.599  11.522
 3665W        W71883  12.712  30.963   0.722
 3666W        W71884   7.825  41.580  13.924
 3667W        W71885  40.050   3.736   2.184
 3668W        W71886  11.308  43.081   1.544
 3669W        W71887  24.718  16.275  14.973
 3670W        W71888  39.255  20.711   2.799
 3671W        W71889  43.041   2.242   2.701
 3672W        W71890  39.564   1.431  12.036
 3673W        W71891  21.322  32.562  12.420
 3674W        W71892  39.868  42.384   1.366
 3675W        W71893  10.765   0.263   2.984
 3676W        W71894  36.371   4.210  14.794
 3677W        W71895  30.315   8.750  14.197
 3678W        W71896   9.880  19.806  11.437
 3679W        W71897   8.479  34.191   3.563
 3680W        W71898  30.057  42.308  10.628
 3681W        W71899  18.842   7.571   4.997
 3682W        W71900  12.807  25.090   5.013
 3683W        W71901  35.413  13.125   0.244
 3684W        W71902  28.826  18.667   2.712
 3685W        W71903  31.143  39.267   1.780
 3686W        W71904   1.945  24.512   4.556
 3687W        W71905  25.897   0.137  12.555
 3688W        W71906   9.161   5.804  12.477
 3689W        W71907   2.831   2.196  11.504
 3690W        W71908   0.985  31.593  14.060
 3691W        W71909   0.549  20.210   0.559
 3692W        W71910  24.246  44.851   2.478
 3693W        W71911   3.228  39.081  10.285
 3694W        W71912  24.320  24.502  11.550
 3695W        W71913  43.191  23.919  13.020
 3696W        W71914  11.880  43.481  13.947
 3697W        W71915  19.537   7.657   0.479
 3698W        W71916  40.383  36.029   0.947
 3699W        W71917  15.228  27.143   0.026
 3700W        W71918  19.684  35.040   0.634
 3701W        W71919  16.707  25.574   4.823
 3702W        W71920  30.063  10.417  13.588
 3703W        W71921  30.022   9.634   2.752
 3704W        W71922  30.862  11.626   1.757
 3705W        W71923  22.795  26.257   3.277
 3706W        W71924  31.736   9.643   4.450
 3707W        W71925  32.488   9.265   1.313
 3708W        W71926   7.220   1.935  12.919
 3709W        W71927  35.468  23.986  12.889
 3710W        W71928  18.025  13.294  10.691
 3711W        W71929  27.582  16.585  12.204
 3712W        W71930  31.474  29.949   4.861
 3713W        W71931  36.638   1.023  14.915
 3714W        W71932  24.588  29.593   3.556
 3715W        W71933  34.332  23.443   1.479
 3716W        W71934  29.101  16.151   1.891
 3717W        W71935  43.318   4.342   4.723
 3718W        W71936  13.048  13.504  11.652
 3719W        W71937  41.274  19.700   0.871
 3720W        W71938  10.970   3.423   4.972
 3721W        W71939   4.007  19.312   3.261
 3722W        W71940  12.537   0.909   0.346
 3723W        W71941  44.593  12.567  13.645
 3724W        W71942   9.766  42.639   1.651
 3725W        W71943   0.217  19.480   4.031
 3726W        W71944  36.578   9.214  13.120
 3727W        W71945   1.927  42.405   4.892
 3728W        W71946  28.977  15.398   2.382
 3729W        W71947  28.976  12.804   4.644
 3730W        W71948  34.000   5.327  14.979
 3731W        W71949  28.136  44.973  10.749
 3732W        W71950  23.985  21.187  11.938
 3733W        W71951   8.769  25.547   4.622
 3734W        W71952  26.230   4.905  11.651
 3735W        W71953  15.253  37.947   1.902
 3736W        W71954  36.579  39.580   4.085
 3737W        W71955   1.718  34.463   2.313
 3738W        W71956  29.153  43.754  14.434
 3739W        W71957  13.314  19.768  12.003
 3740W        W71958  38.569   5.754  13.840
 3741W        W71959   8.194  23.619   3.254
 3742W        W71960  20.402  37.795   2.238
 3743W        W71961  26.009  14.765  13.056
 3744W        W71962   3.917  36.959  10.909
 3745W        W71963   0.837  11.914  14.824
 3746W        W71964   5.898  37.249  11.858
 3747W        W71965  26.978  21.178  13.461
 3748W        W71966  44.790  19.042  13.601
 3749W        W71967  22.472  10.913   0.778
 3750W        W71968   9.253   6.835  10.177
 3751W        W71969  34.513  11.994   2.724
 3752W        W71970  35.012  36.156   4.917
 3753W        W71971  27.189  34.017  14.070
 3754W        W71972  27.135  20.408   1.295
 3755W        W71973  15.850  42.662   9.841
 3756W        W71974   4.675  26.685   3.321
 3757W        W71975  38.755   6.252   4.510
 3758W        W71976  40.505  13.655   3.624
 3759W        W71977  35.133  19.462   1.250
 3760W        W71978  39.841  22.238   1.302
 3761W        W71979  20.987  23.713   3.690
 3762W        W71980  25.972   8.815   1.213
 3763W        W71981  24.734  12.207   4.250
 3764W        W71982  12.133  39.538   2.137
 3765W        W71983  11.163  33.570   4.437
 3766W        W71984   4.310  43.534   3.758
 3767W        W71985  39.519  39.288   0.016
 3768W        W71986  33.123  42.055   1.773
 3769W        W71987   3.056  37.961   4.259
 3770W        W71988  21.100   8.605  14.646
 3771W        W71989   8.330  38.469   3.133
 3772W        W71990  29.625  15.676   0.960
 3773W        W71991  14.850  43.016  14.907
 3774W        W71992  25.776   3.484  13.187
 3775W        W71993  11.347   8.545  10.953
 3776W        W71994  22.071   6.182   1.611
 3777W        W71995  36.074  18.607  14.013
 3778W        W71996  44.920  41.731   0.487
 3779W        W71997   8.054  27.539   4.109
 3780W        W71998  37.138  11.344  11.945
 3781W        W71999  18.183   5.242  11.128
 3782W        W72000  10.106  39.523   2.391
 3783W        W72001   7.112  36.860   2.631
 3784W        W72002  14.871  27.768  10.186
 3785W        W72003  14.609   7.439  12.045
 3786W        W72004  28.949   9.873  12.995
 3787W        W72005  17.630  12.633   2.732
 3788W        W72006  27.518  22.604   1.206
 3789W        W72007  14.254   3.628   3.707
 3790W        W72008  19.653  42.908  13.389
 3791W        W72009  25.799  22.959   0.701
 3792W        W72010   7.405   2.697   0.968
 3793W        W72011  17.000  32.353  13.399
 3794W        W72012  44.594  44.082  13.974
 3795W        W72013   6.439   3.450   3.210
 3796W        W72014  33.049   0.534   2.027
 3797W        W72015  33.499  35.935   1.789
 3798W        W72016  28.148  28.124  10.620
 3799W        W72017  11.926  26.135   4.786
 3800W        W72018  28.680  27.111   3.176
 3801W        W72019  28.333  26.439   0.287
 3802W        W72020  39.350  32.853   2.789
 3803W        W72021   4.910  42.260   1.397
 3804W        W72022  13.050  41.003  14.747
 3805W        W72023  23.961   9.090   4.562
 3806W        W72024   8.864  18.768   5.040
 3807W        W72025   9.203  22.828  10.988
 3808W        W72026  24.513   0.208   3.692
 3809W        W72027  43.866  35.749   0.927
 3810W        W72028   9.850  22.009  12.538
 3811W        W72029   4.930  29.846  13.390
 3812W        W72030  20.102  40.524  13.596
 3813W        W72031  25.429  11.392  11.581
 3814W        W72032  40.311  40.587  11.154
 3815W        W72033   0.307  18.247   3.246
 3816W        W72034  35.469  24.343   2.940
 3817W        W72035  36.398   0.013   1.327
 3818W        W72036  34.869  19.246   4.589
 3819W        W72037   7.381  12.312  12.488
 3820W        W72038  13.833   9.679   1.497
 3821W        W72039   7.692  10.364  11.123
 3822W        W72040  10.852  27.637  11.195
 3823W        W72041  11.880  32.314   0.422
 3824W        W72042  42.601  24.175   3.697
 3825W        W72043   4.954  35.655  13.514
 3826W        W72044   7.449  21.106   2.684
 3827W        W72045  42.286   1.242  11.961
 3828W        W72046   5.815   7.157   2.716
 3829W        W72047  22.989  26.537  14.243
 3830W        W72048  16.087  19.560   0.277
 3831W        W72049   5.891  32.529   4.073
 3832W        W72050   7.975  25.129  13.459
 3833W        W72051  28.470  38.557   1.842
 3834W        W72052  27.231  29.864  10.926
 3835W        W72053   9.928   1.306   0.563
 3836W        W72054  17.426  11.370  14.341
 3837W        W72055  24.899  38.131   2.868
 3838W        W72056  26.736  11.586  11.366
 3839W        W72057   0.726  41.479  14.426
 3840W        W72058   4.471  13.736  11.143
 3841W        W72059  41.745  24.414  11.796
 3842W        W72060  12.904   5.468  11.769
 3843W        W72061  37.954   8.098   2.441
 3844W        W72062  12.879  38.567   2.912
 3845W        W72063   9.782   4.956  13.340
 3846W        W72064  40.052   1.657  12.045
 3847W        W72065  40.301  15.797   2.841
 3848W        W72066  30.851  22.565  12.494
 3849W        W72067  40.333  23.301  12.078
 3850W        W72068  14.221  40.920  13.525
 3851W        W72069   2.733   9.495  12.885
 3852W        W72070  34.572  12.175  13.690
 3853W        W72071  23.857  32.347  10.542
 3854W        W72072  13.692  17.737   0.640
 3855W        W72073  38.493  35.896  13.626
 3856W        W72074   9.283  14.590  13.541
 3857W        W72075  16.199  22.257  14.023
 3858W        W72076  36.397  19.313   0.931
 3859W        W72077  42.900  41.502  13.314
 3860W        W72078  22.952  40.350   3.678
 3861W        W72079  21.537   4.162   2.313
 3862W        W72080  16.319  35.508  12.080
 3863W        W72081   2.451   6.184   3.733
 3864W        W72082  40.403  41.087   3.585
 3865W        W72083  26.071  31.868   3.743
 3866W        W72084  14.531  37.328   0.446
 3867W        W72085  11.060  38.393  14.732
 3868W        W72086  44.485  31.721   4.089
 3869W        W72087   4.746  31.470   5.089
 3870W        W72088  24.485   8.206   0.843
 3871W        W72089  37.708   4.481  13.891
 3872W        W72090  40.225  22.456   5.057
 3873W        W72091  41.021  44.515   3.270
 3874W        W72092  29.864  22.608   1.130
 3875W        W72093   1.237  24.462  13.096
 3876W        W72094  31.916  38.134   4.948
 3877W        W72095  27.214  13.234  14.341
 3878W        W72096  44.778   8.506  11.999
 3879W        W72097  25.244  14.889   1.514
 3880W        W72098  29.413   1.455   3.799
 3881W        W72099  43.920  13.649   4.843
 3882W        W72100   5.231  13.618   4.630
 3883W        W72101  26.635  22.982   4.094
 3884W        W72102  35.975  32.898   1.808
 3885W        W72103  22.946  18.985   0.523
 3886W        W72104  14.557  44.827   3.219
 3887W        W72105  21.714   8.306   4.162
 3888W        W72106  25.634  32.605  13.990
 3889W        W72107  16.197  23.569  13.318
 3890W        W72108  15.258  29.997   1.162
 3891W        W72109  19.338  37.866  12.395
 3892W        W72110  11.306  23.287  10.667
 3893W        W72111  35.296  30.575  11.906
 3894W        W72112  38.132  20.064  13.983
 3895W        W72113  39.693  42.221   0.346
 3896W        W72114  33.812  36.880  13.510
 3897W        W72115  27.559  21.597  14.947
 3898W        W72116  10.638  18.278   3.067
 3899W        W72117  39.472  29.649   2.255
 3900W        W72118  10.577  17.198   2.746
 3901W        W72119  41.291  40.642  12.503
 3902W        W72120  19.613  29.659   3.180
 3903W        W72121  22.040  36.362   1.505
 3904W        W72122  10.839  15.005  11.431
 3905W        W72123  24.370   5.866   5.174
 3906W        W72124  37.825  18.147  12.204
 3907W        W72125   7.151  43.268  10.674
 3908W        W72126  25.917  33.010  10.625
 3909W        W72127  36.420  27.723   4.532
 3910W        W72128   0.071  17.078  13.456
 3911W        W72129  40.451   0.354  12.076
 3912W        W72130  17.328   1.002  11.613
 3913W        W72131  26.975  13.285   1.648
 3914W        W72132  40.073  42.523  12.567
 3915W        W72133  34.842  15.870   1.325
 3916W        W72134  19.619  43.298   2.258
 3917W        W72135  27.632   2.690   0.975
 3918W        W72136  33.171   2.846  10.074
 3919W        W72137  31.824  27.105   2.902
 3920W        W72138  22.596   3.459   2.072
 3921W        W72139  15.629  43.301  12.064
 3922W        W72140   0.002  42.510  10.314
 3923W        W72141   1.804  25.765   3.749
 3924W        W72142  30.892   7.203  12.057
 3925W        W72143  25.308  30.047   0.094
 3926W        W72144   5.177  18.202   2.460
 3927W        W72145  33.668  13.844   0.230
 3928W        W72146  10.200  41.437  14.322
 3929W        W72147  20.595  13.585   4.982
 3930W        W72148  29.574   0.858  14.198
 3931W        W72149   2.793  38.424   2.826
 3932W        W72150   7.211  17.236  14.483
 3933W        W72151   5.504  41.331  11.388
 3934W        W72152  32.115  11.947   4.518
 3935W        W72153   4.310  31.910   4.091
 3936W        W72154  23.939  38.666   2.819
 3937W        W72155  37.972  21.776   0.675
 3938W        W72156  43.506  44.816   3.458
 3939W        W72157  18.751  37.125   1.435
 3940W        W72158  44.565  29.996  14.057
 3941W        W72159  10.274  26.488   1.783
 3942W        W72160  16.033  15.265  12.099
 3943W        W72161  11.724  37.906   3.333
 3944W        W72162  38.770  20.433  13.515
 3945W        W72163  37.991  42.768   2.080
 3946W        W72164   5.246  22.541  10.470
 3947W        W72165   0.240  41.795  11.815
 3948W        W72166  39.384   8.574  10.257
 3949W        W72167  21.685  28.443   2.329
 3950W        W72168   4.458  11.631   3.346
 3951W        W72169  19.008  43.246  14.914
 3952W        W72170  36.622  11.348  14.949
 3953W        W72171   2.042   4.009   4.933
 3954W        W72172   7.374  33.133   4.654
 3955W        W72173   4.098  30.281   2.363
 3956W        W72174  31.119  39.477   0.306
 3957W        W72175   8.973  13.256   2.349
 3958W        W72176  30.492  13.843  12.348
 3959W        W72177  20.736  13.803  11.093
 3960W        W72178   6.325  41.265   4.926
 3961W        W72179  34.302  17.725   0.744
 3962W        W72180  15.725   3.274  14.378
 3963W        W72181   2.801  13.314   0.620
 3964W        W72182   8.277  15.319  11.575
 3965W        W72183  19.237  31.646   1.629
 3966W        W72184  15.366  30.443   0.909
 3967W        W72185  26.694   1.532  12.105
 3968W        W72186  44.335   5.611  10.828
 3969W        W72187  24.071  29.118  14.856
 3970W        W72188  34.391  34.942   4.512
 3971W        W72189   8.687  10.750   3.982
 3972W        W72190   3.426  39.974  11.195
 3973W        W72191  23.192  16.778   4.038
 3974W        W72192  17.086  32.655   4.617
 3975W        W72193  29.468  33.122   1.815
 3976W        W72194  25.106  20.519  12.145
 3977W        W72195   0.448  22.559  12.252
 3978W        W72196  28.485  34.332   0.363
 3979W        W72197  15.853  41.561  13.353
 3980W        W72198  30.070   7.703  10.687
 3981W        W72199  23.237   6.899   2.612
 3982W        W72200   1.698  26.949  11.200
 3983W        W72201  15.284   0.100  11.015
 3984W        W72202  34.522  20.525   0.653
 3985W        W72203   7.180  26.091   3.269
 3986W        W72204  14.877  10.385   4.036
 3987W        W72205   6.701  37.785  13.120
 3988W        W72206  38.468  28.918  10.789
 3989W        W72207  30.548  28.123  13.786
 3990W        W72208  27.693  21.104  12.450
 3991W        W72209  23.225  30.608   3.313
 3992W        W72210  42.294  30.204   4.400
 3993W        W72211  11.790  22.425  12.971
 3994W        W72212   9.695  34.581  13.110
 3995W        W72213  15.582  42.161   1.810
 3996W        W72214  29.554  38.305   3.736
 3997W        W72215  35.387  17.711  11.130
 3998W        W72216   4.925  12.632   4.098
 3999W        W72217  15.260  16.798   2.264
 4000W        W72218  23.750  23.652   3.682
 4001W        W72219   4.727  18.114  11.304
 4002W        W72220  28.135   3.949   4.603
 4003W        W72221  35.599  30.086   1.692
 4004W        W72222   3.866   6.158  12.011
 4005W        W72223  27.302   9.402   3.923
 4006W        W72224   3.690  33.134   3.472
 4007W        W72225  40.483   8.137   4.180
 4008W        W72226   8.003   2.406   4.124
 4009W        W72227  34.881  10.377   4.079
 4010W        W72228   7.881  19.171  13.865
 4011W        W72229   0.021   2.191  12.434
 4012W        W72230  26.623  10.885  14.564
 4013W        W72231  24.954   4.599  11.538
 4014W        W72232   4.317  30.691  13.403
 4015W        W72233  19.086  18.628  13.887
 4016W        W72234  25.749  32.910   1.745
 4017W        W72235  36.342  38.727  10.021
 4018W        W72236  26.767  24.873  11.471
 4019W        W72237  11.274   5.265  13.514
 4020W        W72238   7.230   4.357   1.601
 4021W        W72239  26.223   7.931   4.643
 4022W        W72240  19.171  43.275  12.518
 4023W        W72241  37.407   8.326  13.559
 4024W        W72242  13.092  39.810  13.010
 4025W        W72243  40.348  37.305  13.783
 4026W        W72244  35.597  16.347   0.869
 4027W        W72245  35.563  43.470  10.555
 4028W        W72246  13.235   5.839   2.835
 4029W        W72247  24.159  20.230   0.776
 4030W        W72248  19.642   3.206  13.109
 4031W        W72249  22.180  38.588   3.054
 4032W        W72250  26.187  31.191   2.108
 4033W        W72251   9.859  33.863  14.407
 4034W        W72252  25.597  24.134   0.220
 4035W        W72253  32.791  32.608   3.628
 4036W        W72254  26.802  39.418   1.181
 4037W        W72255  28.644  34.440  11.940
 4038W        W72256  38.791  26.143  14.017
 4039W        W72257   6.402  25.610  12.108
 4040W        W72258  35.870  21.599   2.363
 4041W        W72259  24.515   7.358   1.729
 4042W        W72260  29.984  13.331   0.485
 4043W        W72261  36.712  35.639  11.882
 4044W        W72262  11.724  14.664   0.034
 4045W        W72263  33.997  30.220  14.333
 4046W        W72264  12.754  43.569  14.523
 4047W        W72265  11.350  25.176  13.134
 4048W        W72266  15.223  32.191  12.623
 4049W        W72267  38.351  17.597  13.186
 4050W        W72268  22.015  26.993   0.974
 4051W        W72269   3.995  14.119   1.959
 4052W        W72270  36.139  36.642  11.448
 4053W        W72271  27.319  21.016   0.024
 4054W        W72272  15.446  13.111   4.184
 4055W        W72273  20.708  24.647   4.025
 4056W        W72274  22.527  41.440   0.981
 4057W        W72275  30.215  37.644  14.048
 4058W        W72276  40.082   9.525   0.329
 4059W        W72277  21.759  24.541   0.714
 4060W        W72278  36.627  21.510  13.500
 4061W        W72279  38.603  32.898  11.503
 4062W        W72280   8.157  10.632  11.149
 4063W        W72281  24.878  30.870  13.609
 4064W        W72282   4.477  26.565  14.489
 4065W        W72283  17.254  33.116  10.836
 4066W        W72284  31.419   9.691  10.658
 4067W        W72285   8.933  29.473  10.670
 4068W        W72286  40.555  18.391   1.857
 4069W        W72287   7.624   9.912  14.403
 4070W        W72288   5.380  38.348  13.888
 4071W        W72289  17.078  29.976   1.978
 4072W        W72290  33.439  18.246   5.076
 4073W        W72291  18.321  42.674   1.891
 4074W        W72292   4.892   6.441   0.939
 4075W        W72293  18.035  23.922  11.956
 4076W        W72294   4.953  20.160   1.827
 4077W        W72295   1.784  34.213   3.090
 4078W        W72296   4.296  24.770  14.907
 4079W        W72297  42.062  10.609  14.722
 4080W        W72298   5.413  44.667  14.615
 4081W        W72299  18.001  22.113   3.269
 4082W        W72300  31.477   4.398   4.019
 4083W        W72301  43.576  43.224  12.560
 4084W        W72302  20.028   5.344  11.531
 4085W        W72303  15.759  22.027  13.916
 4086W        W72304   8.190  41.956  13.045
 4087W        W72305  10.122   2.483  10.975
 4088W        W72306  20.296  39.060   4.785
 4089W        W72307   6.460  25.620   3.688
 4090W        W72308   5.325   3.197   1.456
 4091W        W72309  44.136   9.771  12.539
 4092W        W72310   3.173   4.887  13.832
 4093W        W72311  19.159  11.416   2.591
 4094W        W72312   8.739   0.824   2.896
 4095W        W72313  10.702  36.898   1.441
 4096W        W72314  28.406  43.523   1.288
 4097W        W72315  21.490  39.091   1.733
 4098W        W72316  23.732  34.456  11.584
 4099W        W72317  37.630  44.733  13.738
 4100W        W72318  21.516   5.336  11.540
 4101W        W72319  14.288  38.988   4.069
 4102W        W72320  40.500   9.452  13.143
 4103W        W72321  33.947  35.311  11.373
 4104W        W72322  39.517   3.959   0.314
 4105W        W72323   7.679  29.474   3.176
 4106W        W72324  36.000   8.034   3.179
 4107W        W72325  27.879  20.171  14.764
 4108W        W72326   2.856  26.364  13.810
 4109W        W72327   2.917  22.160  14.341
 4110W        W72328  43.445  13.637   1.780
 4111W        W72329   3.463  13.236   4.361
 4112W        W72330   8.166  18.819   2.359
 4113W        W72331   1.714  11.127  13.342
 4114W        W72332  39.963  15.352  12.807
 4115W        W72333  40.018  12.024   3.321
 4116W        W72334  18.436  33.084   1.966
 4117W        W72335  18.966  24.423  11.975
 4118W        W72336  17.032   6.472   4.106
 4119W        W72337  44.496  11.862  14.385
 4120W        W72338  18.607   5.459   0.090
 4121W        W72339  20.779  40.896  12.472
 4122W        W72340  40.928  30.009  12.018
 4123W        W72341  31.922  12.091   3.166
 4124W        W72342  29.596  10.696   0.770
 4125W        W72343  26.130   2.107  14.918
 4126W        W72344   2.336  17.663  14.864
 4127W        W72345   3.422   0.379  12.600
 4128W        W72346   4.584  38.788   1.523
 4129W        W72347  33.605   4.191  13.005
 4130W        W72348  44.673  16.638  11.983
 4131W        W72349  42.769  39.826  13.364
 4132W        W72350  24.217   9.528  12.460
 4133W        W72351   4.262   3.113   3.195
 4134W        W72352  43.297  33.169   0.890
 4135W        W72353  27.752  10.277   1.767
 4136W        W72354  36.427  41.346   0.465
 4137W        W72355  35.032   3.246  12.433
 4138W        W72356  30.454  27.199   0.794
 4139W        W72357  29.120  38.640   3.670
 4140W        W72358  21.632   2.699  12.980
 4141W        W72359  34.900  22.572   2.598
 4142W        W72360  41.700  25.980  14.061
 4143W        W72361  12.136   8.267   3.132
 4144W        W72362  33.067   6.217   4.661
 4145W        W72363  38.837   4.447   5.487
 4146W        W72364  41.920  36.662  12.052
 4147W        W72365  38.595   3.454  13.315
 4148W        W72366  21.447  10.663   1.447
 4149W        W72367   6.609  19.036  12.861
 4150W        W72368   9.786   3.201   0.139
 4151W        W72369  43.003  42.097   1.010
 4152W        W72370   7.259  10.950   0.482
 4153W        W72371   8.325  21.578  11.190
 4154W        W72372  29.064  42.927  11.190
 4155W        W72373  15.190   1.705  12.548
 4156W        W72374  25.473   3.538   1.223
 4157W        W72375   6.480  32.081   3.627
 4158W        W72376  10.405  33.247   0.423
 4159W        W72377   4.406  35.561  11.326
 4160W        W72378  29.518  17.625   2.282
 4161W        W72379  27.915  12.172  11.514
 4162W        W72380  42.075  16.625  10.621
 4163W        W72381  17.141  24.278  12.713
 4164W        W72382  12.364  23.630   2.743
 4165W        W72383   3.411   7.428  13.822
 4166W        W72384  42.847  23.346  10.607
 4167W        W72385  27.091  16.822  14.231
 4168W        W72386  21.487  19.180   0.665
 4169W        W72387  32.550  22.155   2.221
 4170W        W72388  30.712  13.842  14.756
 4171W        W72389  27.674  35.561   3.050
 4172W        W72390  17.176  33.092   3.188
 4173W        W72391  11.746  18.412  12.491
 4174W        W72392   8.855   2.557   0.863
 4175W        W72393  34.962   0.763   0.711
 4176W        W72394   1.246  36.495  10.691
 4177W        W72395  23.756  19.056   3.133
 4178W        W72396   7.917  28.407  14.075
 4179W        W72397  26.447  36.308  12.442
 4180W        W72398  14.799  32.071   1.785
 4181W        W72399  16.341  16.323   2.786
 4182W        W72400  31.265  27.488  14.902
 4183W        W72401  19.303  21.141   0.985
 4184W        W72402  15.805  43.615   5.094
 4185W        W72403  15.222  44.437   1.752
 4186W        W72404   6.097  15.584  11.372
 4187W        W72405  24.093  13.730   3.102
 4188W        W72406   7.694  15.618   5.353
 4189W        W72407   3.253  41.859   0.040
 4190W        W72408  24.076  38.476   0.369
 4191W        W72409  14.066  26.164   1.683
 4192W        W72410  21.929  21.240   0.267
 4193W        W72411  19.288  29.912   1.376
 4194W        W72412  15.704  38.910  13.086
 4195W        W72413  13.744  26.545   4.568
 4196W        W72414  40.432   4.970  13.914
 4197W        W72415  37.358  26.714  11.946
 4198W        W72416  41.984  17.547   2.375
 4199W        W72417   7.680  15.669  14.816
 4200W        W72418  22.816   0.309  14.420
 4201W        W72419  29.264  19.567  12.413
 4202W        W72420  32.613  21.313  14.829
 4203W        W72421  38.920  29.389   0.288
 4204W        W72422  21.219  36.421   1.119
 4205W        W72423  27.159  20.477   5.090
 4206W        W72424  14.716  37.253   1.857
 4207W        W72425  44.217  38.071  10.988
 4208W        W72426  39.059   4.031   4.771
 4209W        W72427  40.783  25.194  13.083
 4210W        W72428  22.112  31.163   2.965
 4211W        W72429   6.151  23.696  13.038
 4212W        W72430  23.068  16.325  12.314
 4213W        W72431  36.390  29.386  10.727
 4214W        W72432   0.723   9.079   0.390
 4215W        W72433  22.252  28.507   3.080
 4216W        W72434  26.626  12.626  12.082
 4217W        W72435   7.631  34.394   3.683
 4218W        W72436   5.435   3.442   0.997
 4219W        W72437   2.007  10.012  11.831
 4220W        W72438  34.956  37.049   3.376
 4221W        W72439  40.915  24.476   3.641
 4222W        W72440  42.217  17.652  14.895
 4223W        W72441  11.057  36.043   0.965
 4224W        W72442  21.140  12.393   5.144
 4225W        W72443   8.301   2.772  14.964
 4226W        W72444  39.876  40.318   4.615
 4227W        W72445  11.831  33.213  12.075
 4228W        W72446   7.095  40.390  14.117
 4229W        W72447  24.232  44.804  12.986
 4230W        W72448   3.147  30.167  13.102
 4231W        W72449  18.738  44.730   2.817
 4232W        W72450   4.631  43.095  10.664
 4233W        W72451  33.103  25.456   5.351
 4234W        W72452  23.657  41.827  13.532
 4235W        W72453   5.569  18.274   1.535
 4236W        W72454  16.531   1.214  12.428
 4237W        W72455   1.569   2.217   2.625
 4238W        W72456  40.429   0.270   0.026
 4239W        W72457  37.041   1.947   0.051
 4240W        W72458  22.146   2.849   1.303
 4241W        W72459  33.665  22.560  10.690
 4242W        W72460  28.022   5.852   1.933
 4243W        W72461  28.682  30.888   4.275
 4244W        W72462  26.410  42.474   2.894
 4245W        W72463   9.743  42.990  13.109
 4246W        W72464  22.907  42.926   4.206
 4247W        W72465  27.464  18.705   3.083
 4248W        W72466   4.903  21.351   3.659
 4249W        W72467  34.606  17.287   4.103
 4250W        W72468  11.955   5.749  12.452
 4251W        W72469  17.243  36.626  13.876
 4252W        W72470  34.417   6.745  12.430
 4253W        W72471  35.048  14.610  10.673
 4254W        W72472  27.557   7.390   2.669
 4255W        W72473  30.703  30.378  14.196
 4256W        W72474  28.417  25.555  14.987
 4257W        W72475  31.034  24.941   0.043
 4258W        W72476  36.527  35.774  12.356
 4259W        W72477  34.608  14.404   3.741
 4260W        W72478   1.250  21.433  13.586
 4261W        W72479   2.460   5.724  12.022
 4262W        W72480  17.641  11.936  14.374
 4263W        W72481   1.589  10.195   1.901
 4264W        W72482   4.573  34.421   1.289
 4265W        W72483  18.261  42.166   1.766
 4266W        W72484  40.481  21.460   1.286
 4267W        W72485   0.053  29.865   0.878
 4268W        W72486  24.245  21.656   3.222
 4269W        W72487  36.813  11.608   4.251
 4270W        W72488  22.237   4.035   4.112
 4271W        W72489   5.243  21.808  12.056
 4272W        W72490  24.458  20.167   2.604
 4273W        W72491  38.280  24.354   1.242
 4274W        W72492  32.234  25.959   2.268
 4275W        W72493  22.486  38.445   4.328
 4276W        W72494   8.322   5.457  12.169
 4277W        W72495   3.822  25.015   0.351
 4278W        W72496  23.865  26.601  14.964
 4279W        W72497  28.850  41.813   4.544
 4280W        W72498  26.741  40.565   1.595
 4281W        W72499   9.588  23.138   4.747
 4282W        W72500  43.543  21.212  12.488
 4283W        W72501  15.159   1.276  14.768
 4284W        W72502  25.076  42.853   2.791
 4285W        W72503  38.321  15.140   1.830
 4286W        W72504  25.729  31.707  13.925
 4287W        W72505  20.724  20.538  11.231
 4288W        W72506  43.255  30.063   3.417
 4289W        W72507  18.751  13.197  14.809
 4290W        W72508   3.899   3.289   1.664
 4291W        W72509   8.319  32.316  14.883
 4292W        W72510   3.058  18.630  11.082
 4293W        W72511  35.832  35.565   2.689
 4294W        W72512  24.001   0.951  12.421
 4295W        W72513   2.193   1.732  11.646
 4296W        W72514  17.248  30.001   9.981
 4297W        W72515  39.835  23.451  14.543
 4298W        W72516   6.779  11.955  14.947
 4299W        W72517  12.845   5.432   4.491
 4300W        W72518  39.422  34.311   1.983
 4301W        W72519  18.548  44.511   3.215
 4302W        W72520  10.195   2.359  10.490
 4303W        W72521  24.538  16.882   4.190
 4304W        W72522  27.173   7.462   1.926
 4305W        W72523  22.678   9.814  13.853
 4306W        W72524  11.925  43.503   2.251
 4307W        W72525   9.166  23.436   4.138
 4308W        W72526  35.982   6.369   0.882
 4309W        W72527  10.093  33.597   3.438
 4310W        W72528   1.391  34.607   3.829
 4311W        W72529  33.617  20.156  10.665
 4312W        W72530  24.521  24.426  14.696
 4313W        W72531  28.918   2.145   3.563
 4314W        W72532  25.120  15.089  13.430
 4315W        W72533   7.834   0.435   0.799
 4316W        W72534  12.651  26.695   3.721
 4317W        W72535  23.296   2.348  11.218
 4318W        W72536  27.064  41.276   0.723
 4319W        W72537  36.013  37.087   4.856
 4320W        W72538  28.675   9.632   0.297
 4321W        W72539  43.280   4.884  11.493
 4322W        W72540   8.727  38.435   4.829
 4323W        W72541  37.494  44.025   9.753
 4324W        W72542   7.874  26.905  10.629
 4325W        W72543  22.234  44.787  11.988
 4326W        W72544  34.503  44.434  13.172
 4327W        W72545  29.441  32.917  14.003
 4328W        W72546   6.112  16.119  14.402
 4329W        W72547  34.599  15.712   4.601
 4330W        W72548  43.905  38.830  13.413
 4331W        W72549  41.348  25.732  10.734
 4332W        W72550  37.552  29.146  12.176
 4333W        W72551  42.898  10.454  10.697
 4334W        W72552  33.696  44.542   3.671
 4335W        W72553  36.833   9.761  10.539
 4336W        W72554  18.749  34.954   3.071
 4337W        W72555  16.031  15.165  10.839
 4338W        W72556   4.409  35.401   5.130
 4339W        W72557  26.767   5.673  11.919
 4340W        W72558   6.579   1.539  13.066
 4341W        W72559  44.407   3.241  11.689
 4342W        W72560   1.381   7.817  14.256
 4343W        W72561  19.212  25.885  11.300
 4344W        W72562  44.856  37.687   2.414
 4345W        W72563  38.248   7.701  14.916
 4346W        W72564  40.099  32.581   3.663
 4347W        W72565  21.277  27.889   0.776
 4348W        W72566  37.043  18.318  10.813
 4349W        W72567  11.454   8.833   4.201
 4350W        W72568  13.158   0.421   0.882
 4351W        W72569  29.412  38.332  14.828
 4352W        W72570  22.188  17.620   4.687
 4353W        W72571   8.691   7.117  14.323
 4354W        W72572  42.216  24.401   2.294
 4355W        W72573  24.580  31.207  14.372
 4356W        W72574   8.232  42.457   0.844
 4357W        W72575   1.927  28.296  14.094
 4358W        W72576  18.232  33.941  12.088
 4359W        W72577  13.535  11.657  11.600
 4360W        W72578  42.230  16.911   0.529
 4361W        W72579   0.083  35.015   1.392
 4362W        W72580   6.016  40.791   9.738
 4363W        W72581  12.207  26.435   2.178
 4364W        W72582  24.484  40.044  10.778
 4365W        W72583  25.456  17.347  11.605
 4366W        W72584  30.622  32.395   1.284
 4367W        W72585  24.541  41.905   0.946
 4368W        W72586   7.286   2.987   3.263
 4369W        W72587  27.437  18.123  13.460
 4370W        W72588   1.451  26.289   1.348
 4371W        W72589  32.373  32.332   0.410
 4372W        W72590  42.790  18.173  13.820
 4373W        W72591   4.128  44.759   1.493
 4374W        W72592  11.855  43.876   4.023
 4375W        W72593  29.932  33.006  13.064
 4376W        W72594   3.151  15.143   2.382
 4377W        W72595  12.118  35.162   3.351
 4378W        W72596  22.794  32.883  13.226
 4379W        W72597  34.794  40.466  13.917
 4380W        W72598  26.742  24.998  13.863
 4381W        W72599  11.748  14.729  14.044
 4382W        W72600   9.652  24.496   4.598
 4383W        W72601   2.883  32.503  11.880
 4384W        W72602  36.948   0.925   2.565
 4385W        W72603   2.737  43.688  10.519
 4386W        W72604   5.025  19.578   3.746
 4387W        W72605   0.900   4.341  14.486
 4388W        W72606   5.283  31.138   0.674
 4389W        W72607   2.975  22.408  10.389
 4390W        W72608   0.459  10.304   0.013
 4391W        W72609  11.373  12.636  13.432
 4392W        W72610   6.937  43.922   4.763
 4393W        W72611  17.294  23.876   5.007
 4394W        W72612  34.952   1.328  14.764
 4395W        W72613  24.060  20.721  10.514
 4396W        W72614  36.873  31.420   3.129
 4397W        W72615  18.126  37.835  10.404
 4398W        W72616  16.401   3.849   0.834
 4399W        W72617  13.613   8.428   2.273
 4400W        W72618  33.583  16.747   1.658
 4401W        W72619  38.238  41.787   1.883
 4402W        W72620  20.151  21.307   2.337
 4403W        W72621  35.338  10.250  14.105
 4404W        W72622  43.288  33.109   4.618
 4405W        W72623  11.177  24.280  10.735
 4406W        W72624  23.002  28.609  11.640
 4407W        W72625  38.182  23.785  11.461
 4408W        W72626  28.914  18.084   1.852
 4409W        W72627   2.186  24.039   3.769
 4410W        W72628  28.499  44.119   1.631
 4411W        W72629  22.053  13.175  12.992
 4412W        W72630  13.402  24.544  12.488
 4413W        W72631  26.951  20.801   2.748
 4414W        W72632   5.992  34.802  14.485
 4415W        W72633  16.766   9.329   2.775
 4416W        W72634  18.400  29.954   2.830
 4417W        W72635  19.613   0.740   3.175
 4418W        W72636  38.955  28.210  12.060
 4419W        W72637  43.271  38.952  11.002
 4420W        W72638  41.707   3.972   3.935
 4421W        W72639  13.730   6.682   4.523
 4422W        W72640   8.967  34.187  11.908
 4423W        W72641  24.092  10.783   2.254
 4424W        W72642  30.554  23.002  10.822
 4425W        W72643  30.685  26.980  11.582
 4426W        W72644   3.530  11.604   9.848
 4427W        W72645  30.273   7.683  14.314
 4428W        W72646   2.268   8.942   2.095
 4429W        W72647  43.092  28.954  11.919
 4430W        W72648  44.459  21.156  12.913
 4431W        W72649  33.119  38.016   0.643
 4432W        W72650  29.828   1.252   2.265
 4433W        W72651   5.387  30.217   0.804
 4434W        W72652  14.758  24.115  12.221
 4435W        W72653  29.414   6.377  12.025
 4436W        W72654  15.988  37.066   2.746
 4437W        W72655  11.741  38.929   2.440
 4438W        W72656  26.147  30.907   3.772
 4439W        W72657   7.288  27.265   0.927
 4440W        W72658   1.014  14.410  14.738
 4441W        W72659  23.961  24.985  13.097
 4442W        W72660  29.459  23.566  14.720
 4443W        W72661   3.499  39.701   4.159
 4444W        W72662  43.511  35.769   3.458
 4445W        W72663  44.856  35.261   4.078
 4446W        W72664  42.862  35.536   4.942
 4447W        W72665  25.755   4.520   1.496
 4448W        W72666  17.741  14.206   1.918
 4449W        W72667  29.416  28.194  11.187
 4450W        W72668  39.650  11.652  10.726
 4451W        W72669  39.439   4.227   3.658
 4452W        W72670  13.189  39.812  13.524
 4453W        W72671  23.714   0.701   4.760
 4454W        W72672  24.725  25.745   2.322
 4455W        W72673  42.567  33.305   4.959
 4456W        W72674  33.056  29.926  11.443
 4457W        W72675   6.408   5.722  14.002
 4458W        W72676  31.045  41.549   0.853
 4459W        W72677  35.578  32.051  14.821
 4460W        W72678  22.211   1.495  11.961
 4461W        W72679  13.663  14.588  11.948
 4462W        W72680  22.145  35.296  11.960
 4463W        W72681  44.643  11.342  12.947
 4464W        W72682  31.591  33.060  12.630
 4465W        W72683  18.751  10.185   4.269
 4466W        W72684  36.550  33.557  11.951
 4467W        W72685   0.860  15.629   4.747
 4468W        W72686  32.163  14.655   4.153
 4469W        W72687  20.418  18.303   2.265
 4470W        W72688   6.012  10.223   3.272
 4471W        W72689  42.544  17.391   3.857
 4472W        W72690   3.477  42.807  11.744
 4473W        W72691  39.957  17.741  14.271
 4474W        W72692  37.447  42.954  14.506
 4475W        W72693   3.384  20.491  13.966
 4476W        W72694   3.429  11.956   3.803
 4477W        W72695  42.741  33.529   0.353
 4478W        W72696  14.632  34.270  12.164
 4479W        W72697  29.336  43.887  12.910
 4480W        W72698  21.188  19.337   0.225
 4481W        W72699  40.795  11.665  13.328
 4482W        W72700  14.842   9.270   3.862
 4483W        W72701  11.279  11.872  10.585
 4484W        W72702  33.541  16.230   1.831
 4485W        W72703  19.004  44.041  10.704
 4486W        W72704   5.887  19.727   1.367
 4487W        W72705  44.822   7.518   0.339
 4488W        W72706  13.497  26.025  10.711
 4489W        W72707  43.355  37.077   3.220
 4490W        W72708  31.612  19.093  10.746
 4491W        W72709   0.839  22.642  11.211
 4492W        W72710  42.238  26.244   0.106
 4493W        W72711   1.748  34.726  14.888
 4494W        W72712  27.635  19.751   3.650
 4495W        W72713  44.502  34.002   4.161
 4496W        W72714  19.156   8.840   0.330
 4497W        W72715  36.457  26.712   1.814
 4498W        W72716  23.298  40.963   0.025
 4499W        W72717  32.934   1.197  11.705
 4500W        W72718   7.772  16.208  11.494
 4501W        W72719   9.354   0.339  10.308
 4502W        W72720   6.135  19.287   3.161
 4503W        W72721  24.558  36.251  11.593
 4504W        W72722  19.792  31.920  14.988
 4505W        W72723  31.055  21.854   1.001
 4506W        W72724  34.932  36.599  11.399
 4507W        W72725   0.731  24.467  13.804
 4508W        W72726   3.287  19.397  11.910
 4509W        W72727  36.907   9.905  12.618
 4510W        W72728  36.982  35.619   0.274
 4511W        W72729   7.944  13.692  13.320
 4512W        W72730   7.493  27.434  12.518
 4513W        W72731  24.659  29.156  10.773
 4514W        W72732  39.540  33.907  13.949
 4515W        W72733  37.475  23.083   1.795
 4516W        W72734  13.872   1.521   0.463
 4517W        W72735   9.628  28.691  13.055
 4518W        W72736  35.631   1.437   0.995
 4519W        W72737  44.257  21.202   1.267
 4520W        W72738  30.053  28.474   3.698
 4521W        W72739  17.402  39.958   4.678
 4522W        W72740  17.787   6.470  13.910
 4523W        W72741  28.526  20.211  13.306
 4524W        W72742  16.178   9.767   2.513
 4525W        W72743  36.327  33.949   4.726
 4526W        W72744  43.661  32.365  13.935
 4527W        W72745   0.352  17.126  10.685
 4528W        W72746  23.234   1.804   4.114
 4529W        W72747  28.702  26.618  11.922
 4530W        W72748  17.983   2.493  14.630
 4531W        W72749  26.115  31.540  13.245
 4532W        W72750  44.522   8.177   2.319
 4533W        W72751  12.288   6.948   1.917
 4534W        W72752  31.799  11.721  12.480
 4535W        W72753  32.971   6.513  13.042
 4536W        W72754   9.677  21.694  13.027
 4537W        W72755  31.271  19.537   0.323
 4538W        W72756  39.800  37.661  11.938
 4539W        W72757  25.882  43.828   3.734
 4540W        W72758   3.761  37.432  11.689
 4541W        W72759  41.770   0.767  12.580
 4542W        W72760  21.480  24.808   4.222
 4543W        W72761  44.628  40.720   5.102
 4544W        W72762  42.037   5.424  14.429
 4545W        W72763  25.687  15.761   9.827
 4546W        W72764   1.617  13.765  11.370
 4547W        W72765   2.816   8.151   3.616
 4548W        W72766  31.546  37.300  12.817
 4549W        W72767  21.231  36.018   0.255
 4550W        W72768   9.837  13.273   4.179
 4551W        W72769  23.781  24.549  10.173
 4552W        W72770  11.555  23.725   0.408
 4553W        W72771  34.981  10.125   1.720
 4554W        W72772  36.270  13.823   3.977
 4555W        W72773   0.906  11.615   4.368
 4556W        W72774  12.151  26.096  10.771
 4557W        W72775  23.099   0.489  12.674
 4558W        W72776  44.521  37.449  10.795
 4559W        W72777  35.868  28.147  11.911
 4560W        W72778   9.793  21.713  10.700
 4561W        W72779   6.330  32.989   0.437
 4562W        W72780  37.890  14.352  10.565
 4563W        W72781   7.957  32.976  13.371
 4564W        W72782  35.891  43.250   0.904
 4565W        W72783  40.430  14.455   0.139
 4566W        W72784  14.661   4.709  14.923
 4567W        W72785  17.424  16.291  13.809
 4568W        W72786   2.297  24.466  12.832
 4569W        W72787  23.234  10.897   4.554
 4570W        W72788  35.400  42.700  12.721
 4571W        W72789   5.292  37.354  12.473
 4572W        W72790  34.923  29.585  13.310
 4573W        W72791  34.915  41.368   0.448
 4574W        W72792  25.233   8.326   0.320
 4575W        W72793  19.448  33.093  13.346
 4576W        W72794  32.028  33.663  14.982
 4577W        W72795  10.400  15.792  10.188
 4578W        W72796  32.355  21.994   1.547
 4579W        W72797   5.205  29.009  11.609
 4580W        W72798  38.794  33.591   1.926
 4581W        W72799  44.271  27.027   3.751
 4582W        W72800  28.647  38.378   3.755
 4583W        W72801  27.923   0.990  12.125
 4584W        W72802  36.328  14.551  10.961
 4585W        W72803   2.601  39.918  11.730
 4586W        W72804  29.514  43.817   3.853
 4587W        W72805  35.197  28.252   4.586
 4588W        W72806   6.219  28.307  13.498
 4589W        W72807  23.716  27.113  13.615
 4590W        W72808   8.415  40.652   2.200
 4591W        W72809  15.376  37.412  12.845
 4592W        W72810  27.499  39.831  14.534
 4593W        W72811  44.544  16.265   3.053
 4594W        W72812  20.488  23.896  14.739
 4595W        W72813  32.967   1.029  12.194
 4596W        W72814   5.099  25.583  13.346
 4597W        W72815  10.582  32.583  12.165
 4598W        W72816  24.553  18.689   2.240
 4599W        W72817  43.193  32.584   4.635
 4600W        W72818  19.321  26.353  13.822
 4601W        W72819  17.307   1.832  14.446
 4602W        W72820  44.389  21.235   4.132
 4603W        W72821  23.981  35.106  12.175
 4604W        W72822   7.021  27.443  11.623
 4605W        W72823  34.494  20.589  14.235
 4606W        W72824   6.953  28.991   3.252
 4607W        W72825   5.829  28.618   1.423
 4608W        W72826  19.679  23.234  13.915
 4609W        W72827  12.754  33.063  12.011
 4610W        W72828  37.835  43.300  14.442
 4611W        W72829  31.564  17.167   4.888
 4612W        W72830  36.383  13.588   1.113
 4613W        W72831   4.982   9.657   4.460
 4614W        W72832   0.280  44.524   0.551
 4615W        W72833   2.959  22.624   2.918
 4616W        W72834  39.788  33.539  12.302
 4617W        W72835  39.426  12.034  10.446
 4618W        W72836   2.938   1.213   1.838
 4619W        W72837  16.264   6.644   2.655
 4620W        W72838  17.338   8.294  11.450
 4621W        W72839  35.532  19.827   1.050
 4622W        W72840  18.028   2.420  11.697
 4623W        W72841  36.487   3.264   0.045
 4624W        W72842  31.153  39.628   9.693
 4625W        W72843  37.433  24.037  13.377
 4626W        W72844  31.015  39.887   1.376
 4627W        W72845  39.838  19.183  14.870
 4628W        W72846  33.617   8.375   3.261
 4629W        W72847  17.123  10.930  14.340
 4630W        W72848   1.443   2.893   0.492
 4631W        W72849  31.926  28.995  13.340
 4632W        W72850   5.192   4.659   0.282
 4633W        W72851  16.206  21.679   2.300
 4634W        W72852   1.339   1.679  14.301
 4635W        W72853  39.344   1.767   5.199
 4636W        W72854  36.059  14.748   2.292
 4637W        W72855  20.025   7.719   0.361
 4638W        W72856  12.121  14.715  14.476
 4639W        W72857  40.570  10.891   2.812
 4640W        W72858  13.298   3.337  10.373
 4641W        W72859  15.967  22.160   4.396
 4642W        W72860   3.351  37.747   0.458
 4643W        W72861   9.784  33.561  10.680
 4644W        W72862  10.389  42.733   0.495
 4645W        W72863  42.016  25.550   2.227
 4646W        W72864   6.184  14.771  12.502
 4647W        W72865   0.298  10.008   0.389
 4648W        W72866  40.425  35.805  11.626
 4649W        W72867  41.475   9.762   2.388
 4650W        W72868  42.506  34.235  13.069
 4651W        W72869  44.540  27.995  13.843
 4652W        W72870   3.359   2.943  11.811
 4653W        W72871   9.833  36.634   3.858
 4654W        W72872  13.756  17.756  14.199
 4655W        W72873   1.308  12.886   1.113
 4656W        W72874   8.790  18.014   3.647
 4657W        W72875  36.884  10.216   4.036
 4658W        W72876  32.579   4.192   1.394
 4659W        W72877  36.787   5.608   1.163
 4660W        W72878  30.504  27.726  13.429
 4661W        W72879  18.466  38.408   4.357
 4662W        W72880  29.995  34.945   4.118
 4663W        W72881  32.063   2.323   4.627
 4664W        W72882  40.714  18.597   2.781
 4665W        W72883  14.034   5.747   4.135
 4666W        W72884  24.041   7.268  13.492
 4667W        W72885  11.130  28.669   0.340
 4668W        W72886  22.854  26.624   1.133
 4669W        W72887  30.684  21.586  13.632
 4670W        W72888  16.121   4.749   4.373
 4671W        W72889  42.940  28.608  11.488
 4672W        W72890  41.540  23.756   4.253
 4673W        W72891  10.649  36.638  11.291
 4674W        W72892   1.257   8.618  11.272
 4675W        W72893  30.214  28.587  11.038
 4676W        W72894  36.205  40.721   4.960
 4677W        W72895  38.034  31.393  12.958
 4678W        W72896  42.069  37.113   0.871
 4679W        W72897   3.231  25.837   3.501
 4680W        W72898  16.610  15.152   0.109
 4681W        W72899  22.464   9.252   0.472
 4682W        W72900  28.012  26.637   0.891
 4683W        W72901   5.492  26.497   2.880
 4684W        W72902  15.214   2.196  14.739
 4685W        W72903  38.335  36.361  12.206
 4686W        W72904   5.680   6.162  13.923
 4687W        W72905   0.694   5.171   3.958
 4688W        W72906  29.055  17.390   1.393
 4689W        W72907  35.490   3.468   0.751
 4690W        W72908  22.478   9.615   1.336
 4691W        W72909  22.832   0.367  13.093
 4692W        W72910  18.564  18.626   0.299
 4693W        W72911  40.837   2.994  11.189
 4694W        W72912  33.385  44.075   2.722
 4695W        W72913  21.313  10.651   0.278
 4696W        W72914  37.857   6.754   2.715
 4697W        W72915  20.153  21.622  10.714
 4698W        W72916  19.265  35.231   3.224
 4699W        W72917  26.779  17.237  14.016
 4700W        W72918  40.622  25.452   0.348
 4701W        W72919  19.932   9.523  12.743
 4702W        W72920  31.918   0.638   2.657
 4703W        W72921   0.631  10.831   0.795
 4704W        W72922  21.694  27.446  13.453
 4705W        W72923  22.139   8.921   2.458
 4706W        W72924  14.595  40.164   0.102
 4707W        W72925  21.159  36.870   0.335
 4708W        W72926  28.285  18.228  12.047
 4709W        W72927  32.065   6.689   0.212
 4710W        W72928  10.244  35.461  12.004
 4711W        W72929  33.559  12.542  13.666
 4712W        W72930   8.283   8.499  13.495
 4713W        W72931  12.727  35.674  14.023
 4714W        W72932  42.028  10.166  10.674
 4715W        W72933  43.968  43.538  12.713
 4716W        W72934  38.786  12.965  12.376
 4717W        W72935   2.688   2.265  11.001
 4718W        W72936  23.475   9.378  13.369
 4719W        W72937  17.649  38.554   3.221
 4720W        W72938  33.340   2.630   0.270
 4721W        W72939  15.370  26.257  12.931
 4722W        W72940   4.395  13.366   4.177
 4723W        W72941  30.877  40.930  11.290
 4724W        W72942  32.445  32.873  14.598
 4725W        W72943  31.708  19.865   5.181
 4726W        W72944  21.732   5.995   2.408
 4727W        W72945  11.321   8.826  13.583
 4728W        W72946  29.011  27.531  14.227
 4729W        W72947   8.265  44.651  12.152
 4730W        W72948   1.341  19.785   2.243
 4731W        W72949  17.259  11.280  13.337
 4732W        W72950  39.967  33.091   3.662
 4733W        W72951  18.645   7.327  13.544
 4734W        W72952  29.104   7.088  12.425
 4735W        W72953  11.441  27.660  12.879
 4736W        W72954  32.356  19.314  12.907
 4737W        W72955  22.361  42.564  11.499
 4738W        W72956  40.261   7.920  12.974
 4739W        W72957   7.395  39.997  13.621
 4740W        W72958  30.876  23.538   0.363
 4741W        W72959  11.024  40.386   1.647
 4742W        W72960   0.249   0.372  14.600
 4743W        W72961   7.236  20.537  14.384
 4744W        W72962   7.773  40.290  13.839
 4745W        W72963  13.125  22.179  11.101
 4746W        W72964  16.389  37.589  12.948
 4747W        W72965  27.697   5.794  14.913
 4748W        W72966  16.676  40.559   2.894
 4749W        W72967  15.584  29.051   4.030
 4750W        W72968  38.569  41.720  12.999
 4751W        W72969  21.423   5.799   2.866
 4752W        W72970  44.819   7.748   3.682
 4753W        W72971   3.151  11.608  13.494
 4754W        W72972   8.894  12.281  14.424
 4755W        W72973  44.714  22.208  14.916
 4756W        W72974   8.628   8.708   3.195
 4757W        W72975  14.264  38.854  13.785
 4758W        W72976   3.860  36.612   0.319
 4759W        W72977  27.491   8.361  14.825
 4760W        W72978  39.246  30.586   3.294
 4761W        W72979  10.448  28.625  10.273
 4762W        W72980  31.869   9.622  14.790
 4763W        W72981  10.153  18.835   2.558
 4764W        W72982  30.013  30.401  11.670
 4765W        W72983  41.449  42.118   0.396
 4766W        W72984   7.333  43.131   5.094
 4767W        W72985  20.531  33.936  12.712
 4768W        W72986  33.937  39.771   1.344
 4769W        W72987  13.268  31.987   4.961
 4770W        W72988  15.929   3.185   3.214
 4771W        W72989  37.155  13.359  14.085
 4772W        W72990  16.715   7.659  10.617
 4773W        W72991  23.500   7.778   0.217
 4774W        W72992  34.896  11.633   3.651
 4775W        W72993  43.365  15.703  10.280
 4776W        W72994  14.441  12.035  11.501
 4777W        W72995  38.375   5.641   3.309
 4778W        W72996  14.272  42.976   5.380
 4779W        W72997  34.369  38.684  10.683
 4780W        W72998  37.466  36.400   3.234
 4781W        W72999   9.723  25.086   0.734
 4782W        W73000  22.123  24.584  10.606
 4783W        W73001  28.038   9.741  10.606
 4784W        W73002  11.324  27.391  11.283
 4785W        W73003  32.809   2.832  12.486
 4786W        W73004  36.409   7.929  11.525
 4787W        W73005   6.200  22.689  14.043
 4788W        W73006  20.093  12.804   3.657
 4789W        W73007  28.268   6.256   1.684
 4790W        W73008  12.940  18.614  11.644
 4791W        W73009  23.775   9.246  11.583
 4792W        W73010  13.038   9.073   5.026
 4793W        W73011  20.516  27.189   4.437
 4794W        W73012  43.023  33.655   0.775
 4795W        W73013   3.101  20.408   1.875
 4796W        W73014   5.694  40.721   2.669
 4797W        W73015  21.585  38.515   3.826
 4798W        W73016  13.843  12.600   4.320
 4799W        W73017  34.159  25.886  12.951
 4800W        W73018  14.289  29.688  12.530
 4801W        W73019  14.629  24.115   3.662
 4802W        W73020  27.713  35.319  12.539
 4803W        W73021   3.659  27.644  13.500
 4804W        W73022  11.252  42.731   4.521
 4805W        W73023  16.093   8.969   3.239
 4806W        W73024  35.230   6.322  10.972
 4807W        W73025  34.702  30.154  12.549
 4808W        W73026  14.402  28.938  13.858
 4809W        W73027  13.106  12.167  13.905
 4810W        W73028  22.117  33.142   4.449
 4811W        W73029  32.607  39.021   2.967
 4812W        W73030  30.630  27.983   0.383
 4813W        W73031  29.530  25.411   2.184
 4814W        W73032  36.378  20.621  11.124
 4815W        W73033  21.443  31.982   2.811
 4816W        W73034   4.777  40.071   1.924
 4817W        W73035   3.346   9.729  14.223
 4818W        W73036  14.875   2.822   0.831
 4819W        W73037  24.224  37.594  14.359
 4820W        W73038   3.487  39.251  12.532
 4821W        W73039  12.225   4.968  11.994
 4822W        W73040  39.382  26.534  13.115
 4823W        W73041   6.151  33.494  11.173
 4824W        W73042  13.753  39.432   1.506
 4825W        W73043  43.437  24.958  10.612
 4826W        W73044   4.680   3.693  14.902
 4827W        W73045  12.139  25.064   3.903
 4828W        W73046  43.893  44.839   3.077
 4829W        W73047   2.652  40.710   0.251
 4830W        W73048   7.379   7.957  14.378
 4831W        W73049  25.076  34.558   3.747
 4832W        W73050  15.284  38.458   2.793
 4833W        W73051  42.466  37.962   2.905
 4834W        W73052  10.912  26.576   4.558
 4835W        W73053   9.879   4.237  10.368
 4836W        W73054  28.865   2.600  11.921
 4837W        W73055  24.989  23.957   2.790
 4838W        W73056   4.446  19.137   4.190
 4839W        W73057  17.115  13.668  11.028
 4840W        W73058  26.103   0.489   0.655
 4841W        W73059  12.142  39.583  14.386
 4842W        W73060  22.973  12.107  11.562
 4843W        W73061  19.246  28.100  13.357
 4844W        W73062  10.285  13.515  13.048
 4845W        W73063  35.415  26.174   0.272
 4846W        W73064   4.600  40.875   2.696
 4847W        W73065  27.755  29.426   4.344
 4848W        W73066  35.103  38.757  12.836
 4849W        W73067   9.711  24.501  11.587
 4850W        W73068   7.342  35.259   2.905
 4851W        W73069  17.568  35.605  14.300
 4852W        W73070  22.051  16.575   2.792
 4853W        W73071  41.917  14.551   3.608
 4854W        W73072   8.721  39.621   1.335
 4855W        W73073  40.022   5.426  10.481
 4856W        W73074  27.054  42.062  13.414
 4857W        W73075  19.370  22.092   2.424
 4858W        W73076   1.733  28.633  13.484
 4859W        W73077  29.598  23.574  10.181
 4860W        W73078  22.244  22.123   4.027
 4861W        W73079  22.370  36.548   2.490
 4862W        W73080  14.241  27.576  12.855
 4863W        W73081  29.571  42.539  13.102
 4864W        W73082  12.179  42.077   2.210
 4865W        W73083  17.101  12.968  10.382
 4866W        W73084  23.853  19.563   9.733
 4867W        W73085  25.189   0.296  11.648
 4868W        W73086  20.775  30.509   2.473
 4869W        W73087  22.323  11.243  10.728
 4870W        W73088  35.185  10.218   3.677
 4871W        W73089  43.107  13.930   0.377
 4872W        W73090  40.481   7.297   4.568
 4873W        W73091  39.607  19.580   1.492
 4874W        W73092   1.778  13.719  12.765
 4875W        W73093  26.244  15.230   1.774
 4876W        W73094  42.788   0.322  13.334
 4877W        W73095   8.026  29.995  13.286
 4878W        W73096   9.715  27.114   1.160
 4879W        W73097  37.414  15.669  14.416
 4880W        W73098  44.445  19.607   2.786
 4881W        W73099  30.093   2.227  10.930
 4882W        W73100   8.471  17.339  10.276
 4883W        W73101   7.590  18.679   1.290
 4884W        W73102  32.060  19.005   3.201
 4885W        W73103  21.582  18.518  14.401
 4886W        W73104  35.491  34.505  10.438
 4887W        W73105  29.500  22.773   5.018
 4888W        W73106  32.082   1.215  14.895
 4889W        W73107  34.719   5.650  10.341
 4890W        W73108  31.403  22.546   0.410
 4891W        W73109  11.780   9.293  10.385
 4892W        W73110  42.744  40.896   3.757
 4893W        W73111  16.738  36.864   4.632
 4894W        W73112  20.917  34.846  12.045
 4895W        W73113  26.435   8.633   1.983
 4896W        W73114  14.832  31.803   1.319
 4897W        W73115   4.243   3.946   4.866
 4898W        W73116  20.117  34.038  13.057
 4899W        W73117  23.270   9.341  11.559
 4900W        W73118  32.986  14.458   0.279
 4901W        W73119   0.979  22.107  12.891
 4902W        W73120  39.306  14.720  12.620
 4903W        W73121   4.391  13.799   1.746
 4904W        W73122  21.306  32.380   1.389
 4905W        W73123  17.611  44.254   1.643
 4906W        W73124  37.487  12.444   2.281
 4907W        W73125  19.620  37.687   2.922
 4908W        W73126  24.159  10.825  12.933
 4909W        W73127  43.341  19.270  12.595
 4910W        W73128   3.537  10.234   4.670
 4911W        W73129   6.144  34.877  13.942
 4912W        W73130  43.998  34.531   1.579
 4913W        W73131  27.589  38.441  14.804
 4914W        W73132  21.440  15.917  14.428
 4915W        W73133  31.139  38.907   1.417
 4916W        W73134   2.436   8.372  12.503
 4917W        W73135   2.664  14.321   2.318
 4918W        W73136   4.095  42.434   9.807
 4919W        W73137  33.854  29.185   2.443
 4920W        W73138  20.213  44.287   3.155
 4921W        W73139  20.677  28.383  12.874
 4922W        W73140  24.066  10.469   9.883
 4923W        W73141  29.938  20.723   3.866
 4924W        W73142  35.631  12.205  13.815
 4925W        W73143  29.968  43.957   0.460
 4926W        W73144  41.189  25.666   1.937
 4927W        W73145  20.998  29.805   4.172
 4928W        W73146  34.670   8.669   5.059
 4929W        W73147   0.002  11.797   4.573
 4930W        W73148  22.738   5.096  13.777
 4931W        W73149  11.106  11.037   3.297
 4932W        W73150  23.943  28.262   4.576
 4933W        W73151  32.655  40.413   1.310
 4934W        W73152   8.122   9.975  14.270
 4935W        W73153  25.154   8.755  10.455
 4936W        W73154  27.040  43.545  14.361
 4937W        W73155  30.485  16.249  10.883
 4938W        W73156  15.282  15.348  12.416
 4939W        W73157  16.651  20.712   3.440
 4940W        W73158  43.768  35.043   1.786
 4941W        W73159  10.165  20.199  14.182
 4942W        W73160  11.127  32.697  14.334
 4943W        W73161  31.356   2.793   9.866
 4944W        W73162  19.264   7.410  12.039
 4945W        W73163  30.052  43.975   4.452
 4946W        W73164   7.462  34.814   4.234
 4947W        W73165  14.884  39.625   3.724
 4948W        W73166  17.583  43.845   2.758
 4949W        W73167  30.947  38.545   3.607
 4950W        W73168   4.976  27.108  10.182
 4951W        W73169  13.136  36.532  14.393
 4952W        W73170  18.915  33.530   1.391
 4953W        W73171   8.945  22.279  13.516
 4954W        W73172  32.911  42.522   0.401
 4955W        W73173  24.655  30.477   4.073
 4956W        W73174  11.252  18.541   3.173
 4957W        W73175  15.161  37.802   1.400
 4958W        W73176   4.088  42.559   4.117
 4959W        W73177  24.828   0.620   0.394
 4960W        W73178  16.079  41.310  11.522
 4961W        W73179  44.532  29.878   2.914
 4962W        W73180  30.880  32.236  11.888
 4963W        W73181  33.028   7.321  11.975
 4964W        W73182  26.860  20.963  12.953
 4965W        W73183   0.801  22.047   3.537
 4966W        W73184  23.982  34.604  10.632
 4967W        W73185  38.727  43.488  14.574
 4968W        W73186  25.878   1.459  11.831
 4969W        W73187  13.347  15.486   1.757
 4970W        W73188  34.894   6.159   2.900
 4971W        W73189  23.501  24.178   2.802
 4972W        W73190  26.336   8.852  10.294
 4973W        W73191  19.210  18.251   3.687
 4974W        W73192  35.488  30.327  12.860
 4975W        W73193  38.482  35.296   2.268
 4976W        W73194  17.099  10.342   2.291
 4977W        W73195  35.013  24.200  13.048
 4978W        W73196  15.839  33.802  11.946
 4979W        W73197  41.892   5.893   2.822
 4980W        W73198  29.806   5.099   1.866
 4981W        W73199  32.583   1.856   3.868
 4982W        W73200  17.327  39.598  10.658
 4983W        W73201  16.469  27.087  11.638
 4984W        W73202  16.771  29.412   3.745
 4985W        W73203  11.730  19.814   0.386
 4986W        W73204  35.158  15.327   3.705
 4987W        W73205  34.342   7.394   2.783
 4988W        W73206  24.130  41.237  13.920
 4989W        W73207  29.707  11.204   4.467
 4990W        W73208  29.942   1.507   1.282
 4991W        W73209  19.148   8.379   4.768
 4992W        W73210  42.833  39.328   0.450
 4993W        W73211  20.580  31.925   1.908
 4994W        W73212  42.985  11.533   1.161
 4995W        W73213  18.092   8.685   2.757
 4996W        W73214   3.242  16.485  12.042
 4997W        W73215  10.674   5.397   4.076
 4998W        W73216  18.162  44.892   4.357
 4999W        W73217  40.076  35.437  14.408
 5000W        W73218  33.970  11.207   3.624
 5001W        W73219  10.845  16.960   0.128
 5002W        W73220  43.700   0.779   0.972
 5003W        W73221   3.812  10.827  14.849
 5004W        W73222   7.858  10.083  11.523
 5005W        W73223  35.246  20.279   3.073
 5006W        W73224  20.195  12.211   0.409
 5007W        W73225  23.556  20.381  11.485
 5008W        W73226  31.913  34.633  13.354
 5009W        W73227  16.535  21.814  12.197
 5010W        W73228  19.259   2.957   2.313
 5011W        W73229  33.463  18.277  12.136
 5012W        W73230  30.155  32.769  12.655
 5013W        W73231  12.148   5.749   4.872
 5014W        W73232  28.110  10.834  12.362
 5015W        W73233  20.672  11.856  12.883
 5016W        W73234  18.569  16.073   9.705
 5017W        W73235  16.192  32.083   1.198
 5018W        W73236  40.536  30.577   3.712
 5019W        W73237   9.740  23.989   4.780
 5020W        W73238   5.544  37.196   0.232
 5021W        W73239  32.998  37.085   3.606
 5022W        W73240   8.085  17.089  11.255
 5023W        W73241   4.353   9.768   3.031
 5024W        W73242  11.895  42.473   3.896
 5025W        W73243  40.033   4.466  11.513
 5026W        W73244  18.350   1.874  14.374
 5027W        W73245   0.830  22.774   0.843
 5028W        W73246  27.833  27.345   5.118
 5029W        W73247  23.952  26.082   1.914
 5030W        W73248   9.756   7.130   2.726
 5031W        W73249  27.954  21.561   3.094
 5032W        W73250  12.423  10.608   0.388
 5033W        W73251  12.885  19.577  11.710
 5034W        W73252  15.298   2.327  12.795
 5035W        W73253  26.825  37.813  12.456
 5036W        W73254  21.184  31.346  14.058
 5037W        W73255  24.939  35.383  12.161
 5038W        W73256   9.961   3.408   2.262
 5039W        W73257  24.591   6.652   0.447
 5040W        W73258  38.091  29.232  13.454
 5041W        W73259  29.663   0.323   3.786
 5042W        W73260  34.450  32.220  13.277
 5043W        W73261  15.574  29.020  12.952
 5044W        W73262  27.766  39.785  11.085
 5045W        W73263  36.814  24.896   0.689
 5046W        W73264   4.791  44.196   3.664
 5047W        W73265  12.883  40.718   2.198
 5048W        W73266  13.572   1.580  13.613
 5049W        W73267  30.911  18.287  13.413
 5050W        W73268  28.845  37.246   2.809
 5051W        W73269  21.029   7.997  10.545
 5052W        W73270  28.492   6.757   4.394
 5053W        W73271  36.033  26.968   3.650
 5054W        W73272  26.593  15.883   2.967
 5055W        W73273  44.993  14.563   1.791
 5056W        W73274  24.192  18.851  12.597
 5057W        W73275  23.022  16.274   1.379
 5058W        W73276   3.045  17.571  11.656
 5059W        W73277  31.024  36.746  12.087
 5060W        W73278   8.787  38.570   3.354
 5061W        W73279  35.859  39.881   0.285
 5062W        W73280  38.055  11.835   4.047
 5063W        W73281  39.925  21.746  12.415
 5064W        W73282  15.739  20.329   2.308
 5065W        W73283  39.101  27.647  14.805
 5066W        W73284  32.622  32.703  12.422
 5067W        W73285  22.009  32.520   2.261
 5068W        W73286  40.890  15.634  12.919
 5069W        W73287  21.753   4.838   3.775
 5070W        W73288  23.747  31.495   0.302
 5071W        W73289  33.370  34.489  11.546
 5072W        W73290   9.439  37.338   1.853
 5073W        W73291  11.613  33.656   2.268
 5074W        W73292  20.149  19.598   4.107
 5075W        W73293  10.779  24.137   3.172
 5076W        W73294  20.053  24.801   0.740
 5077W        W73295   5.479   5.647   1.514
 5078W        W73296  29.560  30.856  10.698
 5079W        W73297  13.631  23.080  13.811
 5080W        W73298  39.298   9.334   0.866
 5081W        W73299  14.562  16.250   0.308
 5082W        W73300  23.594  15.882   1.966
 5083W        W73301  36.578  31.930  13.487
 5084W        W73302  10.826  21.137   1.864
 5085W        W73303  40.700  32.142  10.288
 5086W        W73304  31.870  29.616  10.841
 5087W        W73305  27.677  13.573   0.802
 5088W        W73306  22.054   1.981  12.824
 5089W        W73307  29.194  36.374   2.652
 5090W        W73308  22.793   9.748  13.017
 5091W        W73309  27.806   6.440  13.257
 5092W        W73310   6.885  17.469   2.200
 5093W        W73311  29.526  22.653   2.582
 5094W        W73312   8.784  10.082  10.786
 5095W        W73313  27.541   7.161   4.560
 5096W        W73314   2.464  42.206   3.671
 5097W        W73315  40.838   9.954  13.588
 5098W        W73316  31.176   5.436   5.222
 5099W        W73317   4.746  35.967  14.017
 5100W        W73318  18.467  34.482  11.360
 5101W        W73319  44.844  38.623  12.901
 5102W        W73320  34.601  14.914  14.444
 5103W        W73321   6.285  18.054  11.978
 5104W        W73322  10.651  27.949   3.666
 5105W        W73323  16.031  17.650   0.407
 5106W        W73324  22.287  32.808  11.282
 5107W        W73325  33.232   8.261  12.419
 5108W        W73326  44.728   9.182  14.368
 5109W        W73327  40.726  23.613   3.734
 5110W        W73328  37.818  27.432  12.442
 5111W        W73329  15.367   0.918   5.022
 5112W        W73330  34.587   1.753   4.182
 5113W        W73331  33.637  10.122   1.753
 5114W        W73332   8.880  44.879  13.872
 5115W        W73333  37.557  24.689  11.996
 5116W        W73334   7.170  27.043   1.370
 5117W        W73335   3.302  35.955   1.742
 5118W        W73336   9.773  30.456   0.903
 5119W        W73337  27.505  37.127  10.691
 5120W        W73338  14.072  20.546   4.170
 5121W        W73339   2.366  24.244   2.420
 5122W        W73340  40.518  10.323   0.773
 5123W        W73341  16.438   6.983  13.435
 5124W        W73342   5.340   0.708  11.093
 5125W        W73343  15.560  43.550  12.969
 5126W        W73344   5.867  11.324   1.975
 5127W        W73345   1.945  44.784  11.707
 5128W        W73346  38.953  26.192  12.057
 5129W        W73347  23.301  34.377   3.281
 5130W        W73348  12.356  24.446  12.473
 5131W        W73349  13.266  10.939  13.772
 5132W        W73350  16.583  21.661  12.706
 5133W        W73351  37.076  37.366   1.932
 5134W        W73352  40.878   3.329  14.869
 5135W        W73353  19.630   9.108   4.985
 5136W        W73354   2.921  16.649  14.084
 5137W        W73355  20.983  37.806  11.042
 5138W        W73356  13.567  28.711   4.898
 5139W        W73357   9.776   5.228   0.391
 5140W        W73358  43.258   5.208   4.424
 5141W        W73359  44.372  18.508  12.097
 5142W        W73360  27.543   5.882  10.748
 5143W        W73361  22.249  31.966   3.531
 5144W        W73362   2.780  25.682   3.768
 5145W        W73363  33.659  42.451  11.172
 5146W        W73364  21.641  42.824   0.988
 5147W        W73365   3.404   4.173   0.510
 5148W        W73366  40.369  36.574   0.870
 5149W        W73367  14.490  28.175   4.241
 5150W        W73368  21.624   0.489   2.877
 5151W        W73369  29.506  24.219   3.649
 5152W        W73370  36.857   3.787  12.480
 5153W        W73371   4.438   7.557  13.411
 5154W        W73372  18.567  22.565  10.745
 5155W        W73373   8.930  20.768   3.304
 5156W        W73374  30.305  14.177   2.419
 5157W        W73375  40.008  39.267  11.445
 5158W        W73376  27.971  35.905   0.462
 5159W        W73377  18.469  13.604   2.346
 5160W        W73378  23.770  43.559  11.908
 5161W        W73379  11.591  20.279   4.134
 5162W        W73380  36.115  15.157  14.894
 5163W        W73381  29.079  21.584   4.880
 5164W        W73382  23.031  10.451  11.102
 5165W        W73383  12.038   1.398  13.507
 5166W        W73384  11.102  27.437   2.608
 5167W        W73385  39.345  34.406  11.367
 5168W        W73386  19.345  40.052   2.782
 5169W        W73387  12.325  15.265   4.219
 5170W        W73388  41.626   7.156  13.654
 5171W        W73389  24.677  24.278   0.170
 5172W        W73390  37.021  42.475   4.170
 5173W        W73391  35.604  12.567  12.971
 5174W        W73392   6.633  15.652  14.809
 5175W        W73393  30.920  11.832   4.152
 5176W        W73394  13.264  38.980   3.865
 5177W        W73395  42.886  26.897  13.408
 5178W        W73396   5.999  42.456   2.809
 5179W        W73397  38.014  42.243  14.502
 5180W        W73398   6.608  24.035   2.845
 5181W        W73399  40.374  19.717   4.566
 5182W        W73400  27.012  17.531  12.865
 5183W        W73401  27.167   5.755  12.217
 5184W        W73402  11.160  33.039   4.493
 5185W        W73403  10.093   1.796   2.331
 5186W        W73404  15.091  32.602  13.837
 5187W        W73405  14.317   8.891  12.512
 5188W        W73406  33.146  39.933  14.368
 5189W        W73407   1.457  31.038   3.851
 5190W        W73408   3.828   9.339  11.343
 5191W        W73409   5.168  33.741  12.262
 5192W        W73410  25.220  29.157   0.483
 5193W        W73411   6.836  42.809  11.952
 5194W        W73412   5.002  30.056   4.156
 5195W        W73413   3.223  36.564   3.893
 5196W        W73414   8.762   1.310   3.167
 5197W        W73415   2.091   1.504   1.856
 5198W        W73416  37.168  22.265  14.754
 5199W        W73417   4.090  17.074  14.001
 5200W        W73418  26.420  22.184   2.783
 5201W        W73419   9.683  34.571   4.228
 5202W        W73420  21.158  24.759   2.955
 5203W        W73421  37.963  37.789  12.133
 5204W        W73422  21.309  37.345   2.198
 5205W        W73423  18.571  17.274  11.247
 5206W        W73424   5.289  19.416   2.760
 5207W        W73425  10.709  14.847  10.884
 5208W        W73426  24.671  19.669   1.916
 5209W        W73427  19.638  36.882   3.719
 5210W        W73428  33.039  12.872  13.827
 5211W        W73429  43.452  34.426  11.959
 5212W        W73430   3.938   5.691  12.463
 5213W        W73431  27.526  42.616   4.670
 5214W        W73432  28.543  30.163   4.557
 5215W        W73433  12.681  20.680   0.783
 5216W        W73434  40.436  23.552   1.267
 5217W        W73435  27.075  37.611   2.904
 5218W        W73436   8.956   9.357  12.005
 5219W        W73437  14.048   9.221  10.767
 5220W        W73438  23.145  23.571  10.913
 5221W        W73439   1.393   8.354  14.353
 5222W        W73440  16.615  21.932   2.508
 5223W        W73441  36.021   8.398   2.271
 5224W        W73442  16.751  26.159  12.856
 5225W        W73443  26.992  27.667  14.287
 5226W        W73444  39.034   8.353   2.250
 5227W        W73445  30.938  25.558  13.756
 5228W        W73446  26.069  41.151   2.650
 5229W        W73447  35.450   4.217  14.874
 5230W        W73448   1.264  43.909   0.781
 5231W        W73449  21.526  41.982   3.946
 5232W        W73450  12.290  34.165  13.383
 5233W        W73451  14.206  37.466   3.125
 5234W        W73452  10.893   0.489   4.012
 5235W        W73453  36.972  19.117  12.079
 5236W        W73454  25.574  13.915   1.208
 5237W        W73455  12.786   3.811   3.866
 5238W        W73456  11.261  38.377   0.194
 5239W        W73457   1.005  18.099  14.914
 5240W        W73458   4.092  34.354   1.381
 5241W        W73459  41.018  38.540  12.041
 5242W        W73460   9.794   0.732   2.903
 5243W        W73461  17.582  11.700  13.452
 5244W        W73462  18.761  27.951  10.706
 5245W        W73463  29.125  35.255  12.423
 5246W        W73464  30.358  38.030  11.480
 5247W        W73465   3.819   6.843   2.343
 5248W        W73466   9.441   3.988   3.051
 5249W        W73467  12.715  23.547   0.391
 5250W        W73468  33.595   0.662  13.118
 5251W        W73469   5.762  19.266  10.798
 5252W        W73470   1.535  30.041   4.189
 5253W        W73471  42.775  16.423  12.867
 5254W        W73472  33.549  23.319  12.168
 5255W        W73473  30.386  19.025   2.685
 5256W        W73474  29.438  29.553   2.656
 5257W        W73475  41.758  34.068  13.334
 5258W        W73476  41.939  31.173   4.858
 5259W        W73477  31.453  30.926   2.336
 5260W        W73478  26.552  25.193   5.492
 5261W        W73479   8.875  44.708   0.297
 5262W        W73480  44.541  33.890   3.654
 5263W        W73481  41.447  29.364   3.426
 5264W        W73482   6.786  44.854   0.872
 5265W        W73483   8.467  27.784  12.208
 5266W        W73484  19.173  34.531  13.739
 5267W        W73485  38.569   8.820   0.395
 5268W        W73486  16.658  41.340  12.638
 5269W        W73487   2.645   6.316  12.136
 5270W        W73488   8.293   6.998   2.770
 5271W        W73489   6.763  33.879  13.877
 5272W        W73490  32.700  20.739  13.046
 5273W        W73491  13.666  36.514  14.120
 5274W        W73492   9.187  28.163  11.037
 5275W        W73493  11.775   5.107  14.926
 5276W        W73494  25.323  41.387  13.360
 5277W        W73495  24.605   0.481   4.639
 5278W        W73496  35.569  35.175  13.934
 5279W        W73497   7.830  44.554   2.443
 5280W        W73498  22.731  19.630  10.955
 5281W        W73499  44.239   2.353   4.667
 5282W        W73500   5.699   7.589   0.522
 5283W        W73501  37.816  28.061  14.938
 5284W        W73502  42.748   9.436   3.111
 5285W        W73503  11.382  41.924  14.007
 5286W        W73504   1.757  39.489  14.595
 5287W        W73505  10.750  44.437   2.184
 5288W        W73506  26.986  26.517   2.255
 5289W        W73507  40.010  33.425  13.246
 5290W        W73508  21.645  41.752   1.848
 5291W        W73509   5.689  28.132  14.363
 5292W        W73510   9.638  17.410  13.070
 5293W        W73511  12.869  34.549  12.502
 5294W        W73512  19.218  33.085   3.598
 5295W        W73513  33.137  23.581   4.618
 5296W        W73514  38.457   3.002   4.635
 5297W        W73515  29.047   2.996   5.073
 5298W        W73516  20.857  19.848  10.419
 5299W        W73517  38.877  29.152   2.684
 5300W        W73518  15.116  15.216   3.683
 5301W        W73519  40.076  19.559  11.602
 5302W        W73520  42.023  12.030   2.696
 5303W        W73521   8.218   0.927   0.223
 5304W        W73522   5.387   6.716   2.754
 5305W        W73523  13.857  12.098  13.525
 5306W        W73524  41.553  41.367   2.776
 5307W        W73525  37.272  11.255   3.717
 5308W        W73526  41.005   6.727   0.861
 5309W        W73527   0.713  23.129   3.694
 5310W        W73528  23.469  23.636   0.441
 5311W        W73529  36.636   2.388  13.432
 5312W        W73530  13.206  11.775  12.002
 5313W        W73531  40.443  15.198   4.678
 5314W        W73532  29.493  24.729   3.620
 5315W        W73533  20.412  27.663  11.547
 5316W        W73534  30.876  42.923  14.371
 5317W        W73535  19.867  23.697  12.044
 5318W        W73536  30.739  24.756  12.106
 5319W        W73537  18.619  37.561  14.532
 5320W        W73538  26.713   5.083   1.904
 5321W        W73539   2.425  44.512  14.347
 5322W        W73540  13.402   2.942   0.720
 5323W        W73541  31.093  43.834   4.463
 5324W        W73542  24.076  31.905  12.294
 5325W        W73543   6.156  31.945   2.279
 5326W        W73544  27.923   2.206   0.762
 5327W        W73545  14.337  22.590  10.782
 5328W        W73546  26.970   2.983  12.046
 5329W        W73547  20.439  11.902   1.272
 5330W        W73548  14.814  25.733   1.683
 5331W        W73549  28.647  20.634  11.180
 5332W        W73550   1.698  10.377   2.909
 5333W        W73551  17.453  29.939  12.001
 5334W        W73552  11.571  32.984  14.405
 5335W        W73553  29.668  15.736   0.033
 5336W        W73554  33.922   6.711  11.157
 5337W        W73555  20.529   0.499  14.986
 5338W        W73556  16.222  21.733   1.345
 5339W        W73557  21.014  32.459   2.247
 5340W        W73558  14.543  15.028  13.814
 5341W        W73559  19.056  19.871   0.383
 5342W        W73560   2.004  21.021  11.962
 5343W        W73561  40.329  29.101   2.653
 5344W        W73562  15.557  32.851   4.355
 5345W        W73563  41.081   7.289  13.616
 5346W        W73564  19.282  41.936   3.194
 5347W        W73565  15.596  25.410   4.974
 5348W        W73566  43.566  10.217   1.883
 5349W        W73567  13.313  27.853   3.232
 5350W        W73568  44.879  22.579   3.332
 5351W        W73569   0.446  21.227  13.351
 5352W        W73570   4.246  19.093  12.077
 5353W        W73571  26.650  10.568  13.148
 5354W        W73572  37.015  10.790   3.928
 5355W        W73573   3.158  12.713   1.388
 5356W        W73574  18.742  31.943   3.602
 5357W        W73575   5.901  27.694   3.336
 5358W        W73576  13.132  31.461  13.788
 5359W        W73577  11.177  11.984  14.036
 5360W        W73578  38.624  26.120   0.617
 5361W        W73579  37.584  24.943  13.525
 5362W        W73580  28.593  16.922   4.043
 5363W        W73581  23.216  13.411   1.265
 5364W        W73582   7.276   8.394   2.620
 5365W        W73583  37.835  21.814  13.008
 5366W        W73584   7.391   9.726   1.191
 5367W        W73585  39.142   4.405  12.651
 5368W        W73586  28.716  29.932   2.301
 5369W        W73587  21.099  15.604   2.321
 5370W        W73588   1.020  10.685  13.299
 5371W        W73589  17.300  13.771   1.410
 5372W        W73590  27.200   4.033   4.110
 5373W        W73591   1.800  31.401   2.350
 5374W        W73592  14.511  12.306   1.469
 5375W        W73593  38.131  11.299  11.975
 5376W        W73594  35.893  41.100  13.007
 5377W        W73595   2.864  40.398   2.662
 5378W        W73596   7.837   3.866   1.231
 5379W        W73597  19.637  31.670   3.943
 5380W        W73598  12.119  25.153   0.912
 5381W        W73599   2.973  30.165  12.166
 5382W        W73600   0.970   8.996  14.914
 5383W        W73601  37.134  25.742  11.943
 5384W        W73602  40.380  30.916   4.064
 5385W        W73603  33.408  24.731  11.085
 5386W        W73604   7.927  20.417   4.191
 5387W        W73605   8.656  14.607  14.395
 5388W        W73606  44.708  44.498   0.924
 5389W        W73607  25.642  23.114  11.630
 5390W        W73608  17.228  10.913  10.667
 5391W        W73609   0.440  29.145   2.195
 5392W        W73610  21.395  19.005  14.339
 5393W        W73611  36.107  13.164   0.694
 5394W        W73612   0.256  12.868  11.549
 5395W        W73613  29.353  34.712   2.757
 5396W        W73614  21.404   9.141   0.898
 5397W        W73615  38.796  20.225   2.202
 5398W        W73616  22.667  10.289  13.598
 5399W        W73617  14.374   4.359  11.915
 5400W        W73618  32.343  36.855  13.837
 5401W        W73619  13.845  42.424  10.280
 5402W        W73620  25.009   7.922   3.766
 5403W        W73621   7.120  42.910   3.146
 5404W        W73622  34.013  20.011   2.603
 5405W        W73623  43.296  15.440   0.439
 5406W        W73624   0.706  18.083  11.793
 5407W        W73625  23.923  41.787   2.674
 5408W        W73626  27.131   1.905  14.978
 5409W        W73627   0.786   6.141   0.875
 5410W        W73628  41.887  13.771   4.258
 5411W        W73629  17.161  44.686  11.061
 5412W        W73630  27.364  33.872   3.202
 5413W        W73631   9.531   8.887  10.394
 5414W        W73632  11.044  34.808   1.697
 5415W        W73633  39.010  17.038   4.138
 5416W        W73634  40.355  21.303  13.927
 5417W        W73635  15.473  22.080   4.381
 5418W        W73636  24.668  40.940   3.682
 5419W        W73637  18.277   5.158  13.643
 5420W        W73638  26.622   6.014  14.555
 5421W        W73639  33.154  22.826   1.001
 5422W        W73640  43.574  15.667  12.397
 5423W        W73641  27.090  19.256   1.895
 5424W        W73642  42.803   3.390  10.752
 5425W        W73643  33.461  17.025  14.001
 5426W        W73644  44.399  15.573   1.899
 5427W        W73645  13.441   9.863   2.958
 5428W        W73646  40.024   8.657  10.763
 5429W        W73647  32.077  29.150   4.704
 5430W        W73648  24.805  11.241   3.305
 5431W        W73649  28.618  18.171   2.644
 5432W        W73650  42.383  40.079   0.135
 5433W        W73651  20.207  43.726  12.560
 5434W        W73652  33.974  35.657   0.121
 5435W        W73653   1.248  16.131  14.342
 5436W        W73654  43.522  11.262  12.162
 5437W        W73655  32.885  20.139   3.819
 5438W        W73656  22.708  31.496   0.503
 5439W        W73657   2.997   2.025  11.992
 5440W        W73658  35.022   4.251  11.567
 5441W        W73659  11.096   4.833  14.135
 5442W        W73660  25.199  38.343   3.255
 5443W        W73661  22.746  20.560   1.793
 5444W        W73662   3.376  17.470   1.783
 5445W        W73663  26.578  31.420  13.451
 5446W        W73664  29.019  17.990  12.702
 5447W        W73665  36.448  29.922   4.179
 5448W        W73666  31.495  30.183  13.771
 5449W        W73667  12.261  43.883   2.179
 5450W        W73668   1.954  28.404  11.152
 5451W        W73669  35.131  35.934  10.245
 5452W        W73670   0.188   4.042  12.198
 5453W        W73671  36.376  39.985  11.262
 5454W        W73672  41.045  42.010  13.922
 5455W        W73673  38.992  27.092   2.591
 5456W        W73674   2.051  29.655   4.514
 5457W        W73675  30.471  39.413   0.029
 5458W        W73676  41.033   3.145   4.969
 5459W        W73677   8.407  31.310  10.579
 5460W        W73678  41.173   5.908  11.418
 5461W        W73679  27.236  18.194   0.885
 5462W        W73680   2.198   8.003  11.187
 5463W        W73681   3.891   1.301  14.018
 5464W        W73682   4.860  26.205   3.297
 5465W        W73683  12.936   9.091  13.450
 5466W        W73684  21.041   0.414   4.004
 5467W        W73685  12.600  40.728   0.749
 5468W        W73686  22.066  43.489   3.272
 5469W        W73687  24.033  30.980   3.659
 5470W        W73688  42.696  11.153   2.647
 5471W        W73689  28.906   9.677  14.830
 5472W        W73690   8.960  29.515   0.219
 5473W        W73691  32.832  22.650   2.892
 5474W        W73692  11.312  12.416   3.865
 5475W        W73693  12.903  22.533  11.553
 5476W        W73694  34.758  20.260  12.930
 5477W        W73695  24.237  13.175   1.190
 5478W        W73696   3.627  41.742   0.872
 5479W        W73697  37.369  10.673   4.675
 5480W        W73698  39.894  37.942  10.665
 5481W        W73699   2.443  39.704   4.069
 5482W        W73700   1.420  21.589   2.765
 5483W        W73701  39.230  12.583  14.132
 5484W        W73702  41.191  25.205  12.756
 5485W        W73703  28.530   2.819   1.903
 5486W        W73704  39.051  40.316  12.427
 5487W        W73705   5.975  43.305   0.630
 5488W        W73706  15.195  32.684  14.666
 5489W        W73707  32.528  13.214  14.883
 5490W        W73708  38.247   0.413  14.445
 5491W        W73709  30.189  41.897   3.852
 5492W        W73710   0.360   2.487  10.802
 5493W        W73711  41.913  29.573   1.411
 5494W        W73712  31.158  41.833   0.395
 5495W        W73713  28.689  20.783   2.263
 5496W        W73714  38.997  41.357   5.262
 5497W        W73715   5.403  33.535   1.797
 5498W        W73716  28.411  36.069  10.170
 5499W        W73717  26.021  15.502  12.584
 5500W        W73718  15.127  22.119  10.798
 5501W        W73719  34.568  12.925   3.555
 5502W        W73720  11.398  44.710  13.807
 5503W        W73721  14.003  25.153   4.284
 5504W        W73722  17.259  18.101  10.546
 5505W        W73723  31.502  40.000  13.915
 5506W        W73724   2.398  11.281  12.109
 5507W        W73725  36.484  13.917  13.479
 5508W        W73726  34.020  38.486   0.683
 5509W        W73727  22.071   8.437   2.184
 5510W        W73728  25.932  38.298  11.024
 5511W        W73729   6.794  41.369  11.616
 5512W        W73730  11.341  18.316   2.654
 5513W        W73731   4.758  41.547  12.612
 5514W        W73732  38.152  37.525   1.983
 5515W        W73733   4.686  17.127   4.578
 5516W        W73734   8.430  23.032  13.661
 5517W        W73735   4.741   3.250   4.705
 5518W        W73736  35.993  35.789   3.602
 5519W        W73737  38.774  10.433   2.307
 5520W        W73738  32.893  19.556  14.800
 5521W        W73739   2.785   1.717   3.188
 5522W        W73740  24.202  30.130  13.868
 5523W        W73741  33.086  17.364  11.158
 5524W        W73742   0.914  43.890  11.969
 5525W        W73743  19.728   9.102  14.023
 5526W        W73744  32.009   3.941   3.656
 5527W        W73745   9.386   4.710  11.611
 5528W        W73746  16.052  17.162   0.653
 5529W        W73747  19.502  35.855  11.117
 5530W        W73748  40.281  22.459   4.190
 5531W        W73749  29.627  12.642   2.279
 5532W        W73750  18.697   6.174  14.346
 5533W        W73751  19.060   9.404   4.538
 5534W        W73752   9.799  34.085  10.572
 5535W        W73753  27.606  13.555  14.472
 5536W        W73754   4.114  42.354   1.832
 5537W        W73755  29.211  40.447   2.308
 5538W        W73756   9.447  35.092  12.004
 5539W        W73757  44.602  36.484  14.375
 5540W        W73758  16.304  43.398   1.675
 5541W        W73759  19.825  27.031  14.867
 5542W        W73760  17.836  33.442  11.822
 5543W        W73761  23.230  19.820   3.606
 5544W        W73762  44.194  24.776  13.863
 5545W        W73763   8.455  16.828  10.301
 5546W        W73764  41.102  29.446   2.200
 5547W        W73765  12.693  11.896  10.983
 5548W        W73766  28.999  44.828  13.073
 5549W        W73767   3.445  11.643  13.063
 5550W        W73768  11.860  22.927   2.152
 5551W        W73769   2.293  34.458  12.600
 5552W        W73770  25.542  44.526   3.749
 5553W        W73771   8.902  34.444   3.361
 5554W        W73772  36.672  13.157   1.286
 5555W        W73773   7.649  26.096   2.147
 5556W        W73774  23.222  44.504   0.312
 5557W        W73775  36.040   9.321   1.355
 5558W        W73776   8.119  28.956  12.399
 5559W        W73777  15.567  14.910  10.762
 5560W        W73778   2.520   3.316   0.767
 5561W        W73779  23.288  44.824   4.139
 5562W        W73780  13.627  10.463   2.272
 5563W        W73781  37.856  18.230  14.716
 5564W        W73782  36.907   4.766   3.161
 5565W        W73783  39.113  30.593  12.938
 5566W        W73784  17.992   4.184   0.261
 5567W        W73785  16.268  22.243   1.241
 5568W        W73786  16.698  24.893   4.243
 5569W        W73787   7.879  11.277  14.494
 5570W        W73788  29.727  26.482  14.170
 5571W        W73789   9.497  15.409  12.995
 5572W        W73790  44.293   4.334   3.585
 5573W        W73791  11.215  37.095  10.632
 5574W        W73792  11.833  40.578   3.782
 5575W        W73793  13.351  41.446   0.722
 5576W        W73794  43.171  25.174  14.960
 5577W        W73795  18.052  26.493   2.327
 5578W        W73796  11.329  26.162  13.558
 5579W        W73797  27.483  35.341  11.097
 5580W        W73798   8.257  40.834   0.575
 5581W        W73799  38.765   7.099   2.774
 5582W        W73800  18.288  38.484   2.763
 5583W        W73801   1.165  13.179   1.891
 5584W        W73802  24.003   5.837  11.905
 5585W        W73803  29.007  27.430   0.434
 5586W        W73804  11.653  30.975  12.824
 5587W        W73805  22.141  16.226   4.100
 5588W        W73806   2.845  38.411   0.414
 5589W        W73807   4.340  18.831   1.405
 5590W        W73808  40.401  14.570   1.419
 5591W        W73809  28.791   0.928   3.062
 5592W        W73810  20.691   8.742  14.265
 5593W        W73811  42.490  31.529   4.318
 5594W        W73812  29.993  37.793  11.208
 5595W        W73813   0.657  30.369   4.396
 5596W        W73814   4.023  15.391  12.464
 5597W        W73815  27.651   2.715  11.555
 5598W        W73816  40.207  23.016   0.437
 5599W        W73817  30.109  11.961   0.315
 5600W        W73818  28.342  25.924  12.075
 5601W        W73819  43.304  37.491   0.015
 5602W        W73820  17.438  25.103  12.996
 5603W        W73821  30.683  27.020  12.489
 5604W        W73822  37.686  29.012   4.628
 5605W        W73823  13.836  21.696  10.994
 5606W        W73824  14.176  43.362  13.060
 5607W        W73825  23.597  39.381  12.683
 5608W        W73826  34.509   0.338  11.855
 5609W        W73827  21.552  16.979   4.282
 5610W        W73828  13.025   7.860  14.471
 5611W        W73829  17.215  10.102   1.227
 5612W        W73830  31.993  21.701  11.461
 5613W        W73831   7.882   1.485  14.862
 5614W        W73832  15.036  33.645   1.364
 5615W        W73833   3.971  30.569   9.878
 5616W        W73834  29.103  36.826  14.466
 5617W        W73835  32.012  38.081  12.066
 5618W        W73836   3.189   1.005  11.046
 5619W        W73837   4.313   9.148   1.694
 5620W        W73838   1.304  13.428   5.096
 5621W        W73839  30.723  38.072   1.750
 5622W        W73840  36.434   6.795   4.112
 5623W        W73841  10.310  43.071  11.488
 5624W        W73842  19.031  24.041  13.947
 5625W        W73843  41.297  22.469   2.676
 5626W        W73844  17.272  18.264   0.597
 5627W        W73845  43.887   1.830  14.101
 5628W        W73846  13.050  19.432  12.247
 5629W        W73847  31.534  35.353  14.917
 5630W        W73848  25.165   9.226   3.347
 5631W        W73849  16.606  28.072  13.841
 5632W        W73850  35.848  16.776  10.991
 5633W        W73851  21.083  31.907   1.461
 5634W        W73852  27.944   3.362  12.454
 5635W        W73853   2.294  20.539  14.063
 5636W        W73854   8.753  24.127   0.977
 5637W        W73855   3.034  42.034  11.239
 5638W        W73856  24.129  28.977  14.362
 5639W        W73857  24.799  24.658  11.619
 5640W        W73858  31.505   3.951  11.695
 5641W        W73859  18.044  40.175   4.696
 5642W        W73860  24.098  44.712   0.734
 5643W        W73861  27.960  17.925   1.294
 5644W        W73862  15.610  18.834  12.312
 5645W        W73863  41.360   3.690   3.643
 5646W        W73864  18.972  26.699  12.573
 5647W        W73865  25.174  39.533  12.696
 5648W        W73866  38.509  13.111   2.877
 5649W        W73867  21.596   1.694   0.877
 5650W        W73868  21.608  24.471   0.210
 5651W        W73869  44.553  30.620   2.297
 5652W        W73870  35.586   1.173  14.016
 5653W        W73871  11.649   6.159  12.485
 5654W        W73872  42.836  37.593  14.767
 5655W        W73873  37.688   3.861   4.126
 5656W        W73874  13.622   6.653   0.020
 5657W        W73875  41.267   6.587  12.056
 5658W        W73876  29.956   7.573   4.871
 5659W        W73877  10.664  39.433  10.489
 5660W        W73878  40.060  31.109  11.892
 5661W        W73879  12.276  12.744  10.504
 5662W        W73880  30.466  15.672   2.835
 5663W        W73881  42.170  24.367  11.062
 5664W        W73882  36.294  29.614   0.816
 5665W        W73883  14.780   3.799   4.751
 5666W        W73884  33.177  39.584   0.299
 5667W        W73885   1.006  35.080   2.271
 5668W        W73886   6.539  23.005  10.620
 5669W        W73887   7.326  37.843  12.491
 5670W        W73888  12.186   9.713  11.358
 5671W        W73889  42.861  41.263  10.700
 5672W        W73890   1.664   8.313   3.122
 5673W        W73891  40.785  44.313   2.867
 5674W        W73892  34.932  19.268  12.118
 5675W        W73893   9.313   8.419   4.490
 5676W        W73894  27.506  14.872  11.554
 5677W        W73895  23.112  15.056  14.670
 5678W        W73896   7.941  23.589   2.812
 5679W        W73897  26.691  44.270  12.465
 5680W        W73898  34.611   8.677  12.616
 5681W        W73899   5.874  29.285  12.370
 5682W        W73900  33.087   8.733   2.650
 5683W        W73901  26.389  32.025   4.134
 5684W        W73902   9.119  19.027  11.979
 5685W        W73903  12.153  10.560   4.857
 5686W        W73904  16.762   0.744  12.379
 5687W        W73905   0.303  11.949  11.597
 5688W        W73906  20.173  15.514   4.625
 5689W        W73907   5.792  15.044   2.408
 5690W        W73908  13.001  13.279   0.384
 5691W        W73909  37.003  26.069  12.987
 5692W        W73910  11.316  41.809  13.083
 5693W        W73911  40.427  18.063   4.078
 5694W        W73912  14.078  17.300   3.162
 5695W        W73913   8.552  24.431  11.860
 5696W        W73914  44.001   6.290  14.020
 5697W        W73915  26.508   1.335  13.442
 5698W        W73916  25.089  14.881   2.969
 5699W        W73917   4.736   4.961  13.850
 5700W        W73918  28.113  31.737   3.645
 5701W        W73919  37.599  14.563   4.747
 5702W        W73920  35.572   7.141   1.814
 5703W        W73921  25.053  35.319  12.877
 5704W        W73922  29.599  11.857   0.449
 5705W        W73923  10.806   2.837  10.623
 5706W        W73924  10.968  31.194  11.564
 5707W        W73925  36.376  29.193  12.922
 5708W        W73926  28.369  37.002  11.201
 5709W        W73927  34.938   6.231   2.389
 5710W        W73928  39.145  11.811  14.651
 5711W        W73929  27.756  21.748   1.506
 5712W        W73930  30.515  23.396  12.469
 5713W        W73931  22.785  14.517  14.405
 5714W        W73932  35.943  40.111   3.672
 5715W        W73933  11.787  34.822  13.011
 5716W        W73934   3.857  23.607   4.099
 5717W        W73935  31.902  40.465  14.575
 5718W        W73936   6.127  20.457  11.854
 5719W        W73937  32.063  35.189   4.657
 5720W        W73938  19.829  38.810   4.697
 5721W        W73939  25.666   4.692   4.212
 5722W        W73940  21.754   4.338  11.145
 5723W        W73941  41.444  13.525   3.466
 5724W        W73942  39.413  26.579   0.480
 5725W        W73943  29.445   0.007   1.221
 5726W        W73944   9.130  38.838  13.942
 5727W        W73945  23.747  35.969   3.128
 5728W        W73946   6.229  32.659  14.482
 5729W        W73947  15.339  35.612   1.337
 5730W        W73948   2.313  17.826   3.682
 5731W        W73949  28.652  13.129  11.965
 5732W        W73950  43.337  13.391  13.936
 5733W        W73951  44.994  15.989   3.938
 5734W        W73952  33.157  32.531  11.660
 5735W        W73953  38.599  22.228  14.945
 5736W        W73954  35.834  25.585   2.865
 5737W        W73955   8.626  25.554  11.268
 5738W        W73956  41.844  31.126  14.054
 5739W        W73957  43.957  12.565  13.851
 5740W        W73958  13.605  41.904   3.289
 5741W        W73959  15.734  33.028   4.811
 5742W        W73960   8.966  14.742   1.835
 5743W        W73961  41.812   1.016   4.081
 5744W        W73962  37.766  24.816  10.661
 5745W        W73963  24.304  42.524   4.300
 5746W        W73964  24.722  26.983   0.931
 5747W        W73965   7.914   5.687   2.713
 5748W        W73966  39.920  27.260   1.578
 5749W        W73967   3.053   4.959  13.305
 5750W        W73968  24.952  28.199   4.476
 5751W        W73969   0.974  42.421  12.531
 5752W        W73970  21.084  42.961   4.359
 5753W        W73971   4.389  10.011   0.598
 5754W        W73972  15.029  20.074  10.701
 5755W        W73973  16.598  20.447   0.233
 5756W        W73974  11.374  34.932  12.690
 5757W        W73975  42.697   4.695   5.111
 5758W        W73976  43.414  41.913   0.761
 5759W        W73977  41.360  30.456  13.056
 5760W        W73978  20.750  16.684   4.854
 5761W        W73979  39.016  30.169   1.749
 5762W        W73980  25.356  20.024   4.837
 5763W        W73981   9.859   6.353   2.283
 5764W        W73982  19.258  15.583  12.905
 5765W        W73983   9.351  16.650  11.373
 5766W        W73984  40.775  31.624  13.821
 5767W        W73985   9.767  29.595  12.113
 5768W        W73986   6.128  23.625   4.190
 5769W        W73987  42.317   0.039   0.945
 5770W        W73988  37.866  31.526   2.418
 5771W        W73989  36.183  39.497   0.195
 5772W        W73990  12.825  39.450  12.155
 5773W        W73991  44.873  11.351   4.913
 5774W        W73992  43.025  27.689  11.615
 5775W        W73993  44.394  13.318  14.055
 5776W        W73994  27.389  31.373  14.282
 5777W        W73995  27.597  25.068   4.746
 5778W        W73996   8.228  39.565  14.617
 5779W        W73997  15.349  40.538   0.873
 5780W        W73998   6.501  39.548  12.177
 5781W        W73999   5.673  17.246   1.851
 5782W        W74000  18.746  37.827   5.182
 5783W        W74001  12.465  39.278   1.337
 5784W        W74002   4.343  10.395  11.520
 5785W        W74003   0.996  36.816   1.532
 5786W        W74004   5.704  24.962   0.711
 5787W        W74005  30.656   8.097  11.590
 5788W        W74006  19.257   4.233  12.102
 5789W        W74007  42.985  18.078  11.141
 5790W        W74008  16.363   1.294  10.725
 5791W        W74009  24.874   4.735   0.367
 5792W        W74010  43.737  25.399   2.032
 5793W        W74011  31.166   0.582   3.065
 5794W        W74012  19.699  21.029  13.881
 5795W        W74013   9.144  29.436  14.206
 5796W        W74014   7.758  20.340  12.502
 5797W        W74015   5.452  39.476   3.800
 5798W        W74016   2.834  37.072  13.107
 5799W        W74017  39.947  16.864   1.442
 5800W        W74018   0.540  19.741   0.314
 5801W        W74019   4.983   7.365  11.100
 5802W        W74020   8.735  28.735  12.799
 5803W        W74021  37.820  31.423   1.272
 5804W        W74022  19.092  13.594   0.846
 5805W        W74023  13.569  39.960   2.670
 5806W        W74024  40.409  19.478  14.130
 5807W        W74025  26.003  30.617  13.291
 5808W        W74026  13.318  31.054  13.435
 5809W        W74027  33.210   1.532  12.012
 5810W        W74028  17.201  12.423  11.673
 5811W        W74029   1.284   2.733  13.357
 5812W        W74030   4.605  39.355   0.878
 5813W        W74031  29.381  12.176   2.246
 5814W        W74032  28.020  17.085   5.271
 5815W        W74033   9.709  27.502  12.931
 5816W        W74034  22.941   1.909   0.952
 5817W        W74035   0.779  23.289   0.822
 5818W        W74036   0.895   1.699   2.719
 5819W        W74037  21.540  15.449  11.088
 5820W        W74038  44.399  44.157   2.694
 5821W        W74039   1.124  15.527  11.129
 5822W        W74040  29.650  35.073  11.525
 5823W        W74041  26.283  28.665   2.709
 5824W        W74042  19.656   2.448  13.582
 5825W        W74043   8.989  24.538  13.832
 5826W        W74044   1.889  38.475   2.921
 5827W        W74045  35.074  16.454  12.135
 5828W        W74046  21.368  22.264   3.767
 5829W        W74047  15.825  12.746  10.668
 5830W        W74048   3.994  35.052   2.212
 5831W        W74049  13.127  31.223   0.881
 5832W        W74050  21.075  10.304   3.234
 5833W        W74051  27.986  25.252  13.283
 5834W        W74052  34.117  24.527   3.241
 5835W        W74053  17.763  26.390  13.036
 5836W        W74054  22.673  17.159   3.247
 5837W        W74055  24.248   5.668   1.299
 5838W        W74056  13.514  36.900  14.480
 5839W        W74057   8.986  41.339   0.397
 5840W        W74058  35.364   5.776   4.588
 5841W        W74059  34.730   4.515   2.941
 5842W        W74060  25.261  34.848  12.884
 5843W        W74061   8.845   2.647   3.381
 5844W        W74062   2.374  12.296   3.884
 5845W        W74063  44.851  36.789   3.525
 5846W        W74064   3.185  22.226   1.985
 5847W        W74065   9.153  20.226  13.799
 5848W        W74066  26.735  13.734  14.757
 5849W        W74067  27.078  43.739   1.718
 5850W        W74068  24.683  30.611   0.550
 5851W        W74069  26.876  26.766   1.342
 5852W        W74070  42.804  20.548  13.935
 5853W        W74071  38.871   4.486   4.621
 5854W        W74072  29.755  39.377  13.830
 5855W        W74073   9.775  15.629  14.601
 5856W        W74074  26.291  36.673   4.889
 5857W        W74075  13.711  20.998   3.397
 5858W        W74076  32.916  23.191  11.530
 5859W        W74077   9.926  34.504  11.445
 5860W        W74078   3.896  13.201  14.991
 5861W        W74079  40.032  28.057  13.496
 5862W        W74080   4.986  19.761  14.902
 5863W        W74081  33.024  36.915   4.722
 5864W        W74082  10.706   4.199  12.976
 5865W        W74083  23.259  14.855  10.815
 5866W        W74084  29.573  31.717   0.034
 5867W        W74085  22.038   1.162   4.105
 5868W        W74086   6.187  16.152   3.162
 5869W        W74087  43.204  32.145  13.869
 5870W        W74088  22.122   1.361  13.354
 5871W        W74089  18.113  23.829   2.827
 5872W        W74090  19.297  39.847   0.707
 5873W        W74091  31.996  31.940   3.712
 5874W        W74092   0.883   5.108  10.978
 5875W        W74093  38.890  25.918  12.585
 5876W        W74094  18.630  18.483  13.039
 5877W        W74095  22.626   4.774   3.788
 5878W        W74096  26.792  24.490   2.328
 5879W        W74097  28.201   8.425   5.042
 5880W        W74098   3.020  10.275   4.546
 5881W        W74099  40.087  29.619   4.005
 5882W        W74100  37.319   6.882  11.161
 5883W        W74101  24.079   2.946  14.459
 5884W        W74102  17.227  39.524  11.982
 5885W        W74103   2.011  22.584   1.204
 5886W        W74104  40.602  37.739   1.861
 5887W        W74105  20.448   0.488   3.388
 5888W        W74106  41.949  32.643  14.965
 5889W        W74107  25.608  41.303   2.466
 5890W        W74108  23.562   6.303   0.670
 5891W        W74109  30.205  17.753   4.109
 5892W        W74110  39.114  13.365   4.632
 5893W        W74111  15.947  20.675  11.153
 5894W        W74112   8.139  23.505   0.424
 5895W        W74113  26.518  30.323   2.715
 5896W        W74114  34.896  34.342  11.505
 5897W        W74115  22.627  16.623  14.958
 5898W        W74116   8.919  30.994  13.550
 5899W        W74117  24.171  34.429   1.852
 5900W        W74118  30.499   4.202   0.390
 5901W        W74119  11.330  22.898  12.544
 5902W        W74120  28.575  10.576  11.522
 5903W        W74121   1.506  22.227  11.609
 5904W        W74122  20.758  16.730   3.025
 5905W        W74123  17.503   5.715   3.672
 5906W        W74124  23.197  41.553   1.722
 5907W        W74125   2.895  10.154   2.156
 5908W        W74126   3.703  42.899  10.649
 5909W        W74127  18.720  11.815   3.774
 5910W        W74128   9.687  35.040  11.531
 5911W        W74129   9.347  13.666  11.535
 5912W        W74130   8.810  22.530   3.132
 5913W        W74131  21.408  19.079   2.888
 5914W        W74132  44.997  41.615   3.683
 5915W        W74133  19.246  24.757  10.761
 5916W        W74134  20.926   3.124  13.259
 5917W        W74135  35.919   5.115  11.508
 5918W        W74136   3.223  18.833   4.240
 5919W        W74137  29.737  24.795   4.977
 5920W        W74138  38.022  39.035  14.019
 5921W        W74139  17.858  36.184   9.998
 5922W        W74140  14.874  25.096   2.307
 5923W        W74141   1.981   1.525   3.842
 5924W        W74142   5.495   9.782   4.513
 5925W        W74143  31.023  43.582   2.171
 5926W        W74144   0.359   8.737   3.802
 5927W        W74145   8.219  14.209  13.389
 5928W        W74146   0.760  24.587   0.360
 5929W        W74147   7.783  16.847  12.959
 5930W        W74148  10.262  26.959  11.929
 5931W        W74149  37.962  44.119   1.235
 5932W        W74150   3.809  37.920  14.460
 5933W        W74151  20.620  34.812   2.266
 5934W        W74152  38.902  11.371  14.756
 5935W        W74153  15.729  28.206   1.810
 5936W        W74154   6.136  43.808   2.650
 5937W        W74155   7.196   1.928   4.838
 5938W        W74156  31.008  36.155   0.579
 5939W        W74157  28.749  14.140  13.205
 5940W        W74158  20.647  29.916   0.052
 5941W        W74159  42.538   9.658   3.535
 5942W        W74160   1.770  22.785  13.290
 5943W        W74161  14.765  28.081   2.290
 5944W        W74162   1.800  31.966   3.550
 5945W        W74163  28.022  42.495  11.479
 5946W        W74164   8.832  41.133   5.204
 5947W        W74165  31.063  11.978   2.646
 5948W        W74166  27.059   1.728  13.474
 5949W        W74167   2.122  33.465  12.218
 5950W        W74168  31.907  44.366  14.574
 5951W        W74169  42.511  41.047   4.236
 5952W        W74170  29.223  15.848   2.294
 5953W        W74171  32.014  17.990   0.672
 5954W        W74172  36.140  10.358  10.681
 5955W        W74173   6.314  31.555   3.150
 5956W        W74174  12.676  19.044  13.944
 5957W        W74175   9.587  40.854  10.183
 5958W        W74176  32.966  19.269   4.599
 5959W        W74177  39.241  38.506  13.813
 5960W        W74178   0.393  25.606  14.481
 5961W        W74179  30.480  23.313  11.217
 5962W        W74180  38.385  34.942   1.135
 5963W        W74181   0.161  33.428  12.807
 5964W        W74182  38.313  23.843   4.009
 5965W        W74183  34.735  26.721   4.951
 5966W        W74184  23.123  15.098   2.255
 5967W        W74185  31.261  27.647   1.765
 5968W        W74186  29.080  26.715   2.461
 5969W        W74187   7.134  12.290   3.705
 5970W        W74188  17.659  12.808   3.315
 5971W        W74189  20.515  16.773  13.939
 5972W        W74190   2.532  21.147  10.008
 5973W        W74191  16.928  43.108   3.619
 5974W        W74192  26.553  12.339  11.645
 5975W        W74193   6.446  15.383   1.386
 5976W        W74194  18.014  28.499   1.299
 5977W        W74195   8.991  24.819   4.081
 5978W        W74196  30.099  35.942   3.690
 5979W        W74197  15.385   6.702   1.381
 5980W        W74198   8.318   9.845  10.679
 5981W        W74199   6.142  35.803   1.780
 5982W        W74200  40.842   2.677   1.241
 5983W        W74201  15.513   6.931   1.850
 5984W        W74202  12.191   3.146  10.984
 5985W        W74203   3.791   3.944  10.483
 5986W        W74204  21.343  32.629   9.794
 5987W        W74205  25.793  41.302  14.532
 5988W        W74206  27.615  38.694  12.170
 5989W        W74207   2.183   8.887  11.589
 5990W        W74208  32.480  21.756  11.400
 5991W        W74209  35.549  17.527   1.278
 5992W        W74210  24.102  20.746   0.728
 5993W        W74211  36.357   8.065   4.565
 5994W        W74212  37.083  21.581  11.443
 5995W        W74213  22.735  14.840  12.066
 5996W        W74214  13.502  17.208  12.551
 5997W        W74215  25.650  27.200  11.624
 5998W        W74216  37.410   7.865  13.922
 5999W        W74217  12.642  25.960  11.105
 6000W        W74218  15.338   9.221  14.458
 6001W        W74219  25.419   7.294   0.358
 6002W        W74220  23.369  24.362   0.468
 6003W        W74221  34.768  14.432  14.336
 6004W        W74222   4.271  25.488   3.153
 6005W        W74223  41.795  26.191   1.658
 6006W        W74224  25.066  28.011   2.153
 6007W        W74225  28.418  37.635  12.102
 6008W        W74226  25.672   2.275   0.547
 6009W        W74227  37.751   0.071   1.208
 6010W        W74228   7.110  20.707  13.019
 6011W        W74229  13.541  26.026  14.821
 6012W        W74230  29.567  42.979  11.375
 6013W        W74231   7.229   5.907  13.412
 6014W        W74232  21.454  10.637   3.371
 6015W        W74233  16.832  27.954   4.619
 6016W        W74234  17.519   9.755   1.942
 6017W        W74235   9.391  37.897  13.028
 6018W        W74236  38.768  14.082  11.413
 6019W        W74237   9.792  20.514  13.982
 6020W        W74238   6.976  25.190  12.595
 6021W        W74239  42.264  23.642  14.781
 6022W        W74240   2.268  42.603  12.080
 6023W        W74241  26.709  44.906  11.505
 6024W        W74242  22.113  25.587   4.343
 6025W        W74243  17.999  41.451  11.531
 6026W        W74244  31.969  40.318  14.073
 6027W        W74245  21.800   7.769  11.623
 6028W        W74246   6.751  31.970   0.657
 6029W        W74247   5.866  36.961  14.865
 6030W        W74248   1.361   0.877   2.838
 6031W        W74249  14.310  28.768  10.768
 6032W        W74250   7.278  43.734   1.702
 6033W        W74251  12.162  26.139   3.591
 6034W        W74252   1.811   4.441  13.275
 6035W        W74253  12.302  38.531  11.875
 6036W        W74254  26.915  38.331   2.258
 6037W        W74255  16.672  22.480   0.969
 6038W        W74256  29.936  32.248  14.487
 6039W        W74257   2.456   1.681   2.221
 6040W        W74258  39.812  28.200  14.792
 6041W        W74259  43.908   1.491   1.769
 6042W        W74260   0.374   7.447  11.074
 6043W        W74261  15.912  11.202  10.562
 6044W        W74262  18.680   5.830  14.741
 6045W        W74263  27.894   3.153   0.859
 6046W        W74264   3.699   2.452  11.935
 6047W        W74265  39.832   8.913  11.151
 6048W        W74266   3.942  26.265  14.928
 6049W        W74267   5.124  23.294  11.042
 6050W        W74268  37.994  21.655   1.593
 6051W        W74269   8.402   0.470   0.885
 6052W        W74270  12.725  26.512  14.846
 6053W        W74271   0.117   5.569   0.852
 6054W        W74272   0.335  33.032  11.984
 6055W        W74273  26.619   9.356   4.583
 6056W        W74274  16.178  15.119  14.800
 6057W        W74275  10.235  29.828  12.072
 6058W        W74276  18.852  11.664  14.663
 6059W        W74277  30.380  44.277  14.348
 6060W        W74278   7.600  13.072   0.846
 6061W        W74279  40.868   7.740  11.164
 6062W        W74280  34.022   6.481  10.710
 6063W        W74281   2.959   0.824  13.968
 6064W        W74282   1.034  39.771  11.278
 6065W        W74283  44.692  40.459   1.809
 6066W        W74284  39.830  26.576  10.812
 6067W        W74285  38.645  19.973  12.504
 6068W        W74286  27.035  44.791  13.122
 6069W        W74287   5.886   7.949   2.875
 6070W        W74288  23.700  31.077  11.582
 6071W        W74289  24.425  37.595  13.851
 6072W        W74290  10.800  18.586  10.264
 6073W        W74291  11.610   7.951  10.602
 6074W        W74292  39.960   0.839  12.508
 6075W        W74293  29.699   1.868   0.945
 6076W        W74294  25.229  39.779   3.621
 6077W        W74295  20.076   6.683   3.212
 6078W        W74296   1.961  30.504  13.800
 6079W        W74297  39.516  13.074  14.982
 6080W        W74298  10.699   8.367   0.613
 6081W        W74299  23.771  17.720   2.725
 6082W        W74300  23.889   6.009  12.375
 6083W        W74301  23.112  34.556  10.395
 6084W        W74302  27.961  36.492  14.837
 6085W        W74303  16.356  14.142   0.783
 6086W        W74304  31.416  20.523   4.241
 6087W        W74305  37.778  41.739   4.160
 6088W        W74306   1.411  19.992  10.632
 6089W        W74307   1.432  42.224  12.418
 6090W        W74308  13.859   3.311  13.016
 6091W        W74309  18.222  17.663  11.396
 6092W        W74310  40.662  32.035  12.897
 6093W        W74311  37.030  35.276  12.940
 6094W        W74312  25.665   2.187   1.057
 6095W        W74313  41.398  26.202   0.685
 6096W        W74314  11.648   6.243   1.900
 6097W        W74315  39.572  18.678  10.632
 6098W        W74316  16.678  12.355   1.266
 6099W        W74317  38.149  22.440   2.164
 6100W        W74318   6.535  18.358   3.199
 6101W        W74319  22.218  43.590  10.772
 6102W        W74320  35.113  10.175   4.506
 6103W        W74321  40.169   6.455   0.313
 6104W        W74322   8.409  29.670  12.469
 6105W        W74323  14.291  37.959  13.833
 6106W        W74324  31.039  21.243   4.467
 6107W        W74325  43.895  10.290  14.035
 6108W        W74326   9.759  31.954  11.532
 6109W        W74327  42.943  39.623  11.512
 6110W        W74328  32.521  24.906   3.791
 6111W        W74329  24.646   8.889  10.404
 6112W        W74330  36.379  28.004   2.242
 6113W        W74331  39.545  21.860   2.194
 6114W        W74332   2.675  13.829   2.479
 6115W        W74333  17.159  10.411   0.172
 6116W        W74334  21.696  20.786  11.922
 6117W        W74335  22.882   1.492   0.303
 6118W        W74336   0.703  41.253   4.114
 6119W        W74337  20.983  19.084   0.670
 6120W        W74338   8.843  27.707  12.617
 6121W        W74339  23.290  24.025   1.468
 6122W        W74340  18.645   2.541   0.413
 6123W        W74341   7.436  41.933   2.001
 6124W        W74342  16.985   4.387  12.276
 6125W        W74343  10.828  26.100  11.135
 6126W        W74344  19.616  17.159  10.492
 6127W        W74345  43.285  13.132   2.507
 6128W        W74346  24.464  11.180  14.295
 6129W        W74347  42.335   7.666  13.155
 6130W        W74348  33.437   1.785   3.514
 6131W        W74349  33.723  27.182   4.058
 6132W        W74350  33.696  15.827   3.265
 6133W        W74351  24.951   6.388   1.162
 6134W        W74352  34.091  39.568   0.433
 6135W        W74353  31.036  23.179   3.561
 6136W        W74354  38.826  30.161  14.280
 6137W        W74355  32.861   4.544   3.656
 6138W        W74356   4.914  20.193  10.862
 6139W        W74357  32.257  39.109  14.826
 6140W        W74358  25.998   2.664  10.668
 6141W        W74359   8.767  22.077   2.821
 6142W        W74360  25.715  15.681  10.686
 6143W        W74361  32.904  11.410   4.040
 6144W        W74362  18.133  15.257   5.497
 6145W        W74363  20.800   7.766   0.738
 6146W        W74364  31.149  16.550   1.466
 6147W        W74365  19.537  27.457   1.855
 6148W        W74366  27.962  36.128  13.492
 6149W        W74367  32.865  27.299   2.666
 6150W        W74368  30.851  22.112  12.912
 6151W        W74369  13.240  10.067  14.017
 6152W        W74370  34.404  11.631   3.079
 6153W        W74371  32.012  18.760  11.519
 6154W        W74372  19.804  25.966  14.433
 6155W        W74373  26.139  28.739  13.620
 6156W        W74374   9.366  39.924  12.380
 6157W        W74375   9.765  20.809   1.305
 6158W        W74376   4.725   6.127   4.214
 6159W        W74377   6.232  32.634   2.812
 6160W        W74378  21.336  23.825   1.800
 6161W        W74379  19.536  22.450   3.775
 6162W        W74380  40.802  35.065   3.354
 6163W        W74381  35.005  13.933   0.402
 6164W        W74382   1.887  12.504   3.804
 6165W        W74383  14.523  14.796   4.880
 6166W        W74384  22.468  31.011   0.184
 6167W        W74385   6.112  28.169  10.957
 6168W        W74386  42.867  12.769   1.883
 6169W        W74387  26.089  33.550   1.898
 6170W        W74388  11.665  37.819  12.605
 6171W        W74389  20.518  34.035   3.319
 6172W        W74390  25.961   3.815   3.340
 6173W        W74391   2.260  37.695   4.090
 6174W        W74392   9.814  13.647   0.346
 6175W        W74393  32.385  17.251   1.798
 6176W        W74394  30.624  20.303  13.943
 6177W        W74395  31.895   9.779   2.832
 6178W        W74396  40.802  24.616   3.136
 6179W        W74397  31.220  10.885  14.889
 6180W        W74398  11.089  44.018   0.932
 6181W        W74399  11.210  15.890   2.370
 6182W        W74400  30.076  24.600   0.387
 6183W        W74401  13.867  41.269  14.421
 6184W        W74402   8.678  16.689   4.248
 6185W        W74403  41.210  26.184  14.155
 6186W        W74404  21.199  24.748  11.589
 6187W        W74405  27.919  11.618   0.933
 6188W        W74406  42.489  24.096  14.739
 6189W        W74407  26.005   0.833  13.797
 6190W        W74408  18.312  21.079   4.495
 6191W        W74409  10.721   1.995   1.671
 6192W        W74410   2.894  37.606   4.726
 6193W        W74411  43.714   1.439  12.214
 6194W        W74412  44.551  20.712   2.358
 6195W        W74413  28.891   8.806   3.641
 6196W        W74414  37.874  14.110   4.690
 6197W        W74415  42.771   4.255  11.055
 6198W        W74416  17.308  42.465   0.871
 6199W        W74417  29.666  35.132   2.718
 6200W        W74418  26.299  22.452  11.983
 6201W        W74419  24.572  16.240   1.261
 6202W        W74420  33.665  19.690  11.371
 6203W        W74421  21.872  17.652   0.694
 6204W        W74422  31.383  18.809   3.403
 6205W        W74423  15.533  42.562  14.324
 6206W        W74424  39.369  17.819  14.869
 6207W        W74425  12.234  34.025   4.882
 6208W        W74426   3.222  27.754  14.373
 6209W        W74427  34.947  13.688  13.302
 6210W        W74428  10.926  28.238   4.007
 6211W        W74429   8.341   9.262   2.365
 6212W        W74430  39.116  15.648  12.610
 6213W        W74431   4.793  12.356   4.532
 6214W        W74432  29.474  41.192  10.408
 6215W        W74433  25.560   0.566  10.939
 6216W        W74434  33.628  15.334   4.405
 6217W        W74435  38.898  31.170  10.692
 6218W        W74436  23.532  39.912  12.824
 6219W        W74437  27.683  33.929   0.000
 6220W        W74438   7.708   7.392  12.498
 6221W        W74439  17.249  26.131  13.023
 6222W        W74440  35.195   5.352   2.337
 6223W        W74441  39.480  29.740   2.765
 6224W        W74442  18.357  29.131  10.748
 6225W        W74443   7.776  38.465   0.097
 6226W        W74444  29.902  33.968  13.061
 6227W        W74445  38.882  31.472  11.474
 6228W        W74446  39.601   9.287   0.428
 6229W        W74447  43.922  41.010   4.397
 6230W        W74448  40.642  32.403   3.786
 6231W        W74449  32.526  10.316  14.023
 6232W        W74450  14.083  28.522   1.168
 6233W        W74451  33.527   5.779  12.226
 6234W        W74452  25.619   2.930  14.722
 6235W        W74453  19.761  40.855   2.384
 6236W        W74454  25.050  33.649  12.881
 6237W        W74455  23.412  21.931  11.439
 6238W        W74456  27.561  16.604   3.617
 6239W        W74457   8.381  13.085  12.814
 6240W        W74458   5.993   9.424   2.808
 6241W        W74459   8.155  26.942   2.215
 6242W        W74460  15.803  27.102  14.267
 6243W        W74461  20.590  28.377  11.140
 6244W        W74462   9.428  14.682  11.722
 6245W        W74463  17.880  12.045   0.824
 6246W        W74464  28.598   3.506  11.172
 6247W        W74465  23.655  13.603  12.522
 6248W        W74466  34.906   7.408   1.141
 6249W        W74467  28.710   3.217   2.683
 6250W        W74468  19.266   7.945   0.818
 6251W        W74469  19.633  30.677  14.486
 6252W        W74470  32.667  13.363   1.455
 6253W        W74471  32.451  35.162  11.176
 6254W        W74472  14.553  35.100  14.887
 6255W        W74473   9.730  36.186   2.212
 6256W        W74474  27.167  44.247   4.272
 6257W        W74475  25.959  27.994  14.885
 6258W        W74476  33.067  30.807   5.416
 6259W        W74477  44.950  11.947  12.012
 6260W        W74478  13.669  15.567   1.337
 6261W        W74479  44.712  15.350   0.363
 6262W        W74480  33.888  11.214   4.901
 6263W        W74481  30.167  21.228   0.789
 6264W        W74482   7.164   9.149   2.180
 6265W        W74483  15.058  37.561  14.045
 6266W        W74484  29.582  33.987  12.490
 6267W        W74485  23.950  38.892   0.984
 6268W        W74486  36.085  18.992  12.355
 6269W        W74487  36.142   6.427  14.413
 6270W        W74488  32.051  27.461  10.812
 6271W        W74489  17.238  38.833   1.336
 6272W        W74490  22.295  26.747  10.422
 6273W        W74491   7.934   3.651   3.302
 6274W        W74492   2.725  42.852   4.758
 6275W        W74493   6.174   1.965   3.156
 6276W        W74494  38.847   6.913   3.245
 6277W        W74495  25.268  13.235   0.358
 6278W        W74496   6.998   2.196   2.293
 6279W        W74497  29.882   6.637   1.319
 6280W        W74498  13.520  31.840   4.156
 6281W        W74499  28.324  19.805  12.162
 6282W        W74500  13.154  14.777  14.384
 6283W        W74501  30.112  42.694  14.816
 6284W        W74502   4.725  38.838   0.998
 6285W        W74503   2.168  30.289   2.839
 6286W        W74504   8.207  33.356  14.849
 6287W        W74505   8.576  42.742   1.153
 6288W        W74506  34.122   3.434   4.668
 6289W        W74507   2.131  42.540   2.257
 6290W        W74508  11.358  30.405   1.711
 6291W        W74509   0.332   6.260   4.538
 6292W        W74510  16.189  29.276   0.324
 6293W        W74511  16.559  20.780  12.582
 6294W        W74512  27.132   3.801  11.668
 6295W        W74513  12.107   9.355  14.848
 6296W        W74514  13.014  25.987  13.058
 6297W        W74515  32.784  23.573  12.877
 6298W        W74516  34.639  36.998  12.358
 6299W        W74517  24.539   8.138  11.510
 6300W        W74518   1.393   8.560   0.789
 6301W        W74519  37.984  28.585   1.689
 6302W        W74520  41.060  33.140  12.426
 6303W        W74521  20.483  15.905   4.547
 6304W        W74522  24.074  36.709   4.624
 6305W        W74523   3.855  44.585  11.577
 6306W        W74524  29.214  42.939  11.742
 6307W        W74525  32.874  19.634   0.836
 6308W        W74526  39.964   4.903  14.190
 6309W        W74527  35.032  34.665   2.906
 6310W        W74528  39.796  34.783  13.903
 6311W        W74529  14.414  41.041  10.731
 6312W        W74530  33.213   4.529  10.819
 6313W        W74531  17.573  25.162   2.023
 6314W        W74532  24.580  13.597  11.513
 6315W        W74533  37.005  33.922   4.129
 6316W        W74534  21.196  24.679   3.812
 6317W        W74535  33.019  44.099   0.057
 6318W        W74536   9.298   0.567  11.166
 6319W        W74537  27.705  18.364   1.118
 6320W        W74538  42.247  25.698   4.031
 6321W        W74539  19.014  11.029  14.010
 6322W        W74540   7.337  10.901   1.390
 6323W        W74541  26.717  42.559  12.974
 6324W        W74542   1.006   0.726   3.210
 6325W        W74543  12.733  24.244   1.771
 6326W        W74544  22.295  28.122   2.686
 6327W        W74545   3.069   4.223   1.878
 6328W        W74546   7.675   3.410   1.756
 6329W        W74547  22.412  11.769   4.125
 6330W        W74548  18.675  11.857   2.840
 6331W        W74549  11.780  39.997  11.464
 6332W        W74550  21.538  28.636  12.968
 6333W        W74551  20.846  11.300   3.161
 6334W        W74552  32.017  37.448   2.124
 6335W        W74553  29.643   4.263   3.607
 6336W        W74554   0.790  11.130  14.550
 6337W        W74555  14.844   2.300   3.862
 6338W        W74556  29.037  13.110   0.490
 6339W        W74557   5.219   3.450   4.606
 6340W        W74558  29.397  22.865  13.918
 6341W        W74559  34.696   5.845   0.547
 6342W        W74560  27.459   3.701  10.674
 6343W        W74561  23.435   5.578   0.928
 6344W        W74562  41.509   3.499   1.957
 6345W        W74563   7.319  44.072  14.949
 6346W        W74564   6.824  11.795  12.057
 6347W        W74565  11.545  40.242   1.707
 6348W        W74566  40.363  22.101  14.469
 6349W        W74567  39.523  21.169   0.997
 6350W        W74568   9.454  26.167   2.645
 6351W        W74569  24.162  43.593  10.952
 6352W        W74570   2.442   8.538   0.942
 6353W        W74571  31.494  11.997   3.458
 6354W        W74572   2.832   3.384   2.707
 6355W        W74573  34.326  17.828   2.539
 6356W        W74574  12.240  13.860   0.429
 6357W        W74575  14.608  26.064   2.326
 6358W        W74576   7.098   0.869  13.363
 6359W        W74577  14.536  19.231  10.489
 6360W        W74578  30.725  17.298  12.667
 6361W        W74579  44.104  35.424  10.100
 6362W        W74580  32.748  12.848   1.408
 6363W        W74581  39.461  36.070  14.105
 6364W        W74582  19.939  16.156   1.820
 6365W        W74583   7.879   1.998  14.928
 6366W        W74584   3.703  22.217   4.810
 6367W        W74585   8.457   9.192   3.743
 6368W        W74586   6.711  44.962  13.056
 6369W        W74587   4.737  21.647  12.030
 6370W        W74588  41.768  36.547   2.787
 6371W        W74589   0.251   0.754   4.866
 6372W        W74590  16.455  18.364  11.609
 6373W        W74591  24.742   3.830   2.691
 6374W        W74592  18.220   5.018  13.141
 6375W        W74593   1.556  10.337   4.845
 6376W        W74594  26.000  34.165  12.841
 6377W        W74595   4.198  22.216   4.023
 6378W        W74596  23.798  11.210   2.294
 6379W        W74597  35.984  32.663   0.519
 6380W        W74598  19.829   6.786  11.777
 6381W        W74599   9.366  17.674  12.193
 6382W        W74600   3.715  39.212  11.434
 6383W        W74601  24.021   3.345   3.085
 6384W        W74602   7.123  35.045   2.471
 6385W        W74603  24.721  22.024  13.949
 6386W        W74604  31.734  40.504  10.730
 6387W        W74605  34.525   8.685   1.383
 6388W        W74606  15.269  39.605  11.438
 6389W        W74607  28.977  39.308  13.371
 6390W        W74608  11.397  42.438   3.038
 6391W        W74609  42.750  33.916  13.414
 6392W        W74610  17.271  12.332   4.481
 6393W        W74611  43.814  38.815   0.065
 6394W        W74612  35.538  19.329   3.326
 6395W        W74613  25.983  17.774  12.373
 6396W        W74614  22.124  33.161   2.816
 6397W        W74615  41.940   8.306   0.306
 6398W        W74616  20.252  25.258  12.826
 6399W        W74617  12.366  32.387   0.243
 6400W        W74618  28.499  39.735   0.109
 6401W        W74619  23.771  36.091   0.185
 6402W        W74620   1.787  29.872   2.301
 6403W        W74621  40.548   0.450   5.006
 6404W        W74622  36.389  40.801  13.140
 6405W        W74623  18.669   3.515  12.416
 6406W        W74624  25.391   3.885  10.563
 6407W        W74625   3.122  10.497   0.312
 6408W        W74626   2.388  22.588  14.398
 6409W        W74627   6.657  11.169  14.102
 6410W        W74628  11.202  38.398   3.638
 6411W        W74629  38.595  39.813   4.183
 6412W        W74630  37.349  29.354   0.270
 6413W        W74631  35.082  37.885  13.945
 6414W        W74632  21.212  11.627   2.626
 6415W        W74633  34.081  24.954  13.203
 6416W        W74634  31.445  43.471  11.701
 6417W        W74635  20.518  12.641   0.336
 6418W        W74636  27.627  30.507   4.713
 6419W        W74637  41.078  11.694  11.204
 6420W        W74638  17.702   6.793   3.637
 6421W        W74639   8.345  10.904  10.725
 6422W        W74640  13.643   8.399  14.909
 6423W        W74641  42.076  40.731  10.653
 6424W        W74642  11.310   6.783   1.153
 6425W        W74643  27.436   2.097  13.476
 6426W        W74644  24.946   4.352  12.393
 6427W        W74645  10.158  24.255  11.451
 6428W        W74646  23.114  35.468   2.713
 6429W        W74647  12.849  17.327  13.899
 6430W        W74648  22.122  43.045  12.485
 6431W        W74649  30.039  30.950  12.989
 6432W        W74650  18.166  38.920  13.367
 6433W        W74651   4.171  11.353  11.462
 6434W        W74652  36.291  18.367   4.312
 6435W        W74653  38.325  42.305   0.371
 6436W        W74654  41.319  18.069  13.033
 6437W        W74655  14.703   1.858   1.899
 6438W        W74656   3.763  32.653  14.045
 6439W        W74657  40.804  37.483   9.655
 6440W        W74658  37.733  13.169   2.320
 6441W        W74659  15.713  42.642  11.527
 6442W        W74660  39.780  30.481   4.158
 6443W        W74661  44.042  30.095   2.760
 6444W        W74662  35.285  17.769   1.646
 6445W        W74663  27.133  40.774   0.591
 6446W        W74664  22.689  33.632  12.525
 6447W        W74665  34.203   9.711   4.555
 6448W        W74666  23.638  36.400  11.205
 6449W        W74667  36.513  22.044   2.683
 6450W        W74668   1.238  24.285  11.524
 6451W        W74669   8.297  21.614   4.623
 6452W        W74670  36.626  26.573  11.354
 6453W        W74671  30.418  18.777   3.901
 6454W        W74672  19.679  19.538  14.088
 6455W        W74673  12.819  18.152   2.255
 6456W        W74674  29.474   2.179  12.442
 6457W        W74675  33.457  34.361  12.618
 6458W        W74676   4.764  11.826   3.703
 6459W        W74677  33.199  39.984  11.442
 6460W        W74678  26.194   4.647   1.825
 6461W        W74679  32.071  13.938   0.082
 6462W        W74680  42.055  10.618   4.100
 6463W        W74681   1.039  35.884   0.241
 6464W        W74682  23.697  35.387  14.467
 6465W        W74683  39.719  26.374   3.227
 6466W        W74684  24.079   3.842  14.570
 6467W        W74685  24.663  18.187   2.073
 6468W        W74686  30.169  21.557  12.861
 6469W        W74687  43.034   3.194  14.911
 6470W        W74688   6.717   7.749   4.449
 6471W        W74689  10.828  20.248  10.644
 6472W        W74690  27.043  30.463   2.744
 6473W        W74691   4.783   7.564  14.640
 6474W        W74692  44.168  11.115  12.959
 6475W        W74693  16.725   1.695  11.464
 6476W        W74694  38.940   7.037  11.995
 6477W        W74695   1.748  39.870  13.400
 6478W        W74696  43.792  28.978  12.499
 6479W        W74697  32.754  43.949   4.084
 6480W        W74698  31.544  33.487   2.492
 6481W        W74699  10.911  30.543   4.529
 6482W        W74700   1.434   3.179   2.768
 6483W        W74701  41.502  12.357  10.735
 6484W        W74702  38.021  43.533   1.019
 6485W        W74703   3.693  42.348  11.039
 6486W        W74704  44.052  27.961  11.154
 6487W        W74705  23.778   6.350  11.982
 6488W        W74706   0.412  38.562   2.439
 6489W        W74707   0.223  25.338  13.614
 6490W        W74708  16.643  32.150   4.145
 6491W        W74709  32.855  23.215   0.790
 6492W        W74710  41.912  28.877  12.407
 6493W        W74711  18.101  39.623   4.056
 6494W        W74712  33.037   1.302  13.459
 6495W        W74713  21.303  19.835   4.848
 6496W        W74714  25.249  32.085   0.946
 6497W        W74715  16.989   4.279  12.881
 6498W        W74716  41.112  19.707   0.249
 6499W        W74717   2.470   6.670  11.238
 6500W        W74718  33.343   9.774   1.445
 6501W        W74719  26.066  34.605  14.737
 6502W        W74720  30.819  19.074   4.170
 6503W        W74721  23.383  12.134  10.636
 6504W        W74722  21.928  42.089  12.663
 6505W        W74723  30.581  33.902   3.715
 6506W        W74724  39.728  13.953  12.852
 6507W        W74725  20.741  16.088   4.150
 6508W        W74726  33.351  19.162  14.473
 6509W        W74727  36.142  38.390  14.090
 6510W        W74728  37.459   8.154   3.374
 6511W        W74729   0.008  13.659   0.356
 6512W        W74730   3.285   2.296  10.708
 6513W        W74731  33.989   7.950   2.284
 6514W        W74732  22.247  37.656   3.115
 6515W        W74733   8.785  31.462   3.636
 6516W        W74734   3.150  14.069   0.539
 6517W        W74735  27.732  12.009  11.963
 6518W        W74736  42.931   2.179  14.135
 6519W        W74737  30.538  10.580   0.780
 6520W        W74738  19.616  18.210  10.761
 6521W        W74739  12.885  33.002   4.463
 6522W        W74740  33.990   7.995  13.927
 6523W        W74741  27.148  11.557  12.514
 6524W        W74742   7.435  42.949   2.738
 6525W        W74743   0.658   3.011  11.225
 6526W        W74744   7.784  20.630   1.455
 6527W        W74745  23.833  31.969  11.827
 6528W        W74746   3.009  41.865  12.095
 6529W        W74747  42.575   8.822   1.652
 6530W        W74748  24.696  18.446  14.773
 6531W        W74749  32.137  13.230  14.490
 6532W        W74750  29.397  44.863  12.005
 6533W        W74751  13.225  37.950  13.317
 6534W        W74752  25.632  39.327  13.558
 6535W        W74753   1.381  33.586   1.734
 6536W        W74754  36.461   7.721   4.173
 6537W        W74755  42.929  41.713  11.498
 6538W        W74756   3.814  36.983  11.917
 6539W        W74757  15.764   5.192   2.233
 6540W        W74758   7.367  30.507  14.453
 6541W        W74759  31.985  34.410   1.706
 6542W        W74760   0.594  35.505  12.692
 6543W        W74761  32.387  16.787   0.438
 6544W        W74762  44.582  21.409  10.254
 6545W        W74763  41.406  39.978  12.847
 6546W        W74764   3.673   4.815   2.157
 6547W        W74765  35.496  21.240  13.453
 6548W        W74766  22.446  22.290  12.970
 6549W        W74767  18.286  26.526   2.794
 6550W        W74768   4.369  39.318  12.284
 6551W        W74769   4.466  22.257   2.675
 6552W        W74770  22.942  37.279  11.160
 6553W        W74771  18.055  43.088  10.475
 6554W        W74772  36.044  18.386   2.414
 6555W        W74773   6.441  19.980   2.845
 6556W        W74774  37.371  22.276  14.266
 6557W        W74775  41.507  42.013   1.902
 6558W        W74776   7.181  37.319   4.284
 6559W        W74777  11.879  38.419   3.341
 6560W        W74778  11.931  16.129   3.700
 6561W        W74779  25.675  36.388  10.562
 6562W        W74780   5.006  29.617   4.899
 6563W        W74781  27.554  27.683   3.092
 6564W        W74782  37.096   3.296   0.688
 6565W        W74783  26.728  20.714   9.910
 6566W        W74784  19.646  24.495   0.831
 6567W        W74785  44.194  12.138   4.388
 6568W        W74786  28.424  41.603   3.660
 6569W        W74787  30.961   0.917  11.527
 6570W        W74788  14.119  18.346  12.603
 6571W        W74789   0.977   4.376   2.810
 6572W        W74790   7.913  20.709  11.107
 6573W        W74791  30.881   9.782   0.518
 6574W        W74792   4.482  14.119  14.967
 6575W        W74793   8.761  32.385  13.396
 6576W        W74794  38.597   7.466  13.335
 6577W        W74795  43.033  28.670   4.647
 6578W        W74796  28.753  28.088  12.770
 6579W        W74797  19.050  34.247   4.263
 6580W        W74798  27.947   8.231  11.616
 6581W        W74799  16.593  11.682  13.281
 6582W        W74800   5.284   8.343   0.034
 6583W        W74801  33.790  11.335   4.093
 6584W        W74802  27.974   3.864  14.935
 6585W        W74803  21.978  14.858   3.728
 6586W        W74804  26.543  33.947   3.039
 6587W        W74805  10.149  34.395  10.803
 6588W        W74806  12.434  21.126   4.580
 6589W        W74807  22.605  43.803   0.703
 6590W        W74808  18.512  25.243   2.411
 6591W        W74809  12.883  44.540   3.638
 6592W        W74810  22.506  11.204  12.078
 6593W        W74811  39.161  42.575   1.708
 6594W        W74812   5.265   8.380   2.340
 6595W        W74813  38.039   1.851   4.378
 6596W        W74814  44.331   9.328  14.844
 6597W        W74815  29.021  11.067   3.300
 6598W        W74816  20.334  32.447   2.976
 6599W        W74817  38.287  24.009   0.393
 6600W        W74818  29.128  41.341   1.847
 6601W        W74819  42.326  11.279   4.081
 6602W        W74820   4.206  33.022   2.173
 6603W        W74821  23.233  23.189   4.081
 6604W        W74822  32.519  31.848   2.481
 6605W        W74823  38.349   3.781  14.769
 6606W        W74824  36.870  18.746   2.118
 6607W        W74825  42.556  30.860  10.803
 6608W        W74826  13.183  27.676  11.688
 6609W        W74827  20.445   1.679  10.748
 6610W        W74828  30.631  33.315   4.516
 6611W        W74829   8.299  35.126   4.419
 6612W        W74830  35.150  31.007  14.938
 6613W        W74831  44.439   9.789   4.310
 6614W        W74832  41.286   7.791  11.486
 6615W        W74833  25.148  26.655   1.631
 6616W        W74834  33.525  24.094  12.951
 6617W        W74835  21.045  37.979   1.407
 6618W        W74836   5.006   7.827  14.234
 6619W        W74837  33.146  41.951   3.943
 6620W        W74838  20.090  19.740  11.033
 6621W        W74839  43.260  17.701   1.672
 6622W        W74840  11.367  34.122   2.231
 6623W        W74841  42.827  43.561  10.967
 6624W        W74842   6.004  22.639  11.203
 6625W        W74843  25.190  25.588  11.979
 6626W        W74844  39.906  40.581  11.948
 6627W        W74845  18.190  22.889   3.743
 6628W        W74846  16.168  23.535  14.285
 6629W        W74847  31.799  35.447  13.918
 6630W        W74848  34.669  12.357  11.101
 6631W        W74849  26.503  41.864  11.289
 6632W        W74850  30.395  26.943   1.238
 6633W        W74851   0.859  19.976   2.266
 6634W        W74852   0.739   5.465  14.448
 6635W        W74853  24.666  13.835  13.912
 6636W        W74854  40.338  40.366   4.141
 6637W        W74855  24.642  40.007  14.126
 6638W        W74856  39.087   3.570   4.997
 6639W        W74857  31.083   8.247   3.231
 6640W        W74858  21.654  19.805  13.971
 6641W        W74859  34.144  41.008  14.594
 6642W        W74860   7.830  29.556   3.667
 6643W        W74861  30.559  18.183  14.908
 6644W        W74862  37.125  11.386  11.429
 6645W        W74863   4.435  26.524  12.399
 6646W        W74864  41.681  40.731   2.271
 6647W        W74865  39.585   1.254  13.023
 6648W        W74866  29.730  16.588   0.458
 6649W        W74867  21.143  44.855   0.695
 6650W        W74868  38.543  15.315  12.613
 6651W        W74869   3.917  41.876  11.030
 6652W        W74870  16.215   0.166  12.024
 6653W        W74871   8.269   7.992  13.507
 6654W        W74872  17.568  36.998   3.571
 6655W        W74873   1.466   6.950  13.899
 6656W        W74874  39.757  17.038  13.516
 6657W        W74875  11.226   4.015  11.022
 6658W        W74876  41.450  20.139  10.775
 6659W        W74877  11.279  29.158   2.157
 6660W        W74878  28.249  16.832  10.489
 6661W        W74879  16.619  16.777   1.314
 6662W        W74880  32.136   3.589   4.076
 6663W        W74881  42.678   3.270   0.268
 6664W        W74882  35.875  13.870   0.421
 6665W        W74883  44.835  25.632   3.046
 6666W        W74884  37.454   6.274  14.915
 6667W        W74885  13.416  36.911   3.206
 6668W        W74886  42.499  40.764   3.350
 6669W        W74887   1.879  21.855   2.769
 6670W        W74888  35.072  11.532  12.939
 6671W        W74889   9.468  13.557  13.371
 6672W        W74890  22.510  31.940   0.302
 6673W        W74891  37.027  25.893   0.947
 6674W        W74892  37.552   7.355   4.408
 6675W        W74893  12.883  25.621   3.267
 6676W        W74894   3.230  22.098   3.356
 6677W        W74895  20.613   1.012  14.078
 6678W        W74896  37.305  42.924   4.248
 6679W        W74897  27.394  24.944   1.926
 6680W        W74898  24.694   5.909   4.349
 6681W        W74899  15.555  43.975  14.124
 6682W        W74900  29.402   4.227   0.318
 6683W        W74901  10.328  20.085   0.189
 6684W        W74902  15.103   4.579   2.251
 6685W        W74903  44.330   0.967  13.715
 6686W        W74904  10.630  25.423  10.375
 6687W        W74905  25.559   7.986  14.748
 6688W        W74906  34.778  19.778  10.713
 6689W        W74907  40.066  20.882   2.161
 6690W        W74908  42.532  39.536   1.802
 6691W        W74909  34.953  32.365   3.135
 6692W        W74910  20.611  14.028   1.906
 6693W        W74911  14.503  42.343  12.088
 6694W        W74912  25.623   2.675   0.890
 6695W        W74913  32.018   8.477  11.666
 6696W        W74914  20.991   6.777   3.273
 6697W        W74915  14.308  10.624  12.990
 6698W        W74916  23.490  40.840   1.352
 6699W        W74917   0.989  41.109   0.863
 6700W        W74918   6.559  39.155   9.817
 6701W        W74919   9.742   5.734  11.181
 6702W        W74920  33.931  40.823   1.823
 6703W        W74921  39.607  42.176  11.018
 6704W        W74922  36.377  16.127   3.748
 6705W        W74923  28.228  30.182   2.339
 6706W        W74924  13.638  37.353   1.902
 6707W        W74925  36.841  15.938   1.962
 6708W        W74926  44.757   0.560   1.387
 6709W        W74927  20.014  40.374   0.482
 6710W        W74928  27.467  17.277   2.791
 6711W        W74929  40.193  41.255  12.452
 6712W        W74930  15.175  35.652  14.040
 6713W        W74931  25.007   5.895   3.584
 6714W        W74932  27.592  41.306   0.052
 6715W        W74933   5.961  12.295  14.236
 6716W        W74934  38.423  12.403   2.277
 6717W        W74935  21.150  19.335   4.968
 6718W        W74936   9.621   6.188   4.749
 6719W        W74937  18.023  14.605   1.764
 6720W        W74938   8.172  24.513   4.590
 6721W        W74939  29.761   8.583   3.520
 6722W        W74940  33.182  10.708  12.028
 6723W        W74941  18.130  30.653  11.785
 6724W        W74942  38.265  10.174   2.386
 6725W        W74943  42.758  11.149  13.909
 6726W        W74944  36.994  24.441   0.869
 6727W        W74945  41.173   2.122   4.981
 6728W        W74946  16.675   3.728   2.740
 6729W        W74947  38.580  36.005  14.641
 6730W        W74948  29.273  28.097  12.606
 6731W        W74949  31.383  23.187   4.353
 6732W        W74950   1.909  15.266  10.162
 6733W        W74951  40.542  36.891   1.810
 6734W        W74952   2.687  38.889  13.335
 6735W        W74953  38.901  25.758   4.642
 6736W        W74954  12.143   4.956   0.526
 6737W        W74955   7.993  41.492  12.869
 6738W        W74956  11.577  32.606  14.033
 6739W        W74957  28.818  21.778  12.128
 6740W        W74958  43.895  21.541   2.580
 6741W        W74959  17.110  33.068  11.851
 6742W        W74960  24.494  12.634   0.452
 6743W        W74961  30.248  28.890   2.783
 6744W        W74962  32.520  30.489   1.637
 6745W        W74963   3.952  37.169   1.588
 6746W        W74964  28.661  44.055   0.092
 6747W        W74965  16.792  25.928  14.320
 6748W        W74966  27.075  21.395  14.802
 6749W        W74967  11.595  27.318  12.511
 6750W        W74968  31.031  12.796   3.698
 6751W        W74969  33.906   1.677   3.280
 6752W        W74970  29.037  14.608   3.274
 6753W        W74971  22.525  15.601  13.816
 6754W        W74972  24.962  25.167   3.152
 6755W        W74973   8.242  28.195  11.962
 6756W        W74974  36.083  39.531   0.701
 6757W        W74975  19.113  18.739   3.472
 6758W        W74976  38.904  43.309   3.715
 6759W        W74977  32.115  38.080  11.441
 6760W        W74978  34.845  39.499  14.027
 6761W        W74979  44.482  33.749   2.255
 6762W        W74980  22.589   5.360  13.372
 6763W        W74981   3.655  22.329  13.865
 6764W        W74982   5.497  14.063   4.566
 6765W        W74983  29.876   6.414   2.675
 6766W        W74984  11.557  44.026  10.639
 6767W        W74985  20.910  38.543  10.058
 6768W        W74986  15.245  41.977  11.145
 6769W        W74987  34.747  30.391   2.431
 6770W        W74988  30.402  36.618  11.573
 6771W        W74989  32.808   5.805   1.902
 6772W        W74990  26.580  32.606  10.533
 6773W        W74991   6.079  44.371   9.680
 6774W        W74992  39.928  26.336  12.582
 6775W        W74993   8.451  41.263   1.498
 6776W        W74994  14.841   0.466  13.182
 6777W        W74995  18.601  23.284  13.521
 6778W        W74996  35.808  42.358  12.001
 6779W        W74997   7.216   3.298   2.844
 6780W        W74998  39.529  23.476   1.339
 6781W        W74999  40.455   6.183   2.061
 6782W        W75000  18.428  24.683  12.674
 6783W        W75001  37.372  28.155   2.216
 6784W        W75002  13.258  37.159  12.033
 6785W        W75003  42.018  11.829   4.355
 6786W        W75004  11.199  18.000  14.492
 6787W        W75005  32.456  17.700   1.509
 6788W        W75006  17.517  29.582   4.084
 6789W        W75007  26.663   5.394   2.356
 6790W        W75008  29.205  15.234   0.507
 6791W        W75009  34.484  21.100  13.282
 6792W        W75010  39.981   0.963   0.893
 6793W        W75011  19.080   4.009  14.357
 6794W        W75012   3.811  26.933   4.810
 6795W        W75013  36.157  23.128   3.734
 6796W        W75014   5.490  37.970   4.162
 6797W        W75015  35.903   9.561   3.253
 6798W        W75016   3.505  33.539   1.206
 6799W        W75017  16.006  32.032   3.540
 6800W        W75018  27.423  28.213   1.267
 6801W        W75019  34.871   5.218   2.730
 6802W        W75020  14.773   7.556   2.812
 6803W        W75021  11.422   5.186   4.299
 6804W        W75022  38.369  34.275  11.732
 6805W        W75023  42.525   7.627   2.732
 6806W        W75024  11.469  39.065   3.928
 6807W        W75025  40.830  13.024   4.178
 6808W        W75026   9.201  17.109   2.746
 6809W        W75027  39.848   0.661  12.013
 6810W        W75028   3.893   1.173   2.239
 6811W        W75029  18.580  30.025   2.192
 6812W        W75030   4.400  41.973   2.052
 6813W        W75031  30.762  11.840   5.246
 6814W        W75032  40.197  17.683  11.637
 6815W        W75033   1.813  17.400  12.097
 6816W        W75034  34.641  40.421   3.892
 6817W        W75035  36.912  37.927   3.147
 6818W        W75036  25.529  41.821  11.251
 6819W        W75037  39.450   0.846  12.286
 6820W        W75038   1.535   7.404  14.534
 6821W        W75039   3.287   8.272  12.047
 6822W        W75040  25.747  35.905  10.727
 6823W        W75041  15.196   6.383   0.700
 6824W        W75042  12.818  40.046   4.116
 6825W        W75043  30.857   4.281  12.816
 6826W        W75044  31.882   8.351   0.776
 6827W        W75045  20.175  38.032   3.649
 6828W        W75046  33.598  13.844   0.753
 6829W        W75047  20.129   4.236   3.176
 6830W        W75048   2.171  41.454   3.097
 6831W        W75049  19.697   5.362  11.937
 6832W        W75050  40.304  29.621  14.442
 6833W        W75051   7.528   4.572   3.270
 6834W        W75052   6.289  37.511  10.937
 6835W        W75053  37.436  38.850   4.204
 6836W        W75054  37.919  41.226  11.211
 6837W        W75055  36.491  32.032   1.128
 6838W        W75056  35.443  14.817  13.493
 6839W        W75057  23.153   3.588  13.341
 6840W        W75058  15.835  31.048  14.594
 6841W        W75059   0.982   1.412  13.047
 6842W        W75060  35.119  20.137  12.533
 6843W        W75061  40.288  27.407  11.981
 6844W        W75062   7.336  27.557  11.232
 6845W        W75063  29.368  11.615  11.603
 6846W        W75064  33.390  30.932   0.480
 6847W        W75065   6.638  43.272   1.871
 6848W        W75066  33.419  14.368  12.085
 6849W        W75067  37.694  20.964  12.652
 6850W        W75068  18.188  35.927  14.911
 6851W        W75069  14.968  17.109   0.776
 6852W        W75070  43.975  19.040   3.686
 6853W        W75071  28.317  34.392  13.433
 6854W        W75072  28.543   2.510  12.852
 6855W        W75073   1.466  29.968  14.931
 6856W        W75074  28.358  39.489   3.211
 6857W        W75075  10.525  41.450  14.750
 6858W        W75076  44.881  44.036   2.918
 6859W        W75077   1.793  30.879   0.982
 6860W        W75078   1.656  13.363   4.689
 6861W        W75079  31.971  20.609   1.994
 6862W        W75080  36.408   8.355   3.296
 6863W        W75081   8.205  11.223   4.888
 6864W        W75082  28.548  21.645   2.128
 6865W        W75083   0.812  34.908  11.996
 6866W        W75084  22.303   0.434  13.093
 6867W        W75085  21.708  31.648   0.250
 6868W        W75086  43.256  19.734  13.879
 6869W        W75087  21.617  30.036   1.823
 6870W        W75088  38.837  16.686  13.362
 6871W        W75089  37.612   9.319   2.237
 6872W        W75090  40.567  34.417   4.609
 6873W        W75091  34.629   3.784  14.487
 6874W        W75092   1.292  15.131  12.107
 6875W        W75093  31.783   3.894  10.974
 6876W        W75094  36.486  10.331   1.668
 6877W        W75095  10.706   6.871   3.814
 6878W        W75096  14.679   0.561   4.487
 6879W        W75097  44.486   0.318  12.462
 6880W        W75098  15.855  16.255  13.989
 6881W        W75099  18.939  41.142   3.614
 6882W        W75100  36.878  31.117  14.204
 6883W        W75101   9.798   6.763  12.897
 6884W        W75102  39.061  35.191  14.961
 6885W        W75103  31.108  30.608   1.344
 6886W        W75104  24.890   1.071  11.212
 6887W        W75105  34.602  13.437   3.653
 6888W        W75106  34.862  35.956   0.003
 6889W        W75107  17.731  32.787   0.443
 6890W        W75108  15.735  40.084  14.369
 6891W        W75109  17.996  36.386   0.658
 6892W        W75110  32.055  11.389  14.558
 6893W        W75111  43.405  44.202   4.865
 6894W        W75112  20.725  20.000   0.545
 6895W        W75113   2.391   8.749   4.683
 6896W        W75114  27.974  37.317   1.004
 6897W        W75115  26.655  36.763   1.273
 6898W        W75116  36.808  25.619   2.732
 6899W        W75117  20.029  30.696   0.869
 6900W        W75118  33.828  30.104  10.372
 6901W        W75119  27.969   1.178  12.592
 6902W        W75120   8.907  16.841   0.180
 6903W        W75121   1.282  36.394   2.301
 6904W        W75122  19.433  13.190   0.787
 6905W        W75123  28.171  10.751  11.859
 6906W        W75124  19.057  35.724  10.319
 6907W        W75125  18.639  28.034   4.512
 6908W        W75126  23.493  28.014   0.926
 6909W        W75127  28.425  29.979  11.116
 6910W        W75128  36.866  41.551   3.707
 6911W        W75129   4.884  10.716  12.843
 6912W        W75130   4.999   9.115  11.493
 6913W        W75131  26.736  43.749   0.496
 6914W        W75132  27.835  20.596  12.186
 6915W        W75133  35.599  27.996   4.324
 6916W        W75134  22.607  20.066   1.776
 6917W        W75135  30.915  15.918   2.767
 6918W        W75136   8.321  38.488   4.026
 6919W        W75137   3.957   2.025   0.783
 6920W        W75138  34.823  40.541   2.335
 6921W        W75139  23.162  42.493  11.583
 6922W        W75140  40.587  12.819   1.676
 6923W        W75141  40.592   7.482  10.736
 6924W        W75142  41.411   1.120   2.633
 6925W        W75143   6.735  42.905   0.754
 6926W        W75144  12.262  12.639  13.573
 6927W        W75145  12.771  27.923  12.519
 6928W        W75146   0.932  27.368   1.320
 6929W        W75147  39.336  20.975  14.079
 6930W        W75148  20.809  36.603  11.686
 6931W        W75149  40.503  34.055  14.281
 6932W        W75150   4.706  37.522   5.278
 6933W        W75151  41.826   8.697  14.960
 6934W        W75152  24.162  44.862  13.879
 6935W        W75153   4.550  31.186  13.504
 6936W        W75154  21.684  43.375  12.931
 6937W        W75155  10.590  42.851  14.935
 6938W        W75156  10.371  17.363  10.924
 6939W        W75157  12.331  11.257  14.006
 6940W        W75158  35.010  15.670   0.822
 6941W        W75159   9.957   6.777  11.170
 6942W        W75160  41.969  31.715   4.855
 6943W        W75161   9.936  44.052  12.962
 6944W        W75162  26.604  39.815   2.929
 6945W        W75163  33.209  20.573  13.085
 6946W        W75164  32.036  37.635   1.104
 6947W        W75165  41.846  14.975  11.430
 6948W        W75166  10.652  41.004   3.261
 6949W        W75167   4.076  14.586   4.513
 6950W        W75168  33.757  33.774  13.422
 6951W        W75169   2.666   7.650  13.631
 6952W        W75170  16.570   2.152  14.037
 6953W        W75171  13.792  33.052   1.873
 6954W        W75172   3.103  44.316  11.206
 6955W        W75173  41.881  29.285  11.577
 6956W        W75174   7.438   3.722   2.596
 6957W        W75175  29.103  38.830  13.513
 6958W        W75176  20.095  38.588  11.287
 6959W        W75177   1.145   7.482  10.721
 6960W        W75178   0.361  23.984  14.504
 6961W        W75179  19.307  15.484   0.010
 6962W        W75180  37.067  40.120  11.841
 6963W        W75181  12.906  23.642  11.031
 6964W        W75182   6.501  43.229   5.307
 6965W        W75183  19.565   8.985  10.681
 6966W        W75184  44.409   0.871  14.243
 6967W        W75185  27.075  25.225   9.715
 6968W        W75186  34.851  19.784   4.589
 6969W        W75187  17.497  18.622   3.097
 6970W        W75188  38.022   0.201  14.860
 6971W        W75189  28.929  35.608   0.338
 6972W        W75190  33.027  40.514   4.302
 6973W        W75191  38.976   7.206   0.031
 6974W        W75192   3.305  19.053  10.929
 6975W        W75193  42.092  40.449   0.392
 6976W        W75194   8.300   5.343  10.780
 6977W        W75195  43.999   2.422  11.528
 6978W        W75196  44.335  44.855  12.168
 6979W        W75197  13.324  16.754   0.491
 6980W        W75198  23.075  30.909   4.661
 6981W        W75199  23.973  17.731   4.104
 6982W        W75200  25.451  17.883  12.429
 6983W        W75201  14.497  44.326   3.188
 6984W        W75202  20.222   7.375  10.263
 6985W        W75203  44.200   9.330   3.296
 6986W        W75204  37.524  41.751   0.294
 6987W        W75205  32.936   9.152   4.128
 6988W        W75206   1.799   5.752  14.838
 6989W        W75207  18.757  16.608   2.275
 6990W        W75208  40.208  13.800   3.179
 6991W        W75209  17.753  17.029  11.903
 6992W        W75210  34.472  43.239   4.569
 6993W        W75211  27.474  15.372  11.643
 6994W        W75212  28.194  24.744   2.361
 6995W        W75213  10.895  22.238   4.119
 6996W        W75214  32.029  22.514   4.781
 6997W        W75215  30.880  21.213   3.213
 6998W        W75216  33.505  42.025   1.406
 6999W        W75217   1.595  23.254   2.879
 7000W        W75218  22.129   4.479  12.507
 7001W        W75219   5.692  26.986  13.928
 7002W        W75220  41.019  43.888   1.728
 7003W        W75221  39.549   8.178   1.389
 7004W        W75222   7.392  17.878   0.812
 7005W        W75223  44.365  19.438  13.743
 7006W        W75224  26.578  23.538   2.694
 7007W        W75225  21.258  39.719  12.430
 7008W        W75226  24.065  40.321   1.213
 7009W        W75227  37.299  15.816   2.616
 7010W        W75228  30.089   5.841   0.033
 7011W        W75229  29.347   0.954  10.561
 7012W        W75230  23.155  23.020   3.122
 7013W        W75231  35.659  25.621  11.412
 7014W        W75232   0.038   5.956  14.161
 7015W        W75233  29.926  41.713   0.004
 7016W        W75234  27.002  34.423   1.269
 7017W        W75235  22.020  30.504  14.928
 7018W        W75236  37.865  42.294  11.231
 7019W        W75237  27.017  28.850   1.750
 7020W        W75238  19.645  23.588   2.933
 7021W        W75239  20.691  14.934   3.343
 7022W        W75240  20.144   6.162   3.219
 7023W        W75241   9.222  32.314   2.776
 7024W        W75242  27.094   0.662   2.431
 7025W        W75243  14.646  23.907   0.373
 7026W        W75244  20.648  26.938   2.865
 7027W        W75245  44.809  18.928   2.070
 7028W        W75246  12.752  10.903   3.278
 7029W        W75247  35.577  11.677  11.675
 7030W        W75248  13.185   6.665  13.165
 7031W        W75249  27.474  40.622   3.728
 7032W        W75250   2.920   1.938   1.393
 7033W        W75251  13.197  19.006  14.000
 7034W        W75252  33.906  34.437   1.240
 7035W        W75253   3.891  38.043   2.380
 7036W        W75254   3.765  44.523  12.939
 7037W        W75255   7.707  39.818   1.352
 7038W        W75256  42.886  33.972   1.734
 7039W        W75257  13.263  24.499   2.674
 7040W        W75258  18.229   7.677   1.691
 7041W        W75259  10.670  33.621   4.642
 7042W        W75260  40.922  39.359  12.339
 7043W        W75261  20.563   3.816  10.592
 7044W        W75262  22.095  11.838   2.192
 7045W        W75263  36.914   8.271  12.831
 7046W        W75264   3.889  29.337   0.929
 7047W        W75265   1.023  33.022  11.377
 7048W        W75266  25.893   2.362  11.431
 7049W        W75267   9.899   6.177   0.597
 7050W        W75268   9.552  40.560   2.502
 7051W        W75269   1.395  44.207  11.466
 7052W        W75270   6.622  15.727  12.634
 7053W        W75271  11.361  40.953   4.711
 7054W        W75272  12.325  19.332  11.017
 7055W        W75273  24.015  13.388  14.899
 7056W        W75274  30.897  41.485  11.101
 7057W        W75275  25.170   3.550  14.365
 7058W        W75276  20.315  37.490   0.405
 7059W        W75277  39.072  44.247  14.002
 7060W        W75278  33.351  27.596  14.453
 7061W        W75279   4.160  36.541   3.596
 7062W        W75280  42.034  12.721  13.101
 7063W        W75281  20.237  24.566  11.494
 7064W        W75282  18.635  30.159  12.120
 7065W        W75283  11.567   2.917   0.410
 7066W        W75284  44.959  12.120  14.312
 7067W        W75285  43.456   8.312   0.872
 7068W        W75286  38.065  18.122  13.137
 7069W        W75287   8.733  42.568   0.694
 7070W        W75288  37.073  20.773  13.017
 7071W        W75289  44.776  44.948  10.559
 7072W        W75290  25.528  39.000   1.894
 7073W        W75291  12.968  27.634   5.057
 7074W        W75292   3.411  44.381  14.992
 7075W        W75293  40.385  43.786   2.360
 7076W        W75294   6.876  30.899  12.585
 7077W        W75295  38.525   0.343  14.866
 7078W        W75296  27.216  36.672  13.994
 7079W        W75297  10.119  28.322  12.046
 7080W        W75298  17.699   2.694  12.543
 7081W        W75299  20.766  17.315  11.030
 7082W        W75300  36.548  29.113   4.589
 7083W        W75301  42.678  30.429  12.059
 7084W        W75302  11.984  18.223  12.065
 7085W        W75303  21.221  32.980  11.132
 7086W        W75304  21.041  39.245  12.444
 7087W        W75305  18.664   5.509  11.054
 7088W        W75306  24.742  36.855   0.941
 7089W        W75307  39.504  38.065  11.018
 7090W        W75308  14.781  13.750  13.423
 7091W        W75309  43.338  15.581  12.834
 7092W        W75310  15.643  23.034  11.689
 7093W        W75311   7.760  20.010  13.860
 7094W        W75312   0.430  28.409  11.964
 7095W        W75313  43.870  34.845  13.837
 7096W        W75314  43.909   6.879   4.136
 7097W        W75315   9.113   8.404  13.017
 7098W        W75316   6.795   3.219  12.008
 7099W        W75317  30.407  27.188  12.887
 7100W        W75318  21.104  35.536   1.711
 7101W        W75319  30.670  25.972   1.183
 7102W        W75320  40.838  25.260  11.356
 7103W        W75321  25.198   5.035   4.093
 7104W        W75322   2.329   6.984  13.928
 7105W        W75323  29.548  16.579   5.020
 7106W        W75324   7.722  16.804   3.845
 7107W        W75325  20.544   3.473  12.640
 7108W        W75326  36.610  35.125  14.130
 7109W        W75327  35.019  36.406  14.360
 7110W        W75328  37.161  28.215   0.431
 7111W        W75329  34.583  37.934   3.294
 7112W        W75330  16.507   0.256   3.659
 7113W        W75331   0.004  13.981  13.924
 7114W        W75332  20.249  18.363   1.335
 7115W        W75333  30.994  25.468  14.959
 7116W        W75334   8.898  36.454  14.521
 7117W        W75335   4.171  33.039   3.715
 7118W        W75336  18.275  11.425   2.824
 7119W        W75337  42.286  30.985  11.234
 7120W        W75338  30.627  11.911  13.417
 7121W        W75339  33.949  39.955   0.796
 7122W        W75340  28.193  30.000   3.756
 7123W        W75341  11.665  21.832   3.266
 7124W        W75342  23.277  17.803  11.073
 7125W        W75343   8.709   2.937   1.192
 7126W        W75344  21.987   2.862  12.457
 7127W        W75345  28.862   5.445   3.735
 7128W        W75346  12.932  13.524  13.173
 7129W        W75347  20.501  36.949   1.481
 7130W        W75348  30.432  38.860  14.323
 7131W        W75349  39.011   7.257  13.573
 7132W        W75350  41.269  17.137   1.663
 7133W        W75351  19.742  25.563   4.655
 7134W        W75352   9.621  10.680   1.182
 7135W        W75353  42.883  35.366  14.535
 7136W        W75354  13.450   0.539   5.064
 7137W        W75355  10.980   7.091  13.918
 7138W        W75356  44.453  11.777  12.805
 7139W        W75357   3.998  16.864   0.006
 7140W        W75358  25.443  24.179  11.965
 7141W        W75359  14.616  37.124  11.615
 7142W        W75360  15.128  27.857  12.366
 7143W        W75361  34.786  39.452  11.033
 7144W        W75362   0.562  15.684   0.333
 7145W        W75363  16.972  30.129  12.066
 7146W        W75364  23.179  14.069  13.055
 7147W        W75365  39.926  20.944  14.877
 7148W        W75366  16.236   1.000   4.553
 7149W        W75367   2.239   6.408   0.405
 7150W        W75368   1.297   2.869   0.001
 7151W        W75369  19.248  25.268  10.857
 7152W        W75370   3.842  29.277  10.969
 7153W        W75371  29.550   2.468   4.619
 7154W        W75372  31.095  30.129   2.755
 7155W        W75373  12.195  40.886   0.452
 7156W        W75374  14.734  16.576   2.345
 7157W        W75375  28.164  37.519   1.443
 7158W        W75376  24.313  35.662  11.378
 7159W        W75377  11.424  13.360  13.792
 7160W        W75378  13.262  30.439   2.262
 7161W        W75379  23.207   0.320  11.630
 7162W        W75380  29.003  21.721   0.819
 7163W        W75381  37.958  27.121   0.862
 7164W        W75382  32.499  22.334   4.635
 7165W        W75383   5.186  19.660  11.637
 7166W        W75384  35.592  39.398   4.107
 7167W        W75385  36.579  38.345  13.049
 7168W        W75386   5.249  33.702  14.190
 7169W        W75387  39.559  28.656  11.038
 7170W        W75388  10.274  35.432  13.811
 7171W        W75389   5.372   8.868   0.772
 7172W        W75390  38.680   1.419   3.633
 7173W        W75391  40.061  19.270   1.323
 7174W        W75392  39.844  34.541   2.759
 7175W        W75393  10.830  19.482  14.423
 7176W        W75394   3.766   8.967  12.917
 7177W        W75395  33.197  38.504  11.636
 7178W        W75396   0.370  28.694  13.303
 7179W        W75397  36.239  36.173  11.243
 7180W        W75398  25.680  14.089   1.684
 7181W        W75399  22.287  26.172   5.095
 7182W        W75400   3.112  24.679  13.376
 7183W        W75401  13.358   7.217   3.224
 7184W        W75402  23.452  38.620  13.796
 7185W        W75403  16.590   5.315  14.357
 7186W        W75404  35.649  24.435  14.478
 7187W        W75405  27.884  10.414  12.595
 7188W        W75406  15.682  35.737  13.611
 7189W        W75407  24.993  40.280  12.940
 7190W        W75408  35.059  42.178   2.284
 7191W        W75409  32.035   2.049  12.426
 7192W        W75410  35.711  39.069  12.365
 7193W        W75411   7.175   1.707  10.639
 7194W        W75412  17.584   4.939  13.154
 7195W        W75413  35.381  26.217  12.474
 7196W        W75414   0.783  26.719  11.200
 7197W        W75415  36.107  44.281  14.596
 7198W        W75416  14.680  33.556   3.595
 7199W        W75417   0.701   1.163  14.307
 7200W        W75418  44.522  32.783  12.785
 7201W        W75419  35.275  33.025   0.392
 7202W        W75420  35.000  22.792   3.405
 7203W        W75421   7.909  27.185  14.947
 7204W        W75422  18.091  31.451   3.319
 7205W        W75423   4.799  24.142   3.151
 7206W        W75424  15.546  29.521  11.715
 7207W        W75425  43.829  24.591   3.275
 7208W        W75426  17.875   6.542   3.186
 7209W        W75427  28.545   0.918   4.052
 7210W        W75428  43.348  15.299  12.044
 7211W        W75429  23.049  12.572   4.126
 7212W        W75430  38.871  34.378   0.170
 7213W        W75431   9.992  27.923  11.471
 7214W        W75432  27.104   5.319   3.371
 7215W        W75433   1.953  15.738   4.656
 7216W        W75434   6.872  40.493  11.589
 7217W        W75435  33.616  31.583  10.496
 7218W        W75436  37.988  39.967  13.869
 7219W        W75437   9.613  43.164   1.735
 7220W        W75438   0.293  17.173   3.945
 7221W        W75439  34.473  12.183  12.033
 7222W        W75440  17.360   8.901  12.585
 7223W        W75441  25.629  29.481  13.298
 7224W        W75442  16.201   7.616  12.366
 7225W        W75443  40.046  15.681   2.093
 7226W        W75444  22.912  44.013   3.000
 7227W        W75445   8.179  33.445   1.354
 7228W        W75446   6.302  23.148   0.777
 7229W        W75447  30.127  31.938   0.915
 7230W        W75448   0.787   4.618  10.867
 7231W        W75449  35.966  29.206   0.245
 7232W        W75450  23.643  18.546   0.455
 7233W        W75451  18.756  11.154  14.749
 7234W        W75452   1.768   8.761   3.973
 7235W        W75453  10.854  31.147   2.845
 7236W        W75454  27.628  30.122  11.650
 7237W        W75455  38.865  28.444  11.595
 7238W        W75456  15.174  17.318  14.364
 7239W        W75457  13.864   6.207   4.318
 7240W        W75458  16.563  42.440   1.862
 7241W        W75459   8.071  35.272  11.030
 7242W        W75460  15.550  35.269   2.150
 7243W        W75461  19.514  44.343  12.104
 7244W        W75462  34.921  21.224  12.021
 7245W        W75463   1.253  34.603  14.845
 7246W        W75464  21.010   9.872  13.869
 7247W        W75465  31.369  42.959   0.787
 7248W        W75466  13.161  10.735  13.294
 7249W        W75467  39.282  26.630   4.158
 7250W        W75468  43.246  23.171   2.215
 7251W        W75469  30.758  15.809  11.528
 7252W        W75470  35.566  37.324   3.089
 7253W        W75471   5.804  19.043   0.494
 7254W        W75472   5.217  39.711   0.752
 7255W        W75473  18.211  28.987   2.758
 7256W        W75474   8.785  27.535   3.715
 7257W        W75475  43.628  40.873  12.542
 7258W        W75476  43.832  15.915   1.805
 7259W        W75477  36.239  21.642  11.870
 7260W        W75478  15.514  40.783  11.875
 7261W        W75479   1.764  38.410   1.875
 7262W        W75480  22.085  15.193  10.847
 7263W        W75481   4.324  27.513  10.674
 7264W        W75482  15.642   4.867  13.489
 7265W        W75483  24.046  27.905  11.387
 7266W        W75484  28.627  35.167  10.737
 7267W        W75485   6.925  16.671  11.506
 7268W        W75486  22.610  10.260  13.069
 7269W        W75487  42.786  28.515  11.957
 7270W        W75488  22.703  28.069  13.272
 7271W        W75489   9.281   7.124   1.191
 7272W        W75490  16.230  25.153   0.749
 7273W        W75491  15.557  31.459   1.820
 7274W        W75492   6.595   8.493  13.018
 7275W        W75493  36.634  20.902  10.326
 7276W        W75494  35.372   6.864   2.742
 7277W        W75495  31.460  19.098   0.069
 7278W        W75496   4.845  14.729   0.910
 7279W        W75497  42.515  37.799   0.399
 7280W        W75498  21.571  17.152  10.790
 7281W        W75499  42.439  40.902  13.947
 7282W        W75500  34.590  14.109   2.265
 7283W        W75501   1.310  11.032  13.023
 7284W        W75502  39.827  29.485  14.308
 7285W        W75503   4.212  39.714  14.065
 7286W        W75504   7.351   5.049   3.266
 7287W        W75505   2.820  40.952   1.802
 7288W        W75506  44.822  43.752  13.237
 7289W        W75507  27.929  11.428  13.077
 7290W        W75508   7.768  28.253   1.383
 7291W        W75509   2.423  37.599  13.751
 7292W        W75510  17.829   5.043   0.520
 7293W        W75511  15.620   7.226   1.202
 7294W        W75512   3.997  12.524   4.110
 7295W        W75513  14.906  22.224  13.374
 7296W        W75514  38.309  31.154   2.302
 7297W        W75515  34.179   4.475   1.360
 7298W        W75516  10.785  32.059  10.934
 7299W        W75517  11.106  35.794   1.967
 7300W        W75518   7.283  44.627  12.414
 7301W        W75519  38.303  10.198   0.685
 7302W        W75520  10.773  26.028   2.921
 7303W        W75521   1.368   0.278  13.507
 7304W        W75522  16.256  23.056   2.029
 7305W        W75523  35.028  24.148  10.822
 7306W        W75524  20.144  42.034  13.389
 7307W        W75525  24.192  26.692  14.562
 7308W        W75526  11.341  43.000  12.449
 7309W        W75527  23.850  31.492   2.827
 7310W        W75528  26.705  36.217   1.213
 7311W        W75529  27.220  39.315   0.894
 7312W        W75530  42.914   7.284  12.411
 7313W        W75531  29.812   5.964  12.102
 7314W        W75532  20.566   7.758   1.209
 7315W        W75533  42.379  38.438   3.646
 7316W        W75534  28.222  28.408  12.040
 7317W        W75535   0.369  26.431  14.824
 7318W        W75536   6.109  44.367  14.930
 7319W        W75537  27.044  34.824   0.336
 7320W        W75538  36.561  24.199   3.363
 7321W        W75539  41.660  16.554  13.427
 7322W        W75540  25.334  40.018  13.496
 7323W        W75541   9.399   9.661   1.154
 7324W        W75542  28.898   5.389   1.594
 7325W        W75543  13.132   9.783   2.189
 7326W        W75544  28.655  42.616   1.795
 7327W        W75545   8.825  35.775   0.270
 7328W        W75546  34.112   6.788   0.419
 7329W        W75547  39.955  33.373  10.655
 7330W        W75548  17.574  36.248   2.278
 7331W        W75549   1.362  42.405   3.788
 7332W        W75550   3.873  11.746   3.615
 7333W        W75551  25.029  20.247   4.035
 7334W        W75552  36.396  36.286   0.520
 7335W        W75553  35.591  17.720  12.082
 7336W        W75554   6.521   3.999   1.461
 7337W        W75555  22.584  14.366  11.986
 7338W        W75556  17.808   6.217   4.413
 7339W        W75557  44.894  42.141   4.594
 7340W        W75558  43.289  24.099  12.565
 7341W        W75559   5.812  34.923   2.758
 7342W        W75560  15.357  35.182  13.766
 7343W        W75561  14.608  14.967  11.849
 7344W        W75562  30.599  25.172  14.794
 7345W        W75563  21.053  30.084  12.338
 7346W        W75564  16.403  31.436  13.474
 7347W        W75565  37.374  33.345   3.797
 7348W        W75566  42.849  44.721   2.147
 7349W        W75567  38.811  36.951   3.245
 7350W        W75568  13.697  32.843   4.122
 7351W        W75569  13.297   9.355   4.679
 7352W        W75570  23.798  42.707   0.399
 7353W        W75571  37.783   9.854   0.252
 7354W        W75572   4.333  33.562  11.548
 7355W        W75573  13.590   9.795  14.804
 7356W        W75574   6.409  21.632  13.452
 7357W        W75575   2.203   4.139   3.514
 7358W        W75576  24.315  41.299   0.166
 7359W        W75577  42.695  26.144  13.822
 7360W        W75578  17.110  18.280   3.183
 7361W        W75579  27.546  28.111  11.945
 7362W        W75580  28.266  24.755  10.640
 7363W        W75581   7.244  38.344  11.086
 7364W        W75582  30.490  28.825  12.630
 7365W        W75583   5.433   5.175  11.591
 7366W        W75584   1.651  38.860  11.140
 7367W        W75585  22.252   8.745  13.942
 7368W        W75586  43.015  38.072  14.928
 7369W        W75587  15.761  17.561  13.932
 7370W        W75588   0.519   8.747  14.516
 7371W        W75589  36.322  22.498   4.703
 7372W        W75590  42.005  22.738   0.068
 7373W        W75591  38.908  18.055  11.954
 7374W        W75592  38.013  44.253  11.961
 7375W        W75593  10.772  15.108  12.608
 7376W        W75594  25.752  25.809   4.019
 7377W        W75595   3.318   6.921   0.443
 7378W        W75596  15.351  36.337  11.432
 7379W        W75597  11.425  20.095   4.596
 7380W        W75598  41.865  18.568  14.665
 7381W        W75599  35.491  13.093   1.298
 7382W        W75600  34.185  37.904   1.384
 7383W        W75601   3.970  39.990   1.415
 7384W        W75602   4.900  24.261  14.403
 7385W        W75603  20.585  40.424   1.620
 7386W        W75604   0.159  36.425   2.186
 7387W        W75605  29.565  31.403  10.660
 7388W        W75606  19.634  32.047   0.828
 7389W        W75607  19.740  33.972   1.336
 7390W        W75608  28.364   7.381   1.524
 7391W        W75609   7.250  37.548   2.881
 7392W        W75610  24.659  41.044   3.177
 7393W        W75611  43.323  44.969  14.043
 7394W        W75612  24.154  20.641   4.709
 7395W        W75613  16.103   4.878   0.384
 7396W        W75614   1.810  41.850   0.665
 7397W        W75615  25.468  17.993   3.418
 7398W        W75616  42.506   2.893   3.852
 7399W        W75617  28.434  43.407  11.441
 7400W        W75618  35.357  13.547   4.091
 7401W        W75619  29.598  35.521   0.862
 7402W        W75620   7.389   7.251  12.896
 7403W        W75621  43.787  23.070   0.227
 7404W        W75622  11.633  30.662   5.096
 7405W        W75623  35.836   4.254   2.335
 7406W        W75624  35.437  18.297   3.773
 7407W        W75625  33.923   7.238  11.213
 7408W        W75626  27.392  28.893  14.071
 7409W        W75627  31.610  39.424   0.448
 7410W        W75628  35.874  44.431   0.028
 7411W        W75629   5.231  42.989  10.253
 7412W        W75630   7.337  16.363   0.719
 7413W        W75631  17.950  17.864  12.918
 7414W        W75632  24.810   8.139  11.946
 7415W        W75633  33.056  32.459   1.189
 7416W        W75634  16.526  34.538   0.805
 7417W        W75635   9.493   5.173   2.600
 7418W        W75636  14.256  27.710   3.242
 7419W        W75637  22.261   9.518   4.137
 7420W        W75638   8.886  43.560   3.584
 7421W        W75639  35.683  16.301  14.196
 7422W        W75640  24.987  28.381   3.627
 7423W        W75641   5.171  15.329   2.741
 7424W        W75642  11.135  43.938  11.467
 7425W        W75643   6.449  41.295  10.321
 7426W        W75644  39.087  30.260   0.389
 7427W        W75645  24.936  15.358   4.955
 7428W        W75646   7.352   6.888   2.895
 7429W        W75647  33.263  16.297   3.729
 7430W        W75648   2.060  34.428   0.186
 7431W        W75649  14.321  22.917   4.115
 7432W        W75650   4.484  26.412   3.748
 7433W        W75651  43.865  44.901  10.473
 7434W        W75652  11.587  23.886   5.291
 7435W        W75653  41.830  11.500   4.699
 7436W        W75654  29.656  27.009  11.461
 7437W        W75655  31.199  27.006  12.511
 7438W        W75656  43.252  31.900   0.142
 7439W        W75657  32.088  20.702  10.727
 7440W        W75658  30.374  21.716   1.960
 7441W        W75659  27.528  17.732  12.047
 7442W        W75660   9.947  31.050  11.516
 7443W        W75661  25.750   8.401   0.336
 7444W        W75662  40.950  38.551   2.788
 7445W        W75663  24.294  25.243  12.211
 7446W        W75664  35.542  35.885  10.557
 7447W        W75665  29.509   3.225   4.997
 7448W        W75666   0.943   3.825  14.327
 7449W        W75667  29.559  41.446  13.128
 7450W        W75668  15.086  15.312   1.361
 7451W        W75669  38.184  34.979  12.399
 7452W        W75670   2.779  28.406  12.117
 7453W        W75671  33.437   5.371   3.073
 7454W        W75672  40.947   4.415   0.812
 7455W        W75673  29.684  17.772   2.770
 7456W        W75674  10.252  37.430  12.439
 7457W        W75675   9.669  15.334   0.888
 7458W        W75676  43.276  26.329   2.327
 7459W        W75677   5.122  43.305  10.657
 7460W        W75678  32.504   6.224  13.338
 7461W        W75679  18.908  35.505   2.885
 7462W        W75680  42.038   8.300  12.101
 7463W        W75681  37.080  18.536  14.414
 7464W        W75682  27.767   7.723  10.765
 7465W        W75683  12.825  35.041  13.338
 7466W        W75684  24.291   0.393  14.419
 7467W        W75685  15.545  38.051   3.308
 7468W        W75686  38.809   2.486  12.593
 7469W        W75687  43.583  33.595   0.937
 7470W        W75688  19.495  40.298  11.520
 7471W        W75689  31.567  30.090   1.787
 7472W        W75690   4.777   6.222   3.038
 7473W        W75691  10.538  38.096   4.191
 7474W        W75692  33.670  35.569   2.892
 7475W        W75693   6.757  33.113  10.751
 7476W        W75694  36.615   7.414   2.789
 7477W        W75695  44.550  42.228  12.472
 7478W        W75696  36.670  10.722   0.301
 7479W        W75697   1.722  36.949  10.824
 7480W        W75698   3.785  20.096   2.238
 7481W        W75699  25.090  40.926   4.953
 7482W        W75700  30.986   6.664   0.287
 7483W        W75701  21.774  44.295   3.250
 7484W        W75702  23.590  18.799  11.590
 7485W        W75703  19.303  37.824   1.372
 7486W        W75704  26.059  29.635  13.569
 7487W        W75705   8.414  18.168   0.069
 7488W        W75706  28.608  18.022   0.001
 7489W        W75707  37.639  16.556   3.646
 7490W        W75708  34.587   8.415  14.490
 7491W        W75709  44.693  44.656   1.871
 7492W        W75710  17.830   3.264  10.935
 7493W        W75711  43.797  32.195   2.890
 7494W        W75712  15.921  39.774   3.724
 7495W        W75713   2.528  34.945   0.860
 7496W        W75714  11.892  29.204   2.808
 7497W        W75715  30.835  44.091  13.012
 7498W        W75716  42.438   8.814   4.604
 7499W        W75717  13.726  26.563  13.977
 7500W        W75718  23.177   9.589   3.733
 7501W        W75719  23.962  21.268  13.931
 7502W        W75720  42.314  28.650   2.724
 7503W        W75721  44.422  42.000   3.443
 7504W        W75722  13.418  39.912   4.768
 7505W        W75723   4.952  36.823  12.884
 7506W        W75724  22.107  10.149  14.465
 7507W        W75725  13.450  25.210  12.551
 7508W        W75726   2.597   2.028  13.019
 7509W        W75727  18.515  21.970  11.077
 7510W        W75728   6.596  44.785  13.568
 7511W        W75729  40.873  29.948   2.895
 7512W        W75730  28.495  19.337  11.086
 7513W        W75731  33.179  34.949   0.055
 7514W        W75732  19.099  15.701   3.944
 7515W        W75733  29.530  14.550   1.805
 7516W        W75734  30.729  44.536   1.251
 7517W        W75735  15.059  20.670  12.498
 7518W        W75736  17.925  35.019  10.862
 7519W        W75737  22.712   1.512   2.348
 7520W        W75738  40.959  35.303   1.886
 7521W        W75739   1.310  38.428   1.262
 7522W        W75740  43.241  40.866  10.850
 7523W        W75741  40.977  28.064   2.655
 7524W        W75742   8.745  14.102  14.267
 7525W        W75743  15.098  38.634  14.384
 7526W        W75744  12.345  30.894   1.856
 7527W        W75745  28.138  41.420  13.341
 7528W        W75746  42.176  36.675   4.542
 7529W        W75747  27.538  18.812   0.896
 7530W        W75748   4.476  21.607  13.407
 7531W        W75749   3.524  10.270  14.057
 7532W        W75750  21.036  41.869   0.830
 7533W        W75751  36.076  35.573   3.151
 7534W        W75752  26.461   2.867  10.794
 7535W        W75753  27.897   6.147   3.726
 7536W        W75754  23.552  20.869   0.492
 7537W        W75755  12.374   4.206   1.232
 7538W        W75756  32.904  10.719  12.508
 7539W        W75757   2.896  21.644  12.549
 7540W        W75758   9.896   1.283   3.100
 7541W        W75759  30.115  32.404  13.985
 7542W        W75760  25.768  26.008   3.186
 7543W        W75761   9.580  29.456   4.215
 7544W        W75762  16.605  15.848  13.822
 7545W        W75763  20.275   7.720  12.718
 7546W        W75764  35.519  13.903   0.803
 7547W        W75765  30.149  23.488  11.572
 7548W        W75766  40.816  33.055   4.060
 7549W        W75767  38.086  42.424  13.106
 7550W        W75768  38.492  12.153  11.410
 7551W        W75769   5.736  42.003   2.790
 7552W        W75770   8.870  43.882  11.953
 7553W        W75771   3.115  15.118   3.748
 7554W        W75772  22.662  17.740  12.594
 7555W        W75773  14.496   1.393  13.404
 7556W        W75774   6.900  43.474  11.665
 7557W        W75775  39.856  43.864  14.868
 7558W        W75776  21.715  21.357   3.368
 7559W        W75777  16.798  10.627  10.713
 7560W        W75778  27.161   1.879  11.941
 7561W        W75779  33.347  13.605  12.499
 7562W        W75780   5.321   8.955   1.282
 7563W        W75781  43.718  12.631   0.227
 7564W        W75782  28.632  39.741   1.373
 7565W        W75783  30.846  10.702   0.355
 7566W        W75784  11.094  15.178   3.538
 7567W        W75785  42.875   2.343   4.552
 7568W        W75786  32.530  13.164  13.480
 7569W        W75787   1.995   5.389  13.482
 7570W        W75788  11.262  26.422  14.000
 7571W        W75789   7.614   9.341  13.355
 7572W        W75790  29.027  20.997  11.213
 7573W        W75791  13.571  17.381   1.883
 7574W        W75792  27.665  38.000   2.269
 7575W        W75793  15.403  20.635   0.042
 7576W        W75794  10.327  11.670   3.768
 7577W        W75795   9.929   0.308  11.607
 7578W        W75796  11.419  20.933  13.482
 7579W        W75797   2.441   7.779  14.940
 7580W        W75798  44.877  39.821  14.501
 7581W        W75799  33.870  33.368   4.733
 7582W        W75800  34.496  44.844   2.662
 7583W        W75801  18.161   1.316   3.571
 7584W        W75802  38.533  26.978  12.038
 7585W        W75803  38.541   3.159   5.486
 7586W        W75804  23.812  31.623   4.648
 7587W        W75805   6.894  23.503   3.730
 7588W        W75806  19.105  33.984  11.725
 7589W        W75807  36.463   0.002  11.918
 7590W        W75808  29.374   9.500   1.476
 7591W        W75809   9.290  11.458   9.845
 7592W        W75810  24.035   5.331  10.551
 7593W        W75811  15.648  27.943   3.242
 7594W        W75812   2.418   0.049  12.878
 7595W        W75813  10.881  40.468   1.143
 7596W        W75814   5.415  23.529   2.921
 7597W        W75815  24.724   7.586   2.815
 7598W        W75816   9.118   2.959  10.659
 7599W        W75817  19.716  41.343   0.777
 7600W        W75818  39.842  19.499  13.422
 7601W        W75819   8.307  11.581  14.441
 7602W        W75820  21.248  18.219   4.057
 7603W        W75821  20.580   9.842  10.575
 7604W        W75822  21.233  16.318   4.186
 7605W        W75823   5.811  35.532   0.633
 7606W        W75824  12.924  16.714  10.952
 7607W        W75825  33.820  43.452  12.676
 7608W        W75826  29.413  11.121   2.589
 7609W        W75827  20.348   3.544  14.085
 7610W        W75828  11.810  25.965  11.127
 7611W        W75829  34.012  41.374   1.829
 7612W        W75830  28.481  33.488  12.407
 7613W        W75831  41.385  42.294   2.346
 7614W        W75832   7.277   6.139   1.095
 7615W        W75833  19.525  34.786  12.949
 7616W        W75834  32.505  17.539  14.036
 7617W        W75835  21.676  13.101  10.634
 7618W        W75836  26.253  24.065  11.323
 7619W        W75837   5.585   1.717  13.002
 7620W        W75838  40.452   4.255   4.198
 7621W        W75839  26.666  21.686   0.431
 7622W        W75840  26.577   0.331   1.253
 7623W        W75841  34.730   5.990   1.719
 7624W        W75842  17.527   1.961   1.955
 7625W        W75843  44.403  12.729   2.212
 7626W        W75844  24.127  11.325   1.139
 7627W        W75845   3.474   3.374   1.373
 7628W        W75846  29.088  43.737   0.186
 7629W        W75847  33.174  27.482  12.940
 7630W        W75848  41.885  33.175  12.083
 7631W        W75849   3.955  12.185  14.857
 7632W        W75850  30.364  38.519   2.283
 7633W        W75851  13.638  19.864   3.937
 7634W        W75852  36.048  14.604   4.674
 7635W        W75853  31.061   2.376   2.266
 7636W        W75854  15.219  43.380   0.333
 7637W        W75855  10.932  13.266   1.269
 7638W        W75856  15.869  35.009   0.347
 7639W        W75857  42.425  32.845  14.825
 7640W        W75858  12.555  34.909   3.221
 7641W        W75859  33.010   0.852  13.693
 7642W        W75860  12.771  24.727   2.032
 7643W        W75861  37.317  40.479  12.159
 7644W        W75862  34.213  26.485   3.674
 7645W        W75863   5.279  41.565  12.545
 7646W        W75864  44.105  26.287  14.641
 7647W        W75865  41.523  15.300  11.246
 7648W        W75866  26.467  34.271  14.898
 7649W        W75867  28.620   9.196   2.872
 7650W        W75868   8.250   0.536   3.242
 7651W        W75869   4.003  20.833   2.773
 7652W        W75870  35.675  37.796  12.064
 7653W        W75871  19.991  37.477  10.169
 7654W        W75872  40.400  26.778   3.672
 7655W        W75873  11.168  18.335  14.097
 7656W        W75874   5.890  17.746  11.636
 7657W        W75875   5.149   9.784   0.793
 7658W        W75876  31.642  20.064  13.916
 7659W        W75877  22.294  14.218   2.462
 7660W        W75878  15.372  20.303   4.127
 7661W        W75879  25.941  41.442   1.590
 7662W        W75880  43.534  35.032  14.430
 7663W        W75881   0.889  11.282   3.083
 7664W        W75882  38.074   7.960   0.324
 7665W        W75883   8.436  21.105  13.728
 7666W        W75884  18.281  39.982   0.563
 7667W        W75885  44.617   3.058  10.206
 7668W        W75886  42.750  26.509  10.829
 7669W        W75887   9.811  14.989  12.520
 7670W        W75888  11.894  17.650  12.979
 7671W        W75889  41.723  17.305   0.269
 7672W        W75890   0.595  26.166   3.960
 7673W        W75891  11.910   4.177   3.661
 7674W        W75892  17.101  30.695   2.259
 7675W        W75893   5.904  44.701   2.652
 7676W        W75894  35.890  13.251  10.741
 7677W        W75895  23.179  32.413   2.148
 7678W        W75896   3.467  33.529  13.448
 7679W        W75897  11.669  37.806  13.405
 7680W        W75898   8.100   9.036  11.076
 7681W        W75899  38.230  32.809   4.585
 7682W        W75900  14.867  19.233   3.203
 7683W        W75901  20.455  15.180   2.942
 7684W        W75902  18.515  35.513   5.335
 7685W        W75903   7.346  42.300  12.869
 7686W        W75904  26.629  26.006   3.110
 7687W        W75905  18.021  12.122   4.040
 7688W        W75906   7.161  15.656  14.784
 7689W        W75907  36.919  24.266   3.791
 7690W        W75908   0.913  39.457   0.801
 7691W        W75909  24.453  31.878   3.215
 7692W        W75910  15.957  20.970   5.132
 7693W        W75911  29.219  34.100   4.622
 7694W        W75912  38.513   9.142  11.624
 7695W        W75913   5.419  10.106  11.042
 7696W        W75914  11.073   1.399  12.084
 7697W        W75915  35.036   9.285   2.278
 7698W        W75916   0.129   8.942   3.310
 7699W        W75917   8.732  26.597   0.883
 7700W        W75918   4.029  25.428   4.698
 7701W        W75919  18.371  18.478   3.390
 7702W        W75920  28.762  21.073   0.269
 7703W        W75921  21.464  27.877   2.409
 7704W        W75922  11.770  41.294  13.387
 7705W        W75923   9.286   5.345   1.303
 7706W        W75924  13.304  34.894  14.508
 7707W        W75925  26.200  17.309  12.547
 7708W        W75926   3.171   2.840  14.708
 7709W        W75927  23.322   1.512   3.188
 7710W        W75928  38.772   2.795  14.842
 7711W        W75929  44.768  36.966   3.025
 7712W        W75930  10.944   4.821   2.667
 7713W        W75931  15.686   9.652  12.938
 7714W        W75932   4.477  21.108   0.539
 7715W        W75933  43.320  15.162  14.945
 7716W        W75934  31.113  39.126  13.596
 7717W        W75935   4.008  40.028   0.295
 7718W        W75936  30.506   3.988   2.201
 7719W        W75937  11.131  20.519  12.044
 7720W        W75938  32.413  27.924   0.917
 7721W        W75939  19.760  16.140  13.550
 7722W        W75940  17.245  22.836   1.134
 7723W        W75941  37.673  16.793   1.417
 7724W        W75942   8.521   4.440   3.211
 7725W        W75943  21.193  15.802   4.159
 7726W        W75944  41.685  24.712   3.123
 7727W        W75945  27.681  32.354   4.717
 7728W        W75946  29.459  36.450  13.295
 7729W        W75947  13.580  31.427  11.046
 7730W        W75948  23.432   9.936   1.324
 7731W        W75949   1.285  23.370   1.386
 7732W        W75950   2.765  33.553   1.914
 7733W        W75951  14.086  31.597   1.666
 7734W        W75952   5.948  13.933   1.163
 7735W        W75953  27.886   3.696   3.678
 7736W        W75954  37.628  16.306  13.870
 7737W        W75955  42.403   8.792  14.230
 7738W        W75956   0.989  37.630  11.712
 7739W        W75957  16.805  34.236  13.047
 7740W        W75958  43.255   8.343   4.123
 7741W        W75959   8.792   2.045   0.978
 7742W        W75960  25.060  35.342   2.359
 7743W        W75961   9.894  32.018  10.679
 7744W        W75962  31.643  17.678  13.451
 7745W        W75963  22.193  16.752   4.123
 7746W        W75964  17.668  20.156   0.030
 7747W        W75965   1.928   8.635   3.486
 7748W        W75966  35.115  41.512   2.298
 7749W        W75967  29.937   4.157  11.460
 7750W        W75968   5.171  10.794   2.350
 7751W        W75969  31.572  10.098   4.176
 7752W        W75970  30.976  29.519   4.323
 7753W        W75971   1.827  38.999  14.803
 7754W        W75972  19.607  29.690  13.346
 7755W        W75973  16.178  32.888  13.485
 7756W        W75974   3.218  20.616   0.592
 7757W        W75975  32.447  15.464   2.242
 7758W        W75976  31.939   3.004   2.703
 7759W        W75977   6.583  13.154  13.317
 7760W        W75978  13.881  23.539   2.907
 7761W        W75979  14.251  19.672  11.666
 7762W        W75980  16.513  13.052  13.059
 7763W        W75981  43.587  22.572   0.326
 7764W        W75982   2.258   4.445  14.600
 7765W        W75983  37.908   3.460   1.044
 7766W        W75984  43.354  19.700   4.563
 7767W        W75985  35.175   9.914   3.057
 7768W        W75986  43.316  44.849   2.343
 7769W        W75987  38.811  25.364   4.293
 7770W        W75988  11.191  20.027  14.830
 7771W        W75989  14.726  19.053   1.816
 7772W        W75990  13.952  23.481  11.280
 7773W        W75991   0.687   2.503  11.198
 7774W        W75992  33.981  33.128   4.291
 7775W        W75993  35.591   7.331   2.861
 7776W        W75994  16.239   3.101  11.368
 7777W        W75995  17.722  35.087   1.554
 7778W        W75996  24.267   3.853  14.044
 7779W        W75997   8.613  44.951  12.427
 7780W        W75998   1.957  10.132  14.865
 7781W        W75999   2.753   5.832   1.026
 7782W        W76000  43.248   4.146  13.265
 7783W        W76001  38.962  26.704  12.107
 7784W        W76002  11.428  33.643  14.524
 7785W        W76003  30.918  39.539   4.279
 7786W        W76004  14.381  26.875   0.517
 7787W        W76005  44.538   5.811  12.060
 7788W        W76006  38.692  23.992  12.387
 7789W        W76007  36.926  20.295  12.962
 7790W        W76008  29.084   2.489  14.986
 7791W        W76009   9.969  20.103  13.723
 7792W        W76010  29.062  30.087   3.842
 7793W        W76011  44.340  28.622  10.744
 7794W        W76012  35.306  37.487   3.782
 7795W        W76013  29.287  23.855   5.624
 7796W        W76014  15.828  36.094   4.135
 7797W        W76015  18.073  44.327   3.177
 7798W        W76016  32.526   3.170   5.302
 7799W        W76017   3.340  24.158  12.217
 7800W        W76018   1.380  21.045   0.709
 7801W        W76019   0.710  11.214   4.103
 7802W        W76020  19.938  29.873   1.648
 7803W        W76021  10.615   9.750   2.921
 7804W        W76022  12.181  39.824  13.783
 7805W        W76023  16.233  25.101   2.282
 7806W        W76024  15.572  35.391   3.038
 7807W        W76025   6.443   9.454  13.825
 7808W        W76026   0.421  22.035   4.944
 7809W        W76027   3.696   0.800   1.909
 7810W        W76028   9.908  43.422   3.642
 7811W        W76029  43.281   0.381  13.438
 7812W        W76030  23.790  34.096   4.028
 7813W        W76031  29.608  37.482  11.105
 7814W        W76032  41.486  23.611  14.338
 7815W        W76033  44.997   1.655   4.670
 7816W        W76034  37.215  42.881   1.026
 7817W        W76035  41.775  44.208  10.746
 7818W        W76036  20.748  21.648   4.053
 7819W        W76037  15.923  35.548   0.569
 7820W        W76038  17.048  19.135  10.862
 7821W        W76039  32.231  25.016   2.487
 7822W        W76040  25.949  41.566  11.080
 7823W        W76041  28.597   3.252   4.987
 7824W        W76042  29.676  16.587  14.925
 7825W        W76043  18.795  41.367  13.894
 7826W        W76044  12.193  37.353   4.595
 7827W        W76045  38.024  15.734   1.376
 7828W        W76046  44.503  41.264  13.422
 7829W        W76047  24.761   0.071   4.137
 7830W        W76048   0.056  39.288   3.328
 7831W        W76049   1.536  29.598   3.662
 7832W        W76050   3.841  19.987  13.127
 7833W        W76051  17.363  42.897  14.321
 7834W        W76052  19.343  19.625  12.837
 7835W        W76053  41.626  40.337   5.003
 7836W        W76054   0.232  33.495   4.935
 7837W        W76055   4.144  14.488  12.920
 7838W        W76056  10.272   7.939   5.095
 7839W        W76057  18.303  39.538   0.830
 7840W        W76058  32.294   4.457   0.794
 7841W        W76059  18.174  41.952  14.846
 7842W        W76060   5.242  28.317  13.288
 7843W        W76061  12.704  38.882   4.192
 7844W        W76062  21.901  18.269   2.825
 7845W        W76063  24.540  31.210   2.431
 7846W        W76064  30.561  41.794   2.869
 7847W        W76065   5.891  42.211  13.061
 7848W        W76066  23.113  26.096  10.629
 7849W        W76067  20.045  28.482   4.752
 7850W        W76068   8.650  36.328   5.086
 7851W        W76069   1.262  27.575   2.240
 7852W        W76070  14.052  20.130  11.518
 7853W        W76071  25.789  31.341  14.319
 7854W        W76072  12.406   3.144  12.958
 7855W        W76073  16.473  33.466   3.461
 7856W        W76074  15.234   4.918   3.660
 7857W        W76075  12.325   3.340   4.533
 7858W        W76076   3.866   2.206   2.322
 7859W        W76077  18.261  16.330   2.699
 7860W        W76078  15.132  24.187  14.708
 7861W        W76079   7.402  38.843   0.217
 7862W        W76080   4.410   8.634  12.559
 7863W        W76081  22.536  29.982   4.705
 7864W        W76082  27.106  10.833  13.122
 7865W        W76083  23.663   6.689  14.025
 7866W        W76084   8.163   6.107   2.348
 7867W        W76085  28.518  24.386  14.030
 7868W        W76086  39.897   5.885   9.709
 7869W        W76087   2.963  13.817  11.595
 7870W        W76088   5.771   8.290  14.259
 7871W        W76089  25.755  41.652  11.697
 7872W        W76090  37.318  33.154  10.674
 7873W        W76091  31.671  35.427   4.399
 7874W        W76092  11.705  19.557   0.956
 7875W        W76093   1.476  24.720   4.829
 7876W        W76094  30.013  16.228  10.068
 7877W        W76095  24.857  41.530   3.151
 7878W        W76096   7.408  13.583  14.828
 7879W        W76097  28.010   1.531  13.854
 7880W        W76098  22.288  32.255  13.521
 7881W        W76099  20.990   5.369  11.462
 7882W        W76100  37.774  12.628  11.511
 7883W        W76101  21.995  13.396  14.997
 7884W        W76102   5.848  12.139   4.113
 7885W        W76103  27.424   1.258   0.516
 7886W        W76104   7.010  29.567  13.318
 7887W        W76105  35.926  43.730  13.322
 7888W        W76106   5.396  40.453   4.625
 7889W        W76107  41.468   8.168   1.416
 7890W        W76108  37.575   5.752  10.451
 7891W        W76109  17.997   2.478   2.321
 7892W        W76110  19.485  31.318  14.506
 7893W        W76111  20.289  16.668   1.828
 7894W        W76112  20.099  16.019  11.094
 7895W        W76113  21.667  36.331  14.261
 7896W        W76114  27.485  18.590  10.906
 7897W        W76115  34.962  36.545  13.854
 7898W        W76116  30.593  29.861  10.280
 7899W        W76117  24.769  42.274   4.458
 7900W        W76118  27.595  44.274  10.755
 7901W        W76119  10.618   3.747  11.579
 7902W        W76120  13.152   8.501  14.787
 7903W        W76121  13.278  33.174   4.133
 7904W        W76122  31.911  22.950  13.946
 7905W        W76123  41.360  17.812   4.843
 7906W        W76124  43.007  30.475   2.811
 7907W        W76125  31.588   6.427  13.705
 7908W        W76126  34.580  28.124   0.399
 7909W        W76127  44.828  17.618   4.588
 7910W        W76128  44.291  43.699  11.428
 7911W        W76129  31.228  28.841  11.494
 7912W        W76130   4.229  42.237   3.340
 7913W        W76131  39.022  19.032  11.529
 7914W        W76132  31.205  34.567  14.029
 7915W        W76133  10.889  12.855   0.879
 7916W        W76134  20.645  28.486   0.988
 7917W        W76135  13.642  32.123  11.933
 7918W        W76136  21.515  16.875   3.740
 7919W        W76137  24.919  35.830   1.484
 7920W        W76138  31.497  36.136  12.654
 7921W        W76139  12.259  44.475   4.995
 7922W        W76140  37.379  25.872  12.431
 7923W        W76141  31.570   7.176   0.276
 7924W        W76142   3.011   0.939   1.368
 7925W        W76143  36.013   5.169   2.542
 7926W        W76144  18.292  12.079   3.618
 7927W        W76145   8.264  37.591   1.239
 7928W        W76146  11.681  29.481   1.972
 7929W        W76147  18.796  12.219   4.487
 7930W        W76148  19.834  16.283   0.946
 7931W        W76149  14.948  35.657   2.259
 7932W        W76150  28.947  19.966  10.500
 7933W        W76151  23.587  44.981  11.705
 7934W        W76152  39.927  12.819   3.716
 7935W        W76153  28.268   7.211   4.227
 7936W        W76154   3.473  25.692   0.816
 7937W        W76155  36.274  35.427  12.068
 7938W        W76156  24.511  40.268  13.325
 7939W        W76157  20.479  13.664   0.467
 7940W        W76158   7.799   4.161  11.478
 7941W        W76159  23.459   5.128   2.807
 7942W        W76160  37.446  39.324   1.872
 7943W        W76161  33.599   4.521  12.585
 7944W        W76162  22.549   0.790  14.919
 7945W        W76163   6.863  19.610   4.146
 7946W        W76164  13.242   0.927  14.473
 7947W        W76165   1.618  36.956   4.529
 7948W        W76166  28.490   8.215   4.116
 7949W        W76167  21.791   6.796   1.857
 7950W        W76168  16.686   6.806   0.911
 7951W        W76169  23.576  20.123  14.296
 7952W        W76170  15.151  31.004  12.007
 7953W        W76171  27.644  31.583  13.360
 7954W        W76172  32.560  14.642  12.164
 7955W        W76173   0.712  44.623  13.672
 7956W        W76174  33.907  22.475  11.481
 7957W        W76175  33.017   3.876  13.904
 7958W        W76176  33.408  20.229   3.219
 7959W        W76177   4.595  23.202  10.320
 7960W        W76178  29.632  30.114  11.890
 7961W        W76179  16.109  40.996   0.906
 7962W        W76180  11.733  21.608  12.172
 7963W        W76181  32.377  24.455  13.512
 7964W        W76182  31.986  14.830  10.724
 7965W        W76183  23.546  35.333  11.572
 7966W        W76184  35.518  30.606  13.907
 7967W        W76185   4.028  33.039  10.700
 7968W        W76186  23.422   3.911   3.194
 7969W        W76187  14.387   6.870   0.416
 7970W        W76188   6.814  36.953  13.945
 7971W        W76189  39.438   8.162  12.510
 7972W        W76190  19.513   1.415  13.609
 7973W        W76191  35.399   1.730   0.207
 7974W        W76192  23.682   5.129   0.956
 7975W        W76193  39.915  19.610   1.940
 7976W        W76194   3.826  34.484  10.029
 7977W        W76195  37.545  10.383   1.632
 7978W        W76196  28.397  11.750   1.827
 7979W        W76197  21.641  36.973  13.916
 7980W        W76198  13.539  36.158  10.522
 7981W        W76199   9.775  33.169   4.739
 7982W        W76200  32.843  42.479  14.883
 7983W        W76201  26.701  26.135  12.518
 7984W        W76202   0.456  39.766   0.789
 7985W        W76203   8.208   8.814  13.890
 7986W        W76204   7.451  34.962   0.902
 7987W        W76205  19.105   7.876   3.847
 7988W        W76206   4.667  30.310   4.558
 7989W        W76207  39.284  10.260   2.339
 7990W        W76208  27.915  36.649  13.382
 7991W        W76209  22.553  44.467  11.740
 7992W        W76210  13.096  28.162  10.473
 7993W        W76211  31.775  26.618   1.765
 7994W        W76212  34.034   9.984  13.830
 7995W        W76213   0.846  36.165  12.437
 7996W        W76214  26.055  21.540  10.767
 7997W        W76215  16.156  38.028   1.991
 7998W        W76216  40.454  16.630   4.687
 7999W        W76217  20.614  10.494   1.358
 8000W        W76218   8.501   3.111   4.151
 8001W        W76219  28.212   1.471   4.861
 8002W        W76220  44.834  28.054  14.453
 8003W        W76221  42.292   7.609  11.632
 8004W        W76222  27.582  37.681  14.239
 8005W        W76223  13.221  19.109   2.250
 8006W        W76224  30.663  12.800   1.347
 8007W        W76225  39.467  10.967   0.779
 8008W        W76226  39.986   8.531   0.212
 8009W        W76227  32.511  41.052  11.952
 8010W        W76228   7.775  41.559  12.425
 8011W        W76229  31.962  22.145   1.247
 8012W        W76230  35.821  20.151   0.366
 8013W        W76231   4.020  31.010  11.221
 8014W        W76232  39.444  17.300   4.242
 8015W        W76233  10.233   3.873  12.922
 8016W        W76234  34.657  26.429   4.527
 8017W        W76235  11.865  31.822   0.272
 8018W        W76236  23.015  41.888  11.849
 8019W        W76237  28.978  19.319  12.759
 8020W        W76238  28.164  12.537   0.040
 8021W        W76239  26.104  43.502  10.602
 8022W        W76240  29.665   9.574   2.387
 8023W        W76241   6.503  44.982   5.086
 8024W        W76242   4.322  44.438  14.722
 8025W        W76243  30.517  11.646  12.951
 8026W        W76244  17.139  42.749   1.289
 8027W        W76245  22.907  14.148  13.480
 8028W        W76246  27.652   5.289  12.978
 8029W        W76247  34.151  31.010  14.790
 8030W        W76248  24.068  37.513  13.038
 8031W        W76249  31.489  37.926  11.961
 8032W        W76250  37.531   1.718  11.969
 8033W        W76251   9.397  43.490   3.615
 8034W        W76252  15.414  16.131   0.809
 8035W        W76253  11.384  23.147  11.665
 8036W        W76254  21.227   2.932   2.051
 8037W        W76255   6.719  27.092  12.540
 8038W        W76256  12.747  10.519   4.131
 8039W        W76257  39.727  35.510  13.478
 8040W        W76258  17.126  29.342   3.143
 8041W        W76259   4.156  17.322   3.790
 8042W        W76260  40.334  34.522   1.031
 8043W        W76261  18.241  11.025  14.766
 8044W        W76262   2.764  15.799   1.806
 8045W        W76263   3.993  32.978  14.865
 8046W        W76264  42.128  10.934  12.065
 8047W        W76265  39.305  19.196   1.645
 8048W        W76266  14.733  27.253   1.772
 8049W        W76267   0.819  15.994   3.586
 8050W        W76268  42.300  13.120  12.881
 8051W        W76269  34.897  13.299   3.230
 8052W        W76270  24.491  39.647   4.241
 8053W        W76271  12.709   4.811   4.803
 8054W        W76272  40.979  26.452   1.426
 8055W        W76273  31.714  24.980   2.457
 8056W        W76274  23.164  44.256   3.372
 8057W        W76275  38.146   1.014   0.377
 8058W        W76276  31.172  34.493   0.751
 8059W        W76277  22.266   0.160   0.456
 8060W        W76278  18.163  17.349   0.425
 8061W        W76279  35.360   9.814  12.430
 8062W        W76280  23.052  29.631   0.859
 8063W        W76281  31.551   6.300  12.752
 8064W        W76282   6.359  28.486   4.167
 8065W        W76283  37.004  32.112  12.831
 8066W        W76284   0.065  27.691  11.250
 8067W        W76285  30.012   4.764   3.898
 8068W        W76286  33.133  24.237  12.122
 8069W        W76287  30.935  19.195  14.386
 8070W        W76288   8.712  10.133  14.433
 8071W        W76289  22.030  37.545   5.205
 8072W        W76290  11.151  33.830   0.178
 8073W        W76291   2.272  14.791  10.818
 8074W        W76292   0.183   0.839  13.442
 8075W        W76293  44.022  22.119  10.701
 8076W        W76294  27.227  41.835   1.953
 8077W        W76295   3.244  33.001   0.352
 8078W        W76296  43.884  43.029   3.282
 8079W        W76297  38.602  36.430  14.946
 8080W        W76298  30.208  41.416   3.100
 8081W        W76299   1.133   9.628  12.576
 8082W        W76300  17.061  28.148   2.236
 8083W        W76301   5.316  44.844   4.075
 8084W        W76302  13.109  35.367  13.781
 8085W        W76303  15.714  11.694  10.582
 8086W        W76304  22.720   3.326   1.593
 8087W        W76305   5.921  32.062  14.796
 8088W        W76306   1.914  25.061   1.456
 8089W        W76307  35.373   7.469   0.251
 8090W        W76308   6.521  21.699   1.732
 8091W        W76309  17.965  31.910  10.713
 8092W        W76310   8.872   4.591   4.422
 8093W        W76311  18.476  11.626   4.178
 8094W        W76312  13.776  15.836   1.773
 8095W        W76313  14.358  28.101  11.583
 8096W        W76314   3.527  24.062   2.189
 8097W        W76315  19.163  26.456   0.074
 8098W        W76316   3.412  17.657  11.169
 8099W        W76317  35.994   9.140   4.213
 8100W        W76318  15.938  19.085  13.613
 8101W        W76319   0.912  33.913   4.870
 8102W        W76320  13.938  13.024   1.232
 8103W        W76321  20.447  34.816   3.628
 8104W        W76322   2.917  39.284  12.460
 8105W        W76323   8.763   1.937   1.936
 8106W        W76324   2.740  28.964   0.897
 8107W        W76325   2.637  25.917  13.696
 8108W        W76326  18.078  41.987   0.736
 8109W        W76327   1.828  32.445   0.553
 8110W        W76328  41.254  44.391  10.656
 8111W        W76329  22.476  25.218  13.024
 8112W        W76330   4.968  27.135   3.179
 8113W        W76331   6.802  25.721   4.107
 8114W        W76332  25.733  44.690   0.205
 8115W        W76333  24.614  23.969  13.241
 8116W        W76334   1.736  22.836   0.805
 8117W        W76335   7.801  43.487  12.912
 8118W        W76336   6.451  29.934  11.363
 8119W        W76337  28.563  24.544   3.182
 8120W        W76338  31.112  16.860   5.576
 8121W        W76339  34.142  40.413   0.690
 8122W        W76340  30.080   6.672  14.745
 8123W        W76341  35.842  16.441  11.520
 8124W        W76342  32.673  17.191  11.838
 8125W        W76343  35.910  33.598  12.518
 8126W        W76344   7.314  27.486   3.614
 8127W        W76345  12.246  25.210  11.293
 8128W        W76346   0.933  17.837  14.439
 8129W        W76347  12.095   7.810  14.329
 8130W        W76348   1.812  42.798  13.425
 8131W        W76349   7.611  18.953  12.502
 8132W        W76350  21.090   7.567   0.343
 8133W        W76351  13.240  32.846  13.560
 8134W        W76352  34.583  14.856  11.554
 8135W        W76353  21.578  17.047  11.313
 8136W        W76354   8.794  29.122  14.478
 8137W        W76355   2.499  37.789  12.455
 8138W        W76356  17.789  29.992  14.715
 8139W        W76357  28.078  32.661  10.893
 8140W        W76358  10.404   7.048  13.346
 8141W        W76359  23.756   1.722   1.389
 8142W        W76360  34.066   1.800  11.452
 8143W        W76361  32.825  27.919  12.968
 8144W        W76362  30.423  18.269  12.752
 8145W        W76363  44.898  31.854  13.830
 8146W        W76364  33.509  13.071  13.625
 8147W        W76365  23.300  11.244   2.334
 8148W        W76366  41.525  13.712  10.475
 8149W        W76367  31.125  40.533   1.741
 8150W        W76368  20.139  28.531  14.752
 8151W        W76369   7.485  35.050  13.056
 8152W        W76370  33.271  22.284  11.958
 8153W        W76371  42.209  25.126  12.802
 8154W        W76372  28.908  29.117  11.099
 8155W        W76373  24.932   1.172  12.952
 8156W        W76374  30.931  35.612  13.009
 8157W        W76375  24.541  40.595  12.929
 8158W        W76376  24.590   0.973   4.833
 8159W        W76377  24.619  11.911   1.582
 8160W        W76378  22.984  24.667  13.717
 8161W        W76379  16.930  11.979   4.613
 8162W        W76380  25.894  26.252  12.865
 8163W        W76381  41.436  35.651   3.535
 8164W        W76382  20.095   3.719   2.448
 8165W        W76383  24.769   0.275  13.427
 8166W        W76384  31.979  10.405  12.567
 8167W        W76385  29.554  38.239   4.262
 8168W        W76386  18.383   9.910   3.143
 8169W        W76387  41.337   3.774  11.626
 8170W        W76388  12.687  17.519  12.419
 8171W        W76389  36.581  11.186  13.924
 8172W        W76390   7.357  19.232  13.998
 8173W        W76391  40.013  26.557   4.583
 8174W        W76392  25.357  30.771  10.227
 8175W        W76393  28.447  34.045  11.666
 8176W        W76394  36.601   1.547  10.102
 8177W        W76395  26.489  27.583  14.356
 8178W        W76396  22.722  25.629  14.651
 8179W        W76397  10.839  15.286   3.988
 8180W        W76398  35.689  26.963  11.057
 8181W        W76399   3.928   0.411  11.861
 8182W        W76400  41.560  28.652   2.277
 8183W        W76401  31.973   8.434  12.883
 8184W        W76402   6.869  38.523  12.722
 8185W        W76403  19.554   1.291   4.125
 8186W        W76404  43.212   6.803  13.567
 8187W        W76405  16.889  30.380   0.886
 8188W        W76406  26.617  39.525  13.524
 8189W        W76407  41.907  24.708  13.221
 8190W        W76408  29.592  24.138   4.603
 8191W        W76409  22.111  11.924   1.277
 8192W        W76410  12.166  26.851   4.706
 8193W        W76411  10.733   4.157   3.424
 8194W        W76412  26.988  15.354  12.121
 8195W        W76413  36.627   3.201   0.985
 8196W        W76414   3.718  29.594   4.201
 8197W        W76415  21.980  40.844  14.974
 8198W        W76416  11.241  21.021  13.968
 8199W        W76417  29.187  44.292  13.250
 8200W        W76418   5.832   4.213   3.699
 8201W        W76419  19.918  28.686  11.611
 8202W        W76420  19.226   5.648   2.238
 8203W        W76421  13.477  20.771  11.956
 8204W        W76422  25.745  36.750  14.551
 8205W        W76423  24.484  17.401  11.515
 8206W        W76424   2.039  10.617  13.322
 8207W        W76425   9.653  31.515   0.896
 8208W        W76426  41.365  12.665   3.780
 8209W        W76427   0.250  15.534   1.965
 8210W        W76428  19.162  14.766   0.447
 8211W        W76429   2.329  28.033  13.856
 8212W        W76430  23.141  26.732   0.290
 8213W        W76431  23.896  15.664  11.120
 8214W        W76432  21.136  14.608  14.936
 8215W        W76433   3.437  43.646  13.320
 8216W        W76434  22.278   5.913   4.474
 8217W        W76435  25.157  22.670   1.050
 8218W        W76436   7.221  33.876   1.892
 8219W        W76437  10.832   9.688  13.931
 8220W        W76438  31.116  39.897  10.939
 8221W        W76439  42.198  14.400  12.538
 8222W        W76440  10.701  36.940  10.654
 8223W        W76441  26.663  40.471   2.151
 8224W        W76442  37.966  10.423  11.873
 8225W        W76443  28.970  40.821  11.647
 8226W        W76444  15.828  11.407  14.329
 8227W        W76445  43.567  17.769  14.191
 8228W        W76446   7.729  39.317   1.218
 8229W        W76447  28.568  12.279  11.105
 8230W        W76448   8.264  18.770   3.665
 8231W        W76449  36.287  16.375   2.489
 8232W        W76450  15.626  39.915   4.725
 8233W        W76451  41.877   2.073   2.409
 8234W        W76452  28.858  32.364   0.889
 8235W        W76453  27.057  41.914   1.448
 8236W        W76454  17.783  39.926  13.209
 8237W        W76455  39.027  32.555  10.039
 8238W        W76456  39.982  34.954   3.802
 8239W        W76457  36.043   7.315  10.807
 8240W        W76458  44.988  17.595  13.594
 8241W        W76459  32.050  35.507  13.431
 8242W        W76460  38.091   0.167   2.383
 8243W        W76461   9.938  34.986   0.074
 8244W        W76462  38.137   2.229   3.559
 8245W        W76463  26.261   9.560  11.969
 8246W        W76464  14.986   1.312  14.292
 8247W        W76465  37.037  25.941   2.199
 8248W        W76466   0.379   7.426   2.078
 8249W        W76467  11.157   1.442   2.908
 8250W        W76468  19.566  19.013   1.710
 8251W        W76469  27.936  33.480  12.152
 8252W        W76470  32.226   8.209  12.497
 8253W        W76471  23.692  44.273  10.484
 8254W        W76472  30.480  18.066  13.241
 8255W        W76473  20.682  29.480   1.125
 8256W        W76474  28.215  16.267  11.080
 8257W        W76475  35.106  43.953   0.929
 8258W        W76476  41.481  15.275  14.785
 8259W        W76477  12.639  19.816   3.664
 8260W        W76478  10.158   2.216  14.515
 8261W        W76479   1.907  38.571  12.946
 8262W        W76480  39.545   3.964   1.320
 8263W        W76481  43.960   9.156  11.219
 8264W        W76482  13.690  40.026   3.248
 8265W        W76483  33.649  16.561  13.833
 8266W        W76484  31.144  23.768  13.539
 8267W        W76485  39.286  19.706   3.755
 8268W        W76486   1.189  25.502  11.979
 8269W        W76487  14.117  34.269   3.270
 8270W        W76488  38.583  30.013   4.760
 8271W        W76489  44.964  15.199   0.810
 8272W        W76490  11.589  14.222  11.111
 8273W        W76491  33.664  34.867  14.863
 8274W        W76492  12.633  40.917   1.768
 8275W        W76493  23.137  42.839  10.678
 8276W        W76494  42.339  28.463   3.639
 8277W        W76495  38.971   4.403   2.568
 8278W        W76496  31.873  35.267   0.690
 8279W        W76497  41.514  24.185  14.505
 8280W        W76498  36.938  17.688  13.234
 8281W        W76499  29.493  33.450  11.241
 8282W        W76500   6.914  40.928   3.118
 8283W        W76501  19.775  44.455  13.079
 8284W        W76502  39.939   5.309  11.080
 8285W        W76503   6.215  35.892   4.152
 8286W        W76504  21.803   2.252   4.333
 8287W        W76505  34.853  16.273   4.629
 8288W        W76506  10.262  11.808  12.860
 8289W        W76507  36.536  13.086  12.899
 8290W        W76508  39.547   3.007   2.299
 8291W        W76509  35.506  31.959   2.335
 8292W        W76510  42.496  24.689  12.911
 8293W        W76511  14.582  14.869  10.657
 8294W        W76512  15.989  17.752   3.769
 8295W        W76513   1.884  44.600  12.215
 8296W        W76514   1.248  27.131   2.504
 8297W        W76515  23.568  32.054   4.910
 8298W        W76516  10.236   3.309   4.623
 8299W        W76517  32.991   4.517  12.522
 8300W        W76518  37.436  23.980   1.439
 8301W        W76519  40.909   2.259   3.199
 8302W        W76520  37.856  32.109  12.021
 8303W        W76521  23.212  26.967  13.430
 8304W        W76522  14.226   3.039   1.306
 8305W        W76523  40.536  35.116   0.008
 8306W        W76524   2.441  20.589  10.770
 8307W        W76525   1.754  11.141   1.882
 8308W        W76526  31.042   0.897   4.349
 8309W        W76527  24.056   0.243   0.766
 8310W        W76528   8.951  33.932  14.733
 8311W        W76529  27.880  33.720   3.116
 8312W        W76530  28.032  38.273   1.964
 8313W        W76531  25.755   5.992   1.111
 8314W        W76532  43.383  43.085  11.682
 8315W        W76533   1.943  12.105   3.035
 8316W        W76534  28.640  28.628  14.975
 8317W        W76535  33.212  23.625  11.557
 8318W        W76536  12.709  31.176   2.094
 8319W        W76537   6.778   4.426  10.684
 8320W        W76538  30.534  16.082   0.315
 8321W        W76539  11.031  22.121  11.573
 8322W        W76540  13.558   0.343  13.799
 8323W        W76541   2.167  14.822  14.450
 8324W        W76542  15.777  19.209   4.791
 8325W        W76543   9.253  39.900   3.163
 8326W        W76544  24.903   2.456   1.771
 8327W        W76545   9.282  20.287   0.743
 8328W        W76546  42.512  29.227   3.202
 8329W        W76547  29.864  29.634   0.784
 8330W        W76548  28.224   9.325   0.362
 8331W        W76549  34.655  44.015  14.763
 8332W        W76550  41.970  11.228   3.169
 8333W        W76551  12.895  34.133  14.826
 8334W        W76552  20.297  15.234   4.208
 8335W        W76553   7.686   0.403  12.630
 8336W        W76554  18.703   9.072  10.474
 8337W        W76555  15.010  10.902  13.562
 8338W        W76556  34.839   1.994   1.217
 8339W        W76557  18.509  24.198  14.845
 8340W        W76558  25.557  42.026   4.657
 8341W        W76559  37.863  15.451  11.445
 8342W        W76560  31.580  40.715   1.989
 8343W        W76561  28.243   5.814   4.375
 8344W        W76562  36.963   9.549  14.916
 8345W        W76563  13.576  38.310  13.049
 8346W        W76564  39.389  21.990  14.027
 8347W        W76565  21.657  16.755   2.502
 8348W        W76566  27.511  14.162   5.422
 8349W        W76567  24.611   8.824   4.496
 8350W        W76568  26.184  21.703   0.799
 8351W        W76569  21.649  31.122   3.782
 8352W        W76570  21.767   9.494   4.287
 8353W        W76571  23.244  17.311  13.947
 8354W        W76572  12.701  20.216   1.025
 8355W        W76573  42.198  26.336  14.228
 8356W        W76574  20.795  25.221  12.442
 8357W        W76575  19.663  19.408   4.265
 8358W        W76576  18.191  31.446   1.268
 8359W        W76577  31.119  29.939  14.034
 8360W        W76578  34.417  25.967   4.544
 8361W        W76579   6.588  33.652   0.244
 8362W        W76580  27.773  24.662   5.110
 8363W        W76581  21.518   3.376  11.461
 8364W        W76582  26.150   5.136  14.940
 8365W        W76583  25.137  17.826  11.999
 8366W        W76584  27.382  12.835   0.429
 8367W        W76585  24.127  24.400   1.044
 8368W        W76586   9.880  20.188  10.683
 8369W        W76587  35.458  13.462  13.245
 8370W        W76588  29.840  38.005   1.003
 8371W        W76589  10.621  10.751  13.569
 8372W        W76590  17.832  25.233  11.977
 8373W        W76591  24.375  33.986  13.608
 8374W        W76592   6.734   7.520   0.710
 8375W        W76593  16.315  16.267   4.071
 8376W        W76594   0.323  26.892  12.070
 8377W        W76595  33.815  22.657  13.967
 8378W        W76596   5.781  30.735   0.414
 8379W        W76597  26.564  44.352   1.243
 8380W        W76598  28.081  18.155   0.765
 8381W        W76599  35.553  35.285   0.448
 8382W        W76600   9.606   2.865  11.538
 8383W        W76601  13.118  36.158  14.794
 8384W        W76602  16.645  41.980   1.159
 8385W        W76603  29.070  44.323  10.639
 8386W        W76604  11.226   8.202  11.526
 8387W        W76605  43.290  22.473   4.957
 8388W        W76606  31.394  19.445   3.676
 8389W        W76607  40.563   6.097   3.950
 8390W        W76608   6.189  40.242   0.863
 8391W        W76609  32.129  30.480   0.377
 8392W        W76610  39.608  30.288   0.474
 8393W        W76611   7.146  37.525   0.082
 8394W        W76612  25.947  17.459   0.334
 8395W        W76613   0.744  27.962  14.531
 8396W        W76614  22.187  39.017   2.175
 8397W        W76615  10.427  30.833   3.714
 8398W        W76616   3.504  30.047   3.171
 8399W        W76617  31.042   6.427  11.591
 8400W        W76618  31.673   4.742  12.148
 8401W        W76619  20.787   1.194  11.598
 8402W        W76620  27.020   7.922   4.257
 8403W        W76621  33.963  25.948   4.818
 8404W        W76622  38.021  14.258   0.309
 8405W        W76623  36.489  43.778  12.863
 8406W        W76624  27.429  35.526  13.964
 8407W        W76625  34.929   9.962  10.666
 8408W        W76626  29.373  33.428  12.214
 8409W        W76627   9.865  28.194  14.786
 8410W        W76628  18.839  20.078  12.583
 8411W        W76629   2.416  37.658   1.889
 8412W        W76630  19.582  17.043  14.938
 8413W        W76631  40.399  16.253  12.722
 8414W        W76632   8.842  41.584   3.726
 8415W        W76633  15.036   2.901  11.513
 8416W        W76634   8.996   1.485   1.807
 8417W        W76635   2.195   8.071   0.921
 8418W        W76636   1.495   0.953  11.693
 8419W        W76637  31.775  18.708  14.770
 8420W        W76638  37.926   6.502  14.921
 8421W        W76639   7.013   5.677   1.137
 8422W        W76640  10.217  30.905  11.983
 8423W        W76641  36.042  10.631   2.913
 8424W        W76642   6.187  39.802  12.536
 8425W        W76643  31.678  14.391  11.591
 8426W        W76644   7.915  32.167  12.844
 8427W        W76645  40.354  28.434  10.491
 8428W        W76646   7.896   7.943   2.272
 8429W        W76647  22.484   0.842  11.095
 8430W        W76648  40.619  21.690   3.013
 8431W        W76649   0.854   6.792   1.479
 8432W        W76650  16.522  28.492  14.458
 8433W        W76651  40.772   0.368  13.827
 8434W        W76652  44.331   7.849  12.406
 8435W        W76653  21.595  15.774  13.915
 8436W        W76654  33.106  29.213   5.145
 8437W        W76655  18.103  32.530  11.876
 8438W        W76656  34.527   2.607  12.743
 8439W        W76657  39.474   2.257  12.902
 8440W        W76658  19.212   9.244   1.805
 8441W        W76659  22.947  24.522   2.298
 8442W        W76660  19.936  11.600   3.248
 8443W        W76661  39.947  17.847   1.212
 8444W        W76662  16.378  35.530  12.962
 8445W        W76663  28.843   8.731   2.789
 8446W        W76664  37.918  20.167  10.650
 8447W        W76665  42.497  14.826  13.984
 8448W        W76666  11.114  17.801  14.029
 8449W        W76667  40.100  40.422  10.707
 8450W        W76668  27.660  38.746  14.367
 8451W        W76669  23.086  44.896  12.987
 8452W        W76670  30.598   8.114  14.860
 8453W        W76671  19.991  16.232  10.648
 8454W        W76672   4.864  29.512  10.625
 8455W        W76673   1.823   2.613   0.256
 8456W        W76674  23.831  43.181   3.708
 8457W        W76675  21.167  17.965  12.155
 8458W        W76676  24.516   7.733  13.820
 8459W        W76677  24.947   9.207   0.831
 8460W        W76678  36.070  29.602  14.913
 8461W        W76679  24.395  13.026  12.056
 8462W        W76680   9.351  30.858   2.607
 8463W        W76681  18.186  11.783  10.803
 8464W        W76682  36.357   3.000  12.849
 8465W        W76683  27.117  23.248   1.844
 8466W        W76684  30.895  27.774  14.042
 8467W        W76685  34.048  38.008   4.588
 8468W        W76686  31.766  36.893  14.701
 8469W        W76687  22.512   2.208   0.849
 8470W        W76688  26.169  16.294   0.400
 8471W        W76689  32.405  43.718   2.796
 8472W        W76690  31.484  30.601   3.111
 8473W        W76691  38.038   8.345  14.840
 8474W        W76692  44.413  18.180  14.371
 8475W        W76693  28.262  11.490   3.656
 8476W        W76694  42.454  29.100  13.485
 8477W        W76695   0.630  13.925  11.179
 8478W        W76696   8.335  19.482   0.182
 8479W        W76697  27.102  20.661  13.304
 8480W        W76698  37.700  36.319   2.804
 8481W        W76699   1.921  44.770  14.397
 8482W        W76700   1.877   8.706  12.139
 8483W        W76701   9.901  44.042  12.053
 8484W        W76702  41.674  27.282   0.119
 8485W        W76703  42.183   8.423   2.134
 8486W        W76704  30.189   1.464  11.528
 8487W        W76705  44.902   2.243  13.326
 8488W        W76706  36.829  24.501   2.077
 8489W        W76707  28.861  21.235   4.521
 8490W        W76708   8.420  39.125  14.355
 8491W        W76709  12.623   2.673  12.138
 8492W        W76710   3.720  16.706  11.979
 8493W        W76711  32.987  30.960  11.412
 8494W        W76712   0.036  37.894  12.490
 8495W        W76713  27.169  17.708  14.729
 8496W        W76714  41.927  21.607   3.445
 8497W        W76715   7.936  20.206   4.667
 8498W        W76716  33.037  36.118  14.357
 8499W        W76717  13.531  21.438  12.674
 8500W        W76718  30.406   1.726  12.552
 8501W        W76719  42.871  42.005   1.907
 8502W        W76720   2.861   3.296   0.336
 8503W        W76721  32.786   8.920  12.885
 8504W        W76722  22.448  40.359   3.704
 8505W        W76723  33.831  25.673  14.909
 8506W        W76724  21.989  23.011   3.705
 8507W        W76725  36.724   3.969  12.971
 8508W        W76726  42.378   0.318   3.677
 8509W        W76727  30.515  26.098   0.707
 8510W        W76728  22.104  33.673   2.921
 8511W        W76729  41.815  25.086   2.222
 8512W        W76730  39.465  19.220   3.635
 8513W        W76731   2.419  17.114   3.275
 8514W        W76732  39.855  36.358  13.159
 8515W        W76733  16.748  16.126  11.515
 8516W        W76734  37.564  33.589  10.776
 8517W        W76735   2.529  28.400   2.760
 8518W        W76736  20.468   2.400  11.144
 8519W        W76737  24.228  25.165  11.664
 8520W        W76738  15.570  41.858  10.379
 8521W        W76739  33.484   5.771  10.613
 8522W        W76740  36.147   0.420  14.022
 8523W        W76741  34.825  30.508  12.147
 8524W        W76742  26.494  19.010   1.743
 8525W        W76743   6.530  37.071  14.346
 8526W        W76744   5.202   7.878  12.164
 8527W        W76745   2.538  33.471   0.830
 8528W        W76746   3.410  35.890   2.698
 8529W        W76747  37.528  40.909   4.807
 8530W        W76748  18.033   5.765   2.691
 8531W        W76749  10.256  31.275  13.774
 8532W        W76750   8.350  31.827  10.596
 8533W        W76751  32.052  22.215  11.426
 8534W        W76752   9.229  11.660   4.123
 8535W        W76753  20.750   0.044   3.106
 8536W        W76754  41.116  22.013  13.772
 8537W        W76755  26.069  29.549   2.855
 8538W        W76756  20.698  16.831   3.535
 8539W        W76757  42.841  19.132   3.734
 8540W        W76758  14.627  18.484  11.647
 8541W        W76759   6.643  20.648   3.693
 8542W        W76760  36.069   2.313   1.168
 8543W        W76761   1.410  37.861  11.014
 8544W        W76762  20.078  28.015  14.780
 8545W        W76763  29.691  39.406   4.559
 8546W        W76764  19.257  34.993  14.682
 8547W        W76765  28.959  44.977  12.563
 8548W        W76766  32.627  36.567   1.734
 8549W        W76767  38.022  26.974  11.947
 8550W        W76768  29.670  35.699  14.387
 8551W        W76769   9.346   0.348  14.876
 8552W        W76770  30.613  16.269  11.402
 8553W        W76771  23.698  12.773  12.825
 8554W        W76772  22.552  42.710  14.188
 8555W        W76773   1.823  18.781  11.635
 8556W        W76774  35.557  37.145  14.242
 8557W        W76775   9.679  43.899   3.574
 8558W        W76776  40.891  22.047   1.915
 8559W        W76777   2.256   9.147   3.395
 8560W        W76778   5.323  26.762   1.445
 8561W        W76779  34.259  26.096  13.881
 8562W        W76780  13.251  37.271  11.109
 8563W        W76781  21.688   5.275  12.488
 8564W        W76782  32.706  22.660  10.989
 8565W        W76783  16.031   3.926  12.923
 8566W        W76784  12.174  26.279  14.521
 8567W        W76785  18.852  30.524   4.728
 8568W        W76786  10.316  31.622  13.124
 8569W        W76787  42.610  36.387   4.631
 8570W        W76788   9.654  25.577   2.152
 8571W        W76789  21.279  40.977  13.343
 8572W        W76790  13.632  28.681   4.351
 8573W        W76791  18.294  15.823  12.104
 8574W        W76792  24.280   8.296   2.832
 8575W        W76793  39.026   5.660  14.876
 8576W        W76794  32.321   5.377  14.843
 8577W        W76795   8.109  12.361  14.994
 8578W        W76796  13.035   2.843   0.355
 8579W        W76797  42.290  39.517   1.350
 8580W        W76798  27.117  37.535   1.415
 8581W        W76799  21.983  23.965  12.196
 8582W        W76800  44.878  41.177   1.487
 8583W        W76801  37.970  16.118   3.711
 8584W        W76802  25.515  23.704  13.775
 8585W        W76803  24.739  25.154   4.699
 8586W        W76804  12.664  20.135   4.056
 8587W        W76805  36.644  35.282   0.495
 8588W        W76806  43.332  27.024  14.506
 8589W        W76807  35.272  38.665   3.614
 8590W        W76808  29.102  29.972  13.946
 8591W        W76809   5.398  38.400   2.834
 8592W        W76810  20.090  40.061   4.737
 8593W        W76811   8.657   6.279   2.356
 8594W        W76812  31.423   4.294  12.094
 8595W        W76813  29.387  34.588   0.511
 8596W        W76814  32.859  37.063  12.636
 8597W        W76815   8.720  42.676  14.829
 8598W        W76816   5.694   8.418   0.889
 8599W        W76817  27.526  37.260  12.609
 8600W        W76818  36.785  29.413  12.025
 8601W        W76819   5.594  13.983  12.645
 8602W        W76820  11.188  39.922  12.176
 8603W        W76821  35.028  32.218   4.497
 8604W        W76822  44.781  19.338   4.242
 8605W        W76823  20.084  40.384  13.103
 8606W        W76824  38.460  37.860  12.081
 8607W        W76825  20.614   2.791   4.619
 8608W        W76826   8.121  22.541   2.440
 8609W        W76827  33.966  44.276   2.688
 8610W        W76828  37.369   0.861  11.973
 8611W        W76829  25.878  39.760   2.428
 8612W        W76830  31.456  42.214  13.104
 8613W        W76831  25.175  14.859  11.498
 8614W        W76832  25.996  25.950   0.507
 8615W        W76833  41.860  26.688   5.028
 8616W        W76834   3.033  22.917  11.499
 8617W        W76835  40.553  27.095   0.833
 8618W        W76836  36.282  15.853   2.745
 8619W        W76837  30.174   9.938  12.440
 8620W        W76838  24.235  31.971  10.521
 8621W        W76839  28.879  44.306  11.467
 8622W        W76840  18.635   7.923   1.401
 8623W        W76841  38.110  38.083  11.133
 8624W        W76842  17.209   2.645  12.311
 8625W        W76843  27.463  29.378  13.903
 8626W        W76844   3.313   7.259   1.276
 8627W        W76845  24.963  11.397   4.584
 8628W        W76846  22.026  15.342  11.348
 8629W        W76847   4.402  11.807  11.531
 8630W        W76848  42.556  30.382  14.322
 8631W        W76849  21.637  11.724   4.583
 8632W        W76850  15.187  40.786  14.289
 8633W        W76851   4.876  23.716  14.394
 8634W        W76852  16.372  15.461  11.707
 8635W        W76853  23.106  14.103   5.053
 8636W        W76854  42.871  12.299   1.693
 8637W        W76855  17.076  42.521  12.803
 8638W        W76856  12.793   5.442   0.956
 8639W        W76857   5.923  21.073   4.989
 8640W        W76858  44.248  44.952  14.169
 8641W        W76859  41.661  20.893  13.268
 8642W        W76860  31.533   6.929   1.947
 8643W        W76861  28.943  40.281   2.739
 8644W        W76862  15.110   1.203  12.441
 8645W        W76863  42.593  28.578   0.936
 8646W        W76864  13.053  38.784   1.244
 8647W        W76865   5.773  35.364  12.591
 8648W        W76866  38.766  32.450   3.193
 8649W        W76867  14.329   0.252   1.366
 8650W        W76868  13.699   2.728   3.606
 8651W        W76869  42.139  28.257  13.073
 8652W        W76870  38.644  12.014  14.533
 8653W        W76871  14.698  19.271   1.285
 8654W        W76872  38.169  14.359  12.457
 8655W        W76873   0.344  11.094   4.501
 8656W        W76874   4.113   4.602  11.249
 8657W        W76875  43.987   6.101  12.672
 8658W        W76876  21.799  25.102   3.918
 8659W        W76877  16.169  39.867  12.406
 8660W        W76878   4.449  25.182   1.835
 8661W        W76879   3.447   0.494  14.881
 8662W        W76880  14.975  13.215   4.967
 8663W        W76881  30.402  29.175   0.012
 8664W        W76882  34.924  25.427   1.376
 8665W        W76883  18.009  30.508  13.498
 8666W        W76884   5.964  28.904   0.959
 8667W        W76885  43.600  38.340  14.295
 8668W        W76886  20.650  16.367  13.064
 8669W        W76887  25.768   3.941   4.699
 8670W        W76888   5.289  18.723   1.498
 8671W        W76889  38.496   2.435   0.353
 8672W        W76890   4.381  28.997   4.310
 8673W        W76891  18.185  43.682   0.265
 8674W        W76892  34.077   0.908   2.715
 8675W        W76893  10.174  39.620  14.226
 8676W        W76894   1.037  30.667  13.953
 8677W        W76895  22.651   2.930   2.003
 8678W        W76896  36.134  10.185   1.025
 8679W        W76897  29.899  26.033   2.385
 8680W        W76898  18.979   3.260  12.065
 8681W        W76899  15.002  10.194  12.459
 8682W        W76900  42.909  12.395   0.643
 8683W        W76901  41.493   9.621   4.565
 8684W        W76902  23.480  42.368  11.973
 8685W        W76903  12.778  27.678   0.191
 8686W        W76904   6.836   8.396   3.892
 8687W        W76905  36.869   8.624   2.836
 8688W        W76906  30.636  12.983  13.734
 8689W        W76907  21.246  39.875   4.720
 8690W        W76908  25.022  36.179  12.567
 8691W        W76909  40.465  20.190   0.658
 8692W        W76910  17.817  19.707   4.104
 8693W        W76911  17.280  34.549  13.009
 8694W        W76912  25.725  30.650  13.726
 8695W        W76913  25.766  19.752   0.322
 8696W        W76914  17.386  30.375  11.108
 8697W        W76915  21.781   7.302   1.666
 8698W        W76916   7.046   3.216  12.484
 8699W        W76917   7.921  14.773  13.349
 8700W        W76918  14.357   4.704   0.928
 8701W        W76919  38.572  44.423  12.575
 8702W        W76920  29.027   9.703  10.854
 8703W        W76921  27.112  26.938  12.941
 8704W        W76922  39.319  27.928  13.905
 8705W        W76923  30.445   7.250  14.587
 8706W        W76924  32.058  21.791   2.439
 8707W        W76925   6.607  39.027  10.365
 8708W        W76926  11.976  20.653   4.240
 8709W        W76927  40.060  36.875  13.844
 8710W        W76928  12.736  17.033  10.596
 8711W        W76929  25.516  15.879   4.410
 8712W        W76930  37.399  22.164   1.587
 8713W        W76931   6.324   7.526   1.815
 8714W        W76932  17.290   6.253   4.511
 8715W        W76933  17.871  10.437   2.606
 8716W        W76934  28.752  24.616   5.339
 8717W        W76935  39.435  13.356   1.860
 8718W        W76936   0.249  16.091  10.484
 8719W        W76937  36.897  20.812   1.118
 8720W        W76938  29.204  27.608  14.984
 8721W        W76939  18.579  35.583  13.433
 8722W        W76940  26.372  44.824   2.777
 8723W        W76941  41.896   1.114   1.282
 8724W        W76942   9.489  10.291  13.522
 8725W        W76943  29.081   4.503   2.255
 8726W        W76944  43.295  35.485  12.788
 8727W        W76945  34.401  17.229  10.638
 8728W        W76946  21.138  13.022  14.364
 8729W        W76947  23.973   4.677   0.469
 8730W        W76948  31.495  35.909   4.481
 8731W        W76949  21.602  23.395  11.705
 8732W        W76950  19.080  40.877   4.839
 8733W        W76951  10.264  22.792   3.639
 8734W        W76952  39.388  21.336  11.368
 8735W        W76953  15.062   4.842   0.434
 8736W        W76954  14.290  39.981  13.663
 8737W        W76955   2.032  11.771  12.418
 8738W        W76956  10.374   9.686  14.969
 8739W        W76957  28.060  26.691   2.777
 8740W        W76958  23.451  14.815  13.418
 8741W        W76959  33.023   7.658   2.959
 8742W        W76960  20.706  10.301  14.819
 8743W        W76961  10.219  18.231   1.739
 8744W        W76962  39.838   1.838  12.498
 8745W        W76963  36.500  16.613  10.796
 8746W        W76964  15.724   0.253  12.169
 8747W        W76965   0.775  16.757   3.862
 8748W        W76966  27.605  33.713   0.807
 8749W        W76967  29.115  28.730   0.911
 8750W        W76968  34.303  32.812   3.903
 8751W        W76969  24.569  23.464  13.418
 8752W        W76970  28.491  36.323   0.549
 8753W        W76971  40.708   2.315   5.105
 8754W        W76972  21.158   9.235  12.883
 8755W        W76973  19.947   5.870   0.988
 8756W        W76974  15.262  33.141   1.442
 8757W        W76975  17.477   8.697   0.010
 8758W        W76976   6.727  10.191  13.438
 8759W        W76977  35.241   0.887  13.075
 8760W        W76978  37.744  25.768  10.805
 8761W        W76979  12.576   9.462   2.790
 8762W        W76980  14.728  17.280  10.589
 8763W        W76981  39.565  20.101   4.547
 8764W        W76982   8.743  28.532  10.943
 8765W        W76983  25.486  15.034   2.216
 8766W        W76984  43.034  25.193  10.907
 8767W        W76985  31.606  29.902   2.423
 8768W        W76986  11.543  22.792  14.259
 8769W        W76987   5.917  28.855  12.063
 8770W        W76988  39.525  41.033  11.341
 8771W        W76989  24.367  31.527   2.847
 8772W        W76990  25.223  26.637   4.627
 8773W        W76991  19.877  15.726  13.247
 8774W        W76992  23.438  37.819  14.821
 8775W        W76993  21.273  31.111  12.552
 8776W        W76994  30.349  31.085   0.261
 8777W        W76995  31.135  32.919  14.333
 8778W        W76996  15.521  44.528   3.219
 8779W        W76997  14.631  12.226   0.448
 8780W        W76998   7.861  12.254   2.338
 8781W        W76999  44.738  28.179   3.447
 8782W        W77000  34.126  24.487  13.442
 8783W        W77001  31.038  30.068  10.466
 8784W        W77002  18.663   8.228   4.916
 8785W        W77003  36.974  38.643   4.132
 8786W        W77004   4.929  30.459   0.619
 8787W        W77005  31.877   8.722  13.409
 8788W        W77006  32.388   0.323   0.347
 8789W        W77007  28.951   6.516  14.852
 8790W        W77008  41.600  16.036  13.475
 8791W        W77009  23.542   7.921  14.221
 8792W        W77010  17.547  17.245   0.769
 8793W        W77011  13.540  17.653   4.574
 8794W        W77012  43.163  40.371   2.678
 8795W        W77013   9.279   2.380   2.200
 8796W        W77014  18.274  31.496  10.751
 8797W        W77015  31.255   9.765  13.981
 8798W        W77016  29.384  13.071  12.543
 8799W        W77017  21.517  10.811  13.486
 8800W        W77018   3.037  24.177  13.478
 8801W        W77019  34.369  31.899  11.014
 8802W        W77020  13.664   8.611   3.678
 8803W        W77021  40.811  24.252   0.894
 8804W        W77022  43.346  40.517   4.716
 8805W        W77023   5.304   8.115  13.502
 8806W        W77024  28.435  33.805   2.335
 8807W        W77025  42.858  19.134   0.041
 8808W        W77026  28.540  23.221  11.512
 8809W        W77027  40.886  43.403  10.688
 8810W        W77028  11.891  24.932   2.563
 8811W        W77029  41.929  21.756  14.366
 8812W        W77030  44.109  37.612  12.051
 8813W        W77031  38.669  43.033  14.808
 8814W        W77032  16.582  34.483  13.860
 8815W        W77033   5.445  35.541  11.114
 8816W        W77034   7.381  12.769   3.714
 8817W        W77035  25.251  26.994   0.366
 8818W        W77036  44.857  25.023  13.371
 8819W        W77037  43.869  37.625  14.041
 8820W        W77038  18.773  39.433  10.296
 8821W        W77039  37.096  23.867   0.807
 8822W        W77040   8.336  12.943   4.539
 8823W        W77041  30.881  26.693   4.145
 8824W        W77042  20.795  32.945   2.339
 8825W        W77043  33.536  40.775  13.839
 8826W        W77044  33.894   0.643   3.112
 8827W        W77045  34.054  28.746  14.798
 8828W        W77046   8.753  25.777  13.539
 8829W        W77047  17.937  38.854   2.882
 8830W        W77048  41.034  16.419  14.160
 8831W        W77049  18.121  30.119   2.420
 8832W        W77050  11.070  42.652   1.678
 8833W        W77051   4.163  25.563  12.564
 8834W        W77052  31.802  40.286   1.090
 8835W        W77053  27.284  11.173   3.719
 8836W        W77054  19.721   5.366   1.412
 8837W        W77055  38.999  12.309  10.649
 8838W        W77056  35.422  20.589  12.512
 8839W        W77057  12.719  38.054   0.498
 8840W        W77058   1.468  16.774   2.095
 8841W        W77059  11.206  44.897  14.266
 8842W        W77060  30.906   5.741   2.234
 8843W        W77061  41.938  36.970  12.940
 8844W        W77062  41.071   3.889   2.663
 8845W        W77063  27.949  26.435  14.915
 8846W        W77064  27.417  34.895  14.966
 8847W        W77065  16.810  38.475  10.589
 8848W        W77066   8.251  21.049   4.579
 8849W        W77067   9.691  12.413  11.415
 8850W        W77068  17.677  29.809   4.556
 8851W        W77069  24.455   6.651  14.891
 8852W        W77070   8.228  18.433  11.034
 8853W        W77071  34.652  44.556   1.656
 8854W        W77072   7.773  18.326   4.576
 8855W        W77073   6.619   7.156   4.552
 8856W        W77074  23.131  26.359  11.608
 8857W        W77075  15.336  25.478   0.731
 8858W        W77076  34.970  34.639   4.667
 8859W        W77077  39.370   6.118  13.917
 8860W        W77078  39.399  22.969   0.289
 8861W        W77079   8.693  20.032  13.995
 8862W        W77080   5.899  32.658   4.571
 8863W        W77081   4.154  32.488   2.748
 8864W        W77082  32.503  31.019  14.281
 8865W        W77083  34.538   8.841  13.629
 8866W        W77084  26.600  28.408   0.871
 8867W        W77085  21.250  26.674  11.410
 8868W        W77086   0.802  37.977   1.820
 8869W        W77087  22.254  39.356   1.738
 8870W        W77088   6.899   1.691   2.274
 8871W        W77089  38.526   9.457   1.737
 8872W        W77090  31.257  22.002   3.994
 8873W        W77091   7.951  19.507   4.086
 8874W        W77092  41.697  14.656   4.063
 8875W        W77093  16.750  12.929   0.447
 8876W        W77094  24.232   1.424   1.320
 8877W        W77095  14.760  39.341   4.759
 8878W        W77096   0.596   8.654   3.355
 8879W        W77097  16.236  21.415   4.719
 8880W        W77098   6.633  32.428   3.267
 8881W        W77099  16.607  32.432   4.567
 8882W        W77100  13.886  25.703   4.172
 8883W        W77101   1.904  14.803  11.753
 8884W        W77102  13.619   4.295   0.800
 8885W        W77103  14.564  26.116  13.595
 8886W        W77104  44.974  15.348   1.289
 8887W        W77105  33.604  28.115  11.689
 8888W        W77106   6.980  35.393   1.530
 8889W        W77107  41.538  39.878  14.969
 8890W        W77108  11.600  42.286   4.911
 8891W        W77109  25.083  19.173  12.769
 8892W        W77110   0.717  21.665  12.874
 8893W        W77111  15.616  37.956   3.819
 8894W        W77112  25.125   8.824  13.510
 8895W        W77113  16.316  38.528   3.752
 8896W        W77114   6.133  13.975  13.433
 8897W        W77115  17.730  22.970   0.005
 8898W        W77116  22.798   7.651   4.520
 8899W        W77117  11.816  24.526   1.754
 8900W        W77118  28.047  26.925  14.733
 8901W        W77119  18.262  42.303  11.488
 8902W        W77120  19.622  43.608   1.817
 8903W        W77121  24.547  29.121   0.862
 8904W        W77122  24.691  42.918   0.830
 8905W        W77123  31.022   7.971  10.760
 8906W        W77124   8.544  17.304  12.095
 8907W        W77125  12.267  43.828  14.485
 8908W        W77126  14.642  11.223   2.606
 8909W        W77127  15.886   0.931   1.424
 8910W        W77128  35.546  17.259   0.841
 8911W        W77129  20.269  36.393  13.088
 8912W        W77130  44.959  28.655   3.530
 8913W        W77131  35.500  28.042  14.932
 8914W        W77132  10.103  44.246   4.232
 8915W        W77133  17.735  32.409  12.522
 8916W        W77134  32.216  27.792  13.967
 8917W        W77135  40.463  37.101   0.935
 8918W        W77136  27.045   9.907  10.720
 8919W        W77137  20.631  27.432   2.696
 8920W        W77138  18.257  10.935  13.829
 8921W        W77139  12.596  27.640   4.104
 8922W        W77140   2.791  27.911   1.175
 8923W        W77141  33.068  10.252   3.692
 8924W        W77142   9.765   4.219  12.854
 8925W        W77143  30.768  34.583  14.869
 8926W        W77144  27.052  21.027  11.167
 8927W        W77145  20.768  16.320   3.332
 8928W        W77146   7.952  35.049   0.755
 8929W        W77147  33.979  29.375  13.350
 8930W        W77148   1.320  32.382   1.873
 8931W        W77149  13.265  14.041   1.950
 8932W        W77150   5.905   8.188  11.641
 8933W        W77151  19.501  21.047  11.160
 8934W        W77152   1.873  25.182   0.423
 8935W        W77153  33.563  17.789  13.409
 8936W        W77154  15.193  23.979  11.966
 8937W        W77155   8.005   6.716  11.155
 8938W        W77156  37.662  30.866   4.075
 8939W        W77157   6.256  32.192  12.160
 8940W        W77158  42.435  16.374  11.647
 8941W        W77159  10.858  12.116  11.391
 8942W        W77160   3.736   9.196   4.616
 8943W        W77161  41.241  26.163  11.023
 8944W        W77162  24.023  31.862  14.281
 8945W        W77163  28.702  21.097  13.357
 8946W        W77164   3.227  26.153  14.475
 8947W        W77165   5.962  18.214   1.882
 8948W        W77166  38.197  21.213   1.402
 8949W        W77167  17.126  12.842   3.552
 8950W        W77168  28.950  16.256  13.508
 8951W        W77169  20.561  26.605  12.414
 8952W        W77170  21.481  31.387  14.820
 8953W        W77171  15.089  28.207  11.954
 8954W        W77172  42.882  15.292   4.629
 8955W        W77173  26.841  22.317  14.728
 8956W        W77174   4.785   8.387  11.069
 8957W        W77175   8.000  34.256  13.675
 8958W        W77176  40.075  15.483  11.846
 8959W        W77177  18.193   2.693   2.996
 8960W        W77178  37.775   7.234  11.453
 8961W        W77179  43.602  13.532  13.078
 8962W        W77180  36.175  14.647  14.812
 8963W        W77181  18.153   3.468  10.604
 8964W        W77182   9.981  12.511  11.021
 8965W        W77183   6.121  18.049   2.585
 8966W        W77184  23.879  30.051  10.841
 8967W        W77185  15.792  43.845  14.573
 8968W        W77186  28.393  37.029  10.664
 8969W        W77187  14.781  13.613  13.944
 8970W        W77188  31.014   7.402   1.343
 8971W        W77189  40.897  41.845   3.494
 8972W        W77190  17.758  42.128   2.798
 8973W        W77191   5.684  20.113  12.419
 8974W        W77192  18.674  33.941   2.139
 8975W        W77193  17.004  38.800   1.802
 8976W        W77194  29.451  14.649  12.993
 8977W        W77195  22.125  16.573  10.818
 8978W        W77196   0.271   3.243   3.039
 8979W        W77197  30.918   7.942   3.627
 8980W        W77198   1.901   3.677  11.642
 8981W        W77199  29.432  40.910   2.311
 8982W        W77200  12.852  31.439  12.826
 8983W        W77201  26.437  39.740   1.349
 8984W        W77202  22.536  35.976  14.383
 8985W        W77203  25.236   3.878   2.617
 8986W        W77204  19.991   4.642   1.362
 8987W        W77205   4.351  27.072  11.000
 8988W        W77206  20.477  11.556  12.492
 8989W        W77207   0.316  38.546  13.760
 8990W        W77208  20.160  20.067  14.806
 8991W        W77209  25.458  31.928  14.912
 8992W        W77210   3.155   0.711   4.123
 8993W        W77211  40.072  40.288  11.530
 8994W        W77212   6.685  27.791   2.896
 8995W        W77213  26.474   4.194  11.049
 8996W        W77214  40.585  18.548   0.935
 8997W        W77215  23.152  37.840  12.936
 8998W        W77216  31.364  19.056  14.103
 8999W        W77217  16.202   4.155  12.514
 9000W        W77218  12.372  32.289   1.868
 9001W        W77219  44.245  36.091   0.855
 9002W        W77220  26.995   2.447  12.899
 9003W        W77221   4.257  15.072   4.566
 9004W        W77222  19.790  33.412  14.077
 9005W        W77223  37.769  35.884   3.734
 9006W        W77224  33.378  29.824  11.051
 9007W        W77225   8.664  37.817   0.981
 9008W        W77226  25.459  20.949  11.949
 9009W        W77227  16.338  21.173  10.146
 9010W        W77228  40.030  21.769   1.299
 9011W        W77229  10.939  24.206  14.245
 9012W        W77230  20.298  12.809  10.224
 9013W        W77231   1.812  19.862   4.837
 9014W        W77232  26.289   9.760   1.204
 9015W        W77233  39.099  17.665  12.259
 9016W        W77234   3.228  27.416  12.619
 9017W        W77235  12.589  25.389   4.590
 9018W        W77236  25.712  30.209   3.460
 9019W        W77237  30.026  11.862   0.825
 9020W        W77238   8.395  36.775   0.845
 9021W        W77239  43.307  30.720   0.856
 9022W        W77240  28.069   1.320   0.473
 9023W        W77241  40.934  30.835  11.575
 9024W        W77242  26.037   9.665   4.155
 9025W        W77243  21.120  30.686  11.134
 9026W        W77244  11.525   4.918  14.471
 9027W        W77245  29.910  12.213   2.222
 9028W        W77246  20.018   9.978  12.508
 9029W        W77247   2.304   9.623  12.025
 9030W        W77248  30.513  42.357  14.871
 9031W        W77249  15.657   2.747   2.076
 9032W        W77250  39.301  13.614  12.056
 9033W        W77251   9.145  16.067  11.102
 9034W        W77252  37.419  38.897   0.020
 9035W        W77253   0.202  31.039   1.577
 9036W        W77254  43.486  31.478   2.105
 9037W        W77255  22.488  16.970  10.761
 9038W        W77256  18.767  31.597   1.385
 9039W        W77257  15.226   6.872  12.027
 9040W        W77258  31.921  30.649   3.340
 9041W        W77259  36.422  13.362   0.211
 9042W        W77260  44.925  25.846   3.499
 9043W        W77261   4.795   0.490  14.550
 9044W        W77262  37.047  31.525  12.087
 9045W        W77263  12.336  27.420  12.995
 9046W        W77264  12.671  21.414  13.114
 9047W        W77265  22.082   9.923   2.235
 9048W        W77266  23.700   6.985  14.473
 9049W        W77267  21.164  13.346   4.596
 9050W        W77268  11.714   6.635   3.671
 9051W        W77269  41.916   0.888  13.077
 9052W        W77270  37.037  31.034   1.338
 9053W        W77271  27.245   0.981   1.380
 9054W        W77272  34.521  34.679  12.424
 9055W        W77273  12.773   8.765   3.576
 9056W        W77274  43.791  15.645   0.301
 9057W        W77275   1.316  26.003   0.933
 9058W        W77276   2.762  11.229  11.742
 9059W        W77277  36.973  35.268   2.943
 9060W        W77278  17.196  34.426  14.833
 9061W        W77279   7.688  39.560  14.394
 9062W        W77280  36.761   1.889  10.480
 9063W        W77281  24.559  38.696  11.502
 9064W        W77282  13.187  17.375  12.188
 9065W        W77283   4.885   5.407  10.781
 9066W        W77284  21.572   3.055  12.230
 9067W        W77285  20.320  16.471   0.877
 9068W        W77286  26.754  10.182   4.089
 9069W        W77287  29.293  36.470   3.139
 9070W        W77288  37.414  42.257  10.710
 9071W        W77289  12.388  43.496  12.419
 9072W        W77290  35.526  37.078  10.874
 9073W        W77291  38.398  15.892  13.410
 9074W        W77292  28.442  29.218  11.987
 9075W        W77293  11.210  27.185   3.616
 9076W        W77294   4.249  10.880  14.592
 9077W        W77295  16.328   6.861   1.263
 9078W        W77296  40.294   8.949   1.896
 9079W        W77297  25.040  44.236  13.257
 9080W        W77298  22.252  35.929  11.578
 9081W        W77299   3.435  44.988  14.984
 9082W        W77300  10.555  27.455  14.893
 9083W        W77301  26.669  14.076  10.265
 9084W        W77302  21.015  32.444  12.014
 9085W        W77303  21.394  15.611  13.444
 9086W        W77304  10.898   3.198  10.995
 9087W        W77305  24.737  40.418  12.489
 9088W        W77306  44.063  29.171  12.086
 9089W        W77307  39.125  41.864  13.895
 9090W        W77308  43.725  35.109   0.377
 9091W        W77309  10.430  14.277  14.328
 9092W        W77310   2.406  18.586  13.865
 9093W        W77311   6.345  10.599  11.059
 9094W        W77312   6.375  13.417   0.522
 9095W        W77313  24.454  43.346   1.554
 9096W        W77314  42.559  23.102  11.130
 9097W        W77315  18.734   2.983   3.674
 9098W        W77316   1.941  43.478  11.224
 9099W        W77317  44.084   4.381  14.441
 9100W        W77318   4.716  37.433   4.263
 9101W        W77319  16.679   4.964   4.098
 9102W        W77320  16.135  20.232   0.398
 9103W        W77321  20.800  31.078   5.203
 9104W        W77322  40.417  38.265   0.038
 9105W        W77323  43.952   4.217   2.160
 9106W        W77324  10.190  12.223  13.166
 9107W        W77325  22.243  36.819  11.613
 9108W        W77326  28.006  19.158   1.659
 9109W        W77327  21.427  19.278  12.955
 9110W        W77328  22.242  39.341   4.724
 9111W        W77329  29.695  32.878   3.687
 9112W        W77330  23.003  22.975  14.842
 9113W        W77331  25.583   9.371   1.528
 9114W        W77332  20.550   1.275   3.761
 9115W        W77333  31.865  10.434  14.446
 9116W        W77334  22.392  44.039   1.477
 9117W        W77335  10.732   3.642   2.759
 9118W        W77336  44.850  16.873  11.555
 9119W        W77337  27.908  13.349   1.501
 9120W        W77338  19.733  15.377  12.865
 9121W        W77339   3.510  36.990   1.315
 9122W        W77340  15.836  41.338   2.153
 9123W        W77341   7.587   1.485   0.789
 9124W        W77342  27.971  10.944   0.332
 9125W        W77343  13.377  18.067  13.987
 9126W        W77344   1.639  20.083  13.460
 9127W        W77345  40.913  38.008  11.033
 9128W        W77346  38.383  11.870   2.289
 9129W        W77347  35.567  14.522   2.247
 9130W        W77348  22.635  31.055   3.841
 9131W        W77349  41.215   3.206   2.891
 9132W        W77350  28.699   4.118   2.403
 9133W        W77351  20.931   3.785   0.521
 9134W        W77352   3.709  14.211  12.126
 9135W        W77353  21.859  19.547  14.880
 9136W        W77354  33.885  32.310   0.293
 9137W        W77355  36.550  15.352   2.678
 9138W        W77356   6.145  21.202  14.134
 9139W        W77357  34.048  16.715   1.920
 9140W        W77358   8.149  37.535  13.956
 9141W        W77359  33.836  37.569   3.815
 9142W        W77360   6.271  14.861   2.324
 9143W        W77361  38.845  29.657  14.360
 9144W        W77362   5.838   6.896  12.977
 9145W        W77363  44.045   5.712   2.319
 9146W        W77364   3.223   9.830   4.298
 9147W        W77365  37.074  19.838   3.172
 9148W        W77366  29.647  43.472  11.223
 9149W        W77367   2.221  33.298  10.166
 9150W        W77368  34.119  12.525   0.871
 9151W        W77369  18.447  33.257   3.260
 9152W        W77370  20.582  35.501  11.974
 9153W        W77371  19.790  27.781   1.366
 9154W        W77372  25.989  18.041   1.227
 9155W        W77373  13.725  15.231  14.031
 9156W        W77374  28.229   7.548  10.586
 9157W        W77375  13.375  22.581   4.558
 9158W        W77376  34.558  32.388  12.818
 9159W        W77377   3.334  37.352   3.640
 9160W        W77378  42.043  34.139  12.341
 9161W        W77379  15.334  12.178  10.338
 9162W        W77380   1.091  31.979   5.090
 9163W        W77381  25.478  13.504  14.981
 9164W        W77382  21.077  25.685   3.664
 9165W        W77383  12.609  27.874  14.461
 9166W        W77384   4.492  21.800   4.131
 9167W        W77385  30.252  33.077  13.489
 9168W        W77386   4.878   7.895   1.914
 9169W        W77387  18.786  39.419   0.640
 9170W        W77388  16.250   7.413   4.638
 9171W        W77389  27.920  36.979  11.445
 9172W        W77390  21.177  33.956   4.003
 9173W        W77391  44.624  19.515   4.710
 9174W        W77392  29.029   1.492   2.114
 9175W        W77393  14.111  20.202   0.826
 9176W        W77394  32.308  20.641  14.276
 9177W        W77395  39.831  33.091  14.497
 9178W        W77396   2.662   6.627  14.345
 9179W        W77397  21.086   7.669   1.157
 9180W        W77398  31.373  34.337  12.311
 9181W        W77399   2.975  43.520   1.888
 9182W        W77400  13.934  30.344  11.714
 9183W        W77401  25.141  21.589  11.216
 9184W        W77402  26.033  31.367   1.623
 9185W        W77403  39.208  39.098  13.189
 9186W        W77404   1.900  11.241   2.387
 9187W        W77405   9.645  42.969   3.645
 9188W        W77406  37.024  23.150  14.721
 9189W        W77407  35.395  22.981  12.104
 9190W        W77408   3.019   6.320   3.906
 9191W        W77409  22.552   3.088  10.732
 9192W        W77410  40.777  36.986  11.199
 9193W        W77411   7.131   1.728   1.426
 9194W        W77412  40.881  23.633  11.231
 9195W        W77413  13.354  42.078   1.662
 9196W        W77414  31.154  35.534  10.675
 9197W        W77415  14.927  37.052  14.887
 9198W        W77416   9.219  25.368  12.841
 9199W        W77417  12.309  28.671   2.742
 9200W        W77418  43.999  32.089   1.597
 9201W        W77419  29.460   7.498   0.929
 9202W        W77420  33.979  11.958  10.649
 9203W        W77421  12.847  20.526  13.364
 9204W        W77422  29.065  10.213   2.337
 9205W        W77423  42.593  35.954  12.855
 9206W        W77424   9.286  41.129   5.427
 9207W        W77425  33.170   0.392  12.948
 9208W        W77426  14.779  35.942   3.126
 9209W        W77427  23.899  22.143  13.022
 9210W        W77428  16.568  28.440   0.446
 9211W        W77429  16.013  27.225  10.740
 9212W        W77430   0.454  11.078  12.003
 9213W        W77431   2.500  41.109   0.870
 9214W        W77432  38.351   2.781  12.555
 9215W        W77433  42.423  13.162  14.757
 9216W        W77434  31.986  32.960  14.887
 9217W        W77435  19.698  30.181  14.669
 9218W        W77436  43.070  24.697   1.920
 9219W        W77437  41.935  17.140   0.888
 9220W        W77438   8.248  18.741  10.635
 9221W        W77439   1.809  26.059  11.354
 9222W        W77440   5.272   3.483   3.621
 9223W        W77441  34.870  40.775   3.213
 9224W        W77442  43.800  30.798  11.473
 9225W        W77443  22.118  19.957   1.877
 9226W        W77444  16.625   5.717   0.796
 9227W        W77445  21.637  39.425   1.354
 9228W        W77446  25.335  15.311  13.972
 9229W        W77447  17.279  15.583   0.755
 9230W        W77448  28.654  37.885  12.491
 9231W        W77449  28.077   6.780  12.538
 9232W        W77450  17.466  11.174   4.995
 9233W        W77451  26.015  27.279  10.699
 9234W        W77452   2.552  44.341   3.763
 9235W        W77453   8.282  39.701   4.562
 9236W        W77454  36.497  27.658  13.949
 9237W        W77455  42.736  19.544  13.813
 9238W        W77456  17.156   9.707   4.415
 9239W        W77457   5.029   6.942   0.904
 9240W        W77458  11.635  28.086   1.360
 9241W        W77459  29.204  29.496  11.374
 9242W        W77460  37.724   7.320   4.906
 9243W        W77461  40.699  19.145  11.113
 9244W        W77462  34.280  25.243   2.260
 9245W        W77463  32.144   2.495   3.356
 9246W        W77464  38.615   4.214   3.281
 9247W        W77465  29.729  17.479  11.123
 9248W        W77466  16.624  17.769   1.265
 9249W        W77467   0.672  13.924  11.681
 9250W        W77468  11.984  42.951  11.973
 9251W        W77469  10.286  33.437  11.637
 9252W        W77470  19.657   2.695  13.136
 9253W        W77471  20.283  14.720  13.130
 9254W        W77472   8.774  16.165   1.125
 9255W        W77473   5.424  27.442  12.652
 9256W        W77474   4.149  23.454  12.073
 9257W        W77475  32.864   3.148  13.457
 9258W        W77476  42.001  23.522  10.669
 9259W        W77477  37.842  10.144  12.329
 9260W        W77478  21.049  16.101   1.332
 9261W        W77479  30.206  20.633  12.916
 9262W        W77480  17.115   0.543   0.713
 9263W        W77481  13.509   5.912   5.124
 9264W        W77482  36.777  12.799   2.661
 9265W        W77483  41.107  31.339  13.103
 9266W        W77484  28.570  18.033   0.883
 9267W        W77485  43.074  41.431   2.803
 9268W        W77486  22.047  28.024   3.176
 9269W        W77487  39.862   8.944  12.426
 9270W        W77488  42.264   8.708   2.562
 9271W        W77489  16.690  31.639  13.084
 9272W        W77490   9.859  34.846  11.056
 9273W        W77491  16.556  17.526  13.112
 9274W        W77492  32.888  15.910   3.727
 9275W        W77493   0.906  42.762   1.996
 9276W        W77494  27.507   6.382   0.508
 9277W        W77495  44.272  14.778   2.424
 9278W        W77496  41.676  10.851   1.284
 9279W        W77497   8.140  32.521   1.344
 9280W        W77498  27.967  38.075  14.982
 9281W        W77499  14.097  41.003   4.301
 9282W        W77500  17.460  26.552  14.514
 9283W        W77501  35.460  36.482  11.561
 9284W        W77502  43.949  40.657   2.476
 9285W        W77503  37.655  12.706   3.102
 9286W        W77504  26.564  43.455  13.406
 9287W        W77505  25.598  17.242   2.325
 9288W        W77506   9.900  44.478   4.714
 9289W        W77507  14.025  33.012  13.997
 9290W        W77508   7.875  34.580  14.264
 9291W        W77509   6.929  28.606   0.713
 9292W        W77510  18.129  34.119   0.328
 9293W        W77511   9.742  42.052   2.772
 9294W        W77512  28.682  36.402   2.832
 9295W        W77513  42.836  16.276   3.634
 9296W        W77514   0.226   4.932   1.139
 9297W        W77515  26.356   5.980  11.149
 9298W        W77516  21.047  30.445   1.205
 9299W        W77517   7.670  44.244   2.814
 9300W        W77518  10.311   2.323   1.503
 9301W        W77519  38.283  15.240  11.657
 9302W        W77520   2.251  41.915   1.459
 9303W        W77521  37.020  30.134  14.288
 9304W        W77522  14.603   3.771  10.699
 9305W        W77523  18.252  41.911  11.153
 9306W        W77524  15.864  40.847   4.813
 9307W        W77525  37.674  43.191   1.254
 9308W        W77526  35.791  41.478  12.099
 9309W        W77527  44.307   5.169   4.530
 9310W        W77528  36.833   0.164   3.306
 9311W        W77529  42.126   2.479  11.196
 9312W        W77530  28.572  21.707  14.881
 9313W        W77531  18.718  32.969  11.302
 9314W        W77532  29.903  43.003   3.403
 9315W        W77533   0.401   3.016  10.745
 9316W        W77534  28.847  34.100   2.392
 9317W        W77535   1.917  25.472   4.168
 9318W        W77536  42.788  10.193  13.818
 9319W        W77537  41.280  10.283  14.625
 9320W        W77538  19.318  44.058   1.768
 9321W        W77539  24.136  42.071  10.988
 9322W        W77540   4.156  35.345   3.216
 9323W        W77541  14.623  35.250   2.338
 9324W        W77542  19.161  30.841  13.896
 9325W        W77543  44.809  27.795   2.449
 9326W        W77544  39.633  41.824  13.810
 9327W        W77545   0.167  26.902   4.258
 9328W        W77546  41.503   8.875  13.913
 9329W        W77547  36.576  17.136   3.840
 9330W        W77548  25.281  17.790   4.353
 9331W        W77549  31.383  36.185   1.918
 9332W        W77550  14.352  39.843   0.435
 9333W        W77551  19.202   4.725   4.430
 9334W        W77552   3.627   5.755   0.879
 9335W        W77553  32.139  35.549   2.674
 9336W        W77554   1.903  23.812   0.586
 9337W        W77555  28.689  11.269  11.078
 9338W        W77556  32.796  40.382  13.991
 9339W        W77557   5.137  26.329  14.223
 9340W        W77558  35.865   6.179   3.757
 9341W        W77559  40.124  19.985   2.278
 9342W        W77560   3.215  35.547  12.537
 9343W        W77561  33.019   9.926  13.156
 9344W        W77562  34.654  17.364   0.895
 9345W        W77563  10.057   6.724  14.872
 9346W        W77564  23.708   9.593  12.466
 9347W        W77565  25.910  10.668   2.815
 9348W        W77566   3.391  22.740  14.396
 9349W        W77567   2.193  19.269  14.717
 9350W        W77568  24.756   2.600   0.914
 9351W        W77569  36.670   1.752   0.970
 9352W        W77570  19.043  43.042  12.059
 9353W        W77571  16.756  15.654   0.236
 9354W        W77572  39.101  14.329  12.365
 9355W        W77573  26.020  39.915   4.654
 9356W        W77574  15.263  35.084   3.656
 9357W        W77575  10.165  39.845   1.769
 9358W        W77576  22.489  16.166   3.664
 9359W        W77577  11.148   3.278   3.250
 9360W        W77578  31.372  26.480   3.138
 9361W        W77579   0.575  28.992   1.285
 9362W        W77580  39.730  33.581  14.683
 9363W        W77581  11.849  26.524  10.146
 9364W        W77582   3.303  33.593  10.543
 9365W        W77583  25.222  26.601  13.259
 9366W        W77584   5.575  20.618  14.872
 9367W        W77585  19.181  30.402   1.539
 9368W        W77586  35.483   7.015   3.241
 9369W        W77587   8.716  39.023   2.111
 9370W        W77588  15.543  13.354   0.334
 9371W        W77589   7.462  28.947   4.372
 9372W        W77590  40.592  28.558   4.867
 9373W        W77591  28.225  18.258   3.333
 9374W        W77592  29.053  19.609  14.172
 9375W        W77593  26.667  16.184   0.470
 9376W        W77594   2.362  15.028   4.291
 9377W        W77595  28.729  13.598  12.119
 9378W        W77596   8.707  44.415  12.351
 9379W        W77597  23.457  12.756  11.116
 9380W        W77598  33.108   8.745   3.847
 9381W        W77599  34.833  14.516  11.933
 9382W        W77600   3.489  41.313  14.270
 9383W        W77601  10.391   4.483   2.205
 9384W        W77602  40.790  11.229  10.870
 9385W        W77603  36.568   3.245   2.409
 9386W        W77604  15.114  39.967   4.865
 9387W        W77605   3.348  15.278   3.269
 9388W        W77606  31.908  44.438   0.959
 9389W        W77607   3.317  41.062   1.601
 9390W        W77608  36.810  43.480   3.849
 9391W        W77609  40.932  40.534   4.830
 9392W        W77610  12.625  15.042   3.313
 9393W        W77611   8.594  31.720   5.020
 9394W        W77612  33.599   5.837  13.751
 9395W        W77613  42.576  35.989  13.357
 9396W        W77614  23.965  27.742   0.860
 9397W        W77615  22.930   3.901   3.351
 9398W        W77616  26.233  44.839  13.879
 9399W        W77617   0.600   3.141   4.233
 9400W        W77618  32.937   1.462  12.468
 9401W        W77619  19.728  24.981  12.508
 9402W        W77620  23.702   1.489  11.049
 9403W        W77621  44.840  24.029  12.870
 9404W        W77622  16.968  39.678   2.119
 9405W        W77623  26.943  10.184  12.419
 9406W        W77624  33.013   7.835  13.830
 9407W        W77625  33.450  37.274   0.915
 9408W        W77626  42.877  22.763  12.687
 9409W        W77627  36.534   4.503  13.500
 9410W        W77628  33.837   6.177  11.093
 9411W        W77629  38.817  24.026  11.512
 9412W        W77630  31.392  33.548   1.375
 9413W        W77631  10.361  22.012  13.477
 9414W        W77632   2.511  39.415   2.219
 9415W        W77633  31.157  10.259  12.864
 9416W        W77634  35.715   5.174  12.076
 9417W        W77635  35.737   1.932   3.841
 9418W        W77636  38.998  24.099   0.984
 9419W        W77637  13.033  27.496  14.787
 9420W        W77638   3.761  22.074  11.547
 9421W        W77639  23.244  12.328  14.212
 9422W        W77640  44.387   3.295   3.701
 9423W        W77641  26.251  23.133   1.493
 9424W        W77642  37.375  12.181  14.862
 9425W        W77643  20.121  19.555   3.583
 9426W        W77644  32.351   8.931  13.597
 9427W        W77645  27.987   7.890   1.490
 9428W        W77646   7.155  27.681  14.935
 9429W        W77647   7.409  13.616  13.468
 9430W        W77648  22.749  27.966  10.741
 9431W        W77649  37.320  37.507   3.723
 9432W        W77650  12.268  31.498  14.078
 9433W        W77651   1.370  37.678   3.936
 9434W        W77652  17.104  44.926  11.509
 9435W        W77653   2.267  28.870   4.397
 9436W        W77654  16.268  29.535   3.674
 9437W        W77655  17.823  26.604  13.829
 9438W        W77656  17.795  41.261  10.684
 9439W        W77657  21.055  26.550   0.433
 9440W        W77658  29.049   9.844   4.668
 9441W        W77659   5.680  28.805  11.563
 9442W        W77660  32.139   0.529  10.349
 9443W        W77661   1.700  15.087  14.458
 9444W        W77662   8.824  37.523   4.152
 9445W        W77663   8.672  32.235  14.511
 9446W        W77664   0.663  30.971  12.991
 9447W        W77665  33.570   8.126   0.160
 9448W        W77666  35.515  21.818   3.747
 9449W        W77667  36.737   9.266  14.523
 9450W        W77668  26.581  31.789   0.945
 9451W        W77669  41.509   7.819  10.984
 9452W        W77670  25.113  19.573   3.737
 9453W        W77671  31.600  28.023   3.613
 9454W        W77672  19.662  40.568  14.746
 9455W        W77673  32.327  43.656  11.391
 9456W        W77674  11.194  17.769  12.592
 9457W        W77675  21.904  16.023  14.249
 9458W        W77676  43.290   7.740  13.067
 9459W        W77677  42.470  26.406   4.459
 9460W        W77678  22.779  42.481  11.194
 9461W        W77679  24.432  17.571  12.413
 9462W        W77680  18.354  11.542  14.752
 9463W        W77681  14.095  31.089   1.893
 9464W        W77682  32.037  38.387  10.738
 9465W        W77683  39.868  20.659  14.451
 9466W        W77684  31.932  18.608   4.167
 9467W        W77685  42.751  40.275  11.048
 9468W        W77686  41.173  13.697   4.907
 9469W        W77687  30.205  26.696  14.043
 9470W        W77688  11.109  13.839  11.550
 9471W        W77689  21.556  23.933  14.490
 9472W        W77690  38.547   0.433   2.247
 9473W        W77691  36.899  20.264  12.066
 9474W        W77692  20.364  11.829   9.964
 9475W        W77693  37.151   5.711  10.131
 9476W        W77694  25.699  32.964   3.236
 9477W        W77695  27.558  31.112   0.924
 9478W        W77696   1.344  26.760   1.205
 9479W        W77697   9.302  13.170   3.758
 9480W        W77698  39.068  34.059   3.895
 9481W        W77699  21.312   0.794  12.636
 9482W        W77700  17.528  35.822   5.005
 9483W        W77701  22.211  21.535   3.307
 9484W        W77702  22.160  42.454  13.932
 9485W        W77703   4.213  41.866  10.265
 9486W        W77704  21.220  36.647  10.473
 9487W        W77705  11.872  21.476   2.575
 9488W        W77706  14.264   7.442  12.531
 9489W        W77707  23.587  33.562  11.088
 9490W        W77708  14.701   1.615   5.410
 9491W        W77709   1.818   0.391   3.204
 9492W        W77710  21.021  22.401  11.038
 9493W        W77711  43.993   6.395   1.384
 9494W        W77712   1.280  36.039  14.794
 9495W        W77713  38.787   1.955  12.593
 9496W        W77714   9.124  18.342   4.556
 9497W        W77715  26.718  44.576   4.034
 9498W        W77716  12.343  41.855  14.978
 9499W        W77717  41.931  39.970   3.230
 9500W        W77718  11.153  20.202  12.860
 9501W        W77719  30.037  19.211   0.014
 9502W        W77720  10.695  22.672   2.373
 9503W        W77721  36.072  42.798  11.524
 9504W        W77722  44.959   4.393   1.745
 9505W        W77723  40.029  30.844  12.978
 9506W        W77724  34.081  30.863  11.658
 9507W        W77725   8.960  36.443  10.740
 9508W        W77726  41.561   1.270  12.912
 9509W        W77727  43.519  13.829   3.308
 9510W        W77728  40.126  35.437   2.140
 9511W        W77729  12.276   8.429  11.141
 9512W        W77730   4.149  27.684  13.314
 9513W        W77731  33.072  11.341   2.688
 9514W        W77732  21.944  23.121  13.390
 9515W        W77733   7.743  31.630   3.683
 9516W        W77734  22.286  37.454  10.515
 9517W        W77735  20.296   2.395   4.549
 9518W        W77736   9.870  32.003   1.435
 9519W        W77737  14.923   0.878   4.111
 9520W        W77738  23.610  22.674   4.336
 9521W        W77739  23.255  40.579  13.921
 9522W        W77740  33.516   3.875  11.802
 9523W        W77741  29.026  30.259  14.410
 9524W        W77742  24.619  18.298   3.053
 9525W        W77743  18.741  23.226   0.058
 9526W        W77744  24.641  31.181  11.014
 9527W        W77745  38.543  23.295  14.870
 9528W        W77746  14.188  23.159   1.199
 9529W        W77747   2.691   7.299  13.144
 9530W        W77748   6.879  17.865   0.824
 9531W        W77749  38.549  16.882   3.172
 9532W        W77750   2.752   2.738  13.306
 9533W        W77751  13.643   3.883  10.971
 9534W        W77752  40.006  28.203  13.015
 9535W        W77753  13.861   6.110   1.271
 9536W        W77754  30.577  13.746   3.244
 9537W        W77755  12.821  14.733   3.705
 9538W        W77756  41.009  21.961   4.554
 9539W        W77757  23.725   3.801   2.779
 9540W        W77758  20.723  30.588  14.278
 9541W        W77759   6.808   5.522  13.352
 9542W        W77760   1.991  16.479  11.118
 9543W        W77761   9.319  42.992   2.781
 9544W        W77762   8.684  35.883  11.087
 9545W        W77763  41.064   2.173  10.316
 9546W        W77764  22.663   6.620   3.337
 9547W        W77765  29.285  21.236  10.675
 9548W        W77766  30.680  37.794  14.394
 9549W        W77767   4.148  42.035   4.237
 9550W        W77768  16.727   1.004  11.028
 9551W        W77769  16.443  21.346   1.856
 9552W        W77770  40.446   3.656  11.655
 9553W        W77771  14.995  20.685  13.432
 9554W        W77772  27.837  23.789   0.305
 9555W        W77773  12.802  40.913   1.201
 9556W        W77774  28.125  44.147  12.048
 9557W        W77775  38.001  25.069   1.672
 9558W        W77776   0.355  12.004   2.595
 9559W        W77777   0.748   0.132  13.734
 9560W        W77778  17.280  18.136   3.672
 9561W        W77779  23.717  42.825   4.697
 9562W        W77780  15.262  30.184  12.123
 9563W        W77781  18.379  44.307   3.639
 9564W        W77782  41.481  19.037  14.307
 9565W        W77783  38.939  19.989   3.124
 9566W        W77784  15.086   5.605  11.363
 9567W        W77785  24.398  20.992   1.131
 9568W        W77786   0.266  22.929  11.943
 9569W        W77787  26.592  22.050   0.081
 9570W        W77788   4.835  35.262   2.666
 9571W        W77789  40.885  40.374  11.919
 9572W        W77790   4.984  14.346   3.992
 9573W        W77791  22.382   4.364  11.734
 9574W        W77792  44.808  38.882   2.915
 9575W        W77793  34.481  35.673  14.298
 9576W        W77794  18.487   1.384   4.391
 9577W        W77795   8.754  18.833  10.728
 9578W        W77796  22.763  18.590  14.880
 9579W        W77797  28.071  26.774   3.848
 9580W        W77798  43.840  26.686   3.673
 9581W        W77799   5.795  31.274   0.369
 9582W        W77800  27.030  25.797  13.520
 9583W        W77801  13.440  13.510   2.797
 9584W        W77802  21.403  26.180  11.019
 9585W        W77803  33.806  14.174  13.850
 9586W        W77804  32.119   3.380  12.637
 9587W        W77805  29.175   4.341   4.492
 9588W        W77806   7.771  33.048  14.963
 9589W        W77807  28.149  39.506   0.714
 9590W        W77808  38.764  19.850   3.802
 9591W        W77809  32.242   0.290   0.924
 9592W        W77810   4.787  11.666  12.139
 9593W        W77811   2.898  20.388   0.970
 9594W        W77812  24.215  28.208   4.140
 9595W        W77813  29.146   1.236   0.774
 9596W        W77814  19.547  15.085   0.329
 9597W        W77815  40.408  19.220   2.682
 9598W        W77816  30.474   2.040   3.766
 9599W        W77817  12.608   5.433  11.198
 9600W        W77818  42.900   6.179  12.495
 9601W        W77819   2.855  22.497   2.421
 9602W        W77820  27.839   7.226  14.820
 9603W        W77821   2.148  41.080  14.013
 9604W        W77822  23.575  35.140  13.580
 9605W        W77823   9.037  32.186   0.855
 9606W        W77824  37.983  42.778  14.475
 9607W        W77825  31.961  32.978   2.675
 9608W        W77826  43.351  10.821  11.977
 9609W        W77827  16.299  39.087  11.830
 9610W        W77828  38.638  19.048  14.346
 9611W        W77829   0.992  37.902   4.367
 9612W        W77830   7.814  16.121   2.610
 9613W        W77831  26.990   1.212  13.449
 9614W        W77832  17.764  32.805   1.421
 9615W        W77833  31.632  35.951  11.680
 9616W        W77834  37.388  27.172   0.288
 9617W        W77835  19.776  20.301   2.964
 9618W        W77836  37.412  15.759  11.589
 9619W        W77837   5.593  28.256  11.696
 9620W        W77838   2.874  35.933  12.507
 9621W        W77839  28.121  11.621   2.258
 9622W        W77840  27.412  20.168   2.327
 9623W        W77841  35.967  38.974   2.367
 9624W        W77842  18.129  24.970  13.885
 9625W        W77843  16.044  42.528   4.158
 9626W        W77844  44.773   6.753   2.416
 9627W        W77845  31.815  12.224  12.569
 9628W        W77846  19.720  35.907  14.678
 9629W        W77847   1.831   4.620   2.877
 9630W        W77848  31.276  11.096  12.849
 9631W        W77849   7.802  22.523   4.589
 9632W        W77850  10.168  43.892  14.271
 9633W        W77851   7.971   5.329  11.178
 9634W        W77852   1.312  14.112   2.860
 9635W        W77853  23.681   5.764   4.140
 9636W        W77854   5.915  24.599  14.973
 9637W        W77855  29.175  19.757   4.341
 9638W        W77856   9.242  35.951   4.823
 9639W        W77857  10.801   9.741  14.459
 9640W        W77858  36.001   5.289  11.033
 9641W        W77859  17.483  24.013   3.194
 9642W        W77860  32.051  17.312  13.905
 9643W        W77861  22.663  30.275   1.777
 9644W        W77862  15.324  33.633  13.958
 9645W        W77863   0.574  44.258  10.434
 9646W        W77864   5.133  13.588   2.870
 9647W        W77865  11.875  25.567   4.122
 9648W        W77866  31.880  13.200   1.628
 9649W        W77867  20.179  23.696  12.857
 9650W        W77868  13.806   3.458  11.704
 9651W        W77869   9.241  14.146   0.961
 9652W        W77870   2.281   9.199   4.927
 9653W        W77871  13.551  21.660  13.718
 9654W        W77872   2.011  36.460   0.763
 9655W        W77873  20.518   1.833   2.693
 9656W        W77874  11.946  22.465  14.430
 9657W        W77875   9.898  43.381  11.505
 9658W        W77876  13.097  43.580   1.375
 9659W        W77877  26.291   9.595  13.046
 9660W        W77878  11.769  23.037  10.583
 9661W        W77879   3.728  14.104  13.919
 9662W        W77880  42.035   3.356   3.206
 9663W        W77881   4.362   2.486   2.405
 9664W        W77882   4.697   9.274   2.594
 9665W        W77883   8.756  28.564   4.446
 9666W        W77884   1.348  35.474  10.666
 9667W        W77885   4.184  30.454   4.365
 9668W        W77886  26.533  18.981  12.911
 9669W        W77887  17.842  41.987  13.466
 9670W        W77888  17.861  36.550   2.647
 9671W        W77889   0.083  20.216   1.813
 9672W        W77890   3.067  12.873   1.875
 9673W        W77891  25.235  26.420   2.615
 9674W        W77892  15.961   6.817  13.461
 9675W        W77893  44.187   1.696   0.042
 9676W        W77894  35.968  36.443  14.278
 9677W        W77895  21.004  38.846   0.348
 9678W        W77896  27.326  33.408  10.193
 9679W        W77897  32.450  14.784   4.558
 9680W        W77898  17.300  21.559   0.950
 9681W        W77899  33.512  14.884  12.085
 9682W        W77900  14.616  16.276  12.060
 9683W        W77901  17.530   3.649  14.419
 9684W        W77902  29.292  43.810   1.938
 9685W        W77903  39.208  41.840  11.129
 9686W        W77904  35.846   4.772  11.101
 9687W        W77905  34.050   3.032  11.085
 9688W        W77906  29.447  19.349   3.709
 9689W        W77907  44.433  39.212  13.367
 9690W        W77908   5.449  23.315  13.876
 9691W        W77909  23.144  18.558  12.880
 9692W        W77910  29.680  21.976   1.351
 9693W        W77911  32.318  30.175  13.897
 9694W        W77912  40.457  22.618   3.706
 9695W        W77913  23.742  23.536  12.406
 9696W        W77914  26.014  11.362   1.001
 9697W        W77915  31.900  18.057  14.410
 9698W        W77916  19.577   8.120  13.973
 9699W        W77917  44.402   1.997   0.391
 9700W        W77918   8.253  44.331   2.241
 9701W        W77919  16.489  27.951  14.368
 9702W        W77920  10.262   5.100   1.362
 9703W        W77921   6.176  31.673  12.210
 9704W        W77922   0.267   7.869  12.454
 9705W        W77923  31.038  17.883   3.708
 9706W        W77924  12.405  29.225  14.343
 9707W        W77925  26.457  40.702   4.241
 9708W        W77926  28.278  17.308  13.109
 9709W        W77927  18.625  41.704  10.348
 9710W        W77928  18.587  31.908  14.424
 9711W        W77929  24.793  13.106  10.620
 9712W        W77930  24.954  36.387  14.351
 9713W        W77931  26.057  41.248  10.664
 9714W        W77932  14.077  22.513   1.722
 9715W        W77933  38.984  44.446  12.227
 9716W        W77934  12.613  19.745   1.681
 9717W        W77935  27.381  17.955   3.360
 9718W        W77936  41.973  23.132   0.787
 9719W        W77937  38.651  11.224   2.821
 9720W        W77938  22.737   5.644   3.282
 9721W        W77939  21.711  28.249   4.723
 9722W        W77940  16.283  37.945  12.576
 9723W        W77941   2.528  29.716   2.047
 9724W        W77942   2.351  43.745   3.039
 9725W        W77943  44.352   1.126  13.154
 9726W        W77944  43.264  11.785   0.690
 9727W        W77945   5.992  20.961  11.953
 9728W        W77946  36.534   3.506  11.545
 9729W        W77947  20.133  30.605   1.863
 9730W        W77948  36.570   6.366  10.750
 9731W        W77949  33.642  22.552   3.178
 9732W        W77950  13.873  22.281   3.327
 9733W        W77951  23.774   4.800   1.883
 9734W        W77952  20.045  16.155  14.942
 9735W        W77953  18.792  23.950   0.434
 9736W        W77954  10.867  20.099  13.343
 9737W        W77955  20.532  35.450  13.394
 9738W        W77956  33.022  32.513   2.209
 9739W        W77957  40.835  37.746   1.374
 9740W        W77958  32.024   1.454   4.946
 9741W        W77959  16.069   5.424  14.510
 9742W        W77960  29.516   8.606   2.485
 9743W        W77961  38.493  28.120   0.179
 9744W        W77962  36.139  37.806   4.282
 9745W        W77963  31.496  17.642   4.661
 9746W        W77964  23.681  38.577  14.269
 9747W        W77965  11.311  26.437  12.244
 9748W        W77966  14.595   5.728   3.423
 9749W        W77967   5.625  36.389   4.284
 9750W        W77968  30.527  33.352  12.008
 9751W        W77969  40.611  38.215  12.796
 9752W        W77970   3.510  44.276  12.536
 9753W        W77971   2.059  27.989   5.223
 9754W        W77972  42.423  10.311   0.975
 9755W        W77973  39.424   2.962   1.426
 9756W        W77974  36.866  28.781   0.939
 9757W        W77975  44.475   0.993   1.916
 9758W        W77976  16.072  18.699  12.444
 9759W        W77977  14.301  29.291   1.349
 9760W        W77978   1.867  20.685   1.442
 9761W        W77979   8.775   0.054  14.359
 9762W        W77980  38.410  39.654   3.232
 9763W        W77981  43.270  25.651  14.264
 9764W        W77982  22.030  31.474  11.543
 9765W        W77983  26.526  30.555   3.768
 9766W        W77984  28.569  37.393   0.501
 9767W        W77985  26.321  25.671   5.497
 9768W        W77986  27.985  18.153  11.625
 9769W        W77987   9.214  20.607   1.797
 9770W        W77988   4.482  15.356   4.174
 9771W        W77989  34.075  34.436   0.739
 9772W        W77990   7.879  34.892   4.621
 9773W        W77991  12.258   5.323  12.393
 9774W        W77992  12.891  42.982  11.174
 9775W        W77993  16.777   9.766   4.744
 9776W        W77994  32.885  25.059  10.221
 9777W        W77995  12.728   1.036  14.391
 9778W        W77996  31.992  14.754   2.309
 9779W        W77997  34.117   3.255  10.277
 9780W        W77998  10.225  33.866   1.399
 9781W        W77999  10.505   1.986   1.168
 9782W        W78000  33.505   7.673  13.661
 9783W        W78001  12.815   0.770   1.269
 9784W        W78002  18.141  15.015  12.478
 9785W        W78003  43.882   0.299   1.832
 9786W        W78004  26.400  18.216  10.173
 9787W        W78005  32.179  20.040  12.436
 9788W        W78006  16.128   9.874   0.301
 9789W        W78007  43.942  39.529   0.794
 9790W        W78008  15.555  14.759  11.618
 9791W        W78009   0.002  33.092   1.825
 9792W        W78010  34.438  19.671   4.887
 9793W        W78011   7.676  24.666   4.526
 9794W        W78012  29.611   2.455  10.232
 9795W        W78013  28.859  16.605  11.668
 9796W        W78014   6.641  28.980   0.433
 9797W        W78015  39.431  18.271   0.820
 9798W        W78016  15.693  21.079  11.400
 9799W        W78017  12.659  29.668   1.673
 9800W        W78018   7.386  21.067  10.746
 9801W        W78019   2.494  34.123   2.938
 9802W        W78020  30.123  18.781   4.683
 9803W        W78021  37.438  20.694   1.299
 9804W        W78022  38.854  13.279   0.644
 9805W        W78023  25.167  14.531   0.036
 9806W        W78024  32.920  17.265   4.717
 9807W        W78025  15.874   2.805  12.101
 9808W        W78026  11.183   1.945  13.336
 9809W        W78027  28.241  10.293   1.933
 9810W        W78028   8.656  43.568  11.063
 9811W        W78029   5.348  37.139  11.119
 9812W        W78030  40.003   3.894  12.404
 9813W        W78031  10.594  35.979  13.114
 9814W        W78032  23.811   4.191   4.083
 9815W        W78033  22.157  26.649  10.902
 9816W        W78034  17.596  23.611   4.461
 9817W        W78035  11.274  20.616   3.212
 9818W        W78036  29.200   4.803   3.232
 9819W        W78037  27.715   9.508  13.139
 9820W        W78038   3.175   6.396  12.196
 9821W        W78039  13.888  35.522   1.559
 9822W        W78040  19.715  15.280   0.789
 9823W        W78041  40.542  34.604  11.199
 9824W        W78042  21.457  42.487  11.962
 9825W        W78043  41.148  21.127  11.905
 9826W        W78044   0.662  20.215   3.823
 9827W        W78045  24.191  36.480  11.912
 9828W        W78046   8.662  41.500   2.368
 9829W        W78047  14.478  40.701  12.404
 9830W        W78048   2.876  25.916  12.197
 9831W        W78049  38.558  28.100  14.280
 9832W        W78050   4.376   2.300   3.669
 9833W        W78051  13.060  17.091   3.179
 9834W        W78052   2.447   7.616   0.860
 9835W        W78053  31.536  41.930   0.752
 9836W        W78054  13.849  31.530   2.387
 9837W        W78055  18.816  41.940   0.499
 9838W        W78056   4.684  30.764   3.637
 9839W        W78057  24.459   0.726  12.449
 9840W        W78058  28.709  14.322   0.489
 9841W        W78059   2.331  11.074  14.542
 9842W        W78060  22.532  31.069  12.854
 9843W        W78061  15.255  23.790  13.907
 9844W        W78062   3.752  21.199  12.550
 9845W        W78063  38.004  43.554   3.951
 9846W        W78064  43.384  15.149   0.882
 9847W        W78065  33.104  21.024   2.584
 9848W        W78066  43.884  36.143   1.904
 9849W        W78067  23.702   5.184  12.976
 9850W        W78068  21.695   0.485   2.371
 9851W        W78069  44.623  29.431  14.916
 9852W        W78070  35.942  42.827   3.166
 9853W        W78071  36.873  14.949   1.849
 9854W        W78072  12.158  13.035  11.670
 9855W        W78073  26.015  38.915   2.089
 9856W        W78074   8.220  17.280  14.593
 9857W        W78075  19.938  36.119   1.307
 9858W        W78076   3.447  29.377  14.557
 9859W        W78077  38.390  20.903  12.666
 9860W        W78078   6.945   1.492   4.047
 9861W        W78079  11.691  16.156  13.516
 9862W        W78080  20.492   7.696  13.284
 9863W        W78081  12.576  43.827  14.940
 9864W        W78082   8.898  29.745  12.695
 9865W        W78083  26.959  11.181   0.308
 9866W        W78084  34.151  21.330  11.569
 9867W        W78085  29.084   3.360  11.097
 9868W        W78086  16.037   5.225  13.580
 9869W        W78087   4.916   8.581  12.398
 9870W        W78088  22.112  31.849  10.250
 9871W        W78089  29.439  10.170  11.432
 9872W        W78090   3.483  24.658   0.211
 9873W        W78091   0.473  35.895   3.264
 9874W        W78092  14.328  11.205   3.654
 9875W        W78093  27.353  12.783   4.099
 9876W        W78094   6.058  40.437   3.926
 9877W        W78095  31.497  37.321   4.276
 9878W        W78096   8.885  14.229   3.109
 9879W        W78097  40.420  35.539   0.744
 9880W        W78098   3.979  13.778  11.053
 9881W        W78099  16.123   6.310   0.358
 9882W        W78100  41.287  15.038  14.357
 9883W        W78101  44.602  38.601   3.728
 9884W        W78102  12.029  18.053   3.634
 9885W        W78103  34.477  23.578   4.462
 9886W        W78104  40.426  28.938   3.639
 9887W        W78105  12.088  36.039   4.504
 9888W        W78106  44.084  23.462   0.417
 9889W        W78107  42.511  37.990  14.859
 9890W        W78108  20.130  20.023   2.693
 9891W        W78109  15.742  22.504  13.564
 9892W        W78110  41.410  42.527  12.124
 9893W        W78111  11.688  38.747   4.307
 9894W        W78112   2.412  25.914   1.274
 9895W        W78113   0.089  21.577   1.760
 9896W        W78114  34.586   7.144  10.702
 9897W        W78115  14.256  43.280   0.930
 9898W        W78116  18.743  20.684  14.255
 9899W        W78117  40.906  43.529  12.966
 9900W        W78118  33.203  42.640   2.719
 9901W        W78119  24.669   6.237  11.408
 9902W        W78120  20.018   2.461   2.191
 9903W        W78121  26.959  11.571   3.691
 9904W        W78122  17.735  17.398   4.513
 9905W        W78123  16.010   5.660   4.508
 9906W        W78124  42.752  31.561  14.425
 9907W        W78125  10.455   2.925  10.989
 9908W        W78126  34.926  33.864  11.324
 9909W        W78127  38.142  26.033  11.035
 9910W        W78128  44.303  38.419   3.264
 9911W        W78129  18.981  25.082   2.227
 9912W        W78130   2.552  18.309   4.583
 9913W        W78131  19.172  43.478   0.338
 9914W        W78132   3.315  17.551  14.961
 9915W        W78133  36.657  21.579   2.834
 9916W        W78134   8.353  17.888   4.901
 9917W        W78135   7.007  11.135   3.194
 9918W        W78136  30.983  39.986   4.028
 9919W        W78137   2.942  15.575   2.234
 9920W        W78138  41.846  24.260   4.027
 9921W        W78139  29.063   2.537   4.845
 9922W        W78140   3.219  19.153   2.317
 9923W        W78141  20.125  31.639   1.921
 9924W        W78142  38.162   0.474   1.919
 9925W        W78143  13.572  44.076   1.117
 9926W        W78144  17.132  28.688   4.433
 9927W        W78145   4.012   4.003  14.134
 9928W        W78146   3.168  40.574   3.025
 9929W        W78147  17.160   5.298   1.841
 9930W        W78148  35.317  35.452   1.934
 9931W        W78149  34.379  28.394   3.600
 9932W        W78150  39.252  31.818  11.159
 9933W        W78151  33.824  36.434  12.250
 9934W        W78152   7.355  38.295   4.318
 9935W        W78153   7.369  41.514   0.006
 9936W        W78154   3.774   6.089  10.670
 9937W        W78155  31.127  44.529  14.074
 9938W        W78156  37.971   5.473   1.263
 9939W        W78157  22.074  18.322  12.511
 9940W        W78158   4.246  36.868  13.319
 9941W        W78159  18.212  43.921   3.920
 9942W        W78160  41.631  17.043  11.602
 9943W        W78161  20.799  20.671  10.748
 9944W        W78162  32.144  16.807  13.975
 9945W        W78163  14.859  23.549  10.260
 9946W        W78164  27.471  13.218   1.260
 9947W        W78165   4.191  11.572   1.318
 9948W        W78166  11.858   2.406   0.316
 9949W        W78167  38.683  15.243   2.467
 9950W        W78168  30.036  11.713   2.346
 9951W        W78169  13.746  43.074  11.094
 9952W        W78170  35.540  27.625   1.284
 9953W        W78171   3.900   4.779   4.280
 9954W        W78172  22.486  23.279  10.723
 9955W        W78173  42.550  41.368  14.895
 9956W        W78174   2.220  38.375  13.355
 9957W        W78175  21.573   0.357  11.477
 9958W        W78176  19.612  18.346   1.196
 9959W        W78177   8.950  14.789  11.441
 9960W        W78178   5.756   7.681  10.966
 9961W        W78179  40.029   0.106   3.687
 9962W        W78180  15.187  34.898  12.407
 9963W        W78181  12.029  29.542   2.343
 9964W        W78182   3.976  42.862  11.071
 9965W        W78183  22.196  29.087   4.793
 9966W        W78184  13.895  25.693   3.300
 9967W        W78185   2.268  30.048   3.305
 9968W        W78186  16.591   1.770   4.568
 9969W        W78187  44.056  13.831   3.342
 9970W        W78188  27.065  25.221   5.391
 9971W        W78189  24.095  22.232   2.353
 9972W        W78190   7.226  14.339  13.952
 9973W        W78191  39.755  33.619   2.374
 9974W        W78192  37.441  24.244   3.701
 9975W        W78193  40.083  13.615  13.049
 9976W        W78194  31.899   1.978  13.265
 9977W        W78195   2.502   9.551   3.625
 9978W        W78196  20.488  34.545   2.693
 9979W        W78197  19.269   2.335   4.614
 9980W        W78198  42.240  40.955  11.432
 9981W        W78199  18.399  14.527   0.977
 9982W        W78200   6.266  15.369   2.282
 9983W        W78201  15.800  32.461   4.128
 9984W        W78202   7.829  44.962  14.017
 9985W        W78203  41.405  16.673  14.480
 9986W        W78204   5.849  27.223  10.330
 9987W        W78205  29.050  32.128  11.637
 9988W        W78206  41.816  44.472  13.893
 9989W        W78207  29.493  39.398  12.041
 9990W        W78208  29.120   0.981   1.430
 9991W        W78209   5.768  31.129  11.618
 9992W        W78210  14.775  18.535   1.855
 9993W        W78211   5.835   0.737  10.931
 9994W        W78212  23.719   4.340   3.276
 9995W        W78213  31.852  10.149   3.720
 9996W        W78214  37.986  22.284   0.835
 9997W        W78215  19.451  39.011  11.663
 9998W        W78216   7.893   7.693   3.061
 9999W        W78217   2.462  12.763   4.599
10000W        W78218  32.418  36.054   1.774
10001W        W78219   7.986  29.491  10.761
10002W        W78220   6.828   9.174  11.563
10003W        W78221  10.387  22.604   1.371
10004W        W78222  30.449   2.677   9.695
10005W        W78223  23.209  24.245  13.993
10006W        W78224  22.627  32.965  10.496
10007W        W78225  41.312  10.305  12.440
10008W        W78226  15.611  15.856  13.167
10009W        W78227   0.524  21.578   2.702
10010W        W78228   1.707  19.651  11.151
10011W        W78229  23.142  10.247  14.543
10012W        W78230  32.397  33.453  13.136
10013W        W78231  27.637  21.543   4.380
10014W        W78232  37.274   2.359  12.693
10015W        W78233  25.272  35.804   4.638
10016W        W78234   8.854   3.360   1.512
10017W        W78235  26.244  44.526  13.385
10018W        W78236  41.918   9.340   1.888
10019W        W78237   0.551   5.315  13.516
10020W        W78238  10.759   9.354   3.732
10021W        W78239  14.046  14.450  12.234
10022W        W78240  30.717  44.242  13.917
10023W        W78241  42.413  15.151  12.978
10024W        W78242  25.232   1.065  14.765
10025W        W78243  17.161  38.411   0.411
10026W        W78244  16.807  17.226   0.109
10027W        W78245  10.849  39.529  14.824
10028W        W78246   4.878  16.527  13.924
10029W        W78247  20.506  36.583   1.086
10030W        W78248  37.223   2.935   1.961
10031W        W78249  18.474  44.424   1.781
10032W        W78250  35.989  16.328   1.738
10033W        W78251  31.167  33.534  10.547
10034W        W78252   6.757  27.560   3.902
10035W        W78253  39.859  35.090  11.154
10036W        W78254  23.545  36.462   3.158
10037W        W78255  29.395  39.603  13.413
10038W        W78256  26.040  35.272   1.114
10039W        W78257  41.468  34.620  11.179
10040W        W78258  34.604  12.748  13.018
10041W        W78259  11.673  22.287  13.514
10042W        W78260  36.410  10.397   4.133
10043W        W78261  35.378  19.103  11.871
10044W        W78262  29.022  29.792   4.285
10045W        W78263  44.470   9.697   1.199
10046W        W78264  43.263  18.248   0.481
10047W        W78265  20.653  35.869  10.277
10048W        W78266  37.533  23.611  10.415
10049W        W78267   2.261   8.362  11.558
10050W        W78268  23.918   0.757  10.988
10051W        W78269  10.268  11.863   0.513
10052W        W78270  34.743  21.171   1.918
10053W        W78271  20.460  27.171  11.072
10054W        W78272  11.614  25.198  14.965
10055W        W78273  16.301  35.403   4.606
10056W        W78274  16.673  17.854  12.139
10057W        W78275  31.081  16.183  10.228
10058W        W78276  31.200  24.092   5.192
10059W        W78277  42.411  26.582  13.810
10060W        W78278  28.267   0.773   1.303
10061W        W78279  12.330  37.673  12.852
10062W        W78280  24.165  20.651   3.251
10063W        W78281  40.407  26.565  12.588
10064W        W78282  23.688   4.424  13.517
10065W        W78283  41.917  15.433   3.223
10066W        W78284  33.482   8.293   3.780
10067W        W78285   0.160  37.091   3.816
10068W        W78286  42.779  22.531   1.776
10069W        W78287  29.699  17.995  11.044
10070W        W78288  20.092  43.989   0.952
10071W        W78289   7.978  12.757   0.696
10072W        W78290   6.275  18.926   1.365
10073W        W78291  34.690   6.259  14.198
10074W        W78292  33.442  33.016   0.015
10075W        W78293  33.010   3.639  13.435
10076W        W78294   3.900  32.094  10.576
10077W        W78295  37.260  12.879   0.354
10078W        W78296  32.375  29.645   4.053
10079W        W78297  14.986  20.894  14.841
10080W        W78298  12.347  38.038   1.703
10081W        W78299  27.615   5.668   1.032
10082W        W78300   4.330  34.092   4.656
10083W        W78301  39.305  29.438  13.412
10084W        W78302   1.012   7.823   4.701
10085W        W78303  32.453  14.977   2.365
10086W        W78304  35.414  32.053   0.799
10087W        W78305  44.356  10.773  12.021
10088W        W78306  41.934   3.167  10.459
10089W        W78307  37.983  25.517   0.533
10090W        W78308  32.348   6.554   1.040
10091W        W78309  19.865  36.767  12.099
10092W        W78310  38.103  30.754   4.923
10093W        W78311   5.318  41.977  13.774
10094W        W78312  37.531  23.715   2.855
10095W        W78313   7.586  32.495   2.015
10096W        W78314  21.219  20.644  13.592
10097W        W78315  30.822  19.788   0.249
10098W        W78316  40.451  18.514  14.534
10099W        W78317  37.914  18.673   1.063
10100W        W78318   3.475  28.945  14.818
10101W        W78319  18.041  25.646   1.511
10102W        W78320  26.706  37.137   0.389
10103W        W78321  20.291  29.075  10.300
10104W        W78322  14.623   2.795   0.373
10105W        W78323  12.392  42.361   3.762
10106W        W78324  13.340  25.216  10.240
10107W        W78325  39.868  38.039  12.921
10108W        W78326   2.760  30.677   4.672
10109W        W78327  28.062  25.677   2.427
10110W        W78328   8.198  13.854  10.774
10111W        W78329  23.677  25.568  11.064
10112W        W78330  33.621  11.105  14.087
10113W        W78331  37.009  39.962   3.556
10114W        W78332   1.235  33.107   2.796
10115W        W78333   8.579   1.779  11.112
10116W        W78334  19.168  10.155  11.078
10117W        W78335  42.974   8.344  12.942
10118W        W78336  34.350  31.819   0.501
10119W        W78337   1.211  35.984  10.757
10120W        W78338  19.277  15.531   4.761
10121W        W78339  16.656  38.966  10.576
10122W        W78340  36.912   8.172   1.439
10123W        W78341  36.654  28.108   2.990
10124W        W78342  35.047  30.542  12.622
10125W        W78343  36.522  20.888  11.578
10126W        W78344  11.688  11.447   4.497
10127W        W78345  24.630  10.754  10.665
10128W        W78346  17.488  20.774   3.314
10129W        W78347  39.455  35.145   4.575
10130W        W78348   6.787  19.724  11.015
10131W        W78349  25.256   8.426   1.188
10132W        W78350  30.740  22.532   2.055
10133W        W78351  39.086  44.332   3.768
10134W        W78352  14.163  35.138  11.101
10135W        W78353  41.051  16.667   1.849
10136W        W78354  29.849  34.489  14.445
10137W        W78355  25.205  33.858  13.778
10138W        W78356  17.382  36.342  10.594
10139W        W78357  41.538  44.868   1.757
10140W        W78358  34.669  21.178  11.556
10141W        W78359  31.105  42.744   5.111
10142W        W78360  23.487   3.549   2.314
10143W        W78361  15.752  44.488  12.880
10144W        W78362  31.864  39.457  11.498
10145W        W78363   2.349  11.131  13.932
10146W        W78364  31.123  16.907   9.802
10147W        W78365   3.412   9.631  14.743
10148W        W78366  24.546  44.824   4.573
10149W        W78367  31.957  38.106  14.360
10150W        W78368   1.000  21.275  10.662
10151W        W78369  31.989  37.581   0.447
10152W        W78370  22.770  21.313   2.238
10153W        W78371   0.009  23.383   4.720
10154W        W78372  44.292  44.977   1.752
10155W        W78373   7.259  22.761   1.229
10156W        W78374   4.386   6.424  14.336
10157W        W78375  30.395  21.487  11.903
10158W        W78376   0.260   7.401   4.135
10159W        W78377  14.360  10.016   2.105
10160W        W78378  19.141  26.035  13.424
10161W        W78379  28.067  43.299   4.281
10162W        W78380  30.639   7.809  13.317
10163W        W78381  39.552  39.491  11.499
10164W        W78382  11.178  11.070   4.134
10165W        W78383  28.155   5.312  12.731
10166W        W78384  12.785  15.458   5.170
10167W        W78385   0.589  33.480  13.386
10168W        W78386  32.632  16.235   2.875
10169W        W78387   3.344  39.906   3.704
10170W        W78388  43.221  24.084  11.725
10171W        W78389  25.572  42.472  13.881
10172W        W78390   2.416  32.656  12.244
10173W        W78391  43.983  38.003   1.392
10174W        W78392  12.194   3.607  13.003
10175W        W78393   5.734   0.450   1.554
10176W        W78394  30.049  39.443   4.967
10177W        W78395  30.049   3.983   0.970
10178W        W78396  26.409  20.082  14.898
10179W        W78397  18.498  39.997  14.421
10180W        W78398  24.508  29.123  12.319
10181W        W78399  36.479  19.311  12.493
10182W        W78400  34.092  19.699   0.849
10183W        W78401  12.570  39.098  13.430
10184W        W78402  40.816  16.531  12.951
10185W        W78403  11.720   9.296   4.336
10186W        W78404  33.539  36.347   4.599
10187W        W78405   5.778  44.283   3.572
10188W        W78406  26.732  21.102  11.626
10189W        W78407   6.587  28.203   4.552
10190W        W78408   3.947  10.968  13.354
10191W        W78409  15.025   3.747  14.953
10192W        W78410  17.130  22.259  12.113
10193W        W78411   3.292  38.510   4.921
10194W        W78412  44.888   8.981  12.173
10195W        W78413  34.664  39.564   4.436
10196W        W78414  11.918  17.529   3.668
10197W        W78415  38.414  26.505  13.929
10198W        W78416  29.516   4.465   1.274
10199W        W78417  24.931  18.321  11.389
10200W        W78418  33.261  25.567   2.729
10201W        W78419   2.250   1.686   3.222
10202W        W78420  39.307   2.495  13.503
10203W        W78421  44.547  29.006  12.058
10204W        W78422   5.264  22.759  14.801
10205W        W78423   0.540  21.920  11.673
10206W        W78424  27.039   5.268  11.772
10207W        W78425  23.486  31.177  13.848
10208W        W78426  23.151   1.057   1.165
10209W        W78427  37.799  39.467  11.151
10210W        W78428  27.544   0.443   2.226
10211W        W78429   8.400  27.893   2.414
10212W        W78430  44.332  13.929  14.565
10213W        W78431  25.116  40.910   4.456
10214W        W78432  32.003   7.023  10.557
10215W        W78433  35.790   6.870  14.341
10216W        W78434   0.828   6.944   2.001
10217W        W78435  11.913  41.342   0.523
10218W        W78436  31.425  18.727  12.199
10219W        W78437  28.177   1.906   4.258
10220W        W78438  40.351   8.754  10.361
10221W        W78439   7.978  27.663   2.250
10222W        W78440   6.254  25.122  12.063
10223W        W78441  43.008  32.055   1.963
10224W        W78442  31.769  29.589  10.345
10225W        W78443   9.042  42.385   4.105
10226W        W78444  16.847  28.867  10.567
10227W        W78445  17.648  31.447  10.693
10228W        W78446  21.056  31.209   0.803
10229W        W78447  34.698  11.141  14.162
10230W        W78448  39.053  31.140   3.432
10231W        W78449   6.505   2.033   2.249
10232W        W78450  42.112   7.384   1.218
10233W        W78451   1.415  15.799  14.709
10234W        W78452  19.205  14.671  11.184
10235W        W78453  35.479  25.261   4.084
10236W        W78454  18.209  42.777  13.354
10237W        W78455  13.034  23.353   4.110
10238W        W78456   1.523   0.482   0.979
10239W        W78457  20.765  31.667  13.309
10240W        W78458  42.072  14.397  14.500
10241W        W78459  30.643  12.168  14.333
10242W        W78460   6.328   0.826  14.269
10243W        W78461  36.112  44.145   4.346
10244W        W78462   1.383  26.786   4.941
10245W        W78463   7.575  37.967   0.913
10246W        W78464  43.962   4.761   0.908
10247W        W78465   1.956  40.561   3.160
10248W        W78466  10.231   2.585   0.551
10249W        W78467   4.185  41.598  10.697
10250W        W78468  17.677  13.626  12.237
10251W        W78469   4.836  22.295  14.476
10252W        W78470  34.306  30.781  10.062
10253W        W78471  44.540   1.610  13.062
10254W        W78472  10.794  14.897   2.278
10255W        W78473  42.077  22.989   3.587
10256W        W78474  44.092  18.493   2.377
10257W        W78475  22.195   2.034  14.693
10258W        W78476  11.863  14.339  13.717
10259W        W78477  17.073  39.325   0.261
10260W        W78478   5.662  21.933  11.756
10261W        W78479   9.659  44.258  13.949
10262W        W78480  34.640   2.443   1.848
10263W        W78481   1.759   9.057   1.300
10264W        W78482  39.042  29.356   2.220
10265W        W78483  33.428   4.742   1.248
10266W        W78484   9.078   9.674  10.744
10267W        W78485   4.251  11.589   1.846
10268W        W78486  23.672  38.069  14.325
10269W        W78487  38.728  10.926   2.413
10270W        W78488  42.810  34.043  11.830
10271W        W78489  22.198  44.976   3.649
10272W        W78490  28.920  44.476   3.660
10273W        W78491  10.073   2.140   2.717
10274W        W78492  44.715   2.206   2.456
10275W        W78493  23.516  38.897   0.001
10276W        W78494  32.387  33.095  14.125
10277W        W78495   2.325   5.552   0.222
10278W        W78496   8.171  16.949   2.695
10279W        W78497  29.345  18.738   2.763
10280W        W78498  40.338  26.918  11.816
10281W        W78499  16.707  19.016   0.107
10282W        W78500  28.560  39.967   3.194
10283W        W78501  15.502  44.482   1.274
10284W        W78502  20.208  16.011   5.517
10285W        W78503   6.969  26.453  14.703
10286W        W78504   3.871  19.049  12.435
10287W        W78505  29.831  21.054   1.163
10288W        W78506  40.997  33.668  11.966
10289W        W78507  29.611  25.885   4.022
10290W        W78508  42.001   5.423  12.982
10291W        W78509  24.239  22.509  12.913
10292W        W78510   0.827   3.058   0.036
10293W        W78511  38.644  19.614   3.341
10294W        W78512  13.242  11.790   3.396
10295W        W78513  24.955  34.972  12.489
10296W        W78514   9.785  11.116   2.900
10297W        W78515   0.397   1.875   2.707
10298W        W78516  33.601  31.995  12.141
10299W        W78517  30.611   9.086   0.983
10300W        W78518   0.100  44.328   1.913
10301W        W78519  29.441  33.395   4.576
10302W        W78520  43.407  33.387  10.950
10303W        W78521  26.161  35.033   0.343
10304W        W78522  11.817  40.155  10.423
10305W        W78523   8.975  11.837  12.022
10306W        W78524  24.095  12.053   1.669
10307W        W78525   8.470   6.867  10.812
10308W        W78526  10.970  12.948  12.952
10309W        W78527  28.729  40.018   0.476
10310W        W78528  14.711   0.735   3.644
10311W        W78529   7.382  24.227  10.622
10312W        W78530  29.021   2.578   4.331
10313W        W78531  17.231  30.901   4.092
10314W        W78532   3.056  15.666  13.574
10315W        W78533  43.671   0.894  10.830
10316W        W78534  25.079  17.390   1.707
10317W        W78535  16.644  42.286  12.990
10318W        W78536   7.412  13.358  11.513
10319W        W78537  35.919  13.713  14.347
10320W        W78538  39.897   7.413  12.421
10321W        W78539  44.632  27.525  13.678
10322W        W78540  11.908  16.179   2.670
10323W        W78541   3.629  44.855   1.521
10324W        W78542  13.267   8.893  12.360
10325W        W78543  10.290  22.528  13.576
10326W        W78544   0.479   4.354  11.217
10327W        W78545   9.719  38.561  12.457
10328W        W78546   1.298   3.461  12.544
10329W        W78547  10.273  38.066   0.210
10330W        W78548  44.696  20.722  12.772
10331W        W78549   1.531   1.281  13.878
10332W        W78550  27.769  44.801  12.479
10333W        W78551   1.017  24.380   3.787
10334W        W78552  36.400  11.656  10.351
10335W        W78553  41.744   3.292   3.661
10336W        W78554   0.828  12.304   1.400
10337W        W78555  37.138  25.459   2.372
10338W        W78556  39.951  27.068   2.692
10339W        W78557   6.982   4.888  12.062
10340W        W78558   6.263   2.536   1.330
10341W        W78559  44.717  24.672  11.093
10342W        W78560  34.811   8.153   2.652
10343W        W78561  22.033  41.497   0.638
10344W        W78562  34.090  20.331  13.985
10345W        W78563  11.923  31.034  11.401
10346W        W78564  30.836  37.971   0.724
10347W        W78565  41.980  20.137  10.806
10348W        W78566  36.891  38.978  10.617
10349W        W78567  41.765  30.517   2.383
10350W        W78568  10.917  22.618   1.323
10351W        W78569  22.831  19.653  10.450
10352W        W78570  28.747  26.693   0.111
10353W        W78571   5.845  14.360  12.175
10354W        W78572  17.726   1.358  10.235
10355W        W78573  10.723   5.675  13.854
10356W        W78574  29.905  19.579   0.362
10357W        W78575  36.050   5.456  13.459
10358W        W78576   2.167   0.337  11.450
10359W        W78577  17.487  22.181  10.996
10360W        W78578   1.888  18.017   0.193
10361W        W78579   9.982  39.053   1.424
10362W        W78580   8.769   5.240  12.342
10363W        W78581  39.437  21.171  11.854
10364W        W78582  25.643  39.605  11.455
10365W        W78583  32.689   9.763   4.570
10366W        W78584  12.259  40.541   4.597
10367W        W78585  10.650  34.536   1.435
10368W        W78586  30.244  39.009  14.777
10369W        W78587  40.034  27.548  13.362
10370W        W78588   1.873  19.274   4.113
10371W        W78589   5.935  43.856  11.014
10372W        W78590  17.533  43.248  14.808
10373W        W78591  42.059  44.998   1.811
10374W        W78592   6.680  20.785  12.465
10375W        W78593  25.699  27.897  10.320
10376W        W78594  44.460  26.631  10.881
10377W        W78595  36.978  36.668  11.090
10378W        W78596  42.273  26.977  12.588
10379W        W78597  44.271  18.945  13.833
10380W        W78598  34.450   1.221   0.265
10381W        W78599  42.875   5.305  12.501
10382W        W78600  26.878   7.239  12.787
10383W        W78601  38.951   3.975   5.286
10384W        W78602   9.004  30.914   1.460
10385W        W78603  29.384  33.646   3.282
10386W        W78604   8.868   5.791  14.548
10387W        W78605  29.268  33.385  14.736
10388W        W78606   2.752  38.124  11.270
10389W        W78607  10.696   0.121  12.034
10390W        W78608  14.597  31.579  14.800
10391W        W78609   5.871  41.742  12.458
10392W        W78610   9.663  37.657  12.582
10393W        W78611  22.558  20.837   2.221
10394W        W78612  43.866  12.081   3.583
10395W        W78613   7.670   3.141   5.143
10396W        W78614  28.597  15.020  12.783
10397W        W78615   9.053  11.941   2.258
10398W        W78616   3.670   9.721   4.596
10399W        W78617   2.456  28.070   1.962
10400W        W78618  11.703  34.095   4.931
10401W        W78619  24.978  31.497   3.730
10402W        W78620   7.188  17.611   1.217
10403W        W78621  17.709  27.956   0.876
10404W        W78622  22.207  24.713   1.806
10405W        W78623   3.975  38.788  10.713
10406W        W78624  40.415   4.680  12.545
10407W        W78625  37.226  20.759   4.788
10408W        W78626  22.511  22.135   0.617
10409W        W78627  35.046  19.511   4.192
10410W        W78628  35.509  30.966   2.732
10411W        W78629   4.533  29.961   3.207
10412W        W78630  20.313  38.855  12.950
10413W        W78631  32.581  36.506  10.998
10414W        W78632  23.482  42.251  13.307
10415W        W78633  23.758  25.971   3.209
10416W        W78634  25.938  29.024   0.995
10417W        W78635  30.594  39.307   3.719
10418W        W78636  33.505  40.444   4.541
10419W        W78637  30.079  24.537   3.707
10420W        W78638  26.160  28.523  11.147
10421W        W78639  35.488   8.753   3.376
10422W        W78640  39.304   8.931   2.716
10423W        W78641   4.342   3.392   4.058
10424W        W78642  12.574  39.891   1.743
10425W        W78643  39.941  41.953   2.300
10426W        W78644  16.170  12.900   3.677
10427W        W78645  32.138  41.792  13.237
10428W        W78646  16.452  20.412   0.756
10429W        W78647  36.829  37.411   2.424
10430W        W78648   9.193  32.242  12.926
10431W        W78649  24.188  23.253   3.239
10432W        W78650   6.833  25.430  10.489
10433W        W78651  10.203   7.675   1.893
10434W        W78652   5.143  43.261   3.433
10435W        W78653   7.194   6.794  14.697
10436W        W78654   1.142  35.615  13.546
10437W        W78655   1.270   0.238  11.869
10438W        W78656  27.963  35.145  11.120
10439W        W78657   8.899  41.853   0.321
10440W        W78658  37.267  16.070   0.253
10441W        W78659  33.116  26.412  10.756
10442W        W78660  25.866  34.133  11.268
10443W        W78661  38.324  26.764   1.873
10444W        W78662  17.351  27.566  13.031
10445W        W78663  37.574  28.105  14.482
10446W        W78664  28.948  13.555   1.290
10447W        W78665  38.081   7.164   1.479
10448W        W78666  31.531  31.886   1.317
10449W        W78667  21.464  14.160   4.111
10450W        W78668  27.382  33.014   2.727
10451W        W78669  37.438  21.357  11.764
10452W        W78670  29.565   0.205   0.271
10453W        W78671  31.984  30.561  11.258
10454W        W78672  25.371  20.733   0.839
10455W        W78673   1.910  36.591  12.130
10456W        W78674  22.756   0.588  13.953
10457W        W78675  27.012   4.145   1.772
10458W        W78676  43.018  28.452   3.189
10459W        W78677   8.017  20.128   3.780
10460W        W78678  18.914  16.293   1.895
10461W        W78679   4.362  26.039   3.381
10462W        W78680  29.057   1.360  10.836
10463W        W78681   0.481  21.190   1.835
10464W        W78682  17.913  20.747  13.839
10465W        W78683  18.106  19.593   5.331
10466W        W78684  32.900  26.029   1.419
10467W        W78685   5.419  31.225  13.504
10468W        W78686  14.222  22.278   2.215
10469W        W78687  32.847  23.624   2.691
10470W        W78688  34.017  32.104   4.204
10471W        W78689   7.349  10.634   2.251
10472W        W78690  36.006   0.772   3.239
10473W        W78691  11.461  43.293  13.371
10474W        W78692  15.710  43.598   2.369
10475W        W78693  43.466  36.503  14.379
10476W        W78694  43.921  35.228   0.859
10477W        W78695  21.286  40.666   3.196
10478W        W78696  33.861  39.792  10.707
10479W        W78697  19.185  23.549  13.199
10480W        W78698  24.061  33.211  10.381
10481W        W78699   0.855  17.535  11.940
10482W        W78700  25.544  26.901  13.597
10483W        W78701  30.482  39.322  11.925
10484W        W78702   3.915   2.995  12.887
10485W        W78703   1.741  15.779   0.957
10486W        W78704  23.477  19.857   1.442
10487W        W78705  12.449  26.720   0.850
10488W        W78706  24.081  17.154  13.619
10489W        W78707  14.538  37.476   4.930
10490W        W78708  30.055   2.623   2.446
10491W        W78709  39.889  40.484  13.987
10492W        W78710  42.557  21.003  10.924
10493W        W78711  39.371  11.588  12.588
10494W        W78712   7.894  32.035  14.758
10495W        W78713   7.908   1.960   0.812
10496W        W78714  29.816  20.093   0.301
10497W        W78715  43.149  39.348  14.496
10498W        W78716  14.152  33.489   2.016
10499W        W78717  22.179  35.679   4.038
10500W        W78718  22.217  19.654   2.659
10501W        W78719   1.856   6.273  10.708
10502W        W78720  37.123  25.210   3.780
10503W        W78721   4.711   4.569  11.991
10504W        W78722  17.464  18.601  10.264
10505W        W78723  14.298  26.426   3.733
10506W        W78724  42.337  13.956   1.317
10507W        W78725  27.968   2.601  14.912
10508W        W78726  17.874  27.517  13.910
10509W        W78727  14.653   3.045  12.346
10510W        W78728  35.964  15.567   4.196
10511W        W78729  26.302  40.983  11.532
10512W        W78730  25.022  14.079   1.362
10513W        W78731  41.885  35.628   0.528
10514W        W78732   1.847  44.476  13.054
10515W        W78733  34.886   7.263   0.276
10516W        W78734   1.857  34.260  14.747
10517W        W78735   4.452   0.777  13.914
10518W        W78736   8.160  20.063  11.887
10519W        W78737   4.406  12.848   3.258
10520W        W78738  13.258  29.916   2.207
10521W        W78739  39.772  29.092  12.717
10522W        W78740  40.748  34.047   2.622
10523W        W78741  30.190   3.241   1.374
10524W        W78742  44.913  43.469   4.346
10525W        W78743  31.001   6.062  12.942
10526W        W78744  24.150   9.410   0.172
10527W        W78745  20.766  39.362   0.393
10528W        W78746  26.100   6.132  14.913
10529W        W78747  27.933  22.928  13.090
10530W        W78748   5.244  34.914   1.405
10531W        W78749   7.680  43.983  11.877
10532W        W78750   4.980  43.528   2.335
10533W        W78751  30.798   1.922   2.390
10534W        W78752   3.325  40.693   1.248
10535W        W78753  25.362  41.521   3.328
10536W        W78754  19.546   6.895   3.123
10537W        W78755  30.272  17.987   0.422
10538W        W78756  24.672  35.863  14.388
10539W        W78757  18.456  25.271  13.576
10540W        W78758  39.623  20.018  10.975
10541W        W78759  42.582  43.583  14.616
10542W        W78760  33.885  14.795  12.440
10543W        W78761  39.554  10.165   1.039
10544W        W78762   0.838  39.316  11.206
10545W        W78763  28.911   2.725   0.462
10546W        W78764  41.579  29.071  10.822
10547W        W78765  26.913  33.419   4.450
10548W        W78766  20.573  26.254   1.775
10549W        W78767  21.443  39.335   4.237
10550W        W78768  36.970  11.149  10.483
10551W        W78769  41.968  19.213  12.836
10552W        W78770  22.538  33.495   2.721
10553W        W78771  16.558  43.097  11.258
10554W        W78772  44.550  41.917  14.397
10555W        W78773  11.473  28.782  12.384
10556W        W78774   1.331  16.622  13.865
10557W        W78775  16.726   6.626  13.128
10558W        W78776  38.595  23.606  11.708
10559W        W78777  43.909  37.523   1.191
10560W        W78778   8.781  31.846  11.459
10561W        W78779   7.266  36.252   3.306
10562W        W78780   1.815   4.366   3.818
10563W        W78781  28.446  33.067   4.663
10564W        W78782  21.544   4.964  13.950
10565W        W78783  42.897  43.366  10.500
10566W        W78784  22.588  22.450   3.313
10567W        W78785  37.935   0.016  14.310
10568W        W78786  28.410  20.697   2.741
10569W        W78787  23.724   4.855  11.935
10570W        W78788  33.376  38.840   4.208
10571W        W78789  25.503  30.952  12.654
10572W        W78790   4.212  19.187  13.983
10573W        W78791  15.787  23.595   4.570
10574W        W78792  15.138  19.027   1.452
10575W        W78793   5.859   6.830  14.728
10576W        W78794   3.545  41.387   0.489
10577W        W78795  38.416  31.572  14.843
10578W        W78796  15.270  21.970  13.046
10579W        W78797  30.010  16.693   3.118
10580W        W78798  32.145  37.107   3.083
10581W        W78799  23.398   0.813  11.559
10582W        W78800  33.373  44.942   3.769
10583W        W78801  23.631  23.610  11.091
10584W        W78802   6.821   1.561  13.532
10585W        W78803  40.358  18.532   1.411
10586W        W78804   0.259  10.207   3.921
10587W        W78805  10.156  28.104   3.643
10588W        W78806  27.858   5.457   4.471
10589W        W78807   0.267  35.909  10.697
10590W        W78808   1.564  24.640   1.905
10591W        W78809  31.525   9.950   1.775
10592W        W78810  16.282  26.612  14.031
10593W        W78811  43.701   9.174   3.266
10594W        W78812  36.099  38.103  12.114
10595W        W78813  37.097  35.232  14.315
10596W        W78814  29.293   1.489  13.493
10597W        W78815  33.927  19.959  13.517
10598W        W78816   9.559  23.056   3.735
10599W        W78817  11.822  22.029   4.725
10600W        W78818   9.207  12.862  13.823
10601W        W78819  21.110   0.749   3.262
10602W        W78820   8.628  37.742  13.049
10603W        W78821  24.595  11.149   0.303
10604W        W78822   2.717  13.611  10.744
10605W        W78823   2.352  27.253  14.713
10606W        W78824  33.562  27.627   1.017
10607W        W78825  40.286  41.516  11.839
10608W        W78826   9.817   8.716  13.078
10609W        W78827  16.669   6.182   0.321
10610W        W78828   4.210  42.698  10.643
10611W        W78829   8.471  16.370   3.271
10612W        W78830  38.067  37.552  12.579
10613W        W78831   4.819  18.283  10.833
10614W        W78832  26.684   2.590  11.810
10615W        W78833  27.427  19.653  13.970
10616W        W78834   8.908   0.472   3.767
10617W        W78835  35.035  38.683   4.082
10618W        W78836  20.050  43.999   4.158
10619W        W78837  14.385  35.996  14.450
10620W        W78838  30.100   7.194   1.956
10621W        W78839  33.285  14.204  14.021
10622W        W78840  18.264  15.300  12.072
10623W        W78841  41.185  38.566  14.346
10624W        W78842  29.204  16.127  13.077
10625W        W78843  42.804  16.368   0.321
10626W        W78844   8.362  30.242  10.846
10627W        W78845  28.931  40.921   3.181
10628W        W78846  38.376  30.557  12.186
10629W        W78847   9.329  26.611   4.069
10630W        W78848   0.263  14.815  14.266
10631W        W78849  28.122  16.334   2.744
10632W        W78850  27.948  14.878  11.231
10633W        W78851  30.917  12.613  14.267
10634W        W78852  44.987   5.289  14.825
10635W        W78853  28.460  26.525   1.330
10636W        W78854  32.525  28.098   3.265
10637W        W78855   6.373  12.398   0.469
10638W        W78856   4.075  37.881  12.077
10639W        W78857  14.567   1.193   1.380
10640W        W78858  23.968  10.233   4.530
10641W        W78859  30.119  33.998  13.544
10642W        W78860   6.745  33.620  12.037
10643W        W78861  28.457   2.237  11.780
10644W        W78862  33.972   7.458  10.400
10645W        W78863  35.800  21.602  14.831
10646W        W78864  11.155  34.399   1.402
10647W        W78865  29.474   7.752   3.761
10648W        W78866  36.963  37.514  10.764
10649W        W78867   4.419   4.163  13.830
10650W        W78868   0.878  11.388  11.138
10651W        W78869   3.827  34.098   0.489
10652W        W78870  16.198  38.048  14.977
10653W        W78871   3.352   4.779  11.879
10654W        W78872  22.432  33.448   3.632
10655W        W78873  24.059  32.582  11.231
10656W        W78874  43.391  38.010   4.928
10657W        W78875  23.019  19.605   3.170
10658W        W78876  16.586  21.176   0.539
10659W        W78877  18.552  17.257   3.549
10660W        W78878  37.882  26.977  11.411
10661W        W78879  30.404  43.126   3.295
10662W        W78880  10.534  25.069   4.685
10663W        W78881  40.091  22.696  11.570
10664W        W78882  37.822  42.249   4.185
10665W        W78883  34.994   6.185   4.685
10666W        W78884  42.094   8.822  11.094
10667W        W78885  39.010   0.909   1.978
10668W        W78886  14.388  32.442   3.114
10669W        W78887  31.980  12.614   3.161
10670W        W78888  37.556  38.571   0.532
10671W        W78889  13.794  35.140  11.487
10672W        W78890  16.837  20.631  10.705
10673W        W78891   2.772  11.234  13.600
10674W        W78892  42.373   8.386   4.897
10675W        W78893  40.402  29.536  11.903
10676W        W78894   4.699  34.896  10.291
10677W        W78895  31.108  37.259  11.994
10678W        W78896  28.069  24.078  11.629
10679W        W78897  32.113  15.924  12.350
10680W        W78898  40.309   5.506   0.384
10681W        W78899  24.447  14.359   0.267
10682W        W78900  34.368  29.453  12.468
10683W        W78901  34.362  36.105   2.921
10684W        W78902  34.242  18.230  13.039
10685W        W78903  30.686  31.824  14.762
10686W        W78904  36.841  33.817   0.849
10687W        W78905  23.609  38.807  12.858
10688W        W78906  11.865  34.120   2.386
10689W        W78907  36.614   8.139  11.091
10690W        W78908   7.446  35.463   4.286
10691W        W78909  40.958  16.074   1.747
10692W        W78910  39.444  24.234   0.747
10693W        W78911  14.259  38.626   0.836
10694W        W78912  14.594  12.212   0.978
10695W        W78913  26.044  31.509   4.668
10696W        W78914  11.551  30.924   0.255
10697W        W78915  43.545  25.444   3.954
10698W        W78916   1.524  13.310  12.509
10699W        W78917  11.341   2.308   2.338
10700W        W78918  23.976  11.677  11.985
10701W        W78919  34.071  25.554   5.165
10702W        W78920  16.084  43.544  12.958
10703W        W78921   0.318  30.735   4.259
10704W        W78922  31.409  30.093  12.471
10705W        W78923   5.302  32.715  11.054
10706W        W78924  37.517  25.431   1.473
10707W        W78925  40.494  39.362  10.578
10708W        W78926  39.242  25.437  11.178
10709W        W78927  43.124  19.181   3.293
10710W        W78928   9.659  30.510   3.342
10711W        W78929   1.393   1.816  11.208
10712W        W78930   1.009  35.996  14.351
10713W        W78931  13.123   6.111   0.729
10714W        W78932   5.701   4.438   4.169
10715W        W78933   9.847   3.592  12.006
10716W        W78934  11.675  27.202   4.553
10717W        W78935   5.486  23.935  12.546
10718W        W78936  17.384   4.827   4.928
10719W        W78937  22.635   1.133  12.038
10720W        W78938  17.823  16.165   4.957
10721W        W78939  26.836  30.323  12.934
10722W        W78940  32.096  34.186  13.492
10723W        W78941  40.362   9.672  13.610
10724W        W78942  23.749  32.834  12.102
10725W        W78943   4.692  34.813  13.343
10726W        W78944  38.941  17.817   0.323
10727W        W78945  42.073   1.253  13.929
10728W        W78946  26.511  28.240  12.079
10729W        W78947  12.703   2.247  12.937
10730W        W78948  21.612  21.662   0.425
10731W        W78949  24.925  19.606  11.088
10732W        W78950  22.943  25.557   3.708
10733W        W78951   7.348   4.219   2.788
10734W        W78952  43.115   2.438   3.672
10735W        W78953  35.941  23.492   0.831
10736W        W78954   8.820  17.161  10.664
10737W        W78955  43.215  19.050   4.095
10738W        W78956   5.570  11.742  14.057
10739W        W78957  36.515  33.427  14.256
10740W        W78958  24.490  15.249   4.665
10741W        W78959  41.234  23.705   1.663
10742W        W78960  43.847   8.028  14.597
10743W        W78961  38.793  22.027  10.254
10744W        W78962  43.196  42.788  10.806
10745W        W78963   0.781  23.523  10.617
10746W        W78964   0.806  25.201  13.026
10747W        W78965   5.501  38.556  13.433
10748W        W78966  22.991  24.683  14.223
10749W        W78967  10.758   4.106  12.475
10750W        W78968  16.874  17.246  14.513
10751W        W78969  32.851  33.191  14.357
10752W        W78970  18.258  22.580   1.774
10753W        W78971  32.450   3.975   0.427
10754W        W78972  27.481  31.993   4.326
10755W        W78973  20.619  17.642   0.282
10756W        W78974   4.501  29.154  14.927
10757W        W78975  20.090   5.632  10.358
10758W        W78976  27.620  19.196  13.826
10759W        W78977  20.185   6.747  11.036
10760W        W78978  26.588   4.709  13.290
10761W        W78979   6.717  14.299  11.370
10762W        W78980  18.325  14.811   2.528
10763W        W78981  42.910  29.619  10.695
10764W        W78982  44.999  26.761  13.913
10765W        W78983  21.058  16.753  13.928
10766W        W78984  27.165   4.745  11.542
10767W        W78985  33.992  29.427  11.611
10768W        W78986  11.298  17.084  10.844
10769W        W78987   8.395  22.436  10.803
10770W        W78988   1.442  19.145   2.614
10771W        W78989  34.056  27.048  12.050
10772W        W78990  40.317   3.861   3.391
10773W        W78991  35.387   4.987  10.158
10774W        W78992  30.976  44.699  11.028
10775W        W78993  33.836   6.073   1.735
10776W        W78994  28.958  14.251  14.566
10777W        W78995   4.864  12.477  11.076
10778W        W78996  39.311  36.998  12.502
10779W        W78997   8.935  35.588  13.554
10780W        W78998  39.332   0.725   3.676
10781W        W78999   0.066  32.529  13.592
10782W        W79000   5.771  25.714  12.548
10783W        W79001  32.014  19.844   2.861
10784W        W79002  39.576  19.437  11.744
10785W        W79003  24.274  43.225   0.918
10786W        W79004  12.999  10.837   3.796
10787W        W79005  23.853  11.121  10.525
10788W        W79006  10.831   7.772  11.053
10789W        W79007  16.280  36.057  12.931
10790W        W79008  44.631  31.117   2.338
10791W        W79009   3.243  44.401  13.034
10792W        W79010  24.410  44.711  12.494
10793W        W79011  37.739   6.334   2.379
10794W        W79012  34.461  15.608   1.618
10795W        W79013  18.749  33.760  13.881
10796W        W79014  38.056  17.181   1.642
10797W        W79015  17.627   5.376  14.842
10798W        W79016  20.232  10.167  11.688
10799W        W79017  30.505  31.147   2.080
10800W        W79018  41.591  39.316  12.004
10801W        W79019  16.305  39.799   0.395
10802W        W79020  18.135  23.530   2.375
10803W        W79021  34.920  40.540  14.409
10804W        W79022  36.484  15.239   1.629
10805W        W79023  32.984   5.205   0.758
10806W        W79024  43.884  29.517   0.343
10807W        W79025   9.454   5.891  14.017
10808W        W79026  16.279  20.055  12.638
10809W        W79027  44.049  35.686  14.510
10810W        W79028  32.000  30.056  10.495
10811W        W79029  38.994  34.805   3.903
10812W        W79030   9.167  43.503   1.760
10813W        W79031  11.815   5.342   0.408
10814W        W79032  16.076  40.239   4.634
10815W        W79033   4.144  28.967  14.322
10816W        W79034  11.058  23.648  14.060
10817W        W79035  38.926  10.695   3.650
10818W        W79036  32.017  31.084   3.585
10819W        W79037  21.045  33.095   1.856
10820W        W79038  10.885  11.462   4.906
10821W        W79039  39.087  12.509   4.005
10822W        W79040  42.646   1.628   0.001
10823W        W79041  33.618   6.196   4.701
10824W        W79042  13.929  28.170   5.053
10825W        W79043  37.558  31.809   1.737
10826W        W79044  30.327  28.394   0.465
10827W        W79045  32.210  26.886   2.222
10828W        W79046  28.237  33.020   3.720
10829W        W79047  23.820  35.932  10.256
10830W        W79048  32.868   5.763   4.505
10831W        W79049  21.729  13.446   0.493
10832W        W79050  43.820  13.372  14.229
10833W        W79051  18.237  19.274  11.833
10834W        W79052   8.398  31.666   2.966
10835W        W79053  15.737  25.043   0.035
10836W        W79054  37.088   3.378   3.246
10837W        W79055  18.524  41.679   3.796
10838W        W79056   6.148   6.880  11.541
10839W        W79057  16.045  41.077  13.094
10840W        W79058  16.713  16.218  10.656
10841W        W79059  10.384  39.832  12.565
10842W        W79060   4.618  40.243   3.276
10843W        W79061  16.236  23.600   1.301
10844W        W79062   7.383  13.472  10.583
10845W        W79063   8.122  21.507  13.942
10846W        W79064  30.202  34.258  10.862
10847W        W79065  34.925   2.913   1.727
10848W        W79066  32.872  41.868   2.253
10849W        W79067  41.858  27.581   0.780
10850W        W79068  10.074  43.405   1.835
10851W        W79069  18.028  21.784  11.919
10852W        W79070  27.137  37.418  14.503
10853W        W79071  32.683  36.957   4.268
10854W        W79072  17.110  12.766   2.659
10855W        W79073   2.437  33.036   4.520
10856W        W79074  28.029  41.415   4.571
10857W        W79075  29.737  22.253   2.967
10858W        W79076  17.675  32.099  14.304
10859W        W79077   3.333  10.614  11.218
10860W        W79078  19.913   2.244  11.992
10861W        W79079  30.124  43.027  12.788
10862W        W79080  17.218  29.063  10.870
10863W        W79081  41.151  35.499  12.320
10864W        W79082  33.510   3.659  12.551
10865W        W79083  34.233   9.409  10.882
10866W        W79084  31.839   1.640   0.989
10867W        W79085  28.315   4.887  11.952
10868W        W79086   6.245   7.377  11.606
10869W        W79087  30.884  34.969  13.912
10870W        W79088  28.357   5.690  13.027
10871W        W79089  23.501  23.144  14.753
10872W        W79090  22.535  23.881   3.116
10873W        W79091  35.811  39.589   3.675
10874W        W79092   0.674  10.371   3.616
10875W        W79093   2.982  19.326   3.230
10876W        W79094  33.228  38.648  14.995
10877W        W79095  15.362  21.124   2.248
10878W        W79096  42.983   8.748   4.331
10879W        W79097  30.263   4.921   2.085
10880W        W79098  38.907  37.413  14.358
10881W        W79099  17.329  35.168   4.757
10882W        W79100  38.874   2.238   1.716
10883W        W79101  42.322  33.398   3.739
10884W        W79102  21.316  14.968   5.105
10885W        W79103  41.254  38.463  14.888
10886W        W79104  18.233  32.554  12.894
10887W        W79105  12.763  35.146  10.598
10888W        W79106   2.320  16.609   0.917
10889W        W79107  35.862  31.145  11.489
10890W        W79108  34.416  39.143   4.220
10891W        W79109  18.965  25.289   4.275
10892W        W79110   5.777  17.275  11.989
10893W        W79111  37.938  15.611   3.263
10894W        W79112  14.687  30.270  13.499
10895W        W79113  31.635  35.918  14.140
10896W        W79114  30.924  29.036   3.037
10897W        W79115  42.701  32.547  13.545
10898W        W79116  21.268  38.499  13.213
10899W        W79117  21.031  12.177  12.670
10900W        W79118  10.841  35.017  11.199
10901W        W79119   1.932  28.973  12.044
10902W        W79120  22.646  43.465  14.776
10903W        W79121   0.904  24.122   0.583
10904W        W79122  24.229  44.266   4.791
10905W        W79123   3.311  26.020  11.582
10906W        W79124   8.405  30.808  14.860
10907W        W79125  19.224  23.322   2.773
10908W        W79126  28.381  11.873   0.898
10909W        W79127  42.401  10.872   1.437
10910W        W79128   2.737  30.972   2.790
10911W        W79129  17.757  42.430  11.635
10912W        W79130  28.559   9.537  10.614
10913W        W79131   1.238  24.467   2.915
10914W        W79132  38.358  33.512   2.353
10915W        W79133  44.705  16.105  11.145
10916W        W79134  15.684  33.591  13.593
10917W        W79135  43.775  28.768  11.387
10918W        W79136  13.295  23.688   1.231
10919W        W79137  11.047  10.778   3.730
10920W        W79138  25.763  26.621  12.384
10921W        W79139  34.093  26.506   1.884
10922W        W79140  31.124  38.140  13.338
10923W        W79141  21.735  12.076   2.481
10924W        W79142  39.903  21.442  14.809
10925W        W79143  27.529   0.976  11.190
10926W        W79144   2.264  40.332  11.154
10927W        W79145  20.060   1.374   1.849
10928W        W79146  31.386  29.195  12.432
10929W        W79147  43.287  13.761   4.288
10930W        W79148   0.543  22.581  14.910
10931W        W79149  21.124  10.397  13.974
10932W        W79150  39.417  11.210  14.798
10933W        W79151   3.234  42.508  12.082
10934W        W79152  13.532   1.191   1.249
10935W        W79153  23.545   5.704  12.110
10936W        W79154   3.966  21.524  13.411
10937W        W79155   3.350  13.561  11.997
10938W        W79156  31.703  15.814  10.577
10939W        W79157  25.937  42.764  13.010
10940W        W79158  16.805  35.344  12.111
10941W        W79159   8.199  44.756   1.505
10942W        W79160  27.263   9.373  12.850
10943W        W79161   0.255  26.365   4.293
10944W        W79162  21.722  10.385   4.189
10945W        W79163  15.172  25.165  12.848
10946W        W79164  38.264   8.674   4.964
10947W        W79165  35.364  30.725   1.766
10948W        W79166  36.416  42.028  12.164
10949W        W79167  36.347  44.972   3.594
10950W        W79168   2.104  14.972   3.817
10951W        W79169   0.313   3.381  11.104
10952W        W79170  23.065  39.896  11.046
10953W        W79171  18.759  28.438   4.219
10954W        W79172  31.676  11.556   3.654
10955W        W79173  21.068  31.536   3.757
10956W        W79174   0.702  25.540  12.180
10957W        W79175  42.059  28.773  10.172
10958W        W79176  41.505  19.859   2.249
10959W        W79177  18.233   8.683   1.372
10960W        W79178   7.683  26.136  14.537
10961W        W79179  23.222  24.018   4.129
10962W        W79180   8.287  13.128   3.644
10963W        W79181  40.809  37.498  13.940
10964W        W79182   1.178  44.834  13.809
10965W        W79183  13.841  22.083  12.224
10966W        W79184  18.311  38.943   3.719
10967W        W79185   3.358  42.729   2.631
10968W        W79186   2.423  30.929   3.639
10969W        W79187   2.060  42.856   1.437
10970W        W79188  43.807  13.370   0.716
10971W        W79189  30.621  13.050  14.439
10972W        W79190  10.105  21.216   1.204
10973W        W79191  21.657   3.157   0.344
10974W        W79192   6.946  44.456  10.052
10975W        W79193  34.875  25.468   0.027
10976W        W79194  22.068  23.681  14.003
10977W        W79195  25.123  12.227   3.917
10978W        W79196   2.419  18.500  12.399
10979W        W79197  10.224  19.798   1.845
10980W        W79198  13.308   2.467   2.218
10981W        W79199   3.005  18.304  10.689
10982W        W79200  13.979  30.077   0.766
10983W        W79201  28.707   3.555   1.425
10984W        W79202   9.416  33.942   2.770
10985W        W79203  33.946  28.466  14.366
10986W        W79204  43.239  17.229   1.368
10987W        W79205  19.645  31.167   3.798
10988W        W79206  21.363  11.224   3.085
10989W        W79207  21.488   0.888  14.416
10990W        W79208   6.240  34.592   3.825
10991W        W79209  32.678  39.904  12.919
10992W        W79210  32.697  12.246   0.761
10993W        W79211  17.508   4.472  12.121
10994W        W79212  17.446  35.609   4.510
10995W        W79213   1.207  25.237  11.539
10996W        W79214  28.182  34.093  14.996
10997W        W79215  39.375   2.307   1.843
10998W        W79216  18.195  34.054  11.175
10999W        W79217   2.797  32.829  12.695
11000W        W79218  38.401   7.213   0.797
11001W        W79219  21.007   6.154  14.758
11002W        W79220   9.694   0.482   1.201
11003W        W79221   6.891  17.664   2.692
11004W        W79222  43.982  24.485   4.175
11005W        W79223  38.928  39.522   1.760
11006W        W79224  36.328  25.428   1.966
11007W        W79225  33.112   9.647   4.289
11008W        W79226   7.631  34.249  13.321
11009W        W79227  17.674  30.063   2.658
11010W        W79228  20.943  34.878   3.737
11011W        W79229   0.911   9.896   4.424
11012W        W79230  25.115   1.680   3.912
11013W        W79231  41.866  39.044   4.233
11014W        W79232   7.942  23.673   0.945
11015W        W79233  12.361   1.229  11.154
11016W        W79234  22.962  25.060  11.617
11017W        W79235  34.095  38.765  13.897
11018W        W79236   9.843  44.389  10.172
11019W        W79237  20.569   8.326   4.916
11020W        W79238  39.002   6.829  13.249
11021W        W79239   5.185  40.458   0.423
11022W        W79240  41.211   4.839   4.084
11023W        W79241   0.753   0.133   1.814
11024W        W79242  28.434  22.425  11.000
11025W        W79243  41.188  40.373  11.047
11026W        W79244  28.880  15.672   2.819
11027W        W79245  30.884  18.084  12.886
11028W        W79246   0.516  35.726  11.992
11029W        W79247  11.717  16.318  11.538
11030W        W79248  32.567   5.375   1.782
11031W        W79249   7.910  12.606  11.976
11032W        W79250   5.903   1.272  10.788
11033W        W79251  39.353  36.634  11.016
11034W        W79252  42.016  38.830  10.957
11035W        W79253   6.827  22.236   0.879
11036W        W79254   7.433   1.255  11.613
11037W        W79255  12.212  20.123  10.618
11038W        W79256  39.764  23.159   3.286
11039W        W79257   4.843  27.043  11.223
11040W        W79258   6.878  42.764  14.892
11041W        W79259  40.469  16.150   4.918
11042W        W79260   9.899  17.514   1.239
11043W        W79261  25.647  13.820   3.742
11044W        W79262  44.660   7.269   5.019
11045W        W79263  10.158   1.247   4.997
11046W        W79264  14.202  38.916   5.025
11047W        W79265  24.648  20.536   4.901
11048W        W79266  38.361  30.569   3.435
11049W        W79267  30.901  22.372  11.121
11050W        W79268  44.639  29.506   0.863
11051W        W79269  29.152  29.641  13.516
11052W        W79270  29.117   9.344   4.776
11053W        W79271  35.088  13.789   3.366
11054W        W79272  13.029  26.679   1.346
11055W        W79273   5.682  12.259  10.470
11056W        W79274  44.761  20.535   0.265
11057W        W79275  11.954  13.108   3.622
11058W        W79276  19.515   8.222   3.574
11059W        W79277   3.036  11.405   9.866
11060W        W79278  44.460  25.517   2.698
11061W        W79279   6.058  13.164   2.885
11062W        W79280  43.530  40.995   4.028
11063W        W79281  12.230  16.277   4.087
11064W        W79282  39.307   3.721   1.876
11065W        W79283  14.175  36.829  11.535
11066W        W79284  31.656  25.609   4.701
11067W        W79285  11.702  21.120  14.939
11068W        W79286  43.799  12.743   4.852
11069W        W79287  25.466  19.430   3.385
11070W        W79288  26.201  42.408  14.017
11071W        W79289  36.818  32.077  11.188
11072W        W79290   1.533  39.332   2.559
11073W        W79291  14.239  26.934   3.692
11074W        W79292  18.030   0.942   1.411
11075W        W79293  29.562  20.298   4.609
11076W        W79294  19.682  25.449  13.378
11077W        W79295  23.634   6.285  10.977
11078W        W79296  36.629  40.995   2.894
11079W        W79297   6.335  30.377   1.255
11080W        W79298  35.009   5.206   5.073
11081W        W79299   1.279  27.369  12.043
11082W        W79300   3.582  35.898   2.201
11083W        W79301   5.442  32.518   3.825
11084W        W79302  27.272  37.085   3.850
11085W        W79303   0.088  37.495  14.493
11086W        W79304  32.950   3.058   3.696
11087W        W79305  23.702  43.632   1.670
11088W        W79306  28.514  21.554   0.773
11089W        W79307  16.783   5.529   3.104
11090W        W79308  44.658  33.443   2.646
11091W        W79309   0.354  34.632   1.844
11092W        W79310  44.691  25.400  12.315
11093W        W79311  41.364  28.895  14.776
11094W        W79312  13.464  12.833   2.019
11095W        W79313   3.222  30.046   3.595
11096W        W79314  18.585  15.552  12.417
11097W        W79315  27.947  20.246   2.216
11098W        W79316   8.310  38.302   1.830
11099W        W79317  42.870  37.465   4.395
11100W        W79318  19.529  25.568   0.401
11101W        W79319  11.824   3.211  14.459
11102W        W79320  26.483  37.945  13.313
11103W        W79321   7.418   8.843  13.359
11104W        W79322   4.821  21.965  14.909
11105W        W79323  27.068  28.635   1.251
11106W        W79324   4.380  35.950  11.662
11107W        W79325  12.718  16.271   0.892
11108W        W79326  25.504  40.394  11.762
11109W        W79327  42.757   0.858   4.016
11110W        W79328  25.967  38.004  13.174
11111W        W79329  10.201  38.606  14.301
11112W        W79330  15.075  26.801  12.158
11113W        W79331   9.179  44.783  13.460
11114W        W79332  35.185  37.334   0.255
11115W        W79333  12.768  32.482   3.810
11116W        W79334  39.958   2.053  12.942
11117W        W79335  41.472  10.133  11.321
11118W        W79336  26.419  31.931  14.872
11119W        W79337  26.911   4.888   3.712
11120W        W79338   6.941   0.437   3.689
11121W        W79339  29.594  36.023   3.341
11122W        W79340  42.035  29.587   4.703
11123W        W79341  23.067   1.216  11.670
11124W        W79342  20.312  16.459  10.305
11125W        W79343  38.039  35.618   3.365
11126W        W79344   3.596  27.483  10.274
11127W        W79345  40.852  11.107   1.426
11128W        W79346  21.207  30.182  11.079
11129W        W79347  36.821   0.704  14.488
11130W        W79348  36.371  28.627  11.290
11131W        W79349  15.037  20.126  12.538
11132W        W79350  41.534  37.829   3.147
11133W        W79351   2.641  14.905   0.361
11134W        W79352  24.546  15.536   3.010
11135W        W79353  11.406  35.722   4.076
11136W        W79354  42.113   1.455  14.874
11137W        W79355  24.567  39.061  12.462
11138W        W79356  12.141  10.637   4.351
11139W        W79357  43.502  21.216  11.063
11140W        W79358  35.599   6.430  13.558
11141W        W79359  35.890   5.116   4.622
11142W        W79360  14.283  29.812   1.444
11143W        W79361  25.459  36.545  12.573
11144W        W79362  18.140  17.728  10.372
11145W        W79363  28.448  33.841   3.683
11146W        W79364  16.637   7.317   2.195
11147W        W79365   1.187  22.955   3.772
11148W        W79366  26.276  25.522   9.787
11149W        W79367  23.553  28.843  12.244
11150W        W79368  29.904  23.040  11.586
11151W        W79369  21.618   3.188  10.283
11152W        W79370   7.219   4.885  14.348
11153W        W79371  11.755  12.661  12.489
11154W        W79372  10.602  18.102  10.264
11155W        W79373  36.064   9.859  14.508
11156W        W79374  28.651  18.525   1.784
11157W        W79375  39.399  40.117   3.814
11158W        W79376  41.407   8.770  10.633
11159W        W79377  34.603   4.985  13.474
11160W        W79378  25.985   7.887  14.093
11161W        W79379  40.521  25.622  11.096
11162W        W79380  38.121  23.516   0.464
11163W        W79381  40.301   9.195  12.588
11164W        W79382   6.818  15.679  12.093
11165W        W79383  44.318  35.821  10.410
11166W        W79384  26.057  20.509   3.245
11167W        W79385  10.646  24.488  12.395
11168W        W79386  26.141  34.649  12.742
11169W        W79387  40.959  38.818  12.496
11170W        W79388  10.066   3.682   4.910
11171W        W79389   4.844   4.238  14.977
11172W        W79390  32.192   0.557  13.076
11173W        W79391  34.925  26.238   0.439
11174W        W79392  30.857  43.017   9.888
11175W        W79393  28.065   9.796   2.810
11176W        W79394  13.632  38.553  12.055
11177W        W79395  28.062   8.150  13.421
11178W        W79396  31.478   0.227   3.331
11179W        W79397  31.399  31.654   1.800
11180W        W79398  30.162  15.615   0.065
11181W        W79399  28.524  30.913   3.753
11182W        W79400  22.864  41.551   4.276
11183W        W79401  21.230  38.469   3.087
11184W        W79402  40.863  39.005  10.741
11185W        W79403  23.831  35.506  11.190
11186W        W79404   5.390  10.075  11.894
11187W        W79405  34.439   5.526   5.147
11188W        W79406   5.298  42.358  11.459
11189W        W79407  11.554  12.599  10.313
11190W        W79408  31.350  32.462  14.483
11191W        W79409  43.798  28.757  11.946
11192W        W79410  35.991  29.382   3.665
11193W        W79411   9.640  13.830   4.877
11194W        W79412   1.011  15.510  14.020
11195W        W79413  41.483   2.943   4.797
11196W        W79414  33.274   6.953   3.841
11197W        W79415  15.819  19.110   4.282
11198W        W79416  42.063  28.469   2.237
11199W        W79417  33.374   6.606  11.550
11200W        W79418   0.451  34.559  12.075
11201W        W79419   0.962  18.973   0.201
11202W        W79420  21.565  18.865   3.714
11203W        W79421  24.466  31.657  10.900
11204W        W79422  12.620  22.531  11.121
11205W        W79423  43.654  10.441  12.223
11206W        W79424   8.664  11.615   2.318
11207W        W79425  13.676  16.534  11.903
11208W        W79426  44.383   2.865   4.681
11209W        W79427   8.271  34.716   1.516
11210W        W79428   6.329  39.060   4.164
11211W        W79429  29.194  26.692  14.853
11212W        W79430  16.073   9.084  10.745
11213W        W79431  44.920  32.090  14.497
11214W        W79432   1.085  24.477   1.855
11215W        W79433   7.244  43.862   0.437
11216W        W79434  39.593  44.595  11.561
11217W        W79435  22.108   0.539   1.810
11218W        W79436  12.810  37.033   0.807
11219W        W79437  19.227  17.075   0.915
11220W        W79438  36.058  18.172  10.643
11221W        W79439  35.572   1.286  13.129
11222W        W79440   2.964  40.040  11.392
11223W        W79441   1.877   3.494   0.108
11224W        W79442   3.281  23.724  11.949
11225W        W79443   8.237  21.478  12.021
11226W        W79444   9.633  31.467  11.502
11227W        W79445  38.829  12.132  13.652
11228W        W79446  20.533  24.641   0.801
11229W        W79447  36.927   1.171  14.312
11230W        W79448  40.508  15.811  11.941
11231W        W79449   3.321   2.375  14.918
11232W        W79450   8.851  22.522  13.974
11233W        W79451  44.386  33.323   0.301
11234W        W79452  15.365  37.387  14.963
11235W        W79453  11.117   6.671   3.101
11236W        W79454  21.022  30.539  12.898
11237W        W79455   6.873  15.292  10.355
11238W        W79456   2.160  41.239  11.205
11239W        W79457  20.583  14.142  14.711
11240W        W79458  41.716   5.211  12.568
11241W        W79459  40.732   1.907   1.673
11242W        W79460  30.482  16.077  11.916
11243W        W79461  34.461  27.629  13.268
11244W        W79462  27.484  20.956   0.506
11245W        W79463  38.063  12.231  11.654
11246W        W79464   0.386  31.853   2.010
11247W        W79465  17.135  43.271   3.186
11248W        W79466   0.943  19.497   2.449
11249W        W79467  28.743  16.199   3.268
11250W        W79468   4.847  17.628   0.259
11251W        W79469   1.049   9.854  11.353
11252W        W79470   0.251  35.944  14.797
11253W        W79471  40.847  42.721  10.923
11254W        W79472  32.621  30.350  12.565
11255W        W79473   1.056   7.074  12.223
11256W        W79474  33.737   1.439  12.081
11257W        W79475   8.251  23.044  12.214
11258W        W79476  11.608  16.246  10.981
11259W        W79477  26.600  29.982   4.134
11260W        W79478   8.934  44.557   2.428
11261W        W79479  19.803  44.526   0.006
11262W        W79480  24.690   2.549   3.217
11263W        W79481  28.953  14.865   2.326
11264W        W79482  23.021  14.675  13.713
11265W        W79483  20.682  13.052  13.406
11266W        W79484  39.403   4.032   2.276
11267W        W79485  19.602  35.319  12.909
11268W        W79486  36.790  26.560   3.872
11269W        W79487  24.424  39.051   3.251
11270W        W79488   4.350   3.409  12.507
11271W        W79489  26.561  20.244   0.415
11272W        W79490  37.665  35.923   3.185
11273W        W79491   8.261  41.896  11.273
11274W        W79492  21.723  25.719  11.040
11275W        W79493  30.041  21.669  10.549
11276W        W79494  36.208  37.594  12.104
11277W        W79495  35.849  26.125  11.551
11278W        W79496  14.568   8.572  12.848
11279W        W79497   5.772  10.049  10.636
11280W        W79498   0.439  15.164   1.149
11281W        W79499  17.174  42.360  14.965
11282W        W79500  32.092  43.555  13.156
11283W        W79501  23.097  29.072  11.199
11284W        W79502  42.814  40.799  14.507
11285W        W79503  41.798  38.931  13.069
11286W        W79504   4.297  24.709  12.190
11287W        W79505  33.776  32.146   1.779
11288W        W79506  19.794  29.056  11.074
11289W        W79507  34.405  26.089   1.921
11290W        W79508  29.562  24.534   0.484
11291W        W79509   4.810  21.251   4.566
11292W        W79510   6.910  32.966  11.223
11293W        W79511  33.322  14.705   2.690
11294W        W79512  31.030  20.166  13.000
11295W        W79513  34.245   2.503   2.713
11296W        W79514   6.613   6.259   3.733
11297W        W79515  20.497  17.280  12.807
11298W        W79516   2.934  34.364   0.269
11299W        W79517  33.875   5.464  10.850
11300W        W79518   7.025   9.835  11.854
11301W        W79519  14.149  14.731  11.255
11302W        W79520  15.298  11.718   1.728
11303W        W79521  30.226  14.728   1.227
11304W        W79522  31.456  25.990   3.307
11305W        W79523   7.599  28.974  12.350
11306W        W79524  24.526  25.993   0.731
11307W        W79525  20.109   2.839   3.847
11308W        W79526  25.074   5.699   2.179
11309W        W79527   6.491   8.151   4.197
11310W        W79528  19.289  22.704   4.163
11311W        W79529  10.385  30.098  10.592
11312W        W79530  22.590  11.339   0.066
11313W        W79531  12.096  25.044  14.908
11314W        W79532   7.219  27.723  12.855
11315W        W79533  40.337   9.568  10.806
11316W        W79534  27.161  19.779   4.683
11317W        W79535  44.159  26.258   5.063
11318W        W79536   9.305  21.419  12.813
11319W        W79537   3.278  17.800   1.341
11320W        W79538  37.581  36.025  11.318
11321W        W79539  24.512   7.655  10.735
11322W        W79540  13.902  44.657  11.394
11323W        W79541  39.852  12.923  13.385
11324W        W79542  43.355  28.063  12.389
11325W        W79543  42.049  22.837   5.146
11326W        W79544  17.167  17.068  13.469
11327W        W79545  10.353  43.499  10.726
11328W        W79546   9.228  30.837  13.925
11329W        W79547  28.549  31.415   4.527
11330W        W79548  14.236  18.815  13.993
11331W        W79549  38.083  37.413   3.316
11332W        W79550  13.746  23.026  14.334
11333W        W79551  33.927  17.972   3.259
11334W        W79552   1.553  41.395  11.826
11335W        W79553  33.324  37.526   1.363
11336W        W79554  38.102  18.772   3.314
11337W        W79555  20.628  23.684   4.427
11338W        W79556  10.215  28.229  10.002
11339W        W79557  11.682  43.974  11.432
11340W        W79558   8.367  40.268   3.825
11341W        W79559  13.599  17.765   2.448
11342W        W79560  43.899   6.255  14.562
11343W        W79561  39.035  25.746  13.064
11344W        W79562  16.749   8.027  11.578
11345W        W79563  44.300   6.009  14.363
11346W        W79564  18.778  39.077   4.600
11347W        W79565  31.680  30.697  11.635
11348W        W79566  11.357  34.617  12.217
11349W        W79567  25.504  38.328  11.863
11350W        W79568  35.607  19.561   2.028
11351W        W79569  29.234  25.485  10.913
11352W        W79570   1.249  22.412  12.032
11353W        W79571   6.829  33.931   4.865
11354W        W79572  41.004  34.465   4.338
11355W        W79573  33.983  37.972  13.550
11356W        W79574   2.044  25.791  12.861
11357W        W79575  19.782  38.117  12.333
11358W        W79576   9.849   0.882  13.142
11359W        W79577   5.866  34.007  13.823
11360W        W79578  16.943  10.019  11.474
11361W        W79579   2.881   3.253  12.438
11362W        W79580  32.869   3.046  10.456
11363W        W79581  10.711  19.977  12.000
11364W        W79582  31.507  10.943  11.232
11365W        W79583  13.923  43.348  14.783
11366W        W79584  43.400  18.810   1.285
11367W        W79585  26.193  33.446  10.713
11368W        W79586  39.589  12.943   0.999
11369W        W79587  43.931   3.067   3.707
11370W        W79588  38.990  41.762  10.671
11371W        W79589  19.100  44.188  11.196
11372W        W79590  22.558  12.839  12.017
11373W        W79591  41.475   3.906  10.235
11374W        W79592  11.076  40.810  11.092
11375W        W79593  24.637  24.566   1.497
11376W        W79594  44.180  20.130  11.109
11377W        W79595   6.854  44.507   3.187
11378W        W79596  19.562  13.141  11.247
11379W        W79597  31.019   3.194   3.189
11380W        W79598  17.145  36.329  13.443
11381W        W79599   6.068   4.727   3.856
11382W        W79600  14.533  29.248  11.235
11383W        W79601  21.071  40.303   2.473
11384W        W79602  44.405  29.653  10.757
11385W        W79603  17.086  17.152   2.358
11386W        W79604  37.887  31.512  14.935
11387W        W79605  36.887  33.138  10.397
11388W        W79606   4.918   8.336   2.814
11389W        W79607  44.076   1.905  13.036
11390W        W79608  10.748   9.859  10.891
11391W        W79609  14.708  39.094  13.137
11392W        W79610   3.924  38.362  11.945
11393W        W79611  24.646  14.406   4.996
11394W        W79612  24.202  16.593   1.183
11395W        W79613  38.314  13.876   2.196
11396W        W79614  31.091  24.529  11.801
11397W        W79615  43.732  21.738   0.875
11398W        W79616   7.631  18.742   3.643
11399W        W79617   5.798  36.800   2.301
11400W        W79618  26.648  15.832   0.828
11401W        W79619  27.544  21.482  12.815
11402W        W79620  24.550  26.155   1.439
11403W        W79621   8.842   1.350  10.957
11404W        W79622  29.757   0.444   4.797
11405W        W79623  16.624  16.635  11.550
11406W        W79624   3.752  24.245  10.642
11407W        W79625   0.313   4.420   2.575
11408W        W79626  38.768  19.050  12.515
11409W        W79627  29.881  24.896  12.104
11410W        W79628  34.029   2.557   1.175
11411W        W79629  14.696  30.302   4.485
11412W        W79630  11.750  11.974   4.558
11413W        W79631  14.096  38.355   2.116
11414W        W79632  32.486  13.111   2.777
11415W        W79633   3.787  42.872   4.663
11416W        W79634  44.193  20.625  14.473
11417W        W79635  23.336   8.708  12.672
11418W        W79636   9.955  28.152  10.494
11419W        W79637  18.518  13.769  13.816
11420W        W79638  44.334   8.438  14.825
11421W        W79639  42.345  26.842  14.324
11422W        W79640  14.136   4.086  13.756
11423W        W79641  38.099  31.696   3.771
11424W        W79642  27.822  40.990   4.749
11425W        W79643  25.131  22.241  12.423
11426W        W79644  20.689   7.593   3.789
11427W        W79645  21.785  31.004  12.523
11428W        W79646  10.677  20.065   1.842
11429W        W79647   5.628  38.513  11.629
11430W        W79648  39.358  43.423   2.969
11431W        W79649   2.303  39.324   3.671
11432W        W79650  24.133  23.524   2.811
11433W        W79651  36.489  14.455   2.255
11434W        W79652   5.318  16.771  13.041
11435W        W79653  30.524  42.059  10.730
11436W        W79654   6.473  38.509   4.157
11437W        W79655   4.354  22.630  10.296
11438W        W79656  23.725  43.238   2.273
11439W        W79657  34.414  22.070   1.469
11440W        W79658  25.874  23.737  13.032
11441W        W79659  17.301  16.115   0.662
11442W        W79660  13.684  31.869  11.474
11443W        W79661   7.720   5.834   3.197
11444W        W79662  35.569  11.230   0.718
11445W        W79663   6.781  15.167  11.373
11446W        W79664  38.861  16.777   0.281
11447W        W79665  29.769  32.006  13.919
11448W        W79666  10.313  26.094   3.680
11449W        W79667  12.576  15.184   3.790
11450W        W79668   6.827  25.946  13.281
11451W        W79669   9.231  10.941   0.921
11452W        W79670  42.860  20.947   2.728
11453W        W79671  38.055   9.661   3.864
11454W        W79672   1.223  29.693  12.912
11455W        W79673  39.085  43.303  12.283
11456W        W79674  21.159   4.198   3.432
11457W        W79675  21.071  37.954   3.771
11458W        W79676  11.253   8.709   2.234
11459W        W79677  40.002  11.608  10.362
11460W        W79678  34.972  18.311   0.596
11461W        W79679   7.125   4.245   0.760
11462W        W79680  44.454   4.735  13.989
11463W        W79681  37.745  44.763  14.840
11464W        W79682  14.584  21.629  12.087
11465W        W79683  27.113  28.947  11.535
11466W        W79684  43.325  33.405   0.419
11467W        W79685   4.292  16.311   2.472
11468W        W79686   1.865   0.867   0.395
11469W        W79687   7.889   4.882   3.565
11470W        W79688   6.827   9.213   4.743
11471W        W79689  10.102  24.810   0.378
11472W        W79690  32.161  35.999  12.005
11473W        W79691  24.587  10.272   2.619
11474W        W79692  14.101  16.818  12.087
11475W        W79693  13.565  33.083   3.691
11476W        W79694  33.292   8.347   1.867
11477W        W79695  44.777  21.669  11.707
11478W        W79696   2.526  22.550  10.109
11479W        W79697   9.699  44.288   0.769
11480W        W79698  40.812   9.925   0.357
11481W        W79699  13.946   0.102  12.121
11482W        W79700   6.322   9.048   0.735
11483W        W79701  13.726   2.139  12.201
11484W        W79702  37.380  32.574   1.345
11485W        W79703   3.716  20.521   2.515
11486W        W79704  23.448  32.119   9.960
11487W        W79705   7.648  25.098   0.171
11488W        W79706   9.849  26.687   2.220
11489W        W79707  14.591  25.048   1.029
11490W        W79708   8.266  15.179  13.337
11491W        W79709   8.828  33.868  12.353
11492W        W79710  12.097  32.216  14.826
11493W        W79711  20.063  42.523  14.855
11494W        W79712  11.001  30.945  12.470
11495W        W79713  19.541  10.540   2.280
11496W        W79714  23.026  27.970   4.195
11497W        W79715  27.232  25.447  13.076
11498W        W79716  17.615   7.396   1.249
11499W        W79717  20.291  14.716   3.111
11500W        W79718   5.257  42.910  12.936
11501W        W79719   3.257  28.655   2.246
11502W        W79720  36.416  39.474  11.969
11503W        W79721  43.998  14.378   1.805
11504W        W79722  16.335   7.622   3.312
11505W        W79723  18.850  36.525   1.766
11506W        W79724   2.937  43.924  12.483
11507W        W79725  17.382  10.667  11.621
11508W        W79726  33.830  32.673  14.391
11509W        W79727  23.450  27.383  14.556
11510W        W79728  23.977  41.397   3.405
11511W        W79729  32.360  38.901  10.213
11512W        W79730  30.077  35.942  14.882
11513W        W79731  32.156   9.335   2.627
11514W        W79732   2.239  15.675   0.978
11515W        W79733  14.822  25.624  14.753
11516W        W79734  40.793   7.231   0.977
11517W        W79735   0.329  40.837   3.244
11518W        W79736   6.122  29.033   0.458
11519W        W79737   5.224  26.089   3.641
11520W        W79738  20.231  21.081   4.327
11521W        W79739   7.214  35.865  11.179
11522W        W79740  37.291  11.932   1.970
11523W        W79741  11.963   4.835   1.914
11524W        W79742  24.911   7.175  13.816
11525W        W79743  16.050   0.634   2.547
11526W        W79744   8.789  27.048  13.879
11527W        W79745  12.626  22.781  11.923
11528W        W79746  29.310  15.146  12.942
11529W        W79747  16.535  31.376  12.656
11530W        W79748  42.256   1.574   3.565
11531W        W79749  40.394  25.082  14.930
11532W        W79750  12.229  23.498   4.604
11533W        W79751   2.716  43.393   0.479
11534W        W79752  26.276  31.990  12.011
11535W        W79753   7.439  42.759   1.850
11536W        W79754  35.516  18.158   1.924
11537W        W79755  31.194  19.955  12.544
11538W        W79756   3.287   9.552   0.840
11539W        W79757  20.197   4.219   1.109
11540W        W79758  29.002  18.030  11.581
11541W        W79759   0.978   6.678  12.996
11542W        W79760  33.373   6.336   1.689
11543W        W79761  14.254  29.630  11.438
11544W        W79762  40.356  32.590   0.527
11545W        W79763  30.060  32.624  10.874
11546W        W79764   1.004  40.378  14.253
11547W        W79765  44.660  33.130   1.414
11548W        W79766  35.631  39.586   1.912
11549W        W79767  11.359   0.467   4.230
11550W        W79768  22.162  32.379   0.284
11551W        W79769  37.089   5.327  13.394
11552W        W79770  15.665   5.196  12.639
11553W        W79771  29.096  44.862   2.366
11554W        W79772  24.548  21.810  14.403
11555W        W79773  35.935  30.049   1.299
11556W        W79774  17.975  37.969  12.350
11557W        W79775   5.170   8.255  11.393
11558W        W79776   5.351   3.886  13.250
11559W        W79777  35.769  31.356   1.205
11560W        W79778  27.258  42.101   0.211
11561W        W79779   4.344  41.894   2.555
11562W        W79780  23.508  11.932   1.244
11563W        W79781  11.155  19.454   1.669
11564W        W79782  22.143   5.277   0.707
11565W        W79783  20.056   3.492   0.375
11566W        W79784  27.039  18.388   2.187
11567W        W79785  20.354  40.541  10.822
11568W        W79786   4.994  32.624   2.348
11569W        W79787   9.308  10.654  14.902
11570W        W79788  14.802  25.524  12.847
11571W        W79789   2.957  40.627  12.715
11572W        W79790  26.952  42.874  14.979
11573W        W79791   0.598  39.669  10.612
11574W        W79792  28.678  11.106   3.675
11575W        W79793  31.572  40.062   4.449
11576W        W79794  15.324  22.929  13.047
11577W        W79795  28.172  10.831  11.357
11578W        W79796  19.858  21.773   4.094
11579W        W79797  14.309  43.038   3.077
11580W        W79798  20.048  15.808  12.413
11581W        W79799  40.878  42.439   2.315
11582W        W79800   6.251   9.835  14.617
11583W        W79801  17.483  33.366   4.037
11584W        W79802  41.743   1.762  12.867
11585W        W79803  25.995  17.168  14.909
11586W        W79804   3.824  35.061  12.840
11587W        W79805  14.329  20.458  11.849
11588W        W79806  36.566  35.687  12.858
11589W        W79807  29.772  17.802   0.266
11590W        W79808  20.135  43.207  14.273
11591W        W79809  28.253  15.139   3.286
11592W        W79810  35.924   8.371  10.683
11593W        W79811  22.203  11.707   0.793
11594W        W79812  28.025  12.803  13.345
11595W        W79813  34.132  43.012  14.025
11596W        W79814   2.617  12.290  14.028
11597W        W79815  22.112   7.135   2.781
11598W        W79816  25.997  15.302   1.316
11599W        W79817   8.429  35.142  12.068
11600W        W79818  26.483  24.279   3.680
11601W        W79819  12.771  34.586   4.488
11602W        W79820  23.463  39.539  13.156
11603W        W79821  21.048   2.646  14.988
11604W        W79822  19.061  32.656   3.306
11605W        W79823  13.746  23.432   1.226
11606W        W79824  20.712  10.421  13.300
11607W        W79825  40.543  36.390   1.311
11608W        W79826  13.645  23.112  10.526
11609W        W79827  32.598  14.469   2.386
11610W        W79828  23.491  21.096  11.987
11611W        W79829  40.324  32.638   2.834
11612W        W79830  44.299   0.758   0.963
11613W        W79831  23.249   1.383  13.944
11614W        W79832   2.452  29.765   0.031
11615W        W79833  33.462   5.929  14.245
11616W        W79834  44.965  17.655   0.400
11617W        W79835  22.470  21.934  11.121
11618W        W79836  44.395  37.585  12.906
11619W        W79837  43.353  27.118   1.976
11620W        W79838   9.290   1.383   1.390
11621W        W79839  20.186  16.234   4.138
11622W        W79840  37.361   0.973   1.253
11623W        W79841  36.590   4.672   2.242
11624W        W79842  23.205  24.781   0.770
11625W        W79843  39.249  40.318  11.056
11626W        W79844  36.012  41.772   2.275
11627W        W79845  21.196   7.643   2.745
11628W        W79846  26.457  17.039   0.999
11629W        W79847  27.395  14.222   1.805
11630W        W79848  35.943  44.491  10.742
11631W        W79849   9.593   1.260  12.224
11632W        W79850  33.421  41.288   0.524
11633W        W79851  15.851  24.582  12.624
11634W        W79852   7.254  37.658  11.464
11635W        W79853  17.093   5.822  10.730
11636W        W79854   4.683   6.270  10.417
11637W        W79855  29.647  39.907   2.338
11638W        W79856  14.788  18.186  10.880
11639W        W79857   6.224  25.020  13.894
11640W        W79858   1.182  11.783  11.577
11641W        W79859   5.136  35.395  12.009
11642W        W79860  31.255   8.438  10.875
11643W        W79861   6.400  42.463  13.022
11644W        W79862  29.593  21.675   2.122
11645W        W79863  20.830   7.295   2.894
11646W        W79864  37.728  24.530   0.416
11647W        W79865   8.740  43.398  12.141
11648W        W79866  13.175   3.931  10.663
11649W        W79867  33.529  23.262  12.666
11650W        W79868  31.519  24.617   4.231
11651W        W79869   7.671  28.079   0.403
11652W        W79870  15.179  21.635   0.427
11653W        W79871  40.932  27.950  13.375
11654W        W79872  31.560  11.101  11.891
11655W        W79873  39.083  23.601  14.028
11656W        W79874  41.125   9.113   1.691
11657W        W79875  35.369  38.730   0.456
11658W        W79876  28.898  24.749   4.421
11659W        W79877   9.264  34.672  13.359
11660W        W79878  18.040  33.665  14.445
11661W        W79879  42.486  24.039  12.144
11662W        W79880  10.099  31.390  12.182
11663W        W79881  20.925   1.716   1.903
11664W        W79882  27.551   6.126  12.873
11665W        W79883   5.606  27.550  11.640
11666W        W79884   6.150  35.137   3.076
11667W        W79885  29.372  43.332   4.840
11668W        W79886  15.165   6.114   1.144
11669W        W79887   7.021  32.389   2.897
11670W        W79888   6.701  26.821  10.407
11671W        W79889  24.311  37.312  12.338
11672W        W79890  29.044   7.961   3.359
11673W        W79891   0.264  26.524   0.326
11674W        W79892  15.235   0.390   1.463
11675W        W79893  41.043  42.745  11.837
11676W        W79894  32.724   7.681  14.412
11677W        W79895  31.874  32.812   4.083
11678W        W79896  40.886  25.247  14.056
11679W        W79897  37.812  12.193  11.209
11680W        W79898  18.735  17.304  13.434
11681W        W79899  18.773  24.743  11.622
11682W        W79900  31.508  21.979   1.445
11683W        W79901   6.261   0.629   2.707
11684W        W79902  24.749  23.092  14.066
11685W        W79903  25.370   5.385  11.672
11686W        W79904   7.212  21.982  14.396
11687W        W79905  14.094  41.596   4.939
11688W        W79906  13.302  20.471   4.530
11689W        W79907   5.217  33.089   2.425
11690W        W79908  20.458  12.195   1.727
11691W        W79909  11.398  43.941   1.765
11692W        W79910  14.698   9.831  14.681
11693W        W79911  18.693  16.516  12.924
11694W        W79912  17.787  12.759  13.037
11695W        W79913  39.725  11.683   2.174
11696W        W79914  17.115  30.432  13.811
11697W        W79915   8.074  19.045   9.647
11698W        W79916  35.430  44.382  11.511
11699W        W79917  17.064  40.863  12.334
11700W        W79918   1.924  16.425   0.135
11701W        W79919  33.379  37.021   1.662
11702W        W79920   0.330  38.301   2.886
11703W        W79921   2.421  31.800   3.829
11704W        W79922  10.328  11.719  13.361
11705W        W79923  30.701  28.915   4.334
11706W        W79924  24.933  31.641  11.181
11707W        W79925   8.351  14.768  14.021
11708W        W79926  40.401  30.142  14.457
11709W        W79927  31.068  41.521  14.534
11710W        W79928   2.281   3.364  14.307
11711W        W79929  29.144  31.469  13.289
11712W        W79930  42.788  34.875  11.850
11713W        W79931  27.274  40.371  12.807
11714W        W79932   1.713  27.235   2.315
11715W        W79933   9.533  34.996  14.775
11716W        W79934   8.865  12.493  12.880
11717W        W79935  35.804  34.500  11.242
11718W        W79936  10.319  33.717  13.497
11719W        W79937  15.178  14.509   1.658
11720W        W79938  28.945  22.086   0.361
11721W        W79939  42.946  29.897  13.940
11722W        W79940  44.299  17.769   0.904
11723W        W79941  25.232   2.604  14.849
11724W        W79942  27.199   1.451   4.965
11725W        W79943   0.791   1.818  10.439
11726W        W79944  28.056  15.138  13.567
11727W        W79945   4.753  44.788   9.968
11728W        W79946  14.199  28.798  12.576
11729W        W79947  19.097  27.611   2.818
11730W        W79948   3.865  42.572  11.482
11731W        W79949   6.589  17.246   2.681
11732W        W79950  34.889  30.051   3.416
11733W        W79951  21.252  11.880  11.187
11734W        W79952  36.479  36.825  11.103
11735W        W79953  13.042   7.422  11.250
11736W        W79954  34.770   2.971   4.946
11737W        W79955  38.548  41.057   4.529
11738W        W79956  18.071  41.225   1.802
11739W        W79957  23.263  33.462   1.049
11740W        W79958  12.705  40.378   1.848
11741W        W79959  42.560  41.206  12.133
11742W        W79960  24.591   7.151  11.912
11743W        W79961   3.398  23.489   3.860
11744W        W79962   5.349  17.528  12.280
11745W        W79963  28.123  19.771  14.521
11746W        W79964  19.653  22.039  13.374
11747W        W79965   1.428  20.973   1.909
11748W        W79966  44.016  44.993  14.614
11749W        W79967  11.235  31.710  10.681
11750W        W79968  14.750  33.609   4.585
11751W        W79969  32.448  34.830   2.375
11752W        W79970  30.148  21.069   4.962
11753W        W79971  20.160   1.957  13.536
11754W        W79972  25.271  42.450   4.573
11755W        W79973  10.325  17.526   3.311
11756W        W79974  39.752  17.255  10.790
11757W        W79975  11.307  30.885   4.642
11758W        W79976  13.475  27.637   2.782
11759W        W79977  22.962  32.903   0.220
11760W        W79978  31.060  35.614   3.704
11761W        W79979  12.188  30.529   1.417
11762W        W79980  16.804   2.639  12.994
11763W        W79981  40.768  17.046  12.921
11764W        W79982  12.935  40.874  11.637
11765W        W79983   2.996  44.453   3.561
11766W        W79984  17.279  44.463   2.388
11767W        W79985   1.908  25.020   3.242
11768W        W79986  24.422  39.686   2.260
11769W        W79987   6.159  10.585  12.316
11770W        W79988  17.037  27.657   2.460
11771W        W79989  27.971  44.999  12.053
11772W        W79990  10.456  14.389  10.217
11773W        W79991   5.346  26.448  13.545
11774W        W79992  26.217   7.178  11.045
11775W        W79993  37.600   3.869  12.036
11776W        W79994  32.370  42.723  11.067
11777W        W79995  37.363  36.419   4.175
11778W        W79996  26.944  22.198  13.816
11779W        W79997   5.141  43.490  12.942
11780W        W79998   4.498  42.803  11.941
11781W        W79999  11.257  43.315   3.913
11782W        W80000   6.745  15.126   0.462
11783W        W80001  10.419  10.650  14.869
11784W        W80002  25.110   8.303  13.475
11785W        W80003   2.228  13.261   3.687
11786W        W80004  24.695  18.643   1.746
11787W        W80005  27.047  33.368  10.667
11788W        W80006  36.186  28.926   2.803
11789W        W80007   9.207  23.252  12.121
11790W        W80008   5.902   3.359  12.767
11791W        W80009   4.918  34.504   4.080
11792W        W80010   7.976  26.713   1.335
11793W        W80011  23.887  25.550  11.536
11794W        W80012  35.421  22.017  11.936
11795W        W80013  34.662  13.363  11.114
11796W        W80014   9.957  19.540   3.698
11797W        W80015  41.113   9.296  11.580
11798W        W80016  23.862   2.136   4.317
11799W        W80017  37.941  17.663  12.879
11800W        W80018   8.451  37.996  14.748
11801W        W80019   9.291   0.841   2.926
11802W        W80020  22.016   8.861   3.477
11803W        W80021  37.283  28.049  14.927
11804W        W80022  10.935  42.844  13.992
11805W        W80023  21.017  20.578   3.165
11806W        W80024  18.526  43.312  11.137
11807W        W80025  11.145  33.288   2.512
11808W        W80026   0.421   4.648   1.627
11809W        W80027  39.494  17.703   3.159
11810W        W80028  12.072  31.223  12.594
11811W        W80029  13.938  26.040   4.592
11812W        W80030  11.102  10.989  11.725
11813W        W80031  28.615  26.055  12.828
11814W        W80032  34.483   3.429  11.135
11815W        W80033   0.939  36.453  14.064
11816W        W80034   5.089  17.589  10.409
11817W        W80035   7.985  23.455   4.601
11818W        W80036  30.419  29.379   2.813
11819W        W80037  23.304  17.769  13.216
11820W        W80038  39.532   3.700  13.055
11821W        W80039  22.132  38.036   0.773
11822W        W80040  13.379   6.346  12.427
11823W        W80041  21.167  25.452   3.178
11824W        W80042  21.968  32.379   3.432
11825W        W80043   4.663  41.057   1.637
11826W        W80044  38.427  10.692   0.819
11827W        W80045  35.005   2.480   4.852
11828W        W80046  28.356  32.700   1.749
11829W        W80047  13.094  26.598   5.135
11830W        W80048  40.314  12.366   1.678
11831W        W80049  36.004  43.747  11.101
11832W        W80050  31.024  23.355  10.785
11833W        W80051  13.739  43.737  14.378
11834W        W80052   7.815  15.083   5.416
11835W        W80053  11.810  28.967  10.747
11836W        W80054  36.817  17.702  11.580
11837W        W80055  44.051   7.748   1.240
11838W        W80056  12.865  30.201  11.187
11839W        W80057  11.419  38.505  11.986
11840W        W80058  28.379  43.355   2.830
11841W        W80059   2.840  31.623   4.123
11842W        W80060   9.661  37.565   3.566
11843W        W80061  25.045   4.958  14.916
11844W        W80062  24.789  30.489  11.391
11845W        W80063   8.127  41.658  12.030
11846W        W80064  24.374  10.845   1.800
11847W        W80065   5.383   3.149   0.571
11848W        W80066   9.016  10.236  13.707
11849W        W80067   5.277  26.669  10.184
11850W        W80068  20.552  20.640  12.541
11851W        W80069  42.531  12.670  13.022
11852W        W80070  20.282   3.253   3.566
11853W        W80071   6.372  11.335   2.726
11854W        W80072   3.733  19.166   3.665
11855W        W80073   2.214  26.370   4.794
11856W        W80074   4.642  19.860  11.141
11857W        W80075  13.076  28.710   1.372
11858W        W80076   1.162  20.225   3.661
11859W        W80077  33.891   6.129  14.470
11860W        W80078  17.378  34.361  14.357
11861W        W80079   1.263  22.596   2.996
11862W        W80080  18.614  43.809   1.345
11863W        W80081  31.081  29.119   4.021
11864W        W80082  40.873  41.735  13.514
11865W        W80083   5.439  32.122  14.472
11866W        W80084  37.288  32.531   3.219
11867W        W80085  36.088  11.845   2.329
11868W        W80086  43.435  38.478  13.466
11869W        W80087  35.082   5.266  11.408
11870W        W80088  31.964  23.795   2.884
11871W        W80089  13.817  42.811   3.639
11872W        W80090  38.641  20.591  14.761
11873W        W80091  26.025  20.484  12.004
11874W        W80092  10.091  44.520  12.065
11875W        W80093   2.911  42.821  13.452
11876W        W80094  36.866   3.879   3.715
11877W        W80095  14.212  42.049   1.952
11878W        W80096  31.382  35.943  14.593
11879W        W80097  15.127  42.525   4.715
11880W        W80098  29.067  19.736   0.646
11881W        W80099  44.338  19.689  11.298
11882W        W80100  12.242  18.920   3.120
11883W        W80101   9.316  42.377  10.942
11884W        W80102  16.845  40.945  11.857
11885W        W80103  23.336  43.026  11.102
11886W        W80104   6.082  39.410   0.817
11887W        W80105   1.239  16.124  11.189
11888W        W80106  20.518  18.138  10.608
11889W        W80107  16.651  14.643  11.596
11890W        W80108  27.477  27.177  13.559
11891W        W80109  22.060  42.499   4.113
11892W        W80110  20.515  25.745  12.561
11893W        W80111  12.132  37.269   0.517
11894W        W80112  19.208   2.795   4.873
11895W        W80113   4.486  38.408   1.895
11896W        W80114  44.401  38.307   0.471
11897W        W80115  26.456  21.626  14.305
11898W        W80116  37.274  29.511  14.344
11899W        W80117  25.137  29.344  10.920
11900W        W80118  28.472  13.379   1.289
11901W        W80119  31.418  36.529  12.311
11902W        W80120   9.842  13.499   1.342
11903W        W80121  16.206  21.826  14.975
11904W        W80122   5.541  18.773  11.184
11905W        W80123   7.925   1.725  11.519
11906W        W80124  39.826  29.088   4.759
11907W        W80125   1.016  25.160  11.036
11908W        W80126  29.527   4.822   2.737
11909W        W80127  42.269  28.968  11.435
11910W        W80128  43.991   2.265  12.482
11911W        W80129   0.518  25.031   0.453
11912W        W80130   8.216   0.442   0.403
11913W        W80131   4.372   5.413   4.620
11914W        W80132  25.002   0.629  14.906
11915W        W80133  37.082  13.395   1.044
11916W        W80134  34.606  16.318  11.040
11917W        W80135  20.074   8.308   4.164
11918W        W80136   7.517  28.698  13.041
11919W        W80137  23.860   6.627   2.772
11920W        W80138   3.795  37.901   0.871
11921W        W80139  22.120  11.538   0.306
11922W        W80140  21.512   6.864  10.947
11923W        W80141  42.431  15.653  12.876
11924W        W80142  18.541  11.203   3.211
11925W        W80143   9.659  38.635   1.379
11926W        W80144   2.847   3.202  14.488
11927W        W80145   0.281  24.178  11.575
11928W        W80146  26.640  37.298  12.496
11929W        W80147  39.503  27.022   2.412
11930W        W80148  26.036  17.754  10.893
11931W        W80149  40.018  11.672   4.616
11932W        W80150  13.671  10.208   1.485
11933W        W80151  21.528  25.453   3.585
11934W        W80152   4.254  19.206   3.714
11935W        W80153  28.111  42.057  14.968
11936W        W80154  29.136  43.354  12.103
11937W        W80155  40.225  31.572  10.678
11938W        W80156  15.507  34.044   0.322
11939W        W80157  10.526  14.150  13.829
11940W        W80158   7.362  18.150  14.065
11941W        W80159  32.068   4.327  11.002
11942W        W80160  14.877  18.860   4.660
11943W        W80161  41.951  33.057  11.603
11944W        W80162   7.263   5.419   3.622
11945W        W80163  13.825  38.899   0.750
11946W        W80164  44.472   1.509   1.874
11947W        W80165   2.310  30.461  13.414
11948W        W80166  32.632   9.366  12.060
11949W        W80167  35.187  33.483   1.946
11950W        W80168   2.213  29.970  12.939
11951W        W80169  26.614  37.418  14.865
11952W        W80170   1.660  15.198   2.664
11953W        W80171  12.785  14.405  12.539
11954W        W80172  34.038  20.225   0.629
11955W        W80173  12.336  33.108   2.270
11956W        W80174  21.619  29.435  14.777
11957W        W80175  16.323  24.779  10.823
11958W        W80176  41.334  20.660   4.494
11959W        W80177   0.314  27.929  12.897
11960W        W80178   0.799  28.184  13.080
11961W        W80179   8.193  43.522   2.896
11962W        W80180  13.839  33.936   0.740
11963W        W80181  41.769  30.021  10.966
11964W        W80182   1.525   8.816  13.073
11965W        W80183  21.136  36.324  11.941
11966W        W80184   7.895  35.604  10.670
11967W        W80185  44.416  38.252   2.792
11968W        W80186  18.908  10.420  13.161
11969W        W80187   2.405  10.260   0.822
11970W        W80188   3.742  35.394  13.433
11971W        W80189  34.964  15.872  13.269
11972W        W80190   9.373   1.720  14.729
11973W        W80191  34.104   5.000   4.223
11974W        W80192  25.993  15.754   2.130
11975W        W80193  26.555   6.616   0.096
11976W        W80194  33.503  11.841  12.498
11977W        W80195  17.716   6.518   0.297
11978W        W80196  28.951  25.742   9.914
11979W        W80197  39.379   6.755   3.874
11980W        W80198   4.472  29.026  13.941
11981W        W80199  38.113   9.313  14.092
11982W        W80200  36.573  22.792  10.819
11983W        W80201  44.913  16.396  14.105
11984W        W80202  42.385   5.474  10.960
11985W        W80203  36.570  30.828   1.453
11986W        W80204  16.530  15.822  12.928
11987W        W80205   4.311  19.767  10.729
11988W        W80206  39.810  42.751  11.210
11989W        W80207   2.455  26.705  11.542
11990W        W80208  39.388   2.175   0.948
11991W        W80209  19.710   4.943   3.651
11992W        W80210  30.177  42.221   1.907
11993W        W80211  15.250  44.469   0.774
11994W        W80212  38.085  14.230  10.044
11995W        W80213  21.745  33.087  11.108
11996W        W80214  15.259  18.335   3.189
11997W        W80215  32.919  10.056   1.341
11998W        W80216  31.413  37.298  11.108
11999W        W80217  10.064  35.870  14.043
12000W        W80218  39.858  11.194   4.409
12001W        W80219  36.546  28.038  11.504
12002W        W80220  17.747  18.507   2.273
12003W        W80221  11.637   4.699   1.290
12004W        W80222  32.299   8.821  13.041
12005W        W80223   3.445  41.254  11.479
12006W        W80224  12.648  20.044   0.044
12007W        W80225  17.837  11.889   3.468
12008W        W80226  43.405  23.806  14.009
12009W        W80227  41.239   0.429  13.407
12010W        W80228  10.145  33.545  10.303
12011W        W80229  22.487  28.213  11.169
12012W        W80230  36.133  11.139  13.659
12013W        W80231  13.607  25.605  11.118
12014W        W80232  36.105  27.947   2.735
12015W        W80233  37.312   4.646   0.870
12016W        W80234   3.031  14.647   1.237
12017W        W80235  10.986  38.994  14.853
12018W        W80236   2.742   0.248  11.952
12019W        W80237  44.993  19.073   3.248
12020W        W80238  32.987  28.995  12.512
12021W        W80239  11.421  44.208  13.910
12022W        W80240  12.360  42.527  14.557
12023W        W80241  20.319  24.755  13.586
12024W        W80242  17.786  42.917  10.887
12025W        W80243  13.140  15.301  11.879
12026W        W80244  42.040  28.637  13.907
12027W        W80245  20.292  36.471  10.919
12028W        W80246   0.442  19.266  11.893
12029W        W80247  41.588   9.335  12.512
12030W        W80248  26.597  28.925   4.193
12031W        W80249  17.880   9.417  12.907
12032W        W80250   8.962   3.651  13.027
12033W        W80251  10.903   4.258   3.922
12034W        W80252  27.298  14.880  13.944
12035W        W80253   6.835  44.731  10.479
12036W        W80254  21.227   8.259  14.282
12037W        W80255  20.768  20.251   2.859
12038W        W80256  29.230   3.837  11.883
12039W        W80257  20.000   3.271  13.802
12040W        W80258  24.933   6.337   4.178
12041W        W80259  39.148  40.091  10.602
12042W        W80260   7.627  12.448  12.919
12043W        W80261   3.429  37.912  12.952
12044W        W80262  35.370  13.107  10.756
12045W        W80263  31.954  24.147   0.896
12046W        W80264  18.669   4.119  10.762
12047W        W80265  43.081  38.296   1.254
12048W        W80266  37.481  21.145  12.213
12049W        W80267  34.136  43.004  10.643
12050W        W80268  29.476  19.723   5.070
12051W        W80269  43.795   6.200   0.946
12052W        W80270  13.078  38.278   1.292
12053W        W80271  11.736  35.803   0.373
12054W        W80272  28.501  16.847  13.762
12055W        W80273  39.620  28.330  13.346
12056W        W80274  23.550  30.602   1.580
12057W        W80275  19.863  19.637  12.614
12058W        W80276  27.365  21.605  10.957
12059W        W80277   5.480  24.053  12.046
12060W        W80278   6.535  21.980   4.177
12061W        W80279  16.978  39.313   1.735
12062W        W80280   2.763  30.902   0.783
12063W        W80281  21.864  37.284   0.464
12064W        W80282  39.584  11.748   3.466
12065W        W80283  16.329   0.580  10.202
12066W        W80284  32.708  29.390  13.510
12067W        W80285   5.206  36.172  11.645
12068W        W80286  31.559  18.886  11.738
12069W        W80287  10.817  18.922   4.905
12070W        W80288  25.736  14.174  13.102
12071W        W80289  31.549   1.149  14.932
12072W        W80290  21.970  29.738  13.491
12073W        W80291   7.862  21.310  12.452
12074W        W80292   3.249  35.821   4.694
12075W        W80293   3.456   4.603   4.598
12076W        W80294  19.586   9.180   2.670
12077W        W80295  27.703  31.349   1.732
12078W        W80296   4.063   5.258   3.192
12079W        W80297  10.189   5.728  13.722
12080W        W80298  32.934  14.742   1.732
12081W        W80299  43.142   0.186   4.205
12082W        W80300  24.451   3.911   3.879
12083W        W80301  32.640  18.809   3.740
12084W        W80302   0.632   2.760  14.043
12085W        W80303  20.545   8.925   1.257
12086W        W80304  26.933  22.224   2.710
12087W        W80305  11.255  16.958   3.881
12088W        W80306  23.262   9.055   1.667
12089W        W80307  39.582  12.203   2.702
12090W        W80308  31.166  12.378   0.624
12091W        W80309   8.570  10.112  10.291
12092W        W80310  33.598  29.068  10.712
12093W        W80311  12.332  44.950   1.283
12094W        W80312  14.180  11.365  14.782
12095W        W80313  11.570  19.744   2.673
12096W        W80314  34.070  43.079   2.439
12097W        W80315  10.093   3.808   1.379
12098W        W80316   5.138   9.327  12.296
12099W        W80317   2.234  43.390  11.701
12100W        W80318  15.786  10.613  13.170
12101W        W80319  44.526  33.585  14.857
12102W        W80320  40.890  14.545   2.858
12103W        W80321  26.434   7.758   0.397
12104W        W80322  13.710  33.638  11.663
12105W        W80323  29.597   7.191   0.541
12106W        W80324  21.205  26.259  13.270
12107W        W80325  38.557  24.203   1.669
12108W        W80326   9.601   7.494  11.719
12109W        W80327  34.607  21.641   1.720
12110W        W80328  22.689  23.707   4.580
12111W        W80329  14.638  34.930  11.194
12112W        W80330   0.209  34.363   0.785
12113W        W80331  33.477   9.815  14.533
12114W        W80332  43.348  38.763   1.206
12115W        W80333  26.666   4.764   4.288
12116W        W80334   1.725   9.143  11.946
12117W        W80335  41.056  42.958  14.431
12118W        W80336   0.406  28.326   4.214
12119W        W80337  30.619  30.654   1.175
12120W        W80338   5.873  44.724  11.328
12121W        W80339  37.315  34.381  12.499
12122W        W80340  22.157  37.845   1.266
12123W        W80341  18.767   1.123   1.675
12124W        W80342  18.166  11.013   4.665
12125W        W80343   1.742  21.631  11.056
12126W        W80344  23.179   8.919  14.035
12127W        W80345  17.684  38.171  13.466
12128W        W80346  41.793  10.637  12.960
12129W        W80347  19.162  41.912   4.509
12130W        W80348  10.204  28.077  12.499
12131W        W80349  25.522  24.984   4.139
12132W        W80350  41.728   6.372   2.219
12133W        W80351  25.155  42.314   2.724
12134W        W80352  31.079  36.036  10.747
12135W        W80353  24.611  26.152  12.703
12136W        W80354  38.454   2.229  14.833
12137W        W80355  17.771  12.315   3.148
12138W        W80356  37.404  38.602  14.053
12139W        W80357  21.079   5.772   1.860
12140W        W80358  12.447  42.751   3.348
12141W        W80359  19.104  20.826   0.008
12142W        W80360  44.978  38.281   4.746
12143W        W80361   9.321  38.652  13.478
12144W        W80362  39.599  37.391  12.628
12145W        W80363  19.575  34.816  11.153
12146W        W80364  43.266  22.192   2.585
12147W        W80365  18.401  37.858   1.211
12148W        W80366  40.015  24.657   5.002
12149W        W80367  30.376   7.258  12.146
12150W        W80368   0.101  19.505   0.442
12151W        W80369  13.649  11.322   1.185
12152W        W80370   8.766  32.576  14.902
12153W        W80371   8.547  18.849   4.120
12154W        W80372  24.737  10.243   0.212
12155W        W80373  31.728  10.282  11.867
12156W        W80374  30.555  31.063  11.973
12157W        W80375  17.491   2.347   1.154
12158W        W80376   6.413  14.035   5.003
12159W        W80377  10.682  37.009   0.924
12160W        W80378  23.562  21.146   2.703
12161W        W80379  12.140  24.588   2.837
12162W        W80380  42.898  37.220  11.042
12163W        W80381  10.936  42.416  12.951
12164W        W80382   7.756  17.795   2.870
12165W        W80383  16.136   0.610   0.836
12166W        W80384   8.429  17.322   3.095
12167W        W80385  37.775  30.045   3.143
12168W        W80386   3.159  21.689  12.093
12169W        W80387  25.445  26.005  14.095
12170W        W80388  11.717  43.954  14.349
12171W        W80389  20.477   9.818  14.741
12172W        W80390  33.890  18.287  13.551
12173W        W80391  31.042  28.361   2.255
12174W        W80392  34.775  10.231  11.237
12175W        W80393  10.191  19.872  11.990
12176W        W80394   2.717   2.052   0.255
12177W        W80395  16.570  27.454  12.539
12178W        W80396   2.418  44.219   0.689
12179W        W80397  27.478  36.221   4.228
12180W        W80398  20.123  37.214   1.245
12181W        W80399  38.978  25.241   3.285
12182W        W80400  26.691  25.552  13.817
12183W        W80401  15.711  18.307   4.956
12184W        W80402  31.999  38.634   1.382
12185W        W80403  23.331   8.837  13.172
12186W        W80404  24.034  29.426  10.482
12187W        W80405  32.341  11.624  13.373
12188W        W80406  29.471  23.235   0.398
12189W        W80407  35.332  16.776   0.735
12190W        W80408   8.412  31.829  14.767
12191W        W80409  15.081  35.367  13.366
12192W        W80410  24.646   5.412   4.708
12193W        W80411  30.200  44.446   0.412
12194W        W80412   2.771  41.019  11.577
12195W        W80413  17.987   3.859   4.589
12196W        W80414  19.731  30.126   5.010
12197W        W80415  18.415   5.279  14.130
12198W        W80416   4.841  28.680  14.085
12199W        W80417   7.195  29.719   4.012
12200W        W80418  19.107  13.180  10.916
12201W        W80419  43.839  20.348  12.996
12202W        W80420  19.854  38.284   4.759
12203W        W80421  17.645  40.959   1.738
12204W        W80422  34.332  11.126   3.156
12205W        W80423  12.144  44.151   5.377
12206W        W80424  33.789   6.696  13.446
12207W        W80425  40.410   3.926  11.198
12208W        W80426  36.440  34.907  10.679
12209W        W80427  13.578   1.446   2.336
12210W        W80428  41.377  41.043   3.791
12211W        W80429  28.718  38.111  12.010
12212W        W80430  36.512  18.694  13.731
12213W        W80431  27.983  43.771   4.472
12214W        W80432  20.206   7.454  13.995
12215W        W80433  10.678  25.712   1.860
12216W        W80434  25.503  17.089   3.873
12217W        W80435  14.064   0.017   1.958
12218W        W80436   4.135  10.435   0.433
12219W        W80437  30.537  41.380  13.242
12220W        W80438   6.350  40.512   1.279
12221W        W80439  34.542  26.967   0.685
12222W        W80440  15.112  32.428   0.144
12223W        W80441  26.201  28.164   2.738
12224W        W80442  23.529  37.340   2.736
12225W        W80443   7.672  29.872  12.453
12226W        W80444  18.071   3.823   1.960
12227W        W80445  18.653  28.425   0.841
12228W        W80446  31.910  42.563  11.627
12229W        W80447  24.562  25.401  11.183
12230W        W80448   8.130  38.891  14.782
12231W        W80449  33.963  13.306  10.611
12232W        W80450  31.712   2.542   1.780
12233W        W80451  34.138  14.770   2.272
12234W        W80452  29.647  40.160  11.251
12235W        W80453  19.655  22.549   2.651
12236W        W80454  14.727  35.354   4.209
12237W        W80455  36.558   8.366  10.623
12238W        W80456  37.858  40.322  13.463
12239W        W80457   3.947  20.678  12.326
12240W        W80458  12.831  27.565   3.172
12241W        W80459  10.749  21.967  12.599
12242W        W80460  19.779  34.601  14.323
12243W        W80461   0.584  18.657   1.214
12244W        W80462  23.539   7.269   0.385
12245W        W80463  43.920  44.337   2.547
12246W        W80464   6.693   2.975   4.400
12247W        W80465  10.630   3.847   2.270
12248W        W80466  33.435   3.350   1.790
12249W        W80467  28.582  31.928  13.071
12250W        W80468  36.914  34.209  12.208
12251W        W80469   2.002   1.359  13.049
12252W        W80470  12.019  29.001   3.384
12253W        W80471   9.949   7.910  13.797
12254W        W80472  30.553   0.854   4.175
12255W        W80473   9.339   9.320   4.826
12256W        W80474  10.655  37.470   3.712
12257W        W80475  44.383  33.572  12.142
12258W        W80476  27.642  19.305   0.769
12259W        W80477  17.632  23.605   3.880
12260W        W80478  18.915   7.467  11.675
12261W        W80479  16.787  16.841   0.841
12262W        W80480  16.691  38.422   3.151
12263W        W80481   6.327  16.133   1.774
12264W        W80482   1.016  20.540  12.413
12265W        W80483  20.671  16.813   2.208
12266W        W80484  28.286  12.063   4.837
12267W        W80485  31.546  20.329   4.707
12268W        W80486  21.389  37.597   5.327
12269W        W80487  35.804   2.079   4.660
12270W        W80488   7.790  17.843  13.055
12271W        W80489   4.764  34.350   3.144
12272W        W80490  24.489   5.323  11.469
12273W        W80491  33.756  33.374  12.490
12274W        W80492  23.972  41.303   0.557
12275W        W80493   9.261  20.485   4.759
12276W        W80494  16.716  14.662  14.784
12277W        W80495  10.348  40.988  14.565
12278W        W80496  31.016  10.328  10.186
12279W        W80497   0.294  43.947   0.448
12280W        W80498  12.738  42.240  12.725
12281W        W80499  15.809   0.455   0.225
12282W        W80500  11.068   3.757   1.247
12283W        W80501  22.223  29.032  11.662
12284W        W80502   1.908  35.727  11.458
12285W        W80503   9.724  12.098  13.377
12286W        W80504  30.903   2.960   0.789
12287W        W80505  29.975  35.031   4.970
12288W        W80506  33.417  44.112   3.565
12289W        W80507  30.498  30.855  10.615
12290W        W80508  12.773  19.146  14.794
12291W        W80509   6.821  12.841   2.728
12292W        W80510  18.791  23.062   2.692
12293W        W80511  41.263   5.785   1.750
12294W        W80512   5.742  31.452  11.995
12295W        W80513  40.285   6.133  10.723
12296W        W80514  37.934  42.017  11.686
12297W        W80515  43.434  18.392  11.121
12298W        W80516  28.003  10.912  12.872
12299W        W80517   3.092  20.121  14.500
12300W        W80518   2.691  15.185  11.567
12301W        W80519  31.114  41.027   0.871
12302W        W80520  17.474  13.059  12.773
12303W        W80521  22.576  41.566  12.399
12304W        W80522  36.426  32.327   3.365
12305W        W80523  23.709  12.218  14.741
12306W        W80524  21.176  43.648  11.198
12307W        W80525   9.414  32.941   1.337
12308W        W80526  12.905  42.217   1.414
12309W        W80527  20.040  34.098   0.523
12310W        W80528  24.007  23.469  12.854
12311W        W80529  40.592  40.839   3.175
12312W        W80530  20.174   6.949  14.175
12313W        W80531  10.200  38.069   2.658
12314W        W80532  41.586  35.479  14.237
12315W        W80533  30.279  42.763   3.675
12316W        W80534  26.609  26.474   5.235
12317W        W80535  17.420  21.275   3.306
12318W        W80536  32.054   0.777  11.779
12319W        W80537  24.727   6.461   1.633
12320W        W80538   2.545   1.916  13.936
12321W        W80539   6.999  44.659  13.880
12322W        W80540  19.459  23.026   1.284
12323W        W80541  17.177  34.420  10.124
12324W        W80542  35.008   6.221   5.201
12325W        W80543  13.750  22.526  14.399
12326W        W80544   5.473  43.278   2.463
12327W        W80545   7.658   7.492  11.729
12328W        W80546  25.101   4.914  13.461
12329W        W80547  21.687   0.941   2.626
12330W        W80548  35.832  27.010  13.503
12331W        W80549  32.002  31.153  11.984
12332W        W80550  41.463  35.382   3.966
12333W        W80551  41.863  35.846   4.117
12334W        W80552  34.893  40.011   1.217
12335W        W80553  35.984   3.423  13.610
12336W        W80554  18.120  19.491  14.479
12337W        W80555  14.793  24.520   3.174
12338W        W80556  29.938  37.826  14.740
12339W        W80557   1.880  29.502   0.253
12340W        W80558  16.796  20.844  12.127
12341W        W80559  38.134  23.469   1.253
12342W        W80560   9.582  17.810   2.208
12343W        W80561   7.788  17.003  14.755
12344W        W80562  36.061  10.298  12.641
12345W        W80563  11.085  22.730  14.500
12346W        W80564  33.967  28.978  13.025
12347W        W80565  23.559  41.997   4.506
12348W        W80566  19.482  21.890   0.533
12349W        W80567  42.584  42.485  13.468
12350W        W80568  35.149  37.909   1.224
12351W        W80569   0.015  32.372  14.063
12352W        W80570  17.776   7.766  11.990
12353W        W80571   2.913  24.111  10.833
12354W        W80572   7.739  34.647   2.194
12355W        W80573   6.257   9.531   4.223
12356W        W80574  40.400  39.400  14.371
12357W        W80575  22.225  41.519  11.680
12358W        W80576   2.169  24.994   3.723
12359W        W80577  18.997  22.130  12.814
12360W        W80578  25.781  42.468  12.130
12361W        W80579  28.921  36.796   2.561
12362W        W80580  40.904  11.803   4.703
12363W        W80581   3.269  39.912   2.335
12364W        W80582  27.475  20.929  13.516
12365W        W80583  18.300  33.091  11.027
12366W        W80584  34.503  16.553   2.126
12367W        W80585  35.652  39.484   3.197
12368W        W80586   9.911  21.422   4.222
12369W        W80587   1.474  36.528   4.836
12370W        W80588  34.516  42.771   3.152
12371W        W80589  16.107  30.173   2.994
12372W        W80590  29.810  22.205   3.480
12373W        W80591  17.855  10.426   4.322
12374W        W80592  26.013  12.917  14.789
12375W        W80593  14.535   0.034   0.746
12376W        W80594   0.399   0.564   0.681
12377W        W80595  34.241  10.216  11.158
12378W        W80596  40.952  33.657  10.610
12379W        W80597  35.535  13.996   2.125
12380W        W80598   7.253  18.714  10.760
12381W        W80599  24.503  33.431  14.211
12382W        W80600   3.843  22.647   4.414
12383W        W80601  33.127  35.554  14.390
12384W        W80602  13.099   2.871   5.010
12385W        W80603  26.896  14.885   3.160
12386W        W80604   3.333  15.429   4.147
12387W        W80605   8.132  27.230  13.581
12388W        W80606  43.506  17.519  13.275
12389W        W80607   5.217   0.373   1.387
12390W        W80608  11.592  21.156   1.461
12391W        W80609   6.189  15.344   0.576
12392W        W80610  11.408  34.032   4.484
12393W        W80611  28.039  22.538   3.127
12394W        W80612  30.822  14.322   9.865
12395W        W80613   4.517   9.874  11.896
12396W        W80614  31.036  27.922   0.901
12397W        W80615  40.209  13.203   2.352
12398W        W80616  33.565  41.340   4.434
12399W        W80617  28.458   2.348   2.222
12400W        W80618  31.992  10.663  13.020
12401W        W80619   9.971   1.907  12.906
12402W        W80620   5.030   2.982   2.883
12403W        W80621  28.460  25.715  14.495
12404W        W80622  21.835   7.752   0.889
12405W        W80623  35.652  24.420   3.405
12406W        W80624  31.337  38.818  11.059
12407W        W80625  41.826  44.802   4.259
12408W        W80626  20.300  19.832  12.906
12409W        W80627  17.756   9.377  13.782
12410W        W80628  25.228  10.873  14.303
12411W        W80629  35.520  33.638  11.847
12412W        W80630  24.695   8.757   1.708
12413W        W80631  10.593   1.953   2.229
12414W        W80632  37.260  13.848   0.382
12415W        W80633  26.321  34.146  11.472
12416W        W80634  44.752  39.850   1.204
12417W        W80635   1.496  15.377   2.199
12418W        W80636  35.425   0.819  10.791
12419W        W80637  39.837   3.460   4.267
12420W        W80638  24.931  14.963  14.872
12421W        W80639  39.440  12.488   0.833
12422W        W80640  11.365  30.037   4.045
12423W        W80641  25.993  21.328   1.115
12424W        W80642   5.804  31.783  14.367
12425W        W80643  19.174  27.313   0.574
12426W        W80644  32.920  15.211   0.852
12427W        W80645  34.341  44.419   0.827
12428W        W80646  40.872  44.514  12.323
12429W        W80647  15.695   7.179  10.427
12430W        W80648   6.003  25.687   1.492
12431W        W80649   4.565   5.319   3.138
12432W        W80650  40.337   0.256  13.064
12433W        W80651  37.448  14.202   3.293
12434W        W80652  16.100  14.311  13.538
12435W        W80653  32.681  25.167  10.700
12436W        W80654  26.641   5.203  12.101
12437W        W80655  37.562  24.910   1.404
12438W        W80656  17.114  12.407  10.367
12439W        W80657  15.946  13.317  14.939
12440W        W80658  15.802   7.721   1.186
12441W        W80659   9.093  17.123  14.546
12442W        W80660   7.806  29.205  11.146
12443W        W80661  41.927  11.103  14.800
12444W        W80662  19.381  16.773  11.096
12445W        W80663  23.658   1.250   1.182
12446W        W80664  42.839  42.474   2.856
12447W        W80665  40.466   7.620   4.175
12448W        W80666   7.977  27.424  10.681
12449W        W80667  29.494  42.357   4.551
12450W        W80668  33.791  18.569   2.687
12451W        W80669   5.697  30.791   1.775
12452W        W80670  17.819  12.180   5.310
12453W        W80671   7.347  35.769   1.488
12454W        W80672   8.455   6.128  11.163
12455W        W80673   8.348  15.314   9.679
12456W        W80674  31.445  39.714  14.957
12457W        W80675   4.961  23.897  12.063
12458W        W80676  27.776  41.438   0.541
12459W        W80677  39.758  32.186   3.607
12460W        W80678  33.597  41.000   0.927
12461W        W80679   6.294   7.981   5.075
12462W        W80680  11.791  21.801  12.662
12463W        W80681  12.361  40.333  12.618
12464W        W80682  36.438  38.313   4.146
12465W        W80683  26.537  17.816   0.484
12466W        W80684   3.882  19.543   4.552
12467W        W80685  22.677  36.888  11.875
12468W        W80686  21.553  44.020   2.821
12469W        W80687   8.599  20.242  12.745
12470W        W80688  15.669  10.898   2.777
12471W        W80689  36.929   8.367   3.305
12472W        W80690  20.627   1.405  11.153
12473W        W80691   9.185   7.634  13.428
12474W        W80692  28.496  13.919  14.480
12475W        W80693  29.339  41.401   4.839
12476W        W80694  17.325  29.086   1.874
12477W        W80695  38.426  42.066  13.380
12478W        W80696  31.535  17.917  11.448
12479W        W80697  17.272  27.461   1.655
12480W        W80698   8.315   4.817   4.404
12481W        W80699  28.428  18.219   2.137
12482W        W80700  20.123  19.772  14.320
12483W        W80701  24.564  33.849  14.501
12484W        W80702  39.834  29.018  10.780
12485W        W80703  42.403   2.010   4.676
12486W        W80704  25.290   0.703  12.088
12487W        W80705  32.050  36.298  11.596
12488W        W80706  28.013  35.668   4.316
12489W        W80707   0.283   5.883   3.656
12490W        W80708  28.601   6.786  11.822
12491W        W80709   2.919   9.604   3.917
12492W        W80710  22.968  17.509  12.951
12493W        W80711  37.571   0.838  10.716
12494W        W80712  44.319  33.065  12.414
12495W        W80713  20.666  14.623   2.773
12496W        W80714  26.530   5.265  14.537
12497W        W80715  27.260  42.894  10.680
12498W        W80716  19.727  13.221   1.207
12499W        W80717  23.938  21.515  12.618
12500W        W80718  44.913  44.557  13.863
12501W        W80719  26.777  28.597  10.286
12502W        W80720  36.447   9.813   3.859
12503W        W80721   3.512   9.259  13.502
12504W        W80722   7.956  17.641  11.391
12505W        W80723  24.503  18.998   1.377
12506W        W80724  32.192  12.247   0.692
12507W        W80725   2.668  22.416  13.937
12508W        W80726   8.055  18.972   4.085
12509W        W80727  26.111  19.652  14.912
12510W        W80728   7.157  19.767   3.723
12511W        W80729  37.299  10.185  11.196
12512W        W80730  27.573   7.325   3.196
12513W        W80731  11.891  38.297  12.610
12514W        W80732   3.390  27.099  10.621
12515W        W80733   7.317  30.626  11.562
12516W        W80734  31.083  30.181  14.511
12517W        W80735   9.129  43.431   4.820
12518W        W80736  34.183  44.091  12.440
12519W        W80737  29.710  22.530   4.103
12520W        W80738  40.402  34.457  12.412
12521W        W80739   8.163  31.438  12.414
12522W        W80740  44.281  13.627  14.991
12523W        W80741  21.292  27.056   0.408
12524W        W80742  29.832  36.463   3.174
12525W        W80743  10.914  17.734  12.117
12526W        W80744  44.310  40.854   1.714
12527W        W80745  43.122  26.638   1.893
12528W        W80746  32.562  22.213  11.190
12529W        W80747  42.062  44.976   2.790
12530W        W80748  27.926  39.559  10.640
12531W        W80749  42.771  32.816   3.314
12532W        W80750  20.757  28.673  14.298
12533W        W80751  36.784   7.008  10.471
12534W        W80752  18.555  32.741   4.568
12535W        W80753  34.057  37.101   3.659
12536W        W80754   1.975   3.673   4.539
12537W        W80755  32.287  31.623   2.899
12538W        W80756  22.444  26.437  12.464
12539W        W80757   2.286  24.014  13.076
12540W        W80758  17.189  24.125   2.742
12541W        W80759  17.748  18.959   1.347
12542W        W80760  28.883   4.201   0.374
12543W        W80761  21.389   8.152   2.889
12544W        W80762  22.012  28.153   3.673
12545W        W80763  13.490  44.840  12.633
12546W        W80764  32.259  31.856  12.513
12547W        W80765  13.734   1.842  12.617
12548W        W80766  33.985  15.617   2.793
12549W        W80767  20.650  44.230   3.610
12550W        W80768  18.698   8.437   1.415
12551W        W80769  11.362  28.008   4.227
12552W        W80770  28.712  15.538   4.077
12553W        W80771  25.516  14.008   3.188
12554W        W80772  26.663  19.490  13.446
12555W        W80773   4.708  29.641   2.161
12556W        W80774  30.426  44.281   4.017
12557W        W80775   1.884  41.188   0.025
12558W        W80776  38.572  23.132   4.460
12559W        W80777  16.847  21.602   0.697
12560W        W80778  19.628  23.469  14.370
12561W        W80779  36.758  42.169  12.966
12562W        W80780  37.556  16.081   3.399
12563W        W80781  25.925  29.094  11.181
12564W        W80782  33.996  36.140   3.778
12565W        W80783  22.038   1.946   0.734
12566W        W80784  34.057  39.564  13.507
12567W        W80785  27.099  17.249  14.488
12568W        W80786   0.920  13.429  14.950
12569W        W80787   8.464  24.748  12.638
12570W        W80788   3.449   1.894   0.082
12571W        W80789  37.432   6.790   1.886
12572W        W80790  34.587  38.428   4.029
12573W        W80791   1.942  40.280   2.134
12574W        W80792  22.945   5.915   3.671
12575W        W80793   5.754  37.485   3.629
12576W        W80794  38.532   4.527  11.047
12577W        W80795  34.077   4.461   3.555
12578W        W80796  40.232  21.346   3.317
12579W        W80797  28.486   0.740   2.259
12580W        W80798  17.117  29.878  13.896
12581W        W80799   0.664  43.270   1.379
12582W        W80800  26.821  42.556   1.825
12583W        W80801  34.482   1.807  10.676
12584W        W80802  19.254  15.072   0.910
12585W        W80803  29.710  30.049   1.924
12586W        W80804  15.306  30.179  13.989
12587W        W80805  10.510  30.414  10.186
12588W        W80806  11.891  36.597   4.142
12589W        W80807   5.569  12.318  12.855
12590W        W80808  42.810  33.525   3.552
12591W        W80809  31.728   4.959   1.957
12592W        W80810  34.024   4.762   5.488
12593W        W80811  20.613  39.053  10.704
12594W        W80812  41.285   5.825   3.239
12595W        W80813  13.304  41.118   0.264
12596W        W80814  16.246  10.728   2.928
12597W        W80815  25.145  37.806   3.219
12598W        W80816   6.450   4.124  12.365
12599W        W80817  21.752   8.326  14.201
12600W        W80818  40.522   7.843   4.664
12601W        W80819  38.376  22.298  14.492
12602W        W80820   6.209  39.923   2.740
12603W        W80821   8.749   2.198   4.599
12604W        W80822  43.753  36.059  14.313
12605W        W80823  15.132   7.408  12.086
12606W        W80824  28.373   3.937   9.918
12607W        W80825  25.901   6.675  13.549
12608W        W80826  35.540  10.339  12.511
12609W        W80827  26.956   6.934  14.989
12610W        W80828  12.341  21.941   4.924
12611W        W80829  24.898  36.655  12.485
12612W        W80830   6.249  18.807   4.071
12613W        W80831  12.153  27.961  11.006
12614W        W80832  42.857   9.156  13.805
12615W        W80833   4.423  27.009  12.574
12616W        W80834  36.726  24.090   2.473
12617W        W80835  19.048  37.699  11.036
12618W        W80836   5.313  32.730   4.723
12619W        W80837  43.481   5.436   4.832
12620W        W80838   9.919  27.451   1.878
12621W        W80839  14.367  29.966   4.698
12622W        W80840  26.681   7.691  11.567
12623W        W80841  15.721  28.139   0.854
12624W        W80842   4.909  18.727   5.237
12625W        W80843   8.239  44.235   3.782
12626W        W80844  24.385  32.380   1.695
12627W        W80845  37.917  11.837   2.715
12628W        W80846  22.045   5.996  13.441
12629W        W80847  17.649  32.937  13.395
12630W        W80848  28.459  12.943   0.942
12631W        W80849   7.721   3.332  10.415
12632W        W80850  37.823   4.473   4.918
12633W        W80851  40.557   7.455  13.785
12634W        W80852  37.349  26.085   4.252
12635W        W80853   2.949  33.662   3.776
12636W        W80854  32.905  10.682   2.563
12637W        W80855  22.216  19.702  12.902
12638W        W80856  37.543  33.285  11.517
12639W        W80857  35.734  11.626   3.449
12640W        W80858  28.615  43.982  10.644
12641W        W80859  13.687  16.354   1.799
12642W        W80860  21.480  12.686   3.110
12643W        W80861  32.906  19.718   2.853
12644W        W80862   9.727  13.821   2.200
12645W        W80863  30.450  25.782  12.962
12646W        W80864  26.815  35.100  14.385
12647W        W80865   4.998  38.564   0.426
12648W        W80866  12.297  24.245   3.212
12649W        W80867  26.154  39.736  10.284
12650W        W80868   5.180  43.068  13.949
12651W        W80869  13.171  11.830   1.375
12652W        W80870  18.741  27.490  10.934
12653W        W80871  44.857  26.972   2.661
12654W        W80872  44.373  40.165  11.698
12655W        W80873  42.407  14.593  12.086
12656W        W80874  10.625  41.493  13.799
12657W        W80875  24.822   7.630  11.143
12658W        W80876  11.010  33.752  10.761
12659W        W80877   5.629  23.723  13.139
12660W        W80878   9.381  23.111  14.086
12661W        W80879   1.042  44.490   2.100
12662W        W80880  28.627  20.734   4.536
12663W        W80881  35.197  32.740   4.074
12664W        W80882  43.309  27.929   4.628
12665W        W80883  37.739  15.734  13.567
12666W        W80884  37.419  36.918  13.614
12667W        W80885  22.078  13.781  12.236
12668W        W80886  32.662  35.350  14.321
12669W        W80887  25.679  37.328  13.260
12670W        W80888   9.794  16.221   1.925
12671W        W80889  10.766  21.791  14.730
12672W        W80890  10.101  34.873   1.356
12673W        W80891   4.240  39.718   1.776
12674W        W80892  14.251  20.599  13.926
12675W        W80893  20.717  41.331   4.579
12676W        W80894  40.296   5.882  11.171
12677W        W80895  31.158  19.489   4.142
12678W        W80896   3.523  27.661  14.832
12679W        W80897   9.389   4.275  10.616
12680W        W80898  28.731  39.356  13.843
12681W        W80899  18.186  39.667   2.646
12682W        W80900  26.449   1.042   1.861
12683W        W80901  31.163   5.854  14.785
12684W        W80902  23.230  10.449   3.743
12685W        W80903  41.335   2.520  10.618
12686W        W80904  42.706  23.820   3.292
12687W        W80905  37.413  39.477  12.046
12688W        W80906  40.804   8.353   4.522
12689W        W80907  33.476  25.366   3.242
12690W        W80908  24.112  12.313   2.857
12691W        W80909  10.598  21.637  12.201
12692W        W80910  32.027  37.334  10.356
12693W        W80911   7.866  11.593  12.897
12694W        W80912  27.599  32.643  14.668
12695W        W80913  38.883  38.007   4.730
12696W        W80914  38.051  12.621  11.079
12697W        W80915   6.918   2.952   0.814
12698W        W80916   6.505  25.022  13.454
12699W        W80917  13.820  34.927  12.368
12700W        W80918  13.103   5.869   4.348
12701W        W80919  30.542  28.026  14.296
12702W        W80920  29.589  24.581  10.269
12703W        W80921   5.752  17.347   0.848
12704W        W80922  38.949  12.200  11.149
12705W        W80923  31.220  19.253  11.104
12706W        W80924  38.004  33.231   0.379
12707W        W80925  23.924  15.256  14.956
12708W        W80926  26.467  29.437  12.808
12709W        W80927  43.476  26.456  13.851
12710W        W80928   0.228  31.527  10.791
12711W        W80929   7.976  18.909  11.052
12712W        W80930  44.957  10.900  10.978
12713W        W80931  42.557  30.209   1.066
12714W        W80932  43.370  18.989   2.399
12715W        W80933   8.649   4.857   3.559
12716W        W80934  31.500  32.989  13.641
12717W        W80935  35.898  17.215  13.773
12718W        W80936  21.629   2.484  10.658
12719W        W80937  19.268  13.988   1.817
12720W        W80938  33.655  18.604   3.698
12721W        W80939  10.772  26.546   0.156
12722W        W80940  11.032  10.784  10.739
12723W        W80941  27.122  26.173  14.486
12724W        W80942  33.856  11.847   0.449
12725W        W80943  13.259  44.430  14.399
12726W        W80944   1.515  36.911  12.571
12727W        W80945  26.168   2.529   2.810
12728W        W80946  14.176  26.226   0.813
12729W        W80947  27.383  11.434   2.699
12730W        W80948  30.670  15.912   1.025
12731W        W80949  25.946  40.338  10.326
12732W        W80950  40.746  19.386   1.882
12733W        W80951   1.502   0.217   2.402
12734W        W80952  24.688  35.324  11.146
12735W        W80953  40.875  15.051  12.045
12736W        W80954   3.267  28.846   0.309
12737W        W80955   1.716  27.043   0.865
12738W        W80956  22.985  20.843   4.814
12739W        W80957   2.930  35.468  12.976
12740W        W80958   1.331  25.030   2.882
12741W        W80959  40.158  26.911  13.464
12742W        W80960  38.916  32.131   0.290
12743W        W80961  11.954  39.085   3.739
12744W        W80962  37.459   5.905   3.847
12745W        W80963   2.436  11.604   1.326
12746W        W80964   0.055  42.997   2.840
12747W        W80965  33.627   3.182   3.144
12748W        W80966  15.791  33.302  11.911
12749W        W80967  36.401  24.218   0.226
12750W        W80968  37.778   5.048   3.641
12751W        W80969  31.598  23.059  12.089
12752W        W80970  30.151  15.660   3.254
12753W        W80971  29.265  25.477   0.189
12754W        W80972  28.582   7.249  14.092
12755W        W80973  13.578  31.591  14.036
12756W        W80974  22.589  19.592   9.840
12757W        W80975  34.594   7.332   0.718
12758W        W80976  29.558  31.897  14.397
12759W        W80977  44.144  39.841   4.098
12760W        W80978  30.019  31.004  11.979
12761W        W80979  31.905  19.575  14.478
12762W        W80980  42.465   6.488  13.990
12763W        W80981  34.931   9.108   4.535
12764W        W80982  40.251  29.933  11.048
12765W        W80983  37.411  44.373  14.555
12766W        W80984  37.881  41.254   4.206
12767W        W80985  19.566  17.625  10.741
12768W        W80986  34.488  30.407   5.131
12769W        W80987  27.502  37.184  14.124
12770W        W80988  28.555   3.770  12.434
12771W        W80989  23.065   5.092  13.357
12772W        W80990  27.537  14.262  12.456
12773W        W80991  42.739   5.980   0.969
12774W        W80992  20.454  10.152   0.369
12775W        W80993  21.018  12.358  12.191
12776W        W80994  41.336  22.723   4.036
12777W        W80995  35.506  36.797   3.128
12778W        W80996  29.970   9.975   4.522
12779W        W80997   7.727  26.949   0.901
12780W        W80998  38.569   7.940  13.537
12781W        W80999  43.497  15.540  11.574
12782W        W81000  43.615  35.533   4.209
12783W        W81001  24.045  28.199  12.608
12784W        W81002  36.534   3.881   0.210
12785W        W81003  19.195  41.684  11.494
12786W        W81004  14.822   0.385  14.479
12787W        W81005  34.083  15.646   2.186
12788W        W81006   1.143  39.906  13.442
12789W        W81007  21.498   9.006  13.820
12790W        W81008  22.231  15.580   2.735
12791W        W81009  37.785  33.095   4.684
12792W        W81010   9.922  17.029   0.478
12793W        W81011  15.205   6.217  12.720
12794W        W81012  38.033  32.182   3.654
12795W        W81013   4.809   5.754   3.295
12796W        W81014   2.308  12.769   3.688
12797W        W81015   7.809  36.997  11.308
12798W        W81016  41.392  43.727  14.807
12799W        W81017  37.968   5.754   3.021
12800W        W81018  21.696  31.854  12.967
12801W        W81019  14.352  24.601  14.717
12802W        W81020  17.399  10.555  14.544
12803W        W81021  27.030   4.205  12.561
12804W        W81022  27.234   4.000  12.136
12805W        W81023   6.432  12.066  14.267
12806W        W81024  34.115  19.019   4.176
12807W        W81025  30.238   9.688   3.552
12808W        W81026  29.997  27.643  14.504
12809W        W81027  11.588  25.146   4.089
12810W        W81028  36.536  41.306  11.585
12811W        W81029  18.328  25.085  14.352
12812W        W81030  18.039  13.649   3.144
12813W        W81031  43.848  39.365   3.389
12814W        W81032  32.188   0.027  12.137
12815W        W81033   2.976  25.713  14.925
12816W        W81034  31.505   7.231   3.848
12817W        W81035  15.959   5.241   1.402
12818W        W81036  26.687  30.426  11.149
12819W        W81037  15.311  34.029  12.916
12820W        W81038  25.569  42.213   1.218
12821W        W81039  37.586  19.104   0.485
12822W        W81040  12.143  34.389  12.741
12823W        W81041  19.480  33.776  12.021
12824W        W81042  29.390   1.940  10.258
12825W        W81043   6.402  32.991  12.634
12826W        W81044  20.106  20.989  10.198
12827W        W81045  22.559  14.074   2.026
12828W        W81046  24.563  23.305   0.376
12829W        W81047  25.602  43.684   4.177
12830W        W81048  16.476  28.673  13.036
12831W        W81049   6.041   0.861   3.730
12832W        W81050  39.144   1.469  10.561
12833W        W81051  11.211   2.951   4.213
12834W        W81052  27.934   6.426   1.307
12835W        W81053  10.705  26.073   2.405
12836W        W81054  15.464  33.550  13.116
12837W        W81055  22.794   3.038   4.097
12838W        W81056  10.822   5.462  14.901
12839W        W81057  13.597  19.718   0.043
12840W        W81058   8.477   8.217  10.753
12841W        W81059  32.048  31.584   2.214
12842W        W81060   3.760   9.831  11.376
12843W        W81061  36.399  30.678   3.684
12844W        W81062   5.104  42.369  13.509
12845W        W81063   3.489  41.445   1.307
12846W        W81064  39.072  12.873   1.779
12847W        W81065  42.022  40.997   1.969
12848W        W81066  13.125  16.002   4.747
12849W        W81067  18.520  42.429  12.318
12850W        W81068  23.501  41.001  13.308
12851W        W81069  17.134  38.642  14.050
12852W        W81070  24.033  15.798  14.194
12853W        W81071  38.379  40.115   1.306
12854W        W81072  38.771  14.345   0.928
12855W        W81073  25.607  42.693   4.953
12856W        W81074  33.684  26.474   3.598
12857W        W81075  35.939  12.695   0.916
12858W        W81076  38.165  22.319  11.543
12859W        W81077   3.579  24.070   4.063
12860W        W81078   1.287  36.868   0.536
12861W        W81079  15.293  13.928  10.216
12862W        W81080  41.402  32.088  11.662
12863W        W81081  18.108  36.138  11.144
12864W        W81082  39.908  19.312  13.897
12865W        W81083  42.339  34.948   3.267
12866W        W81084  18.608  34.076   3.526
12867W        W81085  44.273  12.082   3.892
12868W        W81086  14.732  38.214  14.193
12869W        W81087   1.724  15.589   4.189
12870W        W81088  16.143  15.208  11.325
12871W        W81089  33.364  13.395   1.688
12872W        W81090  32.158  17.301  12.462
12873W        W81091  38.783   8.699   1.312
12874W        W81092  30.386  33.341  11.055
12875W        W81093   9.638  36.194  14.016
12876W        W81094  20.934  17.724  10.738
12877W        W81095  41.116  41.329  11.974
12878W        W81096   4.444  40.700   0.694
12879W        W81097  41.721   1.717  11.569
12880W        W81098   7.478  21.239  14.023
12881W        W81099   4.736  25.992  12.055
12882W        W81100  23.019  14.005  11.958
12883W        W81101  24.957  16.053   4.276
12884W        W81102  17.083   7.851  12.577
12885W        W81103   6.049  44.178   5.311
12886W        W81104  39.548  43.708   3.826
12887W        W81105  41.362  35.773  11.934
12888W        W81106   1.274  34.616   1.860
12889W        W81107  23.133  26.892  12.874
12890W        W81108   6.789   6.134   2.823
12891W        W81109   0.338   7.365   0.716
12892W        W81110   7.336  17.176  13.921
12893W        W81111   5.938   7.172   3.538
12894W        W81112   6.602  21.819   0.425
12895W        W81113   8.267  37.952   0.244
12896W        W81114  27.952  32.491   2.350
12897W        W81115  27.917  25.181  11.907
12898W        W81116   8.874  25.700  12.612
12899W        W81117  24.715  34.085  14.930
12900W        W81118   0.904  12.080   0.901
12901W        W81119  30.172  17.724  13.008
12902W        W81120  26.903  31.016  13.455
12903W        W81121  37.299  13.427   2.263
12904W        W81122  25.914  27.595   0.843
12905W        W81123  39.401  10.207  12.539
12906W        W81124   4.888  35.276   1.643
12907W        W81125   7.144   6.379   3.653
12908W        W81126  14.400  31.405   0.745
12909W        W81127  35.235  19.044   1.523
12910W        W81128  23.645  13.317   2.878
12911W        W81129  23.486  29.473  13.620
12912W        W81130  20.938   3.806  12.545
12913W        W81131  37.025  44.968   0.594
12914W        W81132  37.898  41.839   3.365
12915W        W81133   1.702  19.219  13.854
12916W        W81134   3.880  23.225   4.983
12917W        W81135  33.341   5.771   4.748
12918W        W81136  20.277  27.277  14.517
12919W        W81137  10.669   5.516  14.355
12920W        W81138   1.377  43.637  12.227
12921W        W81139  19.663  42.772   4.561
12922W        W81140  35.955  14.304  12.878
12923W        W81141  31.564  39.115   2.752
12924W        W81142  43.550  28.078  13.052
12925W        W81143  21.483  11.271   0.870
12926W        W81144   9.263  36.507  12.026
12927W        W81145  39.073  35.458   1.283
12928W        W81146  27.098  37.656  14.981
12929W        W81147  20.632  37.317   5.269
12930W        W81148  32.540  36.254  14.342
12931W        W81149  14.826   1.865   0.910
12932W        W81150  40.043  11.620   3.648
12933W        W81151  36.318   9.275  13.569
12934W        W81152  29.653  28.011  14.345
12935W        W81153  18.663  42.060   4.595
12936W        W81154  15.623   1.294  10.258
12937W        W81155  11.235  28.286  14.356
12938W        W81156   7.812  12.351   2.900
12939W        W81157  11.380  13.425  14.731
12940W        W81158  17.637   6.772   0.755
12941W        W81159  38.784  44.937   4.426
12942W        W81160   8.506  14.856  11.689
12943W        W81161  30.681  18.167   1.147
12944W        W81162   1.741  29.367   2.387
12945W        W81163  28.959  31.498   2.303
12946W        W81164  37.814  23.213  14.326
12947W        W81165  17.206   6.790  11.449
12948W        W81166  11.114  20.697  12.539
12949W        W81167  29.486  12.124  12.587
12950W        W81168  22.999  17.786  10.633
12951W        W81169  32.324   5.178   1.384
12952W        W81170  35.781  38.912   1.455
12953W        W81171  15.310  21.296  14.712
12954W        W81172  24.522  13.694   4.430
12955W        W81173  27.004   0.339  11.588
12956W        W81174  39.788   3.792   0.735
12957W        W81175  26.760  44.797  13.871
12958W        W81176   9.751   7.891   1.328
12959W        W81177  29.695  29.030  10.783
12960W        W81178  31.663   9.756   3.408
12961W        W81179  40.050  27.477   0.379
12962W        W81180   9.539   8.286  14.843
12963W        W81181  28.063  32.136  10.516
12964W        W81182  33.922  42.583  13.817
12965W        W81183  14.741  10.298   3.560
12966W        W81184  34.348  30.860   1.996
12967W        W81185  23.139   2.685   2.166
12968W        W81186  10.744  13.083   2.702
12969W        W81187  28.108  26.788   4.367
12970W        W81188   8.683  19.747   4.904
12971W        W81189  22.620  30.131  14.394
12972W        W81190  40.304  12.101  11.492
12973W        W81191  22.457   9.865  13.382
12974W        W81192  10.049  27.437  14.957
12975W        W81193  19.490   3.876  10.527
12976W        W81194   7.843  12.221  10.783
12977W        W81195  19.147  39.908   1.203
12978W        W81196  32.608   7.528   1.120
12979W        W81197  26.931  18.153  12.558
12980W        W81198  37.593  29.981   3.861
12981W        W81199  44.785  27.147   3.168
12982W        W81200  10.361  16.298   2.695
12983W        W81201  28.085  13.669  13.770
12984W        W81202  39.908  44.611   3.780
12985W        W81203  39.845  22.096  14.234
12986W        W81204  26.152  37.010   2.426
12987W        W81205  33.817  32.830   2.342
12988W        W81206  16.653  35.562  14.312
12989W        W81207  38.649  38.793  11.191
12990W        W81208  30.116  14.652   1.727
12991W        W81209  34.359  23.025   3.211
12992W        W81210  31.995  22.801   2.596
12993W        W81211  32.927   0.302  11.507
12994W        W81212  40.507   8.923  13.081
12995W        W81213  19.082   5.646  10.693
12996W        W81214   7.100   1.716  12.442
12997W        W81215  31.480  18.357  11.785
12998W        W81216  19.795  35.056  11.585
12999W        W81217  12.126  43.927   9.990
13000W        W81218  39.153  19.396   2.438
13001W        W81219   2.747  16.228   0.007
13002W        W81220  12.711  25.335   2.850
13003W        W81221   7.659  31.459  12.524
13004W        W81222   1.313   4.471  14.190
13005W        W81223  24.722  34.928   2.113
13006W        W81224  20.819  35.292   2.293
13007W        W81225  42.988  21.280   4.510
13008W        W81226  30.643  16.744   3.094
13009W        W81227  38.005  10.778  13.328
13010W        W81228  23.330  34.086  10.256
13011W        W81229  28.427  24.915  12.133
13012W        W81230  39.050  18.722  10.645
13013W        W81231  15.135  13.465   4.015
13014W        W81232  41.003  40.043  13.538
13015W        W81233  10.690   2.705   3.597
13016W        W81234  19.532  11.705   0.819
13017W        W81235  43.950   2.901  12.808
13018W        W81236  11.685  24.479  11.908
13019W        W81237  41.039   3.459   1.705
13020W        W81238  31.125  19.734   3.283
13021W        W81239  15.825  28.243  14.948
13022W        W81240  17.687  19.295   4.589
13023W        W81241  38.946  12.820   2.716
13024W        W81242  43.366   2.039   1.331
13025W        W81243  32.932  27.653  14.739
13026W        W81244  37.392  21.570  13.923
13027W        W81245  35.884  36.666   1.827
13028W        W81246  24.098  35.643   1.218
13029W        W81247  14.422  17.344   2.175
13030W        W81248   7.875  27.460   1.788
13031W        W81249  36.207  34.385  11.565
13032W        W81250  21.976  25.069  13.459
13033W        W81251  17.193  28.483   3.059
13034W        W81252  11.849  14.046   1.423
13035W        W81253  37.405  19.335  12.947
13036W        W81254  17.183  36.790   0.400
13037W        W81255  23.499  16.545  13.555
13038W        W81256  39.719  38.316   2.205
13039W        W81257  16.636   6.521   3.110
13040W        W81258  37.615  43.467   3.621
13041W        W81259  31.115  37.795   1.976
13042W        W81260  22.017   2.948  14.269
13043W        W81261   3.001  22.259  10.881
13044W        W81262  33.430   0.290  12.442
13045W        W81263  17.099  23.003  13.432
13046W        W81264  29.104  42.768  10.691
13047W        W81265  25.969  44.341  10.173
13048W        W81266  22.512  17.413   4.123
13049W        W81267   4.437  31.451  13.932
13050W        W81268   0.407   2.272   3.329
13051W        W81269  14.148   7.202  14.293
13052W        W81270  28.189   5.472   2.735
13053W        W81271  12.706   0.872   4.105
13054W        W81272  33.541  37.286   5.058
13055W        W81273  36.888  41.482   1.126
13056W        W81274   3.417  19.310  12.432
13057W        W81275  18.407  26.427  14.481
13058W        W81276  30.177  35.513   4.918
13059W        W81277  34.453   5.085  14.857
13060W        W81278  35.037  32.923  11.551
13061W        W81279  30.260  24.943   2.331
13062W        W81280  11.913  28.494  12.305
13063W        W81281   5.774   0.508   2.955
13064W        W81282  30.688  41.610   0.468
13065W        W81283  44.365  19.081   4.451
13066W        W81284  14.765  10.597  13.898
13067W        W81285  36.377  32.837   3.311
13068W        W81286  13.045  25.711   0.330
13069W        W81287   3.162   8.299  12.539
13070W        W81288   1.373  34.865   0.255
13071W        W81289   1.192  29.581  11.048
13072W        W81290   6.924  22.183   3.274
13073W        W81291  35.552  33.365  13.337
13074W        W81292  12.354  34.367   2.680
13075W        W81293   7.601  24.157   0.208
13076W        W81294  36.289  13.640   0.605
13077W        W81295  21.535  38.362   4.870
13078W        W81296  22.752  17.531  14.025
13079W        W81297  18.338   9.646  14.689
13080W        W81298   6.650  20.227  11.100
13081W        W81299   3.679  27.153  13.627
13082W        W81300   1.387  35.103   4.070
13083W        W81301  10.339  35.962  13.563
13084W        W81302  14.185  37.349  11.733
13085W        W81303  17.303  40.482   4.039
13086W        W81304  25.678  33.538   5.046
13087W        W81305  24.462   0.233  12.580
13088W        W81306  35.732  23.698   1.292
13089W        W81307  23.506  29.937   0.006
13090W        W81308  40.024  10.774  14.910
13091W        W81309  32.944  21.690   0.931
13092W        W81310  14.311  21.591  11.152
13093W        W81311   8.314  33.819  13.031
13094W        W81312  31.817   6.784  14.357
13095W        W81313   7.417  22.464   4.246
13096W        W81314   4.302  38.554   4.541
13097W        W81315  36.077  18.556  14.575
13098W        W81316   6.799   6.496  14.850
13099W        W81317  23.626   5.471   4.555
13100W        W81318   7.881   8.106  11.094
13101W        W81319  24.210  19.216   4.123
13102W        W81320  44.148  25.686   3.130
13103W        W81321  28.412  40.059   1.908
13104W        W81322  26.439  39.493  14.008
13105W        W81323   1.754  31.345  10.609
13106W        W81324  33.982  21.964   2.248
13107W        W81325  30.363  34.623  14.470
13108W        W81326   3.296  29.182  12.085
13109W        W81327  33.503  42.167  11.611
13110W        W81328  37.860  30.408  13.864
13111W        W81329  14.157   4.811   2.268
13112W        W81330   6.243  19.389  10.259
13113W        W81331   6.331  17.073  14.810
13114W        W81332  10.268  44.934   3.648
13115W        W81333  33.169   2.015   1.357
13116W        W81334  20.038  42.266   1.232
13117W        W81335   0.032   5.987   3.195
13118W        W81336  10.256   1.269  13.441
13119W        W81337  11.710  26.606   4.656
13120W        W81338  26.580  36.850  10.672
13121W        W81339  33.434  13.977   3.855
13122W        W81340   8.790  42.906  11.506
13123W        W81341   6.549   0.310   0.041
13124W        W81342  41.067  44.750   2.810
13125W        W81343  35.052   8.418  10.595
13126W        W81344  18.160  16.833   0.436
13127W        W81345  19.770  19.784  12.099
13128W        W81346  38.545  42.580  13.325
13129W        W81347  27.190  38.915  11.951
13130W        W81348  30.428  38.282   3.714
13131W        W81349  33.530  37.220  10.280
13132W        W81350   1.866  24.951  14.792
13133W        W81351  34.977  43.385   3.257
13134W        W81352  19.743  30.513   4.643
13135W        W81353  27.390   3.731   0.845
13136W        W81354  44.274   4.939   3.228
13137W        W81355  17.060   7.238  10.631
13138W        W81356  29.135  28.525  11.997
13139W        W81357  42.936  30.876  12.001
13140W        W81358  13.137   7.034   5.036
13141W        W81359  31.482  44.481  12.155
13142W        W81360  12.333  17.722  11.636
13143W        W81361  43.507  17.184   4.483
13144W        W81362  33.367   3.269  13.392
13145W        W81363  23.350  35.356  10.573
13146W        W81364  38.658  15.808   3.775
13147W        W81365  39.645  28.321  13.866
13148W        W81366  29.104  15.359  12.003
13149W        W81367  21.113   6.354   1.234
13150W        W81368  18.158  10.314   2.187
13151W        W81369  33.330  43.797   0.379
13152W        W81370  23.096  27.898  14.483
13153W        W81371  16.208  20.625  13.358
13154W        W81372  13.328   8.404  11.098
13155W        W81373  22.520   4.706   1.369
13156W        W81374  22.940  28.481   3.929
13157W        W81375   5.749  40.760  13.533
13158W        W81376  43.547  36.144   3.081
13159W        W81377  36.005  26.003   4.444
13160W        W81378   3.825  34.567  10.605
13161W        W81379  25.887  30.365  11.556
13162W        W81380   0.750  21.177   3.544
13163W        W81381  33.409  32.068  10.702
13164W        W81382  39.768  25.094  12.636
13165W        W81383  38.606  16.262  13.066
13166W        W81384  21.142  35.521   0.664
13167W        W81385  30.962   7.244  10.315
13168W        W81386  31.541   1.731   1.878
13169W        W81387   5.311  10.050   2.848
13170W        W81388  15.096  42.868   2.848
13171W        W81389  43.319  40.340  11.838
13172W        W81390   3.292  21.519  11.209
13173W        W81391  43.264  40.309  11.024
13174W        W81392  21.145  18.614   2.830
13175W        W81393   6.223  10.798  14.934
13176W        W81394  32.066  29.753  11.854
13177W        W81395  42.065  15.717  10.687
13178W        W81396  34.042  29.314   1.279
13179W        W81397  43.379  39.036  10.499
13180W        W81398   4.360  42.400  11.601
13181W        W81399  25.147   5.296   4.852
13182W        W81400   4.309  37.494   1.404
13183W        W81401  31.605   5.022  14.399
13184W        W81402  29.120   1.806   0.149
13185W        W81403  34.014  16.667  14.735
13186W        W81404   5.194  25.978   1.184
13187W        W81405   7.581  14.334   4.974
13188W        W81406  22.245   5.148   3.768
13189W        W81407  43.397  16.598  13.297
13190W        W81408  25.797  44.211   3.387
13191W        W81409  34.389  10.542   1.339
13192W        W81410  19.300   7.672   1.744
13193W        W81411  21.048  30.185  14.286
13194W        W81412  19.174  20.045  13.572
13195W        W81413   6.396  21.298  13.019
13196W        W81414  41.706  17.583  14.816
13197W        W81415  42.969   1.728   1.448
13198W        W81416  24.970   9.429   0.357
13199W        W81417  16.351  26.517   1.889
13200W        W81418  22.960  26.060  13.496
13201W        W81419  20.836  10.592  11.011
13202W        W81420  14.204  41.758   9.856
13203W        W81421  16.306  25.441  13.912
13204W        W81422  21.509  10.124  13.067
13205W        W81423  31.606   7.453   1.879
13206W        W81424  10.383  28.028  11.121
13207W        W81425  24.148  17.375   5.022
13208W        W81426   2.412  25.465  13.551
13209W        W81427  13.425  17.959  11.132
13210W        W81428  20.667  18.155   0.348
13211W        W81429  42.066   2.710  13.486
13212W        W81430  20.723  19.759  14.072
13213W        W81431   0.769  35.497  14.519
13214W        W81432   9.251  29.445  12.910
13215W        W81433  29.802  30.278   9.716
13216W        W81434  35.891  41.302   4.110
13217W        W81435  24.251   6.670  11.457
13218W        W81436  32.232  15.249  13.510
13219W        W81437  22.357  21.073  14.324
13220W        W81438  34.503  23.124  12.998
13221W        W81439  16.193  28.645  14.901
13222W        W81440  10.621  37.801   3.291
13223W        W81441  28.207  10.979   3.820
13224W        W81442  43.295  40.757   0.828
13225W        W81443  25.391  10.151  13.526
13226W        W81444  21.413  17.239   2.728
13227W        W81445  26.653  27.967   0.489
13228W        W81446   6.683   8.181   2.234
13229W        W81447  11.787  36.023   1.404
13230W        W81448   6.290  18.902   0.382
13231W        W81449  14.032   1.247   1.420
13232W        W81450   5.303  35.621   0.793
13233W        W81451  38.479  43.446  12.874
13234W        W81452  28.127   7.715  13.676
13235W        W81453  37.556  21.930   3.672
13236W        W81454  12.672  15.247  13.062
13237W        W81455  17.520   1.490   2.795
13238W        W81456  36.999  13.126  14.557
13239W        W81457   5.176  43.539  14.781
13240W        W81458  26.171  44.430  14.285
13241W        W81459   9.837  17.660  10.316
13242W        W81460  15.691  39.523   2.173
13243W        W81461  32.356   8.468  12.075
13244W        W81462   6.301  25.974   4.765
13245W        W81463  12.190  10.711  14.398
13246W        W81464  39.853   1.852   1.495
13247W        W81465  31.603  16.706   3.641
13248W        W81466  44.380  23.216   3.207
13249W        W81467   9.229  18.443   1.930
13250W        W81468  27.053  34.548   3.650
13251W        W81469   2.719   6.064  11.692
13252W        W81470   9.882  36.855   2.876
13253W        W81471  34.511  34.917   4.019
13254W        W81472   1.525  38.774  11.997
13255W        W81473  15.249  28.439  14.863
13256W        W81474   0.075   9.893  10.987
13257W        W81475  25.086  14.992   3.461
13258W        W81476  10.240   6.498   0.340
13259W        W81477   1.171  30.999  11.745
13260W        W81478  20.652   8.390  10.637
13261W        W81479  34.181   4.060  14.603
13262W        W81480   8.914  23.495   2.845
13263W        W81481  44.471  28.247   4.224
13264W        W81482   7.736   7.618   4.301
13265W        W81483  44.342  38.009  13.229
13266W        W81484   4.397  26.976  11.510
13267W        W81485   3.956   0.763   1.317
13268W        W81486  26.226  36.071  10.639
13269W        W81487  34.346   5.776   0.916
13270W        W81488  35.010   7.897  10.516
13271W        W81489  33.595  14.817  14.675
13272W        W81490  36.275  27.199   1.920
13273W        W81491  27.643   8.136  12.482
13274W        W81492  28.106  20.808  14.102
13275W        W81493   3.722   5.350   2.277
13276W        W81494  17.125  33.371  14.395
13277W        W81495  22.864   9.232   1.327
13278W        W81496   8.283  34.542  14.563
13279W        W81497   7.302  41.843   3.887
13280W        W81498  12.730  22.963   3.236
13281W        W81499   8.414  29.025  11.632
13282W        W81500  12.577  30.366   4.669
13283W        W81501  22.956  38.474   4.631
13284W        W81502  24.201  34.702   0.387
13285W        W81503  39.445   5.963  14.819
13286W        W81504  30.796  35.152   1.360
13287W        W81505  12.143  43.023  12.459
13288W        W81506  43.185  18.246   4.728
13289W        W81507  32.074  18.749   2.206
13290W        W81508  15.776  33.857  11.032
13291W        W81509   4.924  14.732  13.714
13292W        W81510  40.989  11.266   4.698
13293W        W81511   9.400  30.143   1.802
13294W        W81512   6.948  18.974  13.688
13295W        W81513   6.838  22.937  11.615
13296W        W81514  20.193  42.273  12.908
13297W        W81515  27.156  35.041  13.186
13298W        W81516  30.057   6.621  13.801
13299W        W81517  25.760   4.862  14.314
13300W        W81518   8.905  42.040  11.963
13301W        W81519  31.465   3.947  14.291
13302W        W81520   7.194  43.810  13.620
13303W        W81521  36.092  15.282   2.351
13304W        W81522  30.897   0.735  10.184
13305W        W81523  15.298  29.983   4.169
13306W        W81524  32.040  20.108   3.805
13307W        W81525  10.562  39.292  11.462
13308W        W81526  10.186  19.738   4.600
13309W        W81527  38.256  24.508   0.303
13310W        W81528   5.560  37.470  11.471
13311W        W81529  14.258  34.169  14.784
13312W        W81530   4.721  39.490   2.768
13313W        W81531  32.610  25.427   5.171
13314W        W81532  33.999   5.600  12.031
13315W        W81533  25.054  19.531  12.089
13316W        W81534  28.104  43.368   1.731
13317W        W81535  43.649  10.846  12.553
13318W        W81536   9.630  16.300  11.108
13319W        W81537   5.620  16.020  14.409
13320W        W81538  36.497  12.544  13.994
13321W        W81539  24.558  21.594  10.505
13322W        W81540  40.377  43.213  10.756
13323W        W81541  19.440  43.846  14.900
13324W        W81542  44.036  40.344  14.717
13325W        W81543   0.297  29.573  13.456
13326W        W81544  22.769  28.742  14.718
13327W        W81545  44.900   3.215  12.355
13328W        W81546  33.188  19.964   0.012
13329W        W81547   0.361  38.468   1.936
13330W        W81548  38.512  31.205  12.979
13331W        W81549  21.499  19.526  14.382
13332W        W81550  15.599  34.421  13.618
13333W        W81551   7.882   2.490   0.729
13334W        W81552  28.471  19.055   2.823
13335W        W81553  34.393  30.905   0.246
13336W        W81554  26.198  36.022   4.315
13337W        W81555  35.801  22.963   4.086
13338W        W81556   7.402  32.887   1.674
13339W        W81557  14.765  25.817  10.985
13340W        W81558  44.520   6.323   1.244
13341W        W81559  23.228  35.264  14.299
13342W        W81560  17.514  14.092  13.915
13343W        W81561   9.267  44.927  12.117
13344W        W81562  14.854  40.910  10.505
13345W        W81563  24.030  30.437  12.136
13346W        W81564  39.429  33.881  12.110
13347W        W81565  37.662  34.008  13.355
13348W        W81566  29.482   1.643   2.313
13349W        W81567  34.428  15.271  14.030
13350W        W81568  36.285  14.571  11.460
13351W        W81569  10.195  26.571  11.591
13352W        W81570  25.906  28.827   1.909
13353W        W81571  39.858  19.993  11.419
13354W        W81572  15.723  30.190  14.492
13355W        W81573  19.689   9.400  13.593
13356W        W81574   5.333   7.848   2.301
13357W        W81575  31.531  10.753   2.480
13358W        W81576  29.009  36.640   0.178
13359W        W81577  40.996  22.803  11.207
13360W        W81578  41.414  20.164   0.231
13361W        W81579  14.284  30.953  10.368
13362W        W81580  20.294  38.331   2.785
13363W        W81581  29.548  41.384  13.650
13364W        W81582  20.213  29.038  13.873
13365W        W81583  43.078   6.627  12.266
13366W        W81584  29.064  37.621   3.775
13367W        W81585  27.554  27.845   0.895
13368W        W81586  24.128   2.145  11.597
13369W        W81587   6.847  30.199  11.567
13370W        W81588  17.732   7.752   0.887
13371W        W81589  38.341  27.986   1.169
13372W        W81590  28.639  15.227  11.804
13373W        W81591  32.505  44.398  11.680
13374W        W81592  25.642   1.282   0.902
13375W        W81593  11.881  37.753  14.335
13376W        W81594  29.020  19.171   2.764
13377W        W81595  15.119  33.881   3.267
13378W        W81596  36.824  28.954  13.948
13379W        W81597   2.361  23.669  11.902
13380W        W81598  18.674  37.179  10.591
13381W        W81599  22.247  16.071  10.657
13382W        W81600  29.886  14.964  13.520
13383W        W81601  17.793  37.084   1.248
13384W        W81602   1.061  40.854  11.166
13385W        W81603   5.931  10.138  12.450
13386W        W81604  34.497  20.636   0.149
13387W        W81605  15.216  42.164   4.345
13388W        W81606  40.842  23.328  12.086
13389W        W81607  40.107  15.734   3.508
13390W        W81608  12.339   0.938   2.269
13391W        W81609  31.246  14.846   0.393
13392W        W81610  41.823  14.090  12.294
13393W        W81611   9.023  32.175  14.110
13394W        W81612  23.820  11.633   1.823
13395W        W81613  36.131  28.485   2.247
13396W        W81614  24.411  34.418  11.890
13397W        W81615  13.749   0.577  11.983
13398W        W81616   3.229   0.528   3.185
13399W        W81617  36.762  22.544  13.520
13400W        W81618   2.259  36.004  11.689
13401W        W81619  18.611  40.601   2.306
13402W        W81620  28.037  31.430   4.600
13403W        W81621   0.181   2.264   0.209
13404W        W81622  25.506   0.975  14.257
13405W        W81623  21.147  43.087   3.866
13406W        W81624   8.813  12.923   1.986
13407W        W81625  16.204  43.026   4.107
13408W        W81626   7.728   5.353  12.684
13409W        W81627  23.558  36.477   1.446
13410W        W81628  41.847  25.646  10.571
13411W        W81629  26.003   2.905  11.123
13412W        W81630   8.606  31.334   0.732
13413W        W81631  30.309  36.846  13.082
13414W        W81632   6.155   1.767  14.954
13415W        W81633  18.376  25.299   3.274
13416W        W81634  39.418  26.148  14.458
13417W        W81635  40.471  20.696  11.274
13418W        W81636  29.204  20.687  13.116
13419W        W81637  30.193   6.838   2.680
13420W        W81638  17.834  18.776  12.873
13421W        W81639  22.321  10.360  10.453
13422W        W81640  22.273  21.189  13.412
13423W        W81641   4.350  22.423   0.172
13424W        W81642   2.429  28.378  13.256
13425W        W81643  41.384  23.215   3.309
13426W        W81644  13.884  18.576   2.814
13427W        W81645   7.444  32.864  13.376
13428W        W81646  12.917  15.182  13.518
13429W        W81647  40.090  19.580   3.288
13430W        W81648  30.376  41.294  12.767
13431W        W81649  43.885  23.107  13.698
13432W        W81650  41.862  38.003  10.848
13433W        W81651  40.386   5.545   1.268
13434W        W81652  14.165   7.515   0.782
13435W        W81653  21.005  40.959  12.911
13436W        W81654  11.667  29.563   0.946
13437W        W81655  19.172   4.757  10.892
13438W        W81656  19.344   7.454   0.913
13439W        W81657  14.285  22.252  11.759
13440W        W81658  31.526  12.918   2.431
13441W        W81659  31.076  35.967  11.652
13442W        W81660  19.641  25.115   3.870
13443W        W81661  31.685  33.573  10.651
13444W        W81662   8.373  11.489   4.245
13445W        W81663  12.881  36.946   2.197
13446W        W81664  18.778  33.064  10.306
13447W        W81665  42.868  14.252  14.118
13448W        W81666  23.985  19.632   1.332
13449W        W81667  30.319  32.629  14.430
13450W        W81668  37.776  24.081  11.682
13451W        W81669  36.024  44.373   4.807
13452W        W81670  42.477  25.286  11.889
13453W        W81671   4.626  33.558   0.067
13454W        W81672  14.139  12.370  11.258
13455W        W81673  39.986  41.976  10.644
13456W        W81674  26.486  14.571   1.274
13457W        W81675  13.978   1.941   3.052
13458W        W81676  38.362  25.216   0.372
13459W        W81677  38.517  14.581   2.668
13460W        W81678  20.668  27.544  11.984
13461W        W81679  42.236  12.200  11.557
13462W        W81680  25.354   6.178   2.134
13463W        W81681   9.347  13.344  11.077
13464W        W81682  21.106  42.846   2.249
13465W        W81683  36.539  18.295  10.768
13466W        W81684   6.713  29.219   2.853
13467W        W81685  42.895  31.017   1.654
13468W        W81686  30.136  35.855  10.734
13469W        W81687  17.293  18.523   1.037
13470W        W81688  14.875  23.557  13.619
13471W        W81689  35.052  37.019   4.389
13472W        W81690  15.350  43.983  11.826
13473W        W81691  25.011  11.920  11.052
13474W        W81692  42.855  28.958  13.814
13475W        W81693  23.618  19.724  14.640
13476W        W81694   0.141  37.145  13.803
13477W        W81695  27.932  12.814   4.968
13478W        W81696   7.563   4.057   3.267
13479W        W81697  11.637   8.364   9.993
13480W        W81698  19.688  27.987   3.651
13481W        W81699  15.742  12.349   2.375
13482W        W81700  28.567  20.619   0.473
13483W        W81701  29.651  13.230  12.985
13484W        W81702  37.482  29.499   4.589
13485W        W81703   3.319   8.373   3.652
13486W        W81704  31.008   4.022   0.442
13487W        W81705  17.418  21.565  11.666
13488W        W81706  15.828  30.729   1.440
13489W        W81707  26.495  19.764  11.724
13490W        W81708  43.484   0.644   1.715
13491W        W81709  10.067  33.363   1.442
13492W        W81710  31.590   0.725   3.322
13493W        W81711   8.473  24.986  13.464
13494W        W81712   1.022  42.231   3.452
13495W        W81713  27.931   2.991   0.278
13496W        W81714  24.236  27.076   0.447
13497W        W81715  26.271  19.824   4.367
13498W        W81716  21.216   4.914  11.505
13499W        W81717  22.057  12.911  11.944
13500W        W81718   1.653   6.275  13.588
13501W        W81719   8.340  12.429   4.439
13502W        W81720  34.934  32.588  12.446
13503W        W81721  11.742   2.901  11.895
13504W        W81722  29.172  31.016   4.185
13505W        W81723  13.734  32.605   1.218
13506W        W81724  19.599  17.892   3.812
13507W        W81725  21.187  19.538  11.932
13508W        W81726  22.966  11.327   4.699
13509W        W81727  44.019  17.626   1.311
13510W        W81728  33.978  34.287  12.522
13511W        W81729   9.580  26.895  14.335
13512W        W81730  31.631   6.745  13.014
13513W        W81731  21.302  13.592   0.876
13514W        W81732  17.665   4.262   1.258
13515W        W81733   4.863  35.535   3.112
13516W        W81734  13.621  41.572   4.652
13517W        W81735  36.664  14.782  14.630
13518W        W81736  41.560  42.869   4.081
13519W        W81737   9.714  44.861  11.799
13520W        W81738  20.967  35.146  14.303
13521W        W81739   2.732  25.168  11.553
13522W        W81740  44.920  33.550   1.190
13523W        W81741   1.104   3.273   4.217
13524W        W81742   1.922   6.866   4.744
13525W        W81743  14.556  14.045   0.302
13526W        W81744  16.347   8.566   3.029
13527W        W81745  41.020  19.323  12.562
13528W        W81746   7.683  40.040   2.714
13529W        W81747  10.638  27.153   0.928
13530W        W81748  10.244   2.808  11.433
13531W        W81749  17.604  32.856   4.166
13532W        W81750  17.833  22.542  11.183
13533W        W81751  23.134  35.520   1.736
13534W        W81752  10.539  10.750   3.699
13535W        W81753  10.332   0.113  14.831
13536W        W81754  30.579  43.969   4.438
13537W        W81755  19.133  26.110   0.836
13538W        W81756  10.638   0.212  12.569
13539W        W81757  12.233  32.868   0.885
13540W        W81758  36.949  10.201  12.181
13541W        W81759  29.130  28.154  13.568
13542W        W81760   4.771  35.756   1.524
13543W        W81761  12.387  43.902  12.105
13544W        W81762  26.223  42.813  12.571
13545W        W81763  42.691  43.798  13.009
13546W        W81764  35.106   5.843   3.241
13547W        W81765  19.775  15.662   4.233
13548W        W81766   5.853  37.714   2.602
13549W        W81767  39.443  30.089   4.129
13550W        W81768  20.349  22.279   2.151
13551W        W81769   0.762   1.529  13.515
13552W        W81770  39.720   6.284  11.609
13553W        W81771  35.570  41.785   4.093
13554W        W81772  43.442  14.514   4.925
13555W        W81773  17.562  41.362   4.712
13556W        W81774  27.434   9.338   2.166
13557W        W81775   5.587  34.324  10.571
13558W        W81776  17.758  30.717  12.989
13559W        W81777  10.213  25.113   3.892
13560W        W81778  43.123   7.398  10.648
13561W        W81779  15.184  16.073   0.322
13562W        W81780  39.340  30.351  13.834
13563W        W81781  30.881  43.247  12.620
13564W        W81782   6.924  39.934   9.984
13565W        W81783   3.429  28.869   2.681
13566W        W81784   1.589  37.979   2.090
13567W        W81785  28.372  17.414   5.471
13568W        W81786  24.927  34.284  11.889
13569W        W81787  26.475  25.045  11.088
13570W        W81788  38.285  29.641   0.278
13571W        W81789  30.459  11.564   3.312
13572W        W81790   5.296   6.186  13.511
13573W        W81791   9.836   8.551  12.484
13574W        W81792  16.569  32.151  13.059
13575W        W81793  23.783   0.302  14.512
13576W        W81794  12.495  15.282  14.923
13577W        W81795   2.821  30.420  11.621
13578W        W81796  32.479   4.593  12.441
13579W        W81797  15.570   9.377  12.500
13580W        W81798  23.514  13.222   0.776
13581W        W81799  17.648  35.321  11.183
13582W        W81800  33.327   8.790   2.185
13583W        W81801  29.662  19.975  11.651
13584W        W81802  38.824   8.615   3.621
13585W        W81803  38.589  33.583   1.412
13586W        W81804  20.033  20.964  11.707
13587W        W81805  35.857  35.997   4.047
13588W        W81806   6.506  38.847  11.030
13589W        W81807  37.741  20.944  13.879
13590W        W81808  12.786   0.773   3.228
13591W        W81809  19.540  27.348  12.649
13592W        W81810   0.931  44.800  10.985
13593W        W81811   3.566  21.458   3.954
13594W        W81812  17.312  31.533  12.132
13595W        W81813  14.203  16.112   2.562
13596W        W81814   6.337   9.830   1.195
13597W        W81815   2.439  28.013   3.808
13598W        W81816  18.432   7.819   4.673
13599W        W81817  22.275   3.798  10.691
13600W        W81818  29.573   8.845  11.209
13601W        W81819   0.838   7.326   0.182
13602W        W81820   9.237  39.074   0.713
13603W        W81821   2.648  25.714   1.987
13604W        W81822  38.118  15.609   0.551
13605W        W81823  23.160  33.893   0.184
13606W        W81824   0.851  44.701   3.065
13607W        W81825  25.755  20.062  12.047
13608W        W81826   6.421   1.902  11.803
13609W        W81827  26.663  24.524   2.881
13610W        W81828  25.871  42.999  14.744
13611W        W81829  11.103  31.142   0.289
13612W        W81830  18.612  19.044  13.072
13613W        W81831  16.045   7.675  14.388
13614W        W81832  12.869   3.093   2.769
13615W        W81833  41.448  18.845  10.883
13616W        W81834   8.642  42.593  13.597
13617W        W81835   5.663  35.999   0.773
13618W        W81836   9.949  35.444  12.430
13619W        W81837  27.059  32.037   0.247
13620W        W81838  28.177  39.089   1.489
13621W        W81839  12.607  36.068  14.907
13622W        W81840   3.475  14.737   2.308
13623W        W81841  23.652  20.453   3.183
13624W        W81842  29.904   5.530   4.997
13625W        W81843   2.486  40.456  13.386
13626W        W81844  30.103  13.205  11.154
13627W        W81845  15.581  42.327  10.665
13628W        W81846   5.365  29.491   0.444
13629W        W81847  12.874  15.073   0.277
13630W        W81848  32.982  40.541   1.769
13631W        W81849   2.857  11.689  10.869
13632W        W81850   3.938   5.142  12.397
13633W        W81851  17.072   2.048  13.979
13634W        W81852   2.308   4.937  14.024
13635W        W81853   1.018  11.372   1.468
13636W        W81854   6.161  18.569  12.000
13637W        W81855  15.408  15.185  14.154
13638W        W81856  17.823   8.327  12.906
13639W        W81857  27.907  13.950  12.259
13640W        W81858  11.045   9.580  12.536
13641W        W81859  41.889  16.208  14.084
13642W        W81860  17.015  18.234   2.288
13643W        W81861   9.610  36.140   1.346
13644W        W81862  25.047  14.836  13.990
13645W        W81863  22.520  30.009  13.267
13646W        W81864  40.232  37.512  14.666
13647W        W81865  28.494  29.893  12.568
13648W        W81866   1.709  14.568  14.411
13649W        W81867  25.249  37.824   4.501
13650W        W81868   6.370  10.339  11.930
13651W        W81869  43.231  42.828  10.303
13652W        W81870  26.166  24.702  13.890
13653W        W81871  14.979  17.090  11.964
13654W        W81872  29.502  16.185   0.207
13655W        W81873  14.693   2.152   5.160
13656W        W81874  12.312  30.545  14.526
13657W        W81875  10.744   5.788  12.488
13658W        W81876   0.404  20.616   2.931
13659W        W81877   0.958  44.365  12.202
13660W        W81878  44.817  10.320  14.913
13661W        W81879  12.871  11.092   0.021
13662W        W81880  19.127  34.285   0.904
13663W        W81881  30.178   8.645  11.741
13664W        W81882  32.006  26.429  13.465
13665W        W81883  15.189  23.744   4.183
13666W        W81884  31.916  35.605   2.159
13667W        W81885  42.727  12.135  14.648
13668W        W81886  32.721  24.425   1.254
13669W        W81887   4.471  39.455   3.231
13670W        W81888  32.123  36.619  11.206
13671W        W81889   2.743   1.416  11.114
13672W        W81890   0.245  24.690  11.103
13673W        W81891   3.810   9.471   0.201
13674W        W81892  19.125  30.104  14.473
13675W        W81893  25.566  32.441   3.198
13676W        W81894  30.124  23.557   3.595
13677W        W81895  13.079  12.304   1.515
13678W        W81896  14.236   7.356   0.294
13679W        W81897  39.521  20.958   0.527
13680W        W81898  19.750  25.466  14.471
13681W        W81899   6.780  34.606   2.554
13682W        W81900  44.517  17.267  12.634
13683W        W81901   9.673  35.437  12.875
13684W        W81902   1.492  40.601  11.367
13685W        W81903  18.574  18.014  11.565
13686W        W81904  24.454  34.885  12.368
13687W        W81905   8.784  31.093  12.167
13688W        W81906   4.961  16.262  12.059
13689W        W81907   4.277  41.911  11.404
13690W        W81908  29.539  32.726  13.364
13691W        W81909  43.377  44.541  12.927
13692W        W81910  34.530   9.780   0.745
13693W        W81911  12.049  10.631   1.051
13694W        W81912  27.728  12.415   2.765
13695W        W81913  27.273   7.438   4.227
13696W        W81914  39.006  44.664   4.836
13697W        W81915  23.173  15.763   0.222
13698W        W81916  37.080  26.347  11.059
13699W        W81917  18.705  33.809  12.935
13700W        W81918  21.713  18.712   1.632
13701W        W81919  12.494  25.926  13.060
13702W        W81920  40.562  12.008  12.890
13703W        W81921  19.071   3.284   5.002
13704W        W81922  37.883  15.301   1.630
13705W        W81923  26.468  31.043  11.672
13706W        W81924  11.412  39.523  11.077
13707W        W81925  26.417   3.287  14.308
13708W        W81926  36.170   3.331   1.210
13709W        W81927  33.801  42.000   4.479
13710W        W81928   0.681  33.056   1.389
13711W        W81929  43.869  40.780   1.986
13712W        W81930   2.762  31.370   3.672
13713W        W81931  38.229   4.392  13.911
13714W        W81932  35.046   9.903   0.729
13715W        W81933  19.670  37.246  12.050
13716W        W81934   8.260  13.964   4.664
13717W        W81935   3.940   5.831   2.303
13718W        W81936  32.369  29.931   4.930
13719W        W81937  38.333  44.464  13.500
13720W        W81938  28.128  11.788  11.275
13721W        W81939   4.823  19.693  10.696
13722W        W81940  16.608  34.658   4.087
13723W        W81941  37.074  17.013  14.296
13724W        W81942  34.154  31.433   3.200
13725W        W81943  12.401   4.899  13.342
13726W        W81944  23.372  39.032  13.260
13727W        W81945   9.710   7.691  10.886
13728W        W81946  15.294  12.893   2.171
13729W        W81947  12.014  14.252   2.308
13730W        W81948   1.854  14.742  12.664
13731W        W81949  12.097  12.993   0.357
13732W        W81950  13.365  13.926   5.114
13733W        W81951  38.775   7.776   1.388
13734W        W81952  22.143  17.961  11.212
13735W        W81953  24.987  16.671   2.236
13736W        W81954   8.464  11.316   0.869
13737W        W81955  19.414  14.577   3.330
13738W        W81956  33.232  40.609  10.884
13739W        W81957  12.072  26.129   1.773
13740W        W81958  34.135   9.504   2.292
13741W        W81959   5.403   3.662   0.508
13742W        W81960  27.223   2.756   1.835
13743W        W81961   9.775  16.139  13.339
13744W        W81962  30.469  11.742   2.071
13745W        W81963   5.696   0.420  13.743
13746W        W81964  43.920   1.345  14.291
13747W        W81965   7.168   3.417   1.740
13748W        W81966   6.728   1.533   4.738
13749W        W81967  25.609  20.057  13.775
13750W        W81968  30.162  22.922  11.157
13751W        W81969   8.947  43.569  13.507
13752W        W81970  27.715  20.166   4.171
13753W        W81971   7.775  30.613   4.542
13754W        W81972  10.942   3.240   2.452
13755W        W81973   4.934  34.345   2.641
13756W        W81974  14.406  42.008  14.907
13757W        W81975  36.157  30.385   2.318
13758W        W81976  17.204  34.692   0.275
13759W        W81977  19.096  14.849  13.888
13760W        W81978  27.694  42.545  13.836
13761W        W81979  37.015  28.497   1.959
13762W        W81980  36.063  18.208   1.897
13763W        W81981  15.336  30.587   1.402
13764W        W81982  27.183  11.895   4.640
13765W        W81983  24.639  34.036   1.662
13766W        W81984   1.337  16.746  10.538
13767W        W81985  24.133  19.773   2.764
13768W        W81986  41.771  19.229   4.186
13769W        W81987   5.934  17.790  14.844
13770W        W81988  43.542  23.030   1.781
13771W        W81989  38.514  17.560   0.164
13772W        W81990   7.785  28.592   4.934
13773W        W81991  21.695  39.161  13.753
13774W        W81992  24.616  30.647  10.925
13775W        W81993  24.133  33.660   0.528
13776W        W81994   5.351  39.554   4.794
13777W        W81995  31.122  24.503  10.815
13778W        W81996  26.544  29.937   3.146
13779W        W81997  42.587  42.857   0.915
13780W        W81998  33.772  17.610   0.804
13781W        W81999  19.178  36.883   4.520
13782W        W82000  19.713  38.179  14.546
13783W        W82001  14.704   8.298   4.418
13784W        W82002  13.885   5.645   0.906
13785W        W82003  27.674  15.652   3.955
13786W        W82004  16.309  43.857   3.287
13787W        W82005   8.271  20.615  10.647
13788W        W82006  21.787  12.228  14.919
13789W        W82007  20.983   9.831  14.814
13790W        W82008  22.127  32.029  10.735
13791W        W82009  23.559   4.742  14.027
13792W        W82010  35.562  42.730  12.248
13793W        W82011  20.587  39.558  10.657
13794W        W82012   1.242   4.198   1.631
13795W        W82013  13.349  40.826  14.302
13796W        W82014   8.203  33.656   0.880
13797W        W82015   2.432  34.818   4.577
13798W        W82016  23.132  19.304  10.892
13799W        W82017   9.829  43.525   1.373
13800W        W82018   4.648   5.934  14.058
13801W        W82019  23.647  42.297   3.807
13802W        W82020  37.540  24.119   0.949
13803W        W82021   3.678  20.757   3.261
13804W        W82022  12.367  32.806   1.808
13805W        W82023  20.571  41.314   2.259
13806W        W82024  16.587  44.787  12.132
13807W        W82025  41.960   5.176  10.730
13808W        W82026   6.752  41.405   1.467
13809W        W82027  20.458  17.682  10.381
13810W        W82028  23.927  15.767   4.550
13811W        W82029  12.273  19.964   0.406
13812W        W82030  44.076  31.022  12.469
13813W        W82031  28.235  30.392  13.844
13814W        W82032  17.987  14.559   2.858
13815W        W82033  43.355   5.621  14.068
13816W        W82034  21.851  23.854   4.075
13817W        W82035   4.146  31.660   2.318
13818W        W82036   0.608  28.009   4.717
13819W        W82037  34.484  37.969  12.761
13820W        W82038  43.570  26.527  14.802
13821W        W82039  29.122  29.290   4.270
13822W        W82040  10.330  23.689   1.016
13823W        W82041  23.724  44.550  13.948
13824W        W82042  15.777  42.072   4.200
13825W        W82043   5.133  19.669   1.755
13826W        W82044  11.793   5.917  12.942
13827W        W82045  37.631  38.545   1.314
13828W        W82046  32.542  31.118   4.244
13829W        W82047  32.385  37.856   0.778
13830W        W82048  16.559  26.628  11.955
13831W        W82049  15.088  18.961  13.513
13832W        W82050  25.465  26.623   0.791
13833W        W82051  38.437  27.876  10.542
13834W        W82052  41.107  33.889   2.277
13835W        W82053  44.334  32.667  14.989
13836W        W82054  43.083  10.548   4.048
13837W        W82055  39.083  20.950   1.217
13838W        W82056  33.001  20.754   3.001
13839W        W82057  35.861  16.813   2.813
13840W        W82058  29.102  10.291   0.333
13841W        W82059  23.796  29.402   2.426
13842W        W82060   8.735   2.440   2.050
13843W        W82061   6.206   4.428   1.728
13844W        W82062  17.268  14.285   2.143
13845W        W82063  29.961  15.788   2.766
13846W        W82064  37.009  43.413   1.764
13847W        W82065   1.256  19.995  13.874
13848W        W82066  11.918   7.901  12.020
13849W        W82067  33.675   8.195  12.067
13850W        W82068  23.142  42.484   1.581
13851W        W82069  30.817  39.299  12.372
13852W        W82070   2.915   6.448  11.391
13853W        W82071   7.948  39.875   2.304
13854W        W82072  21.758  11.162   0.252
13855W        W82073  12.175   4.430   1.664
13856W        W82074   1.809   5.651   3.122
13857W        W82075  10.917  24.106   2.243
13858W        W82076  20.031   9.895   4.595
13859W        W82077  39.795   2.736  13.458
13860W        W82078  33.089   7.264  14.491
13861W        W82079  43.714  28.230  11.434
13862W        W82080  33.000  18.727   0.339
13863W        W82081  31.956  36.364   4.147
13864W        W82082  20.144  17.680  14.034
13865W        W82083  38.059  10.184  14.496
13866W        W82084  39.977  24.701  14.061
13867W        W82085  36.898  38.717  11.838
13868W        W82086   5.971  37.968   3.449
13869W        W82087  37.990   0.236  12.108
13870W        W82088  36.941  36.537  12.488
13871W        W82089   9.618  28.206   2.175
13872W        W82090  37.477   5.951   0.356
13873W        W82091   3.669  10.340  11.518
13874W        W82092  11.682   6.245   0.392
13875W        W82093  38.333  21.978  11.163
13876W        W82094  34.930  19.356   5.107
13877W        W82095   2.189   7.706  12.102
13878W        W82096  10.863  21.613   2.647
13879W        W82097  43.238  10.005  11.581
13880W        W82098   8.582  16.495  14.343
13881W        W82099  18.294  30.028  14.841
13882W        W82100   2.449  13.165   4.143
13883W        W82101  11.866  10.455   3.401
13884W        W82102   3.376   9.250  11.991
13885W        W82103  40.025  11.633  12.891
13886W        W82104  19.821  22.691   1.379
13887W        W82105  30.564  25.687  14.753
13888W        W82106  38.297  37.068   2.326
13889W        W82107  42.097   3.873   4.257
13890W        W82108  23.922   5.749  14.572
13891W        W82109   2.140  25.919  13.824
13892W        W82110  27.720  11.667  11.558
13893W        W82111   0.952  33.564   2.034
13894W        W82112   1.971  36.892  13.482
13895W        W82113  43.739   7.213  11.381
13896W        W82114  17.017  26.573   4.598
13897W        W82115  33.392  32.075  13.983
13898W        W82116   1.792  19.297   0.764
13899W        W82117  28.627  32.904   1.352
13900W        W82118  17.154  28.195   4.282
13901W        W82119  42.257  23.149  14.416
13902W        W82120  12.896  43.469   1.902
13903W        W82121  21.246  14.182  12.628
13904W        W82122  33.821  11.631   1.792
13905W        W82123  17.819  27.501  12.107
13906W        W82124  21.727  27.507   2.156
13907W        W82125  28.024  21.528   2.192
13908W        W82126  25.921   8.900   0.369
13909W        W82127  44.240  11.159  13.790
13910W        W82128  20.948  43.390   0.656
13911W        W82129  37.432  16.626   0.983
13912W        W82130  44.752   8.014  12.109
13913W        W82131   4.675   5.873  11.648
13914W        W82132  19.055   8.732   1.746
13915W        W82133  16.672  38.289  11.844
13916W        W82134   4.184   1.816  10.569
13917W        W82135  36.964  11.362   3.327
13918W        W82136  41.010   1.771   4.144
13919W        W82137  33.091  18.287  12.511
13920W        W82138  38.616  37.713   2.129
13921W        W82139  18.584  35.919   0.346
13922W        W82140  15.247  14.587  12.044
13923W        W82141   9.877  11.323   4.372
13924W        W82142  18.869  35.801   1.417
13925W        W82143  24.040  15.273  11.414
13926W        W82144   6.758   1.384  12.621
13927W        W82145  11.349   6.321   1.452
13928W        W82146  14.329  30.143  11.445
13929W        W82147  36.287  23.740   3.300
13930W        W82148  34.362  13.266   3.220
13931W        W82149  43.905   9.228  12.625
13932W        W82150  26.311   2.763  13.050
13933W        W82151  13.692  39.972  11.082
13934W        W82152  41.559  16.000  12.565
13935W        W82153  42.308   0.223  14.957
13936W        W82154   7.317  18.002   2.702
13937W        W82155  20.013   6.487   2.307
13938W        W82156  27.989  24.931  11.024
13939W        W82157  27.578   7.225  10.955
13940W        W82158  12.620  17.647  10.910
13941W        W82159  29.390  13.192   1.358
13942W        W82160  12.486  27.387   2.830
13943W        W82161  22.047  14.743   1.105
13944W        W82162   5.754  34.965  11.789
13945W        W82163   8.194  27.946   1.442
13946W        W82164   8.238  26.656  10.897
13947W        W82165  40.295   3.703   1.716
13948W        W82166  10.202  31.150   4.604
13949W        W82167  32.562  42.554   3.323
13950W        W82168  24.015  10.574  12.494
13951W        W82169  35.575  12.357   0.708
13952W        W82170  13.186  19.805   3.698
13953W        W82171  37.406  33.114   4.292
13954W        W82172   0.764   0.267   0.476
13955W        W82173  25.939  20.092   3.504
13956W        W82174   7.402  33.633   3.247
13957W        W82175  43.286  36.589  14.897
13958W        W82176  26.971  41.840  13.890
13959W        W82177  33.091  26.661  14.402
13960W        W82178  11.796  35.774  14.421
13961W        W82179  38.397   0.823  14.176
13962W        W82180  33.141  16.201   0.394
13963W        W82181  11.723  36.002  11.600
13964W        W82182  10.818   0.281   0.671
13965W        W82183  38.482   5.749   1.822
13966W        W82184  34.543  25.179   0.281
13967W        W82185  34.980  29.041   0.335
13968W        W82186  22.600  29.027  13.475
13969W        W82187  29.005  26.594   3.898
13970W        W82188  40.372  23.980  11.655
13971W        W82189  17.808  35.135   0.084
13972W        W82190   1.019  15.672   3.211
13973W        W82191   9.798  27.149  10.657
13974W        W82192  28.054  36.512  11.225
13975W        W82193  22.008  26.348  14.353
13976W        W82194  25.520  33.697  13.403
13977W        W82195  38.932  28.362   0.490
13978W        W82196  18.158  43.004   1.228
13979W        W82197  21.573  18.736  13.937
13980W        W82198  41.956  19.674  11.052
13981W        W82199  21.685  22.256  13.991
13982W        W82200  36.605  25.938  11.979
13983W        W82201  27.570  34.415  11.968
13984W        W82202  16.723  43.982  11.528
13985W        W82203   0.042   1.446  12.959
13986W        W82204  20.023   0.294  12.474
13987W        W82205  23.279  21.089  10.664
13988W        W82206  25.187   8.751   0.774
13989W        W82207  20.117   0.323   0.982
13990W        W82208  39.046  36.150  14.835
13991W        W82209  27.135   8.767   0.857
13992W        W82210  13.341  23.574   3.719
13993W        W82211  43.698   5.685   0.918
13994W        W82212   8.913  32.059   4.303
13995W        W82213   9.669  33.560   1.138
13996W        W82214  19.365   3.701   4.873
13997W        W82215   0.306  20.679   1.920
13998W        W82216  14.736  31.016  10.613
13999W        W82217  27.240  25.614   4.591
14000W        W82218   6.955   4.014  12.187
14001W        W82219  17.583  30.190   1.582
14002W        W82220   7.795  44.903  10.416
14003W        W82221  30.329  31.562  13.407
14004W        W82222  40.441  12.315  13.882
14005W        W82223  29.603  40.299   4.922
14006W        W82224   8.100  16.569  14.891
14007W        W82225  42.351  35.569   4.130
14008W        W82226   3.716  39.879  13.344
14009W        W82227  43.472   8.815   4.135
14010W        W82228   9.714  34.064   1.302
14011W        W82229  32.469  24.468   2.679
14012W        W82230  33.269   9.907  11.838
14013W        W82231  35.963  40.270   4.174
14014W        W82232  24.463  33.581   5.036
14015W        W82233   4.969  36.457  14.778
14016W        W82234  21.436   4.834  10.313
14017W        W82235   1.756  23.151   1.200
14018W        W82236  12.410  38.838  14.741
14019W        W82237  38.530   7.008  13.578
14020W        W82238  36.093   7.435   3.942
14021W        W82239  12.672  30.353   2.972
14022W        W82240   9.718   8.178  12.894
14023W        W82241  10.187  17.084  14.591
14024W        W82242  38.000   6.636   3.233
14025W        W82243   8.106  20.018   0.954
14026W        W82244   2.804  24.263   0.753
14027W        W82245  39.315  25.540   0.336
14028W        W82246   4.715  40.425  14.250
14029W        W82247   9.286  28.398  12.124
14030W        W82248  39.381   8.473  13.477
14031W        W82249  30.278   2.956  11.428
14032W        W82250  15.524  26.407  14.438
14033W        W82251  32.983  18.775  13.789
14034W        W82252  29.988  32.805   4.118
14035W        W82253  12.178  12.217   1.456
14036W        W82254   1.494  32.866  10.643
14037W        W82255  40.033  35.253  14.893
14038W        W82256  20.751  22.556  14.426
14039W        W82257  39.575  29.557  14.767
14040W        W82258  31.434  17.355  12.006
14041W        W82259  10.590  37.158  12.711
14042W        W82260  13.309  33.847  14.804
14043W        W82261  13.061  13.005  11.597
14044W        W82262  20.166  18.155  12.088
14045W        W82263   0.964  29.203  12.018
14046W        W82264   4.354  14.590   0.697
14047W        W82265  34.308  20.619  13.293
14048W        W82266   6.655   7.629  12.455
14049W        W82267  17.058   4.800  12.959
14050W        W82268  25.514  34.876   4.488
14051W        W82269  12.390   2.385  12.545
14052W        W82270   3.255  19.546  10.985
14053W        W82271  22.369  22.781  10.694
14054W        W82272  25.272  42.960   2.326
14055W        W82273  42.410  20.701   2.653
14056W        W82274  37.322  23.742   1.905
14057W        W82275   4.146  23.690  11.108
14058W        W82276  12.161  36.085  12.971
14059W        W82277  13.115  19.298   2.907
14060W        W82278  37.238  28.536   3.468
14061W        W82279  10.747  31.640  11.199
14062W        W82280  39.442   6.958  14.957
14063W        W82281  36.541  24.006  12.458
14064W        W82282   9.846  38.319   1.813
14065W        W82283  13.107  40.031   1.660
14066W        W82284  26.645  13.766   1.743
14067W        W82285  12.184   8.630   2.752
14068W        W82286  20.472  28.132   2.136
14069W        W82287  37.919  31.101   0.467
14070W        W82288  15.326  17.515  12.019
14071W        W82289  13.631   5.495  13.470
14072W        W82290  44.713  16.716  13.177
14073W        W82291   6.267  33.647   1.005
14074W        W82292  36.035  42.547   1.858
14075W        W82293  36.879  16.310  10.613
14076W        W82294  16.068  35.457  13.359
14077W        W82295  11.783  10.778  11.065
14078W        W82296   0.868  17.560   2.195
14079W        W82297  41.823   0.295   0.877
14080W        W82298  12.130   6.199   2.652
14081W        W82299  44.941  39.567  14.975
14082W        W82300  27.837  39.423   2.384
14083W        W82301  26.385  40.471   4.692
14084W        W82302  24.119   8.913  14.926
14085W        W82303  30.386  20.703   2.698
14086W        W82304  31.852  42.024  11.591
14087W        W82305  40.469  37.522   0.508
14088W        W82306   2.784   2.478   0.589
14089W        W82307  31.403  13.187   1.983
14090W        W82308   4.750  34.484  12.079
14091W        W82309  11.752  28.606  13.203
14092W        W82310  13.187  40.540  14.971
14093W        W82311  38.055  13.591  10.754
14094W        W82312  43.188  31.669  13.460
14095W        W82313  18.982  20.780  12.393
14096W        W82314  41.307  28.455   1.840
14097W        W82315   0.368  31.706  13.467
14098W        W82316  31.497  40.427   0.258
14099W        W82317  28.750  28.946   2.526
14100W        W82318  31.386  24.659  14.307
14101W        W82319   6.312  22.726   0.443
14102W        W82320  41.963  42.948  14.539
14103W        W82321  40.239   9.466   1.935
14104W        W82322  34.607  35.988   1.680
14105W        W82323   0.909  32.249  11.064
14106W        W82324   4.274   7.934   2.504
14107W        W82325  29.522  16.919   3.045
14108W        W82326  29.544  22.687  10.566
14109W        W82327  37.776  40.330   4.119
14110W        W82328   2.862  35.004  13.229
14111W        W82329  44.503  15.771   3.219
14112W        W82330  10.946   1.189   4.651
14113W        W82331   1.165   2.295  11.179
14114W        W82332  16.612  35.935   3.830
14115W        W82333  14.814  42.280  11.204
14116W        W82334   6.559  25.789  14.541
14117W        W82335  23.828  44.581   4.083
14118W        W82336  29.653  28.135  11.633
14119W        W82337  13.249  10.814   2.185
14120W        W82338  19.299   0.571   0.470
14121W        W82339  28.891  20.577   0.902
14122W        W82340   1.944  40.750  11.157
14123W        W82341  42.244  18.108  13.151
14124W        W82342  29.856  37.688   2.175
14125W        W82343  28.041  26.026  14.573
14126W        W82344   5.047   7.101   2.815
14127W        W82345  21.760  28.783   4.671
14128W        W82346   4.619   2.073  12.986
14129W        W82347  43.055  25.326   3.853
14130W        W82348  15.752  24.946   4.807
14131W        W82349  38.931  20.937  13.457
14132W        W82350  18.277  22.002   3.687
14133W        W82351   1.439  19.613   1.754
14134W        W82352  15.349  22.748   1.250
14135W        W82353  33.081  14.653   2.232
14136W        W82354  43.356  12.702   0.657
14137W        W82355  21.689  17.812   4.574
14138W        W82356  31.911  41.322  10.447
14139W        W82357  20.689  42.895  13.302
14140W        W82358  43.017  28.511  14.945
14141W        W82359  25.724  26.076   0.078
14142W        W82360  26.597  29.451   0.692
14143W        W82361  23.081  25.038  10.733
14144W        W82362  33.010  30.030   3.623
14145W        W82363  27.581  14.083   3.221
14146W        W82364   7.780  41.643   1.673
14147W        W82365  21.870  44.234   0.845
14148W        W82366  43.221   8.639  12.576
14149W        W82367  27.976  17.735  12.932
14150W        W82368  36.604  11.163   1.229
14151W        W82369   7.280  38.951  12.104
14152W        W82370  43.416  37.628  11.922
14153W        W82371  35.061  16.189  13.968
14154W        W82372  38.998  10.188   3.641
14155W        W82373  21.016  25.247   1.715
14156W        W82374  29.751  18.339   2.671
14157W        W82375   5.838  13.699  11.067
14158W        W82376  13.582  30.190   1.920
14159W        W82377  38.328  13.212   4.188
14160W        W82378  26.414  39.924  14.892
14161W        W82379   3.281  28.165   2.388
14162W        W82380  14.663   4.388  14.354
14163W        W82381  16.179  44.839  13.599
14164W        W82382  44.553  35.602  12.881
14165W        W82383  20.210   8.596  13.336
14166W        W82384  13.343  24.830   1.279
14167W        W82385  40.986  20.999   3.711
14168W        W82386   9.062  25.552  10.620
14169W        W82387  15.368  43.497  11.629
14170W        W82388  20.479  40.861  13.783
14171W        W82389  28.910  32.878  12.810
14172W        W82390  11.376   5.392   3.416
14173W        W82391   5.215  14.514  13.319
14174W        W82392   2.422  38.642  12.939
14175W        W82393  24.158  41.746  12.735
14176W        W82394  34.436  32.997  14.778
14177W        W82395  40.877   3.193   1.294
14178W        W82396  12.076  34.472   4.107
14179W        W82397  34.876  37.485   4.580
14180W        W82398  40.357  18.262  13.077
14181W        W82399  16.350  15.508   3.392
14182W        W82400  27.671   1.918  13.883
14183W        W82401  27.127  21.071   9.884
14184W        W82402   6.709   7.010  14.790
14185W        W82403  10.772  39.970  13.928
14186W        W82404   2.883  39.462   1.208
14187W        W82405  12.395  42.814   0.015
14188W        W82406  26.196  22.612   0.670
14189W        W82407   7.841  44.378   9.949
14190W        W82408  25.448   0.370   4.027
14191W        W82409  31.111  37.675  14.680
14192W        W82410  11.327  33.084  13.923
14193W        W82411  18.247   8.355  11.382
14194W        W82412  35.811  17.958   2.313
14195W        W82413  23.427  14.851   2.714
14196W        W82414  27.134  35.659  10.317
14197W        W82415  30.891  32.039  12.836
14198W        W82416  15.960  22.712  12.138
14199W        W82417  19.063   2.838   2.817
14200W        W82418  43.044  19.285   4.525
14201W        W82419  33.179   6.665   2.353
14202W        W82420  39.748  18.255  12.385
14203W        W82421  32.081   0.322  13.920
14204W        W82422  13.375  42.148  11.986
14205W        W82423   2.938   6.051   1.470
14206W        W82424  17.680   7.019  12.519
14207W        W82425  43.857  12.726  11.866
14208W        W82426  15.571  15.912   2.336
14209W        W82427  33.465  35.020   2.346
14210W        W82428  21.417   3.719  11.096
14211W        W82429  17.771  15.283  11.217
14212W        W82430  41.864  32.850   4.223
14213W        W82431  14.401   6.869  13.393
14214W        W82432  20.448  43.442   0.544
14215W        W82433  29.816  28.179   4.191
14216W        W82434  36.011  10.356   4.563
14217W        W82435   9.327  32.235   0.006
14218W        W82436   1.461  18.168   4.332
14219W        W82437  40.946   4.767   4.658
14220W        W82438  24.920   3.746  11.717
14221W        W82439  15.548  31.402  10.799
14222W        W82440   8.044  19.721  10.198
14223W        W82441  32.423  15.365   0.215
14224W        W82442   2.509   1.527   3.647
14225W        W82443  17.513  35.932  10.299
14226W        W82444  42.361  20.345  14.778
14227W        W82445  17.050  13.696   0.952
14228W        W82446  14.684  11.098  13.938
14229W        W82447  44.904  11.421  11.004
14230W        W82448  33.844  27.574  12.079
14231W        W82449   5.460  43.521   3.773
14232W        W82450  39.917  24.690   3.995
14233W        W82451   3.473  20.064   1.832
14234W        W82452  31.158  42.434  11.172
14235W        W82453  22.707  36.829  11.359
14236W        W82454  26.312  34.983  14.448
14237W        W82455   1.224   4.926  12.663
14238W        W82456  27.991  38.068  11.468
14239W        W82457  23.145  38.574  14.788
14240W        W82458   8.067  18.661   3.206
14241W        W82459  36.121   8.604  14.800
14242W        W82460  39.204  26.275   3.289
14243W        W82461  26.154  43.088   1.218
14244W        W82462   9.813  38.884   4.826
14245W        W82463  32.434  24.508   4.362
14246W        W82464  43.207  13.789   1.337
14247W        W82465  10.359  17.592  12.884
14248W        W82466   1.295   6.396  14.325
14249W        W82467  39.792  12.299   3.712
14250W        W82468  35.344  17.784   0.851
14251W        W82469  29.805  14.447   1.369
14252W        W82470  42.790  13.275  11.497
14253W        W82471  23.969  20.444   0.310
14254W        W82472  21.316  37.991  11.963
14255W        W82473  33.407  20.624  10.522
14256W        W82474  14.876   4.333  12.089
14257W        W82475  24.616  32.177   4.711
14258W        W82476   9.346  25.613  12.382
14259W        W82477  38.485  44.257   0.965
14260W        W82478  20.597  32.518  13.945
14261W        W82479  36.122  29.493  11.590
14262W        W82480  25.394  28.607  14.273
14263W        W82481  33.024  30.171   1.674
14264W        W82482  26.649  27.897   1.010
14265W        W82483  38.444   0.483  12.123
14266W        W82484  24.043  43.082   1.393
14267W        W82485  23.717  27.057   2.896
14268W        W82486  32.675  13.740  11.942
14269W        W82487  11.254  13.159   3.153
14270W        W82488  38.040  40.398  14.512
14271W        W82489  23.202  10.055   2.752
14272W        W82490  31.350  24.187  11.544
14273W        W82491   7.636  43.236   1.758
14274W        W82492  38.495  35.530   4.539
14275W        W82493  36.904   9.854   2.208
14276W        W82494  37.202  44.683   1.024
14277W        W82495  41.808  18.942   0.951
14278W        W82496  42.982  33.972   0.246
14279W        W82497  41.112   4.152  14.892
14280W        W82498  44.415  15.729  12.649
14281W        W82499  35.505   9.240  14.124
14282W        W82500  43.953  26.391   0.144
14283W        W82501   9.952  43.778   2.716
14284W        W82502  28.129  37.485  11.444
14285W        W82503  36.556  22.720  11.308
14286W        W82504  11.386  32.233  14.396
14287W        W82505  16.244  37.240  14.790
14288W        W82506  17.726  19.657  14.827
14289W        W82507  41.313   5.430  11.148
14290W        W82508  18.390  14.663  11.076
14291W        W82509  28.012  14.588  11.624
14292W        W82510  38.467  40.055  11.685
14293W        W82511  44.884  25.055  13.887
14294W        W82512  38.907   4.909  11.806
14295W        W82513  34.464  11.350  14.629
14296W        W82514   3.201  14.134  13.996
14297W        W82515   9.054  10.892  11.941
14298W        W82516  24.737  37.483  10.425
14299W        W82517  40.819  20.242  11.542
14300W        W82518  30.510  35.532   4.539
14301W        W82519  12.469   4.559   0.519
14302W        W82520  33.082   9.644   0.238
14303W        W82521  11.746  32.834  13.531
14304W        W82522  25.022  34.633   2.867
14305W        W82523  13.197  33.079   2.738
14306W        W82524  29.172  19.301  14.978
14307W        W82525  25.322  12.192  12.895
14308W        W82526  19.857   1.814  12.259
14309W        W82527   8.709   7.138  11.565
14310W        W82528  21.923  41.853  14.670
14311W        W82529  27.626  33.082  11.968
14312W        W82530   1.843  35.416  10.851
14313W        W82531  33.129  36.493   2.351
14314W        W82532  29.237  37.190   2.433
14315W        W82533  10.183   8.662  14.357
14316W        W82534   2.501  29.998   0.982
14317W        W82535   0.406  26.920  12.963
14318W        W82536  16.229   2.394   4.639
14319W        W82537  20.715  23.784   4.939
14320W        W82538  22.497  21.572  10.536
14321W        W82539  16.624  36.151  13.360
14322W        W82540  27.025   5.060   2.721
14323W        W82541  16.533  40.978  13.857
14324W        W82542  26.783   0.233  14.173
14325W        W82543   5.350  18.332  12.054
14326W        W82544  39.828  33.347   4.094
14327W        W82545   3.331  23.026  13.980
14328W        W82546  17.377  36.094  13.053
14329W        W82547   8.433  14.517  12.058
14330W        W82548   3.331   1.705   2.686
14331W        W82549  16.746  12.415   0.351
14332W        W82550  11.687   8.585  13.875
14333W        W82551  23.135  43.016  13.484
14334W        W82552  23.763  43.075   5.181
14335W        W82553  19.192  29.024  13.687
14336W        W82554  30.988  24.450   0.198
14337W        W82555  22.124  11.204  14.308
14338W        W82556  21.742  19.022  11.196
14339W        W82557   5.351   9.115  13.504
14340W        W82558  20.209  10.142  13.531
14341W        W82559  43.842  26.446  11.663
14342W        W82560  31.640  17.135  13.554
14343W        W82561  31.579  32.720  14.090
14344W        W82562  22.409  17.010   4.995
14345W        W82563   4.999  15.262   4.232
14346W        W82564  12.717  37.543  14.264
14347W        W82565  26.155   1.445   0.903
14348W        W82566  32.775  23.744   0.783
14349W        W82567  24.157  15.247  10.926
14350W        W82568  21.653   4.885  12.879
14351W        W82569   1.596   2.994  11.831
14352W        W82570   3.235  17.035  13.584
14353W        W82571  32.438  24.942   4.619
14354W        W82572  10.992  36.950  11.087
14355W        W82573  31.992  32.312   0.767
14356W        W82574  23.035  16.245   3.625
14357W        W82575  33.509  44.179   4.484
14358W        W82576  17.211  22.480  11.617
14359W        W82577  42.750  13.260   1.701
14360W        W82578  26.582   3.271   2.178
14361W        W82579  37.765  25.459  12.608
14362W        W82580  11.070  10.232  11.008
14363W        W82581  17.149  34.099   2.346
14364W        W82582  13.135  34.411  10.651
14365W        W82583  39.364  15.518  10.643
14366W        W82584  25.493  10.824  14.944
14367W        W82585  17.907   7.730  14.284
14368W        W82586  19.728  33.657   1.738
14369W        W82587  17.265   0.435  12.944
14370W        W82588   8.910  29.964   1.840
14371W        W82589  31.600   0.579  11.074
14372W        W82590  23.276  34.092   1.713
14373W        W82591  18.573   4.570   0.468
14374W        W82592   5.453   6.156  10.654
14375W        W82593  22.652  38.139  13.305
14376W        W82594  28.883  43.309  14.390
14377W        W82595  26.948  33.370   0.212
14378W        W82596  32.001  14.145  12.303
14379W        W82597  37.310  24.496  12.456
14380W        W82598   2.688  34.826   5.037
14381W        W82599  43.518   5.923   1.347
14382W        W82600   5.405   8.814   0.266
14383W        W82601  30.647  22.584  12.973
14384W        W82602  41.410  23.168   2.324
14385W        W82603  40.358  15.888  13.786
14386W        W82604  37.672   0.539  12.639
14387W        W82605  25.333   3.780  13.894
14388W        W82606  14.988   8.494   2.725
14389W        W82607  24.349  41.419   3.018
14390W        W82608  14.420  38.658  13.316
14391W        W82609  23.748   5.773   1.415
14392W        W82610  15.502   5.599   4.604
14393W        W82611  39.941   3.626  13.838
14394W        W82612  11.649  22.738   1.736
14395W        W82613  21.098  18.592  14.187
14396W        W82614  32.409  20.614  13.493
14397W        W82615   9.138  18.754   1.517
14398W        W82616   9.225  31.970  10.229
14399W        W82617  30.092  36.695   1.393
14400W        W82618  37.608  26.225   3.825
14401W        W82619  29.252   0.407   4.618
14402W        W82620  25.740  21.647   0.518
14403W        W82621  44.658  17.575  13.035
14404W        W82622   1.112  23.689   0.820
14405W        W82623  20.257  12.301  10.167
14406W        W82624  42.778  30.089   3.633
14407W        W82625  27.524  39.112  13.253
14408W        W82626  12.821   2.941  11.193
14409W        W82627  28.370  19.510  14.027
14410W        W82628  11.734   1.462   1.176
14411W        W82629  33.337  21.543   4.617
14412W        W82630  18.581  30.061   3.878
14413W        W82631   3.279  16.787   2.403
14414W        W82632   3.942  34.294   2.670
14415W        W82633  42.548  21.568   0.302
14416W        W82634  31.172  32.775  13.308
14417W        W82635  42.295  21.712  11.949
14418W        W82636   9.259  31.928  11.752
14419W        W82637  34.091  38.971  13.001
14420W        W82638  18.306  34.959   0.219
14421W        W82639  28.392  23.497   2.191
14422W        W82640   9.790  11.509   3.278
14423W        W82641   1.795   2.007  12.037
14424W        W82642  30.494  12.624   4.459
14425W        W82643  22.018   6.497  13.370
14426W        W82644  30.931  28.882  14.981
14427W        W82645  17.087   0.384   1.188
14428W        W82646   1.437  40.171  10.675
14429W        W82647  42.997   1.516  13.260
14430W        W82648  28.395  44.876   2.282
14431W        W82649  20.510  10.132  11.001
14432W        W82650  12.921  20.478   2.313
14433W        W82651   8.188   0.029   2.979
14434W        W82652  34.143  12.368  14.932
14435W        W82653   2.452  43.258   0.049
14436W        W82654  42.494  13.656  11.816
14437W        W82655  38.839  17.694  13.360
14438W        W82656  18.333  21.620  13.300
14439W        W82657  20.011  22.259   3.936
14440W        W82658   2.850  30.652   3.653
14441W        W82659   7.482  37.026  13.482
14442W        W82660  33.026   2.222   0.529
14443W        W82661  15.764   4.321  12.317
14444W        W82662   2.278  32.393   5.118
14445W        W82663  11.784  17.636   4.987
14446W        W82664  18.732   0.684   1.947
14447W        W82665  11.609  24.648   0.329
14448W        W82666  43.572  25.186  11.043
14449W        W82667  31.824   5.466   4.094
14450W        W82668  21.320  37.557   4.042
14451W        W82669  34.738  22.678  14.026
14452W        W82670  13.163  29.697  10.758
14453W        W82671  39.781  12.574  14.641
14454W        W82672  26.688  21.012   1.844
14455W        W82673  12.559  19.407  12.088
14456W        W82674  22.683  16.910   4.144
14457W        W82675  38.405   3.992   4.466
14458W        W82676  24.102  33.540  12.311
14459W        W82677  32.782  35.874   1.419
14460W        W82678  27.018  18.321  11.685
14461W        W82679  31.686  15.581   4.147
14462W        W82680   2.509  36.786  12.407
14463W        W82681  29.665  26.161  10.564
14464W        W82682  31.468  34.965   4.190
14465W        W82683   7.734  24.394   3.687
14466W        W82684  37.087  15.079  12.774
14467W        W82685  18.574  24.512  13.141
14468W        W82686  34.464  10.170  13.520
14469W        W82687  43.010  43.743   4.231
14470W        W82688  19.187  27.705  11.619
14471W        W82689  15.755  24.910   4.254
14472W        W82690   5.426  16.402  11.498
14473W        W82691   9.244  13.374  12.936
14474W        W82692  12.692   3.293  12.097
14475W        W82693  29.795  13.020   2.779
14476W        W82694  17.795   3.566  13.050
14477W        W82695  20.987  29.528   0.687
14478W        W82696   3.013  27.190  11.478
14479W        W82697   4.099  42.514   0.924
14480W        W82698  28.371  39.540   1.758
14481W        W82699  40.784  43.654   3.484
14482W        W82700  11.104   6.213   2.833
14483W        W82701  32.361  27.440   1.081
14484W        W82702  35.821  11.413   4.159
14485W        W82703  22.109  17.677   2.706
14486W        W82704  23.744  11.344   4.185
14487W        W82705  16.841  20.747   0.812
14488W        W82706  14.283  22.482  11.299
14489W        W82707   0.766  18.292  14.265
14490W        W82708  32.989  31.553   4.026
14491W        W82709   0.017  15.726   3.157
14492W        W82710  44.740  18.745   0.818
14493W        W82711  21.741  39.833  14.364
14494W        W82712   9.636  42.921  12.612
14495W        W82713  18.258  35.996  13.874
14496W        W82714   2.848  40.096   3.669
14497W        W82715   0.887  25.876   3.603
14498W        W82716   7.688  24.766  11.651
14499W        W82717   4.792  27.950   1.230
14500W        W82718   9.410   7.894  12.179
14501W        W82719  10.676  26.413  11.503
14502W        W82720  37.513  11.069   0.850
14503W        W82721  33.636  24.981  12.919
14504W        W82722  33.410  18.325   4.100
14505W        W82723  15.766  25.472   3.066
14506W        W82724  39.642  15.681  12.518
14507W        W82725   4.912  15.792   0.639
14508W        W82726  17.675  40.607   3.641
14509W        W82727  12.878  20.777  13.908
14510W        W82728  41.092  44.952  14.502
14511W        W82729  30.857  25.758  12.225
14512W        W82730  28.635   1.852   2.895
14513W        W82731  24.897  10.849   1.850
14514W        W82732  28.286  28.176   4.230
14515W        W82733  43.477   6.805   2.965
14516W        W82734  13.015  38.437   4.186
14517W        W82735  16.537  42.740   0.569
14518W        W82736  31.827  31.461   2.671
14519W        W82737   7.834  41.768  11.007
14520W        W82738  27.373  43.560  11.293
14521W        W82739  26.155  21.682  12.921
14522W        W82740   3.995  40.888   4.963
14523W        W82741  32.351   8.847  11.168
14524W        W82742  43.098   8.836   1.759
14525W        W82743  38.848  31.111  10.095
14526W        W82744   4.617  12.155  11.845
14527W        W82745  29.590  31.421   1.426
14528W        W82746   1.466  15.124   0.849
14529W        W82747  25.202   0.537  13.466
14530W        W82748   1.761  24.076  14.466
14531W        W82749  25.342  25.505   4.032
14532W        W82750  33.742  39.496   0.935
14533W        W82751  35.136  19.805   2.805
14534W        W82752   2.196  20.847  13.082
14535W        W82753  34.934  32.974   3.669
14536W        W82754  27.986  16.828  14.114
14537W        W82755  27.395   7.001  14.702
14538W        W82756   3.854  37.415   4.087
14539W        W82757  44.401   2.751   0.738
14540W        W82758  30.527   3.007  10.081
14541W        W82759  43.336  40.224   0.810
14542W        W82760  33.405  33.920  10.401
14543W        W82761   3.390   4.284   3.600
14544W        W82762  41.379   7.201  13.189
14545W        W82763   9.124   4.920  12.537
14546W        W82764  19.138  39.054   0.308
14547W        W82765   8.950  43.276  14.379
14548W        W82766  32.595   1.366   4.141
14549W        W82767  18.214   3.616   3.366
14550W        W82768  27.055   4.549   2.767
14551W        W82769  15.233  16.550   4.896
14552W        W82770  14.523  28.606   0.320
14553W        W82771   0.851  39.080   2.831
14554W        W82772  40.003  32.705  11.389
14555W        W82773  31.378  17.371   2.862
14556W        W82774  42.510  33.851  14.931
14557W        W82775   7.399  38.358   2.753
14558W        W82776  43.499   5.851  14.944
14559W        W82777  36.505  42.338  14.972
14560W        W82778  32.791  22.213  12.091
14561W        W82779  17.348  25.394  12.574
14562W        W82780  41.358  18.546   3.276
14563W        W82781  26.840  15.828  12.417
14564W        W82782  16.153  29.486   1.777
14565W        W82783  11.205  15.553  14.321
14566W        W82784  44.512  19.179  11.997
14567W        W82785   6.754  27.190  13.949
14568W        W82786  18.268  33.517   0.295
14569W        W82787  33.976   3.512  11.265
14570W        W82788   1.327  13.678   1.156
14571W        W82789  39.843  23.296  12.966
14572W        W82790   0.468  20.647  10.838
14573W        W82791  14.549  20.858  13.603
14574W        W82792   0.439  26.001   1.397
14575W        W82793  13.780  41.930  10.100
14576W        W82794  17.261   1.557  14.897
14577W        W82795  20.658  42.201   2.461
14578W        W82796   6.228  40.576   0.422
14579W        W82797  20.751   5.828   3.765
14580W        W82798  27.147  20.543  12.795
14581W        W82799  13.840  22.455  11.576
14582W        W82800  15.437  30.431  10.938
14583W        W82801  43.468  34.954   0.830
14584W        W82802   2.338  41.339   2.170
14585W        W82803   1.466  27.071  11.660
14586W        W82804  20.000   9.209   4.629
14587W        W82805  26.493  35.485   0.975
14588W        W82806  10.793  16.062   4.724
14589W        W82807   4.636  34.934   4.212
14590W        W82808  44.562  22.194  13.805
14591W        W82809   8.591  16.998  11.152
14592W        W82810  36.330  35.914   4.980
14593W        W82811  14.869  12.763  10.819
14594W        W82812  23.506   9.158  11.132
14595W        W82813   5.653  39.540   0.537
14596W        W82814  18.474  42.431  12.840
14597W        W82815  32.970  28.240  12.164
14598W        W82816  26.170   4.384  10.626
14599W        W82817  14.611  35.647   2.708
14600W        W82818  15.145  16.321  14.472
14601W        W82819  18.791   0.680  14.046
14602W        W82820  37.554  12.169  11.643
14603W        W82821  30.586  22.268  11.504
14604W        W82822  31.453  10.659  11.658
14605W        W82823   6.657  44.366   0.722
14606W        W82824  15.600   5.589   0.032
14607W        W82825  26.875  34.915  11.693
14608W        W82826  18.773  31.504  10.619
14609W        W82827  33.830   0.657  13.572
14610W        W82828  30.705  36.555   2.811
14611W        W82829  17.949  39.146   4.003
14612W        W82830  42.689   2.808  11.288
14613W        W82831  41.966   3.194  13.951
14614W        W82832   4.904  19.855  12.038
14615W        W82833  16.897  19.798  12.624
14616W        W82834  44.393   5.645   0.314
14617W        W82835  42.031   3.877  14.383
14618W        W82836  24.059  25.651  12.016
14619W        W82837   5.280  13.414  14.021
14620W        W82838  24.743  33.717   2.681
14621W        W82839  18.003  12.673  12.540
14622W        W82840  44.079   1.873   4.717
14623W        W82841  17.019  24.128  13.208
14624W        W82842  11.074  37.344  13.344
14625W        W82843  42.801  33.032   2.287
14626W        W82844  25.164  30.570  10.993
14627W        W82845  12.602  21.779  14.100
14628W        W82846  27.327   3.712   3.735
14629W        W82847  18.540  26.920   3.163
14630W        W82848  23.525  25.793   1.854
14631W        W82849  43.008  33.581  14.902
14632W        W82850  21.895  13.811  11.047
14633W        W82851  40.398  42.703   0.951
14634W        W82852  32.871   0.774   3.045
14635W        W82853   7.733  15.281  12.223
14636W        W82854  38.419  36.671   1.796
14637W        W82855  32.395  29.198  11.212
14638W        W82856  18.162  11.336   0.218
14639W        W82857  15.669  27.516  11.102
14640W        W82858  31.750   0.352   1.749
14641W        W82859  43.468  29.093   2.942
14642W        W82860  30.602  16.075  14.311
14643W        W82861  20.602  35.566   1.907
14644W        W82862   1.490  25.824   2.275
14645W        W82863   8.589  15.102   4.560
14646W        W82864  30.908  11.469  11.448
14647W        W82865  18.324  39.984   1.078
14648W        W82866  36.317  10.715  12.870
14649W        W82867   8.811  32.876  13.263
14650W        W82868  31.174  16.238   5.011
14651W        W82869  12.455  19.832  10.967
14652W        W82870  12.260   9.142   4.504
14653W        W82871  29.714  25.925   1.307
14654W        W82872  31.898   8.601  11.180
14655W        W82873  41.630   8.959   1.673
14656W        W82874  19.320  14.051   0.930
14657W        W82875   0.008   7.886  12.953
14658W        W82876  11.228  33.792   2.604
14659W        W82877   0.860   2.413  14.497
14660W        W82878  29.499  44.001   4.337
14661W        W82879  43.419   3.944  10.726
14662W        W82880   6.583  30.464  14.020
14663W        W82881  28.911  29.455  14.921
14664W        W82882  34.536  30.916  13.832
14665W        W82883   3.476  20.742  14.424
14666W        W82884   0.846  19.732   0.909
14667W        W82885  17.733   9.841  14.600
14668W        W82886  23.898  44.933   2.899
14669W        W82887  15.616  11.743   3.627
14670W        W82888  24.951  30.496  12.784
14671W        W82889  17.912   7.381   4.032
14672W        W82890  39.826  35.583  10.982
14673W        W82891  32.378   2.388  11.433
14674W        W82892   3.874  22.818  11.124
14675W        W82893   1.639  26.583  11.911
14676W        W82894   1.950  30.468   0.174
14677W        W82895   5.143   2.457  11.205
14678W        W82896  43.920  38.991  14.569
14679W        W82897  27.763  11.376   3.677
14680W        W82898  23.761  39.787  11.351
14681W        W82899  20.368  40.079   0.714
14682W        W82900  11.157  11.365   1.499
14683W        W82901  16.650   3.795  11.621
14684W        W82902   5.792  36.898   1.770
14685W        W82903  37.645  34.128   0.497
14686W        W82904  30.015  28.198   0.858
14687W        W82905  23.681  25.580   0.031
14688W        W82906  19.099   6.830   1.133
14689W        W82907  28.010  24.132  13.870
14690W        W82908   1.273   0.928   0.873
14691W        W82909   2.794  27.557   2.955
14692W        W82910  23.770   5.479   0.015
14693W        W82911  15.908   3.335   4.212
14694W        W82912  21.147  29.284   2.425
14695W        W82913  23.595   4.993   3.684
14696W        W82914  12.560   6.670  14.805
14697W        W82915  42.254  39.895  13.454
14698W        W82916  18.853  28.192   2.914
14699W        W82917  43.227   8.833  11.581
14700W        W82918   9.251  36.968   2.212
14701W        W82919  20.545  44.179   0.247
14702W        W82920  27.086   9.477   1.310
14703W        W82921   3.917  37.177  14.481
14704W        W82922  13.469  39.367  10.649
14705W        W82923  19.993  14.796  14.597
14706W        W82924  16.110  41.529  14.431
14707W        W82925  36.767  15.289  13.621
14708W        W82926   1.470  42.920  13.044
14709W        W82927  42.407  25.748  11.624
14710W        W82928  18.981   0.056  12.638
14711W        W82929  26.724  43.375  12.092
14712W        W82930  43.437   3.345   3.164
14713W        W82931  43.986  35.977   3.292
14714W        W82932  24.107  21.747   0.679
14715W        W82933   5.541  29.906  14.382
14716W        W82934   7.984  17.643   3.763
14717W        W82935  11.302  38.850   2.138
14718W        W82936   4.502  15.238  12.383
14719W        W82937  23.052  38.881   0.211
14720W        W82938  41.927  35.553   0.022
14721W        W82939  37.822  26.790   4.643
14722W        W82940  27.579  18.512   5.124
14723W        W82941   2.692  36.945   2.985
14724W        W82942  16.821  15.240   3.238
14725W        W82943   6.971   6.432  11.151
14726W        W82944  44.762  42.415   1.675
14727W        W82945   1.719  42.349  14.347
14728W        W82946   2.748  19.656   2.654
14729W        W82947  27.197  29.126   4.003
14730W        W82948  20.818  21.976  14.901
14731W        W82949  28.241  29.080   2.248
14732W        W82950  28.520  15.628  14.461
14733W        W82951  19.231  23.226  12.796
14734W        W82952  11.244  24.650  12.193
14735W        W82953  43.757  16.550  14.906
14736W        W82954  17.547  35.003   2.881
14737W        W82955  24.293  41.417   4.366
14738W        W82956  11.397  27.664   2.236
14739W        W82957  38.843   0.756  13.897
14740W        W82958  27.312  33.162  12.418
14741W        W82959  43.847  16.532  14.106
14742W        W82960  26.170  44.452  10.692
14743W        W82961   2.184  16.502   4.136
14744W        W82962  37.426  10.616   3.201
14745W        W82963  21.617  32.195   9.694
14746W        W82964  39.424  31.064   0.662
14747W        W82965  15.062  39.042   2.799
14748W        W82966  34.019  25.522   1.501
14749W        W82967  38.118  31.089   1.516
14750W        W82968  24.854  27.595  11.640
14751W        W82969  34.082   2.749  12.995
14752W        W82970  29.464   4.219  14.272
14753W        W82971  11.710  10.128   0.064
14754W        W82972  21.011   7.827  11.914
14755W        W82973  23.081  40.721  13.140
14756W        W82974  36.384  16.566   4.668
14757W        W82975  10.829  10.337   4.912
14758W        W82976  41.790   3.843  11.976
14759W        W82977   3.759  36.376  10.649
14760W        W82978  37.108  25.311  14.783
14761W        W82979  18.160  20.597  11.184
14762W        W82980  29.247  32.649   3.704
14763W        W82981  22.478  37.702   5.017
14764W        W82982  21.325  11.291  12.491
14765W        W82983  35.114  23.756   2.296
14766W        W82984   6.389   9.930   0.127
14767W        W82985  27.525  42.986  14.090
14768W        W82986  44.280  29.502  13.504
14769W        W82987   0.971   8.844   0.788
14770W        W82988  32.579  43.054   3.250
14771W        W82989  18.653  20.721  14.766
14772W        W82990  35.720  26.447  11.151
14773W        W82991  23.969  31.552  10.701
14774W        W82992  11.743   1.723   4.473
14775W        W82993  30.602   0.261   3.330
14776W        W82994  44.751  44.275   2.304
14777W        W82995  44.979  38.495  14.673
14778W        W82996   0.370  36.749  14.467
14779W        W82997  19.687  21.709   4.590
14780W        W82998  26.657  33.728  10.676
14781W        W82999  38.413  14.329   3.550
14782W        W83000   8.396  15.828   9.771
14783W        W83001  29.190  19.583  13.691
14784W        W83002  11.250  35.740   0.550
14785W        W83003  20.789  23.173  13.867
14786W        W83004  16.634  22.042   3.011
14787W        W83005  37.257  18.301   4.012
14788W        W83006   5.201  30.556  11.947
14789W        W83007   9.371  44.931   2.756
14790W        W83008   4.250  10.195   2.707
14791W        W83009  22.569  30.343   5.045
14792W        W83010  36.530   1.438  10.606
14793W        W83011  34.457  27.577   4.002
14794W        W83012   7.365  19.845   2.271
14795W        W83013   8.794   1.412  12.342
14796W        W83014  41.928  21.664   1.259
14797W        W83015   3.195  23.400  11.539
14798W        W83016  12.774   9.848  14.283
14799W        W83017  25.636  42.645  11.653
14800W        W83018  22.827  42.984  11.119
14801W        W83019  39.388  19.781  11.424
14802W        W83020  17.659   8.732   4.155
14803W        W83021   3.985  10.364   3.201
14804W        W83022  26.945  12.026  11.557
14805W        W83023  35.165  32.522   3.581
14806W        W83024   5.670  36.014  12.415
14807W        W83025  17.739  21.815   0.321
14808W        W83026  29.092  43.425   2.766
14809W        W83027  10.396  12.272   0.241
14810W        W83028  26.634  20.597  10.963
14811W        W83029   1.363  22.914  13.599
14812W        W83030  22.471  17.887   3.882
14813W        W83031  18.261   2.888  14.413
14814W        W83032  36.442  26.191  14.247
14815W        W83033  13.070  27.531   3.647
14816W        W83034  39.334  44.824  11.956
14817W        W83035   5.211  39.444   1.432
14818W        W83036  20.959  38.882  11.487
14819W        W83037  23.818  25.186  11.994
14820W        W83038  43.840  14.831  13.596
14821W        W83039  23.772   7.165   4.196
14822W        W83040  33.171  42.040  13.375
14823W        W83041  19.078  20.715   4.042
14824W        W83042  44.191  33.150  14.839
14825W        W83043   7.853  21.376   9.849
14826W        W83044  16.019  16.194   9.841
14827W        W83045   4.887  25.916  14.841
14828W        W83046  23.180  35.359   5.463
14829W        W83047  36.867  42.567   0.253
14830W        W83048  15.029   9.790   3.712
14831W        W83049   6.215   2.982   3.338
14832W        W83050  43.975  25.624  12.933
14833W        W83051  34.403  17.358   2.795
14834W        W83052  22.419   8.549   3.659
14835W        W83053  28.785  23.931  14.288
14836W        W83054  23.488  25.039  11.631
14837W        W83055   2.410  40.754  12.167
14838W        W83056  36.497   3.952   1.723
14839W        W83057  21.602  17.991  11.105
14840W        W83058  22.827  35.406  11.256
14841W        W83059  31.103   5.153   3.209
14842W        W83060  32.399  32.698   2.754
14843W        W83061  15.672   5.199   3.675
14844W        W83062  20.471  23.384  14.632
14845W        W83063  36.008  36.934  14.037
14846W        W83064   8.746  26.520   3.598
14847W        W83065   0.030   2.753   3.335
14848W        W83066  37.014  17.107   2.498
14849W        W83067   5.930  41.861  11.952
14850W        W83068  21.806  41.382  14.901
14851W        W83069  13.548  12.854  13.471
14852W        W83070  29.574  28.461  14.601
14853W        W83071  36.039  32.555   4.108
14854W        W83072   8.482  17.253   0.460
14855W        W83073  30.113  36.109  12.644
14856W        W83074  44.281  15.800  10.295
14857W        W83075   3.269  34.542  11.515
14858W        W83076  32.316  33.322   2.356
14859W        W83077  19.268   1.703   3.272
14860W        W83078  29.200  20.072  11.418
14861W        W83079  40.110  25.417   5.084
14862W        W83080  26.594  42.869  14.340
14863W        W83081  30.462  33.950  13.961
14864W        W83082  13.538  38.609  11.538
14865W        W83083  27.042  23.136  11.413
14866W        W83084  20.371  12.106  13.260
14867W        W83085  43.830   3.109  11.161
14868W        W83086  28.983  23.628  14.917
14869W        W83087   1.207  27.540  10.749
14870W        W83088  17.243   9.143   1.348
14871W        W83089   2.868  42.033   2.540
14872W        W83090  22.603  30.720   2.075
14873W        W83091   1.762  39.356  10.425
14874W        W83092  14.166  44.438   0.287
14875W        W83093  37.673  25.958  14.740
14876W        W83094  29.597  18.764   4.581
14877W        W83095   6.380  43.048   4.551
14878W        W83096   2.236  29.559   1.051
14879W        W83097  32.518   4.234  13.953
14880W        W83098  15.402   3.437   4.093
14881W        W83099  36.960  22.484   0.806
14882W        W83100   3.110  24.597   2.826
14883W        W83101  41.130  41.474  13.916
14884W        W83102   1.935   0.911   0.903
14885W        W83103  36.266  20.073  13.552
14886W        W83104   3.865  29.180   2.718
14887W        W83105   4.424  35.041  11.586
14888W        W83106  41.503   8.211   2.728
14889W        W83107  17.955  14.033  12.129
14890W        W83108  33.445   9.461  12.558
14891W        W83109  14.105  22.137   0.806
14892W        W83110  28.057  42.014  12.569
14893W        W83111   0.580   1.671  12.677
14894W        W83112  25.161  35.573  14.726
14895W        W83113  20.997  16.063  10.746
14896W        W83114   5.648  24.662  12.894
14897W        W83115  33.828  23.633   0.745
14898W        W83116  30.000   1.975  14.031
14899W        W83117  43.270  34.930  12.037
14900W        W83118  26.155   4.827   4.262
14901W        W83119  21.016  30.451  10.672
14902W        W83120  11.234  11.883   1.315
14903W        W83121  14.798  36.334   0.395
14904W        W83122  32.401  39.397   2.171
14905W        W83123  39.881  14.276   3.370
14906W        W83124  33.599  20.964   1.245
14907W        W83125  26.949  25.227   1.909
14908W        W83126  24.935  32.068  12.065
14909W        W83127  25.746  13.825   0.288
14910W        W83128  31.643  20.157  12.062
14911W        W83129  40.876   4.465  14.387
14912W        W83130  40.908  21.304  14.258
14913W        W83131  22.842  23.553   4.111
14914W        W83132   5.665   2.337   4.005
14915W        W83133  15.462  30.912   3.224
14916W        W83134  28.777  10.769  11.082
14917W        W83135  13.505  33.925  12.051
14918W        W83136  14.411  29.306   0.855
14919W        W83137  43.778  43.842   2.449
14920W        W83138  15.542   2.875   3.106
14921W        W83139  30.915   2.466   2.764
14922W        W83140   9.541  32.175   0.701
14923W        W83141   4.196   6.915  12.139
14924W        W83142  30.162   9.675   2.241
14925W        W83143  29.289  40.406   4.423
14926W        W83144  25.918  28.151   3.185
14927W        W83145  23.744  37.686  10.769
14928W        W83146  43.891  36.563   3.918
14929W        W83147  39.759  37.863   2.882
14930W        W83148  33.497  17.654  12.822
14931W        W83149  31.157  30.542  12.449
14932W        W83150  20.718  36.108  11.591
14933W        W83151   2.418  29.545   1.567
14934W        W83152  30.101  30.975  14.736
14935W        W83153  43.076  15.252   2.185
14936W        W83154   7.819  42.769  11.137
14937W        W83155  22.544  11.377   0.583
14938W        W83156  36.566   2.691   3.254
14939W        W83157  40.256  43.852  12.528
14940W        W83158  29.149  39.875  13.034
14941W        W83159  32.537  25.707   1.964
14942W        W83160  24.179  28.801   1.500
14943W        W83161  44.707  19.075  14.099
14944W        W83162   4.547  40.659  14.784
14945W        W83163   3.327  15.791  13.986
14946W        W83164   2.760   3.743   0.561
14947W        W83165  12.864   8.415   4.552
14948W        W83166  12.605   5.479  14.534
14949W        W83167  30.541  10.201   4.255
14950W        W83168  40.763  18.726   0.421
14951W        W83169  12.556  14.119   1.372
14952W        W83170  11.347  20.654  13.005
14953W        W83171  15.096  35.513   3.896
14954W        W83172   1.961  32.144  10.791
14955W        W83173  12.556  21.055   0.232
14956W        W83174  14.288  33.757   0.076
14957W        W83175  36.537  37.533   0.466
14958W        W83176  28.632  21.284   3.613
14959W        W83177  16.402  24.501  14.494
14960W        W83178  21.529  13.115   1.799
14961W        W83179  16.044  19.583   2.683
14962W        W83180  24.044  13.880  11.566
14963W        W83181  32.043  43.447  13.661
14964W        W83182  12.675   8.133  12.472
14965W        W83183   8.866  12.225   1.354
14966W        W83184  24.461  21.348   1.528
14967W        W83185  39.514  41.489  14.559
14968W        W83186  32.704  40.931  13.330
14969W        W83187  18.744  34.638   0.843
14970W        W83188  22.982  14.030  14.365
14971W        W83189  22.582  29.409   2.737
14972W        W83190   6.472  34.385  13.420
14973W        W83191  16.055  29.148  14.826
14974W        W83192  23.990  40.469  13.492
14975W        W83193   9.268  35.051   3.741
14976W        W83194   2.280  42.229  11.200
14977W        W83195   5.160  17.001   2.754
14978W        W83196  23.998  14.077  14.413
14979W        W83197  17.018   7.635  13.529
14980W        W83198  11.188  37.071   1.066
14981W        W83199  41.872  11.779   5.132
14982W        W83200  38.549  25.500  13.910
14983W        W83201  19.683  28.472   2.742
14984W        W83202   7.241  34.539   4.611
14985W        W83203  15.055  38.719   2.393
14986W        W83204  36.673  25.672  11.509
14987W        W83205  28.480  39.905   4.556
14988W        W83206  42.661  20.730  13.401
14989W        W83207  29.731  18.175   1.416
14990W        W83208   3.452   4.858   4.033
14991W        W83209  18.751  21.290  13.079
14992W        W83210  30.996   0.757   3.877
14993W        W83211   3.783  40.565   2.758
14994W        W83212  15.762  20.618   2.728
14995W        W83213  12.820  32.518  13.454
14996W        W83214  30.372  17.629  13.481
14997W        W83215  16.311  39.611   2.332
14998W        W83216   7.247  13.903   0.243
14999W        W83217  12.137  16.193  12.328
15000W        W83218  29.721  18.209  12.083
15001W        W83219   5.383  22.082  12.465
15002W        W83220  22.312  23.062   2.372
15003W        W83221  14.292  13.230  12.354
15004W        W83222  43.689  42.810  10.590
15005W        W83223  35.343   0.544  11.619
15006W        W83224  27.200  18.202  14.920
15007W        W83225  18.787  37.922   2.267
15008W        W83226  38.019  44.996   3.404
15009W        W83227  10.319  37.597  12.929
15010W        W83228  25.019  31.362  13.518
15011W        W83229  43.539   8.466  11.383
15012W        W83230  25.309  12.774  12.175
15013W        W83231  37.013  41.349  14.288
15014W        W83232   1.434  28.921   0.159
15015W        W83233  31.438  41.129  14.485
15016W        W83234  38.954  27.002   3.267
15017W        W83235  26.046  38.396  11.885
15018W        W83236  42.414  23.903   0.341
15019W        W83237   0.894  38.366  13.826
15020W        W83238  10.912  44.392   0.629
15021W        W83239   3.440   1.466   2.211
15022W        W83240  36.355  37.486   9.730
15023W        W83241  11.949  31.474   2.759
15024W        W83242   3.921  33.402  10.318
15025W        W83243  21.163  18.753  10.755
15026W        W83244  36.309  14.155   4.486
15027W        W83245  10.287  40.801   0.441
15028W        W83246  29.514  26.189   1.740
15029W        W83247   7.471  19.247   0.415
15030W        W83248   5.782  31.305   1.766
15031W        W83249  11.959  34.114   0.867
15032W        W83250  33.046  28.931   2.637
15033W        W83251   7.815  25.929   1.683
15034W        W83252  44.027  20.730   1.340
15035W        W83253  19.748  33.556  12.478
15036W        W83254   0.506  42.973  13.793
15037W        W83255  16.182   5.263   1.898
15038W        W83256  19.099  29.132  10.320
15039W        W83257   4.197   1.455   3.157
15040W        W83258   8.734  29.123   2.706
15041W        W83259   5.291  24.881   4.603
15042W        W83260  31.214  26.440  14.359
15043W        W83261  24.259  17.689   3.647
15044W        W83262  37.327  25.670  13.963
15045W        W83263  36.131   0.069   1.764
15046W        W83264   2.928  35.888  13.384
15047W        W83265  15.263   5.933   0.387
15048W        W83266  29.878  15.799   1.391
15049W        W83267  37.096  27.625  11.947
15050W        W83268  18.887   3.363  11.148
15051W        W83269  12.811  44.952   2.747
15052W        W83270  27.856   5.790  11.667
15053W        W83271  21.011  13.714   1.331
15054W        W83272   9.353  36.027   3.404
15055W        W83273  15.082  22.610  14.263
15056W        W83274  20.736  34.568   0.031
15057W        W83275  40.999  39.043  13.370
15058W        W83276   1.432  28.111   1.979
15059W        W83277  40.487  12.758   4.496
15060W        W83278  12.791  28.916  12.397
15061W        W83279  18.714   5.635  10.311
15062W        W83280  26.414   7.286  12.555
15063W        W83281  13.334  34.962   2.761
15064W        W83282   3.420  19.301  14.388
15065W        W83283  39.275  15.758   3.119
15066W        W83284  33.134  16.711   1.032
15067W        W83285   9.513   1.299   1.849
15068W        W83286  19.165  32.161   3.811
15069W        W83287  32.053  32.685   4.550
15070W        W83288  10.944  37.620   2.794
15071W        W83289  28.449  15.122   1.548
15072W        W83290   7.115  39.388  12.779
15073W        W83291   3.403  11.743  12.117
15074W        W83292   4.604  23.714   0.492
15075W        W83293   4.640  32.123   4.452
15076W        W83294  23.007  29.575  13.910
15077W        W83295  12.041  24.042  12.506
15078W        W83296   9.407   8.745   1.308
15079W        W83297   5.213   0.870  14.376
15080W        W83298  26.432   1.920   3.141
15081W        W83299  35.168  13.338  14.828
15082W        W83300  36.416  18.378   0.421
15083W        W83301  23.046  30.365  13.894
15084W        W83302  23.491  20.788  11.144
15085W        W83303  24.164  31.226  11.662
15086W        W83304   2.108  44.399   1.076
15087W        W83305  22.505  43.278   4.201
15088W        W83306  12.901  30.156   4.296
15089W        W83307  17.290   0.418  11.588
15090W        W83308   1.235   7.543  12.053
15091W        W83309  18.807  25.026   3.345
15092W        W83310  29.428  22.736  12.340
15093W        W83311   9.679  16.219  10.590
15094W        W83312  29.918  17.740  11.517
15095W        W83313  38.767  25.216   0.755
15096W        W83314  18.553  20.293  12.975
15097W        W83315  19.531  24.291  14.817
15098W        W83316  40.155  12.350  14.323
15099W        W83317  42.522  28.432   1.950
15100W        W83318   7.413  35.416   1.865
15101W        W83319  24.965  33.017  11.078
15102W        W83320  21.996   3.276  13.866
15103W        W83321  16.515   8.699   3.531
15104W        W83322   4.816  42.949   1.856
15105W        W83323  12.325  24.057  12.965
15106W        W83324  41.285   2.983  12.518
15107W        W83325  25.893  37.268  11.181
15108W        W83326   1.193  37.841  14.484
15109W        W83327  38.639  44.101  10.318
15110W        W83328  39.979  28.384  11.122
15111W        W83329   8.101   5.258   0.267
15112W        W83330   4.990   8.314  11.925
15113W        W83331  18.149  27.197  12.958
15114W        W83332  32.885  40.661   0.429
15115W        W83333  22.316  10.969  11.170
15116W        W83334  10.816   1.871  12.004
15117W        W83335  36.502  17.924  14.494
15118W        W83336  25.611  15.237   9.927
15119W        W83337  14.912  35.316   1.238
15120W        W83338  30.027   9.925   1.808
15121W        W83339  23.447  27.558  11.792
15122W        W83340   5.868  27.765  14.918
15123W        W83341  14.719  25.016  12.666
15124W        W83342  11.306  26.715   3.198
15125W        W83343  35.422  43.476   4.181
15126W        W83344  18.616   6.718  14.403
15127W        W83345   0.950  37.861  13.997
15128W        W83346   1.247  22.308  13.842
15129W        W83347   8.167  21.956  14.751
15130W        W83348  15.095  24.574  11.102
15131W        W83349  29.959   3.726   1.427
15132W        W83350  26.261  17.719   4.380
15133W        W83351  23.521  38.287  12.983
15134W        W83352   2.304  26.836  13.305
15135W        W83353   4.540  23.540  14.022
15136W        W83354  40.231  14.146  12.913
15137W        W83355  44.499  11.959  12.256
15138W        W83356  31.981   7.533  13.865
15139W        W83357  26.494  13.775   2.250
15140W        W83358  41.249  16.524   0.424
15141W        W83359  22.294  18.047   1.365
15142W        W83360  13.267  26.283   1.162
15143W        W83361   9.236  29.716  11.007
15144W        W83362  10.766  36.030   4.648
15145W        W83363  29.618  26.692   1.679
15146W        W83364   1.291   2.216  13.277
15147W        W83365  22.645  25.468  11.492
15148W        W83366   9.790  37.857  13.675
15149W        W83367  32.552  19.474   0.474
15150W        W83368  12.055  43.322   4.425
15151W        W83369   9.206  20.275   2.858
15152W        W83370  23.087  38.806  12.835
15153W        W83371  35.575  31.066   4.612
15154W        W83372  39.028  43.023   4.997
15155W        W83373  25.569   5.009   1.392
15156W        W83374   3.812  33.568  14.010
15157W        W83375  38.494  19.344  11.672
15158W        W83376  34.745  42.513  11.117
15159W        W83377  20.168   2.704  11.985
15160W        W83378  32.827  32.970   2.887
15161W        W83379  34.577  26.699  12.782
15162W        W83380  10.086  18.554   2.132
15163W        W83381  35.642  32.851  14.373
15164W        W83382  32.180  41.588  12.430
15165W        W83383   2.361  44.578  13.052
15166W        W83384  24.049  22.876   5.020
15167W        W83385  30.030  20.569   4.872
15168W        W83386  34.986   0.803   3.348
15169W        W83387  40.816  36.330   0.866
15170W        W83388  25.094  24.767   1.233
15171W        W83389  21.940   5.202  14.764
15172W        W83390  19.080   2.935   1.433
15173W        W83391  29.603  12.464   1.274
15174W        W83392   2.892   8.212  11.724
15175W        W83393   8.896  21.623   3.583
15176W        W83394  18.750  38.351   1.678
15177W        W83395  29.188  40.757   2.744
15178W        W83396  40.877   4.666  11.015
15179W        W83397  30.907   2.167  11.801
15180W        W83398  28.122  35.027  14.359
15181W        W83399  39.063   4.768   1.268
15182W        W83400  18.506  28.982  14.670
15183W        W83401  12.933  15.321   3.002
15184W        W83402  42.030  10.074   4.030
15185W        W83403   7.115  36.808   1.297
15186W        W83404   0.223  27.490   0.059
15187W        W83405  15.991  37.808   3.496
15188W        W83406  21.158   2.812   4.822
15189W        W83407  24.464  12.477  12.548
15190W        W83408  28.190  42.330   1.846
15191W        W83409  34.092  15.678  14.823
15192W        W83410  37.432  36.561   4.650
15193W        W83411  43.193  34.526  12.368
15194W        W83412  10.279  12.116  11.607
15195W        W83413  34.916  22.817   4.606
15196W        W83414  36.833  29.954  13.847
15197W        W83415  30.032   4.140   2.349
15198W        W83416   7.152   2.658   1.442
15199W        W83417  35.305  19.447  13.847
15200W        W83418  22.166  30.031  11.386
15201W        W83419  21.099   9.362  13.856
15202W        W83420  16.258  30.176   4.425
15203W        W83421  29.161  42.352   0.029
15204W        W83422   5.927  11.397  10.946
15205W        W83423  10.779   4.957  12.000
15206W        W83424  16.725  42.173  14.730
15207W        W83425  16.096  35.576  11.194
15208W        W83426  21.283  12.282  14.969
15209W        W83427   6.271  37.472   4.118
15210W        W83428   1.378   5.345   3.126
15211W        W83429   4.527  11.237  14.970
15212W        W83430  26.627  17.547   2.246
15213W        W83431  30.877  11.754  10.459
15214W        W83432   1.976  40.461  10.700
15215W        W83433  36.175  33.815   2.738
15216W        W83434  20.544  12.528   3.674
15217W        W83435  23.972  28.449   0.390
15218W        W83436  21.816  12.903   0.474
15219W        W83437  12.042  23.564   4.069
15220W        W83438  31.469  17.324  13.103
15221W        W83439  18.332  14.152  13.517
15222W        W83440  24.662  18.800  13.293
15223W        W83441  40.431  17.595   1.235
15224W        W83442  38.502  29.942  14.928
15225W        W83443   4.825  33.152  10.257
15226W        W83444  13.073   1.314   4.195
15227W        W83445   5.838   7.697   2.434
15228W        W83446   8.737   5.818  12.137
15229W        W83447   3.378  36.934  12.781
15230W        W83448  26.164  34.099   3.317
15231W        W83449  40.762   3.018   3.585
15232W        W83450  26.596   8.162   4.964
15233W        W83451  38.010  36.307  12.604
15234W        W83452  26.544  43.103   5.024
15235W        W83453   4.469  14.882  12.874
15236W        W83454   9.542  40.598   0.671
15237W        W83455  35.732  17.124  14.623
15238W        W83456  41.117  44.066   3.527
15239W        W83457  36.863  26.424   4.872
15240W        W83458  34.163  10.775   1.757
15241W        W83459  30.891  41.273   1.280
15242W        W83460  18.655  15.027  13.683
15243W        W83461   4.312  32.822  12.064
15244W        W83462  41.074  35.055  10.716
15245W        W83463  14.292  38.182   4.443
15246W        W83464   0.280  18.727   2.194
15247W        W83465  30.990  23.299   2.235
15248W        W83466  26.072   0.869   2.976
15249W        W83467  42.873   9.592   4.375
15250W        W83468  35.270  26.413   0.765
15251W        W83469  41.585  30.206  14.514
15252W        W83470  23.472  33.575   3.126
15253W        W83471  16.970  37.575  10.537
15254W        W83472  38.383  40.151   3.355
15255W        W83473  26.230  24.690  10.771
15256W        W83474   3.188  13.738  14.805
15257W        W83475  12.827   2.416  10.910
15258W        W83476  25.127  42.114  11.039
15259W        W83477  24.455  44.874  13.447
15260W        W83478   3.878  34.508   3.126
15261W        W83479   0.848  33.501  11.593
15262W        W83480  34.231   5.554  10.476
15263W        W83481  15.165  10.659   0.662
15264W        W83482  41.897   3.834   0.362
15265W        W83483  11.719   9.441  12.967
15266W        W83484   3.378  41.084  11.965
15267W        W83485  17.769   8.455   1.374
15268W        W83486   1.619  10.158  11.045
15269W        W83487  22.021  18.751   3.017
15270W        W83488  34.933   7.827   0.258
15271W        W83489  36.863  31.111   0.470
15272W        W83490  35.873  29.510  11.123
15273W        W83491  31.405  24.237   1.853
15274W        W83492  15.887  18.519  11.947
15275W        W83493   3.873   0.458   0.851
15276W        W83494  33.629  18.524   0.791
15277W        W83495  43.464   3.559  11.902
15278W        W83496  27.874  40.083  11.490
15279W        W83497  23.833   6.224   1.956
15280W        W83498  20.756   6.297   2.703
15281W        W83499   2.185   3.236  13.262
15282W        W83500  39.868  20.445   2.403
15283W        W83501  41.301  26.915  12.594
15284W        W83502   2.001  24.025  12.611
15285W        W83503  16.378  30.909  12.764
15286W        W83504   7.844  11.655  11.576
15287W        W83505  21.789  37.803  13.764
15288W        W83506  39.999  29.976   0.343
15289W        W83507   9.108  43.803  11.505
15290W        W83508  41.949   9.643  13.851
15291W        W83509   8.058  29.478  13.218
15292W        W83510  22.783  24.667   1.020
15293W        W83511  15.227  28.409  13.417
15294W        W83512  23.168   8.660   0.911
15295W        W83513  22.257  35.367   3.620
15296W        W83514  38.336  32.041  11.058
15297W        W83515  30.453  28.111  11.129
15298W        W83516   4.262  13.003  10.762
15299W        W83517   2.673   7.646  11.986
15300W        W83518  10.600  32.558  14.015
15301W        W83519  40.419  44.196   5.111
15302W        W83520  23.513  40.089   1.962
15303W        W83521  15.462  29.495  12.665
15304W        W83522  33.662  36.824   0.741
15305W        W83523  18.748  10.263   1.367
15306W        W83524  31.420  43.491  10.471
15307W        W83525  36.059   4.022   0.443
15308W        W83526  14.731  13.663   2.422
15309W        W83527  36.576  21.097   2.668
15310W        W83528  23.992  32.691   1.472
15311W        W83529  23.995  16.237  10.348
15312W        W83530  20.729  16.899  11.899
15313W        W83531  24.270  22.737   2.374
15314W        W83532   6.323  14.382   0.208
15315W        W83533  37.128  24.254  13.783
15316W        W83534  26.607  23.096   2.362
15317W        W83535  33.926  11.814   4.252
15318W        W83536   5.353   4.083  10.337
15319W        W83537   6.278  34.143   3.622
15320W        W83538  31.076  44.814   0.424
15321W        W83539   0.442  37.359   0.879
15322W        W83540  31.882  42.872  14.427
15323W        W83541  39.146  24.998  14.553
15324W        W83542  26.555  36.548  13.447
15325W        W83543  14.052  41.064  14.992
15326W        W83544  35.862  14.107   1.662
15327W        W83545  24.199  15.727  11.593
15328W        W83546  35.138  21.806   3.059
15329W        W83547   3.831  10.142   2.379
15330W        W83548  18.171  11.181  14.281
15331W        W83549  37.110   6.638   1.248
15332W        W83550  27.528  44.037   4.559
15333W        W83551   0.933  14.453   2.741
15334W        W83552  16.645  23.166   1.653
15335W        W83553  28.513  34.668   0.917
15336W        W83554  20.935  13.357   4.081
15337W        W83555  21.223   4.929   0.744
15338W        W83556  43.946   6.561  12.381
15339W        W83557  41.627  40.364   0.202
15340W        W83558  34.937   4.010  12.016
15341W        W83559  13.419  30.402  11.351
15342W        W83560  26.798  27.672  14.768
15343W        W83561  10.832  24.086  12.874
15344W        W83562  43.422  37.347  11.471
15345W        W83563   3.357  38.834  11.473
15346W        W83564  34.690   1.039   2.053
15347W        W83565  44.400   8.875  11.092
15348W        W83566  26.983  21.014   1.347
15349W        W83567  43.732  17.128  11.073
15350W        W83568  17.301  23.232  12.872
15351W        W83569  42.543  10.839   0.919
15352W        W83570  33.600  39.441   2.666
15353W        W83571  33.341  33.981  12.129
15354W        W83572  15.901  17.423  12.610
15355W        W83573  35.393  24.980  10.745
15356W        W83574  21.102   6.086  12.702
15357W        W83575   4.579   5.365   2.630
15358W        W83576  37.530  14.640  14.802
15359W        W83577   4.969  23.531   3.200
15360W        W83578  33.573  41.307  13.101
15361W        W83579  28.497   6.142   2.583
15362W        W83580  21.981   8.564  13.104
15363W        W83581  20.049  30.059  12.397
15364W        W83582  32.224   5.780  13.389
15365W        W83583  19.857  11.806   0.420
15366W        W83584   1.188  13.696   4.276
15367W        W83585  13.628  16.390   2.653
15368W        W83586  26.743   9.098   0.857
15369W        W83587  41.344  37.605   0.930
15370W        W83588   4.289  39.006   0.657
15371W        W83589  26.102  38.107  11.478
15372W        W83590  38.067  31.733  10.741
15373W        W83591  20.445  11.778  11.575
15374W        W83592  25.505  44.312   0.867
15375W        W83593  42.850  13.749   4.579
15376W        W83594  18.610  12.134   2.342
15377W        W83595  28.429   8.404  14.468
15378W        W83596  25.451  40.474   0.564
15379W        W83597  15.087  19.306   4.183
15380W        W83598  41.592  22.937  11.101
15381W        W83599   2.366  10.787  10.935
15382W        W83600  12.208  33.868  10.657
15383W        W83601  13.301  14.732  10.693
15384W        W83602  23.093  36.607  11.728
15385W        W83603  36.477   8.928  10.660
15386W        W83604   5.423  19.732  12.073
15387W        W83605   9.721  14.790  13.352
15388W        W83606  26.103  35.527  11.512
15389W        W83607   0.878  40.383  12.456
15390W        W83608  18.613  10.312   3.402
15391W        W83609  11.660   3.961  13.010
15392W        W83610  23.446  43.044   4.071
15393W        W83611  41.492  17.542  13.237
15394W        W83612  26.112   5.360   2.611
15395W        W83613  32.152  33.930   1.820
15396W        W83614   3.352  11.943   1.608
15397W        W83615  15.974   8.936  14.845
15398W        W83616  43.242   3.458   2.094
15399W        W83617   1.850  10.976   1.337
15400W        W83618  37.606  43.389   2.581
15401W        W83619  32.529  19.562  12.473
15402W        W83620   1.128  22.731   4.244
15403W        W83621   0.268  23.306   0.874
15404W        W83622   2.356   2.359  13.332
15405W        W83623  25.708   4.039   2.612
15406W        W83624  32.086  21.723  12.973
15407W        W83625   2.871   3.686  11.628
15408W        W83626  32.432  22.540   2.559
15409W        W83627   2.826  39.010  11.631
15410W        W83628   4.626  41.095   3.569
15411W        W83629  44.705  20.119   1.174
15412W        W83630   7.015  10.422   1.886
15413W        W83631  39.014  18.307   0.460
15414W        W83632  44.430  19.234  14.509
15415W        W83633  30.372  42.847  14.395
15416W        W83634   4.302  43.023  10.240
15417W        W83635  34.626  40.965   4.511
15418W        W83636  33.185   9.429  12.045
15419W        W83637  34.009  33.125   0.698
15420W        W83638   9.427  34.102   1.932
15421W        W83639  34.000   0.418   0.139
15422W        W83640  34.532  40.567   1.028
15423W        W83641  42.146  15.380  12.557
15424W        W83642   3.704   9.102   2.883
15425W        W83643  21.823   1.819   2.121
15426W        W83644  20.585  28.576   2.445
15427W        W83645  23.757  24.757   4.583
15428W        W83646   2.398   3.958  11.543
15429W        W83647  31.210  43.431  13.745
15430W        W83648  18.606   8.775   1.005
15431W        W83649   3.434  16.022  13.514
15432W        W83650   9.309  13.595   1.270
15433W        W83651   3.064  44.504  12.460
15434W        W83652  34.902  24.524  12.333
15435W        W83653  10.942   0.935  10.608
15436W        W83654  24.055  29.200  12.552
15437W        W83655  42.788  10.864   3.138
15438W        W83656  21.527   3.450  13.953
15439W        W83657  31.154  24.603   4.593
15440W        W83658  10.357  14.252   0.860
15441W        W83659   5.533  23.785  13.698
15442W        W83660  39.973   7.175   4.414
15443W        W83661  15.203  26.721   3.836
15444W        W83662  28.629   0.582   1.804
15445W        W83663  33.360  24.516  14.874
15446W        W83664  43.731  18.637   0.929
15447W        W83665  39.703  17.027  12.535
15448W        W83666   2.441   2.643   3.229
15449W        W83667   5.875  16.688   5.391
15450W        W83668  15.602  12.790   0.771
15451W        W83669   7.324  30.654   2.364
15452W        W83670  12.471  21.591  10.964
15453W        W83671  10.201  15.805  11.632
15454W        W83672  35.145   8.826   2.480
15455W        W83673  32.953  14.946  10.937
15456W        W83674   2.339  42.242  12.886
15457W        W83675  25.088   2.136  12.985
15458W        W83676   9.872  16.341   3.770
15459W        W83677  22.265  35.053  12.451
15460W        W83678  27.135  15.305   0.388
15461W        W83679  30.988  33.100   3.810
15462W        W83680  44.088  10.037   1.786
15463W        W83681   6.911  41.933  10.334
15464W        W83682  24.582  38.930   2.775
15465W        W83683  11.227  26.196   3.127
15466W        W83684   6.408  23.103  12.331
15467W        W83685  44.409  26.269   0.485
15468W        W83686   6.885  36.031   2.368
15469W        W83687  25.636  37.021   1.019
15470W        W83688  40.400  15.645   0.988
15471W        W83689  13.359   4.706  14.560
15472W        W83690   8.532  27.774  14.328
15473W        W83691  13.926  19.459   0.720
15474W        W83692  26.653  13.553  14.192
15475W        W83693  38.864  12.498  12.586
15476W        W83694  12.705  16.242   3.058
15477W        W83695  39.787   4.817   4.106
15478W        W83696  36.534  23.337  10.046
15479W        W83697  16.779  30.636   3.566
15480W        W83698   0.280  33.098   2.242
15481W        W83699  43.108   5.723  12.308
15482W        W83700  14.334  39.346  14.702
15483W        W83701  17.098  12.790   4.538
15484W        W83702  42.176  33.578   5.105
15485W        W83703  21.010  14.287  10.659
15486W        W83704  33.769  16.355  13.376
15487W        W83705  43.393  10.403   2.767
15488W        W83706  20.138  40.184  10.287
15489W        W83707  36.363  14.079   3.096
15490W        W83708   4.638  36.213  14.454
15491W        W83709  30.371  14.157  11.106
15492W        W83710  40.471  36.158  11.239
15493W        W83711  19.755  23.956  11.616
15494W        W83712  21.856  29.540   0.363
15495W        W83713  24.833  37.444   9.852
15496W        W83714  31.140  44.185  12.441
15497W        W83715   7.378  13.155   2.268
15498W        W83716  38.827  42.970  13.884
15499W        W83717   7.374  11.969  10.775
15500W        W83718   2.782  24.742   0.898
15501W        W83719  29.566  19.989  14.828
15502W        W83720   3.888  20.482  14.255
15503W        W83721  10.381  15.785   2.646
15504W        W83722   1.309  21.262  12.756
15505W        W83723  42.846  17.706   2.901
15506W        W83724  34.895  19.201   3.656
15507W        W83725  37.449  17.834   3.667
15508W        W83726  41.626   5.042   0.770
15509W        W83727   7.816  15.325   1.505
15510W        W83728  35.354   0.966   2.492
15511W        W83729  21.694  33.378  12.750
15512W        W83730  10.946  21.325   4.291
15513W        W83731  12.103  18.105  14.113
15514W        W83732   0.543  38.140  11.163
15515W        W83733  30.008  40.283   2.803
15516W        W83734  40.886   3.901  13.395
15517W        W83735  35.155   3.301   1.091
15518W        W83736  13.109   7.327  14.437
15519W        W83737  18.244   0.631  12.535
15520W        W83738   2.857  11.540  10.367
15521W        W83739  35.974   8.373   3.627
15522W        W83740  39.254  39.366  11.082
15523W        W83741  43.830  33.025  11.897
15524W        W83742  36.265  39.936   1.367
15525W        W83743  27.724  14.352  12.956
15526W        W83744   4.261  28.852   0.276
15527W        W83745   4.201   4.313  14.491
15528W        W83746   2.174  36.147   3.167
15529W        W83747  22.663   4.554   0.016
15530W        W83748  16.678  40.780   3.345
15531W        W83749  31.026  36.163   3.671
15532W        W83750  35.956  13.371  13.951
15533W        W83751  27.904  12.848   2.246
15534W        W83752  40.286  38.134  13.988
15535W        W83753   6.544  43.752   4.146
15536W        W83754  18.005   5.754  14.850
15537W        W83755  40.329  28.954   4.612
15538W        W83756  23.101   1.725   4.625
15539W        W83757  38.469  19.486  12.577
15540W        W83758   8.206  24.422  14.415
15541W        W83759  31.386   3.428  14.316
15542W        W83760  35.343  22.279  14.633
15543W        W83761  23.245  35.625   4.210
15544W        W83762  41.853  28.638   1.218
15545W        W83763  16.323  23.524   1.829
15546W        W83764  15.430   7.781   0.810
15547W        W83765   6.450  17.710   2.351
15548W        W83766  11.669  33.125   4.558
15549W        W83767  15.719  31.241  10.336
15550W        W83768  38.861  12.287  12.121
15551W        W83769  18.259  30.055  12.439
15552W        W83770   3.932  22.151   0.030
15553W        W83771  10.895   4.120  14.627
15554W        W83772  36.034  20.367  12.377
15555W        W83773  10.903  33.678  14.729
15556W        W83774  26.376   0.989   5.132
15557W        W83775  37.079  24.468  11.173
15558W        W83776  11.593  43.474   4.264
15559W        W83777  30.640  30.922  14.834
15560W        W83778  28.251  26.750   2.291
15561W        W83779  13.880  23.381  12.529
15562W        W83780  27.708   8.301   2.389
15563W        W83781  25.670  20.536  13.983
15564W        W83782  20.261  34.975   1.923
15565W        W83783  28.061  10.124   3.237
15566W        W83784   8.318  31.527   2.466
15567W        W83785  12.595   3.913  10.917
15568W        W83786  16.167   2.829   4.910
15569W        W83787  42.983  40.603   3.266
15570W        W83788   8.627  24.141   3.303
15571W        W83789   7.717   3.397   2.904
15572W        W83790  32.711   0.447   0.753
15573W        W83791  42.477  31.074   2.960
15574W        W83792  40.718   5.880  14.296
15575W        W83793  37.299  26.082   4.881
15576W        W83794   4.610  15.906  10.538
15577W        W83795  43.777  39.443  12.174
15578W        W83796  15.095  21.539   1.516
15579W        W83797  13.673   2.975  13.375
15580W        W83798  20.697  12.592   4.800
15581W        W83799  27.766   0.400   3.739
15582W        W83800  26.078   6.673  14.878
15583W        W83801  37.501  14.365  12.407
15584W        W83802   4.940  42.077   0.914
15585W        W83803   9.208   9.269   0.240
15586W        W83804   1.182   8.924  11.681
15587W        W83805   7.382  11.449  10.744
15588W        W83806   1.634  18.475   0.400
15589W        W83807  25.022  16.772  13.034
15590W        W83808  15.631  27.375  11.595
15591W        W83809  33.571  15.632   0.686
15592W        W83810  22.750   8.917  14.880
15593W        W83811  34.272  27.537   2.707
15594W        W83812  33.180  39.046   3.713
15595W        W83813  24.127  32.638   0.431
15596W        W83814  24.087   4.778   1.486
15597W        W83815  34.299  18.481  12.015
15598W        W83816  15.919  19.474   3.577
15599W        W83817  34.917   5.841  14.557
15600W        W83818  11.575  38.937   3.425
15601W        W83819  15.681   3.397   2.812
15602W        W83820  26.242   7.897   1.264
15603W        W83821  16.405  40.434  11.177
15604W        W83822  31.632  11.854  11.654
15605W        W83823   5.728  26.630  12.129
15606W        W83824  10.876   6.386   2.394
15607W        W83825  25.009  32.469   4.922
15608W        W83826  13.619  27.707  11.959
15609W        W83827   5.605  18.866  12.851
15610W        W83828  32.387  42.603  12.169
15611W        W83829  43.270  19.974  12.104
15612W        W83830  24.222  26.123  11.851
15613W        W83831  40.867  30.092   4.442
15614W        W83832  11.838  19.804   1.386
15615W        W83833   4.154  31.860  11.402
15616W        W83834  41.064  41.780  12.199
15617W        W83835  22.335  42.862  10.313
15618W        W83836  13.134   2.929   2.157
15619W        W83837  30.413  15.223   1.355
15620W        W83838  23.290  10.662  11.508
15621W        W83839  24.141   5.184   1.856
15622W        W83840   2.440  31.406  13.128
15623W        W83841  20.219  25.702   1.987
15624W        W83842   9.933   9.494  12.068
15625W        W83843  15.698  29.132  14.336
15626W        W83844  42.820   3.491   4.332
15627W        W83845   9.291  29.835   4.431
15628W        W83846  31.519  33.542   1.964
15629W        W83847  29.072   9.271  14.270
15630W        W83848  20.199   8.222  10.936
15631W        W83849   3.962  22.740  13.829
15632W        W83850  27.273   9.950  11.169
15633W        W83851   7.799  10.263   2.744
15634W        W83852   0.485  34.889   4.121
15635W        W83853   8.314   8.811   2.781
15636W        W83854  32.988  15.869  12.631
15637W        W83855  29.001   7.917   3.873
15638W        W83856  39.088  37.473   0.943
15639W        W83857   8.462  28.950   3.152
15640W        W83858  44.746  27.051  13.539
15641W        W83859  39.861  32.059   0.253
15642W        W83860  36.403  10.091   4.838
15643W        W83861  26.697  12.088   4.572
15644W        W83862  38.766  20.138  13.009
15645W        W83863  39.816   0.427   1.407
15646W        W83864  37.326  14.156   1.866
15647W        W83865  35.877  11.676  14.475
15648W        W83866  43.478  40.782   2.655
15649W        W83867   4.898  33.705  14.645
15650W        W83868  14.294  11.615   3.322
15651W        W83869  20.241  38.596   5.073
15652W        W83870  11.160  41.964  13.539
15653W        W83871  18.510   4.883   1.320
15654W        W83872   0.638  31.720  12.064
15655W        W83873  22.239  32.205  12.283
15656W        W83874  41.732   8.216  14.786
15657W        W83875  36.598  17.689  14.049
15658W        W83876  33.334  30.078   4.583
15659W        W83877   8.432  28.105  11.494
15660W        W83878   8.776  17.240  11.601
15661W        W83879  25.200  16.666   3.855
15662W        W83880  32.214  44.015   0.837
15663W        W83881   6.798  31.484   2.860
15664W        W83882  40.525   1.147   1.823
15665W        W83883  12.723  23.085   2.300
15666W        W83884  44.228  12.711  12.666
15667W        W83885  29.932  10.502  11.841
15668W        W83886  39.900  41.151   4.748
15669W        W83887  13.118  32.835   3.590
15670W        W83888  33.033  44.547   0.452
15671W        W83889  31.289  17.835   3.190
15672W        W83890  18.201   8.175   2.780
15673W        W83891  36.443  34.422  14.342
15674W        W83892   5.438  30.534  12.882
15675W        W83893  17.560  18.971  10.677
15676W        W83894  34.076  13.380   3.653
15677W        W83895  21.593  25.703  13.899
15678W        W83896  31.905  16.199  10.823
15679W        W83897  28.555  11.175  12.317
15680W        W83898   1.777   5.440   0.266
15681W        W83899   8.904   5.821  10.698
15682W        W83900  36.947  16.689  13.365
15683W        W83901  44.767  29.433   3.175
15684W        W83902   7.630   3.834  10.580
15685W        W83903  14.841   3.415   3.254
15686W        W83904  25.978  29.144  12.814
15687W        W83905  38.353   3.195   0.948
15688W        W83906  20.584   3.398   1.294
15689W        W83907   5.925  34.427   2.588
15690W        W83908  16.698  12.055  14.974
15691W        W83909  43.286   9.733   0.366
15692W        W83910  35.628  25.064   2.223
15693W        W83911  28.913  29.922  11.198
15694W        W83912  17.098   1.335   3.124
15695W        W83913   0.805   9.502   3.826
15696W        W83914  27.165  21.093  14.363
15697W        W83915  30.389  12.236   0.830
15698W        W83916  35.365   2.928  12.661
15699W        W83917  36.632   4.998  14.161
15700W        W83918  23.424  34.302   0.061
15701W        W83919  14.173   0.798   4.548
15702W        W83920   5.868  19.552   0.609
15703W        W83921  23.450  41.205   0.502
15704W        W83922  13.361  39.713   1.286
15705W        W83923  23.742  19.627   1.833
15706W        W83924  25.994  27.475   4.085
15707W        W83925  28.986   9.154  14.767
15708W        W83926  29.636  29.408   0.361
15709W        W83927   2.026  43.394   3.289
15710W        W83928  36.020  30.216   0.274
15711W        W83929  33.544  35.006  14.080
15712W        W83930  20.098  22.634  10.706
15713W        W83931   1.333   9.871   0.263
15714W        W83932  37.557  20.663  13.059
15715W        W83933  36.378  18.393   1.025
15716W        W83934   4.414   7.857   0.868
15717W        W83935  39.318   3.202  12.427
15718W        W83936   8.426  19.570  13.502
15719W        W83937   6.330  14.870   3.268
15720W        W83938  22.187  36.380  11.350
15721W        W83939   4.392  16.607   0.923
15722W        W83940  23.230  19.734   2.707
15723W        W83941  17.101  44.913   9.867
15724W        W83942   0.960  19.551  13.220
15725W        W83943  24.062  43.523  12.321
15726W        W83944  25.275   5.832  13.499
15727W        W83945  22.966  39.244   3.202
15728W        W83946  14.214  25.193  14.094
15729W        W83947  20.343  13.191   1.626
15730W        W83948  37.250  41.078  10.424
15731W        W83949  24.575  13.072   3.283
15732W        W83950   1.372  31.492  12.576
15733W        W83951   2.179  36.081  13.888
15734W        W83952   9.608  30.001  13.494
15735W        W83953   1.517  13.296  11.602
15736W        W83954   3.980   0.659   4.204
15737W        W83955   0.227  31.422   3.711
15738W        W83956  24.219  10.349   4.084
15739W        W83957  41.829  34.563  12.071
15740W        W83958   3.878  22.880  10.243
15741W        W83959  33.802   7.161   0.214
15742W        W83960   5.158  35.632   1.881
15743W        W83961  17.708  16.227  13.345
15744W        W83962   3.161  37.600  14.999
15745W        W83963  24.587  27.686   2.139
15746W        W83964  39.929  27.873  11.132
15747W        W83965   9.719  35.526  11.971
15748W        W83966   5.008   7.691  12.607
15749W        W83967   2.310  23.109   0.035
15750W        W83968  25.654  12.118  12.043
15751W        W83969  19.218  16.896   2.410
15752W        W83970   9.853  23.727  13.652
15753W        W83971  13.896  42.599   0.360
15754W        W83972  28.651   0.034   1.829
15755W        W83973  11.257  15.162  12.454
15756W        W83974   7.162  11.800  13.715
15757W        W83975  11.605  15.641   3.890
15758W        W83976  28.427   9.940  12.862
15759W        W83977  41.033  16.925   0.717
15760W        W83978   5.871   2.300   0.187
15761W        W83979  12.823  13.802   2.140
15762W        W83980  43.423   4.956   2.344
15763W        W83981  40.197  41.492  10.795
15764W        W83982  24.116  39.100  10.645
15765W        W83983   0.343  36.107  12.911
15766W        W83984   1.292  33.555  11.061
15767W        W83985   9.031  30.815  11.016
15768W        W83986   1.029  18.210  10.102
15769W        W83987   1.049  36.302   4.124
15770W        W83988  44.844   2.046  13.795
15771W        W83989  44.537  33.623  13.489
15772W        W83990   2.686  26.514  11.961
15773W        W83991  43.103  12.752   1.419
15774W        W83992  24.466  14.077   3.198
15775W        W83993  42.373  20.281   0.716
15776W        W83994  19.281   2.373  11.556
15777W        W83995  13.098  41.492  13.056
15778W        W83996   3.859  40.301  13.608
15779W        W83997  20.504  17.166   3.190
15780W        W83998  17.745   6.014   0.271
15781W        W83999   3.570  18.763  11.228
15782W        W84000  32.878  29.660  10.215
15783W        W84001  37.544  28.573  13.787
15784W        W84002  40.385  36.090  14.923
15785W        W84003  44.782   6.147   4.533
15786W        W84004  10.131  16.041   2.274
15787W        W84005   8.373  19.293   4.825
15788W        W84006  25.405  13.173  13.114
15789W        W84007  39.516  41.742  10.731
15790W        W84008  34.662  25.749  13.650
15791W        W84009  38.044  44.438  12.487
15792W        W84010  37.623   9.037   1.786
15793W        W84011  44.686  32.734   0.356
15794W        W84012  22.873  43.498   2.849
15795W        W84013  21.767  27.072  13.123
15796W        W84014  16.779   8.804   2.211
15797W        W84015  13.570  28.901   3.639
15798W        W84016  12.888   5.891  11.465
15799W        W84017  31.991  42.569   0.385
15800W        W84018  11.626  40.137   2.868
15801W        W84019  29.139  22.627   3.897
15802W        W84020  10.412  25.162  11.592
15803W        W84021   2.031  36.075  12.139
15804W        W84022  33.894  31.714   0.744
15805W        W84023  38.501   8.628  11.516
15806W        W84024   9.512  25.572   3.134
15807W        W84025  20.018   7.661  13.535
15808W        W84026   0.265  42.058   3.682
15809W        W84027  31.620  40.539   1.508
15810W        W84028  37.593   6.593  14.481
15811W        W84029  43.056  23.475   0.333
15812W        W84030  31.097  14.838   1.895
15813W        W84031   8.675  24.556  14.257
15814W        W84032  15.490   8.741  14.884
15815W        W84033  40.395   5.295  14.901
15816W        W84034   2.309  24.854   1.160
15817W        W84035   3.330   2.272  11.632
15818W        W84036  34.123  17.259  11.080
15819W        W84037  13.044   7.260  13.427
15820W        W84038  10.835  42.957  10.713
15821W        W84039   4.923   1.990  11.126
15822W        W84040   8.434   1.582  13.952
15823W        W84041  21.586  39.939   1.246
15824W        W84042  28.274  17.243  14.016
15825W        W84043  26.733  26.423  10.315
15826W        W84044  20.216  19.972  12.409
15827W        W84045   0.458   6.003  11.875
15828W        W84046  22.584  27.894   0.841
15829W        W84047  26.441  11.303   0.309
15830W        W84048  18.758  19.870  11.032
15831W        W84049  23.639   9.392   2.312
15832W        W84050  24.622   9.108   2.486
15833W        W84051  26.830  30.539   2.292
15834W        W84052   1.603  20.534   3.253
15835W        W84053  25.005  37.980   1.149
15836W        W84054   9.391  32.205   4.165
15837W        W84055  28.188  20.661   4.211
15838W        W84056  24.175  15.226  10.411
15839W        W84057   9.842   7.189  14.966
15840W        W84058  36.850  22.547   4.008
15841W        W84059  29.111  20.287   4.323
15842W        W84060   9.765   3.270  14.565
15843W        W84061  16.142   2.006   3.818
15844W        W84062  22.038  30.181   3.156
15845W        W84063   5.983  36.675  10.659
15846W        W84064  33.575  29.175  11.442
15847W        W84065  30.081  41.112   4.549
15848W        W84066   4.768   2.287  11.523
15849W        W84067   7.951  37.419   1.860
15850W        W84068  43.324  41.497   2.326
15851W        W84069  16.653  14.758  14.213
15852W        W84070  29.401   8.752  10.717
15853W        W84071  42.936  36.565   1.275
15854W        W84072  41.874  34.497  11.553
15855W        W84073  33.719  15.736  13.705
15856W        W84074  31.713  27.202   5.499
15857W        W84075  40.037   4.752   1.579
15858W        W84076  35.315   8.367   1.577
15859W        W84077   6.764  18.495  10.704
15860W        W84078  22.944  37.865  13.867
15861W        W84079  19.692   6.468  12.146
15862W        W84080  18.766   4.145   4.216
15863W        W84081  10.292  10.068  10.764
15864W        W84082  32.162   5.491   4.487
15865W        W84083  18.688  38.372  11.490
15866W        W84084  41.296  26.918   1.833
15867W        W84085  27.765  15.230  14.812
15868W        W84086  43.627  42.029  14.248
15869W        W84087   8.668   1.785   0.546
15870W        W84088  12.792  14.885  14.775
15871W        W84089  25.524   9.791  14.254
15872W        W84090   7.402  21.649   0.996
15873W        W84091  33.157  32.265   0.730
15874W        W84092  13.248   8.228  12.958
15875W        W84093  10.573  30.388  14.433
15876W        W84094  29.532  10.155  10.429
15877W        W84095  42.571  31.344   0.348
15878W        W84096   2.354  20.970   4.478
15879W        W84097  30.973  30.852   1.800
15880W        W84098  38.573  19.598   1.502
15881W        W84099  41.302  13.816   0.002
15882W        W84100   4.201  24.245  14.773
15883W        W84101  30.603  43.478   3.631
15884W        W84102  38.811  28.937  14.022
15885W        W84103  23.958  25.732  10.657
15886W        W84104   9.086  21.423   3.141
15887W        W84105  42.577  40.546   0.236
15888W        W84106  37.367  36.949  14.988
15889W        W84107  17.919   0.834  10.215
15890W        W84108  35.139  26.193  12.048
15891W        W84109   9.539   2.870  14.831
15892W        W84110  42.321  12.222  14.934
15893W        W84111  21.867  42.205   1.881
15894W        W84112   9.665  33.576  12.178
15895W        W84113   7.265  33.656   0.869
15896W        W84114  14.352   7.869   2.728
15897W        W84115  23.515  29.463   2.835
15898W        W84116   5.520  40.972  14.903
15899W        W84117  29.088  16.592   3.195
15900W        W84118  37.036  22.489   1.346
15901W        W84119  31.035  15.067   1.384
15902W        W84120  20.232  12.313   2.706
15903W        W84121  25.502  35.836   4.163
15904W        W84122  38.142  21.140   3.398
15905W        W84123  23.817   3.504  13.437
15906W        W84124  19.707  20.839   0.703
15907W        W84125  43.788  18.997  12.640
15908W        W84126  31.928  23.175   1.807
15909W        W84127   5.322  18.864   0.564
15910W        W84128  20.366  10.858  11.127
15911W        W84129  41.489   4.903  13.928
15912W        W84130  20.981  41.564  11.289
15913W        W84131   5.180  21.738  11.025
15914W        W84132   9.824   5.809   1.867
15915W        W84133   3.861  26.081   1.690
15916W        W84134   0.540  13.620   3.243
15917W        W84135  43.683  44.268  13.936
15918W        W84136  39.980  39.246   0.303
15919W        W84137  11.690   7.425   4.035
15920W        W84138  21.292  29.198   3.845
15921W        W84139  32.015   3.727  12.992
15922W        W84140  13.548  30.057   0.400
15923W        W84141  26.465  30.483  14.555
15924W        W84142  34.723  36.160   1.211
15925W        W84143  20.851  36.611   4.218
15926W        W84144  40.994  35.818   3.748
15927W        W84145  14.753  27.696   4.117
15928W        W84146   5.490   1.136   2.355
15929W        W84147  23.595  25.487   4.314
15930W        W84148  37.347  19.993  14.939
15931W        W84149   6.333  33.140   0.940
15932W        W84150  27.839  30.346  13.035
15933W        W84151   6.441  33.381   3.274
15934W        W84152  29.656  29.982  13.026
15935W        W84153   5.219  24.548  10.715
15936W        W84154  37.328  31.499  10.900
15937W        W84155  28.630  38.268   1.434
15938W        W84156   1.814  41.585   3.450
15939W        W84157  15.125  37.028   2.152
15940W        W84158  10.849  38.856   3.619
15941W        W84159  41.381  38.259   2.907
15942W        W84160   6.816   2.319   2.762
15943W        W84161  36.911   5.230   0.259
15944W        W84162  33.561  15.368   4.914
15945W        W84163  29.757  32.385  10.317
15946W        W84164  36.123   4.885  11.921
15947W        W84165  41.374  19.269   0.187
15948W        W84166  14.705  17.046  14.522
15949W        W84167  38.616  32.501   1.240
15950W        W84168  25.680  23.280  14.067
15951W        W84169  35.060   3.459   5.666
15952W        W84170  41.419  33.057   4.423
15953W        W84171  10.355  44.038  11.126
15954W        W84172  27.499  20.619  10.633
15955W        W84173  36.384  13.730   2.679
15956W        W84174   6.049  19.918  14.438
15957W        W84175   7.047  25.459   4.515
15958W        W84176  39.226  21.032  10.988
15959W        W84177  24.725  12.183  14.283
15960W        W84178  25.601   7.641   0.703
15961W        W84179  26.525  34.918  12.529
15962W        W84180   0.474  42.715  14.927
15963W        W84181   0.278   1.795   3.817
15964W        W84182   1.520   1.865   1.289
15965W        W84183   7.339  39.060  13.166
15966W        W84184   7.558   9.300   2.853
15967W        W84185   0.308  19.311   1.739
15968W        W84186  24.458  30.067  11.618
15969W        W84187   6.851  32.581   4.243
15970W        W84188  11.782  11.309  12.663
15971W        W84189  42.872  28.258   3.695
15972W        W84190  18.045  12.821   1.352
15973W        W84191  39.625   5.420  12.081
15974W        W84192  33.387  14.380   4.352
15975W        W84193  21.571  31.934   0.832
15976W        W84194  34.042   7.425  14.823
15977W        W84195  41.990  36.331   3.205
15978W        W84196  41.352  35.820  11.421
15979W        W84197  32.920  23.312   4.205
15980W        W84198   5.838  37.381  12.799
15981W        W84199  13.795   1.126  12.125
15982W        W84200  33.435  15.973   1.396
15983W        W84201  11.894  19.047   0.109
15984W        W84202  23.106  31.908  14.378
15985W        W84203  40.861  17.784   3.354
15986W        W84204  42.897  15.492  14.763
15987W        W84205  34.339  14.851   3.723
15988W        W84206  21.601  43.775   3.287
15989W        W84207  15.604   6.529  14.878
15990W        W84208  37.698  40.097  12.582
15991W        W84209  39.496  44.412  12.455
15992W        W84210  44.769  29.028  11.595
15993W        W84211  10.869  15.207  13.135
15994W        W84212   5.430  35.846  11.975
15995W        W84213   7.850  32.940   1.308
15996W        W84214  38.525  37.166   1.878
15997W        W84215  26.708  32.925   2.027
15998W        W84216   8.953  12.585  12.005
15999W        W84217  42.841  29.243   3.762
16000W        W84218  21.277   0.995  13.418
16001W        W84219   4.230   3.329  11.507
16002W        W84220  13.816   4.479  13.424
16003W        W84221  44.776   8.068   1.834
16004W        W84222  10.883  12.130  10.890
16005W        W84223  32.544  22.642  11.898
16006W        W84224  36.169  32.395   1.898
16007W        W84225  16.298  37.958   0.479
16008W        W84226  15.674  16.232  10.243
16009W        W84227  40.130  20.303  13.859
16010W        W84228  11.763  29.710   2.871
16011W        W84229   5.794  20.471  13.096
16012W        W84230  44.055  38.013  12.782
16013W        W84231  11.341  12.254   1.712
16014W        W84232   4.487   8.257   1.734
16015W        W84233   4.099  34.021   0.048
16016W        W84234  14.403  29.445   3.639
16017W        W84235  18.210   2.744  12.579
16018W        W84236  37.576  42.980   3.801
16019W        W84237  19.278  16.574   1.678
16020W        W84238  41.982  44.365   3.606
16021W        W84239   6.826  39.394   5.222
16022W        W84240  13.434  40.067   0.733
16023W        W84241  31.796   3.062   1.855
16024W        W84242  28.677  38.466   4.705
16025W        W84243  19.084   6.952  14.196
16026W        W84244   6.880  34.607  11.627
16027W        W84245  19.789  43.551   4.125
16028W        W84246   7.105   1.254   0.832
16029W        W84247  19.270   8.767   2.639
16030W        W84248  27.887  17.371  12.191
16031W        W84249  43.459   8.150  14.291
16032W        W84250  30.910  18.185   3.232
16033W        W84251  33.610  14.252   2.626
16034W        W84252  13.862   1.653   4.576
16035W        W84253  32.957   2.414  13.093
16036W        W84254  24.472  37.999  14.751
16037W        W84255  19.255   2.378   1.773
16038W        W84256  27.656   9.409  14.854
16039W        W84257   7.246  36.745  12.450
16040W        W84258   9.143  32.470   1.327
16041W        W84259   8.786  19.042   3.586
16042W        W84260  18.755  11.111   3.991
16043W        W84261   9.140  43.064   3.680
16044W        W84262  16.719  17.942   2.596
16045W        W84263  33.185  35.467  10.273
16046W        W84264  34.779  44.410   2.172
16047W        W84265  23.644  20.072   0.612
16048W        W84266  39.180  31.462   0.862
16049W        W84267  35.912  20.070   4.946
16050W        W84268  30.185   4.876  12.019
16051W        W84269   4.834  30.587   2.105
16052W        W84270  21.496  27.625  14.535
16053W        W84271  15.753  11.937  11.520
16054W        W84272  42.306   2.019   3.289
16055W        W84273   4.301  31.500   1.826
16056W        W84274  24.278  34.909  10.937
16057W        W84275  44.474  26.037   3.319
16058W        W84276  40.511  31.354   0.671
16059W        W84277   2.339  38.960  14.997
16060W        W84278  44.354  27.180  14.090
16061W        W84279  37.349  43.401  14.266
16062W        W84280  12.381  33.330  14.428
16063W        W84281  38.811  41.241  13.390
16064W        W84282  10.870  30.444  11.939
16065W        W84283  25.990  20.526   3.779
16066W        W84284   4.831  15.418   0.285
16067W        W84285  39.317  37.830  14.418
16068W        W84286  20.004  18.499  11.517
16069W        W84287  30.589   8.164   1.218
16070W        W84288  40.338  25.199   0.907
16071W        W84289  37.216  33.477  11.175
16072W        W84290   4.297  40.322  10.194
16073W        W84291  19.841  31.551  12.833
16074W        W84292   1.053  27.559  14.723
16075W        W84293  39.975  31.811   4.057
16076W        W84294   7.160   4.419   0.222
16077W        W84295  40.512   8.491  10.786
16078W        W84296  22.243   6.363   3.129
16079W        W84297  22.992   5.388   1.107
16080W        W84298  39.751   7.421  11.123
16081W        W84299  25.526  27.091  13.115
16082W        W84300  32.529  43.573  12.869
16083W        W84301  29.547  13.845  10.760
16084W        W84302  42.150  21.518  12.683
16085W        W84303  24.064  33.678   1.476
16086W        W84304  14.234  36.444   4.519
16087W        W84305  34.597  41.503   2.771
16088W        W84306  15.594   6.923   4.173
16089W        W84307  16.834   9.788   3.370
16090W        W84308  14.047  12.682  13.441
16091W        W84309  10.735   6.675  13.007
16092W        W84310  32.951   9.696   1.767
16093W        W84311  39.765  32.660  14.762
16094W        W84312  21.702  19.148   3.302
16095W        W84313   2.189   9.127   3.898
16096W        W84314  35.144   9.585   1.151
16097W        W84315  22.721  21.685   1.863
16098W        W84316  30.549  31.798   9.936
16099W        W84317   9.249  22.311  10.997
16100W        W84318  13.614  15.737  11.447
16101W        W84319  16.015  38.521  14.729
16102W        W84320  17.527  18.188  11.873
16103W        W84321   7.884  19.854   2.815
16104W        W84322   3.373  24.094   1.707
16105W        W84323  10.075  40.482   2.452
16106W        W84324  35.509  38.847  14.797
16107W        W84325   6.520   9.852  12.006
16108W        W84326   5.984   5.298   3.166
16109W        W84327  33.228  41.408  13.882
16110W        W84328  27.056   3.229   1.963
16111W        W84329  31.521  34.860  11.123
16112W        W84330  19.507  17.091  14.376
16113W        W84331  12.925  20.639   1.253
16114W        W84332   3.655  37.504  14.824
16115W        W84333  13.377   8.184   4.535
16116W        W84334  17.294  15.405   3.802
16117W        W84335  15.570  19.637  14.328
16118W        W84336  26.527  14.789  13.814
16119W        W84337  39.589  29.117   1.389
16120W        W84338  22.578  30.506  14.045
16121W        W84339   1.867   5.843  13.302
16122W        W84340   5.797   5.240   1.398
16123W        W84341  25.244  31.445   0.767
16124W        W84342  24.543  24.579   2.476
16125W        W84343   7.392  30.164  14.062
16126W        W84344   7.842  43.213   3.132
16127W        W84345   0.807   8.290  14.404
16128W        W84346   6.342  31.199   4.738
16129W        W84347   4.690  43.701  14.789
16130W        W84348  24.655  15.205  11.205
16131W        W84349  10.771   8.756   4.839
16132W        W84350  29.187   5.837   4.635
16133W        W84351  21.141  12.119   1.795
16134W        W84352  15.246  40.629  10.676
16135W        W84353  20.548  21.617  11.642
16136W        W84354   9.182   6.409   1.850
16137W        W84355  29.356   5.860   2.168
16138W        W84356   3.422  13.690  13.834
16139W        W84357   4.024  40.799  14.864
16140W        W84358  33.184   5.762   2.842
16141W        W84359  21.786   8.878   0.259
16142W        W84360  26.884  24.049   0.431
16143W        W84361  30.079  19.824  14.937
16144W        W84362  16.704  28.005   4.120
16145W        W84363  14.247  11.383  13.859
16146W        W84364   6.751  32.676  12.124
16147W        W84365  23.810  34.478   3.306
16148W        W84366  11.255  14.327  12.029
16149W        W84367  14.143  39.772  11.240
16150W        W84368  38.891  17.749  12.826
16151W        W84369  28.238  16.795   0.360
16152W        W84370  34.929   7.607   5.044
16153W        W84371  42.519  21.231  11.370
16154W        W84372  10.839   0.783  14.759
16155W        W84373  27.330  28.622   3.849
16156W        W84374  38.322  20.069   2.476
16157W        W84375  34.167  34.714   1.855
16158W        W84376   7.258   9.872  12.899
16159W        W84377  26.860  19.291   4.698
16160W        W84378   9.436  44.005  12.842
16161W        W84379   9.411   1.331   0.485
16162W        W84380  38.659  12.799   0.711
16163W        W84381  40.229  44.207   0.699
16164W        W84382  35.557  26.491   3.045
16165W        W84383  10.143  36.422   4.228
16166W        W84384  32.346   1.842  10.715
16167W        W84385  31.511   0.889  14.473
16168W        W84386  26.319   1.329  12.952
16169W        W84387  26.208  38.169  12.308
16170W        W84388   9.626  28.540  14.432
16171W        W84389   6.666   6.286   2.334
16172W        W84390  13.371  41.307  10.743
16173W        W84391  13.703  14.689  11.451
16174W        W84392  30.985   6.196   3.177
16175W        W84393  27.725   6.827  11.293
16176W        W84394   6.488   1.020  12.900
16177W        W84395  31.704  23.063  13.485
16178W        W84396   3.373  29.395  10.778
16179W        W84397  32.701  15.238  14.427
16180W        W84398   8.312  40.585   3.135
16181W        W84399   8.433  28.711  12.037
16182W        W84400   9.687   9.825  13.353
16183W        W84401  25.123  41.250  10.743
16184W        W84402  42.915  36.817  14.307
16185W        W84403   2.893   6.735   0.674
16186W        W84404   5.862   1.888   4.821
16187W        W84405  36.673  44.803   0.922
16188W        W84406  23.662   4.102  11.731
16189W        W84407  20.433  41.319   4.137
16190W        W84408  29.211   5.201   2.877
16191W        W84409  12.510  27.520  11.587
16192W        W84410  19.218  30.854  11.056
16193W        W84411  23.549  11.728  14.905
16194W        W84412  14.399  18.714   2.791
16195W        W84413  38.459  31.438  10.622
16196W        W84414  39.615  21.763   3.202
16197W        W84415   2.425  19.230   2.732
16198W        W84416   0.180  20.868   4.232
16199W        W84417  43.029   4.774   4.647
16200W        W84418  12.347  34.304  12.261
16201W        W84419   6.398  30.052  12.361
16202W        W84420  39.096  43.557  14.935
16203W        W84421  36.912  30.396  14.730
16204W        W84422  10.787  32.116   3.795
16205W        W84423  36.849  39.845   0.356
16206W        W84424  11.303  13.721   4.195
16207W        W84425  44.981  41.036  12.885
16208W        W84426  32.135  12.773   1.808
16209W        W84427  31.121  25.432   1.506
16210W        W84428  42.797   5.490   1.845
16211W        W84429  41.832  22.023   1.613
16212W        W84430  33.837   1.900   2.809
16213W        W84431  34.085  44.996  14.847
16214W        W84432  43.050  38.367   2.468
16215W        W84433  10.699  18.355   0.347
16216W        W84434  24.492  41.411   3.513
16217W        W84435  37.940  35.193  14.828
16218W        W84436  30.484  41.386   1.848
16219W        W84437  18.553  40.293   4.743
16220W        W84438  21.691  20.304  14.089
16221W        W84439   8.363  25.460   0.336
16222W        W84440  43.539  11.647  11.494
16223W        W84441  20.193  21.828  12.869
16224W        W84442   0.683   1.813  14.094
16225W        W84443   4.932  39.242   3.254
16226W        W84444  35.049  38.900   2.117
16227W        W84445   3.062  25.705  13.034
16228W        W84446  42.970  26.628   0.345
16229W        W84447  43.488  21.661  13.084
16230W        W84448   8.617  26.257  14.422
16231W        W84449  36.403  18.520   1.537
16232W        W84450  33.072  13.383   3.605
16233W        W84451  28.580  13.322   2.589
16234W        W84452  24.143  38.391  14.853
16235W        W84453  11.810  35.993   4.971
16236W        W84454  31.885  26.132  10.768
16237W        W84455  42.319  10.227   4.415
16238W        W84456  29.849  14.745   2.168
16239W        W84457  19.755  13.829  12.307
16240W        W84458  24.754  32.057  10.697
16241W        W84459  15.744   5.261  13.167
16242W        W84460  36.699  29.139  13.393
16243W        W84461  21.705  25.469  11.485
16244W        W84462   9.181   2.690   1.330
16245W        W84463  19.284  26.641   2.823
16246W        W84464  38.635   3.701  12.844
16247W        W84465  12.289   4.309   3.321
16248W        W84466  42.791   3.306   2.282
16249W        W84467   2.806  30.590   4.169
16250W        W84468  12.574   0.783   2.714
16251W        W84469  14.701  43.746   4.550
16252W        W84470  33.214  20.561  13.904
16253W        W84471  18.880  15.942  13.578
16254W        W84472   2.968  40.912   0.925
16255W        W84473  15.830   8.202  12.925
16256W        W84474  34.080  27.404  13.034
16257W        W84475  19.505  20.256   1.264
16258W        W84476  41.790   2.854  10.933
16259W        W84477  12.359  28.847  12.071
16260W        W84478  27.559  38.909  10.336
16261W        W84479  11.804  12.291  11.117
16262W        W84480   3.266  17.693   2.745
16263W        W84481  35.576  28.551  14.962
16264W        W84482  43.987  44.440  13.547
16265W        W84483  12.748  25.560  14.352
16266W        W84484  24.441  11.668  11.150
16267W        W84485  29.039  32.608   4.634
16268W        W84486  19.960  29.091  14.480
16269W        W84487  36.385  25.404  12.594
16270W        W84488  41.395  25.114  14.811
16271W        W84489  19.580   0.179  11.116
16272W        W84490   4.217  20.326  11.597
16273W        W84491  20.013  12.034   2.295
16274W        W84492  38.605  30.336  13.417
16275W        W84493  42.504  16.852  10.797
16276W        W84494  42.778  44.886   0.762
16277W        W84495  19.254  41.558  13.757
16278W        W84496  11.089  26.262  10.697
16279W        W84497  14.213  26.449  13.993
16280W        W84498   6.283  39.281  11.304
16281W        W84499  14.188  15.119  10.913
16282W        W84500   9.748  20.728  12.086
16283W        W84501  21.582   3.561  10.639
16284W        W84502  32.846  41.058  10.994
16285W        W84503  20.830  32.930  13.021
16286W        W84504  36.977   7.320  12.963
16287W        W84505  16.701  25.491   1.568
16288W        W84506  44.291  29.967  12.965
16289W        W84507  28.862   5.222   1.085
16290W        W84508   5.498  17.809  13.871
16291W        W84509  15.049   0.447  14.937
16292W        W84510  35.171  32.363  11.549
16293W        W84511  38.463   6.574   5.039
16294W        W84512  30.068  20.204   3.836
16295W        W84513  41.001  14.354   0.760
16296W        W84514  29.228  36.547   1.781
16297W        W84515   8.217  15.673  14.846
16298W        W84516  38.309  21.640   1.058
16299W        W84517  42.636  19.037   3.218
16300W        W84518  42.046   5.466   2.595
16301W        W84519  42.827  14.515  13.278
16302W        W84520  39.824  28.506   3.013
16303W        W84521  21.925   2.242   2.815
16304W        W84522  29.169  15.303  11.462
16305W        W84523  36.947  21.153  12.106
16306W        W84524  42.076   3.707   2.695
16307W        W84525  13.793  38.333   2.853
16308W        W84526   8.532  32.330  13.961
16309W        W84527  25.225   1.039  13.352
16310W        W84528  26.854  37.908   1.753
16311W        W84529  20.088  18.158   4.201
16312W        W84530   4.497  16.036  12.124
16313W        W84531  10.066   4.305   4.259
16314W        W84532  40.261  24.511   2.664
16315W        W84533  42.580   5.434  14.968
16316W        W84534   1.924   6.681   3.135
16317W        W84535   1.937  19.246  11.373
16318W        W84536  26.417  43.474   1.435
16319W        W84537  19.437  20.145  12.901
16320W        W84538  32.118  34.007  11.001
16321W        W84539   0.044  24.803   4.982
16322W        W84540  14.203  28.725  14.845
16323W        W84541  22.586   1.307  10.212
16324W        W84542  11.439  31.024  11.512
16325W        W84543   6.787  24.415  12.076
16326W        W84544  26.421   4.352  11.935
16327W        W84545  36.485   6.276   0.624
16328W        W84546  14.540   5.723   2.868
16329W        W84547  29.831  34.837  11.943
16330W        W84548  11.780  28.033   3.866
16331W        W84549  23.223  33.520  10.044
16332W        W84550  21.482   0.458   1.290
16333W        W84551  11.583  17.999   2.298
16334W        W84552  33.535  33.349   3.624
16335W        W84553  17.846   2.360   1.806
16336W        W84554  33.535  10.399   0.332
16337W        W84555   9.734  36.545  14.902
16338W        W84556   6.816  34.933   1.722
16339W        W84557  27.302  31.610   0.419
16340W        W84558  15.841  25.191  11.151
16341W        W84559  14.937  15.791   2.865
16342W        W84560  27.411  33.550  12.078
16343W        W84561   8.270  33.638   3.629
16344W        W84562  36.602  17.586   1.271
16345W        W84563  30.059   2.155   2.238
16346W        W84564  12.592  37.305   3.323
16347W        W84565  44.726  27.552   1.968
16348W        W84566  11.614  25.730  14.943
16349W        W84567  24.034  27.977   1.684
16350W        W84568  29.607   9.169  13.416
16351W        W84569  42.781  16.550  11.964
16352W        W84570  30.266  14.853  12.518
16353W        W84571  32.421  38.969   1.854
16354W        W84572  12.872   6.270  11.111
16355W        W84573  42.050  30.919  10.751
16356W        W84574  27.565  42.197  14.796
16357W        W84575  25.414  21.798  12.398
16358W        W84576   9.770  44.266   2.650
16359W        W84577  22.118  41.795   1.629
16360W        W84578  25.703  36.990   1.517
16361W        W84579  38.901  44.594   0.813
16362W        W84580   9.099  33.092   0.930
16363W        W84581  32.539  29.161   3.864
16364W        W84582  37.042  20.119   0.656
16365W        W84583   9.814  22.035   2.709
16366W        W84584  15.872  39.595   3.204
16367W        W84585  41.857   6.217  10.969
16368W        W84586  17.600  38.396  14.767
16369W        W84587   1.959  31.331   1.233
16370W        W84588  13.556   8.393   0.758
16371W        W84589  31.826  16.235   5.726
16372W        W84590  43.002  44.511   4.681
16373W        W84591  33.999  39.099   0.202
16374W        W84592  43.536  40.518   0.428
16375W        W84593  17.875  14.505  11.808
16376W        W84594  32.170   3.844  12.429
16377W        W84595   0.309  44.863  12.577
16378W        W84596  26.410  13.076   2.979
16379W        W84597  22.063   0.237  13.526
16380W        W84598  40.280  35.526  12.031
16381W        W84599  38.253  44.754  14.665
16382W        W84600  31.918  33.543   1.358
16383W        W84601   1.618  30.645  11.628
16384W        W84602  44.412   4.336   4.094
16385W        W84603   8.410  14.693  13.506
16386W        W84604  35.490  15.351   1.694
16387W        W84605   8.394  36.350  14.779
16388W        W84606  16.496   3.692  13.401
16389W        W84607   4.859  22.460  14.991
16390W        W84608  14.930  14.556  10.882
16391W        W84609  39.433  25.178   2.351
16392W        W84610  20.537  21.089   1.239
16393W        W84611  24.138  36.385  10.400
16394W        W84612  33.256  20.384  10.966
16395W        W84613  20.535  22.764  11.847
16396W        W84614  13.131  42.311   3.044
16397W        W84615  42.475  36.421  11.586
16398W        W84616  11.329   8.271   4.950
16399W        W84617  26.158  14.631   3.267
16400W        W84618   5.801   9.950  13.596
16401W        W84619  39.509  13.231   0.488
16402W        W84620  42.716  13.625   1.297
16403W        W84621  20.743   8.270  14.494
16404W        W84622  11.391  41.048  14.072
16405W        W84623   3.501  11.268   0.941
16406W        W84624  18.124   7.881  11.622
16407W        W84625  25.594   8.210   2.830
16408W        W84626  44.208   9.741  11.988
16409W        W84627  35.676  32.932   4.060
16410W        W84628   3.514  21.644   1.280
16411W        W84629  32.375  28.891   0.826
16412W        W84630   5.065  16.640   5.144
16413W        W84631  13.225  33.767  11.475
16414W        W84632  23.065  17.266   4.180
16415W        W84633  42.101  16.818   4.259
16416W        W84634  35.845   3.890  12.499
16417W        W84635   2.817  23.942   3.283
16418W        W84636  20.203  17.613   4.521
16419W        W84637  35.401   3.904  10.153
16420W        W84638   8.880  36.050   3.159
16421W        W84639   5.692  23.965   3.028
16422W        W84640  15.909  16.619   1.898
16423W        W84641  25.770  38.367   4.129
16424W        W84642  23.227   1.468  11.264
16425W        W84643  19.253  16.897  12.490
16426W        W84644  41.861   8.539  10.734
16427W        W84645   9.122  36.671  11.190
16428W        W84646   4.276  26.583  11.183
16429W        W84647  23.500  12.769   3.898
16430W        W84648  15.999  20.174  12.198
16431W        W84649   1.575  18.885  12.095
16432W        W84650  29.612  20.823   4.681
16433W        W84651  33.755  12.560   1.280
16434W        W84652   1.366  33.366  10.578
16435W        W84653  38.261  32.023  13.266
16436W        W84654  19.013   7.686   2.301
16437W        W84655  10.793  29.491  14.527
16438W        W84656  15.389  36.058  10.907
16439W        W84657  24.808  14.656  14.435
16440W        W84658  20.601  32.674  13.432
16441W        W84659   7.405  44.007   5.557
16442W        W84660   3.462  11.350   4.496
16443W        W84661  25.215  12.619   3.459
16444W        W84662  32.029  11.620   0.475
16445W        W84663  28.533   5.661   2.385
16446W        W84664  14.239  39.562   1.672
16447W        W84665  44.785  32.165   2.766
16448W        W84666  27.388  31.483   4.211
16449W        W84667  15.269  21.449  13.100
16450W        W84668  41.612  19.063   3.715
16451W        W84669  15.721   3.251   3.724
16452W        W84670   8.754  23.127  12.349
16453W        W84671   3.859   1.253   0.043
16454W        W84672  38.502  37.558   0.613
16455W        W84673  24.671  36.183  14.775
16456W        W84674  21.064  23.482  12.950
16457W        W84675  41.577   5.118   3.771
16458W        W84676   4.171  20.218  12.445
16459W        W84677  17.552   2.553  11.046
16460W        W84678  18.612  21.104   1.352
16461W        W84679  18.268  14.120   1.754
16462W        W84680  43.289  13.224   3.105
16463W        W84681  43.289  39.067  12.365
16464W        W84682  41.812  34.968  11.359
16465W        W84683  22.035  26.536   0.733
16466W        W84684  12.249  27.901   4.354
16467W        W84685  44.443  38.953  10.782
16468W        W84686  36.891  15.701   4.405
16469W        W84687  22.055  41.406  13.539
16470W        W84688  24.624  23.201  12.502
16471W        W84689   7.472  37.337   0.459
16472W        W84690   9.577  32.778  11.833
16473W        W84691   2.372   6.885   3.328
16474W        W84692   3.703  32.176  14.311
16475W        W84693  21.771   5.836   1.900
16476W        W84694  15.646  16.787   0.025
16477W        W84695  34.126  21.041  12.426
16478W        W84696  17.509  36.950   2.664
16479W        W84697  11.098  37.857  11.099
16480W        W84698  22.179  44.739   2.171
16481W        W84699  11.624  26.158  10.679
16482W        W84700   7.889  10.968   3.630
16483W        W84701  21.029  34.044  11.888
16484W        W84702   9.265   0.359   4.631
16485W        W84703  19.214  12.732   0.881
16486W        W84704  20.937  21.720   1.703
16487W        W84705   6.894  21.558  14.477
16488W        W84706  31.667  35.444  11.511
16489W        W84707  10.418   6.188   2.274
16490W        W84708  23.470   9.355  13.894
16491W        W84709  43.453   6.438   1.392
16492W        W84710  20.174  15.472   0.640
16493W        W84711  22.747  13.675   1.131
16494W        W84712  39.805   3.932   2.599
16495W        W84713  38.061  42.701  13.542
16496W        W84714   1.274  29.645  11.858
16497W        W84715  23.783   4.408   1.280
16498W        W84716  42.667  11.704   3.378
16499W        W84717  10.709  27.142  14.521
16500W        W84718   2.781  24.936   3.103
16501W        W84719  39.004   3.178   3.829
16502W        W84720  29.108  18.522  10.678
16503W        W84721  23.621  40.189  13.788
16504W        W84722  37.075   4.354   3.774
16505W        W84723  40.817  29.158   4.508
16506W        W84724  21.655   2.021  10.445
16507W        W84725   1.328   3.994  12.488
16508W        W84726  42.868   4.261  14.468
16509W        W84727   1.365  34.205   4.716
16510W        W84728   0.889  16.296   0.339
16511W        W84729  30.078   2.678  10.083
16512W        W84730  20.784   2.300   2.741
16513W        W84731  33.953  11.859   3.265
16514W        W84732  12.863  35.955   3.223
16515W        W84733  30.167  10.547   0.413
16516W        W84734  32.651  24.180  11.171
16517W        W84735  21.042  20.848  12.593
16518W        W84736  40.522  10.664  11.559
16519W        W84737  18.786  30.510  13.969
16520W        W84738  40.210  41.252   3.126
16521W        W84739   5.520  34.221   0.721
16522W        W84740  26.289  26.567   4.394
16523W        W84741  13.169  20.442   0.791
16524W        W84742  42.427  22.577   4.566
16525W        W84743   1.226  36.521  12.407
16526W        W84744  18.014   6.362   3.969
16527W        W84745  10.261  23.989   3.073
16528W        W84746  15.379  34.230  11.088
16529W        W84747  32.668   5.759   2.723
16530W        W84748   2.743  37.602  13.121
16531W        W84749   1.786  39.930   0.829
16532W        W84750  20.747  18.739  14.521
16533W        W84751  22.198  32.971   3.667
16534W        W84752  21.032  31.676   2.853
16535W        W84753  20.373  28.804   1.846
16536W        W84754  38.899  22.652  13.848
16537W        W84755  15.312  10.731  13.957
16538W        W84756   5.659   4.283  14.465
16539W        W84757   4.019  36.156   2.264
16540W        W84758  26.926  28.494  12.356
16541W        W84759  36.938  38.454  12.272
16542W        W84760  11.608   9.302  14.925
16543W        W84761   7.608  37.529   3.249
16544W        W84762   9.840  43.353  12.415
16545W        W84763  18.527  31.847   4.903
16546W        W84764  16.755   8.455   2.651
16547W        W84765  40.441  10.770   3.657
16548W        W84766   0.453  31.822   3.420
16549W        W84767  41.321  26.164   0.138
16550W        W84768   0.517  41.252  14.864
16551W        W84769  25.431  34.014  14.227
16552W        W84770  40.125   7.751   0.685
16553W        W84771  23.515  41.125   3.287
16554W        W84772  28.093  25.475  12.789
16555W        W84773  20.116   3.417  11.557
16556W        W84774  29.061  35.156  12.948
16557W        W84775  12.683  29.944  10.652
16558W        W84776  20.036   6.911   0.786
16559W        W84777   5.314   9.340  11.831
16560W        W84778  12.364  21.073   1.947
16561W        W84779  25.107  16.109  13.392
16562W        W84780  40.351  39.926   0.363
16563W        W84781  32.118  17.216   3.114
16564W        W84782  32.852  44.983  13.088
16565W        W84783  10.227  43.022   5.068
16566W        W84784   8.779  21.116   0.513
16567W        W84785  31.901  30.055   5.117
16568W        W84786   2.021  15.057  13.034
16569W        W84787  37.664  17.972   0.604
16570W        W84788  14.505  15.626  14.256
16571W        W84789  22.459   9.331   2.734
16572W        W84790  21.124   7.802  13.976
16573W        W84791  34.978  28.330  13.933
16574W        W84792  41.379  42.819   2.206
16575W        W84793  42.822  27.146   4.541
16576W        W84794  20.698   5.678  11.756
16577W        W84795  37.093  25.560   3.158
16578W        W84796  24.585  40.486   0.387
16579W        W84797  43.388   2.743  14.887
16580W        W84798  29.956  30.889  11.479
16581W        W84799   5.149   7.926  14.734
16582W        W84800  17.687  40.690  11.706
16583W        W84801  11.189  36.712   1.439
16584W        W84802  15.291  19.164  14.990
16585W        W84803  20.793  22.515   4.231
16586W        W84804   4.945   7.861   3.264
16587W        W84805  19.073   7.260   1.966
16588W        W84806   6.062   9.520  14.971
16589W        W84807  26.869   5.922  13.192
16590W        W84808  21.787  34.380  13.513
16591W        W84809  17.411  13.658   2.813
16592W        W84810  33.031  22.253  10.291
16593W        W84811  38.809  18.761  13.009
16594W        W84812  35.639   0.020  13.060
16595W        W84813  34.009  25.011  10.683
16596W        W84814  42.322   7.387   4.111
16597W        W84815   7.198   5.960  11.174
16598W        W84816  34.158  13.188  11.080
16599W        W84817  17.875  17.738   4.127
16600W        W84818   0.252  39.029  14.046
16601W        W84819   4.971  38.411  14.619
16602W        W84820  16.741   8.547  11.597
16603W        W84821  11.303  41.888   0.858
16604W        W84822  38.336  18.560  10.545
16605W        W84823  35.368  29.168   3.152
16606W        W84824  36.484  32.743   4.325
16607W        W84825  16.129  22.337  14.887
16608W        W84826  11.162   7.196   3.095
16609W        W84827  26.038  28.759   0.268
16610W        W84828   7.778  22.500  11.528
16611W        W84829  29.132   5.325  14.031
16612W        W84830  16.363  43.811  11.162
16613W        W84831  38.250  39.284  12.865
16614W        W84832  28.508  44.620  13.806
16615W        W84833   4.641   0.473   2.221
16616W        W84834  34.735  43.743  10.657
16617W        W84835   0.215  34.403  14.859
16618W        W84836   4.675  44.515   5.063
16619W        W84837  36.844  20.284   1.112
16620W        W84838  11.502  27.395   1.818
16621W        W84839  40.477   7.442   1.983
16622W        W84840  31.981  41.906   4.617
16623W        W84841  37.296  38.553  11.085
16624W        W84842  18.796  44.604  12.349
16625W        W84843  12.403  11.486   3.277
16626W        W84844  26.485  26.633  13.104
16627W        W84845  15.581  33.546   1.489
16628W        W84846  44.268  14.074  13.624
16629W        W84847  34.220   0.372  12.278
16630W        W84848  37.430  41.999  11.156
16631W        W84849   8.658  27.112   0.822
16632W        W84850  33.958  17.144  13.931
16633W        W84851   0.913  27.935   5.365
16634W        W84852   7.168  34.178  14.084
16635W        W84853   7.682  28.771   1.335
16636W        W84854  35.072  20.696   2.290
16637W        W84855  31.559  41.009  10.691
16638W        W84856  37.848  11.526   1.207
16639W        W84857  36.375  36.717   0.244
16640W        W84858   0.244  29.737   4.015
16641W        W84859  24.217  10.766  11.513
16642W        W84860  39.121  39.596  14.859
16643W        W84861  19.150   3.372   0.339
16644W        W84862  18.348  16.328  12.006
16645W        W84863  21.585  44.845   0.410
16646W        W84864  17.823  26.537   1.830
16647W        W84865  38.478  16.498   0.478
16648W        W84866   4.468  14.364   4.159
16649W        W84867  23.671  20.730  14.969
16650W        W84868  32.103   0.458   4.017
16651W        W84869  11.901  20.715   0.713
16652W        W84870  11.882  36.091   3.334
16653W        W84871  24.409  35.990  13.042
16654W        W84872  25.496  20.924   3.332
16655W        W84873  33.127  25.876   5.055
16656W        W84874  29.936  27.158   0.906
16657W        W84875  12.622  22.109  13.662
16658W        W84876  31.829  33.165   2.196
16659W        W84877  39.411  36.112   0.454
16660W        W84878  26.412  20.231   4.648
16661W        W84879  10.025  12.748  10.302
16662W        W84880  13.992  14.206  13.455
16663W        W84881  26.534  24.793   3.840
16664W        W84882   0.832   3.862  12.553
16665W        W84883  34.835  42.040   4.490
16666W        W84884  19.884  24.406   2.962
16667W        W84885  30.045   2.864   1.944
16668W        W84886  19.326  33.046  14.821
16669W        W84887  37.151  13.756   4.293
16670W        W84888  24.278  15.322  14.013
16671W        W84889   2.682  21.502   2.166
16672W        W84890   6.942   0.641   0.245
16673W        W84891  43.458  31.036   3.849
16674W        W84892   1.988  31.649  12.932
16675W        W84893   0.309  34.047   3.162
16676W        W84894   1.313  34.186   2.167
16677W        W84895  40.290  26.370  13.039
16678W        W84896  26.013  30.558   2.709
16679W        W84897  36.073  44.991  10.698
16680W        W84898  13.082  12.190   4.571
16681W        W84899  12.140  37.817  12.396
16682W        W84900  14.584  41.371   4.517
16683W        W84901  35.775  43.855  12.425
16684W        W84902  38.448  38.494  12.485
16685W        W84903  14.189  43.081   0.405
16686W        W84904   0.503  27.549   1.027
16687W        W84905  34.643   5.817   3.531
16688W        W84906   8.121  27.487  14.536
16689W        W84907  30.874  15.574   1.406
16690W        W84908  24.481  36.094  11.080
16691W        W84909  22.541   8.666   2.226
16692W        W84910  31.302  26.756   1.600
16693W        W84911  28.567  25.565  12.996
16694W        W84912  14.099  28.514   2.546
16695W        W84913   0.756  42.463   4.512
16696W        W84914  19.164   7.246   1.443
16697W        W84915  34.884  25.082  10.670
16698W        W84916  35.116   1.805  14.788
16699W        W84917  37.756  14.215  11.978
16700W        W84918  38.595  40.394  14.934
16701W        W84919  27.453  40.441   0.279
16702W        W84920  21.164  20.303  11.483
16703W        W84921  38.443  21.530  13.987
16704W        W84922  18.963  33.473  14.377
16705W        W84923   4.470   5.522   0.918
16706W        W84924  18.609  14.817  14.166
16707W        W84925   6.192  36.471   2.493
16708W        W84926  20.134  16.268  14.426
16709W        W84927  43.282  17.364  11.945
16710W        W84928  37.431  26.412  12.420
16711W        W84929   8.912  35.115   0.843
16712W        W84930  16.350   8.336   3.866
16713W        W84931  13.215  40.815   4.124
16714W        W84932  15.230  14.064  12.110
16715W        W84933  19.289  14.645  12.892
16716W        W84934  40.755  38.744  12.987
16717W        W84935  22.812  33.889  12.974
16718W        W84936  32.164  15.576   3.287
16719W        W84937  35.587  35.519  14.976
16720W        W84938  28.191  36.997   1.354
16721W        W84939  41.292  37.270  14.069
16722W        W84940   8.905  33.130   2.398
16723W        W84941  42.835  22.239  14.361
16724W        W84942  37.308   0.465   1.377
16725W        W84943  32.561  11.945   1.365
16726W        W84944  12.725  40.781  11.063
16727W        W84945  26.188  16.724   0.687
16728W        W84946  34.621  13.510   4.149
16729W        W84947  36.702  21.100  13.877
16730W        W84948   6.794  19.158  14.158
16731W        W84949  16.615   7.267  10.924
16732W        W84950   7.602  28.491  11.581
16733W        W84951  14.193  34.444   4.711
16734W        W84952  29.617  25.680  14.854
16735W        W84953  28.391  12.174  12.337
16736W        W84954  37.016  11.180  14.677
16737W        W84955  15.248  19.079   0.524
16738W        W84956  24.208   0.395  11.210
16739W        W84957  13.826  20.054  14.538
16740W        W84958  26.211   7.857  10.809
16741W        W84959   5.924  31.513  13.886
16742W        W84960  40.074  23.567  11.688
16743W        W84961  14.763  33.541  13.350
16744W        W84962   9.598  38.126   1.384
16745W        W84963   3.883   4.411  11.802
16746W        W84964  35.529  43.709  12.001
16747W        W84965  16.086  42.836  11.226
16748W        W84966  39.252   0.364  14.320
16749W        W84967  22.628  24.388   3.180
16750W        W84968  29.649   4.520  11.236
16751W        W84969  43.357   0.510  11.595
16752W        W84970  26.394  31.472   3.597
16753W        W84971  30.204  13.768   4.922
16754W        W84972  18.033  17.567  12.508
16755W        W84973  34.930  22.048  11.566
16756W        W84974  18.267  33.253  10.197
16757W        W84975  42.959  20.794   2.235
16758W        W84976   0.284  32.378   2.850
16759W        W84977  13.400  40.217   1.220
16760W        W84978  16.514   8.997   1.773
16761W        W84979  16.001   6.740  14.259
16762W        W84980   0.761  33.330  12.093
16763W        W84981  42.321  37.097   1.800
16764W        W84982  44.116  17.891  10.671
16765W        W84983  29.878  42.627   4.370
16766W        W84984  20.688  41.837   4.699
16767W        W84985  40.453  40.929   0.212
16768W        W84986  17.528   6.220  13.546
16769W        W84987  35.369  31.927  13.734
16770W        W84988  37.359  27.668   3.259
16771W        W84989   7.614  12.752   3.238
16772W        W84990  27.083  12.585  13.811
16773W        W84991  23.885  16.609  11.557
16774W        W84992  13.365  31.005  11.250
16775W        W84993  27.043  16.150   4.512
16776W        W84994  28.077   7.243  13.924
16777W        W84995  41.357  43.480  10.427
16778W        W84996   8.882  34.577  10.690
16779W        W84997  29.283   9.835   0.165
16780W        W84998  37.879  18.343  10.414
16781W        W84999   4.940  31.742  10.756
16782W        W85000  33.612  22.739  14.422
16783W        W85001  32.835  33.828  13.035
16784W        W85002   5.772  27.361   4.580
16785W        W85003  34.410   3.430  13.419
16786W        W85004  36.377  16.108  12.354
16787W        W85005  11.752  22.144  12.020
16788W        W85006  11.325  15.596   3.304
16789W        W85007  16.319   3.144  12.474
16790W        W85008  29.370  23.636   0.741
16791W        W85009   9.678  18.317  12.854
16792W        W85010  28.425  16.651   1.025
16793W        W85011   5.546  35.218   0.998
16794W        W85012  28.738   6.376   4.136
16795W        W85013   8.897  38.806   2.549
16796W        W85014  16.622   2.928   2.352
16797W        W85015  37.723  12.118  14.463
16798W        W85016  37.733  43.260   4.292
16799W        W85017  40.779  34.053  13.479
16800W        W85018   0.908  12.100  13.651
16801W        W85019  37.414  19.770  10.646
16802W        W85020   2.059  26.063   4.228
16803W        W85021  10.699  40.364   4.637
16804W        W85022  24.139  12.792   2.638
16805W        W85023  30.356   4.281  12.694
16806W        W85024  24.827  29.656  14.518
16807W        W85025   2.954  44.036   2.728
16808W        W85026  30.107  42.344  12.400
16809W        W85027  13.534  26.136  13.002
16810W        W85028   2.740  26.912  11.153
16811W        W85029   0.515   0.014   3.835
16812W        W85030  21.197  12.849   4.814
16813W        W85031  26.712  36.897   3.175
16814W        W85032  21.648  44.174   4.918
16815W        W85033   6.112  15.971   4.000
16816W        W85034  43.075  20.229  12.572
16817W        W85035  30.329  35.584   2.106
16818W        W85036  23.485  32.852   1.397
16819W        W85037  12.056  27.707   2.888
16820W        W85038  33.049   1.062  10.725
16821W        W85039  29.801  18.848   5.064
16822W        W85040   1.767  23.393   2.176
16823W        W85041  43.312  34.013   4.135
16824W        W85042  38.018  32.103   2.321
16825W        W85043  22.924  27.756   0.360
16826W        W85044  32.040  11.766  12.965
16827W        W85045  16.934  43.998   2.152
16828W        W85046   3.736   1.248   3.149
16829W        W85047  33.451  27.779   4.011
16830W        W85048  40.391  17.153   0.651
16831W        W85049  28.032  39.521   0.209
16832W        W85050  25.452  37.421   1.710
16833W        W85051  33.129  17.082  12.087
16834W        W85052   5.907  22.994   3.349
16835W        W85053  23.232  35.871   4.707
16836W        W85054   8.131  18.153  12.000
16837W        W85055  20.945   7.158  14.874
16838W        W85056   6.713  30.886   1.704
16839W        W85057   3.715   7.937   1.745
16840W        W85058  20.065  41.375  12.553
16841W        W85059  14.653  22.226  11.039
16842W        W85060  34.540  21.692  11.679
16843W        W85061  17.101  36.591   2.227
16844W        W85062  33.310  36.881  14.739
16845W        W85063   4.900   9.690  13.795
16846W        W85064  40.889  13.417   3.350
16847W        W85065   2.930  17.845   3.461
16848W        W85066  22.332   5.330   3.294
16849W        W85067   1.339  14.098   1.482
16850W        W85068  18.266  20.548  13.512
16851W        W85069  28.625  12.587   3.714
16852W        W85070  27.525  43.378   0.892
16853W        W85071  28.413  29.545  14.063
16854W        W85072  27.442  41.473  10.735
16855W        W85073  42.321   2.526   3.231
16856W        W85074   2.481   1.305  11.565
16857W        W85075  24.642  41.379   3.995
16858W        W85076  40.823   1.309   4.922
16859W        W85077  19.130   4.514  13.451
16860W        W85078  34.162  17.505   1.580
16861W        W85079  26.965  40.840  14.744
16862W        W85080  27.893  21.010  12.914
16863W        W85081  13.093  14.062  13.833
16864W        W85082  24.750   4.331   3.198
16865W        W85083  35.739  30.919  11.044
16866W        W85084  25.750  38.929  14.131
16867W        W85085  43.567  43.189   2.007
16868W        W85086   1.743  17.208   0.535
16869W        W85087  29.631  29.740   5.237
16870W        W85088  21.258  23.258  11.351
16871W        W85089  29.607  43.237   3.030
16872W        W85090  10.655   1.688   0.209
16873W        W85091  13.393  30.113  13.832
16874W        W85092  31.137  37.441  13.628
16875W        W85093  29.851  40.256  10.791
16876W        W85094  36.012  31.240  12.435
16877W        W85095  23.282  25.244   3.918
16878W        W85096  26.990  21.011   4.366
16879W        W85097  37.061  42.813  13.594
16880W        W85098  23.190   0.981   0.281
16881W        W85099  22.037   8.440  11.472
16882W        W85100  37.114  15.149  13.271
16883W        W85101  41.496  40.033   0.568
16884W        W85102  38.737  40.717  13.090
16885W        W85103   5.416   0.487   0.271
16886W        W85104  15.227  30.986   2.734
16887W        W85105   0.344  41.350   1.339
16888W        W85106  23.591  33.625   9.690
16889W        W85107  29.182   8.250   0.369
16890W        W85108   9.363  31.208   1.223
16891W        W85109  38.012  23.473   2.865
16892W        W85110  42.820  17.062  11.138
16893W        W85111   8.391  42.377  12.800
16894W        W85112   0.416  39.393   4.034
16895W        W85113   6.590   6.298   1.487
16896W        W85114  29.971  25.949   3.185
16897W        W85115   0.806  28.214  10.268
16898W        W85116  37.566   4.743   0.078
16899W        W85117  24.216  15.719   1.694
16900W        W85118   6.643  21.675  11.913
16901W        W85119  12.307  18.873   1.255
16902W        W85120  17.200   0.824  13.325
16903W        W85121  17.430   9.629  14.973
16904W        W85122  24.021  23.597   4.131
16905W        W85123  44.944  32.007   1.764
16906W        W85124   0.514  19.173   0.383
16907W        W85125  35.362  16.318   4.588
16908W        W85126  11.798  31.081  13.888
16909W        W85127  13.407  38.549   3.637
16910W        W85128  22.731   6.257   0.484
16911W        W85129   6.321  27.726  11.114
16912W        W85130  20.043  15.624   3.222
16913W        W85131  17.578   9.738  11.159
16914W        W85132  24.596  31.739   2.411
16915W        W85133  35.425   9.797  10.554
16916W        W85134  23.228  38.315  14.311
16917W        W85135  11.560  43.541   1.472
16918W        W85136  16.515  34.128   1.138
16919W        W85137  37.418  12.936  13.323
16920W        W85138  38.032  34.841  12.878
16921W        W85139  36.882  12.852   4.276
16922W        W85140   0.918  23.548   3.431
16923W        W85141  36.110  43.353   1.375
16924W        W85142  11.551  41.767   4.517
16925W        W85143  37.839  23.054   1.361
16926W        W85144  10.314   1.211   1.220
16927W        W85145  11.739  37.019  10.710
16928W        W85146  11.958  43.432  11.473
16929W        W85147  41.984  12.705   5.003
16930W        W85148  39.719  27.069   0.385
16931W        W85149  44.466  19.576   3.711
16932W        W85150   0.507  40.545   4.539
16933W        W85151  33.019  33.880  14.974
16934W        W85152  18.706  13.495  12.416
16935W        W85153  28.434  22.505  14.290
16936W        W85154  33.571  22.867   3.616
16937W        W85155  43.724  10.338  10.429
16938W        W85156  34.891  12.059  12.326
16939W        W85157  21.365  23.784  14.971
16940W        W85158   4.803  24.177   0.335
16941W        W85159  44.253  32.327   1.195
16942W        W85160  15.843  27.993   4.661
16943W        W85161   2.374  33.626   3.189
16944W        W85162  17.997   2.397   1.291
16945W        W85163  13.581  23.697  14.336
16946W        W85164   3.841  25.632   3.861
16947W        W85165  39.549  19.203   4.543
16948W        W85166   9.704   8.081   4.505
16949W        W85167  28.417  19.352   1.348
16950W        W85168  28.871  17.709  13.302
16951W        W85169   0.422  39.263   2.619
16952W        W85170   1.866  16.754  13.883
16953W        W85171  28.057  30.702  12.734
16954W        W85172   1.088  16.925   1.289
16955W        W85173  23.036  40.819   2.000
16956W        W85174  20.113  17.298   0.184
16957W        W85175  33.547   6.706  14.992
16958W        W85176  37.027   9.445   0.803
16959W        W85177  27.017  21.200   2.340
16960W        W85178  41.344  33.938   4.140
16961W        W85179   7.727  38.656   0.607
16962W        W85180  25.497  34.515   2.702
16963W        W85181  30.159  39.908   0.528
16964W        W85182  19.252  26.149   2.690
16965W        W85183   0.225  40.360   2.784
16966W        W85184   5.034   3.001  13.735
16967W        W85185  41.550  27.158  12.974
16968W        W85186  40.128   0.821  13.450
16969W        W85187  38.024   4.932  11.385
16970W        W85188  10.573  20.601   4.946
16971W        W85189  36.958  23.745   3.796
16972W        W85190  26.877  12.980   2.824
16973W        W85191  21.544  27.212   0.939
16974W        W85192  25.490   7.504   1.775
16975W        W85193  30.457   1.379  11.969
16976W        W85194   3.333  31.437   4.840
16977W        W85195  22.683  18.676  10.613
16978W        W85196  16.462  26.883  13.541
16979W        W85197  18.067  30.129  11.948
16980W        W85198   0.262  42.517  11.976
16981W        W85199  14.814  17.702   1.456
16982W        W85200  12.840  22.480   4.107
16983W        W85201  11.938  20.949  13.504
16984W        W85202  24.539  26.427   0.455
16985W        W85203   2.105  18.789  12.052
16986W        W85204  37.048  36.063   3.102
16987W        W85205  27.569   8.330  13.386
16988W        W85206  31.439  10.197  11.448
16989W        W85207   6.352  12.254  13.763
16990W        W85208  43.892  38.436  14.699
16991W        W85209  37.262  20.356   3.638
16992W        W85210  26.952   5.932   4.534
16993W        W85211  35.964   9.089  14.928
16994W        W85212   5.849  33.027   0.662
16995W        W85213  26.082   9.138  14.942
16996W        W85214  18.911  38.187   3.657
16997W        W85215  27.492   6.310  15.000
16998W        W85216   5.339   5.769   3.660
16999W        W85217  38.751   6.441  12.990
17000W        W85218   7.798  23.669   1.896
17001W        W85219  20.125   7.272  12.508
17002W        W85220  21.796  34.168  11.526
17003W        W85221  41.886  36.029   3.621
17004W        W85222  13.418  43.702   2.699
17005W        W85223  13.205  33.208   0.625
17006W        W85224  42.738  18.763  11.855
17007W        W85225   3.872   0.906  10.326
17008W        W85226  16.152   9.149   4.118
17009W        W85227  23.964  18.098  14.436
17010W        W85228  31.046   7.131  13.943
17011W        W85229  39.644   6.456   1.184
17012W        W85230   8.932   0.890   4.715
17013W        W85231  36.504  11.437   0.771
17014W        W85232   0.799  32.089  14.303
17015W        W85233  37.210  12.259  14.368
17016W        W85234  28.488  16.839  12.909
17017W        W85235   6.857  31.676   4.300
17018W        W85236  27.455  28.859   0.980
17019W        W85237   3.850   9.415   1.412
17020W        W85238  23.962   1.933  13.654
17021W        W85239   8.623  16.880  13.865
17022W        W85240  17.652  31.405   2.363
17023W        W85241  11.954  17.785   4.109
17024W        W85242  21.083  13.694  11.472
17025W        W85243  21.733  17.154   0.749
17026W        W85244   8.745  18.852  11.626
17027W        W85245  29.292  37.913  13.626
17028W        W85246   9.742  23.923   3.798
17029W        W85247  22.631  41.937   3.961
17030W        W85248  12.107   6.948  11.134
17031W        W85249  30.656   2.658  13.559
17032W        W85250   3.464  13.861  11.602
17033W        W85251  22.841  12.179  10.705
17034W        W85252  25.494  18.158   1.388
17035W        W85253  16.081  32.657  11.026
17036W        W85254  40.927  34.836   4.698
17037W        W85255  43.920   0.691  11.590
17038W        W85256  29.061  31.937   0.163
17039W        W85257  41.522  23.740  13.486
17040W        W85258  20.209   8.355   2.309
17041W        W85259  11.959   2.410  11.023
17042W        W85260   8.720  13.535  13.016
17043W        W85261  26.456  44.762   3.631
17044W        W85262  44.908   0.533   2.753
17045W        W85263  29.887  22.650   4.699
17046W        W85264  24.371   2.035  13.336
17047W        W85265   1.734  24.140   2.645
17048W        W85266  18.283  20.722   0.813
17049W        W85267   0.380  12.151  14.974
17050W        W85268  19.217   8.897   4.744
17051W        W85269  38.312  13.828  12.578
17052W        W85270   7.119  37.125   1.735
17053W        W85271  35.743   6.278  11.053
17054W        W85272  43.387  37.424  13.991
17055W        W85273  38.630   5.021  10.927
17056W        W85274  30.445  25.734   3.177
17057W        W85275   8.891  41.920  14.361
17058W        W85276  23.991   1.489   1.797
17059W        W85277   6.581  35.592   2.312
17060W        W85278  16.825   8.040   4.319
17061W        W85279   3.486  37.866  12.438
17062W        W85280  16.319  36.764  14.996
17063W        W85281  29.218  24.859   5.108
17064W        W85282  26.474  14.621  14.313
17065W        W85283  24.099  23.478  13.728
17066W        W85284  21.339   7.821   0.727
17067W        W85285  40.196  18.735   2.746
17068W        W85286  12.129   2.363   1.893
17069W        W85287   0.896  22.759   5.123
17070W        W85288  42.214  34.871   0.351
17071W        W85289  13.347  21.077  12.345
17072W        W85290  11.075  10.864   1.348
17073W        W85291   6.002  20.587   4.759
17074W        W85292  14.374   8.447  14.455
17075W        W85293  17.535  10.822   2.624
17076W        W85294   6.881  17.987  13.912
17077W        W85295  25.733  24.165  13.901
17078W        W85296  24.036  18.717  13.933
17079W        W85297  26.532  32.529   2.766
17080W        W85298  42.576  10.895  13.434
17081W        W85299   3.805  31.568   2.718
17082W        W85300   0.289  16.886   2.086
17083W        W85301   1.381   5.012   3.713
17084W        W85302  38.125  14.209   2.632
17085W        W85303  44.405   4.633  12.549
17086W        W85304  15.811  38.984  14.457
17087W        W85305  22.307   2.323   1.332
17088W        W85306   0.942  25.145   0.046
17089W        W85307  11.089  38.874  12.137
17090W        W85308  21.031  10.511   1.682
17091W        W85309   1.254   5.302   4.561
17092W        W85310  36.733  23.511  12.492
17093W        W85311  40.310  16.330   2.803
17094W        W85312  26.818  18.606   3.022
17095W        W85313   7.303  38.371  12.494
17096W        W85314   4.198  27.572   4.618
17097W        W85315   1.266   4.395   4.526
17098W        W85316   5.560  38.045  10.492
17099W        W85317   5.957  11.329   4.132
17100W        W85318  15.367  34.447  12.575
17101W        W85319  29.445  10.364   9.946
17102W        W85320  39.629  16.774  14.689
17103W        W85321   1.981  30.463   1.678
17104W        W85322  23.245  11.089   0.676
17105W        W85323  24.277  25.139  10.829
17106W        W85324  32.931  20.690  13.497
17107W        W85325  12.786  12.584  14.880
17108W        W85326  24.380  11.091  10.354
17109W        W85327  43.257  17.364  11.062
17110W        W85328   5.128  36.062  12.328
17111W        W85329  12.393  19.483  13.851
17112W        W85330  25.090  17.147   3.608
17113W        W85331  22.860  14.131   2.443
17114W        W85332  10.819  15.795   3.345
17115W        W85333  21.714  18.503  11.180
17116W        W85334  40.463  13.993   2.669
17117W        W85335  36.493  36.893  14.241
17118W        W85336  23.083  17.846  12.323
17119W        W85337   9.138  11.884  11.146
17120W        W85338  32.439   7.354  13.039
17121W        W85339  14.230   9.737  12.631
17122W        W85340  39.978   5.501  14.658
17123W        W85341  11.571   4.421  11.998
17124W        W85342  35.303  16.105   1.272
17125W        W85343   4.013  13.789   1.199
17126W        W85344  44.583  28.793   0.926
17127W        W85345   6.361   1.740  14.486
17128W        W85346  44.485  12.779   2.736
17129W        W85347  18.671  28.414  14.384
17130W        W85348  12.075  13.542  11.670
17131W        W85349   0.426  17.359   1.910
17132W        W85350  44.108  43.390  13.181
17133W        W85351  33.221  15.344  10.687
17134W        W85352  22.289  29.175   1.849
17135W        W85353  20.642  29.480  14.716
17136W        W85354  20.830  24.640  13.601
17137W        W85355  44.828  30.118   3.815
17138W        W85356  28.023  37.915  14.439
17139W        W85357  41.015  39.814  14.136
17140W        W85358   4.399  11.880  14.427
17141W        W85359  29.111  25.006  11.581
17142W        W85360  36.684  12.383   4.139
17143W        W85361  36.429   8.963   1.440
17144W        W85362  17.369  43.974   5.030
17145W        W85363  16.643  27.037   0.400
17146W        W85364  38.596  17.324   2.309
17147W        W85365  34.622  32.658   1.832
17148W        W85366  36.899  19.258  11.171
17149W        W85367  42.940  11.880  11.695
17150W        W85368   5.568  13.277   2.855
17151W        W85369  20.094  10.840   4.691
17152W        W85370   1.338   8.122  14.835
17153W        W85371  20.744  40.938   1.630
17154W        W85372  42.148  37.456   2.115
17155W        W85373  43.240  31.903   2.394
17156W        W85374  30.607   9.659  14.615
17157W        W85375   8.313  14.870   3.229
17158W        W85376  25.926  43.862  10.937
17159W        W85377  27.892  12.647   1.766
17160W        W85378  28.027  20.563   1.766
17161W        W85379  28.592  24.547   0.343
17162W        W85380  30.173  12.832   1.602
17163W        W85381   9.711  22.810  13.060
17164W        W85382   6.483   4.860  11.981
17165W        W85383  38.805  28.961  11.600
17166W        W85384  37.452   3.847  11.531
17167W        W85385   2.069   0.049   1.714
17168W        W85386   6.728   3.598  12.358
17169W        W85387  23.087   1.680   3.625
17170W        W85388  42.393   1.443  12.483
17171W        W85389   1.288  28.240  10.665
17172W        W85390  31.779  27.589  11.246
17173W        W85391  28.443  13.746   4.237
17174W        W85392  35.016  42.987  10.481
17175W        W85393  27.634   3.686   4.142
17176W        W85394  19.995  35.761   4.539
17177W        W85395  11.866  23.099   4.682
17178W        W85396  17.336  22.126  10.318
17179W        W85397  36.791  13.327   1.783
17180W        W85398  44.275  42.887  13.080
17181W        W85399  35.923  42.469   0.512
17182W        W85400  36.920  37.817   1.615
17183W        W85401   5.087  22.259  11.043
17184W        W85402  22.959  18.159   2.709
17185W        W85403  10.230  27.062  11.417
17186W        W85404  30.612  19.055   3.130
17187W        W85405  43.013   5.119  14.543
17188W        W85406  28.295  14.641   3.214
17189W        W85407  11.754  17.754   0.375
17190W        W85408  20.294  38.501   1.641
17191W        W85409  43.436  34.959  12.536
17192W        W85410  42.375  37.554   4.608
17193W        W85411   0.647  16.196  12.168
17194W        W85412  35.139  17.262   1.553
17195W        W85413  25.653   2.041   2.247
17196W        W85414  37.595  25.129  11.457
17197W        W85415  25.016  16.170   0.962
17198W        W85416   8.028  10.518   5.107
17199W        W85417   2.618  18.770   2.542
17200W        W85418  17.002  19.746  14.376
17201W        W85419  33.615   6.650  12.013
17202W        W85420   2.619  20.253   1.787
17203W        W85421   7.302  30.496  11.050
17204W        W85422  18.464  41.093  12.903
17205W        W85423  38.024   8.835  14.626
17206W        W85424  21.524  28.038   1.325
17207W        W85425   5.359   2.206  12.176
17208W        W85426   2.891  36.607   1.122
17209W        W85427  43.013  27.121   5.082
17210W        W85428  23.809   6.709  11.200
17211W        W85429  20.099  14.122   1.153
17212W        W85430  23.618  36.680  12.632
17213W        W85431  20.160  13.811  14.897
17214W        W85432  27.562  14.136   4.106
17215W        W85433  12.567  11.181  13.346
17216W        W85434  23.514   8.192   4.615
17217W        W85435  13.665  16.623   4.507
17218W        W85436   6.145  31.056  12.914
17219W        W85437  23.745  30.113   2.434
17220W        W85438   2.785  34.357  11.584
17221W        W85439  40.636  19.570   4.143
17222W        W85440   4.780  38.898  12.760
17223W        W85441  37.363  30.961  12.500
17224W        W85442  29.565  20.914  12.439
17225W        W85443   4.759   4.030   4.203
17226W        W85444  40.413  18.527   3.198
17227W        W85445  27.004   3.852  14.966
17228W        W85446   6.762  34.403   3.543
17229W        W85447  41.074  44.791   1.345
17230W        W85448   2.663  12.228  11.615
17231W        W85449  35.286  22.164   0.797
17232W        W85450  27.561  15.220   2.720
17233W        W85451  10.615  41.776  14.359
17234W        W85452  21.247   5.852   4.180
17235W        W85453   5.485  39.456  11.418
17236W        W85454   3.167  13.383   3.772
17237W        W85455   1.683  26.205   0.192
17238W        W85456  23.381   4.472  12.547
17239W        W85457   0.515  17.841   1.756
17240W        W85458   6.690   0.006   3.863
17241W        W85459   6.456   0.309  11.403
17242W        W85460  21.916  24.540  14.325
17243W        W85461  22.047  28.331  11.652
17244W        W85462  42.459   5.845   2.266
17245W        W85463   0.373   1.062   0.818
17246W        W85464  21.094  33.517   4.288
17247W        W85465  15.269  34.649   4.427
17248W        W85466   3.224  10.536  14.393
17249W        W85467  35.068   1.215  13.918
17250W        W85468   3.604   1.650  13.766
17251W        W85469  11.134  12.259   4.727
17252W        W85470  44.867  17.296   1.743
17253W        W85471  27.090  33.858  10.405
17254W        W85472  42.775   3.509  10.055
17255W        W85473  15.896  29.710  14.411
17256W        W85474   6.119  44.975   3.640
17257W        W85475  30.955  15.715  12.300
17258W        W85476  33.542   6.887   2.890
17259W        W85477  13.682  27.694   2.313
17260W        W85478  19.979   2.968   1.748
17261W        W85479  16.124  17.497   4.992
17262W        W85480  30.793   8.894  14.047
17263W        W85481  34.428   2.417   0.129
17264W        W85482  21.776   2.406  11.146
17265W        W85483  43.321  31.704   4.533
17266W        W85484  25.296  28.409  13.088
17267W        W85485  37.112  13.226   2.724
17268W        W85486  44.470  14.068  13.120
17269W        W85487   1.217  15.374   4.094
17270W        W85488   3.621  19.640  10.148
17271W        W85489  20.483  27.893  11.108
17272W        W85490  18.599  16.042   1.284
17273W        W85491   4.716  13.795   2.604
17274W        W85492   8.132  40.116  11.922
17275W        W85493  27.138  11.991  10.603
17276W        W85494  30.941  11.170  11.046
17277W        W85495  10.889  41.477   3.237
17278W        W85496  22.564  43.570   1.180
17279W        W85497  40.713  12.193  10.639
17280W        W85498  18.579  34.564  10.638
17281W        W85499  36.880  29.638  12.495
17282W        W85500  32.151  11.201  13.103
17283W        W85501  37.710  35.649   1.427
17284W        W85502  13.581  12.283   4.641
17285W        W85503  36.994  36.405  13.050
17286W        W85504  21.916  35.399  14.275
17287W        W85505  14.215  26.790  13.068
17288W        W85506   3.803  19.468  13.008
17289W        W85507   8.351  20.130   2.964
17290W        W85508  29.729  38.673  11.576
17291W        W85509  43.403  42.813   3.187
17292W        W85510  15.782  41.530   2.647
17293W        W85511  14.381  34.586   0.070
17294W        W85512  33.018   6.405   3.336
17295W        W85513  37.620  27.932   0.427
17296W        W85514  34.006  43.988   4.483
17297W        W85515  16.132   6.926  12.054
17298W        W85516  44.085  16.228   2.298
17299W        W85517  18.064   8.217  14.183
17300W        W85518  25.581  37.936   3.925
17301W        W85519  30.464  16.984  11.422
17302W        W85520  35.624  14.652   0.517
17303W        W85521  12.290  15.879   0.136
17304W        W85522  16.579  10.731   1.677
17305W        W85523  22.784  24.453  13.266
17306W        W85524   3.800  16.179   3.223
17307W        W85525   9.348  15.807   1.220
17308W        W85526  39.271  13.365   0.938
17309W        W85527  24.731   4.761   2.886
17310W        W85528  24.200  28.615  14.954
17311W        W85529  35.577  22.256   2.815
17312W        W85530   2.829  10.893  14.384
17313W        W85531   9.401   4.397  12.080
17314W        W85532   0.780  20.126  13.777
17315W        W85533  35.751  40.073   1.511
17316W        W85534  17.183  37.971  12.613
17317W        W85535  27.337  11.346  13.951
17318W        W85536  17.069   1.428   3.698
17319W        W85537   0.847  30.680  10.834
17320W        W85538  19.593  21.327   1.417
17321W        W85539  17.703   6.241   3.594
17322W        W85540   5.010  39.078   1.789
17323W        W85541   5.941   4.648  12.643
17324W        W85542  15.752  24.439   4.998
17325W        W85543  16.065  23.626   0.780
17326W        W85544  27.525  10.504  14.011
17327W        W85545  44.939   5.053   3.807
17328W        W85546  21.126   7.834  11.024
17329W        W85547   6.533  34.789  11.265
17330W        W85548  33.304  16.528  14.210
17331W        W85549  27.119  11.427   1.356
17332W        W85550  43.631   1.856  10.412
17333W        W85551  31.691   9.668   3.924
17334W        W85552   1.015  34.316   0.214
17335W        W85553  15.501  21.965   0.712
17336W        W85554   3.256  34.079   3.556
17337W        W85555  25.538  14.096  14.341
17338W        W85556   6.125  42.295  14.866
17339W        W85557  33.356  41.568  14.376
17340W        W85558  15.671  13.055  13.176
17341W        W85559  21.058  43.566   1.620
17342W        W85560  19.991   0.483   3.801
17343W        W85561   0.988  13.239   1.374
17344W        W85562  25.940  35.621   1.477
17345W        W85563   9.320  44.633  13.953
17346W        W85564  12.357   4.315  12.558
17347W        W85565  20.708  22.511  14.926
17348W        W85566  40.842  32.032   4.131
17349W        W85567  26.994  40.936   2.100
17350W        W85568   6.422  38.287   3.675
17351W        W85569   6.281  35.477   3.838
17352W        W85570  14.911   1.645   2.333
17353W        W85571   5.004  41.534  14.557
17354W        W85572  20.137  10.680   1.166
17355W        W85573  14.935   5.973  12.358
17356W        W85574  17.336  31.291  11.381
17357W        W85575  30.345   9.320   4.250
17358W        W85576  44.474  19.673  10.302
17359W        W85577  29.244   3.506   1.286
17360W        W85578   3.146   2.440  11.170
17361W        W85579  33.629  21.984   4.585
17362W        W85580  37.521  28.446  10.619
17363W        W85581  41.829   8.336   0.863
17364W        W85582  39.270  36.384  11.860
17365W        W85583  25.148  34.820   3.313
17366W        W85584   0.261  23.152   2.211
17367W        W85585  25.090  18.779  14.603
17368W        W85586  11.770  16.844  11.561
17369W        W85587  34.874  43.969   2.778
17370W        W85588  37.734  23.695   4.228
17371W        W85589  20.113   3.796   0.828
17372W        W85590  21.033  31.047  12.085
17373W        W85591  38.546  23.795   2.137
17374W        W85592  26.734  30.047   1.254
17375W        W85593   4.480  24.008   2.103
17376W        W85594  22.951  40.330  13.469
17377W        W85595   5.752  39.649  14.522
17378W        W85596  39.759   8.928  14.749
17379W        W85597  20.246   6.130  11.074
17380W        W85598   7.868  22.783  11.113
17381W        W85599   6.673  36.652   4.262
17382W        W85600  27.168   3.389   1.481
17383W        W85601  43.029   7.616   1.383
17384W        W85602  10.676  16.746   2.438
17385W        W85603   9.422  17.115   4.079
17386W        W85604   1.215  17.195  10.749
17387W        W85605  32.307  23.898  12.092
17388W        W85606  31.076  22.411  14.750
17389W        W85607  22.827  35.021  11.632
17390W        W85608  34.024  42.305   3.743
17391W        W85609  21.245  14.751   4.209
17392W        W85610  36.911  24.040  11.402
17393W        W85611   8.712  29.632   2.258
17394W        W85612  28.629  43.962   1.117
17395W        W85613   6.465  31.279  11.115
17396W        W85614  20.916  24.466  12.778
17397W        W85615   8.612  39.510   2.219
17398W        W85616   2.858  37.893   0.381
17399W        W85617   4.958   1.225   2.434
17400W        W85618  16.751  38.640   1.385
17401W        W85619  18.645  33.526   1.823
17402W        W85620  14.596  40.079   1.904
17403W        W85621  12.961  38.286   3.393
17404W        W85622  39.374  19.021  11.989
17405W        W85623  15.541   3.975  12.023
17406W        W85624  39.306  11.004  11.849
17407W        W85625   6.446  11.846   2.775
17408W        W85626  21.513   0.674   0.766
17409W        W85627  28.693  33.714   4.108
17410W        W85628  12.904  43.215   2.378
17411W        W85629  43.489  19.247   3.671
17412W        W85630  43.083  37.913   2.918
17413W        W85631   3.242  27.966  13.880
17414W        W85632  33.006  28.050   4.106
17415W        W85633  17.698  38.861   4.345
17416W        W85634  24.078  29.288  11.460
17417W        W85635  18.959  33.013  11.741
17418W        W85636  13.887   7.129   3.262
17419W        W85637  22.523   2.870  10.258
17420W        W85638  36.850  11.665   1.888
17421W        W85639  14.973  32.640   3.719
17422W        W85640  24.193  19.668  12.977
17423W        W85641  31.208  27.600  11.168
17424W        W85642  11.297  19.709   1.247
17425W        W85643  33.895  13.814  14.758
17426W        W85644  27.980  33.966  10.397
17427W        W85645  25.661  43.413  11.942
17428W        W85646  11.994  12.779  12.971
17429W        W85647   3.331  13.381  11.522
17430W        W85648  34.308  18.079  11.207
17431W        W85649  21.277  16.812  14.436
17432W        W85650   1.997  21.442  10.628
17433W        W85651   4.360   5.577  11.038
17434W        W85652  21.197  22.578   0.610
17435W        W85653   6.286   6.853   3.308
17436W        W85654  33.937  18.515   4.138
17437W        W85655   9.800  18.493   2.694
17438W        W85656  15.288  12.020   4.157
17439W        W85657  14.374  32.083  11.670
17440W        W85658  38.088  19.571  13.859
17441W        W85659  25.920  43.259  12.549
17442W        W85660  10.574  11.173  14.312
17443W        W85661  11.767  19.939  11.521
17444W        W85662  21.427  19.454   2.075
17445W        W85663  28.435  26.051   2.220
17446W        W85664  38.116   7.612   4.170
17447W        W85665   4.260  23.066   3.703
17448W        W85666  34.648   5.466  14.304
17449W        W85667  12.184  18.541   4.549
17450W        W85668  17.131  26.222   3.277
17451W        W85669  40.519  10.415   1.861
17452W        W85670  16.909  44.812   4.809
17453W        W85671  35.869  20.078  13.212
17454W        W85672  15.673  27.622  10.605
17455W        W85673  21.769  32.390   1.746
17456W        W85674  38.280  17.796   3.219
17457W        W85675  38.500  20.047  14.470
17458W        W85676  41.952  38.778   1.330
17459W        W85677  14.079  38.255  12.176
17460W        W85678   3.640   7.525   3.962
17461W        W85679  32.711  43.902  11.670
17462W        W85680  30.498  23.934   3.682
17463W        W85681  35.663   3.318   2.359
17464W        W85682  34.337  26.518   0.829
17465W        W85683   8.860  38.389  14.275
17466W        W85684  25.505  31.393  11.974
17467W        W85685  12.214  42.745   2.859
17468W        W85686   2.179  36.388  13.463
17469W        W85687  18.044  38.455   3.572
17470W        W85688   3.094  16.374   2.641
17471W        W85689  41.913  20.189  12.208
17472W        W85690   3.011  42.781  10.298
17473W        W85691   3.370  43.693   5.033
17474W        W85692  16.080  18.674   4.228
17475W        W85693  11.208   3.242  12.177
17476W        W85694  34.079  12.050  12.822
17477W        W85695   1.888  38.989   2.759
17478W        W85696  22.028   9.835   1.314
17479W        W85697  41.330   5.276   1.859
17480W        W85698  17.751   4.712   0.915
17481W        W85699  31.221  23.246  13.527
17482W        W85700   6.615   9.787  14.234
17483W        W85701  43.355  12.238  14.904
17484W        W85702  41.823  44.040  13.013
17485W        W85703  37.341  18.983  11.103
17486W        W85704  27.262  31.688   3.251
17487W        W85705  20.131  18.254   0.325
17488W        W85706  44.936  24.464  12.121
17489W        W85707   2.674  19.126  14.845
17490W        W85708  25.619  20.925   4.630
17491W        W85709  44.410  36.513   4.197
17492W        W85710  39.309  15.488  14.459
17493W        W85711  13.614   6.302   1.703
17494W        W85712  38.821  26.782  10.662
17495W        W85713  42.260  18.325   0.515
17496W        W85714  25.149  12.579  14.950
17497W        W85715  31.151  39.012   3.473
17498W        W85716  16.225  34.954   0.735
17499W        W85717  12.584   1.866   4.081
17500W        W85718  15.218  39.201   3.725
17501W        W85719   7.330  13.839   1.264
17502W        W85720  28.403  12.700   5.150
17503W        W85721  37.324  36.581  11.933
17504W        W85722  35.395  11.764  14.286
17505W        W85723  14.293  27.023  14.596
17506W        W85724  36.007  38.059   1.189
17507W        W85725  15.221  10.526  13.262
17508W        W85726   3.289   9.987  11.502
17509W        W85727  38.474  33.808   3.184
17510W        W85728  29.622  38.380   2.829
17511W        W85729   1.853  31.831   0.498
17512W        W85730  22.205  18.242   4.148
17513W        W85731  28.602  12.179  12.825
17514W        W85732  23.174   6.368   3.653
17515W        W85733  20.626  15.384  11.873
17516W        W85734  11.146  28.475  14.858
17517W        W85735   1.257   6.293   2.619
17518W        W85736  10.909  36.852   3.273
17519W        W85737  39.641  12.330  12.837
17520W        W85738  37.461  14.593   3.662
17521W        W85739  25.579  30.980  11.116
17522W        W85740  24.536   2.461   3.751
17523W        W85741  32.793   6.381   5.204
17524W        W85742   3.706  26.782  11.997
17525W        W85743  29.141  24.517  12.522
17526W        W85744  31.322  30.096   0.392
17527W        W85745   7.902  39.066  12.523
17528W        W85746   2.199  29.052  10.604
17529W        W85747   6.922   7.762  13.751
17530W        W85748  36.217  16.734  13.966
17531W        W85749  16.173  16.078  10.340
17532W        W85750  39.230  42.427   0.219
17533W        W85751   4.724  31.356   0.130
17534W        W85752  39.476  36.911   1.928
17535W        W85753  26.245   1.290   1.398
17536W        W85754  27.938  30.611   2.603
17537W        W85755  41.993   9.206   0.296
17538W        W85756  12.809  17.602  11.907
17539W        W85757  34.426   7.798   4.878
17540W        W85758   3.235  33.931  14.247
17541W        W85759  18.566  37.144  13.320
17542W        W85760  16.671  37.345   0.905
17543W        W85761   2.498  15.596   1.410
17544W        W85762  37.077  18.696   3.180
17545W        W85763  10.896  38.573   1.871
17546W        W85764  21.040  23.150  12.551
17547W        W85765  22.137   7.904   3.219
17548W        W85766  29.445  30.368   3.653
17549W        W85767  10.016   5.944   1.409
17550W        W85768  21.467  29.686  11.569
17551W        W85769  15.933  24.517   3.455
17552W        W85770  13.249  38.878   2.244
17553W        W85771  38.324  14.891  12.391
17554W        W85772  15.183  24.769   4.124
17555W        W85773   5.431  43.786   2.294
17556W        W85774  19.464  44.241  10.819
17557W        W85775  21.985  37.561  12.236
17558W        W85776  34.310   6.355  11.188
17559W        W85777  22.037  23.133   1.398
17560W        W85778  13.390   9.628   1.766
17561W        W85779  24.733  25.207   2.303
17562W        W85780   2.906   8.489   0.586
17563W        W85781  15.150  30.987   4.026
17564W        W85782  32.847  22.030   1.347
17565W        W85783  18.858   1.450  11.410
17566W        W85784   5.903   7.685   1.454
17567W        W85785  44.455  15.786  14.071
17568W        W85786  23.803  27.900   4.930
17569W        W85787  22.627  10.142   1.420
17570W        W85788  36.968   6.642   1.734
17571W        W85789  18.751  14.191  12.524
17572W        W85790  14.620  42.811  14.466
17573W        W85791   1.477  32.606  14.803
17574W        W85792  18.102  22.132   1.499
17575W        W85793  31.584  13.514   3.259
17576W        W85794  36.716  10.159   3.555
17577W        W85795  12.190  11.357  10.568
17578W        W85796  24.503  17.996  13.523
17579W        W85797   5.291  25.670   2.810
17580W        W85798  29.072  29.344  14.443
17581W        W85799  31.792  38.827  14.807
17582W        W85800  28.978  38.737  12.411
17583W        W85801  22.621  32.976   2.660
17584W        W85802  33.001  23.405   2.218
17585W        W85803  22.576  39.836   2.230
17586W        W85804  34.379  37.841   4.991
17587W        W85805  38.326  16.695  13.037
17588W        W85806  21.163  30.879   4.296
17589W        W85807   0.542  23.232   2.660
17590W        W85808  30.888  44.474   2.283
17591W        W85809  41.175  17.647   0.649
17592W        W85810   1.412  16.549   1.092
17593W        W85811  43.012  21.126  11.653
17594W        W85812  19.226  21.276   3.155
17595W        W85813   0.354  33.821  13.054
17596W        W85814  29.960  17.184  13.767
17597W        W85815   9.164  30.014  13.981
17598W        W85816  35.919  10.100   3.240
17599W        W85817  24.609  13.714  13.360
17600W        W85818  16.628  36.864   0.724
17601W        W85819  25.019  41.091   1.346
17602W        W85820   9.583  34.935   1.568
17603W        W85821  18.139   4.719   0.240
17604W        W85822  23.500  39.134   0.839
17605W        W85823  24.761  23.818   0.856
17606W        W85824  42.290  24.537   0.010
17607W        W85825  11.631   0.678   2.698
17608W        W85826  20.557  15.091  13.411
17609W        W85827  37.052   3.344   1.697
17610W        W85828  43.793   5.406   3.917
17611W        W85829  37.558  44.519   2.845
17612W        W85830   2.267  24.472  13.326
17613W        W85831  12.103  43.199   4.958
17614W        W85832   0.500  40.652  14.588
17615W        W85833  39.364  28.461  11.825
17616W        W85834  10.142  19.259  12.930
17617W        W85835  43.203  25.375   4.403
17618W        W85836  28.803  27.764  13.406
17619W        W85837  33.594  28.687  11.598
17620W        W85838  17.264   7.841   0.054
17621W        W85839   8.716  35.518   1.757
17622W        W85840  43.219  32.620  13.406
17623W        W85841  20.128  16.057  12.888
17624W        W85842  27.642  10.605   0.543
17625W        W85843   8.708   4.890  14.995
17626W        W85844  43.860  26.432  13.427
17627W        W85845   1.750   1.059   2.547
17628W        W85846  21.436   5.379   4.200
17629W        W85847  29.844  33.413   3.184
17630W        W85848   8.334  26.615   4.283
17631W        W85849  33.404  44.015  11.524
17632W        W85850  38.116  13.503  11.724
17633W        W85851  14.127  42.420  14.182
17634W        W85852  10.293  19.464  14.291
17635W        W85853  42.546  11.367   1.373
17636W        W85854  36.329   0.991   0.457
17637W        W85855   2.965  14.647   2.724
17638W        W85856   0.016  11.362  13.285
17639W        W85857  28.542  10.009   2.254
17640W        W85858  32.563  11.621   2.719
17641W        W85859  21.451  44.737  14.385
17642W        W85860  41.412  14.735   1.354
17643W        W85861  34.861   1.705  12.523
17644W        W85862  34.123  17.073   4.142
17645W        W85863  10.754  12.716   1.343
17646W        W85864  17.088  28.377   1.185
17647W        W85865  20.363  16.890  13.454
17648W        W85866  29.855  34.099  14.784
17649W        W85867  18.849  18.764  12.660
17650W        W85868  32.777  41.495   5.158
17651W        W85869  41.064  14.053   4.095
17652W        W85870   7.681   6.854   3.314
17653W        W85871  23.719  32.831  13.132
17654W        W85872  42.219  17.172   1.326
17655W        W85873  34.044  42.236  13.419
17656W        W85874  25.448  28.527   4.335
17657W        W85875  44.536  23.025   2.712
17658W        W85876  44.820   1.254  12.531
17659W        W85877  24.605   2.414  13.046
17660W        W85878  25.344  41.362  11.609
17661W        W85879   2.464  27.056   3.546
17662W        W85880   0.176   7.823   2.844
17663W        W85881  31.408   9.499   0.017
17664W        W85882  40.264  41.982  14.796
17665W        W85883  37.646  15.650   3.691
17666W        W85884   5.694   9.150  14.954
17667W        W85885  22.626  25.981  12.636
17668W        W85886  36.744  17.360  11.970
17669W        W85887  19.630  44.221   0.387
17670W        W85888   9.080   0.207   4.160
17671W        W85889   9.536  14.367  13.940
17672W        W85890  27.469  13.814   0.344
17673W        W85891  16.506  16.960  14.782
17674W        W85892  42.384   9.775  10.697
17675W        W85893   7.155  15.800  11.642
17676W        W85894   6.833  20.705   1.646
17677W        W85895  34.675   9.902   2.947
17678W        W85896  42.757  37.500   2.885
17679W        W85897   0.097   1.896   0.955
17680W        W85898  12.969  14.375  13.395
17681W        W85899  33.084  30.523   3.086
17682W        W85900  26.510  13.550   1.193
17683W        W85901  41.967  42.292  13.789
17684W        W85902   7.818  10.374  14.575
17685W        W85903  16.112  25.809   3.263
17686W        W85904  23.889  31.462  12.051
17687W        W85905  18.763   3.515   3.657
17688W        W85906   0.487   6.685  14.062
17689W        W85907  27.011  21.195  12.105
17690W        W85908  34.050  11.882   4.763
17691W        W85909   9.383  20.533  14.923
17692W        W85910  38.446   9.767  14.867
17693W        W85911  15.800  21.403   1.362
17694W        W85912  26.566  12.043  11.211
17695W        W85913  15.869  31.557  13.414
17696W        W85914  32.799   9.681  11.704
17697W        W85915  21.099  43.393  11.642
17698W        W85916  26.340  16.580   2.117
17699W        W85917  10.288  16.320  12.407
17700W        W85918   2.328  16.171  13.497
17701W        W85919   6.057  30.400  12.200
17702W        W85920   3.262  13.590   0.710
17703W        W85921   2.366  19.193  11.116
17704W        W85922  13.737   3.830   4.605
17705W        W85923   9.753  13.387   3.644
17706W        W85924  35.921  22.029  11.179
17707W        W85925   7.339  35.739   3.236
17708W        W85926  25.668  34.414   0.026
17709W        W85927   0.823  22.139   1.616
17710W        W85928  25.297  36.152   1.387
17711W        W85929  14.801  28.042  14.835
17712W        W85930  38.133  44.117  11.441
17713W        W85931  34.866  42.317  11.587
17714W        W85932   7.601  43.344  12.453
17715W        W85933  43.466   2.228   1.821
17716W        W85934  41.325  44.899   4.164
17717W        W85935  15.660  13.220   2.904
17718W        W85936  23.759  12.298   3.223
17719W        W85937  15.722  26.012  14.731
17720W        W85938  21.524   6.159  14.851
17721W        W85939  14.629  13.033  11.193
17722W        W85940  13.601  34.393   2.964
17723W        W85941   4.660   4.574   4.255
17724W        W85942  19.126  11.260  12.817
17725W        W85943  35.499  18.556   2.360
17726W        W85944  28.262  43.733  14.940
17727W        W85945  32.038   0.561   2.146
17728W        W85946   6.597  41.429   2.473
17729W        W85947  41.762   0.434  14.784
17730W        W85948  12.960  30.963   3.553
17731W        W85949  42.408  35.690  14.835
17732W        W85950  39.473  16.017  10.524
17733W        W85951  25.426  11.803   3.431
17734W        W85952  34.555  28.920   2.732
17735W        W85953  10.151  43.706   3.296
17736W        W85954   7.315   2.923   1.879
17737W        W85955  27.679  14.695   2.569
17738W        W85956  15.834  22.565   2.683
17739W        W85957  13.110  28.904   1.846
17740W        W85958  38.081  39.801   2.163
17741W        W85959   3.781   2.202   4.703
17742W        W85960  10.033  24.021   1.868
17743W        W85961   7.271  14.854  10.683
17744W        W85962  19.109   1.906   2.778
17745W        W85963  40.857  38.524   4.628
17746W        W85964  30.528  24.211   0.993
17747W        W85965  41.549  42.981  14.231
17748W        W85966  34.924  15.039  11.912
17749W        W85967   1.440  14.060   1.982
17750W        W85968   5.890   7.392   1.030
17751W        W85969  29.632  25.019   4.503
17752W        W85970   3.746  37.465  12.207
17753W        W85971  39.794  34.689  11.533
17754W        W85972  44.874  13.140  12.954
17755W        W85973  40.636  20.543   2.799
17756W        W85974  44.899  29.646   0.423
17757W        W85975  39.676   1.782  13.734
17758W        W85976  37.129  32.641  13.746
17759W        W85977   9.941  26.642   1.406
17760W        W85978  39.315  20.552  13.514
17761W        W85979  21.298   0.317  14.480
17762W        W85980  23.908  12.650  14.429
17763W        W85981   3.313  42.357   3.442
17764W        W85982  39.049  20.850   0.343
17765W        W85983  24.203   5.300  12.980
17766W        W85984   9.820  18.199   3.552
17767W        W85985  26.403  23.005  14.807
17768W        W85986  17.035   8.890   1.764
17769W        W85987   7.117  25.221  13.843
17770W        W85988  30.655  38.935  10.494
17771W        W85989  14.111  10.774   3.806
17772W        W85990  27.604  26.192  10.656
17773W        W85991  27.088  31.851  10.527
17774W        W85992  34.405  36.614  11.370
17775W        W85993   1.831  21.843  14.600
17776W        W85994  10.185  40.036   2.679
17777W        W85995  21.650  31.027   1.815
17778W        W85996   5.692  15.626  12.631
17779W        W85997  12.387   3.690   0.915
17780W        W85998  37.017   6.605   2.555
17781W        W85999  41.853   2.219  13.643
17782W        W86000  31.012  12.270  13.406
17783W        W86001   0.801  41.504   1.176
17784W        W86002  22.705  30.573   4.048
17785W        W86003   6.676   1.288  12.115
17786W        W86004  17.791  32.484   3.174
17787W        W86005  36.866  40.562  12.935
17788W        W86006   0.919  21.640  11.912
17789W        W86007  10.624  41.146   1.834
17790W        W86008  14.254   3.827  12.348
17791W        W86009  36.599  39.397   0.473
17792W        W86010  44.590  33.396   1.870
17793W        W86011   9.073   5.314   1.770
17794W        W86012   2.842  11.269   1.298
17795W        W86013   4.070  15.473   4.823
17796W        W86014   0.468  30.609   1.328
17797W        W86015  10.672   2.352  10.735
17798W        W86016  11.642  43.327   0.555
17799W        W86017  35.145  35.623   3.281
17800W        W86018  25.060   9.309   2.308
17801W        W86019   3.899  24.550   4.650
17802W        W86020  11.840  14.713   1.874
17803W        W86021  36.468  19.582  10.313
17804W        W86022  12.149  12.105   4.225
17805W        W86023  23.671   4.333  14.408
17806W        W86024  12.663   8.206   0.410
17807W        W86025  12.692  10.821   4.567
17808W        W86026  28.878  10.434   2.794
17809W        W86027   8.683  17.687   0.216
17810W        W86028  28.885  17.608  12.381
17811W        W86029  39.769  35.119   2.790
17812W        W86030  30.019   2.931   0.923
17813W        W86031  16.046  10.239  11.642
17814W        W86032  26.052  34.297   1.430
17815W        W86033  14.631  15.563   0.949
17816W        W86034   4.278  13.515  10.709
17817W        W86035   8.611  35.894   1.160
17818W        W86036   7.457  11.305  13.529
17819W        W86037  13.615  31.386   0.987
17820W        W86038   6.280   8.115  12.064
17821W        W86039  14.178  11.189  12.565
17822W        W86040  29.492  30.491   3.123
17823W        W86041   9.007  43.696  14.967
17824W        W86042  15.154  11.390  14.568
17825W        W86043  17.645  34.738   2.455
17826W        W86044  44.070  34.549  10.246
17827W        W86045  17.236  21.736   4.186
17828W        W86046  31.883  42.710   1.708
17829W        W86047  29.108  44.109  14.815
17830W        W86048  14.211   7.791  12.149
17831W        W86049  39.353   7.277  11.653
17832W        W86050  33.957  11.625  12.542
17833W        W86051   2.241  32.852   3.628
17834W        W86052  41.938  12.280   3.161
17835W        W86053  31.128  43.072  14.836
17836W        W86054  19.441  31.919  12.866
17837W        W86055  29.543   2.759  13.081
17838W        W86056  17.323   9.333   0.860
17839W        W86057  19.892  40.778  10.719
17840W        W86058  36.725  16.460  12.035
17841W        W86059   6.848  42.708   3.911
17842W        W86060  14.848  34.523  12.543
17843W        W86061  12.569  33.518   1.430
17844W        W86062  17.081  34.980  11.055
17845W        W86063  13.678   4.656   3.084
17846W        W86064  24.395  29.441   4.851
17847W        W86065  31.514   9.579   1.389
17848W        W86066  16.073  20.965   4.035
17849W        W86067  40.967  14.057   2.764
17850W        W86068  31.186  22.494  13.821
17851W        W86069  18.286  35.699   1.226
17852W        W86070  10.573  29.472   5.153
17853W        W86071   0.732   1.537  12.097
17854W        W86072  32.695   1.480  10.822
17855W        W86073  15.711   7.810  12.528
17856W        W86074  43.524  15.020  11.612
17857W        W86075  26.302   1.624   0.067
17858W        W86076  43.035  26.392   4.065
17859W        W86077  20.704  43.116  11.898
17860W        W86078  30.360  15.177  13.444
17861W        W86079  22.747   2.411  12.547
17862W        W86080  39.556  21.242   3.910
17863W        W86081  15.035  37.959  13.115
17864W        W86082  12.695  42.434  10.358
17865W        W86083  29.447  11.120  12.477
17866W        W86084  21.133   5.476   3.769
17867W        W86085  25.557  25.028  14.430
17868W        W86086  10.598  32.539   4.016
17869W        W86087  44.889  39.592  12.045
17870W        W86088  40.874  23.137   1.010
17871W        W86089   4.701  20.252  12.497
17872W        W86090  36.565  22.188   3.729
17873W        W86091   5.649  22.467  14.977
17874W        W86092   2.243  24.864   0.212
17875W        W86093   7.949  33.604   4.017
17876W        W86094   7.028   7.985  12.416
17877W        W86095  14.209  15.399  13.908
17878W        W86096   8.823  35.150  14.330
17879W        W86097  36.096  39.783   3.270
17880W        W86098  19.751  31.379   4.845
17881W        W86099  42.347  20.000  12.016
17882W        W86100  38.804   9.745  13.934
17883W        W86101  38.502  38.943  10.725
17884W        W86102  32.170   0.965   4.182
17885W        W86103  20.218   6.408   0.876
17886W        W86104  32.475  24.524  14.431
17887W        W86105   2.860  36.196   0.790
17888W        W86106  27.758  43.264  13.518
17889W        W86107   6.827  10.393   2.875
17890W        W86108   1.762   5.340  14.460
17891W        W86109  42.802  42.533  12.986
17892W        W86110  20.186   6.905  10.526
17893W        W86111  20.787  32.567  12.449
17894W        W86112  20.167  11.884  14.954
17895W        W86113  41.091  11.444  14.564
17896W        W86114  23.683  37.483   4.286
17897W        W86115  13.732  33.302  11.244
17898W        W86116  43.249  20.244   3.639
17899W        W86117   9.099  13.750  14.050
17900W        W86118  24.759  30.028  12.081
17901W        W86119  15.280  21.855  13.958
17902W        W86120   7.872   6.687   2.860
17903W        W86121  29.987  30.675  14.329
17904W        W86122  16.768  21.068   1.569
17905W        W86123  44.503  28.571   5.227
17906W        W86124  44.801  19.067   0.425
17907W        W86125  19.757  35.058   1.889
17908W        W86126  21.581  24.040   0.504
17909W        W86127  30.105  19.747   0.822
17910W        W86128  32.306  39.818  10.619
17911W        W86129  40.699  29.497   5.121
17912W        W86130   4.143  38.347  12.455
17913W        W86131  14.244  42.960   9.860
17914W        W86132  25.666  10.339  14.918
17915W        W86133  25.042  36.154  11.667
17916W        W86134  30.520  42.245   3.080
17917W        W86135  40.749  43.209   3.219
17918W        W86136  27.149  18.222   4.297
17919W        W86137   9.739  35.287   3.779
17920W        W86138  23.487  14.823  14.952
17921W        W86139  32.296  34.002   4.745
17922W        W86140  20.124  39.860  12.886
17923W        W86141  34.543  33.275   4.007
17924W        W86142   3.242  32.517   4.600
17925W        W86143   3.092   8.082  14.240
17926W        W86144   9.678  19.952  11.897
17927W        W86145  31.802  34.610   3.975
17928W        W86146  32.351   3.626   0.065
17929W        W86147  31.145  22.735  12.079
17930W        W86148  21.328  39.774  11.561
17931W        W86149  26.218  41.533  13.341
17932W        W86150  27.896  44.971  14.868
17933W        W86151  18.730   1.314  12.855
17934W        W86152  12.846   6.851  14.389
17935W        W86153  17.170  34.387  10.640
17936W        W86154  44.394  20.948   3.691
17937W        W86155  38.851  14.781  12.331
17938W        W86156  21.629   1.358  13.142
17939W        W86157  24.691  37.376  14.213
17940W        W86158   8.715  32.563  11.948
17941W        W86159  40.428   9.134   4.173
17942W        W86160  16.455   7.558  14.691
17943W        W86161  17.048  21.820   2.186
17944W        W86162  29.197  22.182  14.447
17945W        W86163  42.078  26.653  11.626
17946W        W86164  40.527  35.911  10.188
17947W        W86165  14.455  25.917   4.515
17948W        W86166   1.082   4.910   3.268
17949W        W86167   0.527  44.078   1.780
17950W        W86168  25.391  21.021  13.814
17951W        W86169  12.347   7.770   4.753
17952W        W86170  39.392  23.216   0.787
17953W        W86171   8.902  41.363   1.271
17954W        W86172  34.030  20.310   0.101
17955W        W86173   6.922  15.085  13.606
17956W        W86174  31.840  21.542  11.923
17957W        W86175  26.080   1.595  13.325
17958W        W86176   6.434  21.109   3.569
17959W        W86177  25.637   5.291   3.654
17960W        W86178  10.676  33.528   2.344
17961W        W86179  43.519  22.187   0.693
17962W        W86180   4.580  25.426  11.622
17963W        W86181  22.511  43.317  13.370
17964W        W86182   7.101  12.234  11.142
17965W        W86183  22.488  42.464  12.978
17966W        W86184  36.485  16.810  13.536
17967W        W86185   9.314  37.890   3.745
17968W        W86186  34.598  38.727  14.944
17969W        W86187   3.324  43.220   2.834
17970W        W86188  33.532  34.359  14.887
17971W        W86189  17.984  42.443  13.009
17972W        W86190   5.883  23.093  14.013
17973W        W86191  20.640  34.344  14.565
17974W        W86192  25.386  40.844  11.491
17975W        W86193  24.736   5.007  12.193
17976W        W86194  24.660  43.275   4.685
17977W        W86195   0.471   5.158  13.016
17978W        W86196  21.327  21.049  14.373
17979W        W86197   3.899  26.062  13.073
17980W        W86198  17.751  17.270  12.826
17981W        W86199  35.869  42.309   1.434
17982W        W86200   6.152  41.846  10.943
17983W        W86201   3.279  35.364   0.975
17984W        W86202   9.712  32.057   2.793
17985W        W86203  13.360  31.810  13.482
17986W        W86204  25.877  36.121   1.341
17987W        W86205   6.643  37.922   4.674
17988W        W86206   2.832  24.980  10.650
17989W        W86207   7.355  16.753   3.051
17990W        W86208  10.883   6.887  13.478
17991W        W86209   7.507  22.623  11.970
17992W        W86210   0.832  28.701  13.009
17993W        W86211  10.823  30.912  10.669
17994W        W86212   6.479   3.514   1.267
17995W        W86213  28.363   1.856  12.519
17996W        W86214  13.835  38.031   4.225
17997W        W86215  14.398  18.337   3.146
17998W        W86216   6.287  10.423   2.863
17999W        W86217  10.840  11.672  13.617
18000W        W86218  38.475  20.725   3.354
18001W        W86219  15.699  12.375   1.842
18002W        W86220  31.997  23.943  12.506
18003W        W86221  23.798   8.710  12.874
18004W        W86222   7.358  30.126  11.714
18005W        W86223   9.861  41.271   1.292
18006W        W86224  17.152  40.611   3.541
18007W        W86225  19.017  18.292  11.620
18008W        W86226  43.627  13.324   2.160
18009W        W86227  18.139  16.896  12.960
18010W        W86228  23.954   2.449  13.627
18011W        W86229  25.765  10.918   4.557
18012W        W86230  38.551  37.466   2.579
18013W        W86231  40.357  15.246  13.146
18014W        W86232  31.699   1.753  12.845
18015W        W86233  38.248  41.427   1.480
18016W        W86234  31.157  11.554   0.946
18017W        W86235  34.465  39.094   3.334
18018W        W86236  13.347  36.759   2.290
18019W        W86237  36.479   9.686  12.035
18020W        W86238  26.510  41.994   2.655
18021W        W86239  33.842   4.784   3.851
18022W        W86240  44.390  41.526  11.165
18023W        W86241   3.734  33.098  13.782
18024W        W86242  22.594  38.069   3.112
18025W        W86243  29.713   5.064  12.032
18026W        W86244  42.905  35.653   1.003
18027W        W86245  34.168   1.306   1.427
18028W        W86246   8.838  39.057  11.103
18029W        W86247  24.668  11.420  13.861
18030W        W86248  21.975  39.073  11.531
18031W        W86249  15.499  10.269  12.497
18032W        W86250  16.357  21.125  13.391
18033W        W86251  36.398  39.866  10.522
18034W        W86252  17.058  25.858   1.441
18035W        W86253   0.774  27.525  13.738
18036W        W86254  43.327  34.334   1.481
18037W        W86255  17.534  12.114  13.888
18038W        W86256   8.900  21.093   2.376
18039W        W86257   5.834  32.584  14.825
18040W        W86258   3.121  22.973  14.764
18041W        W86259   3.591  38.638   0.555
18042W        W86260  25.395  42.289  13.423
18043W        W86261  39.111  44.928  10.969
18044W        W86262  26.863   6.623  13.299
18045W        W86263  39.385   5.999  13.391
18046W        W86264  32.657   3.318   2.239
18047W        W86265  36.388  27.549   1.304
18048W        W86266   3.376  25.706   1.527
18049W        W86267   2.216  26.415   1.379
18050W        W86268  10.713  35.481   2.748
18051W        W86269  35.548  36.995  12.352
18052W        W86270  11.719  28.979   0.800
18053W        W86271  25.143  31.058   4.529
18054W        W86272   8.328  19.055  13.449
18055W        W86273  11.884  29.631  13.500
18056W        W86274  44.355  43.945   4.138
18057W        W86275   3.968  20.468   1.668
18058W        W86276   7.393  11.770   4.548
18059W        W86277  32.071  24.035   4.921
18060W        W86278  24.275  35.827   3.182
18061W        W86279   0.170  40.894  10.762
18062W        W86280  18.282  27.460  11.139
18063W        W86281   8.761  21.295   0.006
18064W        W86282   0.053  23.084   2.678
18065W        W86283  23.943  40.136  14.437
18066W        W86284  13.743  10.380  10.647
18067W        W86285  43.066  33.959   3.667
18068W        W86286  16.004   6.902   1.661
18069W        W86287  15.557   7.777  13.028
18070W        W86288   3.879   0.145  13.374
18071W        W86289   9.859   0.545   3.393
18072W        W86290  32.105  29.616   1.246
18073W        W86291  43.393  22.096   4.574
18074W        W86292  34.215   8.329   4.373
18075W        W86293  39.472  34.880   3.628
18076W        W86294   6.270  35.604  14.760
18077W        W86295  44.342  26.506   3.777
18078W        W86296  19.432  10.097  13.990
18079W        W86297   8.451  22.785  13.196
18080W        W86298  36.046   1.005  12.422
18081W        W86299  31.997  36.765  11.832
18082W        W86300  19.288   0.185  13.280
18083W        W86301  26.143  13.125  11.361
18084W        W86302  21.978  30.047   4.352
18085W        W86303  44.033  13.761   1.736
18086W        W86304  35.076   4.576  14.704
18087W        W86305   2.277  11.405   2.700
18088W        W86306  26.726  24.090   4.090
18089W        W86307  19.382   0.380   1.873
18090W        W86308  27.664  12.403   0.330
18091W        W86309  14.755  33.762   2.147
18092W        W86310   2.310  28.432   4.649
18093W        W86311  12.180  38.259   0.394
18094W        W86312  28.103  11.126   4.371
18095W        W86313   4.990   8.778   3.263
18096W        W86314  42.122  36.833  14.203
18097W        W86315   4.388  37.379  10.979
18098W        W86316   6.442  29.597   2.652
18099W        W86317   4.621  43.565  13.049
18100W        W86318  18.597  17.319  13.930
18101W        W86319  22.702  41.986  12.829
18102W        W86320  21.296  35.806  14.787
18103W        W86321   0.984  35.460   4.508
18104W        W86322  19.735  20.220   2.410
18105W        W86323  27.862  27.655  10.497
18106W        W86324  22.262  24.951  12.481
18107W        W86325  33.948  20.032  11.636
18108W        W86326  35.019  19.740  11.918
18109W        W86327  33.862   0.413  11.163
18110W        W86328   8.099  34.372   5.009
18111W        W86329  26.625  37.779   3.226
18112W        W86330  43.951   7.616  12.662
18113W        W86331  36.893  12.879   4.825
18114W        W86332  42.676  32.470   4.752
18115W        W86333  41.465   2.386  11.883
18116W        W86334  12.341  16.523   1.798
18117W        W86335   5.306  26.007  13.860
18118W        W86336  14.899  35.143  10.799
18119W        W86337   7.216   7.413  13.352
18120W        W86338  12.295  33.823  12.415
18121W        W86339  26.943  41.103   0.207
18122W        W86340  37.818   3.321   2.934
18123W        W86341  36.358   2.212  13.050
18124W        W86342  21.935  40.333  13.495
18125W        W86343  36.746   6.666   0.408
18126W        W86344  30.699  44.801  11.500
18127W        W86345  38.973  26.410  11.200
18128W        W86346  16.604  27.692   0.309
18129W        W86347  33.165  26.376   9.783
18130W        W86348  16.873   4.335   1.937
18131W        W86349   2.499  12.700   3.209
18132W        W86350  16.668  22.750   1.961
18133W        W86351  30.074  14.767  10.173
18134W        W86352  43.505  14.567   2.714
18135W        W86353  25.208  43.433  11.526
18136W        W86354  37.590   7.263  10.946
18137W        W86355  32.851   7.104   0.931
18138W        W86356  38.588  38.325   3.305
18139W        W86357  27.457   9.282  12.366
18140W        W86358  33.654   4.498   0.475
18141W        W86359   8.990  12.077   3.841
18142W        W86360   0.491  10.197  10.956
18143W        W86361   3.526  17.784  13.891
18144W        W86362  40.864  16.789  14.475
18145W        W86363  24.103  21.465   3.695
18146W        W86364  14.782   0.260   0.336
18147W        W86365  25.726  25.051   0.419
18148W        W86366  19.226  34.770  14.218
18149W        W86367   5.900  42.440  13.948
18150W        W86368   9.431  12.271   2.242
18151W        W86369  21.138   8.122   2.445
18152W        W86370   3.652  15.235   2.279
18153W        W86371   5.512  14.327  14.934
18154W        W86372  16.181  12.264   1.959
18155W        W86373  18.667  37.315   0.553
18156W        W86374  10.858  29.990  14.685
18157W        W86375  19.133   4.543  14.352
18158W        W86376  22.644  30.282  11.512
18159W        W86377  19.674   7.410   4.163
18160W        W86378  25.927  23.229  13.072
18161W        W86379  24.549  28.395  11.978
18162W        W86380  42.941  21.751  13.270
18163W        W86381  41.990   5.850  14.739
18164W        W86382  42.002  25.444   0.314
18165W        W86383   6.948  22.692   4.127
18166W        W86384   0.738  19.746  14.177
18167W        W86385  23.697  33.985  14.251
18168W        W86386   0.750  12.639  12.523
18169W        W86387   7.207  29.817   0.322
18170W        W86388   3.059  10.810   1.193
18171W        W86389  41.624  18.191   3.578
18172W        W86390  23.550  23.623   2.143
18173W        W86391  44.795  18.452   2.302
18174W        W86392  15.796  22.258  14.437
18175W        W86393  19.692  19.460   3.037
18176W        W86394  10.681  21.540   3.913
18177W        W86395   0.471  31.387   1.262
18178W        W86396  23.428  38.506  12.484
18179W        W86397  30.426   4.415   3.239
18180W        W86398  40.005  25.728  14.019
18181W        W86399  32.231  26.618  13.032
18182W        W86400   6.724  29.039  14.502
18183W        W86401  42.111  12.595   2.716
18184W        W86402   2.913  44.949  11.552
18185W        W86403  33.525  37.617   2.208
18186W        W86404   5.643  27.082   2.622
18187W        W86405  29.381  34.668  14.319
18188W        W86406  18.735   3.789   1.198
18189W        W86407  42.544  22.075   4.400
18190W        W86408   0.006  33.333  11.493
18191W        W86409  42.937   0.397   2.358
18192W        W86410  19.691   4.812  13.234
18193W        W86411  33.146   0.484  14.887
18194W        W86412   6.183  27.982   3.644
18195W        W86413   3.199  38.036   3.741
18196W        W86414  19.085  37.352  14.810
18197W        W86415   1.749  28.149  14.713
18198W        W86416  28.078   6.375  13.735
18199W        W86417  13.788  39.416  12.120
18200W        W86418  23.090  12.802   4.578
18201W        W86419  31.412  39.671  11.542
18202W        W86420  31.113  38.503   2.719
18203W        W86421  22.288  13.772   2.768
18204W        W86422  14.357  19.281  12.561
18205W        W86423   2.846  44.216   2.216
18206W        W86424  34.344  40.798   3.174
18207W        W86425  21.802  38.372   1.770
18208W        W86426  43.429   9.321  12.906
18209W        W86427  33.064  39.095   0.437
18210W        W86428  36.522   5.748   4.848
18211W        W86429  12.502  13.353  12.953
18212W        W86430  11.404  11.394   3.082
18213W        W86431  36.977   7.661   4.119
18214W        W86432  33.631  26.620  13.496
18215W        W86433  27.061  14.673   3.711
18216W        W86434  33.321  33.804   3.670
18217W        W86435  15.961   0.067   2.229
18218W        W86436  28.940  44.918  11.159
18219W        W86437  36.035  38.791  12.680
18220W        W86438  42.081  33.033  12.531
18221W        W86439  37.549  35.164   1.347
18222W        W86440  24.880  25.323   1.832
18223W        W86441   9.830   8.317  13.436
18224W        W86442  32.523  33.771  14.896
18225W        W86443  43.625  34.340   2.337
18226W        W86444  18.784  39.322   2.575
18227W        W86445   8.395  25.974   4.626
18228W        W86446  32.134  30.441  12.665
18229W        W86447  40.100  27.807   2.796
18230W        W86448  38.014   4.210  14.368
18231W        W86449   1.334   0.920   0.353
18232W        W86450   5.715  25.949   1.865
18233W        W86451  33.638  44.055   2.272
18234W        W86452  19.845  18.670   0.832
18235W        W86453  23.393  15.453  11.259
18236W        W86454  40.974  19.756   2.153
18237W        W86455  14.216  14.202  14.896
18238W        W86456  14.995  29.474  11.011
18239W        W86457  11.337  10.913   2.855
18240W        W86458   9.262  21.305   2.678
18241W        W86459  42.889  34.305   3.978
18242W        W86460   6.044  16.669  10.306
18243W        W86461  44.206  22.818  14.399
18244W        W86462  38.105  17.852  14.398
18245W        W86463   4.929  38.134  11.139
18246W        W86464  17.250  25.979   2.347
18247W        W86465   4.500  33.506   2.402
18248W        W86466  34.593   3.676   0.426
18249W        W86467  13.252   1.712  12.464
18250W        W86468  44.539   9.222   1.439
18251W        W86469  27.735  16.580   4.115
18252W        W86470  31.151  32.229   0.862
18253W        W86471  15.260  18.215  12.515
18254W        W86472  10.618   9.251   0.937
18255W        W86473  35.466  40.926   4.174
18256W        W86474  10.361   0.453   2.696
18257W        W86475  31.058   9.778   1.540
18258W        W86476  32.165  39.360   0.429
18259W        W86477  19.331   4.740   0.008
18260W        W86478   7.712  41.714   0.936
18261W        W86479  34.295  22.314  14.039
18262W        W86480  21.662  29.439  11.979
18263W        W86481  22.928   6.862  14.032
18264W        W86482  42.508  31.138  12.098
18265W        W86483  28.708  13.662   1.748
18266W        W86484  14.542  31.702  13.774
18267W        W86485  38.256  38.056   1.936
18268W        W86486  18.649   9.724   4.624
18269W        W86487  37.271  35.740  14.281
18270W        W86488  16.240  24.780   3.128
18271W        W86489  31.986  10.527   2.339
18272W        W86490  24.970  11.286  11.837
18273W        W86491  22.665   0.002  10.678
18274W        W86492  16.554  14.713   4.888
18275W        W86493  39.966  23.426  10.973
18276W        W86494   1.111  24.287   0.131
18277W        W86495  31.550   0.394   2.297
18278W        W86496  10.632   8.631  13.037
18279W        W86497  37.614  31.502  14.469
18280W        W86498  33.869  14.347  14.714
18281W        W86499  28.967   9.259  12.334
18282W        W86500  28.133  23.346   0.257
18283W        W86501  26.446  30.641   0.081
18284W        W86502   6.825   2.011   1.828
18285W        W86503  31.182   1.926  12.780
18286W        W86504  39.927  34.493   1.339
18287W        W86505   0.742  34.228  12.348
18288W        W86506  19.538  28.683   0.398
18289W        W86507  27.341  38.926   4.601
18290W        W86508   0.487  17.248  14.895
18291W        W86509  31.289  35.579  13.904
18292W        W86510  18.757  22.834  11.167
18293W        W86511  30.622  14.786  14.774
18294W        W86512  37.064  11.713   3.796
18295W        W86513  39.068  44.970   1.825
18296W        W86514  41.206  15.555   4.993
18297W        W86515  17.391  38.593   0.885
18298W        W86516  42.870  12.268   0.132
18299W        W86517  38.417  25.964  13.061
18300W        W86518  36.152   9.358   3.762
18301W        W86519   4.422  32.301  11.236
18302W        W86520  23.071  12.503   0.714
18303W        W86521  39.077  19.355   0.302
18304W        W86522   7.364   0.074   2.632
18305W        W86523  12.746  41.691   4.958
18306W        W86524   4.499   3.385   0.449
18307W        W86525   4.989  38.442  13.549
18308W        W86526  39.888  27.266   0.841
18309W        W86527  42.804  20.085   0.515
18310W        W86528  35.953  27.163   3.171
18311W        W86529  29.080  28.799   4.130
18312W        W86530  42.172   3.752   0.826
18313W        W86531  35.578  22.091   4.179
18314W        W86532   4.891  34.035  11.874
18315W        W86533  14.241  25.737  11.616
18316W        W86534  35.501  34.741   3.988
18317W        W86535  27.256  10.263   3.984
18318W        W86536   3.028  15.852   2.679
18319W        W86537  41.947  14.654  10.481
18320W        W86538  11.812  19.812  13.046
18321W        W86539   3.912  20.538   1.167
18322W        W86540  12.077  41.850   0.446
18323W        W86541  11.699  30.604  13.710
18324W        W86542  21.015   1.720  14.531
18325W        W86543   3.208   6.629  14.286
18326W        W86544   2.521  13.783  13.094
18327W        W86545  33.834  20.649  10.834
18328W        W86546  34.270  27.426  11.778
18329W        W86547  21.307  18.670   0.712
18330W        W86548   8.275  43.459  11.376
18331W        W86549  11.814  13.162  14.068
18332W        W86550  40.837   4.728   1.214
18333W        W86551   5.049  43.876   1.353
18334W        W86552  12.554  30.613  11.199
18335W        W86553   2.518  24.668  14.726
18336W        W86554  38.920   4.305   9.843
18337W        W86555   9.891  38.381   0.972
18338W        W86556  34.932  16.734  14.870
18339W        W86557  28.647  40.162  11.205
18340W        W86558  38.337   9.400  12.982
18341W        W86559  28.037  38.517  12.418
18342W        W86560   3.979  33.222   0.815
18343W        W86561   2.889  27.050   3.885
18344W        W86562  36.553  21.237  14.355
18345W        W86563  41.371  19.695  12.056
18346W        W86564  33.856  35.257  12.737
18347W        W86565  15.801  33.955  10.496
18348W        W86566   3.094  39.756  11.764
18349W        W86567  23.655  30.424   3.076
18350W        W86568   6.357  18.573  12.873
18351W        W86569   4.386   7.730   0.373
18352W        W86570   2.754  25.100  13.452
18353W        W86571  40.526  11.502  12.833
18354W        W86572  37.939   1.869  11.201
18355W        W86573  15.152  21.672  12.651
18356W        W86574  44.664  35.354  13.728
18357W        W86575  36.456   8.682   2.437
18358W        W86576   2.297  38.937  12.504
18359W        W86577   2.172   4.677   4.065
18360W        W86578  29.742  37.605  13.458
18361W        W86579  16.498  10.376   0.927
18362W        W86580  44.779  29.556  13.381
18363W        W86581  16.080  17.932   4.674
18364W        W86582  38.327  38.298  11.851
18365W        W86583  38.247  37.757   2.921
18366W        W86584  27.222  30.191   0.352
18367W        W86585  10.235   3.678   2.624
18368W        W86586  18.711   1.814   0.727
18369W        W86587   2.840  22.488   4.427
18370W        W86588  29.015  36.441   3.870
18371W        W86589  32.015  25.676  10.517
18372W        W86590  31.931  12.304   1.745
18373W        W86591  27.892  40.987   2.362
18374W        W86592   3.637  43.810  12.014
18375W        W86593  35.357   9.864   4.876
18376W        W86594   6.274  41.754  14.762
18377W        W86595  38.414  42.407  13.808
18378W        W86596  13.336  36.490   1.849
18379W        W86597  23.271  18.077   2.292
18380W        W86598  33.041  26.636  12.552
18381W        W86599  16.835   2.710   2.781
18382W        W86600   7.425   3.553   1.291
18383W        W86601  25.904   5.880  11.459
18384W        W86602  20.731  22.082  13.561
18385W        W86603   1.686  25.081  13.449
18386W        W86604  21.298  19.750  10.708
18387W        W86605  41.619  36.887  14.355
18388W        W86606   2.935  30.495   1.637
18389W        W86607  42.077  33.509   1.827
18390W        W86608   1.475  23.494  11.146
18391W        W86609  18.647  16.057   0.404
18392W        W86610  32.397  21.485   2.714
18393W        W86611   5.199  14.273  14.455
18394W        W86612   2.012   3.606   0.601
18395W        W86613  19.699  35.884  13.787
18396W        W86614  12.937  20.573   3.206
18397W        W86615   1.241  18.436  12.109
18398W        W86616  16.108  29.994  11.616
18399W        W86617  15.819  10.298  12.113
18400W        W86618  24.554  11.694   4.463
18401W        W86619  19.090  41.435  10.394
18402W        W86620  24.645  29.184  12.821
18403W        W86621  36.775  12.132   3.703
18404W        W86622  13.281  14.874  12.121
18405W        W86623  33.790  30.388  13.399
18406W        W86624  25.280  36.622   0.398
18407W        W86625  19.754  16.848  12.342
18408W        W86626  22.181   3.367   3.321
18409W        W86627  15.893  16.618  11.953
18410W        W86628  17.589  20.792  13.395
18411W        W86629  38.929  30.676  12.171
18412W        W86630  19.143  16.729   4.231
18413W        W86631  28.597   5.478   4.162
18414W        W86632  26.456  41.915   4.579
18415W        W86633  22.262   0.436  13.997
18416W        W86634  26.665  36.638  11.136
18417W        W86635  18.993  27.990   4.132
18418W        W86636   8.358   3.200   1.502
18419W        W86637  14.704   5.232  14.973
18420W        W86638  31.651  14.679   1.224
18421W        W86639  37.710  29.581  13.431
18422W        W86640  11.106  36.983   0.556
18423W        W86641  18.083  26.280  13.517
18424W        W86642  40.628  42.851  14.710
18425W        W86643  19.576  30.683  12.326
18426W        W86644  30.807  20.995  12.576
18427W        W86645  41.254  35.900   2.740
18428W        W86646  28.521  44.029   0.601
18429W        W86647  22.313  35.548  14.573
18430W        W86648  18.667  11.659   0.673
18431W        W86649  21.613  30.820  13.942
18432W        W86650  10.763  41.368   1.324
18433W        W86651  33.296  40.401  14.164
18434W        W86652  26.098   7.596   3.788
18435W        W86653  28.909   6.855   4.710
18436W        W86654   1.287  27.531  12.864
18437W        W86655  35.451  38.776   3.153
18438W        W86656  20.877  38.917   3.823
18439W        W86657  30.015  18.163  14.966
18440W        W86658  36.577   9.572  11.183
18441W        W86659  36.834  10.827   4.887
18442W        W86660   9.216  21.184   0.222
18443W        W86661  13.679  15.150   4.461
18444W        W86662  31.675  41.598   0.369
18445W        W86663  28.432  12.627  13.079
18446W        W86664  44.281   7.931  13.220
18447W        W86665  32.902  31.700   3.533
18448W        W86666  34.858  17.243  14.955
18449W        W86667  32.163  35.282  11.621
18450W        W86668  16.209  43.347   3.104
18451W        W86669   6.763   6.866   4.094
18452W        W86670  28.270  41.132   3.630
18453W        W86671  11.824  39.046   4.742
18454W        W86672  34.350   6.417  14.544
18455W        W86673  23.635  37.188  10.634
18456W        W86674  29.462  16.988   0.129
18457W        W86675  37.582  13.621  13.911
18458W        W86676  40.938  20.854  12.569
18459W        W86677   1.845  18.691   1.834
18460W        W86678  27.269  24.830   5.074
18461W        W86679  26.373  30.765   2.407
18462W        W86680   8.392   1.121  12.196
18463W        W86681  26.965  26.729  14.429
18464W        W86682  40.521   9.247  11.620
18465W        W86683  31.506  24.762  14.860
18466W        W86684  31.107  44.257  11.895
18467W        W86685   8.750   9.819  12.990
18468W        W86686  34.175   4.062   4.943
18469W        W86687  44.776  29.772   2.423
18470W        W86688  19.699  16.193   4.330
18471W        W86689  42.075   2.039   4.261
18472W        W86690  41.511  36.975   2.587
18473W        W86691  32.314  19.201  14.466
18474W        W86692  32.847  11.940  12.053
18475W        W86693  24.987   9.872  10.464
18476W        W86694  17.694  39.540   3.262
18477W        W86695  42.674  11.969  11.287
18478W        W86696  31.697  23.751  11.531
18479W        W86697  27.270  11.395   4.533
18480W        W86698  10.727  36.430  10.819
18481W        W86699  23.112  38.085   1.873
18482W        W86700  10.400   5.589   1.414
18483W        W86701  25.450  41.969  14.077
18484W        W86702  22.260  13.886   1.054
18485W        W86703   5.365   0.248  13.323
18486W        W86704  36.945  10.683  10.711
18487W        W86705   8.903   0.040  14.903
18488W        W86706  42.396  41.513  10.658
18489W        W86707  38.342   5.288  12.905
18490W        W86708   0.511   2.054  12.339
18491W        W86709  20.268  39.905   1.695
18492W        W86710  22.733  23.799  14.967
18493W        W86711   7.042  28.997   4.701
18494W        W86712  22.670  11.724   4.564
18495W        W86713  30.489  10.939  11.028
18496W        W86714  36.941  42.371  13.835
18497W        W86715  15.576  30.878  10.715
18498W        W86716  10.618  35.597   3.665
18499W        W86717   3.218  36.902  10.678
18500W        W86718  14.197  15.572  11.148
18501W        W86719   7.318  23.794  14.485
18502W        W86720  14.046  31.102   0.992
18503W        W86721  26.749  42.950  10.703
18504W        W86722  44.825  14.282  12.597
18505W        W86723  14.735   4.918  14.445
18506W        W86724  34.538  10.511  14.991
18507W        W86725  42.514  38.871  14.707
18508W        W86726  43.960  10.702  14.379
18509W        W86727  33.392  38.597  14.481
18510W        W86728   5.628  40.309   4.186
18511W        W86729   9.507   4.320   0.811
18512W        W86730   3.380   3.765  14.764
18513W        W86731   7.193  31.805   1.727
18514W        W86732  22.823  11.257  10.637
18515W        W86733  35.533  36.833   0.491
18516W        W86734   4.928   1.086  13.878
18517W        W86735  10.720  26.487  12.885
18518W        W86736  20.317  10.894  12.968
18519W        W86737  10.111  31.660   1.129
18520W        W86738  28.423   4.748   3.155
18521W        W86739  15.486   6.826   0.716
18522W        W86740   2.996   4.179   3.928
18523W        W86741  33.961  30.494   1.853
18524W        W86742  32.705  15.380   2.681
18525W        W86743   2.905  30.598  13.179
18526W        W86744  36.923  19.308   0.988
18527W        W86745  30.850  26.040   3.035
18528W        W86746  36.478   0.753   2.379
18529W        W86747  43.370   5.276   3.397
18530W        W86748  31.953  37.804   2.493
18531W        W86749  25.554  35.171   2.203
18532W        W86750  10.093  40.717  14.933
18533W        W86751  44.253   4.836   4.141
18534W        W86752   5.747  40.152  14.386
18535W        W86753  41.448  20.343  14.742
18536W        W86754  39.395   7.176  12.173
18537W        W86755  23.499   2.690  13.431
18538W        W86756  15.579  34.454  13.068
18539W        W86757  32.049  23.160   3.168
18540W        W86758  23.211  10.397   2.019
18541W        W86759   4.736  41.313  14.157
18542W        W86760  16.373  36.545   1.441
18543W        W86761  34.139   4.540  12.389
18544W        W86762  10.293   1.901  11.926
18545W        W86763   4.478  36.025  13.066
18546W        W86764  16.116  23.797  10.540
18547W        W86765  43.935  40.567   4.713
18548W        W86766  44.715  12.593   3.207
18549W        W86767   8.747   5.329  14.301
18550W        W86768  21.920  22.427   2.724
18551W        W86769  39.098  27.052   2.076
18552W        W86770  17.001   2.329   2.020
18553W        W86771  25.067   6.787   4.012
18554W        W86772  28.529  22.310  12.792
18555W        W86773  23.702  21.132  14.388
18556W        W86774  27.229  25.567  11.111
18557W        W86775   3.202  12.129  11.851
18558W        W86776  44.812  24.482  12.641
18559W        W86777  40.030   3.652  11.962
18560W        W86778  31.442   5.289  12.983
18561W        W86779  28.543  39.462  11.568
18562W        W86780   6.337   3.890   0.296
18563W        W86781   3.433  19.298   4.094
18564W        W86782  41.664  37.746  13.358
18565W        W86783  36.267  34.497  13.462
18566W        W86784  31.330  33.479  12.884
18567W        W86785  27.128  38.815   0.940
18568W        W86786  13.581  44.456   3.222
18569W        W86787  39.117   7.599   4.528
18570W        W86788   1.893  12.295  13.113
18571W        W86789  27.013  30.697   3.591
18572W        W86790  20.582  43.710   3.537
18573W        W86791  22.178  16.790  14.320
18574W        W86792  22.788  43.519  13.882
18575W        W86793  30.024   3.714  11.198
18576W        W86794  27.167   3.482  12.103
18577W        W86795  31.543  12.813  13.742
18578W        W86796   7.846  41.914  14.377
18579W        W86797   0.815  22.555  13.078
18580W        W86798  44.504   1.713   5.038
18581W        W86799  27.348  36.866  13.515
18582W        W86800   7.452  11.037  12.446
18583W        W86801  42.003   2.928   4.025
18584W        W86802  21.778  20.620   3.764
18585W        W86803  30.530  39.360  14.510
18586W        W86804  16.620   0.988  11.959
18587W        W86805   1.233  15.329  14.482
18588W        W86806  34.382  23.792  14.840
18589W        W86807  15.102   7.878  14.078
18590W        W86808  20.879  18.698   1.019
18591W        W86809  27.338   4.237  11.439
18592W        W86810   5.395  33.245  13.891
18593W        W86811  41.577  22.564   0.348
18594W        W86812  29.589  42.558  10.778
18595W        W86813  25.654  33.706   0.689
18596W        W86814  12.776  36.555   4.688
18597W        W86815  36.966  42.716  14.477
18598W        W86816  33.297  41.922  13.903
18599W        W86817  26.740  19.256   3.623
18600W        W86818  39.739   1.398   2.218
18601W        W86819   8.250  10.556   1.022
18602W        W86820  33.824  34.214  13.013
18603W        W86821  39.143   2.620   0.793
18604W        W86822  27.399  19.312  12.444
18605W        W86823  38.180  35.471   0.392
18606W        W86824  27.979  14.265  13.557
18607W        W86825  21.650  35.816  12.494
18608W        W86826  33.015   4.396  13.906
18609W        W86827  35.524   0.506  10.380
18610W        W86828   0.692  20.678   0.281
18611W        W86829  20.982  31.550  12.048
18612W        W86830  42.858  14.668   1.500
18613W        W86831  30.185  28.590  11.950
18614W        W86832  31.818  14.940   2.800
18615W        W86833  39.477   3.454   0.471
18616W        W86834  35.759  27.612  11.860
18617W        W86835  42.443   2.903  14.505
18618W        W86836   1.960   4.274  14.990
18619W        W86837  18.677  32.034   0.323
18620W        W86838   8.798  22.216  12.230
18621W        W86839  42.291  28.593  10.668
18622W        W86840  28.193  10.306  14.693
18623W        W86841   9.260  40.883   0.326
18624W        W86842  37.462   7.313   2.756
18625W        W86843  25.711  19.712   4.595
18626W        W86844  21.186   6.343   4.031
18627W        W86845   3.344  22.760   5.148
18628W        W86846   2.431   5.200  12.031
18629W        W86847  25.762  28.522  13.334
18630W        W86848   7.118  31.858   5.091
18631W        W86849  29.605  41.774  11.218
18632W        W86850  30.601  28.672   3.899
18633W        W86851  39.927  16.263   1.479
18634W        W86852  19.802  32.813  12.085
18635W        W86853  33.866  13.248  11.498
18636W        W86854  20.769  28.020   0.771
18637W        W86855  36.866  39.889  12.568
18638W        W86856  16.616  16.287   1.441
18639W        W86857   2.387   1.057   0.335
18640W        W86858  10.868  35.878  11.933
18641W        W86859   9.195  27.370  14.647
18642W        W86860  16.011   5.669   0.862
18643W        W86861  10.159  17.828   4.242
18644W        W86862  10.227  36.247  11.888
18645W        W86863   2.501   4.894  11.607
18646W        W86864  19.727   7.204  14.251
18647W        W86865  41.826  16.586   2.312
18648W        W86866  31.492  23.061   0.667
18649W        W86867  28.451  22.948   0.418
18650W        W86868  21.200  28.233  12.910
18651W        W86869  30.596  36.424  13.104
18652W        W86870   2.970   9.640   1.949
18653W        W86871  13.841  20.988   1.200
18654W        W86872  20.245  24.485   4.248
18655W        W86873   7.271  33.000   3.684
18656W        W86874   1.737  34.069  12.865
18657W        W86875  34.188  33.908   3.219
18658W        W86876   8.814  20.521  14.080
18659W        W86877  15.670   3.225  12.504
18660W        W86878  39.787  19.138   1.739
18661W        W86879  38.770  28.052  14.749
18662W        W86880  36.827  43.236   0.915
18663W        W86881   9.925  22.945  11.489
18664W        W86882  20.515   8.080   3.757
18665W        W86883   9.884   4.452  13.873
18666W        W86884  23.545  23.271  11.470
18667W        W86885   3.799  42.144  10.133
18668W        W86886   1.511   4.930   2.348
18669W        W86887  44.292  14.420  14.476
18670W        W86888  24.120  36.449  13.897
18671W        W86889   3.759  32.821  11.615
18672W        W86890  44.625  17.152  11.179
18673W        W86891  37.629   0.282   3.626
18674W        W86892  34.680   4.598   1.319
18675W        W86893  18.120  19.205  12.883
18676W        W86894  31.651  31.441   4.682
18677W        W86895  16.318  12.635   4.107
18678W        W86896  27.086  42.285   2.219
18679W        W86897   4.289   6.391   4.256
18680W        W86898  35.616  24.833  14.793
18681W        W86899  14.637   5.694  14.713
18682W        W86900   3.595  25.187   2.283
18683W        W86901  44.563  10.598   0.288
18684W        W86902  21.132  14.114  11.134
18685W        W86903  12.250  13.898   3.834
18686W        W86904  39.784  17.261  11.582
18687W        W86905  29.049  43.760   4.126
18688W        W86906  28.923  29.272   2.889
18689W        W86907  20.301  20.500   2.751
18690W        W86908   2.582  16.981   9.912
18691W        W86909  31.130   9.897  12.509
18692W        W86910  23.792  43.011   0.847
18693W        W86911   1.327   4.239  13.280
18694W        W86912   9.653  40.309   4.505
18695W        W86913  17.236  30.088  10.694
18696W        W86914  14.895  12.836  11.572
18697W        W86915  40.829  23.425  13.568
18698W        W86916  18.028  21.060  14.510
18699W        W86917   6.346  41.570  12.479
18700W        W86918  12.776  38.550  12.627
18701W        W86919   7.397  12.884  13.020
18702W        W86920  39.394  38.177   1.438
18703W        W86921   7.751  13.158  10.330
18704W        W86922  11.175   6.878   0.225
18705W        W86923  12.948  41.003  10.672
18706W        W86924  23.482   7.280  12.477
18707W        W86925  22.509  44.255  14.296
18708W        W86926  10.817  17.373  10.189
18709W        W86927  34.513   3.773   4.688
18710W        W86928  15.867  44.448   0.354
18711W        W86929  22.018  26.196   2.759
18712W        W86930  22.410  29.112   3.271
18713W        W86931  19.489  15.080  14.169
18714W        W86932  36.350  37.834  14.408
18715W        W86933   3.940  30.575  14.058
18716W        W86934  15.642  44.925  13.514
18717W        W86935  28.266   1.083  12.989
18718W        W86936  15.142   5.580   2.341
18719W        W86937  28.060  30.097   0.938
18720W        W86938  38.425  18.738  13.944
18721W        W86939  23.663  26.668  13.910
18722W        W86940  37.435   6.265  13.197
18723W        W86941   2.354   0.473   1.908
18724W        W86942  19.571  18.907  11.972
18725W        W86943  16.298  27.164   4.228
18726W        W86944  19.608  17.412   0.372
18727W        W86945   9.927  33.982   0.419
18728W        W86946  10.388  24.236   2.219
18729W        W86947  38.546  14.677   1.778
18730W        W86948   8.414   0.208  11.406
18731W        W86949  36.460   0.056  14.783
18732W        W86950  16.857  29.189  13.876
18733W        W86951  40.467  12.175   0.194
18734W        W86952  20.947   0.499   1.331
18735W        W86953  12.038  36.424  11.572
18736W        W86954  31.074  13.376  11.058
18737W        W86955  26.394  13.632   4.179
18738W        W86956  12.793  38.600  13.645
18739W        W86957  27.112  10.819   2.369
18740W        W86958  31.437  38.536  13.995
18741W        W86959  42.945   2.579  11.854
18742W        W86960  44.409  40.130   0.028
18743W        W86961  11.390  10.664   0.318
18744W        W86962  25.249  44.886   0.179
18745W        W86963  30.192  31.451  12.876
18746W        W86964  22.966   7.883  10.715
18747W        W86965  38.589  28.937   1.396
18748W        W86966   5.891  38.441  10.637
18749W        W86967  29.196  28.003  10.541
18750W        W86968  39.937  14.313   1.818
18751W        W86969  32.535   9.229  11.515
18752W        W86970  13.145  13.696   4.693
18753W        W86971   0.795  34.667  14.036
18754W        W86972  20.585  35.937  12.492
18755W        W86973   8.219  16.587  13.980
18756W        W86974  25.047  40.739  13.852
18757W        W86975  29.095  39.965   1.457
18758W        W86976  12.355  28.460   3.219
18759W        W86977  31.918  38.850  12.038
18760W        W86978  31.939  31.087  13.414
18761W        W86979  26.262  33.335  11.213
18762W        W86980  16.243  40.402  14.660
18763W        W86981  35.245  25.182  14.834
18764W        W86982  42.589  32.321   1.786
18765W        W86983  38.570  33.736  13.522
18766W        W86984  22.349  11.859  11.182
18767W        W86985  15.901   2.042   0.762
18768W        W86986  41.318  21.200  12.422
18769W        W86987  25.270  23.750   0.083
18770W        W86988  44.572  39.994  12.160
18771W        W86989  32.336  40.291   2.300
18772W        W86990  39.566  15.047   1.330
18773W        W86991  27.640   3.754  11.573
18774W        W86992  29.960  11.403   3.221
18775W        W86993  16.550  44.483   1.264
18776W        W86994  35.431  13.613   0.396
18777W        W86995  30.574  22.548  14.805
18778W        W86996  39.597  44.452   0.010
18779W        W86997  23.423   5.934  12.546
18780W        W86998   3.377   8.687   1.361
18781W        W86999  31.762  24.213   3.992
18782W        W87000  39.802  34.247  13.123
18783W        W87001  15.077  14.689   0.774
18784W        W87002   5.960  21.422  13.256
18785W        W87003  27.204  44.848  11.548
18786W        W87004  24.198  14.380  12.534
18787W        W87005  40.074  31.348   2.593
18788W        W87006  25.445  26.733  11.891
18789W        W87007   7.401  10.128   2.115
18790W        W87008  41.046  39.915   3.339
18791W        W87009   8.102  38.859   2.119
18792W        W87010  20.701  41.205  14.261
18793W        W87011   5.255  23.551   3.866
18794W        W87012  39.871  41.945   0.986
18795W        W87013  18.130  41.371   0.473
18796W        W87014  24.595  28.987  14.587
18797W        W87015  37.411  25.034  14.415
18798W        W87016  10.327  13.499   4.332
18799W        W87017  35.476  25.741  12.664
18800W        W87018  44.117  18.537   3.652
18801W        W87019  13.224  42.555  13.955
18802W        W87020  44.295  21.732   3.260
18803W        W87021   6.266  25.029   1.935
18804W        W87022  15.404  26.540   2.223
18805W        W87023  33.401  14.618  12.533
18806W        W87024   6.903  29.671   3.568
18807W        W87025  13.624   3.202   3.427
18808W        W87026  44.850  22.807  11.080
18809W        W87027   5.751  21.141  14.501
18810W        W87028   4.850  37.281   3.798
18811W        W87029   7.783  41.234  10.986
18812W        W87030  43.982  11.711  14.412
18813W        W87031  21.984  13.246  11.552
18814W        W87032  23.591  27.095  13.111
18815W        W87033  32.528  26.137   3.242
18816W        W87034  36.464  33.421   4.712
18817W        W87035   9.556   8.631  11.062
18818W        W87036   7.901  19.338  12.316
18819W        W87037  43.398  32.179  14.697
18820W        W87038  29.065  14.007  13.752
18821W        W87039   3.412  39.047   3.135
18822W        W87040  32.109  11.838   3.608
18823W        W87041  42.290   5.648   0.860
18824W        W87042  29.984  10.053  14.003
18825W        W87043  10.090  26.977  13.359
18826W        W87044  40.534  15.573   3.252
18827W        W87045  13.840  32.926   3.275
18828W        W87046  44.757  26.628   0.371
18829W        W87047   7.801   8.732   0.223
18830W        W87048   3.782  38.782  14.526
18831W        W87049  14.779  17.181  12.993
18832W        W87050   2.957  29.606   1.787
18833W        W87051  38.143  20.565  13.900
18834W        W87052  22.114  17.574  13.008
18835W        W87053  11.393   5.751   2.738
18836W        W87054  20.702  41.482  10.571
18837W        W87055  18.799  15.801   3.128
18838W        W87056  26.546  31.217  10.789
18839W        W87057   0.891  26.500   1.956
18840W        W87058   4.939  30.928   1.404
18841W        W87059  20.479  34.399  12.972
18842W        W87060  34.641  26.195  12.943
18843W        W87061   6.358  18.595   1.775
18844W        W87062  15.220  19.805   4.157
18845W        W87063  12.717  26.674   4.569
18846W        W87064   7.056   6.117  12.548
18847W        W87065  21.725   9.294  10.603
18848W        W87066  38.397   9.806   4.227
18849W        W87067  43.433   9.115  12.420
18850W        W87068  23.312  16.291  10.296
18851W        W87069  24.948  43.041   3.282
18852W        W87070   1.901  37.955   2.739
18853W        W87071  15.374  34.187   3.771
18854W        W87072   3.610  42.272   0.967
18855W        W87073  29.957  21.100  13.017
18856W        W87074  38.730   0.101   4.901
18857W        W87075  28.441  36.904   2.757
18858W        W87076  13.438  40.357  14.512
18859W        W87077   4.404   0.470   2.908
18860W        W87078  11.394  38.056  13.825
18861W        W87079  39.067  30.555   2.115
18862W        W87080   7.838  14.378  14.560
18863W        W87081   8.196   7.366  11.741
18864W        W87082  42.217  25.920  13.935
18865W        W87083  40.275  17.625  12.456
18866W        W87084  34.589   6.793  12.914
18867W        W87085  31.366  22.703  13.402
18868W        W87086  11.122  39.460   4.697
18869W        W87087  29.641  44.842   1.668
18870W        W87088  41.824  14.830   0.414
18871W        W87089  32.987  43.342  13.682
18872W        W87090  21.203  19.070  13.793
18873W        W87091  15.616  21.767   2.118
18874W        W87092  32.522  26.555  12.582
18875W        W87093  41.635  11.497   0.337
18876W        W87094   9.196  38.052   0.499
18877W        W87095  29.440   2.954   3.715
18878W        W87096  26.254  13.105   0.265
18879W        W87097  39.974   4.382   2.901
18880W        W87098  17.253  16.242   0.161
18881W        W87099  11.227  42.949   0.734
18882W        W87100  19.042  17.481   1.303
18883W        W87101  30.138  37.786   3.230
18884W        W87102  20.247  13.882   4.784
18885W        W87103   7.370  27.515   0.454
18886W        W87104  38.458  16.036   2.904
18887W        W87105   5.076  24.431   3.717
18888W        W87106  14.894  17.098   3.035
18889W        W87107  39.845   6.291  14.103
18890W        W87108  44.696  26.533   0.870
18891W        W87109  20.846  19.191   3.738
18892W        W87110  23.612  21.928   0.529
18893W        W87111   5.232  17.240  11.262
18894W        W87112  40.244  39.911  12.200
18895W        W87113  15.107  29.894  14.391
18896W        W87114  41.313   0.756   2.268
18897W        W87115   3.476  23.195   3.236
18898W        W87116  40.615   7.217   2.693
18899W        W87117  33.624   1.973  13.639
18900W        W87118  19.169  30.537  10.651
18901W        W87119  19.251  26.016   3.605
18902W        W87120  26.571   5.236   2.844
18903W        W87121   3.777  30.876  13.460
18904W        W87122  30.225   1.900   1.057
18905W        W87123  44.950  41.940   2.817
18906W        W87124  15.363  44.018   3.220
18907W        W87125  31.988   8.247   4.845
18908W        W87126  24.968  27.368  10.653
18909W        W87127  18.525  25.744  14.027
18910W        W87128  37.539  31.165  12.060
18911W        W87129  12.444  26.878   4.190
18912W        W87130   1.777  17.653   3.614
18913W        W87131  38.353  16.786   4.763
18914W        W87132  37.592  18.317   3.595
18915W        W87133  34.064  30.587  12.993
18916W        W87134   2.357  23.232   2.410
18917W        W87135  26.497  20.256  13.548
18918W        W87136  44.471  18.136   3.614
18919W        W87137   2.246  10.234  14.431
18920W        W87138  25.704  40.038   0.709
18921W        W87139  42.998  18.620  10.888
18922W        W87140   5.823  36.259   2.199
18923W        W87141  41.484  10.749  12.553
18924W        W87142  10.720   8.589   2.395
18925W        W87143   0.282  16.618  10.517
18926W        W87144   7.749  25.573   2.975
18927W        W87145  16.584  35.003   1.113
18928W        W87146  18.358  29.716  12.069
18929W        W87147  12.600   9.316   3.675
18930W        W87148  35.571  33.613   1.164
18931W        W87149  24.420  16.608  14.047
18932W        W87150   9.610  40.042  11.906
18933W        W87151  43.863  17.225   4.893
18934W        W87152  10.584  16.281   2.226
18935W        W87153  42.297   8.759  10.594
18936W        W87154  37.169   6.105   2.569
18937W        W87155  34.090  33.568   0.940
18938W        W87156  37.843  27.209  14.307
18939W        W87157  32.916  36.153   1.834
18940W        W87158  18.264  10.499  14.831
18941W        W87159  20.160  17.729   0.523
18942W        W87160  18.132  27.198   3.322
18943W        W87161  35.767   2.937   4.771
18944W        W87162  42.451  32.011   0.238
18945W        W87163  43.345   8.723  12.070
18946W        W87164  18.540  43.469  14.964
18947W        W87165  20.450   1.558   4.605
18948W        W87166  43.329   2.499   0.338
18949W        W87167  40.324  25.103  13.293
18950W        W87168  38.462  14.085  13.785
18951W        W87169  28.130  11.279  12.083
18952W        W87170  27.389  13.026  13.742
18953W        W87171  40.356  13.815   4.144
18954W        W87172   4.311  16.104  14.699
18955W        W87173  10.875  39.856  10.773
18956W        W87174  41.596  29.871   1.662
18957W        W87175  44.184  43.303   2.793
18958W        W87176  40.989   9.877   3.903
18959W        W87177  13.729  35.381   0.759
18960W        W87178  28.565  34.408  14.852
18961W        W87179   0.418  16.388   2.205
18962W        W87180  38.313   7.939  14.014
18963W        W87181  11.325   2.993  14.465
18964W        W87182   0.802  27.730  12.857
18965W        W87183  25.458  42.994  13.897
18966W        W87184  40.779   1.020  14.696
18967W        W87185  38.036  42.118   2.908
18968W        W87186  12.719  10.688  12.525
18969W        W87187  13.156   7.426   3.695
18970W        W87188  25.139  40.746  10.617
18971W        W87189  41.550  27.722   2.290
18972W        W87190  18.976  15.335  11.540
18973W        W87191  32.386   0.151   3.166
18974W        W87192  23.063  25.619  13.798
18975W        W87193  43.090  37.731  10.146
18976W        W87194  41.905  17.096  10.786
18977W        W87195  27.227  10.847   0.779
18978W        W87196  27.737   1.289   0.936
18979W        W87197  36.921  27.376   3.345
18980W        W87198  37.062   7.350   3.100
18981W        W87199  35.503  18.251  11.497
18982W        W87200  34.122   4.264  13.728
18983W        W87201   7.234  27.995   4.311
18984W        W87202  30.156  37.506  10.822
18985W        W87203  15.924  25.397  14.275
18986W        W87204  15.030   9.408   3.366
18987W        W87205  15.152  10.862  11.374
18988W        W87206   0.740   4.914   0.291
18989W        W87207  43.699  39.624   4.310
18990W        W87208   3.755  35.550  12.567
18991W        W87209  21.504  41.029   0.117
18992W        W87210  13.160  15.096  13.970
18993W        W87211   2.899  12.307   3.170
18994W        W87212  14.912   8.411  10.626
18995W        W87213  26.235  28.044   4.237
18996W        W87214  25.277  28.695  13.504
18997W        W87215  11.190  19.721   2.133
18998W        W87216  13.532  21.237   0.743
18999W        W87217  10.139  19.122  11.999
19000W        W87218   7.557   6.698   1.395
19001W        W87219   6.891  12.660   0.454
19002W        W87220  18.296  12.557   2.308
19003W        W87221  20.084  17.555   1.549
19004W        W87222  14.571  41.129   0.023
19005W        W87223   5.940  34.044   4.862
19006W        W87224  37.582  32.553  12.092
19007W        W87225  22.948   6.620  13.299
19008W        W87226  43.777  39.701   2.201
19009W        W87227  37.899  23.664  14.616
19010W        W87228  44.933  22.805  10.172
19011W        W87229   4.713  18.335   0.907
19012W        W87230  26.914  11.303   2.264
19013W        W87231  19.622  29.752  12.452
19014W        W87232  22.447  17.333  12.351
19015W        W87233  18.550  22.620  12.071
19016W        W87234  36.415  40.224   1.949
19017W        W87235   9.727   6.524  11.624
19018W        W87236  44.774  43.916  11.437
19019W        W87237  41.774   9.982  14.367
19020W        W87238  32.433  23.044   1.055
19021W        W87239  35.515  29.622  10.284
19022W        W87240  37.904  24.542  14.083
19023W        W87241  39.386  19.692  13.554
19024W        W87242  14.727  41.329  11.160
19025W        W87243  42.969  18.520  14.542
19026W        W87244  28.070  25.227  13.853
19027W        W87245  13.080   0.117  13.905
19028W        W87246  41.270  21.319   3.349
19029W        W87247  31.841  12.258  13.060
19030W        W87248  30.188  40.965   3.731
19031W        W87249  20.204  12.365   1.308
19032W        W87250  27.079  16.885   0.247
19033W        W87251  19.576  41.267  14.724
19034W        W87252  24.314  34.355   3.333
19035W        W87253  29.562  38.013  14.428
19036W        W87254  21.087  27.747   1.854
19037W        W87255   0.105  24.033  13.301
19038W        W87256   7.065  38.071   0.921
19039W        W87257  23.120  14.293  10.663
19040W        W87258   7.306  32.567   4.002
19041W        W87259  13.588  32.526  12.970
19042W        W87260   6.784   2.680   2.377
19043W        W87261  12.488  37.322   5.023
19044W        W87262  30.997   6.451   4.500
19045W        W87263  36.485  38.419  11.985
19046W        W87264  22.110  43.806   2.547
19047W        W87265  33.168   6.815   1.442
19048W        W87266  35.566  22.284   1.461
19049W        W87267  17.721  11.895   2.226
19050W        W87268  26.667  20.794   2.323
19051W        W87269  23.195  15.134   3.084
19052W        W87270  30.373  33.513  12.472
19053W        W87271  22.725  12.582  11.599
19054W        W87272  42.373  32.532   4.317
19055W        W87273   8.165  42.460  13.839
19056W        W87274  24.221   5.732   4.139
19057W        W87275  35.146  11.153   1.780
19058W        W87276  33.097  35.350  12.040
19059W        W87277   5.731  16.707  10.709
19060W        W87278  16.110  37.114  10.738
19061W        W87279   7.114  22.626   0.062
19062W        W87280  10.380  29.786   1.742
19063W        W87281  33.999  22.234  11.916
19064W        W87282  34.631  16.148   2.409
19065W        W87283  18.284  18.037   3.659
19066W        W87284  25.177   6.309  11.642
19067W        W87285   0.544  33.827   1.734
19068W        W87286  13.413  21.766  11.333
19069W        W87287   5.401  32.771  14.512
19070W        W87288  33.015  37.140   1.236
19071W        W87289  10.745  13.082  11.362
19072W        W87290   8.873   3.184   3.307
19073W        W87291   5.134  12.272   0.744
19074W        W87292   9.489  13.743   2.664
19075W        W87293  11.379  22.615  13.806
19076W        W87294  30.157  11.303  12.052
19077W        W87295  11.840  27.396  13.148
19078W        W87296  11.370  17.481   5.352
19079W        W87297  29.455  13.682   1.251
19080W        W87298  22.062  10.937   2.196
19081W        W87299  36.839  22.052  10.699
19082W        W87300  32.608   8.861   4.682
19083W        W87301   9.846  29.450  14.154
19084W        W87302  37.575  35.326  11.173
19085W        W87303  33.025   9.858   0.763
19086W        W87304  31.329  27.602   3.814
19087W        W87305  15.592  27.503   4.589
19088W        W87306   4.193  43.946  13.755
19089W        W87307  22.711  18.728  11.150
19090W        W87308  33.123   9.732   2.298
19091W        W87309  18.253  22.905  11.068
19092W        W87310  23.172  27.953   1.745
19093W        W87311  19.136   5.183   4.166
19094W        W87312   7.217  14.630  12.563
19095W        W87313   8.267  29.383   1.791
19096W        W87314  30.042  39.765   4.386
19097W        W87315   5.271  18.459   4.332
19098W        W87316  29.567  14.848  14.847
19099W        W87317  41.418  20.760  11.603
19100W        W87318  33.118  32.938  11.329
19101W        W87319  44.938  11.357   1.470
19102W        W87320  36.964  37.155   4.263
19103W        W87321  12.948  41.510   0.368
19104W        W87322  43.759  42.751   4.577
19105W        W87323  24.868  22.806   9.700
19106W        W87324  18.075  20.767   1.289
19107W        W87325  35.518  17.534   2.344
19108W        W87326  44.713  21.724  13.012
19109W        W87327  14.865  30.797   1.386
19110W        W87328  38.486  22.697  13.005
19111W        W87329  11.410  11.194  11.144
19112W        W87330  11.579   0.874  11.429
19113W        W87331  32.932  24.034   4.422
19114W        W87332  43.635  19.577   0.858
19115W        W87333  32.767   8.655   4.227
19116W        W87334  30.849  31.950   0.443
19117W        W87335  16.332  18.635   0.888
19118W        W87336  14.225  36.051   0.776
19119W        W87337  44.078  15.676   4.703
19120W        W87338  14.480   7.824   3.739
19121W        W87339   0.756  36.493   2.321
19122W        W87340   4.972  33.506  13.703
19123W        W87341  25.126  35.135  11.703
19124W        W87342  26.990  37.126  14.050
19125W        W87343   7.908  15.248  14.618
19126W        W87344  30.880  42.275  11.565
19127W        W87345  27.038   6.442   4.624
19128W        W87346  15.100  27.511   3.768
19129W        W87347  29.091   3.925  11.404
19130W        W87348  23.809   3.820  13.028
19131W        W87349   2.446  19.517  11.594
19132W        W87350  36.080  39.224   4.705
19133W        W87351   2.865  15.964   0.465
19134W        W87352  43.032  14.390   2.594
19135W        W87353  10.687  18.551  14.024
19136W        W87354  16.809  12.860   1.368
19137W        W87355   6.665  42.030   0.341
19138W        W87356  30.721  31.238   3.393
19139W        W87357  13.226  11.087  12.920
19140W        W87358  15.667  33.926   3.033
19141W        W87359  19.539  28.680  13.535
19142W        W87360  22.342  15.222  13.493
19143W        W87361  31.711  23.524   4.595
19144W        W87362  32.134   2.915  10.991
19145W        W87363   1.876   8.910   4.520
19146W        W87364  16.835  21.284  13.532
19147W        W87365  41.294  29.782  14.551
19148W        W87366  29.568  37.782  12.964
19149W        W87367  32.866  23.892  10.358
19150W        W87368  17.219   6.985   4.131
19151W        W87369  39.897  32.877  10.510
19152W        W87370   9.687  32.582   2.723
19153W        W87371  28.097  29.564  11.085
19154W        W87372  26.226  31.640   3.107
19155W        W87373  12.844  15.692   1.700
19156W        W87374  10.686  34.393  12.945
19157W        W87375  27.421   8.330   0.883
19158W        W87376  43.940  24.905  10.723
19159W        W87377  29.447   3.259  13.377
19160W        W87378  17.131  21.203  11.895
19161W        W87379  26.536  25.021   4.967
19162W        W87380  23.017  34.803  14.447
19163W        W87381  25.489  13.316   3.720
19164W        W87382  28.014  32.152   2.732
19165W        W87383  14.451  24.359  13.482
19166W        W87384  21.006  12.871   3.942
19167W        W87385  28.161  34.616   3.275
19168W        W87386  19.621  13.953   1.339
19169W        W87387   0.453  24.177   3.206
19170W        W87388   7.250   6.195  12.063
19171W        W87389   8.133  24.992  11.525
19172W        W87390  44.737  15.069   3.538
19173W        W87391  38.155  40.574   1.498
19174W        W87392   7.006   8.160  10.686
19175W        W87393  27.085   9.797   4.171
19176W        W87394  21.007  28.134  14.394
19177W        W87395  37.066  19.693  11.416
19178W        W87396  13.930  26.403   1.220
19179W        W87397  33.472  22.009  12.959
19180W        W87398  16.254  44.308  12.170
19181W        W87399  12.875  26.218   3.739
19182W        W87400  44.643  12.535  12.368
19183W        W87401  34.524  32.110   2.362
19184W        W87402  34.340  39.040  14.252
19185W        W87403   0.452   1.769   1.352
19186W        W87404   1.268  32.509   2.780
19187W        W87405   6.652  11.675  12.516
19188W        W87406  18.837  38.647   1.235
19189W        W87407  31.626   2.615   4.559
19190W        W87408   2.903  22.665   4.901
19191W        W87409  12.444  21.215  12.664
19192W        W87410  20.708  38.746  14.005
19193W        W87411  12.941  19.487  13.789
19194W        W87412  12.804  34.139   2.825
19195W        W87413   6.405  21.203  10.751
19196W        W87414  44.437  20.882   0.507
19197W        W87415  13.297  40.626   0.476
19198W        W87416  27.996  18.543  10.804
19199W        W87417   9.587   0.958   3.348
19200W        W87418  11.106  24.458  12.627
19201W        W87419  22.361  16.726  11.672
19202W        W87420  23.870   0.836   2.858
19203W        W87421  12.479   6.842  12.137
19204W        W87422   2.358   7.576   1.887
19205W        W87423   1.376  24.163  13.888
19206W        W87424  34.683  36.788   4.086
19207W        W87425  27.538  26.854   0.917
19208W        W87426  14.337  28.540   1.632
19209W        W87427  26.183   8.186   2.015
19210W        W87428  20.017  37.275  11.088
19211W        W87429  23.772  42.747  14.437
19212W        W87430  32.383  24.864   1.675
19213W        W87431  35.940  27.010   0.704
19214W        W87432  33.679  38.670  11.700
19215W        W87433  23.962  10.145  13.370
19216W        W87434  19.418  21.223  14.849
19217W        W87435  21.201  34.052   2.593
19218W        W87436  36.898  20.688   3.808
19219W        W87437  18.580  39.566   2.977
19220W        W87438  15.702  28.688  14.689
19221W        W87439  33.069  23.913   2.286
19222W        W87440  11.479  10.643  11.652
19223W        W87441  23.181  11.847  13.584
19224W        W87442  31.103  26.634  11.228
19225W        W87443  10.108  14.202   1.306
19226W        W87444  41.353   2.056  11.513
19227W        W87445  41.073  34.586  14.324
19228W        W87446  18.385  12.974   4.517
19229W        W87447  44.320  14.192   3.081
19230W        W87448  13.180  18.577   4.168
19231W        W87449  30.123  23.761   4.574
19232W        W87450  23.495  22.200  13.811
19233W        W87451  38.233  32.404   0.891
19234W        W87452  35.119  43.433  13.057
19235W        W87453  26.459  22.814  11.206
19236W        W87454  44.271  25.685  12.048
19237W        W87455  43.316   5.841  10.780
19238W        W87456  34.019  15.839   3.667
19239W        W87457  19.022  27.232  12.554
19240W        W87458  23.213  17.186   2.171
19241W        W87459  44.188  15.233  12.799
19242W        W87460  18.588  14.068   2.187
19243W        W87461  41.841  37.577   0.762
19244W        W87462  27.187  41.333  11.184
19245W        W87463  35.838  39.399  12.839
19246W        W87464  21.642  42.753   3.184
19247W        W87465  32.435  10.908  11.591
19248W        W87466   4.219  31.391  12.018
19249W        W87467  27.205  38.810   9.969
19250W        W87468  29.474  14.225  14.798
19251W        W87469  11.304   6.373   3.851
19252W        W87470   3.696   1.697  11.466
19253W        W87471  31.209   2.194   0.293
19254W        W87472  17.631   8.308   2.088
19255W        W87473  32.449  35.571  11.934
19256W        W87474  15.003  24.184   1.321
19257W        W87475  33.001  31.685   1.877
19258W        W87476  27.208  35.360   3.200
19259W        W87477  43.615  41.540   0.471
19260W        W87478  37.519  25.104   1.893
19261W        W87479  32.341   5.888  12.838
19262W        W87480  33.420   0.896   1.165
19263W        W87481  43.429   9.212  11.911
19264W        W87482  18.911  13.873   2.617
19265W        W87483  28.917  29.462  13.954
19266W        W87484  23.174   2.820   2.695
19267W        W87485  28.910  38.464  14.843
19268W        W87486  39.871   7.151  11.538
19269W        W87487   3.215   9.790   2.422
19270W        W87488  10.807  17.164   4.082
19271W        W87489   6.441  37.921  12.170
19272W        W87490  11.594  41.497   2.677
19273W        W87491  38.816  30.415   4.151
19274W        W87492  16.689  36.624  12.535
19275W        W87493   1.007  40.098  12.897
19276W        W87494  12.208  25.254  14.255
19277W        W87495  40.735  23.050  14.237
19278W        W87496  20.193  43.109  10.233
19279W        W87497  28.832  23.214   3.505
19280W        W87498  21.343  34.937   2.793
19281W        W87499  23.637   1.203   0.635
19282W        W87500  20.351   6.315   4.528
19283W        W87501  12.131  14.769  13.543
19284W        W87502  33.711  42.911   0.806
19285W        W87503   9.197  10.731   4.097
19286W        W87504   1.849  32.541   4.795
19287W        W87505  24.964  14.687  11.043
19288W        W87506  34.475  16.561   1.616
19289W        W87507  12.678  35.531  14.523
19290W        W87508  39.538  17.279   0.753
19291W        W87509  32.972  30.093  13.490
19292W        W87510  21.755  14.174   1.186
19293W        W87511  14.160  25.322  13.313
19294W        W87512  14.824  15.145   3.246
19295W        W87513  21.754  35.104  13.885
19296W        W87514  18.143  28.132  14.667
19297W        W87515  11.620   6.205   2.795
19298W        W87516   2.235  32.621  11.234
19299W        W87517  39.888  13.647   2.317
19300W        W87518  35.925  43.903   3.353
19301W        W87519  27.540  28.356   0.794
19302W        W87520  41.834  41.915   1.035
19303W        W87521  44.938  41.701   1.448
19304W        W87522  19.760  15.321  11.207
19305W        W87523  32.597  36.053   4.488
19306W        W87524  12.826  25.555  10.813
19307W        W87525   8.619   7.719  10.832
19308W        W87526  30.127   1.392   0.319
19309W        W87527   1.457  31.975  11.007
19310W        W87528  42.646  28.144  14.777
19311W        W87529  32.384  37.657  12.026
19312W        W87530   5.146  17.685   1.171
19313W        W87531   0.824  30.087  12.480
19314W        W87532   6.652  39.442   1.745
19315W        W87533  10.837  25.664  14.581
19316W        W87534  21.272  26.045   0.496
19317W        W87535  10.297  19.030   3.288
19318W        W87536  24.292  12.187  12.112
19319W        W87537  11.103  20.175   2.397
19320W        W87538  22.068  13.487  10.666
19321W        W87539  16.670  22.191   4.748
19322W        W87540   2.355  35.538   0.738
19323W        W87541  12.153  39.072  14.293
19324W        W87542  18.430  13.800   2.809
19325W        W87543  15.971  29.408  13.019
19326W        W87544  31.152  43.469   0.192
19327W        W87545  33.853   2.476   3.729
19328W        W87546  28.566   9.171   3.876
19329W        W87547  39.105  24.935   4.196
19330W        W87548  24.178  32.307   3.365
19331W        W87549  34.529  13.671   0.355
19332W        W87550  28.605  34.274  13.041
19333W        W87551   6.955  25.215   1.714
19334W        W87552  22.291  31.449   4.636
19335W        W87553   1.427  28.926  11.948
19336W        W87554  35.374  41.324  14.393
19337W        W87555  37.891  19.331  14.719
19338W        W87556   2.845  40.296   4.200
19339W        W87557  34.781  40.110  10.360
19340W        W87558  34.615   6.369  13.186
19341W        W87559  30.055  14.261   0.954
19342W        W87560  44.978  18.155   3.707
19343W        W87561  26.194  12.145   4.779
19344W        W87562   9.794   4.056   4.680
19345W        W87563  16.578   1.429   2.269
19346W        W87564   4.386   4.610  14.093
19347W        W87565  31.953  37.615   1.623
19348W        W87566  16.183  39.783   0.898
19349W        W87567  29.297  12.255  10.616
19350W        W87568  16.066  33.434   1.665
19351W        W87569  14.554  40.802   4.520
19352W        W87570  37.911  44.180  13.554
19353W        W87571  14.818   5.277   3.620
19354W        W87572   0.274  14.264  11.028
19355W        W87573   6.038   2.229  14.685
19356W        W87574  34.887  12.385   1.814
19357W        W87575   9.642  28.137   1.225
19358W        W87576  25.177  12.297   5.007
19359W        W87577  20.233  23.187  12.926
19360W        W87578  27.916  17.298   1.873
19361W        W87579   1.473  27.107  10.782
19362W        W87580  38.895  29.419   3.134
19363W        W87581  15.374  29.710   2.448
19364W        W87582  18.555  21.132  14.469
19365W        W87583  12.763  20.154  14.549
19366W        W87584  43.947  33.936  12.336
19367W        W87585   9.654  35.872  12.621
19368W        W87586  35.986   0.386  12.915
19369W        W87587  43.546  39.533   1.439
19370W        W87588  37.874  10.962   4.426
19371W        W87589  40.455  18.197   3.597
19372W        W87590  41.523   8.267  11.610
19373W        W87591  33.975  27.660  13.475
19374W        W87592  23.288  40.026  11.537
19375W        W87593  43.793  24.512  14.612
19376W        W87594  30.940   2.449   4.116
19377W        W87595  28.158  19.087   2.145
19378W        W87596  35.087  17.002   3.232
19379W        W87597  33.314   4.387   2.772
19380W        W87598  35.141  25.204   2.363
19381W        W87599  31.583  42.981   3.700
19382W        W87600  32.435  23.910  14.899
19383W        W87601  38.412  17.518  12.702
19384W        W87602  30.394  43.495  12.666
19385W        W87603  18.350   1.398  14.591
19386W        W87604   9.121   4.778   3.852
19387W        W87605   5.337  31.794  11.983
19388W        W87606  22.925  28.595   0.498
19389W        W87607  22.464  27.953   0.331
19390W        W87608   1.261  24.612  13.607
19391W        W87609   8.379  37.649  13.500
19392W        W87610  16.192  28.827  12.372
19393W        W87611   9.884   9.084   1.886
19394W        W87612  25.000  17.026  10.718
19395W        W87613  10.595   0.364  13.459
19396W        W87614  14.506  17.723  13.412
19397W        W87615  44.287  43.189  11.391
19398W        W87616  39.409  25.870   3.677
19399W        W87617   4.040  15.536   1.084
19400W        W87618  28.539   5.803   4.837
19401W        W87619  26.721   6.942  11.069
19402W        W87620  21.842   3.714  13.638
19403W        W87621  29.949  32.890  13.856
19404W        W87622  18.561  15.877  10.195
19405W        W87623  20.526  44.289  14.400
19406W        W87624  28.912  13.387  11.547
19407W        W87625   4.273  21.261  11.102
19408W        W87626   5.862  31.755   0.227
19409W        W87627  44.008  22.224   3.772
19410W        W87628   2.168  42.012  13.833
19411W        W87629  36.476  16.038  11.834
19412W        W87630  30.451   3.436  11.508
19413W        W87631   0.340  37.372   1.383
19414W        W87632  28.910  21.563  13.430
19415W        W87633   4.464  12.319   4.112
19416W        W87634  40.013  38.706   1.088
19417W        W87635  24.503   2.083  12.149
19418W        W87636  31.529  25.717   1.678
19419W        W87637   3.418   0.365   3.824
19420W        W87638  30.395  28.395  12.370
19421W        W87639  41.184  22.473  14.997
19422W        W87640  40.634   2.417  10.076
19423W        W87641  39.837  42.518  13.854
19424W        W87642  10.037   5.222  12.439
19425W        W87643  11.441  36.718  11.024
19426W        W87644  17.254   7.953   4.075
19427W        W87645   7.831   0.245   3.302
19428W        W87646  36.928   6.506  10.412
19429W        W87647  33.900  24.589  10.947
19430W        W87648   4.776  24.713   0.251
19431W        W87649   9.511  30.556  10.616
19432W        W87650  40.483   0.581   2.844
19433W        W87651  38.399  33.440  11.057
19434W        W87652  36.529  12.470  12.527
19435W        W87653  11.792  23.116  13.905
19436W        W87654  10.555  28.470   3.668
19437W        W87655  27.212  42.064  11.578
19438W        W87656  36.550   1.465  12.133
19439W        W87657  39.719   7.499  11.943
19440W        W87658  34.321   3.512   1.970
19441W        W87659  12.559  30.697  12.072
19442W        W87660  33.435   8.680   5.011
19443W        W87661  39.942  28.117   3.680
19444W        W87662  41.488   5.935   0.293
19445W        W87663   3.671  21.037  10.512
19446W        W87664  28.729  32.929  13.625
19447W        W87665  10.952  29.203  13.472
19448W        W87666  24.241   6.585   1.790
19449W        W87667   1.741  20.565   1.929
19450W        W87668  33.143  25.714  13.466
19451W        W87669   5.363   9.848   1.258
19452W        W87670  41.546  30.544  14.112
19453W        W87671  15.657  43.062   1.495
19454W        W87672  26.636  28.137   2.407
19455W        W87673  34.923  34.984  14.790
19456W        W87674  17.623  40.362   4.434
19457W        W87675   9.478  16.571   0.009
19458W        W87676  25.694  44.937  13.025
19459W        W87677  13.910  17.304   0.898
19460W        W87678  40.574  20.511   0.239
19461W        W87679  36.604  10.176  14.361
19462W        W87680  27.129  15.539   2.662
19463W        W87681  25.213  44.826  10.620
19464W        W87682  39.958  22.687  12.088
19465W        W87683  29.874  30.924   0.195
19466W        W87684  30.976  35.607   0.565
19467W        W87685  39.065   4.493   3.370
19468W        W87686  18.290  28.660  11.526
19469W        W87687  29.566  40.514   1.856
19470W        W87688  41.432  19.070   1.295
19471W        W87689   2.755   4.643  14.033
19472W        W87690  25.866  31.705   4.205
19473W        W87691   4.706  34.825  14.809
19474W        W87692   3.706  40.613   0.529
19475W        W87693  32.285  19.198   3.622
19476W        W87694  33.474   7.148  12.160
19477W        W87695   1.733   1.710   3.208
19478W        W87696  22.501   2.440  12.083
19479W        W87697  36.617  25.111  14.849
19480W        W87698  19.285  17.504   1.772
19481W        W87699   9.127  24.669   0.338
19482W        W87700  13.470  23.274  14.700
19483W        W87701  29.875  15.251   2.392
19484W        W87702  17.791  15.182   4.083
19485W        W87703  35.914   0.785   0.931
19486W        W87704  17.080   1.985   4.551
19487W        W87705   2.094  43.584  13.028
19488W        W87706   6.982  28.231   1.901
19489W        W87707   6.798  20.684   2.631
19490W        W87708  14.646  11.809   1.306
19491W        W87709   9.618  37.835   1.854
19492W        W87710  26.770  18.734  14.209
19493W        W87711  31.916  44.127  12.216
19494W        W87712  24.904  12.209   2.267
19495W        W87713  23.264   0.770   3.975
19496W        W87714   6.389  38.111   3.176
19497W        W87715  13.235  37.849   2.245
19498W        W87716  14.156   3.171  13.512
19499W        W87717  42.444   9.125  12.202
19500W        W87718  31.167  11.920  11.435
19501W        W87719  17.174   4.981  14.848
19502W        W87720  31.657  21.975   3.649
19503W        W87721  16.560   2.492  12.552
19504W        W87722  36.683   9.622  13.427
19505W        W87723  29.446  41.014  11.663
19506W        W87724  44.006  31.562  14.542
19507W        W87725  31.187  27.233  10.726
19508W        W87726  33.032  26.351   5.229
19509W        W87727  25.752  20.054  14.263
19510W        W87728  42.345  24.029  10.706
19511W        W87729  43.358   5.263   0.984
19512W        W87730  42.846  15.873   3.282
19513W        W87731  38.885  34.062   2.881
19514W        W87732  39.100  39.882   4.191
19515W        W87733  15.216  13.577  11.954
19516W        W87734  23.695   6.847  12.724
19517W        W87735   2.662  39.251   4.164
19518W        W87736  14.840  24.537  12.506
19519W        W87737  28.915  18.039   3.826
19520W        W87738  34.147   5.895  12.451
19521W        W87739  20.474  15.056   1.966
19522W        W87740  36.021   4.187   0.952
19523W        W87741  28.408  38.034   4.799
19524W        W87742  41.705  25.728   1.848
19525W        W87743  14.109  32.533   4.015
19526W        W87744  42.324  31.601   3.683
19527W        W87745  25.773  42.297  14.325
19528W        W87746  32.996  29.445  12.761
19529W        W87747  14.795  30.683   3.697
19530W        W87748  16.694  10.666   0.239
19531W        W87749  30.205  22.699   2.059
19532W        W87750   4.006  25.744  10.779
19533W        W87751   7.388   7.997   0.283
19534W        W87752  18.163  44.210  13.121
19535W        W87753  12.396  23.105   0.440
19536W        W87754  34.568   8.785   0.014
19537W        W87755  35.572  37.823   0.946
19538W        W87756  34.602  29.568   2.399
19539W        W87757   3.733   1.351  14.542
19540W        W87758  13.065  24.113  11.717
19541W        W87759  17.668  36.751   2.196
19542W        W87760  26.081   2.484   0.279
19543W        W87761  23.655  19.343   0.005
19544W        W87762   5.323  15.700   4.172
19545W        W87763   7.728  44.820   2.891
19546W        W87764  14.773  28.979   4.434
19547W        W87765  36.069  15.815   0.880
19548W        W87766   0.974   6.859   4.366
19549W        W87767  14.661  42.727   5.611
19550W        W87768  26.431  39.231  12.554
19551W        W87769  26.397   2.396   1.921
19552W        W87770  30.670   1.465   2.795
19553W        W87771   8.240  40.324  13.293
19554W        W87772   4.397  38.631   3.656
19555W        W87773  41.443  43.432  10.948
19556W        W87774   7.637  38.362   1.405
19557W        W87775  42.822   7.889   3.149
19558W        W87776  27.331  21.075  10.372
19559W        W87777  23.590   3.335  12.131
19560W        W87778  25.373  20.067  14.621
19561W        W87779  21.770  25.192   4.414
19562W        W87780  23.666  33.635   0.777
19563W        W87781  13.408  39.393   2.322
19564W        W87782  35.324  35.386  13.077
19565W        W87783   1.428  33.452   1.228
19566W        W87784   4.152   3.336  12.017
19567W        W87785  13.138  28.471  14.470
19568W        W87786  38.032  10.383  12.997
19569W        W87787   8.317  12.483  10.735
19570W        W87788  19.568  19.829   0.468
19571W        W87789  25.464  40.372  13.159
19572W        W87790  44.350  37.324  12.455
19573W        W87791   1.396  38.665   4.112
19574W        W87792  12.744  23.250   3.674
19575W        W87793  17.699  31.614   1.180
19576W        W87794  34.458  27.177   0.228
19577W        W87795  39.977  40.551   1.223
19578W        W87796  20.593   6.487  11.193
19579W        W87797  11.209   6.732  14.214
19580W        W87798  18.603  37.434  11.025
19581W        W87799   8.865  44.399  13.299
19582W        W87800  27.616  24.095   3.271
19583W        W87801   1.908  24.270   1.768
19584W        W87802  35.821  40.989  14.486
19585W        W87803  11.333  27.373   0.290
19586W        W87804  35.014  13.841   1.425
19587W        W87805  36.026  43.520  12.746
19588W        W87806  13.820  25.571   2.184
19589W        W87807   1.480  30.879   0.383
19590W        W87808  29.498  27.234  11.013
19591W        W87809  44.373  25.977   1.776
19592W        W87810  26.191  33.784   0.903
19593W        W87811  21.012  41.771  13.852
19594W        W87812  30.976  16.633  12.580
19595W        W87813   8.366  20.590   4.340
19596W        W87814  18.064  33.651   4.651
19597W        W87815   9.824  25.440  12.466
19598W        W87816  41.503  13.386  14.238
19599W        W87817  44.841  30.010   4.350
19600W        W87818   8.863  34.515  11.524
19601W        W87819  12.855  15.312   4.209
19602W        W87820  24.468  26.633  10.300
19603W        W87821   6.339   7.902  11.597
19604W        W87822  18.225  13.159   3.238
19605W        W87823   5.235  39.982  12.072
19606W        W87824   8.113   1.819   4.365
19607W        W87825   2.970   2.927   3.959
19608W        W87826  34.708  13.961   4.877
19609W        W87827  33.769  15.310  14.564
19610W        W87828  26.892  36.142   2.807
19611W        W87829  29.538  31.091   0.930
19612W        W87830  13.785  41.277   0.389
19613W        W87831   7.890   2.799   1.169
19614W        W87832   3.373  26.477  14.846
19615W        W87833  43.456  27.172   2.486
19616W        W87834  11.454  32.792   4.126
19617W        W87835  15.289   3.641  12.569
19618W        W87836   9.097  19.733   0.132
19619W        W87837  28.110  26.354   9.845
19620W        W87838  44.988   0.710  11.152
19621W        W87839   1.836   5.771  13.812
19622W        W87840   0.900  37.799  10.979
19623W        W87841   7.653  22.314  11.044
19624W        W87842  30.874  44.914   0.892
19625W        W87843  17.084  39.112  14.213
19626W        W87844  10.569  33.430   3.323
19627W        W87845   1.965  30.643   3.629
19628W        W87846  33.134  44.553   3.548
19629W        W87847  10.146  26.154   1.351
19630W        W87848  31.115  20.054  13.894
19631W        W87849   9.755   3.218   3.228
19632W        W87850   5.378  40.436   3.750
19633W        W87851   0.420  34.076  11.097
19634W        W87852  26.992  37.451   1.940
19635W        W87853   9.074  25.381  11.099
19636W        W87854   2.835  38.932   2.726
19637W        W87855   2.811  37.623   0.853
19638W        W87856  26.789  11.213  13.920
19639W        W87857  21.029   1.094  11.167
19640W        W87858  40.837   6.387   2.335
19641W        W87859   8.333  36.446  13.535
19642W        W87860  39.287  33.594  12.520
19643W        W87861  42.398  39.017   1.226
19644W        W87862  30.897  44.591   3.142
19645W        W87863   5.028  41.915  12.861
19646W        W87864  39.056  38.886  10.907
19647W        W87865  32.289  19.541   9.733
19648W        W87866   3.697  41.848   0.297
19649W        W87867  14.349  15.116   0.948
19650W        W87868  16.502  29.625   4.136
19651W        W87869  18.193  18.764   1.456
19652W        W87870   3.928   1.780   4.118
19653W        W87871  33.907  23.131   1.429
19654W        W87872  15.542  38.742  14.043
19655W        W87873  13.418  25.613   0.775
19656W        W87874  22.516  15.669  14.776
19657W        W87875  13.134   1.824   4.098
19658W        W87876  31.086  16.880  10.657
19659W        W87877  12.283   1.328  12.630
19660W        W87878   6.462  19.328  11.078
19661W        W87879  31.618  43.930   4.355
19662W        W87880  14.585   1.875   4.139
19663W        W87881  14.039  37.008  10.792
19664W        W87882  43.434  19.699   2.707
19665W        W87883  24.907  23.405   0.005
19666W        W87884  18.207  44.356   2.265
19667W        W87885  16.725  30.866  10.690
19668W        W87886  37.478  19.540   1.355
19669W        W87887  28.948  25.248  12.426
19670W        W87888  15.741  36.438  11.053
19671W        W87889  13.317  12.169   2.782
19672W        W87890   9.920  14.798   1.954
19673W        W87891  30.178  30.294   1.827
19674W        W87892   0.881   9.378   3.344
19675W        W87893   5.988  25.140   2.847
19676W        W87894  26.999   5.120  14.296
19677W        W87895  24.545  36.313   3.787
19678W        W87896  33.370  20.074  13.002
19679W        W87897  12.354   4.214   2.329
19680W        W87898  35.688  18.592  13.088
19681W        W87899  16.087  33.576  10.686
19682W        W87900  17.002  36.594   4.080
19683W        W87901   5.347  28.121  13.959
19684W        W87902  43.482   1.170   1.822
19685W        W87903  41.398   9.880   3.246
19686W        W87904  17.637  10.165   2.240
19687W        W87905  15.211  10.148  12.923
19688W        W87906  28.141  34.272   2.337
19689W        W87907  22.995  11.071   0.214
19690W        W87908  24.133  43.205  11.294
19691W        W87909  34.025  36.460  13.306
19692W        W87910   5.186  37.054   0.579
19693W        W87911   9.683  25.441   1.627
19694W        W87912  30.604   7.230   0.415
19695W        W87913  14.052  10.788  10.686
19696W        W87914  43.231  19.454  12.120
19697W        W87915  42.975  20.633  14.950
19698W        W87916   2.270  29.040   2.197
19699W        W87917  11.150  10.270  12.988
19700W        W87918  18.908  36.868   2.320
19701W        W87919  16.395  21.993  13.504
19702W        W87920   7.658  24.457  13.960
19703W        W87921  22.406  25.471   2.432
19704W        W87922  36.605  36.004   3.379
19705W        W87923  35.067  21.535   3.542
19706W        W87924  38.591   0.732  12.583
19707W        W87925   4.422  26.414   1.308
19708W        W87926  19.574   1.504   1.755
19709W        W87927  36.596  18.893   3.241
19710W        W87928  28.134  44.389   1.279
19711W        W87929   8.159  37.934  12.846
19712W        W87930  14.636  28.208  11.139
19713W        W87931  44.053   7.446  12.191
19714W        W87932  28.908  17.205   3.600
19715W        W87933   2.302  44.823   1.297
19716W        W87934  27.557  28.638  10.728
19717W        W87935  16.608  43.226   0.736
19718W        W87936   1.031  19.655  12.387
19719W        W87937  39.774  28.653  12.969
19720W        W87938   4.160  26.036   3.871
19721W        W87939  15.250  22.512   3.800
19722W        W87940  40.828  13.333  14.912
19723W        W87941   8.326  24.429  10.706
19724W        W87942  28.943  10.207   3.698
19725W        W87943  43.130  28.078   5.096
19726W        W87944   4.685  24.031  14.004
19727W        W87945  24.078  14.398  11.609
19728W        W87946  44.961   4.572   3.573
19729W        W87947  20.020  34.859   0.996
19730W        W87948  11.348  22.777  10.753
19731W        W87949  23.952  14.780  14.730
19732W        W87950  16.240   1.930   4.929
19733W        W87951  24.230  22.933  10.220
19734W        W87952  42.176  33.043  11.134
19735W        W87953   6.361   6.385  11.769
19736W        W87954  41.789  38.562   2.785
19737W        W87955  38.454  32.976   3.664
19738W        W87956  14.624  16.631   1.823
19739W        W87957  23.645  25.082   3.585
19740W        W87958   5.019  29.851  12.519
19741W        W87959   8.858  32.121  10.554
19742W        W87960   0.268  27.170   0.684
19743W        W87961  17.634   6.237   0.731
19744W        W87962   8.329  26.160   1.758
19745W        W87963  17.026   8.696  11.149
19746W        W87964  11.110  15.819  12.087
19747W        W87965  23.708  20.622   2.672
19748W        W87966  35.015  35.560   2.318
19749W        W87967  18.423  16.326   1.748
19750W        W87968  20.602  18.510   2.842
19751W        W87969  32.028  37.996   1.992
19752W        W87970  44.688  17.100  10.237
19753W        W87971  22.902  41.496  13.898
19754W        W87972  16.177  28.142  11.197
19755W        W87973  16.710  29.993  13.550
19756W        W87974  33.266  25.436   3.730
19757W        W87975   8.177  43.525   4.366
19758W        W87976  27.203  36.932   4.947
19759W        W87977  36.670   7.244   4.186
19760W        W87978  26.553   9.752  10.651
19761W        W87979  17.781  11.142   0.936
19762W        W87980   7.147  27.929   3.808
19763W        W87981  34.224  19.520  13.623
19764W        W87982  38.213   0.285   1.420
19765W        W87983  21.172  16.419   4.691
19766W        W87984  30.948   5.394  14.979
19767W        W87985  21.499  24.649  12.820
19768W        W87986  21.693  23.681  10.753
19769W        W87987  18.117  36.345  13.478
19770W        W87988  10.474  28.407   0.601
19771W        W87989  13.604  42.156   0.347
19772W        W87990  32.919  41.896   3.443
19773W        W87991  44.885  30.834   4.555
19774W        W87992  32.228  33.705  13.570
19775W        W87993  33.882  24.197   3.877
19776W        W87994  21.518   6.966  13.886
19777W        W87995   5.513  42.849  11.915
19778W        W87996   4.684   0.145   3.615
19779W        W87997  28.841  16.218  14.865
19780W        W87998  39.032   0.384   2.131
19781W        W87999  17.635  21.275   4.622
19782W        W88000  20.576  22.204   4.597
19783W        W88001   4.926  38.440  12.984
19784W        W88002  14.840  38.217  12.554
19785W        W88003   1.780  29.552  13.841
19786W        W88004  41.859  29.558  10.728
19787W        W88005  20.464  14.775   5.074
19788W        W88006   4.852   6.940   0.388
19789W        W88007  38.529  13.813  14.858
19790W        W88008  10.208  14.708   3.728
19791W        W88009  18.774   3.793  13.114
19792W        W88010   3.044  39.539  13.732
19793W        W88011  39.819   4.991  12.293
19794W        W88012   0.820  34.506   2.091
19795W        W88013  27.633   8.331   1.891
19796W        W88014  38.475  34.727  11.501
19797W        W88015   0.212  18.563  11.150
19798W        W88016  30.562  42.115   4.242
19799W        W88017  30.671  30.062   1.869
19800W        W88018   1.354  32.030   1.188
19801W        W88019  41.434  34.846  12.397
19802W        W88020  11.441   4.866   1.753
19803W        W88021  29.420  24.214   0.046
19804W        W88022  25.004  30.992  12.613
19805W        W88023   5.298  20.030   3.605
19806W        W88024  27.259   8.898  12.668
19807W        W88025  11.812  17.084  13.868
19808W        W88026  30.475  38.798   0.753
19809W        W88027   4.862  20.697   1.832
19810W        W88028  22.605  25.661   4.469
19811W        W88029  38.761  43.303  10.606
19812W        W88030   6.302  27.668   0.479
19813W        W88031  27.043  33.920   4.390
19814W        W88032   2.345   8.308   3.853
19815W        W88033  40.766  14.784  12.516
19816W        W88034   6.561  38.433  11.382
19817W        W88035  21.253  14.300   3.664
19818W        W88036  38.035  15.668  10.996
19819W        W88037  21.301  14.763  11.525
19820W        W88038  33.055  37.526  14.470
19821W        W88039  37.499  15.106   9.954
19822W        W88040  21.777   5.784   1.365
19823W        W88041  24.007  39.774   0.397
19824W        W88042  32.813  44.489   1.369
19825W        W88043  38.538  43.789   4.513
19826W        W88044  10.768  31.900  10.456
19827W        W88045  36.847   4.731   1.774
19828W        W88046  43.909   4.237   0.287
19829W        W88047   0.463  38.858  12.476
19830W        W88048  31.971  22.137   0.732
19831W        W88049  43.810  25.650   3.540
19832W        W88050  31.525  22.236  14.973
19833W        W88051  33.946   7.437   2.184
19834W        W88052  38.276  37.110  12.408
19835W        W88053  10.341  10.406   2.612
19836W        W88054  33.040  24.440   3.572
19837W        W88055  18.803  32.507  13.553
19838W        W88056  35.855  42.275   3.240
19839W        W88057  26.011   5.286   1.064
19840W        W88058  44.960  34.639  12.903
19841W        W88059  15.452  26.130  11.675
19842W        W88060  27.965  28.432   4.570
19843W        W88061  30.714  35.012   0.397
19844W        W88062  26.839  12.798   1.483
19845W        W88063  38.815  33.779  14.269
19846W        W88064  40.421   6.984   1.720
19847W        W88065   6.167  33.056  13.083
19848W        W88066   7.736  24.207  12.502
19849W        W88067   3.974   2.546   0.863
19850W        W88068  39.495  27.476   2.129
19851W        W88069  26.778  23.498  12.925
19852W        W88070   9.356  20.430   1.320
19853W        W88071   2.365   4.198  13.528
19854W        W88072  31.068   0.454   0.900
19855W        W88073  39.280   0.991   4.106
19856W        W88074  22.995  20.604   0.446
19857W        W88075  40.233  34.852   2.869
19858W        W88076   4.833  33.173  11.103
19859W        W88077  36.003   5.855  12.556
19860W        W88078  18.168  16.518   3.736
19861W        W88079   3.730  26.806  10.337
19862W        W88080   0.160  24.732  14.154
19863W        W88081  26.053  19.785  13.014
19864W        W88082  39.053   0.595  11.662
19865W        W88083   4.994  17.102   1.166
19866W        W88084  20.632  18.653   3.662
19867W        W88085  25.995  34.757   1.181
19868W        W88086  23.223   9.728   0.840
19869W        W88087  17.111  44.879  14.301
19870W        W88088  22.784  36.908  13.947
19871W        W88089  25.386  26.549  10.547
19872W        W88090   2.263  41.049   0.388
19873W        W88091  23.731  40.741   3.609
19874W        W88092   2.887  14.109  10.794
19875W        W88093  33.999  24.616  12.508
19876W        W88094  27.467  36.568   1.524
19877W        W88095  10.674   7.390   4.023
19878W        W88096  26.030   9.417   0.412
19879W        W88097  17.369  20.545  14.744
19880W        W88098  21.257   4.511  12.779
19881W        W88099  35.453  17.737   2.813
19882W        W88100  34.942  33.425   0.548
19883W        W88101  43.043   4.680  11.109
19884W        W88102  18.445  25.716  11.276
19885W        W88103  13.988  17.684  10.684
19886W        W88104   1.525   5.193  14.892
19887W        W88105  36.468   0.938  13.566
19888W        W88106  33.030  21.001  11.860
19889W        W88107   3.843  43.514   1.017
19890W        W88108  40.882  30.093  13.565
19891W        W88109  21.329  21.074   4.137
19892W        W88110  24.528  21.105  10.318
19893W        W88111  31.991  21.591   4.596
19894W        W88112   1.735  37.869  13.540
19895W        W88113  39.322   4.224   1.751
19896W        W88114  41.314  20.076   1.261
19897W        W88115  44.235  36.854  11.488
19898W        W88116  35.453  38.383  13.424
19899W        W88117  20.957  36.028  11.104
19900W        W88118  41.269  18.181   1.462
19901W        W88119  33.926  12.677  14.057
19902W        W88120  42.596  20.095  12.477
19903W        W88121  40.562   0.293   4.148
19904W        W88122   7.884  37.489  13.492
19905W        W88123  10.560  20.506  14.377
19906W        W88124  16.928  26.654   3.820
19907W        W88125  32.948  30.967   2.805
19908W        W88126   0.060   7.816   1.414
19909W        W88127   5.840  25.984  11.119
19910W        W88128  15.842   3.204   1.820
19911W        W88129  43.815   6.966   2.318
19912W        W88130  29.196   5.813  13.852
19913W        W88131  37.159  16.774   3.584
19914W        W88132   7.231  31.762  14.369
19915W        W88133  44.889  26.450   2.627
19916W        W88134  21.129  21.862   1.157
19917W        W88135  27.880   1.468   4.393
19918W        W88136  27.267  13.780  11.037
19919W        W88137  37.850   5.475  14.932
19920W        W88138  19.193  44.053  14.449
19921W        W88139   8.703  30.190   4.298
19922W        W88140  36.804  17.093   1.037
19923W        W88141  40.986  11.136   1.934
19924W        W88142   7.558  34.117   3.252
19925W        W88143  12.109  14.533   0.730
19926W        W88144  31.159  32.382  12.520
19927W        W88145  13.818   4.096  12.366
19928W        W88146  36.548  15.017   3.117
19929W        W88147  13.023  27.033   3.494
19930W        W88148  21.320  29.412   4.330
19931W        W88149  23.764   5.488   3.713
19932W        W88150  17.186  17.690  14.333
19933W        W88151  14.783  41.802  11.394
19934W        W88152  22.302  14.405  11.486
19935W        W88153  12.107  12.228  12.237
19936W        W88154   1.443  15.669  12.345
19937W        W88155   4.271  27.692   1.325
19938W        W88156   1.242  25.971  14.079
19939W        W88157   1.850  12.255  12.610
19940W        W88158  19.593  40.524   4.132
19941W        W88159  36.575  26.734   3.019
19942W        W88160  33.834  24.509  13.000
19943W        W88161  39.584  15.176  11.485
19944W        W88162   5.800  17.376   3.320
19945W        W88163  38.781  22.522   0.747
19946W        W88164  10.884  37.423  10.918
19947W        W88165  14.962  40.330  14.173
19948W        W88166  22.774  14.440   3.783
19949W        W88167  16.490   9.029   0.975
19950W        W88168  16.346  26.098   2.677
19951W        W88169  31.589  31.956   0.799
19952W        W88170  12.691   9.209  10.907
19953W        W88171  15.309  31.098   1.407
19954W        W88172   1.723  43.388  11.701
19955W        W88173  40.844  42.048  10.803
19956W        W88174   3.038  36.239  14.696
19957W        W88175  14.638  23.652  12.060
19958W        W88176   0.684  27.816   0.014
19959W        W88177  16.282  32.082  11.663
19960W        W88178  27.550   5.386  11.560
19961W        W88179   5.145   6.189   3.901
19962W        W88180   5.277  20.499  14.437
19963W        W88181  16.748   5.719  13.908
19964W        W88182  25.529  30.844  13.159
19965W        W88183  15.608  23.045  10.738
19966W        W88184  27.992  42.316   0.781
19967W        W88185  37.008   6.245  11.620
19968W        W88186  24.662  21.162  11.621
19969W        W88187  35.080  11.092  12.183
19970W        W88188   9.243  27.681   3.881
19971W        W88189  30.711  14.587  13.781
19972W        W88190  29.565  13.751  13.800
19973W        W88191   0.001   0.982  11.590
19974W        W88192   9.869  20.972  11.166
19975W        W88193  22.509   8.240   4.814
19976W        W88194  21.016  12.341   3.178
19977W        W88195  21.191  17.102  13.087
19978W        W88196  38.091   7.310  13.357
19979W        W88197  12.745   7.926  13.002
19980W        W88198  26.537  39.314   2.777
19981W        W88199  26.710  38.868  13.956
19982W        W88200  23.274  44.809   0.725
19983W        W88201  19.095  28.663  11.486
19984W        W88202  23.812  22.527  10.742
19985W        W88203  30.739  43.957  11.655
19986W        W88204  36.756   8.150   4.199
19987W        W88205  11.135  21.150   1.224
19988W        W88206   5.838   7.073   0.638
19989W        W88207   9.248   2.260   4.762
19990W        W88208  16.726  28.920  11.064
19991W        W88209  39.272   7.326   3.232
19992W        W88210  28.656  20.703  14.045
19993W        W88211  30.720  42.125   0.360
19994W        W88212  17.694  41.854   4.830
19995W        W88213  13.913   4.365   2.183
19996W        W88214   9.625  19.469  11.154
19997W        W88215  26.141  29.308  10.742
19998W        W88216  30.430  39.049   2.024
19999W        W88217  26.250  11.256  12.645
20000W        W88218  12.857  44.804  11.893
20001W        W88219  43.241   9.126  13.359
20002W        W88220   7.928  22.582  13.960
20003W        W88221  16.399  43.549  11.624
20004W        W88222  42.003  41.088  13.564
20005W        W88223  39.396   8.179   0.907
20006W        W88224  18.246   9.196   1.279
20007W        W88225  12.112  14.458   1.267
20008W        W88226   5.204  32.194  11.115
20009W        W88227  17.237  13.834  12.027
20010W        W88228   3.161  29.675  12.079
20011W        W88229   2.036  12.816  13.071
20012W        W88230  13.272  21.635  10.323
20013W        W88231  27.248  13.231   0.740
20014W        W88232   6.633  14.311   1.626
20015W        W88233  12.107  36.886  14.793
20016W        W88234  15.490   9.228   4.493
20017W        W88235  41.508  26.382   9.990
20018W        W88236   4.754  38.570  11.361
20019W        W88237  17.285   6.319   2.711
20020W        W88238  28.673  24.248  13.386
20021W        W88239  42.078  16.163   2.213
20022W        W88240  23.081  41.214   3.597
20023W        W88241   6.675   2.665   0.335
20024W        W88242  23.749  13.137   0.259
20025W        W88243  23.398  29.018  13.115
20026W        W88244  22.173  40.009   1.935
20027W        W88245  23.064  20.606  14.936
20028W        W88246  37.913  23.685  12.589
20029W        W88247  32.895  42.686   0.923
20030W        W88248   8.189  30.350  11.322
20031W        W88249  42.594  17.542  14.504
20032W        W88250  37.836   0.087   0.321
20033W        W88251  12.975  23.694  13.810
20034W        W88252  14.600   2.877  13.310
20035W        W88253  11.128  39.282   2.346
20036W        W88254  30.078  17.714   1.636
20037W        W88255  19.817  20.633  14.263
20038W        W88256  33.841  14.736   2.708
20039W        W88257  14.995  19.104  10.719
20040W        W88258  33.966  24.071  12.661
20041W        W88259  22.006   2.752   0.399
20042W        W88260  10.831   1.284   3.282
20043W        W88261   8.540  26.097  11.124
20044W        W88262  20.476   0.451  10.816
20045W        W88263  16.013  18.240   0.797
20046W        W88264  26.015  31.831  14.341
20047W        W88265  36.041   1.387   0.297
20048W        W88266  38.536  43.098  13.430
20049W        W88267  21.216  26.822   1.858
20050W        W88268  27.457  10.159  12.492
20051W        W88269  11.586  39.885   4.166
20052W        W88270  37.437   2.591   0.796
20053W        W88271  44.547   1.638   2.742
20054W        W88272  16.667   0.840  13.210
20055W        W88273  30.941  31.124  10.673
20056W        W88274  33.189  15.362  11.579
20057W        W88275   2.558  10.666  14.761
20058W        W88276   4.657   7.840  13.860
20059W        W88277  17.513  35.508   2.728
20060W        W88278  18.717  15.089   2.331
20061W        W88279   8.256  14.038  10.311
20062W        W88280  23.046  35.891  13.470
20063W        W88281  14.305   1.079   3.720
20064W        W88282  29.186  12.112  13.270
20065W        W88283  37.911  40.035   3.701
20066W        W88284  14.923  12.223  10.698
20067W        W88285  28.186   8.172  13.920
20068W        W88286  35.887  35.112  13.508
20069W        W88287   7.167  23.679   4.153
20070W        W88288  11.193  27.208   3.072
20071W        W88289  39.559   1.759  13.105
20072W        W88290  13.249  24.820   0.389
20073W        W88291   5.026  34.842   2.395
20074W        W88292  40.344  32.372   2.033
20075W        W88293   2.038  32.585   2.396
20076W        W88294  17.640  20.380  10.545
20077W        W88295  41.989  12.533   9.736
20078W        W88296  40.602   2.785   4.044
20079W        W88297  26.074  40.867   0.239
20080W        W88298  43.810  44.768   1.798
20081W        W88299  10.356  41.444   3.279
20082W        W88300   2.454  22.234  13.109
20083W        W88301  15.027  39.373  13.516
20084W        W88302  22.738   6.328  12.911
20085W        W88303  10.654  39.459  12.953
20086W        W88304   9.837  36.612  12.607
20087W        W88305  11.796  25.496   1.829
20088W        W88306  37.951   6.875   0.681
20089W        W88307  39.310  37.633  11.295
20090W        W88308   1.043   6.215  11.053
20091W        W88309  27.889   5.170   1.787
20092W        W88310  41.149  40.534   3.001
20093W        W88311  16.119   8.438  12.062
20094W        W88312   7.688   9.627   4.071
20095W        W88313  22.882  41.487   2.594
20096W        W88314   9.627  21.631   2.139
20097W        W88315   1.262   2.196  14.252
20098W        W88316  25.090  17.559   0.381
20099W        W88317  23.305  29.608  11.123
20100W        W88318   2.930  26.801   5.086
20101W        W88319  44.904  12.748  13.302
20102W        W88320  23.230   9.977  11.195
20103W        W88321  25.438  42.457  10.800
20104W        W88322   2.883  21.905  10.507
20105W        W88323   2.925  33.031  11.687
20106W        W88324   4.425   0.836  14.780
20107W        W88325  29.137   7.181   4.016
20108W        W88326  18.336   8.639  14.483
20109W        W88327  10.094  34.574   0.859
20110W        W88328  41.308  37.565  14.953
20111W        W88329  39.092   6.760  12.726
20112W        W88330  15.074  28.117   4.111
20113W        W88331  23.907   8.557   1.291
20114W        W88332  37.141  13.604  11.871
20115W        W88333  18.432  33.025   2.703
20116W        W88334  31.854  24.454  14.234
20117W        W88335  38.308  11.690   4.494
20118W        W88336  11.420  30.215  11.474
20119W        W88337  40.924  22.512   4.544
20120W        W88338   4.951  37.399   0.873
20121W        W88339  29.950   1.318  11.956
20122W        W88340  42.762  35.691   3.851
20123W        W88341   0.221  42.128   1.657
20124W        W88342  10.712  31.137  11.125
20125W        W88343   6.722  28.572  11.187
20126W        W88344  35.972  14.775  10.684
20127W        W88345  30.508  42.320  13.566
20128W        W88346   4.121  12.105  14.027
20129W        W88347   1.154  11.386  12.651
20130W        W88348  27.837   7.848   2.623
20131W        W88349  43.499  11.765  14.207
20132W        W88350  35.381  15.337  13.489
20133W        W88351  37.048   6.688  12.390
20134W        W88352  28.065  40.516   0.071
20135W        W88353  36.377  19.204  11.104
20136W        W88354  32.825  14.243  13.739
20137W        W88355   8.323  35.388   2.634
20138W        W88356  33.104  12.145  12.494
20139W        W88357  40.338  44.724   3.278
20140W        W88358  24.709  18.761  11.566
20141W        W88359  37.059  15.064  14.857
20142W        W88360  26.998  34.531  14.132
20143W        W88361  42.761  38.796   4.802
20144W        W88362  24.783  29.641   4.558
20145W        W88363  10.551  14.529  11.597
20146W        W88364  12.995  12.204  10.680
20147W        W88365  27.762  41.007  13.608
20148W        W88366  28.061  10.323  12.126
20149W        W88367   5.665  35.016   3.279
20150W        W88368  29.552  26.743  13.304
20151W        W88369  14.875   1.490   3.215
20152W        W88370  34.635   3.921   1.881
20153W        W88371  43.314  41.257  13.094
20154W        W88372  17.593  10.570   0.384
20155W        W88373  18.373  15.048   0.998
20156W        W88374  43.249  12.071  11.201
20157W        W88375   9.379  29.382   4.703
20158W        W88376  36.412   5.324   0.170
20159W        W88377  29.181  10.192   5.055
20160W        W88378  11.293  36.803   2.582
20161W        W88379   8.534  19.218   1.993
20162W        W88380  26.686  22.715   4.564
20163W        W88381   0.994  24.642  11.804
20164W        W88382  23.426  29.761  12.705
20165W        W88383  24.221  35.468   1.717
20166W        W88384   1.442  12.405  13.341
20167W        W88385  15.687  30.233   3.904
20168W        W88386  35.251  34.415   4.302
20169W        W88387   1.347   1.601   4.584
20170W        W88388  11.259  29.462  14.810
20171W        W88389   0.250  24.583   0.501
20172W        W88390  11.820  22.503  10.618
20173W        W88391  33.771   8.652  13.014
20174W        W88392   0.467  21.007   0.840
20175W        W88393   7.269  40.103   3.186
20176W        W88394  24.002  21.803   2.077
20177W        W88395   0.303  20.726  13.388
20178W        W88396  27.808  38.026  12.569
20179W        W88397  24.240   7.701   4.504
20180W        W88398   1.861   2.510  14.725
20181W        W88399  11.064  23.320  12.029
20182W        W88400  27.378  40.014   1.055
20183W        W88401  43.971   5.320  11.448
20184W        W88402  21.179  40.026  14.317
20185W        W88403  41.515  11.598  11.958
20186W        W88404   4.157  20.120  13.515
20187W        W88405  19.063  23.470  12.390
20188W        W88406   1.338  28.146  11.500
20189W        W88407  44.956  23.584   1.843
20190W        W88408   8.250  27.950  13.924
20191W        W88409  16.239   2.450  12.130
20192W        W88410  23.709  14.515   0.318
20193W        W88411  32.663   3.052  12.936
20194W        W88412  26.565  32.054  11.197
20195W        W88413  14.798   0.754  12.096
20196W        W88414  26.724   8.090   1.201
20197W        W88415  17.748  40.835  14.467
20198W        W88416  17.739   3.034  12.175
20199W        W88417  10.238  23.491  14.013
20200W        W88418  12.080  14.920  11.971
20201W        W88419  23.132   5.725   4.104
20202W        W88420  13.559  27.456  14.784
20203W        W88421  12.725  32.126   4.561
20204W        W88422  12.242  41.555   2.285
20205W        W88423  38.981  28.015   3.300
20206W        W88424  29.401  23.007   1.752
20207W        W88425  13.257  17.032  11.248
20208W        W88426  39.339  38.707  14.713
20209W        W88427   3.991  39.502  14.504
20210W        W88428  21.087   9.954   4.134
20211W        W88429  14.290  25.681   1.748
20212W        W88430  27.476   7.089   1.686
20213W        W88431  13.006  12.837   2.315
20214W        W88432   1.873  39.792  12.878
20215W        W88433   8.231  28.675  13.407
20216W        W88434  15.277   7.787   3.059
20217W        W88435  10.806  16.401  11.724
20218W        W88436  44.340  11.727  13.820
20219W        W88437  36.340   9.759   1.898
20220W        W88438  10.592  19.109  11.732
20221W        W88439  22.168  15.329  12.626
20222W        W88440   3.545  35.422   1.961
20223W        W88441  37.024   4.908  14.839
20224W        W88442  11.570   6.198  11.554
20225W        W88443  27.564   1.818  14.714
20226W        W88444   0.517  29.100   0.460
20227W        W88445  41.221  10.288   2.318
20228W        W88446  41.827  30.662  12.946
20229W        W88447  10.423  29.675   0.350
20230W        W88448  40.727  28.067   3.125
20231W        W88449  37.639   8.242   3.853
20232W        W88450  19.371   5.857   1.796
20233W        W88451  35.622  19.707   0.546
20234W        W88452   2.741   1.991   3.662
20235W        W88453  17.225   0.313  10.176
20236W        W88454  26.006   3.870   2.237
20237W        W88455  16.557  17.671   4.710
20238W        W88456  36.056  33.067   4.390
20239W        W88457  22.167  23.630  10.526
20240W        W88458  31.828  12.586  11.970
20241W        W88459  24.395  25.693  11.592
20242W        W88460  15.168  13.211   1.774
20243W        W88461  15.889  12.981   0.377
20244W        W88462  11.252  11.706   0.363
20245W        W88463  41.221  35.756   0.503
20246W        W88464   2.467  15.619  11.387
20247W        W88465  20.532   9.199   4.731
20248W        W88466  20.170  37.564  13.435
20249W        W88467  25.477  44.308  11.419
20250W        W88468   9.326  11.229  14.968
20251W        W88469  25.083   3.227  13.026
20252W        W88470  22.070  28.750   0.293
20253W        W88471  31.261  28.589  13.407
20254W        W88472   4.254  10.603   4.435
20255W        W88473  26.063   8.133  13.428
20256W        W88474  10.305  28.005   1.677
20257W        W88475   8.513  35.082   3.401
20258W        W88476  15.303   0.317  13.403
20259W        W88477  39.629   4.466   1.361
20260W        W88478   9.163  24.456   2.105
20261W        W88479  34.127  34.145  13.445
20262W        W88480  14.282  23.033  12.438
20263W        W88481  22.667  18.537   1.892
20264W        W88482  32.195  27.246  11.593
20265W        W88483  30.720  39.751  12.144
20266W        W88484  10.032  22.155  11.631
20267W        W88485  39.470  25.847  11.364
20268W        W88486  25.805   3.811  13.664
20269W        W88487  32.544   7.932   3.807
20270W        W88488  11.384   3.575  11.243
20271W        W88489   5.220  21.200   0.288
20272W        W88490  39.987  42.410  14.954
20273W        W88491   4.593  30.172   2.352
20274W        W88492   0.516  42.355   1.258
20275W        W88493  43.952   6.328  10.534
20276W        W88494   5.071  29.111  12.093
20277W        W88495  36.841  18.389   0.746
20278W        W88496  14.880  25.175   1.470
20279W        W88497  22.765   8.280  13.577
20280W        W88498  30.666  33.952  13.458
20281W        W88499  35.341  32.717   3.134
20282W        W88500  30.964   9.836  14.997
20283W        W88501   4.257  14.396   2.360
20284W        W88502  34.851  15.641  11.621
20285W        W88503  32.529  18.513  13.896
20286W        W88504  39.019  30.997   1.039
20287W        W88505  16.122  12.399   3.713
20288W        W88506  42.954  43.405  11.839
20289W        W88507  38.498  40.352   2.862
20290W        W88508  36.900  36.881  12.877
20291W        W88509  16.537  13.674   0.931
20292W        W88510   1.296  22.553   4.772
20293W        W88511  43.964   7.247   4.486
20294W        W88512  22.340  20.050   0.979
20295W        W88513  33.982   6.515   0.841
20296W        W88514  13.084   8.266  11.550
20297W        W88515  33.636   1.382   4.187
20298W        W88516  32.115   7.928  12.921
20299W        W88517  33.918  20.580   1.443
20300W        W88518  14.682  11.633  10.776
20301W        W88519  42.122   7.372  12.787
20302W        W88520  23.279   9.831  13.894
20303W        W88521   4.858   9.854  10.130
20304W        W88522  37.651  15.773  12.571
20305W        W88523  23.216  33.608   1.542
20306W        W88524  32.446  38.078   2.872
20307W        W88525  29.570  34.370  12.046
20308W        W88526   4.406  20.236   3.829
20309W        W88527   9.712  30.940   1.493
20310W        W88528  27.823   9.443  11.854
20311W        W88529  31.948   2.448  11.134
20312W        W88530  37.536  25.206   4.802
20313W        W88531  37.296  33.954  13.834
20314W        W88532  23.612  39.108   2.924
20315W        W88533  18.763   3.029   0.234
20316W        W88534  29.633  25.911   0.428
20317W        W88535  39.912  26.077   4.791
20318W        W88536  20.889   3.221   4.569
20319W        W88537  43.775  41.984   1.128
20320W        W88538   9.745  37.135  12.510
20321W        W88539  36.593   0.416   3.701
20322W        W88540  36.522  30.436  11.593
20323W        W88541   2.214  33.136   2.405
20324W        W88542  40.414   1.430   3.092
20325W        W88543  22.094  26.081   3.690
20326W        W88544  22.146  19.100   2.364
20327W        W88545  36.505  13.776   1.775
20328W        W88546  28.439   9.189   2.374
20329W        W88547  29.788   8.744  14.211
20330W        W88548  12.735   0.443  14.110
20331W        W88549  18.150   7.421   0.355
20332W        W88550   2.380   9.876  11.029
20333W        W88551  35.402  36.486  13.600
20334W        W88552   1.083  33.036  10.870
20335W        W88553   7.997  24.779  14.881
20336W        W88554  10.086  15.985   0.330
20337W        W88555  12.833  26.923  11.393
20338W        W88556  30.886  30.647  12.027
20339W        W88557  41.807  37.867  11.372
20340W        W88558  32.307   7.764   2.860
20341W        W88559  39.447  29.997  10.715
20342W        W88560  24.481  17.210  12.783
20343W        W88561  25.271  32.583  14.800
20344W        W88562  41.710   7.587  12.283
20345W        W88563   8.446  13.224  12.321
20346W        W88564  20.895   4.433  13.131
20347W        W88565  24.978  42.348  10.591
20348W        W88566  42.913  12.574  12.692
20349W        W88567  18.523  16.863  13.603
20350W        W88568  34.148  16.518   1.212
20351W        W88569  33.327  11.190   4.225
20352W        W88570  10.884  34.241  14.981
20353W        W88571   7.915  42.784   2.756
20354W        W88572  35.224  15.003   0.423
20355W        W88573  38.581  44.952  10.921
20356W        W88574  30.940  14.266  14.112
20357W        W88575  29.530   5.228  14.521
20358W        W88576  37.643  44.562   1.295
20359W        W88577  29.562  10.596  10.742
20360W        W88578  22.272  20.041  13.520
20361W        W88579  21.078  32.143  11.608
20362W        W88580   6.866   3.671   0.385
20363W        W88581   5.842   4.445  13.998
20364W        W88582   5.427  19.040   3.891
20365W        W88583  13.797  19.142  13.861
20366W        W88584  36.574   7.320  10.837
20367W        W88585  21.686  16.866   1.607
20368W        W88586  24.971  32.089  12.941
20369W        W88587  29.109   6.799  11.988
20370W        W88588  21.998  31.207   5.015
20371W        W88589   8.546  39.056   2.997
20372W        W88590  18.383  14.025   0.872
20373W        W88591   3.475   7.820  13.319
20374W        W88592  28.757  30.537   0.500
20375W        W88593  30.455  25.732   2.263
20376W        W88594  24.696  13.912   2.306
20377W        W88595  40.112  11.136  13.056
20378W        W88596  24.288  13.654  14.544
20379W        W88597  30.427  26.301  13.804
20380W        W88598   2.425  31.376  14.010
20381W        W88599  30.133  17.771  11.993
20382W        W88600  11.305   1.737  11.140
20383W        W88601  42.915  39.095  14.960
20384W        W88602  28.846  35.995   2.568
20385W        W88603  30.727  17.898  11.212
20386W        W88604  36.431  42.871  10.632
20387W        W88605   7.086  43.152  12.999
20388W        W88606  26.160  20.555  10.746
20389W        W88607  25.523   4.463  14.578
20390W        W88608  11.792  37.431   9.994
20391W        W88609   0.915   1.768   0.645
20392W        W88610  29.207   4.419   2.777
20393W        W88611   2.951  32.094   4.409
20394W        W88612   4.905   9.330  12.769
20395W        W88613  27.052  27.405   3.234
20396W        W88614   2.837   4.739   1.865
20397W        W88615   9.335  44.984   0.322
20398W        W88616  44.927   2.775  10.678
20399W        W88617  19.586  32.838  12.936
20400W        W88618  29.972  44.556  14.534
20401W        W88619  20.286  39.024   2.382
20402W        W88620  16.246  39.622  12.861
20403W        W88621  11.121  18.038   0.336
20404W        W88622   0.027   9.539  13.505
20405W        W88623  23.207  36.308  10.933
20406W        W88624  19.059  32.983  14.390
20407W        W88625  36.395   5.982  10.466
20408W        W88626  12.655  11.618   1.337
20409W        W88627  22.436  30.394  10.651
20410W        W88628  36.515  19.772   3.240
20411W        W88629  43.052  38.857  11.967
20412W        W88630  18.257   4.886   0.844
20413W        W88631  16.466  14.296  13.120
20414W        W88632   5.605  43.535  10.755
20415W        W88633  14.042   3.906  11.882
20416W        W88634  34.934   4.474  12.923
20417W        W88635   0.029  18.621   3.512
20418W        W88636  28.585  33.384  11.423
20419W        W88637  20.483  40.456   2.130
20420W        W88638  41.847  38.367  11.218
20421W        W88639  16.004   1.245  14.550
20422W        W88640  37.834  22.029   4.782
20423W        W88641   7.431  15.596   4.207
20424W        W88642  26.948   1.670   1.474
20425W        W88643  38.603   1.706   0.723
20426W        W88644  10.869  21.463  13.406
20427W        W88645  41.078  13.731  14.005
20428W        W88646  35.204  16.701  13.913
20429W        W88647  25.782  14.656  12.323
20430W        W88648  27.330  38.025  13.917
20431W        W88649  26.444   2.819   3.178
20432W        W88650   2.321   4.409  12.473
20433W        W88651   1.431  20.276  12.081
20434W        W88652  31.484   7.306  12.809
20435W        W88653  28.375   2.771   0.473
20436W        W88654  17.659   2.858  10.666
20437W        W88655   1.198   3.858  14.777
20438W        W88656  38.708  30.460  12.571
20439W        W88657  22.280  41.404   1.942
20440W        W88658   6.502  41.323  13.863
20441W        W88659   2.980  20.257   3.189
20442W        W88660  33.018   8.120   2.664
20443W        W88661   6.196  11.885  12.494
20444W        W88662  19.533  41.130   4.087
20445W        W88663  39.429  20.982   0.009
20446W        W88664  37.205  34.894  12.619
20447W        W88665   3.230   8.230   4.561
20448W        W88666  42.296  44.344  10.763
20449W        W88667  37.681  27.628  12.932
20450W        W88668  14.824  25.773   4.120
20451W        W88669   4.881  14.003   1.712
20452W        W88670  22.237  16.805  13.443
20453W        W88671  24.675  22.326  12.644
20454W        W88672  43.449  41.910   3.127
20455W        W88673  35.255  12.194   3.323
20456W        W88674  32.964  30.034   3.091
20457W        W88675  36.132  27.419  10.960
20458W        W88676   1.939  43.020   2.794
20459W        W88677  21.050  28.984  13.462
20460W        W88678  19.411  41.968  12.468
20461W        W88679  44.662  39.789  12.640
20462W        W88680  20.471  19.331  12.922
20463W        W88681  26.868  16.594   2.213
20464W        W88682  39.833  28.954   1.839
20465W        W88683  14.947  18.778  13.010
20466W        W88684   4.651   4.762   0.289
20467W        W88685  25.325   4.674  13.043
20468W        W88686  18.755  16.317   0.849
20469W        W88687  12.386   7.300  14.871
20470W        W88688  26.440  16.075   1.628
20471W        W88689  19.148  18.692   3.992
20472W        W88690  18.122   5.373  12.780
20473W        W88691  19.287  24.713   0.040
20474W        W88692  19.629  29.566   5.001
20475W        W88693  27.548  34.480  12.465
20476W        W88694  10.860  35.541  14.892
20477W        W88695   4.326   7.217  11.545
20478W        W88696   2.336  15.922   2.778
20479W        W88697  38.171   4.528  11.677
20480W        W88698   8.656  20.868  13.343
20481W        W88699   0.925  20.509   2.222
20482W        W88700  11.343  16.879  13.926
20483W        W88701   3.509  32.077   0.423
20484W        W88702  24.705  20.103   1.632
20485W        W88703   6.669  30.839  12.074
20486W        W88704   5.458   7.564   2.752
20487W        W88705   8.293   7.165   1.440
20488W        W88706  26.450  17.939   3.743
20489W        W88707  17.643  29.994   3.183
20490W        W88708   9.203  34.051   1.455
20491W        W88709  32.543   9.929  13.385
20492W        W88710  43.011  38.006  13.892
20493W        W88711  39.923  18.070  13.372
20494W        W88712  43.634  16.064   0.008
20495W        W88713  22.629  26.721  11.126
20496W        W88714   6.788   3.668   2.208
20497W        W88715   5.952  31.650   4.143
20498W        W88716  14.574  44.828  14.278
20499W        W88717  25.097  32.363   3.409
20500W        W88718  26.698  41.433  12.125
20501W        W88719  11.275  42.084  10.771
20502W        W88720  37.927  42.484  14.027
20503W        W88721  26.010  16.196   1.365
20504W        W88722   7.404  31.073   3.897
20505W        W88723  26.253  41.058  12.431
20506W        W88724  29.614  12.378  11.166
20507W        W88725  24.945   8.322   4.099
20508W        W88726   2.744   9.462  11.151
20509W        W88727  23.032   6.850   3.753
20510W        W88728  11.656  33.945   0.466
20511W        W88729  20.174  13.887  12.643
20512W        W88730  16.603  18.097   3.072
20513W        W88731  13.356   1.380   3.719
20514W        W88732  42.265   4.534   2.340
20515W        W88733  38.583   2.982  14.401
20516W        W88734  34.499  33.328   4.526
20517W        W88735  31.681  32.855   1.211
20518W        W88736  25.101   2.231   3.166
20519W        W88737  24.756   1.831  14.779
20520W        W88738  19.602   3.194   4.974
20521W        W88739  25.037  23.621  12.993
20522W        W88740  40.944  25.447   1.241
20523W        W88741  35.569  35.861  12.963
20524W        W88742   0.558   7.218   3.619
20525W        W88743  34.480  21.007  11.113
20526W        W88744  22.041  35.902  13.423
20527W        W88745  38.559  28.574   3.497
20528W        W88746  42.621  25.021  12.499
20529W        W88747  14.033  31.694  13.812
20530W        W88748  34.725  30.966  11.118
20531W        W88749  28.061  27.981  13.234
20532W        W88750  19.811  20.076   0.865
20533W        W88751  40.596  35.574   1.233
20534W        W88752  16.282  39.938  13.276
20535W        W88753  13.736  16.582   3.609
20536W        W88754  44.301  20.267  14.869
20537W        W88755   4.623   2.077  13.907
20538W        W88756  17.863  15.765  14.604
20539W        W88757  19.712  32.935  13.846
20540W        W88758  19.098  12.864  14.999
20541W        W88759  31.508   4.693  13.840
20542W        W88760   4.525   6.901   0.811
20543W        W88761  39.049  24.094   2.948
20544W        W88762  31.097   8.891  14.502
20545W        W88763  24.012  35.362   3.097
20546W        W88764  29.484  38.293  12.898
20547W        W88765  30.958  33.655  13.808
20548W        W88766  42.328  12.083   3.459
20549W        W88767  34.419  12.677  13.862
20550W        W88768  28.671  27.228  13.355
20551W        W88769  42.377  42.213  11.954
20552W        W88770  31.469  34.496   1.994
20553W        W88771  39.500  21.712   4.656
20554W        W88772  43.844  43.395  11.207
20555W        W88773  40.517   9.894   1.864
20556W        W88774  13.718  13.141  11.175
20557W        W88775  44.885  28.193  12.999
20558W        W88776  22.040  15.519  13.076
20559W        W88777  22.987  24.144   4.554
20560W        W88778  17.636  11.042  11.953
20561W        W88779  33.548  13.196  12.275
20562W        W88780   8.967  39.273  14.846
20563W        W88781  44.830  11.594  12.438
20564W        W88782   8.659  41.994   4.147
20565W        W88783  27.511  21.499   0.486
20566W        W88784  37.441  22.575  10.454
20567W        W88785  24.702  11.550   0.635
20568W        W88786   3.901   4.048   3.579
20569W        W88787  15.720  43.044   0.061
20570W        W88788  40.484  31.994   1.713
20571W        W88789  40.301  20.260  11.477
20572W        W88790  29.210  13.797  14.707
20573W        W88791  31.078  33.123  14.834
20574W        W88792   6.676  19.316  13.296
20575W        W88793   0.551   0.937   5.238
20576W        W88794  42.061  35.103   4.653
20577W        W88795  31.905  26.624  14.991
20578W        W88796  17.190  24.862   1.320
20579W        W88797  10.865  19.703  13.922
20580W        W88798  25.669  28.672  12.030
20581W        W88799   2.283   2.777   4.562
20582W        W88800  32.365  29.031   3.390
20583W        W88801  34.700  38.088  12.318
20584W        W88802   0.218  12.780   3.304
20585W        W88803  26.951  28.118  13.982
20586W        W88804   0.127  19.157   0.037
20587W        W88805  41.721   4.858  13.420
20588W        W88806  38.907  11.774  12.047
20589W        W88807  28.515  16.144  14.377
20590W        W88808  35.221  27.039  12.526
20591W        W88809  17.529  33.680  14.518
20592W        W88810  37.312  16.360   4.339
20593W        W88811  29.670  17.199   3.481
20594W        W88812  43.352  35.245   3.383
20595W        W88813  21.180   0.200   1.676
20596W        W88814  39.936  19.003   0.861
20597W        W88815   0.553  38.753   4.087
20598W        W88816   4.893  17.101   0.292
20599W        W88817   6.685   0.897  14.683
20600W        W88818  35.945  32.598  12.232
20601W        W88819   5.752  17.638   0.333
20602W        W88820   0.523  21.530  14.886
20603W        W88821  36.483  36.421  14.467
20604W        W88822   1.291  30.472   2.889
20605W        W88823   2.075   6.815   0.131
20606W        W88824  20.185  12.886   2.745
20607W        W88825  37.254  39.924  10.844
20608W        W88826   7.830   0.732  10.083
20609W        W88827  16.660  25.691   3.884
20610W        W88828  44.238  31.081  13.812
20611W        W88829  21.529   9.117   1.389
20612W        W88830  39.346  43.214   3.989
20613W        W88831   0.379  15.773  12.524
20614W        W88832  22.542  13.127   3.737
20615W        W88833  31.539  19.669  14.895
20616W        W88834   5.591  43.292  13.732
20617W        W88835  43.906  36.567  10.716
20618W        W88836  18.016  11.851   3.003
20619W        W88837  29.592  22.286  12.182
20620W        W88838  29.847  35.829   2.067
20621W        W88839  44.586  15.248  13.491
20622W        W88840   1.726   5.143   2.787
20623W        W88841   3.465  15.781  11.533
20624W        W88842   0.384  27.362   2.041
20625W        W88843  28.980  40.344   3.603
20626W        W88844  11.899  11.378   3.213
20627W        W88845  35.133  30.248   1.822
20628W        W88846  35.450  13.217   3.148
20629W        W88847   7.221  32.373  13.455
20630W        W88848  38.008   5.913   4.525
20631W        W88849  26.753  28.047  13.050
20632W        W88850  43.794  43.948  14.851
20633W        W88851  11.169  42.091  11.712
20634W        W88852  37.049  44.807   1.884
20635W        W88853   5.320  24.220  12.957
20636W        W88854  44.015  22.108  11.565
20637W        W88855  40.944  29.503  12.794
20638W        W88856  33.440  41.998   0.861
20639W        W88857  27.543  35.211   1.742
20640W        W88858  13.579  41.154   4.349
20641W        W88859  10.795  21.695   1.141
20642W        W88860  33.062   3.925   1.577
20643W        W88861  16.561  19.983   3.913
20644W        W88862  11.541   6.263  13.276
20645W        W88863  40.275  35.961   1.478
20646W        W88864  33.564  42.382   2.970
20647W        W88865  39.649  11.653  14.687
20648W        W88866   0.713  42.584  10.436
20649W        W88867   7.844   6.823  13.950
20650W        W88868  20.578  17.133  11.467
20651W        W88869  27.141   4.152  10.818
20652W        W88870  11.927   9.899  13.027
20653W        W88871  12.815  19.753   1.212
20654W        W88872  15.153  27.939   3.084
20655W        W88873  43.916  27.712  12.957
20656W        W88874  37.285   4.953   0.463
20657W        W88875   1.034  22.133   1.142
20658W        W88876   2.778  12.178  11.016
20659W        W88877  36.206  18.287   2.881
20660W        W88878  12.426  10.693  13.343
20661W        W88879   8.629  37.222  12.994
20662W        W88880  34.354  14.668   2.765
20663W        W88881  20.251  30.699  14.047
20664W        W88882  36.026  27.019   0.182
20665W        W88883   6.375  41.978   4.160
20666W        W88884  38.224  41.259  14.440
20667W        W88885  27.537  37.851  14.729
20668W        W88886  15.770  14.584  12.590
20669W        W88887   5.235  39.116  12.334
20670W        W88888  29.436  36.326  10.529
20671W        W88889  21.282  15.187   0.057
20672W        W88890  12.313  22.746   2.399
20673W        W88891   8.711  10.891   1.132
20674W        W88892  12.610  23.476   3.193
20675W        W88893  34.004  30.723   4.074
20676W        W88894   9.992  34.623  13.512
20677W        W88895  23.382  34.102  13.813
20678W        W88896   5.657  35.490   1.979
20679W        W88897  37.032  33.914   3.066
20680W        W88898  24.283  30.501   4.405
20681W        W88899  37.086  37.939  14.099
20682W        W88900  13.230  32.890  12.042
20683W        W88901  27.686  26.011  11.545
20684W        W88902   0.238  37.288   4.278
20685W        W88903  32.865  37.052   1.740
20686W        W88904  36.029  17.228   1.073
20687W        W88905  18.212  12.816   9.906
20688W        W88906  26.920  35.562  14.055
20689W        W88907  23.644  25.055  14.901
20690W        W88908  23.022   1.916  11.502
20691W        W88909  26.712   8.640  12.855
20692W        W88910  30.489  10.776   2.266
20693W        W88911  18.011  21.568   3.709
20694W        W88912  27.177  44.441   4.766
20695W        W88913  24.650  22.053  14.869
20696W        W88914  31.936   7.809  11.072
20697W        W88915  23.507  27.151   2.409
20698W        W88916  40.425  26.718  11.090
20699W        W88917  11.509  26.081  11.899
20700W        W88918   9.571  25.180  11.209
20701W        W88919  43.607  23.205  12.926
20702W        W88920  22.163   9.190  10.972
20703W        W88921   9.641  26.147   0.285
20704W        W88922   4.699  43.973  11.073
20705W        W88923  27.574  33.966   2.740
20706W        W88924   4.586  24.033   2.626
20707W        W88925  35.256  14.068  14.047
20708W        W88926  29.898   1.265  14.050
20709W        W88927  27.699   8.005  13.783
20710W        W88928  18.921  40.327  13.124
20711W        W88929  32.435  26.172  13.356
20712W        W88930   3.616  13.262  13.628
20713W        W88931  12.051  16.418  13.237
20714W        W88932  24.446  21.060  13.920
20715W        W88933  21.771   0.375  13.117
20716W        W88934  44.392  14.177   0.865
20717W        W88935  32.487  38.592  13.938
20718W        W88936  13.654   3.912   3.610
20719W        W88937  20.683   5.762  10.380
20720W        W88938  36.553  16.257  11.370
20721W        W88939  26.728  38.490  14.868
20722W        W88940  26.695   4.358  10.630
20723W        W88941   3.711  33.010  11.108
20724W        W88942  24.118  22.556   1.333
20725W        W88943  10.687  10.088  14.820
20726W        W88944  36.753  27.699   1.649
20727W        W88945  37.332  37.003   1.651
20728W        W88946  25.015  39.120   2.601
20729W        W88947  10.609  40.091  10.358
20730W        W88948  37.447  36.071  11.886
20731W        W88949  41.676  42.512   1.903
20732W        W88950  19.091   8.785   4.245
20733W        W88951  44.019  20.273   1.617
20734W        W88952   8.888  23.702  14.287
20735W        W88953  14.798  15.755   0.472
20736W        W88954  42.899  27.608   1.810
20737W        W88955  33.628  29.620  10.661
20738W        W88956   2.509  32.012   4.731
20739W        W88957  23.208   5.892   3.226
20740W        W88958  28.675   5.056   0.604
20741W        W88959  10.130  26.725  10.678
20742W        W88960  40.502  22.258   0.888
20743W        W88961   6.821  26.224  13.752
20744W        W88962  26.746   7.121   5.054
20745W        W88963  33.945  42.734  13.316
20746W        W88964   1.174  22.668  11.595
20747W        W88965  38.557  30.510  10.755
20748W        W88966  28.186   3.351  11.956
20749W        W88967   6.382   6.445  14.460
20750W        W88968  40.812  28.527   2.853
20751W        W88969  17.331  19.090   3.258
20752W        W88970   0.949   7.774   0.935
20753W        W88971  39.868   6.527   0.732
20754W        W88972  34.934  32.219  12.005
20755W        W88973   9.437  28.871   4.888
20756W        W88974  37.552  23.376  13.880
20757W        W88975  41.494  37.744   0.421
20758W        W88976  36.404   7.685   0.282
20759W        W88977  44.210  36.370   1.283
20760W        W88978  26.101  24.983   4.061
20761W        W88979  35.338  27.158   1.237
20762W        W88980  35.588   2.321  11.472
20763W        W88981  19.121  36.304   3.653
20764W        W88982  41.979   4.399   4.157
20765W        W88983  22.239  25.700  12.956
20766W        W88984   3.230   7.408   4.293
20767W        W88985  44.414   0.681   2.769
20768W        W88986  19.672  16.857   3.610
20769W        W88987  23.222  32.567   4.962
20770W        W88988  34.335  10.606   4.636
20771W        W88989  32.452  26.409   2.387
20772W        W88990  17.193   6.707   3.680
20773W        W88991   2.193  23.733  13.830
20774W        W88992  16.793  13.806   1.424
20775W        W88993  32.926  37.797  13.466
20776W        W88994  21.150  10.909  12.115
20777W        W88995  34.478   4.332   0.925
20778W        W88996  14.758  23.244  11.178
20779W        W88997   4.818  35.682  14.448
20780W        W88998  43.826   6.227   4.805
20781W        W88999  20.593  28.514  14.971
20782W        W89000  31.196   5.843   1.398
20783W        W89001   2.744  37.261  14.970
20784W        W89002   5.229  22.611   0.317
20785W        W89003  31.846  24.227  11.585
20786W        W89004  34.908  33.504   1.469
20787W        W89005  18.725  39.475  13.780
20788W        W89006  43.779  13.647   3.752
20789W        W89007   2.384  14.266  11.500
20790W        W89008  19.725   0.956  13.524
20791W        W89009  13.656  18.714  10.525
20792W        W89010  18.369  31.379  14.858
20793W        W89011  23.895  19.632   4.139
20794W        W89012  13.667   6.832  13.996
20795W        W89013   6.379  38.479   0.336
20796W        W89014  19.157   3.425  10.709
20797W        W89015  11.843   6.370  14.713
20798W        W89016   4.281  13.884   4.209
20799W        W89017  44.348   9.731  13.017
20800W        W89018   8.993  19.712   3.761
20801W        W89019  22.057  25.721   1.806
20802W        W89020  18.284  44.174   0.427
20803W        W89021  41.239  14.979  12.618
20804W        W89022  32.934  19.991   3.322
20805W        W89023  41.989   6.555   0.952
20806W        W89024  31.068   6.469   3.620
20807W        W89025  18.252   3.399   1.418
20808W        W89026   0.382  28.983  14.830
20809W        W89027  38.480  19.792  11.404
20810W        W89028  38.949  23.618  12.135
20811W        W89029  27.125  36.790   3.442
20812W        W89030  13.043  16.210  10.860
20813W        W89031  31.884  13.879   2.638
20814W        W89032  32.129  19.061  11.113
20815W        W89033   1.881  36.932  14.907
20816W        W89034  10.088  10.647   3.900
20817W        W89035  15.911  36.600   2.242
20818W        W89036   8.378  17.851  10.182
20819W        W89037  14.370  11.844   0.692
20820W        W89038   5.073   6.417   0.396
20821W        W89039  31.948  15.328  14.962
20822W        W89040  18.661  11.596  10.642
20823W        W89041   6.027   1.854   2.292
20824W        W89042  44.426   6.881  14.768
20825W        W89043  26.036  24.158  14.370
20826W        W89044   5.022  43.303   4.145
20827W        W89045   4.153   4.917   1.933
20828W        W89046   5.686  10.149  11.474
20829W        W89047  43.727  28.746  12.968
20830W        W89048   5.827  24.011   2.260
20831W        W89049  29.610  31.946   5.095
20832W        W89050   4.312  40.598  10.640
20833W        W89051  29.363  43.416  12.590
20834W        W89052  22.142  33.994   0.788
20835W        W89053  35.046  37.475   2.166
20836W        W89054  36.176  38.748   4.070
20837W        W89055  11.805  44.697   0.981
20838W        W89056  34.443  21.017  10.292
20839W        W89057  27.976  19.525  13.668
20840W        W89058  26.105   7.713  13.133
20841W        W89059  32.878  28.387  14.312
20842W        W89060  31.414  16.937   0.735
20843W        W89061  18.621  21.756  12.893
20844W        W89062   8.390  21.667   3.735
20845W        W89063   4.789  32.904   2.798
20846W        W89064  35.081   1.828   4.215
20847W        W89065  42.385  16.008   1.760
20848W        W89066  33.368   1.700   0.618
20849W        W89067  31.582  15.355   2.139
20850W        W89068  13.699  17.186   1.398
20851W        W89069  42.813  20.149  13.576
20852W        W89070  26.440  24.996   1.114
20853W        W89071  35.493  27.638   3.944
20854W        W89072  34.922  19.697   3.740
20855W        W89073  42.257  19.696   2.710
20856W        W89074  31.596  18.920   1.445
20857W        W89075   4.773  30.078   1.888
20858W        W89076  31.890  39.590   4.348
20859W        W89077  16.782  41.079   3.751
20860W        W89078  17.029  19.606   2.845
20861W        W89079  26.102  22.582   2.688
20862W        W89080  41.042   7.245  14.936
20863W        W89081  42.475  21.670   1.195
20864W        W89082   9.300  14.570   0.691
20865W        W89083  44.067  29.873  10.452
20866W        W89084  44.917  40.721  14.279
20867W        W89085   4.650   4.856   1.150
20868W        W89086  33.531  29.198   3.705
20869W        W89087  22.468  30.885  11.997
20870W        W89088  33.479  12.293  14.874
20871W        W89089   9.812  41.991   0.267
20872W        W89090   1.739  33.334  11.843
20873W        W89091  40.320  39.539   2.276
20874W        W89092   5.442  16.575   2.614
20875W        W89093  44.555  27.741   4.200
20876W        W89094  28.596  19.255   3.805
20877W        W89095  10.474  28.484   2.676
20878W        W89096  19.964  17.245  14.223
20879W        W89097  17.167  36.523  11.486
20880W        W89098  21.127  32.193  14.398
20881W        W89099  14.386  14.051  13.034
20882W        W89100  39.428   2.916   0.440
20883W        W89101  24.626   8.674  12.214
20884W        W89102  21.783  10.258  14.856
20885W        W89103  17.686   8.111   4.659
20886W        W89104  34.988  23.980  13.524
20887W        W89105  29.860  22.000   0.316
20888W        W89106  19.697  23.122   4.861
20889W        W89107   2.963  42.339  11.706
20890W        W89108   7.668  27.198   1.367
20891W        W89109   4.887  39.305   4.621
20892W        W89110  20.561  13.538  11.614
20893W        W89111  18.567  32.576  12.091
20894W        W89112   1.940  33.736   0.922
20895W        W89113   2.680  20.017   1.324
20896W        W89114  42.350  30.144   3.902
20897W        W89115  11.800  29.360  11.690
20898W        W89116  26.314  29.121  12.435
20899W        W89117  32.971  23.148   2.855
20900W        W89118  21.406  18.667  11.582
20901W        W89119   7.650  13.676   2.299
20902W        W89120  41.779  32.783  13.337
20903W        W89121  38.974  24.407  12.600
20904W        W89122  43.884  35.593  14.036
20905W        W89123  37.505  38.360  14.513
20906W        W89124  26.114  27.901  12.218
20907W        W89125  35.772   0.791  11.191
20908W        W89126  10.330  24.872  14.895
20909W        W89127  18.313  44.855  14.359
20910W        W89128  13.963   8.702  14.267
20911W        W89129  35.365  19.270   3.830
20912W        W89130  35.600   9.317  13.190
20913W        W89131  24.950   2.995   3.115
20914W        W89132  41.580   5.307   1.348
20915W        W89133  40.879   7.226  12.041
20916W        W89134  28.953  18.697  10.214
20917W        W89135  36.088   2.551  11.430
20918W        W89136  42.834  23.747  13.427
20919W        W89137  38.180  20.709   1.656
20920W        W89138  22.517  33.175   1.255
20921W        W89139   3.724   7.067  14.579
20922W        W89140  16.014  44.432  11.377
20923W        W89141  29.450  11.401   1.334
20924W        W89142   8.249  17.722  13.751
20925W        W89143  32.186  34.944   0.941
20926W        W89144  26.264  40.404  12.862
20927W        W89145  20.494  42.332   4.653
20928W        W89146  28.913  20.237   0.527
20929W        W89147  16.658  38.614  13.475
20930W        W89148  43.328  23.024   0.454
20931W        W89149   5.718  13.847   4.113
20932W        W89150  19.108   1.392  13.924
20933W        W89151  15.702  22.738   0.432
20934W        W89152   0.821  19.272  10.819
20935W        W89153  35.185   2.817  10.954
20936W        W89154   2.248   3.240  14.814
20937W        W89155  21.908  26.678  12.835
20938W        W89156  36.090  35.815  11.574
20939W        W89157  21.856  32.513  12.300
20940W        W89158  22.648  28.692  11.192
20941W        W89159   3.949  44.473  14.349
20942W        W89160   4.477  19.225   2.866
20943W        W89161  12.061  36.397  13.360
20944W        W89162  41.944  33.193   1.419
20945W        W89163   1.249   8.158   2.829
20946W        W89164  35.474  36.329   1.866
20947W        W89165  37.500   7.446   1.385
20948W        W89166  41.333  38.433   3.797
20949W        W89167   9.895   2.205   3.993
20950W        W89168   7.159  31.450  11.341
20951W        W89169   8.272   4.733  13.463
20952W        W89170  15.980   5.385  12.011
20953W        W89171  30.866  31.184  14.408
20954W        W89172  21.372  28.175   2.814
20955W        W89173  17.765  43.984   0.301
20956W        W89174  27.210  16.622   4.024
20957W        W89175  44.634  19.101   2.888
20958W        W89176  19.944  32.902  13.347
20959W        W89177  31.487   4.706  14.786
20960W        W89178  42.375  32.887  10.682
20961W        W89179  18.593  33.053   0.455
20962W        W89180  34.545  16.131  13.798
20963W        W89181  18.700  40.575   1.807
20964W        W89182  29.587  10.381  13.854
20965W        W89183   0.158  37.562   4.708
20966W        W89184  11.243  43.038  14.349
20967W        W89185  26.069   5.297  14.269
20968W        W89186   4.499  19.765  14.720
20969W        W89187  37.894  11.699  12.243
20970W        W89188   9.632  36.926  12.049
20971W        W89189  10.696  44.737  12.773
20972W        W89190  34.619  37.337  13.394
20973W        W89191  38.508  42.494   1.759
20974W        W89192  18.682   2.926   0.756
20975W        W89193  18.690  27.946  13.953
20976W        W89194  37.495   1.048  11.511
20977W        W89195  34.106  33.933  11.642
20978W        W89196  21.062  33.587  14.408
20979W        W89197  30.177   6.163  13.648
20980W        W89198  44.773  15.828  14.856
20981W        W89199  32.046  14.250  13.285
20982W        W89200  13.389  21.531   4.529
20983W        W89201   3.940  43.014   0.935
20984W        W89202  23.587  31.884  13.539
20985W        W89203   9.838  36.171   3.618
20986W        W89204  38.981  11.266   2.091
20987W        W89205   9.436   1.349  12.975
20988W        W89206  32.038  29.108   2.451
20989W        W89207  44.883   5.880  11.654
20990W        W89208  25.622  34.845   3.105
20991W        W89209  36.828   0.900  12.853
20992W        W89210   0.788  42.613   0.896
20993W        W89211  22.181  39.398   3.702
20994W        W89212   9.785   7.516  10.410
20995W        W89213  20.175   4.242  12.007
20996W        W89214   2.289  18.789  12.981
20997W        W89215  33.484  30.249   1.931
20998W        W89216  14.376  43.936   2.884
20999W        W89217  23.456  23.161  10.905
21000W        W89218  14.349  22.795   0.446
21001W        W89219  31.438   5.958   3.228
21002W        W89220   7.647  26.058   0.410
21003W        W89221  16.716  24.664   3.752
21004W        W89222   4.699   9.041  12.397
21005W        W89223   9.125  36.317   4.434
21006W        W89224   1.481  19.306   1.284
21007W        W89225  26.817  19.440  12.435
21008W        W89226  16.643  28.108   1.286
21009W        W89227  39.226   9.073  10.366
21010W        W89228   5.437   8.754  14.755
21011W        W89229  11.404  17.962   1.215
21012W        W89230   6.666  24.582  14.443
21013W        W89231  30.661  26.781  13.778
21014W        W89232   7.102  33.706  12.513
21015W        W89233  31.727  41.996  13.516
21016W        W89234  32.221  16.169   2.245
21017W        W89235  13.172   4.852  12.042
21018W        W89236  16.890  30.542  11.075
21019W        W89237  43.489   6.906   4.961
21020W        W89238  28.637   2.350   0.222
21021W        W89239   4.577  34.560   0.808
21022W        W89240  27.455  20.052   0.058
21023W        W89241  16.750  43.907   3.028
21024W        W89242  21.604   6.327   1.737
21025W        W89243  34.113  18.314   1.209
21026W        W89244   8.360  26.985   4.988
21027W        W89245  15.689   8.942   4.114
21028W        W89246   9.717  25.159  12.918
21029W        W89247  16.425   0.381  14.461
21030W        W89248  35.080  13.717   1.932
21031W        W89249  41.831   2.965  12.469
21032W        W89250  34.113  43.872   2.263
21033W        W89251   9.681  34.986  12.512
21034W        W89252  12.685  33.615   3.711
21035W        W89253  25.598  38.965  12.390
21036W        W89254  37.533  39.537   1.409
21037W        W89255  16.050  24.181  14.832
21038W        W89256   2.584  20.960  13.994
21039W        W89257  20.704  22.655   0.420
21040W        W89258  25.555  12.411  12.479
21041W        W89259  40.914  39.886  11.090
21042W        W89260  25.925  31.364   3.813
21043W        W89261  35.559  14.582  11.637
21044W        W89262  18.052   3.969  11.510
21045W        W89263  28.527  23.743   0.135
21046W        W89264  37.363  16.752   1.840
21047W        W89265  30.560  24.634  10.721
21048W        W89266  27.265  10.363  10.634
21049W        W89267  24.810  23.679  12.452
21050W        W89268   1.519   0.675  12.784
21051W        W89269  17.488  31.877   4.066
21052W        W89270  23.122   7.244   4.594
21053W        W89271  17.367  31.387   4.166
21054W        W89272  24.867   9.695  11.966
21055W        W89273  44.841  22.519  11.523
21056W        W89274   4.667  39.646  10.667
21057W        W89275   7.433  18.484  11.640
21058W        W89276  28.461  10.134   2.736
21059W        W89277  24.510  35.822   3.731
21060W        W89278  40.541  24.758  14.228
21061W        W89279  16.239  40.412   2.277
21062W        W89280  29.345  42.847   0.208
21063W        W89281  21.271  32.643  11.550
21064W        W89282  36.495  21.020  13.392
21065W        W89283  15.750  42.548  14.832
21066W        W89284  42.399  25.822   4.910
21067W        W89285   0.815  25.141   4.134
21068W        W89286   5.197  39.893   3.982
21069W        W89287  16.140  18.341   3.145
21070W        W89288   1.234   3.922  11.530
21071W        W89289   7.604  20.848  12.506
21072W        W89290  17.139  27.476  14.450
21073W        W89291  29.474  17.333   0.808
21074W        W89292  30.860   3.742   1.397
21075W        W89293  43.219  42.000   2.277
21076W        W89294  37.668   3.939  13.445
21077W        W89295  29.052   4.272   1.214
21078W        W89296  25.539  43.298  14.477
21079W        W89297   8.016  12.737   2.315
21080W        W89298   0.851  15.817   4.258
21081W        W89299   0.397  32.125   0.509
21082W        W89300  31.551  34.033   1.761
21083W        W89301  21.157  19.823   2.777
21084W        W89302  23.740  26.394  14.489
21085W        W89303  29.716  37.206   2.239
21086W        W89304  18.428   9.744  12.565
21087W        W89305  13.192  23.483  11.970
21088W        W89306  13.749  35.506   2.078
21089W        W89307  37.618   4.651  12.718
21090W        W89308   2.846   8.973   4.576
21091W        W89309  16.866  14.927   0.815
21092W        W89310  29.659   9.063   5.254
21093W        W89311  27.725  28.661  11.208
21094W        W89312  10.964  10.257  14.328
21095W        W89313   2.576  30.689   5.168
21096W        W89314  44.828  34.683   1.740
21097W        W89315  36.470  28.709  13.055
21098W        W89316  43.573  44.501  12.103
21099W        W89317  22.256  11.377  13.403
21100W        W89318  30.214  20.658   1.209
21101W        W89319  14.863  43.776   0.375
21102W        W89320  37.009   8.469  11.157
21103W        W89321  14.323  31.390  14.150
21104W        W89322  40.856  22.266  14.600
21105W        W89323   9.465  10.096  11.415
21106W        W89324   7.347  26.994   0.509
21107W        W89325  41.540  20.517   1.193
21108W        W89326  12.834  40.993   2.628
21109W        W89327  11.955  23.409   0.395
21110W        W89328   1.515  29.088   2.839
21111W        W89329   0.380  27.725   3.783
21112W        W89330  18.537  17.753  14.929
21113W        W89331  40.545  31.485   2.361
21114W        W89332  12.297  17.863   1.493
21115W        W89333   6.086   8.201   1.253
21116W        W89334   8.941  40.341  11.645
21117W        W89335   8.479  12.147  12.918
21118W        W89336  16.421   2.160  14.531
21119W        W89337  37.493  41.124  14.454
21120W        W89338  40.954   7.813   3.821
21121W        W89339   8.874  29.424   1.216
21122W        W89340  40.888  24.198  11.972
21123W        W89341  42.097  15.909  13.385
21124W        W89342   6.897   0.789   0.741
21125W        W89343  40.907   7.272   0.454
21126W        W89344  11.431  43.712  13.740
21127W        W89345  30.508  41.386   3.692
21128W        W89346  35.617  23.640   2.323
21129W        W89347  37.285  25.166  11.990
21130W        W89348  42.589  38.649  12.820
21131W        W89349  28.482  44.877   1.211
21132W        W89350  37.550  23.497  10.942
21133W        W89351  26.906  44.470  11.861
21134W        W89352  30.696  14.087   0.737
21135W        W89353   4.381  22.107   0.600
21136W        W89354  37.465   9.691   0.977
21137W        W89355   0.414   8.263   2.661
21138W        W89356  24.148  21.007  13.510
21139W        W89357  20.304  41.568  11.861
21140W        W89358   4.346  24.394   0.264
21141W        W89359  11.246  15.963   4.161
21142W        W89360   4.368  41.196   0.717
21143W        W89361  32.968  39.092  13.609
21144W        W89362  28.296  40.994  13.559
21145W        W89363  20.704  23.002   4.084
21146W        W89364  40.790  22.782   4.113
21147W        W89365   1.116  27.981   4.680
21148W        W89366  37.993  11.360  14.773
21149W        W89367  20.636   5.132   1.602
21150W        W89368  39.290  18.689  13.204
21151W        W89369   1.908  29.180   3.663
21152W        W89370  28.966  39.606   4.092
21153W        W89371   8.163  17.745   3.187
21154W        W89372  27.434   1.971   2.365
21155W        W89373  38.889   0.778  12.133
21156W        W89374  43.065  37.674  11.222
21157W        W89375  25.549  25.616  12.927
21158W        W89376   3.535  10.805   4.039
21159W        W89377  33.318  41.816   4.435
21160W        W89378  41.248  21.636   0.025
21161W        W89379  32.024  12.737  12.441
21162W        W89380  23.728  33.905  14.821
21163W        W89381  43.031  32.438   3.745
21164W        W89382   4.482   8.834   3.318
21165W        W89383  23.060  37.097   2.770
21166W        W89384  35.871  21.969  13.556
21167W        W89385  34.898   1.025   1.142
21168W        W89386  18.263  43.127   0.222
21169W        W89387  19.047  32.665   3.839
21170W        W89388  31.825  38.688  12.987
21171W        W89389  40.581  25.699   4.739
21172W        W89390  17.088   1.909   1.708
21173W        W89391  23.098  10.711  10.642
21174W        W89392  39.959  44.794  13.884
21175W        W89393  20.588  40.312   1.118
21176W        W89394  44.174  30.418  13.615
21177W        W89395  29.189  39.846  14.505
21178W        W89396   5.282  31.150   1.731
21179W        W89397  32.948   8.397  12.866
21180W        W89398   9.835   1.931  14.857
21181W        W89399  30.264  36.598   1.885
21182W        W89400   8.514  12.700   2.362
21183W        W89401  22.446  13.750  10.357
21184W        W89402  23.903  35.461   0.777
21185W        W89403  10.869  38.019  13.863
21186W        W89404  25.195  38.803  10.615
21187W        W89405  15.285  39.638  13.939
21188W        W89406  17.517  21.762  12.894
21189W        W89407  23.528  13.145  13.723
21190W        W89408  37.107  32.039   4.612
21191W        W89409  28.623  23.261   0.032
21192W        W89410  14.855  23.730   4.954
21193W        W89411  38.323  30.511   0.833
21194W        W89412   7.235  25.033  11.627
21195W        W89413  22.302  27.699   3.539
21196W        W89414  43.750  39.526   0.306
21197W        W89415  38.925   2.228   1.176
21198W        W89416  37.339   0.346  13.497
21199W        W89417  38.617  13.756  13.411
21200W        W89418   6.373  43.282   3.272
21201W        W89419  28.592  40.766  13.903
21202W        W89420  21.731  22.024  14.453
21203W        W89421  12.858   8.137   1.668
21204W        W89422  39.908  28.753   3.868
21205W        W89423  35.161  18.636  13.233
21206W        W89424  18.665  16.454  11.023
21207W        W89425  35.470  33.567   2.828
21208W        W89426  31.144  15.707   2.173
21209W        W89427   6.812  33.923   0.644
21210W        W89428  44.041  24.072  10.247
21211W        W89429  39.303  34.329   0.452
21212W        W89430  42.293  17.689  12.874
21213W        W89431  23.435  23.120   4.537
21214W        W89432  24.550   1.297   3.980
21215W        W89433   7.334  14.443   5.409
21216W        W89434  37.954   0.663   4.736
21217W        W89435  19.954  28.231   1.126
21218W        W89436  33.647  25.622  14.328
21219W        W89437  36.427  29.915  12.459
21220W        W89438  38.583  37.159   0.944
21221W        W89439   9.266  22.534  10.537
21222W        W89440  36.352  14.794   1.861
21223W        W89441  28.468  27.023  12.932
21224W        W89442  14.704  15.239  12.306
21225W        W89443  31.712   0.267   0.859
21226W        W89444  20.215  30.191  12.868
21227W        W89445  39.600  30.032  14.993
21228W        W89446  10.266  32.481   2.167
21229W        W89447  37.262   9.758  11.486
21230W        W89448  44.095  17.742  14.227
21231W        W89449  11.192  30.789  14.227
21232W        W89450  33.024  36.319  10.696
21233W        W89451  13.645  44.690   0.995
21234W        W89452  32.696   2.241  14.515
21235W        W89453  37.854  42.786  12.160
21236W        W89454   9.263  31.401   0.407
21237W        W89455  37.383  16.555  10.953
21238W        W89456  32.252  26.466  12.139
21239W        W89457   0.492  34.834  11.583
21240W        W89458  24.730  21.645  11.512
21241W        W89459   5.854   1.745  14.334
21242W        W89460  34.219  25.499   4.643
21243W        W89461   1.602   4.880   3.255
21244W        W89462  42.379  26.182   4.001
21245W        W89463  40.778  15.252   0.538
21246W        W89464   7.719  16.804  13.976
21247W        W89465  10.716  20.211  13.937
21248W        W89466  29.564  29.870   3.761
21249W        W89467   2.698   5.193  10.455
21250W        W89468   2.382   4.281   4.511
21251W        W89469  32.971   4.677   0.295
21252W        W89470  35.034  34.886   4.194
21253W        W89471  38.919  14.804   4.658
21254W        W89472  44.399  41.409   4.495
21255W        W89473  41.466   3.753   5.451
21256W        W89474  23.634   6.676   4.218
21257W        W89475   1.286  39.640  14.795
21258W        W89476  39.861   3.369  11.565
21259W        W89477  11.423  18.125  14.927
21260W        W89478  25.890  27.634  11.502
21261W        W89479  37.942  38.359   0.817
21262W        W89480  22.070  42.564  10.672
21263W        W89481  26.190  20.282  11.172
21264W        W89482  16.686   7.979   0.933
21265W        W89483  35.385  35.420  12.061
21266W        W89484  29.034  22.671   1.513
21267W        W89485   9.152   3.313   1.974
21268W        W89486   9.361  34.389  11.584
21269W        W89487  22.226  22.778  11.480
21270W        W89488  40.564   2.928   0.731
21271W        W89489  30.142  18.001   2.787
21272W        W89490  14.971  14.787  12.906
21273W        W89491  41.750  24.190   4.516
21274W        W89492  38.285  33.683  13.959
21275W        W89493  42.805  42.219  14.712
21276W        W89494   3.436  19.685  11.444
21277W        W89495  30.308  28.026   4.125
21278W        W89496  17.842  25.804  11.549
21279W        W89497   9.318   9.235   1.450
21280W        W89498   3.549   2.683  11.399
21281W        W89499  41.588   3.266   5.587
21282W        W89500  18.626  14.203  14.949
21283W        W89501  18.377  31.007   3.316
21284W        W89502  25.970  17.449   9.701
21285W        W89503   2.085  31.767   2.636
21286W        W89504  22.493  16.647  11.183
21287W        W89505  13.388  14.455  11.147
21288W        W89506  15.569  14.719  13.977
21289W        W89507  12.259   0.714  11.053
21290W        W89508  30.164  27.970  11.564
21291W        W89509  16.240  29.789   0.219
21292W        W89510  42.350  41.100  10.944
21293W        W89511  28.221   7.800  11.514
21294W        W89512   6.250  33.999  13.094
21295W        W89513  37.966   3.044   0.144
21296W        W89514   6.387  20.082  10.686
21297W        W89515   6.259   5.203   9.897
21298W        W89516  35.051   1.963  13.912
21299W        W89517  30.405  44.977  13.381
21300W        W89518  24.378  19.323  12.644
21301W        W89519   3.196  41.325   3.097
21302W        W89520   7.520  30.053  13.184
21303W        W89521  34.178  36.984  14.498
21304W        W89522   6.137   7.169  14.018
21305W        W89523   6.611  38.488   1.320
21306W        W89524  26.941  20.156   0.001
21307W        W89525  10.147   2.646   2.790
21308W        W89526  10.733  15.497  14.053
21309W        W89527  40.489   6.868   0.731
21310W        W89528  26.105  11.807  12.094
21311W        W89529  13.049  41.245   5.045
21312W        W89530  19.303  25.690   4.374
21313W        W89531  29.647   3.702   3.221
21314W        W89532   8.269  13.832   3.334
21315W        W89533  15.326   6.824  11.046
21316W        W89534   6.322  31.543  13.102
21317W        W89535  12.504  37.887  14.998
21318W        W89536  18.202  10.619   3.731
21319W        W89537  18.760   4.871   3.802
21320W        W89538  14.550   6.994  12.525
21321W        W89539  32.162  16.716  14.828
21322W        W89540  15.494   3.524  14.916
21323W        W89541  31.492  19.849   1.881
21324W        W89542  26.547  40.764  14.433
21325W        W89543  30.642  22.635  11.877
21326W        W89544  11.671  14.125   3.704
21327W        W89545   3.332  29.417  11.281
21328W        W89546   1.588  18.354   3.099
21329W        W89547  41.358  17.769   3.781
21330W        W89548  41.735   2.278  14.788
21331W        W89549  35.095  35.077   3.222
21332W        W89550  40.368  17.844   0.121
21333W        W89551  29.616  26.126   2.856
21334W        W89552  17.779   5.679   3.198
21335W        W89553  44.131  34.389   1.024
21336W        W89554  40.981   4.880   1.693
21337W        W89555  36.759  20.764  10.814
21338W        W89556  38.563  31.602  13.375
21339W        W89557  36.370  22.154   1.798
21340W        W89558  43.834   8.915  12.140
21341W        W89559  40.062   1.263  10.663
21342W        W89560  24.028  44.490   1.203
21343W        W89561   8.205  25.011   1.203
21344W        W89562  32.132  34.142  14.784
21345W        W89563  24.086  38.364  11.733
21346W        W89564   1.399  36.166   1.846
21347W        W89565  40.509  19.930   1.189
21348W        W89566  27.281  27.627  13.353
21349W        W89567   2.766  22.072   0.295
21350W        W89568  26.078  14.803   1.537
21351W        W89569  21.411  40.454   4.513
21352W        W89570  35.470  10.287   1.773
21353W        W89571  19.205   4.671   3.403
21354W        W89572  30.514  41.476  14.675
21355W        W89573  14.564  11.816  13.086
21356W        W89574  42.286  22.835   1.838
21357W        W89575  36.166   0.513   0.381
21358W        W89576  34.092  21.054   3.683
21359W        W89577  19.080   7.712   1.254
21360W        W89578  37.992  23.985   2.822
21361W        W89579   3.529  24.697  11.536
21362W        W89580   0.894  30.937   0.538
21363W        W89581  44.812  37.798  13.379
21364W        W89582   5.951  22.193  10.942
21365W        W89583  29.358  18.120   0.381
21366W        W89584  23.752   3.497  14.342
21367W        W89585  27.786  31.392  12.015
21368W        W89586   2.271   4.412  14.073
21369W        W89587  21.923  12.198  11.713
21370W        W89588  34.307   0.965   3.560
21371W        W89589   0.475   5.477  11.950
21372W        W89590  28.357  38.350  11.749
21373W        W89591  39.985  25.803   1.963
21374W        W89592  26.942  36.287   3.301
21375W        W89593   7.859   3.292  14.091
21376W        W89594   6.622  35.845   3.843
21377W        W89595  44.000  13.028   2.392
21378W        W89596  36.875  31.962   2.698
21379W        W89597   9.017  31.367   5.041
21380W        W89598  23.058  19.252  12.137
21381W        W89599  38.313   4.699   5.074
21382W        W89600  21.432  14.670   2.831
21383W        W89601  39.464  17.407  11.196
21384W        W89602  13.282  36.628  14.952
21385W        W89603  39.456  29.894   1.761
21386W        W89604  17.319  38.468  10.445
21387W        W89605   2.027  29.241   2.824
21388W        W89606  38.575   9.283  13.843
21389W        W89607  29.213   6.645  11.069
21390W        W89608   6.976   7.797   3.105
21391W        W89609   7.184  42.873   2.297
21392W        W89610  40.306   2.721  11.644
21393W        W89611   5.802  35.878  14.885
21394W        W89612  23.179  15.395  12.424
21395W        W89613  31.928   6.111  13.069
21396W        W89614  26.304   9.218   4.195
21397W        W89615  30.940  42.295  13.853
21398W        W89616   4.940  20.403   0.843
21399W        W89617  34.046  10.417   4.246
21400W        W89618  36.414   4.371   0.299
21401W        W89619  30.365  35.428   1.330
21402W        W89620  12.909  16.686   2.284
21403W        W89621  29.833  41.939  12.553
21404W        W89622  21.200  35.937  11.559
21405W        W89623  32.225  42.812   2.666
21406W        W89624   3.568   7.270   2.402
21407W        W89625  38.093   7.344   3.698
21408W        W89626   8.629  38.149  12.109
21409W        W89627  41.020  29.319  11.270
21410W        W89628   5.007  43.522   0.969
21411W        W89629  11.335  44.219  11.079
21412W        W89630   7.249  12.680   0.895
21413W        W89631  19.956  41.840  10.654
21414W        W89632  13.805  36.382   1.671
21415W        W89633  18.019  25.490  14.526
21416W        W89634  26.558  19.483   1.894
21417W        W89635  18.348  13.103   0.975
21418W        W89636  43.497  20.848  14.680
21419W        W89637  24.162   6.731   0.717
21420W        W89638  19.034  44.026   4.201
21421W        W89639  12.890   1.323   1.847
21422W        W89640  22.024  25.946  14.998
21423W        W89641  40.865  27.156  10.633
21424W        W89642  24.731  14.375  13.997
21425W        W89643  32.058  22.086   4.478
21426W        W89644  26.139  37.363  13.009
21427W        W89645  19.163  32.620  10.651
21428W        W89646   8.400  12.533   0.453
21429W        W89647  39.262  20.078   0.162
21430W        W89648  41.970  26.107   3.211
21431W        W89649  43.544   2.414  14.428
21432W        W89650  40.542  39.966  12.608
21433W        W89651  42.029   6.863   3.354
21434W        W89652  18.031  18.720  10.548
21435W        W89653  10.753  28.660  14.613
21436W        W89654   2.548   0.393  10.677
21437W        W89655   5.703  17.845  13.109
21438W        W89656   4.225   0.996  13.477
21439W        W89657   2.005  22.747  12.386
21440W        W89658  37.834  39.166  14.831
21441W        W89659  20.058  17.868   3.569
21442W        W89660   8.099   0.409  14.098
21443W        W89661  44.548   1.211  11.553
21444W        W89662   4.413   7.442   1.835
21445W        W89663   2.483  25.061  13.901
21446W        W89664   9.051  19.581  10.326
21447W        W89665   2.164   8.220   3.211
21448W        W89666  12.046  34.638  13.626
21449W        W89667  38.330  19.199   1.781
21450W        W89668  22.485  36.984  12.339
21451W        W89669  26.119   5.308   4.482
21452W        W89670   8.734  27.598   4.653
21453W        W89671   2.710   6.744  11.771
21454W        W89672  44.411  44.884   3.183
21455W        W89673  37.750   2.439  11.915
21456W        W89674   6.691  28.459   1.155
21457W        W89675  31.648  39.214  11.098
21458W        W89676  11.117  12.030  12.657
21459W        W89677  23.073  21.323   2.696
21460W        W89678  39.354  38.832  10.429
21461W        W89679   6.406  27.033   1.795
21462W        W89680  11.112  38.637   0.620
21463W        W89681  14.845  41.387  11.664
21464W        W89682  19.334  42.908  11.188
21465W        W89683  25.236   3.453   3.318
21466W        W89684  11.394  27.463   4.974
21467W        W89685  14.132  14.358   4.091
21468W        W89686  22.384   1.373   0.272
21469W        W89687   4.890  14.199  12.504
21470W        W89688  29.055   3.638  10.635
21471W        W89689  21.616  43.170  12.405
21472W        W89690   9.624   1.622   2.287
21473W        W89691   4.702   1.861   4.527
21474W        W89692  14.843  40.508  13.333
21475W        W89693  24.990   5.447   4.329
21476W        W89694  37.549  41.999  14.433
21477W        W89695   9.096  18.106  13.464
21478W        W89696  35.357  35.836   4.170
21479W        W89697  22.429   6.410   4.323
21480W        W89698   6.845  35.919   1.447
21481W        W89699  14.908  16.352  14.940
21482W        W89700  10.215  16.824  12.452
21483W        W89701  43.604   1.971  13.274
21484W        W89702  34.845  41.996   0.891
21485W        W89703  42.073  28.525   0.759
21486W        W89704  42.368   4.279  14.272
21487W        W89705  14.139  41.585  12.429
21488W        W89706  32.778  27.974   0.536
21489W        W89707  35.342  40.502   2.322
21490W        W89708  35.416  39.372  14.880
21491W        W89709  37.392  35.956   0.261
21492W        W89710  20.210  17.589  14.546
21493W        W89711  38.567  44.912   0.576
21494W        W89712  24.893   2.087  11.171
21495W        W89713  41.929  24.712  12.710
21496W        W89714  40.017  36.509  12.160
21497W        W89715  13.446  41.655   0.271
21498W        W89716  11.351  24.756   4.407
21499W        W89717  33.383  11.601  13.316
21500W        W89718  10.319  38.373   4.590
21501W        W89719  35.085  28.764   4.491
21502W        W89720   0.399  32.596  11.665
21503W        W89721  34.392  15.661   4.115
21504W        W89722  32.170  31.556   3.407
21505W        W89723  37.205   1.330  11.914
21506W        W89724  28.121  36.015   4.720
21507W        W89725  40.912  12.194  11.121
21508W        W89726  21.808  28.939  13.903
21509W        W89727  22.937  35.552   0.718
21510W        W89728  28.490  32.037  11.648
21511W        W89729   6.671   0.207   4.355
21512W        W89730  35.883  15.984  12.453
21513W        W89731  42.369  10.733   4.495
21514W        W89732   7.541  20.385  11.150
21515W        W89733  19.765  22.757  12.865
21516W        W89734  41.922   8.261   4.615
21517W        W89735  12.277  14.712  10.770
21518W        W89736  42.587  19.178  11.576
21519W        W89737  18.175  28.209   0.883
21520W        W89738  14.239  32.076   0.965
21521W        W89739   3.762  12.856   2.871
21522W        W89740  28.880  22.279   3.581
21523W        W89741  12.507  34.899   4.147
21524W        W89742  39.255  12.392   1.844
21525W        W89743  19.705  14.763  11.100
21526W        W89744  14.603  37.356   4.256
21527W        W89745   5.541  32.712   0.246
21528W        W89746  20.676  12.150  14.118
21529W        W89747  36.982  18.005  12.828
21530W        W89748   4.360  13.229  14.101
21531W        W89749  16.443  20.215   3.436
21532W        W89750  10.650  38.357   1.430
21533W        W89751  39.113  11.353   0.828
21534W        W89752  34.628  10.888  12.427
21535W        W89753  39.455  44.930  13.826
21536W        W89754  41.719  42.001  13.452
21537W        W89755  28.532   1.931  10.850
21538W        W89756   3.754   4.929   1.255
21539W        W89757  16.320  12.999   4.560
21540W        W89758  21.602  38.618  13.615
21541W        W89759  11.253  17.040   3.337
21542W        W89760  16.120  10.381   3.310
21543W        W89761  12.828   2.027  12.413
21544W        W89762  43.428  15.399   1.350
21545W        W89763  28.673   8.228  14.058
21546W        W89764  37.017   9.957   0.900
21547W        W89765  26.711  33.057   3.510
21548W        W89766  35.905  21.165   4.686
21549W        W89767   4.646   0.887   3.177
21550W        W89768  25.576  44.903  14.764
21551W        W89769  28.471  26.749   5.096
21552W        W89770  24.503  29.187  10.272
21553W        W89771  33.186  15.229   1.830
21554W        W89772  15.879  13.752  12.621
21555W        W89773  23.056  13.561  11.669
21556W        W89774  16.583  26.119   0.758
21557W        W89775  21.243   7.391  14.360
21558W        W89776  31.536  28.487   1.936
21559W        W89777   0.791  17.525   4.517
21560W        W89778  37.162  20.843   3.379
21561W        W89779  27.369  24.610   4.591
21562W        W89780  13.639  33.168   0.331
21563W        W89781  42.562  24.612   1.985
21564W        W89782  23.247  36.284   3.917
21565W        W89783   3.322   8.868   3.783
21566W        W89784   0.285  29.826  14.315
21567W        W89785  35.412  10.512   2.733
21568W        W89786  25.861   7.749   2.080
21569W        W89787  38.357  39.280   3.617
21570W        W89788  35.515   2.535   2.236
21571W        W89789  36.313   8.884   0.263
21572W        W89790   1.262   4.966  10.645
21573W        W89791   9.243  25.631   1.824
21574W        W89792  38.386  42.811  12.864
21575W        W89793  28.503  36.178   4.053
21576W        W89794  39.778  19.549  11.135
21577W        W89795  28.479   1.526   1.708
21578W        W89796  16.021   2.220  13.416
21579W        W89797  17.220   8.852   3.157
21580W        W89798   6.656  18.146  12.898
21581W        W89799   2.050  24.632  11.548
21582W        W89800  18.967  42.754   3.093
21583W        W89801  20.476  44.767   1.733
21584W        W89802  21.012  12.058  14.552
21585W        W89803  19.561  15.637   2.387
21586W        W89804  35.189  31.399   3.434
21587W        W89805  28.234   0.321   2.040
21588W        W89806  14.584  36.437   3.367
21589W        W89807  19.039  25.451   0.420
21590W        W89808  32.012  32.315  11.667
21591W        W89809  29.207  31.403  11.914
21592W        W89810  23.710  14.141  12.679
21593W        W89811  28.883   0.932  14.945
21594W        W89812  38.887  32.249   2.736
21595W        W89813  34.371  20.104  13.279
21596W        W89814  21.079   1.997  13.557
21597W        W89815  19.111  37.103   3.186
21598W        W89816  10.831   8.436  10.900
21599W        W89817   0.486  22.147  13.662
21600W        W89818  28.304  10.833  10.875
21601W        W89819  19.964  23.621   2.262
21602W        W89820   1.005  10.243  10.259
21603W        W89821  10.344  25.005  10.208
21604W        W89822  17.131  34.483  12.098
21605W        W89823  15.565  27.591  12.497
21606W        W89824   6.559  30.386   0.796
21607W        W89825  10.097  42.432   1.992
21608W        W89826   6.648  11.696  13.369
21609W        W89827  31.543  13.085   4.770
21610W        W89828  16.594   6.536  13.662
21611W        W89829  21.324   7.286   0.754
21612W        W89830  33.168  15.792  10.375
21613W        W89831   4.640  42.436  10.715
21614W        W89832  37.387   2.212   4.075
21615W        W89833   2.244  31.410   3.541
21616W        W89834   6.879  25.466  11.003
21617W        W89835  24.552   6.702  14.386
21618W        W89836   1.441  14.866   2.300
21619W        W89837  20.793  28.526   1.460
21620W        W89838  43.080  23.587  11.622
21621W        W89839   9.242  41.042   3.157
21622W        W89840   1.383  22.441  13.351
21623W        W89841  44.316  14.279   2.197
21624W        W89842  32.114  32.828   3.161
21625W        W89843  40.042  37.408  12.379
21626W        W89844  19.595  34.568  13.412
21627W        W89845  21.549  33.939   2.182
21628W        W89846   1.066  27.201   4.795
21629W        W89847  16.197   3.877  13.798
21630W        W89848  41.924  26.633  10.243
21631W        W89849  30.365  26.587  11.729
21632W        W89850  43.702  12.258  14.481
21633W        W89851  13.557  37.447  13.873
21634W        W89852  24.987  29.401  10.415
21635W        W89853  11.409   3.498  14.414
21636W        W89854  43.305  32.056  11.156
21637W        W89855   9.807   4.721  12.888
21638W        W89856   9.687  23.614  10.992
21639W        W89857  18.483  42.409   4.244
21640W        W89858   7.740  24.156   2.664
21641W        W89859   4.969  25.605   0.269
21642W        W89860  23.598  32.748   2.176
21643W        W89861  34.699  24.766   3.332
21644W        W89862  44.745   1.122  10.678
21645W        W89863   1.118   6.966   0.436
21646W        W89864  32.191   4.324  13.549
21647W        W89865   4.356   8.569  11.282
21648W        W89866   2.787  14.622  12.594
21649W        W89867  36.990  43.080  10.715
21650W        W89868  16.785  41.347  13.592
21651W        W89869  30.379  19.307   3.999
21652W        W89870  39.497  35.480  12.350
21653W        W89871   4.272  42.799   2.658
21654W        W89872   8.865  41.826   4.592
21655W        W89873  34.831  41.273  12.386
21656W        W89874  33.066   8.843  10.741
21657W        W89875   2.344   9.136  12.881
21658W        W89876  35.757  35.050   1.246
21659W        W89877  41.804   7.818   4.340
21660W        W89878  29.426  38.927   4.751
21661W        W89879  36.574  33.830   3.370
21662W        W89880  35.320  43.107   2.339
21663W        W89881  23.095   4.957  11.661
21664W        W89882   2.723  39.499  11.454
21665W        W89883  23.618   4.930  12.493
21666W        W89884  39.198   7.911  14.861
21667W        W89885  17.050  18.700   0.359
21668W        W89886  35.936  20.817   0.897
21669W        W89887  13.710  26.635  13.032
21670W        W89888  41.847  25.203  11.436
21671W        W89889   8.114  13.195  13.260
21672W        W89890  31.174  31.791  11.058
21673W        W89891  19.511   9.563  14.045
21674W        W89892  42.314  44.879  10.698
21675W        W89893  28.425  43.824   3.548
21676W        W89894  26.672  41.356  11.257
21677W        W89895  44.506  23.820   0.482
21678W        W89896  22.775  21.993   0.207
21679W        W89897  22.915   9.732  11.522
21680W        W89898  42.315  14.078  11.574
21681W        W89899  40.095  26.538   2.660
21682W        W89900  36.439  10.640   1.216
21683W        W89901  28.200  24.130   1.327
21684W        W89902  40.697  22.281  11.891
21685W        W89903  32.525  34.394   3.352
21686W        W89904  35.092  10.857  11.116
21687W        W89905  35.125  25.633  14.599
21688W        W89906  26.944  20.988   3.837
21689W        W89907  16.718  37.493   2.833
21690W        W89908  12.326  39.508  12.103
21691W        W89909  10.251  34.826  14.702
21692W        W89910  26.428  33.428   4.621
21693W        W89911  37.230   2.853  14.942
21694W        W89912  18.001  26.462  14.835
21695W        W89913  10.829  29.230   1.477
21696W        W89914  29.164   2.038  14.682
21697W        W89915  32.170  24.106  14.493
21698W        W89916  41.702   3.456  14.346
21699W        W89917   4.219  24.647   2.742
21700W        W89918  10.286  19.841   1.299
21701W        W89919  36.521  37.486  11.689
21702W        W89920  31.646  37.961   3.320
21703W        W89921   2.116  38.085  12.138
21704W        W89922   8.003   0.516   2.363
21705W        W89923  29.230  14.283   4.127
21706W        W89924   7.661  31.158  12.988
21707W        W89925  14.299   4.610   2.725
21708W        W89926  36.558  11.688   1.226
21709W        W89927   8.073  35.892  14.325
21710W        W89928   7.429  20.442   4.263
21711W        W89929   1.875   8.118   3.634
21712W        W89930   3.041  14.586   4.525
21713W        W89931  24.573  16.213  13.081
21714W        W89932  24.168  17.745  12.008
21715W        W89933  37.371  37.105  12.961
21716W        W89934   2.017  44.948   2.941
21717W        W89935   9.232  26.990  11.539
21718W        W89936  10.633  32.540  14.529
21719W        W89937  39.251  42.565   4.871
21720W        W89938  18.366  24.521   0.693
21721W        W89939  25.178  42.907  11.601
21722W        W89940   9.201  23.915   2.210
21723W        W89941   1.900   4.950   3.711
21724W        W89942  15.583  20.512  14.087
21725W        W89943  13.764  16.227  11.400
21726W        W89944   2.209  23.025   4.596
21727W        W89945  36.443  16.864   4.248
21728W        W89946  43.303  20.668   4.537
21729W        W89947   2.161   3.383  12.388
21730W        W89948   8.667  30.165   2.268
21731W        W89949  26.034  17.797  13.881
21732W        W89950  41.725  13.347  12.042
21733W        W89951  13.383  35.069   1.364
21734W        W89952   8.777   3.857   1.373
21735W        W89953  18.573  16.116  12.598
21736W        W89954  23.762  34.984   4.670
21737W        W89955  44.516  41.596   2.762
21738W        W89956  19.901  38.284  10.788
21739W        W89957  21.497  12.391  12.629
21740W        W89958  31.017  30.553   0.441
21741W        W89959   0.890  13.922  12.488
21742W        W89960  29.703  28.033  14.865
21743W        W89961  35.026   8.958  14.007
21744W        W89962  37.109   4.716   1.335
21745W        W89963  19.663  32.591   0.842
21746W        W89964  18.112  29.132  14.389
21747W        W89965  29.126  13.215  12.997
21748W        W89966   0.668  13.533   4.456
21749W        W89967   3.815  34.050   2.215
21750W        W89968   7.468  13.169  14.434
21751W        W89969  31.143  33.904  12.540
21752W        W89970  16.651  43.741   0.765
21753W        W89971   6.557   3.531  11.532
21754W        W89972  18.748  39.127   1.454
21755W        W89973  15.059   2.151  13.213
21756W        W89974   2.991  14.297   4.085
21757W        W89975  38.845  25.382  14.394
21758W        W89976  42.714  11.709   5.102
21759W        W89977   5.446  21.446  13.383
21760W        W89978   1.871  39.034   3.694
21761W        W89979  36.327  11.737  10.848
21762W        W89980  32.515  37.891  11.171
21763W        W89981  41.501  25.602  12.749
21764W        W89982   4.806  26.041  13.936
21765W        W89983  33.377  30.662   2.692
21766W        W89984  20.992  30.385   4.205
21767W        W89985  22.700   6.892  11.198
21768W        W89986  37.046   7.852   3.275
21769W        W89987  19.127  43.430   2.151
21770W        W89988  11.101   9.794   0.528
21771W        W89989  29.985  30.027   4.573
21772W        W89990  24.687  44.751  13.931
21773W        W89991  34.761  36.591   4.550
21774W        W89992   5.891  39.133   0.315
21775W        W89993  11.456  40.947   2.283
21776W        W89994  42.461  31.122   3.950
21777W        W89995   7.166  28.026  12.422
21778W        W89996   5.278  29.921   2.860
21779W        W89997  22.579  41.337  14.320
21780W        W89998  36.912  14.192   1.315
21781W        W89999  29.426  44.421   1.898
21782W        W90000  41.106  25.635  13.106
21783W        W90001  34.456  11.642  10.966
21784W        W90002   9.673  25.628  13.096
21785W        W90003  23.377  28.491  14.566
21786W        W90004  42.368  38.428   2.119
21787W        W90005  12.934  39.355  11.310
21788W        W90006  39.338  18.091   1.318
21789W        W90007  39.396  15.520  11.157
21790W        W90008  22.749   7.812  13.374
21791W        W90009  18.892  41.634   0.956
21792W        W90010   1.062  16.763  13.454
21793W        W90011  19.809  41.350   1.289
21794W        W90012  25.225   5.659  12.119
21795W        W90013   3.461  20.370  11.133
21796W        W90014  39.004   9.261  11.774
21797W        W90015  44.258  44.553  14.544
21798W        W90016  40.510  26.520  13.524
21799W        W90017  17.869   7.399  11.596
21800W        W90018  33.293  37.783   2.631
21801W        W90019  14.565  37.862  13.327
21802W        W90020  40.100  27.649  11.562
21803W        W90021  13.898   3.421   1.469
21804W        W90022  42.297  22.684  13.889
21805W        W90023  41.978  36.876   3.340
21806W        W90024  25.608   6.713  12.619
21807W        W90025  28.466  28.332  11.588
21808W        W90026  18.825  14.805   1.750
21809W        W90027  10.716   8.376  12.349
21810W        W90028   9.141  12.825   3.159
21811W        W90029   8.189  31.279  12.913
21812W        W90030  41.475  43.009  12.023
21813W        W90031   9.717  34.099  12.908
21814W        W90032  24.602  24.400  11.078
21815W        W90033  17.267   7.726   1.521
21816W        W90034  31.657  22.179  11.103
21817W        W90035  44.891  24.161   0.319
21818W        W90036  14.153  36.802   1.211
21819W        W90037  34.121  12.838   1.496
21820W        W90038  28.393  22.040  14.017
21821W        W90039  18.407   6.787   4.379
21822W        W90040  10.722  30.895  14.451
21823W        W90041  27.770   5.689  13.956
21824W        W90042  38.597  15.058  13.051
21825W        W90043   7.509   9.784  11.735
21826W        W90044  31.374   2.223  14.781
21827W        W90045  33.639  26.736  13.001
21828W        W90046   7.958  40.376  10.394
21829W        W90047  24.709  17.832   0.044
21830W        W90048  26.701  36.137   0.395
21831W        W90049  40.038  26.095   0.413
21832W        W90050   5.525   8.130   3.617
21833W        W90051  29.952  13.039  11.628
21834W        W90052  27.210  16.782  10.587
21835W        W90053   7.784   9.166  14.919
21836W        W90054  14.366   4.989   1.819
21837W        W90055  27.090  17.615   3.053
21838W        W90056  12.099  25.173   4.417
21839W        W90057   2.179   5.209   4.146
21840W        W90058  25.180  35.455  11.284
21841W        W90059  20.060  18.050   1.776
21842W        W90060  25.814   1.387  14.163
21843W        W90061  43.552   2.264   3.896
21844W        W90062  20.562  36.212   0.716
21845W        W90063   7.920  15.237   0.117
21846W        W90064  43.542  24.196  14.955
21847W        W90065  37.835  21.165  10.929
21848W        W90066  11.662  30.831   4.039
21849W        W90067  13.671   0.567   0.750
21850W        W90068  15.571  42.773   4.706
21851W        W90069  44.805  44.891  11.889
21852W        W90070  10.903  30.018  12.346
21853W        W90071   1.244  27.206   0.963
21854W        W90072  21.362  21.097  13.030
21855W        W90073  35.212  27.388   3.523
21856W        W90074  27.659  11.247  13.524
21857W        W90075   0.956  26.210   2.801
21858W        W90076   9.375  41.346   0.055
21859W        W90077  21.199  15.594   3.679
21860W        W90078  35.566   8.586   2.359
21861W        W90079  14.643  12.361  14.498
21862W        W90080  38.884  13.379   3.370
21863W        W90081  18.754  38.759   3.589
21864W        W90082  19.311  25.920   1.310
21865W        W90083   5.745  29.536  11.043
21866W        W90084  13.763  37.137  11.519
21867W        W90085  15.829  36.966  11.150
21868W        W90086  32.406  32.217  13.831
21869W        W90087  18.482  27.546   3.146
21870W        W90088  31.869   6.788  13.484
21871W        W90089  15.774  28.243   5.126
21872W        W90090  27.617  43.026   4.341
21873W        W90091  42.606  36.454  13.015
21874W        W90092  39.949  18.489  13.681
21875W        W90093   4.881   1.561   4.927
21876W        W90094  42.904  41.853  13.709
21877W        W90095  42.044  44.863  12.527
21878W        W90096  23.041  28.520   4.841
21879W        W90097  14.851  44.389  12.447
21880W        W90098  28.201  43.344  13.216
21881W        W90099  39.320  14.694   4.091
21882W        W90100  20.938  42.629  14.078
21883W        W90101  40.476  16.989  14.774
21884W        W90102  21.242  42.866   2.787
21885W        W90103   5.715  15.529  13.539
21886W        W90104  38.893  17.879  10.561
21887W        W90105   5.028  10.429  10.999
21888W        W90106   3.850  19.068  11.523
21889W        W90107  18.180  15.158  13.478
21890W        W90108  41.568  23.338  11.665
21891W        W90109  32.647  17.240   0.335
21892W        W90110  32.651  10.814  14.241
21893W        W90111  29.367  34.477   3.681
21894W        W90112  11.383  13.307   1.498
21895W        W90113   4.400   3.897   0.428
21896W        W90114  30.675  44.029   2.130
21897W        W90115  29.702   0.974   2.701
21898W        W90116  19.842  18.838   0.316
21899W        W90117  40.936  10.311   1.327
21900W        W90118   9.391  16.372   3.568
21901W        W90119  22.270  38.045   2.280
21902W        W90120  39.344   0.929  11.307
21903W        W90121  41.535  31.999   1.864
21904W        W90122  41.035   4.151  10.054
21905W        W90123  29.458  44.748  12.845
21906W        W90124  14.053  19.155  12.073
21907W        W90125  17.052  43.451  10.069
21908W        W90126  12.827  39.798   0.110
21909W        W90127   7.342  20.735   2.338
21910W        W90128  30.379  18.557  13.263
21911W        W90129  36.304   1.424  14.831
21912W        W90130  19.609  10.615   3.321
21913W        W90131   7.045  37.851  14.385
21914W        W90132  17.003   6.762   2.811
21915W        W90133  25.007   5.332  14.320
21916W        W90134  39.994  40.093   1.542
21917W        W90135   3.902  42.885   0.445
21918W        W90136  29.407  22.634  14.658
21919W        W90137  14.714  28.731  12.455
21920W        W90138  14.827  38.854  13.579
21921W        W90139  38.027  21.427   2.802
21922W        W90140  15.756   6.489   1.813
21923W        W90141  28.087   5.583   3.285
21924W        W90142  43.812  34.484  10.680
21925W        W90143  21.256  21.579  14.988
21926W        W90144  10.258  43.034   4.568
21927W        W90145  29.917   3.275   5.320
21928W        W90146   2.759  11.949   4.149
21929W        W90147  39.470  20.978   4.810
21930W        W90148  37.534  25.632  11.628
21931W        W90149  24.566  30.553  14.735
21932W        W90150  14.905  33.985   3.744
21933W        W90151  36.369  37.312  14.533
21934W        W90152  23.988  38.415   4.596
21935W        W90153   7.079   9.354   0.983
21936W        W90154  42.881  14.324  10.359
21937W        W90155  42.099  39.822  11.630
21938W        W90156  19.022  37.402  12.362
21939W        W90157  18.729  19.128   4.624
21940W        W90158  36.695  19.345  14.077
21941W        W90159   7.937  25.899   0.823
21942W        W90160  30.469  35.448   2.576
21943W        W90161  42.819  26.596  10.302
21944W        W90162  14.216  24.112  14.715
21945W        W90163  18.359   9.102   3.672
21946W        W90164   3.349  15.342   0.697
21947W        W90165   0.447  37.912   1.314
21948W        W90166   1.767  11.097   4.127
21949W        W90167  15.817  38.965   4.066
21950W        W90168  18.620  39.617  14.770
21951W        W90169  23.098  15.772  10.993
21952W        W90170   6.920  36.728  11.311
21953W        W90171  23.112   3.551   1.848
21954W        W90172   6.952  31.933   2.655
21955W        W90173   4.326  36.566   4.590
21956W        W90174  24.063  12.884  14.867
21957W        W90175  15.297  31.610   1.411
21958W        W90176  26.453  28.497   3.615
21959W        W90177  21.394  23.768   2.791
21960W        W90178  27.431  18.028  14.418
21961W        W90179  41.137  41.327   4.180
21962W        W90180  12.170  35.024   4.900
21963W        W90181   6.670   0.328  10.942
21964W        W90182  10.230   5.316  13.388
21965W        W90183  14.310  32.599  14.285
21966W        W90184  34.610  40.381   3.391
21967W        W90185  19.418  33.519   1.357
21968W        W90186  21.692  36.046   4.517
21969W        W90187   3.442  20.762  12.428
21970W        W90188  30.765   9.315   1.966
21971W        W90189  30.590  16.035   2.366
21972W        W90190  19.878  13.096  10.290
21973W        W90191  39.991  23.479  14.039
21974W        W90192  32.568  42.332  12.570
21975W        W90193   1.506  33.594   2.799
21976W        W90194  14.324  42.650  10.267
21977W        W90195   0.746  11.679  10.725
21978W        W90196  22.586  31.974  14.285
21979W        W90197  34.671  31.466  12.926
21980W        W90198  12.160  23.142  13.539
21981W        W90199  43.781  32.356   4.204
21982W        W90200  20.098  18.615   2.942
21983W        W90201  16.192  41.152  10.722
21984W        W90202  28.487  19.876   1.425
21985W        W90203   4.354  17.673   2.794
21986W        W90204  19.245  16.388   2.278
21987W        W90205  26.029  36.448  13.420
21988W        W90206  17.537  32.985   4.659
21989W        W90207  10.776  29.604   2.931
21990W        W90208  35.544  37.929   3.647
21991W        W90209  36.794  24.470  12.406
21992W        W90210  26.117  12.105   0.013
21993W        W90211  16.324  14.671   1.373
21994W        W90212  34.667  29.889   0.363
21995W        W90213  40.569   9.416  14.022
21996W        W90214  34.204  16.064  13.376
21997W        W90215  27.875   0.644   5.081
21998W        W90216  31.954  39.103  14.396
21999W        W90217  24.773   0.757   2.335
22000W        W90218  33.836  12.794  11.108
22001W        W90219  26.939  39.257  10.680
22002W        W90220  41.692  43.528   3.532
22003W        W90221  32.392   4.670  14.852
22004W        W90222   4.190  43.773  12.852
22005W        W90223  37.046   2.142   1.656
22006W        W90224  28.856   1.015   2.513
22007W        W90225  18.132   7.889   4.193
22008W        W90226  13.603   2.279  13.905
22009W        W90227  35.496   4.986   3.286
22010W        W90228  30.434  29.469  13.896
22011W        W90229  31.450  29.529   4.088
22012W        W90230   6.129  34.432  12.093
22013W        W90231  11.836  32.205  12.311
22014W        W90232  29.929  11.001  11.705
22015W        W90233  16.554  40.918  12.283
22016W        W90234   1.006   8.929   4.672
22017W        W90235  40.528  41.976  13.817
22018W        W90236  34.583  29.095  13.912
22019W        W90237  18.121  12.163  14.438
22020W        W90238  36.338  21.191   3.656
22021W        W90239  11.623  21.069  10.836
22022W        W90240  26.717  28.516  12.836
22023W        W90241  19.219  39.226  12.091
22024W        W90242   7.442  42.008  10.325
22025W        W90243  35.867   9.644   1.747
22026W        W90244  41.154   0.717  13.860
22027W        W90245  15.218  12.002   1.158
22028W        W90246   8.245  16.323  11.667
22029W        W90247   2.834  18.117  12.415
22030W        W90248  14.794  32.945   2.953
22031W        W90249  35.894  12.137   1.831
22032W        W90250   5.445  36.369  12.062
22033W        W90251  23.406   2.541   1.261
22034W        W90252  21.742  35.457   2.482
22035W        W90253  18.195  25.178  12.672
22036W        W90254   6.318   1.020   2.358
22037W        W90255  32.738  11.976   2.330
22038W        W90256  10.690  19.531   1.896
22039W        W90257  14.727  20.997  10.581
22040W        W90258  39.419  27.965  12.010
22041W        W90259  14.717  27.696  11.096
22042W        W90260  16.762  36.665  10.649
22043W        W90261  34.845  43.914   1.394
22044W        W90262   4.108  28.366   3.771
22045W        W90263  26.529  42.613  11.675
22046W        W90264  41.169   8.400  12.561
22047W        W90265   8.694  42.205   2.748
22048W        W90266   9.125   2.725   2.939
22049W        W90267  43.814  31.980  10.500
22050W        W90268  17.139  10.200   3.168
22051W        W90269  41.439   2.507   4.547
22052W        W90270   6.685  43.890  10.077
22053W        W90271  28.184  29.897  10.671
22054W        W90272  17.711  44.343   2.142
22055W        W90273  30.666  43.475  12.219
22056W        W90274  32.183  19.821   0.446
22057W        W90275  39.844  24.718   2.397
22058W        W90276   4.341  29.405   2.574
22059W        W90277   9.694  14.240  11.837
22060W        W90278  41.383  25.467   4.569
22061W        W90279  27.747  11.991   3.863
22062W        W90280  22.215  43.525  12.996
22063W        W90281   9.811  19.818  14.925
22064W        W90282   1.009   4.304  14.988
22065W        W90283  30.428  29.902   2.780
22066W        W90284  38.213  11.852  14.201
22067W        W90285  12.738  34.981  11.933
22068W        W90286   3.318  31.357  14.067
22069W        W90287  29.381  40.418  10.881
22070W        W90288  15.036  43.151  10.204
22071W        W90289  37.678   6.897  11.958
22072W        W90290  33.698  16.429  12.026
22073W        W90291   5.206   5.701  12.615
22074W        W90292   3.348  41.831  14.534
22075W        W90293  40.566  29.489   3.414
22076W        W90294  29.470  10.219  11.963
22077W        W90295   8.958  24.879   1.818
22078W        W90296   0.736  34.395   0.726
22079W        W90297  43.044  30.521   3.691
22080W        W90298   6.967  44.805  12.021
22081W        W90299  20.727  13.665  14.490
22082W        W90300  24.186  38.659  14.409
22083W        W90301  37.424  33.053  13.643
22084W        W90302  16.229  36.899   4.436
22085W        W90303  32.521  40.506  11.619
22086W        W90304   7.897  31.348   2.706
22087W        W90305  33.455  29.753  12.675
22088W        W90306  38.988  43.359   2.166
22089W        W90307  33.775  44.363  13.832
22090W        W90308  41.896  25.405  14.814
22091W        W90309  42.320  10.654  11.286
22092W        W90310   3.935   8.148   2.819
22093W        W90311  11.834  16.156  10.461
22094W        W90312   6.721   6.328  13.989
22095W        W90313  12.045   8.749   3.285
22096W        W90314   9.927  37.390  10.606
22097W        W90315  15.030  33.243  13.009
22098W        W90316  27.368  19.004   0.423
22099W        W90317  18.303  34.659   3.838
22100W        W90318  12.813   1.224  12.026
22101W        W90319  39.156   4.096  14.913
22102W        W90320  41.824  19.056   4.712
22103W        W90321   1.265  18.808  12.954
22104W        W90322  40.996  29.672  10.897
22105W        W90323  43.553  21.266  13.902
22106W        W90324  26.353  40.172   4.248
22107W        W90325  19.053  28.086  11.983
22108W        W90326  43.568   1.514   2.241
22109W        W90327  24.896   8.910  11.519
22110W        W90328   6.401   2.220   4.181
22111W        W90329   9.340  12.602   2.669
22112W        W90330  33.587   5.125   4.141
22113W        W90331  44.322  34.073  12.002
22114W        W90332  30.507  25.454   0.242
22115W        W90333  25.098   3.156   1.366
22116W        W90334  26.279  19.804   0.382
22117W        W90335   5.485   4.749  14.271
22118W        W90336  15.148  10.789   2.165
22119W        W90337  13.261  35.654  14.671
22120W        W90338   8.150   4.870  10.999
22121W        W90339  34.343   1.621  12.419
22122W        W90340  39.016  26.712   9.813
22123W        W90341  13.106  12.655  13.687
22124W        W90342  44.490  39.444   1.924
22125W        W90343  19.611  33.058   0.488
22126W        W90344  42.799   6.009   1.872
22127W        W90345   7.282  23.387   0.425
22128W        W90346  39.568  15.498   2.194
22129W        W90347  34.416  25.570   1.876
22130W        W90348  24.924   7.706   3.304
22131W        W90349  36.234  41.099  11.211
22132W        W90350   2.373  29.678  12.520
22133W        W90351  35.519   2.354  13.003
22134W        W90352  28.564  33.936  14.578
22135W        W90353  13.750  11.634   3.326
22136W        W90354  28.434  40.461   0.503
22137W        W90355  22.746   0.034   1.240
22138W        W90356  39.619  42.750  11.857
22139W        W90357  29.592   2.132   2.489
22140W        W90358  27.812  16.515   3.156
22141W        W90359  26.639  32.286   0.873
22142W        W90360  17.369  32.046   1.993
22143W        W90361  15.233  11.308  11.139
22144W        W90362  20.722  18.007   3.147
22145W        W90363  13.286   7.220  12.930
22146W        W90364   4.162  39.609  10.714
22147W        W90365  32.676   7.284   4.582
22148W        W90366  39.389   4.705  10.672
22149W        W90367   4.585  19.856  10.255
22150W        W90368   7.854  30.605   2.312
22151W        W90369  41.836  43.922  13.555
22152W        W90370   1.730  27.152   2.823
22153W        W90371  15.560  32.928  11.624
22154W        W90372   4.016  12.461   1.217
22155W        W90373  40.553  28.676   2.410
22156W        W90374  10.021  17.757  11.614
22157W        W90375  31.031   9.343  14.203
22158W        W90376  21.207  38.478  10.491
22159W        W90377   2.133  28.012   3.376
22160W        W90378  17.123  37.606   0.898
22161W        W90379  16.349   3.874   1.354
22162W        W90380   3.723  24.331   3.643
22163W        W90381  33.403  20.088   3.736
22164W        W90382  16.327  15.845   2.504
22165W        W90383  23.107  27.630   0.846
22166W        W90384   1.178  32.072  13.939
22167W        W90385   0.496  19.257   3.039
22168W        W90386  32.993  39.356  10.707
22169W        W90387  40.969  10.145   1.837
22170W        W90388  35.502   3.236  10.927
22171W        W90389  32.831  27.032  13.372
22172W        W90390  44.788  25.135   4.067
22173W        W90391  23.642  30.140  12.414
22174W        W90392  16.101   5.434   3.853
22175W        W90393  18.487   4.595  12.875
22176W        W90394   8.872  42.593   3.601
22177W        W90395  35.727  32.480   0.096
22178W        W90396  25.050  19.664  11.587
22179W        W90397  37.651   4.664  11.624
22180W        W90398  17.822  22.201  14.531
22181W        W90399  16.660  33.092   3.180
22182W        W90400   4.638  35.543   4.587
22183W        W90401  12.088  32.554  13.832
22184W        W90402  39.531   4.441  12.080
22185W        W90403  35.033  20.985  11.155
22186W        W90404  40.933  24.996  14.517
22187W        W90405  16.239  39.487  14.972
22188W        W90406   6.335  33.044   4.585
22189W        W90407  31.548  18.106   1.754
22190W        W90408  31.628  18.970  11.241
22191W        W90409  39.994  43.991  12.968
22192W        W90410  25.522  31.670   4.597
22193W        W90411  10.019  16.698   1.781
22194W        W90412   6.420  32.260   1.056
22195W        W90413  30.304  38.981  10.913
22196W        W90414  36.638  32.455  13.524
22197W        W90415  23.584  12.563  12.370
22198W        W90416  14.371  11.782  11.946
22199W        W90417   1.444   2.967   4.446
22200W        W90418  13.606  43.815  11.587
22201W        W90419  16.275   6.423   4.812
22202W        W90420  26.923   0.699   1.062
22203W        W90421   0.472  35.375   0.520
22204W        W90422   1.720  36.008   2.756
22205W        W90423  41.829  42.316  10.785
22206W        W90424  26.368  16.859  12.370
22207W        W90425  24.635  27.685  11.173
22208W        W90426  19.719   9.601  11.492
22209W        W90427  18.053   0.346   9.925
22210W        W90428  22.672  11.776  12.726
22211W        W90429   4.830  44.706   3.866
22212W        W90430  16.158  11.097   4.377
22213W        W90431   2.641  22.802  14.794
22214W        W90432  40.518  12.514  12.976
22215W        W90433  24.475   1.354   3.145
22216W        W90434  19.625  38.194   2.814
22217W        W90435  13.205  34.929  12.989
22218W        W90436  20.845  44.977   4.225
22219W        W90437  34.275  10.906  12.857
22220W        W90438  19.355  17.085  11.997
22221W        W90439  10.153   8.913   3.085
22222W        W90440  31.379   3.354   0.923
22223W        W90441  16.624  28.420  11.114
22224W        W90442  36.918  29.385  12.960
22225W        W90443  25.182  31.235   1.262
22226W        W90444   8.378  14.252  12.503
22227W        W90445  19.210  39.455  12.551
22228W        W90446  30.445  21.978   4.666
22229W        W90447  22.156  23.137  14.854
22230W        W90448  37.850  39.381  14.335
22231W        W90449  38.854  27.619  10.777
22232W        W90450  38.429  20.401   4.920
22233W        W90451  30.631  26.094  12.545
22234W        W90452   1.439  43.135  12.078
22235W        W90453  20.272   7.925   3.102
22236W        W90454  34.867  19.225  13.563
22237W        W90455  16.982   8.762  14.905
22238W        W90456  17.626   8.968  14.075
22239W        W90457  21.572  27.853   4.401
22240W        W90458  24.579   3.321  12.909
22241W        W90459  12.308   2.434   4.674
22242W        W90460  18.625  41.619   2.411
22243W        W90461   7.806  27.608   3.623
22244W        W90462   4.676   2.733   4.699
22245W        W90463  15.343  41.130  10.480
22246W        W90464   2.220  14.164   0.865
22247W        W90465  15.261  27.153   2.475
22248W        W90466  19.444  13.769   0.475
22249W        W90467  38.547  18.819  11.573
22250W        W90468   4.001  33.467   1.293
22251W        W90469  23.960  31.826   0.654
22252W        W90470  21.742   2.949   2.921
22253W        W90471   9.868   0.055  12.867
22254W        W90472   4.471  35.163   3.775
22255W        W90473  12.548  44.308   3.328
22256W        W90474   6.749  14.935  13.018
22257W        W90475  30.347  44.869   0.949
22258W        W90476  10.787  44.242  10.058
22259W        W90477  36.469  41.333   3.421
22260W        W90478  43.820  20.068   0.755
22261W        W90479  36.559   8.371  14.638
22262W        W90480  28.027  18.077  11.103
22263W        W90481   9.960   9.075   4.601
22264W        W90482   5.391  19.359   0.444
22265W        W90483  36.862  32.348  14.489
22266W        W90484  12.099   0.174  14.819
22267W        W90485  39.114  17.793   1.747
22268W        W90486  35.384  42.573  14.758
22269W        W90487  29.238  12.211   2.767
22270W        W90488  23.218  22.719  13.081
22271W        W90489  21.702   4.114  14.970
22272W        W90490  30.176  14.859   2.541
22273W        W90491  42.216   7.835   3.314
22274W        W90492  14.444  27.702   0.070
22275W        W90493  23.554  33.416  14.854
22276W        W90494  23.239  17.567   1.343
22277W        W90495  13.290  21.307  14.708
22278W        W90496  33.893  17.799  11.052
22279W        W90497  44.006   5.316   2.966
22280W        W90498  21.005  14.823   0.391
22281W        W90499  28.330  37.980   2.846
22282W        W90500  16.789  12.757  11.608
22283W        W90501  44.461   8.355  12.384
22284W        W90502   0.519  27.078  11.639
22285W        W90503  43.937  39.882  11.603
22286W        W90504  17.168  12.248  14.864
22287W        W90505  39.419  20.637   1.485
22288W        W90506  22.553  11.810   0.264
22289W        W90507  43.821  23.034  12.343
22290W        W90508  44.783  28.657  14.917
22291W        W90509  21.984   3.952  14.528
22292W        W90510  10.225  35.665   2.642
22293W        W90511  28.641  23.768   4.589
22294W        W90512  24.230   1.814   4.476
22295W        W90513  14.514  39.858   2.384
22296W        W90514  39.088  30.155  13.379
22297W        W90515  19.949  18.265  13.483
22298W        W90516  34.871   4.950  10.182
22299W        W90517  39.310  33.669  14.402
22300W        W90518  27.384  35.980   2.779
22301W        W90519  39.480  34.559  12.838
22302W        W90520  41.062  43.940   0.901
22303W        W90521  32.413   4.629   3.137
22304W        W90522  13.227  28.110   2.743
22305W        W90523  24.760  13.145   0.321
22306W        W90524  11.256   0.676   4.861
22307W        W90525  33.896   8.145   2.765
22308W        W90526  36.658  21.708   1.931
22309W        W90527  27.091  15.585   0.833
22310W        W90528  36.901  11.217   2.148
22311W        W90529  30.901  26.077  13.833
22312W        W90530  18.331  39.752   4.544
22313W        W90531  18.514  13.275  13.957
22314W        W90532   4.253   9.650   1.633
22315W        W90533  36.945  11.897   4.667
22316W        W90534  18.826   0.628   2.672
22317W        W90535  28.159   7.758  13.107
22318W        W90536   7.718  14.103  14.121
22319W        W90537   8.586  13.270   1.002
22320W        W90538  38.595  27.708   0.492
22321W        W90539   4.260  36.061   1.790
22322W        W90540   6.916  38.323  14.224
22323W        W90541  14.310  13.097  12.854
22324W        W90542  15.715  20.037   5.039
22325W        W90543   1.260  33.914  14.241
22326W        W90544  25.866  44.957   3.734
22327W        W90545  11.764   5.611   3.736
22328W        W90546   9.111  16.388   0.365
22329W        W90547  32.607  40.905  10.576
22330W        W90548  14.359   2.811   4.259
22331W        W90549  16.709  22.764  14.330
22332W        W90550  32.591   3.815  12.073
22333W        W90551   3.791  36.524  11.143
22334W        W90552   4.790  13.332   4.778
22335W        W90553  15.042  36.137  13.874
22336W        W90554  38.332  15.610  12.970
22337W        W90555  23.298   8.490   0.437
22338W        W90556   3.848  14.476  11.696
22339W        W90557   4.881  34.794   2.894
22340W        W90558  19.735  25.614   3.113
22341W        W90559   1.917  41.226   4.683
22342W        W90560  19.304  42.098   3.946
22343W        W90561  29.402  21.683  13.340
22344W        W90562  10.333  10.260   4.701
22345W        W90563  34.455  38.999  11.734
22346W        W90564   3.338  13.858  10.681
22347W        W90565  21.693  12.914  14.469
22348W        W90566  28.634   5.743   2.897
22349W        W90567   8.803  32.157   4.804
22350W        W90568  40.460  40.600  11.662
22351W        W90569  15.871   9.133  14.342
22352W        W90570  21.912   3.720  11.605
22353W        W90571  30.160  29.967   2.216
22354W        W90572  23.720  37.683   3.415
22355W        W90573  28.507  16.695   4.531
22356W        W90574  32.685  21.010   4.223
22357W        W90575  35.940  23.590   2.745
22358W        W90576   9.236  24.177   1.210
22359W        W90577  36.831  26.237  10.619
22360W        W90578   7.965  27.706  12.064
22361W        W90579  42.904  25.115  12.089
22362W        W90580   5.457  29.602  12.325
22363W        W90581  41.534  35.281   3.154
22364W        W90582  24.911  35.134  13.389
22365W        W90583   4.427  36.968   1.722
22366W        W90584  13.902  35.019   0.441
22367W        W90585  26.472  33.866   1.722
22368W        W90586   0.136  10.382  11.770
22369W        W90587  13.413  21.132  10.238
22370W        W90588  11.835  25.453  11.128
22371W        W90589  44.805  13.123   3.334
22372W        W90590  30.483   6.590  10.703
22373W        W90591  24.305  38.120   4.177
22374W        W90592  28.376  23.759  13.371
22375W        W90593  36.494   2.430  12.152
22376W        W90594  20.468   3.042   3.138
22377W        W90595  41.212  26.828   3.271
22378W        W90596  42.315  29.131  14.967
22379W        W90597  39.104  27.222  10.569
22380W        W90598  41.871  33.678  12.187
22381W        W90599  41.911  10.712  11.610
22382W        W90600  28.669  39.510   0.669
22383W        W90601   0.369  29.422  13.983
22384W        W90602  32.123  41.369   3.078
22385W        W90603  21.221  40.885   3.663
22386W        W90604  17.557  23.300   1.816
22387W        W90605   9.137  22.225   4.702
22388W        W90606  40.323   8.827   4.562
22389W        W90607  44.976   6.415  12.925
22390W        W90608   3.165  13.661  14.287
22391W        W90609  32.952  38.327   4.585
22392W        W90610  40.286  10.901  11.966
22393W        W90611   6.918  24.109  14.441
22394W        W90612  37.510   6.938   1.401
22395W        W90613  12.768  30.097   2.004
22396W        W90614  39.057  37.839  13.420
22397W        W90615  21.098  17.761   4.267
22398W        W90616  34.659  21.242   2.819
22399W        W90617  12.701   7.087  10.533
22400W        W90618  12.871  26.727  11.885
22401W        W90619  33.352  20.981   0.725
22402W        W90620  37.401  12.589   0.787
22403W        W90621  44.984  28.755  13.897
22404W        W90622  44.334  26.264  13.643
22405W        W90623  33.071  34.485   4.770
22406W        W90624  19.787  12.193   4.916
22407W        W90625  36.425   1.522   4.739
22408W        W90626  36.869  28.026   4.538
22409W        W90627  16.830  31.878  14.820
22410W        W90628  24.981  22.419  10.146
22411W        W90629  21.837  18.787   0.663
22412W        W90630  43.941  21.833  12.826
22413W        W90631  27.720  28.984   4.055
22414W        W90632   7.758   2.100  11.004
22415W        W90633  14.104   9.319  12.116
22416W        W90634  35.345   8.047   3.616
22417W        W90635   2.837  24.932   4.193
22418W        W90636  29.123  25.890   0.434
22419W        W90637  35.771   9.171   2.913
22420W        W90638  23.752   7.261  13.053
22421W        W90639  40.790  22.055  13.370
22422W        W90640  11.684   3.767   3.882
22423W        W90641   2.871  31.265   2.388
22424W        W90642  38.988  25.195  11.950
22425W        W90643  24.640  12.169  13.365
22426W        W90644   8.181  18.182  11.492
22427W        W90645   7.953  12.715  11.030
22428W        W90646  33.009  22.766   4.719
22429W        W90647  28.309  27.585  13.436
22430W        W90648  13.546  39.001   3.421
22431W        W90649  15.168  43.829   2.263
22432W        W90650  44.610  39.529   4.580
22433W        W90651  11.717   7.684  11.023
22434W        W90652  10.348   7.248   2.240
22435W        W90653  42.423  20.723   1.645
22436W        W90654   8.503  22.216   2.378
22437W        W90655  24.502  37.876   1.935
22438W        W90656  13.728   9.114  11.157
22439W        W90657  29.467  41.560  12.599
22440W        W90658  30.088  17.477   2.608
22441W        W90659  34.546  34.443   1.595
22442W        W90660   3.022  24.938  13.855
22443W        W90661  27.592  34.321  11.124
22444W        W90662   9.666  18.103   0.924
22445W        W90663  39.768  40.313  11.125
22446W        W90664   4.412  18.221  10.513
22447W        W90665  41.857   6.427   2.718
22448W        W90666  36.887  14.888   2.747
22449W        W90667  23.186  23.679  11.428
22450W        W90668  38.096  31.109  14.042
22451W        W90669  17.506  39.637  12.399
22452W        W90670  42.763   2.834   4.784
22453W        W90671  14.130  39.330   3.652
22454W        W90672  24.818  44.654  10.897
22455W        W90673  11.904  11.778  14.443
22456W        W90674  11.528   3.365   4.178
22457W        W90675  39.515  43.276  12.009
22458W        W90676  29.190  11.393   1.790
22459W        W90677  28.494  22.986   2.217
22460W        W90678   9.829  37.300   0.402
22461W        W90679  43.044  31.792   3.267
22462W        W90680   8.928  35.538  10.683
22463W        W90681  17.806  40.373  13.901
22464W        W90682   9.719  18.623   1.748
22465W        W90683   7.354  10.204   0.906
22466W        W90684   8.755   5.752  13.526
22467W        W90685  44.808  17.733   0.943
22468W        W90686  20.025  36.948   1.704
22469W        W90687   5.236  32.845  12.496
22470W        W90688  13.783  15.564   0.437
22471W        W90689   1.149  17.930  12.049
22472W        W90690  30.497   1.519   3.765
22473W        W90691   2.985  27.556   3.885
22474W        W90692  10.169  27.983   0.667
22475W        W90693   7.870  10.131  10.708
22476W        W90694  44.768  36.814  13.306
22477W        W90695  32.436  13.914   3.222
22478W        W90696  26.297   6.771   0.686
22479W        W90697  10.221  40.250   0.684
22480W        W90698  11.731  43.311   0.037
22481W        W90699  13.535  38.464   4.147
22482W        W90700  22.080  11.407   1.236
22483W        W90701  35.187  28.936  13.352
22484W        W90702   5.481  41.077  12.616
22485W        W90703   4.401  30.563  12.906
22486W        W90704   4.513  26.748   2.702
22487W        W90705   8.181  17.721   2.256
22488W        W90706  25.738  35.898  11.934
22489W        W90707  43.576  36.712   0.318
22490W        W90708  14.233  29.473   0.374
22491W        W90709  19.065  34.624   2.352
22492W        W90710  21.571  32.327  13.830
22493W        W90711  44.815  20.605  13.264
22494W        W90712  19.536  37.448  11.004
22495W        W90713   5.492   0.840  12.099
22496W        W90714  40.448  15.702  14.288
22497W        W90715  30.507   8.914  12.051
22498W        W90716  26.955   7.722   0.436
22499W        W90717  37.404  16.535   3.159
22500W        W90718  28.662  30.017  13.026
22501W        W90719  17.220  20.690   2.810
22502W        W90720  31.529  38.033  14.034
22503W        W90721  36.627  13.713   4.364
22504W        W90722   8.194   2.928   0.448
22505W        W90723  12.807  11.869  12.866
22506W        W90724  41.594  32.465  12.982
22507W        W90725  23.655  24.997   2.224
22508W        W90726  25.419   1.261   4.025
22509W        W90727  43.244  30.122   4.883
22510W        W90728  29.232  14.137   3.375
22511W        W90729  16.622  13.328   2.364
22512W        W90730   4.932  14.689  11.902
22513W        W90731  25.470  11.815  14.350
22514W        W90732   8.651  29.734   5.117
22515W        W90733  11.131  43.772  12.843
22516W        W90734  20.537  18.916   2.225
22517W        W90735  21.688  30.671  11.654
22518W        W90736   3.746  39.950  14.848
22519W        W90737  25.996   9.309   3.785
22520W        W90738  28.276  22.052   3.249
22521W        W90739  18.802  35.401   3.373
22522W        W90740  33.773  38.881  10.649
22523W        W90741   0.222  19.036   1.297
22524W        W90742  26.540  25.208  12.041
22525W        W90743  40.846  39.815   0.447
22526W        W90744   4.948  33.223  14.823
22527W        W90745   5.477  29.962  11.209
22528W        W90746  33.101  24.768  14.211
22529W        W90747   9.441  27.880  11.435
22530W        W90748  24.457  29.507  13.344
22531W        W90749  15.643   1.428  14.880
22532W        W90750   1.557  42.835  14.050
22533W        W90751  23.193  15.610   2.157
22534W        W90752   4.667  23.469  12.125
22535W        W90753  39.310  31.790   0.388
22536W        W90754  38.100  41.906  12.989
22537W        W90755  31.862  38.380  12.568
22538W        W90756  14.836  38.341  13.395
22539W        W90757  31.960   2.702  10.555
22540W        W90758  13.478   7.719  14.157
22541W        W90759   8.325  29.494   4.580
22542W        W90760   5.814  20.485  10.690
22543W        W90761  21.682  16.754  11.740
22544W        W90762  39.751  11.896  13.486
22545W        W90763  38.017  34.144  14.614
22546W        W90764  18.204   5.662  13.800
22547W        W90765  37.259   9.359  14.494
22548W        W90766  11.099  34.491  12.636
22549W        W90767   3.445  43.292   4.437
22550W        W90768  38.951  34.078   1.970
22551W        W90769  20.732  38.556   3.284
22552W        W90770  20.322  15.809  10.654
22553W        W90771   7.239  35.798  13.958
22554W        W90772  23.775  29.365  14.463
22555W        W90773  26.093  17.749   3.429
22556W        W90774  38.052  34.327  12.998
22557W        W90775  28.970  16.380  14.396
22558W        W90776  18.569  13.875   3.680
22559W        W90777  30.929  18.940  12.340
22560W        W90778   5.308   5.941  11.097
22561W        W90779   6.174   3.183   2.848
22562W        W90780  21.973   1.895   1.257
22563W        W90781   3.348  38.425   3.404
22564W        W90782   0.436  37.058   0.461
22565W        W90783   2.662  10.138   2.740
22566W        W90784  24.672  24.818  10.783
22567W        W90785  22.191  33.659  13.575
22568W        W90786  33.517   9.775   0.965
22569W        W90787  38.216   5.914   2.569
22570W        W90788   3.274  36.680   4.402
22571W        W90789  15.578  19.018   2.777
22572W        W90790  16.221   6.242   1.907
22573W        W90791  15.809  26.991   3.168
22574W        W90792  29.409  31.894  11.980
22575W        W90793  27.743  20.730   3.910
22576W        W90794  28.022  33.109   1.663
22577W        W90795  41.101  12.227   2.752
22578W        W90796  41.567  38.017   1.701
22579W        W90797  33.960   6.192   3.106
22580W        W90798  40.351  18.227   2.688
22581W        W90799  21.291   2.741  11.933
22582W        W90800  20.544  12.137   4.021
22583W        W90801  30.126  25.963   4.160
22584W        W90802   6.171  10.429  13.794
22585W        W90803  28.071   9.126  13.167
22586W        W90804  14.532  21.057   0.784
22587W        W90805  19.136  14.996  15.000
22588W        W90806  15.781  34.110  14.801
22589W        W90807  33.347  27.036  13.397
22590W        W90808  25.767  42.961   4.541
22591W        W90809  20.600  10.800   3.343
22592W        W90810  30.043  15.706   1.877
22593W        W90811  11.364  21.575  14.878
22594W        W90812  23.923  32.481  11.752
22595W        W90813   3.523  12.549  13.157
22596W        W90814  30.897  35.655  12.074
22597W        W90815  12.980  11.112   4.229
22598W        W90816  37.305   2.065   0.498
22599W        W90817   8.344   3.310   4.596
22600W        W90818  14.525   7.930   1.526
22601W        W90819   3.961  17.001  12.375
22602W        W90820  28.487  21.108  11.103
22603W        W90821   0.718  25.386  13.509
22604W        W90822  14.228  31.837   0.509
22605W        W90823  20.759  28.984   4.711
22606W        W90824  13.694   1.957  11.192
22607W        W90825  43.810  29.189   0.838
22608W        W90826  34.155  36.640   0.771
22609W        W90827   8.592   6.680   1.559
22610W        W90828  43.006  16.361   0.786
22611W        W90829   8.206  39.527  10.747
22612W        W90830  10.100   5.390   1.782
22613W        W90831   5.173   6.294  10.218
22614W        W90832   3.552   3.364   0.876
22615W        W90833  25.766  37.390  10.248
22616W        W90834  29.155   1.937   2.809
22617W        W90835  44.394  10.171  11.505
22618W        W90836  14.835  26.643   0.340
22619W        W90837  42.630   1.935  13.767
22620W        W90838  36.534   9.687  12.911
22621W        W90839  21.948  19.335  11.543
22622W        W90840   6.955  10.238  14.944
22623W        W90841  36.939  36.866   0.862
22624W        W90842  39.591   4.465   3.237
22625W        W90843  11.801  30.852  14.755
22626W        W90844  37.336  22.841   3.840
22627W        W90845  38.148  17.668   1.441
22628W        W90846   8.807  32.707  11.226
22629W        W90847  34.587  20.767  12.856
22630W        W90848   0.263   0.245   3.030
22631W        W90849  41.312  42.106   3.669
22632W        W90850  43.963   8.559   0.463
22633W        W90851  42.195  36.785  12.518
22634W        W90852  15.896  17.637  11.562
22635W        W90853  26.246  35.515  12.815
22636W        W90854  15.735  12.408  11.995
22637W        W90855  25.143   8.406   2.719
22638W        W90856  43.815  37.891  14.482
22639W        W90857  29.583  19.862   0.694
22640W        W90858  40.849  32.369  13.311
22641W        W90859  42.060  27.524  10.609
22642W        W90860  23.785  44.070   1.404
22643W        W90861  21.757  22.915  12.930
22644W        W90862  37.509   8.437   1.446
22645W        W90863  33.818  16.764  14.279
22646W        W90864  31.976   8.198   2.258
22647W        W90865  43.850  14.903   0.977
22648W        W90866  32.542  34.162   2.623
22649W        W90867  12.852  39.163   3.624
22650W        W90868  25.987  15.976   4.610
22651W        W90869  14.927  43.483   5.071
22652W        W90870   2.722  41.910  11.641
22653W        W90871  18.167   2.066  14.861
22654W        W90872   3.442  36.401  12.983
22655W        W90873  22.996  21.941  12.602
22656W        W90874  33.563  31.842   5.011
22657W        W90875  12.739  36.540  14.722
22658W        W90876   7.698  43.830  11.364
22659W        W90877  35.345   4.101  12.903
22660W        W90878  31.544  14.085  13.390
22661W        W90879  15.019  26.469  14.356
22662W        W90880  17.331  15.026  11.065
22663W        W90881  43.390  25.497  10.676
22664W        W90882  16.126   2.227   1.864
22665W        W90883  16.264  12.116   0.328
22666W        W90884  38.667  35.772   2.192
22667W        W90885  42.393  39.906   3.466
22668W        W90886  33.650   1.722   4.995
22669W        W90887  19.034  39.939   3.194
22670W        W90888  24.286  10.313  10.682
22671W        W90889  42.481  32.625   2.185
22672W        W90890  38.854   8.947  14.985
22673W        W90891  24.477   8.099  14.949
22674W        W90892  12.204  19.992  13.990
22675W        W90893  40.382  25.954   4.063
22676W        W90894  31.984   6.942   5.285
22677W        W90895   4.393   7.867  10.732
22678W        W90896  20.575   5.235  14.002
22679W        W90897  40.285  36.888   0.478
22680W        W90898   9.785  39.261  13.146
22681W        W90899   9.733  26.782  12.121
22682W        W90900  42.575  15.344   3.697
22683W        W90901  34.917  25.639  14.111
22684W        W90902  26.210  26.107  10.459
22685W        W90903  41.433  38.754  13.438
22686W        W90904  26.935  36.031   3.736
22687W        W90905  29.085  21.755   2.067
22688W        W90906  18.716   6.011   0.255
22689W        W90907  14.928  12.771   3.574
22690W        W90908  43.903   7.768  11.779
22691W        W90909  42.470  36.636  14.523
22692W        W90910   7.899  20.492   3.393
22693W        W90911  20.160  43.796  13.062
22694W        W90912  42.307  33.075   0.921
22695W        W90913  32.897  31.179  14.607
22696W        W90914  12.482   3.924   2.881
22697W        W90915  44.169  19.317  10.556
22698W        W90916  11.835  28.063  11.974
22699W        W90917   6.774  12.892  14.834
22700W        W90918  32.657  21.231   0.920
22701W        W90919  42.028  35.344   3.257
22702W        W90920  14.140   1.837  11.528
22703W        W90921  25.472  25.754   3.576
22704W        W90922  14.900  26.039  14.002
22705W        W90923   1.054  18.647  13.390
22706W        W90924  17.576  28.906   4.617
22707W        W90925  24.598  16.997  11.834
22708W        W90926  35.666  33.594  10.952
22709W        W90927  18.976  43.520  10.675
22710W        W90928  41.256  20.935   1.297
22711W        W90929  21.581  14.938  11.111
22712W        W90930  37.619  32.390  13.797
22713W        W90931  36.597  21.657  12.225
22714W        W90932   0.997  38.652  12.862
22715W        W90933  24.082   7.752   4.039
22716W        W90934   6.408  40.709   5.404
22717W        W90935  16.491  42.980  12.540
22718W        W90936  10.902  37.493   1.006
22719W        W90937  21.634  32.002   3.291
22720W        W90938   0.329  16.723  12.282
22721W        W90939  16.612  25.192  10.665
22722W        W90940  15.713  12.555  12.937
22723W        W90941  24.595  25.995   4.299
22724W        W90942  21.738   1.365  11.751
22725W        W90943  40.019   1.536  12.910
22726W        W90944  10.719  21.463   4.804
22727W        W90945  36.893  21.717   4.556
22728W        W90946  42.242  21.212   1.372
22729W        W90947  18.849  44.722  13.778
22730W        W90948   0.857  23.088   1.305
22731W        W90949  25.165  10.627  11.493
22732W        W90950  37.453  29.983   0.960
22733W        W90951  36.411  39.550   2.841
22734W        W90952  14.183  28.991   2.763
22735W        W90953  26.197  30.044   1.252
22736W        W90954  19.560   3.691  12.415
22737W        W90955  42.333   9.123   3.307
22738W        W90956  35.479   5.835  10.927
22739W        W90957  33.563  21.073   4.545
22740W        W90958  28.502   6.935   2.394
22741W        W90959  30.680  38.360  11.678
22742W        W90960  35.462   4.326  13.427
22743W        W90961  17.799   1.699   4.114
22744W        W90962  18.014   9.920   1.892
22745W        W90963   1.536  42.259   1.324
22746W        W90964  31.651  35.473  12.417
22747W        W90965  19.630  29.466  12.874
22748W        W90966  27.069  14.543   4.724
22749W        W90967  38.289  12.670   2.738
22750W        W90968  28.492  24.550  12.970
22751W        W90969  18.166  16.200  14.824
22752W        W90970   7.182  16.412   3.382
22753W        W90971  12.286  32.370   3.632
22754W        W90972  37.603   9.137  12.312
22755W        W90973  26.592  33.815  13.971
22756W        W90974   1.441   2.863   3.213
22757W        W90975   5.157  42.549   0.920
22758W        W90976   2.917  38.124   0.914
22759W        W90977  23.412  39.980   2.975
22760W        W90978   4.182  22.546   3.581
22761W        W90979  11.265   0.166  10.925
22762W        W90980  33.829  21.724   2.817
22763W        W90981  20.002  32.734   1.976
22764W        W90982  21.155  11.845  13.081
22765W        W90983   1.201   7.898   3.278
22766W        W90984  41.750  37.176  11.988
22767W        W90985  34.875  17.585  10.653
22768W        W90986   3.739  12.377  14.410
22769W        W90987  29.189  22.188   0.813
22770W        W90988  40.265  15.719   4.018
22771W        W90989  36.521  40.878  13.638
22772W        W90990   1.850   4.663  12.301
22773W        W90991   7.720  38.002   4.954
22774W        W90992  32.906  26.041  13.153
22775W        W90993  43.703  38.036   1.840
22776W        W90994  34.914  15.598   3.323
22777W        W90995   3.743  27.814  12.996
22778W        W90996  38.308  26.989   1.351
22779W        W90997  28.705  21.868  10.179
22780W        W90998  28.602   9.663  11.136
22781W        W90999  19.781  12.227  11.164
22782W        W91000  29.105   8.003  14.907
22783W        W91001  42.001  43.084   4.295
22784W        W91002  37.615  33.850  14.802
22785W        W91003  43.314  21.542  10.606
22786W        W91004   3.716  21.454   2.123
22787W        W91005  13.411  37.581   0.965
22788W        W91006  14.629  36.830  14.353
22789W        W91007  39.769  19.554   2.897
22790W        W91008   5.814  15.924  11.637
22791W        W91009  22.987  29.020  12.166
22792W        W91010  26.958   6.424  11.076
22793W        W91011  44.350  31.093   0.984
22794W        W91012  26.281  37.907   0.328
22795W        W91013   0.444   2.223  11.554
22796W        W91014  23.617  23.170   5.011
22797W        W91015  11.117  21.501   0.785
22798W        W91016  42.048  33.483  10.835
22799W        W91017  32.626   5.491  12.580
22800W        W91018  30.863  23.232   4.455
22801W        W91019  21.805  15.071   1.471
22802W        W91020  12.279  37.529  10.701
22803W        W91021  40.155  25.239   0.403
22804W        W91022   4.665  33.003  12.419
22805W        W91023   8.344   3.945   3.207
22806W        W91024  15.361  15.194   0.886
22807W        W91025  15.166  31.824  13.442
22808W        W91026   6.382  22.282  12.849
22809W        W91027  44.723  19.990  11.132
22810W        W91028   3.705  34.069  13.948
22811W        W91029  14.551   0.096  12.909
22812W        W91030   7.411  17.659  12.765
22813W        W91031  15.665  43.983  11.414
22814W        W91032   6.155  29.794  13.043
22815W        W91033  16.285  12.633   0.436
22816W        W91034  36.695  34.415  11.365
22817W        W91035  26.669  16.527   3.717
22818W        W91036   3.415  24.958  14.770
22819W        W91037  40.914   4.427  11.486
22820W        W91038  13.081  15.175   2.105
22821W        W91039  32.071  32.434  14.182
22822W        W91040  20.352  36.386   2.462
22823W        W91041  35.059   3.432   5.150
22824W        W91042   5.017  41.766   1.331
22825W        W91043  42.801  31.423   0.856
22826W        W91044  31.994  40.391   0.075
22827W        W91045  28.012  30.179   4.211
22828W        W91046  27.951  37.264   1.843
22829W        W91047  13.266  19.776   1.432
22830W        W91048   6.693   0.747  11.552
22831W        W91049  20.216  16.774  14.366
22832W        W91050  11.587  15.487  13.986
22833W        W91051   0.845  37.836   4.867
22834W        W91052  20.666  39.860   4.772
22835W        W91053  24.562  44.136   2.838
22836W        W91054  37.446  44.317   3.312
22837W        W91055  33.045  10.718   3.483
22838W        W91056  32.390  31.513  11.897
22839W        W91057  26.377  38.015  11.059
22840W        W91058  16.244  38.551  13.773
22841W        W91059   9.302  10.284  10.739
22842W        W91060  30.635   5.820  14.828
22843W        W91061  32.281  13.675  12.280
22844W        W91062  26.928  28.380  10.726
22845W        W91063   7.456   0.904  12.008
22846W        W91064  14.737  23.107   3.743
22847W        W91065   5.037  33.034   1.921
22848W        W91066  27.561   0.918   3.766
22849W        W91067  15.618  15.116   0.430
22850W        W91068  32.400  11.602   4.021
22851W        W91069   6.581  37.607   5.083
22852W        W91070  36.626  14.655  11.866
22853W        W91071  21.012  17.376   0.048
22854W        W91072  30.112  35.979  14.353
22855W        W91073  35.541  36.499  12.122
22856W        W91074  37.136  27.491   1.920
22857W        W91075  15.248  11.160  12.148
22858W        W91076  15.338  22.151   2.319
22859W        W91077  33.128  12.634  13.388
22860W        W91078   8.843  14.684  13.813
22861W        W91079   3.736  23.711   0.168
22862W        W91080  13.595  44.984   3.244
22863W        W91081  11.608   7.475  14.466
22864W        W91082   2.730   3.350  10.655
22865W        W91083  33.403   0.936   4.302
22866W        W91084  19.131  20.008  14.519
22867W        W91085  28.935  33.024  14.083
22868W        W91086  15.100  22.861   2.997
22869W        W91087  13.823  20.584   3.669
22870W        W91088   8.964  27.848  10.680
22871W        W91089  11.055  16.645  12.137
22872W        W91090  11.871  14.221  12.481
22873W        W91091   9.396  40.014   0.379
22874W        W91092  31.086  35.380   2.727
22875W        W91093  12.612  18.538   3.161
22876W        W91094  16.758  19.196  12.512
22877W        W91095  42.389   0.950  12.870
22878W        W91096  35.087   4.345   4.616
22879W        W91097  41.424  37.383   2.893
22880W        W91098  19.788   7.969   0.805
22881W        W91099  27.461  18.043  12.570
22882W        W91100  35.506  21.046  10.231
22883W        W91101  40.431   3.817   3.886
22884W        W91102  24.693  23.580  11.550
22885W        W91103  43.359  36.313   1.378
22886W        W91104  42.403  29.496   0.700
22887W        W91105   9.836  27.990  10.978
22888W        W91106  24.032  30.476   2.719
22889W        W91107  42.729  43.188  13.794
22890W        W91108  16.384  16.838   2.815
22891W        W91109  42.731   6.468  13.028
22892W        W91110  17.125  29.077  11.402
22893W        W91111   8.932   4.453  13.859
22894W        W91112   4.645  23.472   1.418
22895W        W91113   4.736  21.088   4.080
22896W        W91114   3.038  44.870  13.539
22897W        W91115  31.636  31.193  13.996
22898W        W91116  23.293  14.580   4.162
22899W        W91117  12.840  16.171  14.523
22900W        W91118  22.597  11.162  11.575
22901W        W91119   3.415  26.672   1.325
22902W        W91120   9.194  19.731  13.919
22903W        W91121  29.868  14.282  11.186
22904W        W91122   7.320  11.623   2.487
22905W        W91123  29.820  30.937  12.505
22906W        W91124  21.128  43.565   4.156
22907W        W91125  32.616  26.422   3.657
22908W        W91126  18.666  11.383  14.265
22909W        W91127  26.656  19.622  14.999
22910W        W91128  32.481  19.991   2.633
22911W        W91129  30.223  22.622  11.573
22912W        W91130   0.419  29.346   4.420
22913W        W91131  43.474   4.248   4.173
22914W        W91132  15.753  11.101  12.987
22915W        W91133   0.890  13.465  13.763
22916W        W91134  26.940  36.818   0.799
22917W        W91135  22.742   3.871   3.866
22918W        W91136   5.414   5.721  13.886
22919W        W91137  34.425  11.853  12.437
22920W        W91138  31.306   9.118   5.116
22921W        W91139  17.848  10.840  11.487
22922W        W91140  39.629  25.193  14.516
22923W        W91141  35.453  18.605   1.318
22924W        W91142   7.446  44.939  11.978
22925W        W91143  31.544  21.933   3.153
22926W        W91144  41.139  21.098   2.459
22927W        W91145  23.448  12.305  12.824
22928W        W91146  26.527  36.889  14.957
22929W        W91147  38.534  36.317   3.127
22930W        W91148   2.680  28.526  11.632
22931W        W91149  43.345  34.089   1.945
22932W        W91150   3.988  34.765   0.001
22933W        W91151  19.191  37.484   1.900
22934W        W91152  26.516  43.332   4.544
22935W        W91153  20.441  40.401   4.497
22936W        W91154  40.031  44.361   4.785
22937W        W91155  25.132  15.904   4.778
22938W        W91156   8.274   4.681  14.373
22939W        W91157  11.772  27.414  10.650
22940W        W91158  42.909  25.687  12.860
22941W        W91159  12.560  17.110  13.510
22942W        W91160  34.607  32.935  12.978
22943W        W91161  20.294  35.937   1.696
22944W        W91162  16.704  42.753  11.666
22945W        W91163   4.382  30.651   4.818
22946W        W91164  44.111  24.610  10.296
22947W        W91165  31.959  27.138  12.052
22948W        W91166  39.473  13.753   4.483
22949W        W91167  40.804  15.571  13.853
22950W        W91168  32.389  20.089   1.445
22951W        W91169   2.375  31.173  12.690
22952W        W91170  30.356  43.897  12.984
22953W        W91171  40.021  40.751   4.366
22954W        W91172  42.870  14.895  12.910
22955W        W91173   7.233  38.289   4.882
22956W        W91174  26.242  30.133  11.205
22957W        W91175  13.673  31.394  12.397
22958W        W91176  13.741  12.588  12.202
22959W        W91177  39.517  33.876   0.314
22960W        W91178  22.550  44.895   4.553
22961W        W91179  37.534   6.638  11.553
22962W        W91180   2.314  26.775   9.823
22963W        W91181  41.956  26.074   2.155
22964W        W91182  25.454  22.614   1.466
22965W        W91183  40.060  29.506  13.823
22966W        W91184  19.518  36.426   1.240
22967W        W91185  22.703  33.449  14.916
22968W        W91186   4.533  36.443  13.887
22969W        W91187  24.873  16.223  11.550
22970W        W91188  44.205  24.680  11.089
22971W        W91189  38.581  14.822   0.883
22972W        W91190   4.872  23.599  10.725
22973W        W91191  24.481   9.844   3.236
22974W        W91192  18.270  22.574  12.491
22975W        W91193  41.488  37.356  14.526
22976W        W91194  38.922  41.858  11.558
22977W        W91195  15.230  23.140  14.479
22978W        W91196   0.167  32.181  14.985
22979W        W91197   4.942  11.033   4.080
22980W        W91198  10.623  22.192   1.123
22981W        W91199   1.244   1.725  13.416
22982W        W91200  40.897   5.835   2.140
22983W        W91201  35.572  15.074   1.291
22984W        W91202  13.631  34.642  11.446
22985W        W91203  10.412  24.659   4.370
22986W        W91204  16.689  15.607  13.365
22987W        W91205  13.139  32.001   3.157
22988W        W91206  41.807   5.731   1.782
22989W        W91207  41.206  38.534   1.100
22990W        W91208  28.080  22.581   1.332
22991W        W91209  27.154  34.432  11.643
22992W        W91210  33.953  25.481  11.988
22993W        W91211  40.339  39.603   4.605
22994W        W91212  36.256  13.948  10.399
22995W        W91213   5.364   4.490  10.816
22996W        W91214  35.873  35.540   0.838
22997W        W91215  19.690  22.447  10.465
22998W        W91216  19.538  19.004  11.449
22999W        W91217  18.350  12.878  10.514
23000W        W91218  11.782   9.359  10.897
23001W        W91219  37.588  11.707  11.394
23002W        W91220  12.538  22.198  14.548
23003W        W91221  18.633  41.453   0.532
23004W        W91222  33.560  28.136   3.330
23005W        W91223  37.879  20.106   0.429
23006W        W91224  16.139  44.792  12.380
23007W        W91225   3.802   1.662  10.959
23008W        W91226   8.332   4.623   1.346
23009W        W91227  33.868   0.033  12.498
23010W        W91228  38.820   9.734   0.318
23011W        W91229  18.868  15.250  14.142
23012W        W91230  17.601  40.349  14.365
23013W        W91231   5.238  44.894   0.452
23014W        W91232   3.312  22.266  13.478
23015W        W91233  24.957  29.641  13.352
23016W        W91234  16.778  14.036  13.488
23017W        W91235   0.725   1.028  12.035
23018W        W91236  23.549   0.739  12.355
23019W        W91237   0.992  27.668  14.190
23020W        W91238  42.294  36.352  14.051
23021W        W91239   0.191   8.223   4.546
23022W        W91240  29.034  24.119   3.809
23023W        W91241  36.017  33.427  10.632
23024W        W91242   0.481  36.313   4.130
23025W        W91243  44.956   5.542   2.885
23026W        W91244   6.136  19.606   1.945
23027W        W91245  30.416  11.332   2.404
23028W        W91246  27.512  37.734   3.148
23029W        W91247   3.843  24.117   1.456
23030W        W91248  44.794   7.689  12.512
23031W        W91249  14.837   2.829   3.976
23032W        W91250   9.647  22.601  11.190
23033W        W91251  11.241  24.783   3.883
23034W        W91252  22.787  32.949  13.804
23035W        W91253  39.374  29.942  12.144
23036W        W91254  21.600  42.976   2.221
23037W        W91255  30.380  34.938  14.901
23038W        W91256  40.432  43.714  10.645
23039W        W91257  25.158  41.601   1.115
23040W        W91258  15.795  23.746  14.602
23041W        W91259   8.849  37.436  13.408
23042W        W91260  37.522  19.845   1.783
23043W        W91261   9.214  27.613   4.884
23044W        W91262   9.118  21.529  10.777
23045W        W91263   8.347  24.818   0.739
23046W        W91264  11.251  43.622   0.163
23047W        W91265   3.448  27.386   3.191
23048W        W91266  27.531  15.719   2.914
23049W        W91267   2.277   2.700  12.002
23050W        W91268  26.324  44.717  12.464
23051W        W91269   8.859  26.001  13.989
23052W        W91270  19.970  30.519  14.966
23053W        W91271   8.231  40.558  13.755
23054W        W91272  18.967  29.001  14.447
23055W        W91273  22.927  20.067   2.172
23056W        W91274  14.203  41.101   4.802
23057W        W91275  10.573  15.740   5.187
23058W        W91276  42.025  25.610  12.792
23059W        W91277  25.822  21.904   1.784
23060W        W91278  11.290  42.598   0.271
23061W        W91279  22.531  13.318  12.905
23062W        W91280  26.505  12.855  11.615
23063W        W91281  39.298   5.860  11.521
23064W        W91282  38.521   3.421  10.301
23065W        W91283  21.838  35.336  12.391
23066W        W91284  42.298  32.873  12.043
23067W        W91285  31.558  39.629   2.681
23068W        W91286  11.727  17.033   3.625
23069W        W91287  14.435  44.266  13.165
23070W        W91288   4.269   9.672  12.615
23071W        W91289  37.960  42.563   3.162
23072W        W91290  13.382   0.418  12.892
23073W        W91291  38.297   5.308   4.551
23074W        W91292   1.761  42.536   1.721
23075W        W91293  11.125   3.930   2.604
23076W        W91294  39.047  44.857   0.357
23077W        W91295  38.928   3.872   3.511
23078W        W91296  17.282  44.196  10.967
23079W        W91297  27.066  34.970  12.683
23080W        W91298  18.800   6.456   4.486
23081W        W91299  16.626  28.962  14.247
23082W        W91300   7.523  34.423   2.842
23083W        W91301  22.937  42.019  14.906
23084W        W91302  12.808  44.622  14.605
23085W        W91303  16.608  38.495   4.158
23086W        W91304  30.388   3.091  13.724
23087W        W91305   3.449  34.979   0.319
23088W        W91306  22.977   2.441  13.021
23089W        W91307  23.479   5.352  14.314
23090W        W91308  18.854  35.132  14.975
23091W        W91309  21.666  12.725  14.977
23092W        W91310  33.512  25.638   1.732
23093W        W91311  29.397  30.534   4.160
23094W        W91312  40.673  29.160   2.245
23095W        W91313  31.923  11.574   3.184
23096W        W91314  30.449  14.306   3.266
23097W        W91315  23.539   0.784   0.972
23098W        W91316   9.186  33.472  11.393
23099W        W91317  19.789  41.297  10.937
23100W        W91318  42.223  18.091  10.635
23101W        W91319   4.342  41.060  11.582
23102W        W91320  23.517   4.275  13.047
23103W        W91321  13.150  30.463   4.634
23104W        W91322  30.880   3.431   0.997
23105W        W91323  42.803  32.552  14.536
23106W        W91324  13.097  42.339   0.028
23107W        W91325  35.021  19.558  10.309
23108W        W91326  16.524  33.986  14.376
23109W        W91327  29.046  24.001   9.856
23110W        W91328   8.982  24.044  13.925
23111W        W91329  15.284  35.833   3.181
23112W        W91330   6.780  30.607   0.353
23113W        W91331   1.922   8.402   4.662
23114W        W91332  14.357  32.916  10.648
23115W        W91333  14.113  35.689   2.867
23116W        W91334  38.903  24.087   4.883
23117W        W91335  36.268   7.678  12.398
23118W        W91336   1.367  43.894   1.864
23119W        W91337  34.341  11.830  14.857
23120W        W91338  31.881  19.226   2.315
23121W        W91339   2.448   0.943  14.001
23122W        W91340  38.273  16.144  12.116
23123W        W91341  43.664   2.549  11.128
23124W        W91342  43.882   5.238   1.090
23125W        W91343  43.606   7.327  12.904
23126W        W91344  25.677  42.804  14.304
23127W        W91345  41.950  12.790   4.488
23128W        W91346  36.536   8.297  13.634
23129W        W91347  43.839  17.775   1.800
23130W        W91348  17.498  34.893   1.981
23131W        W91349  35.474  22.951  12.982
23132W        W91350  20.268  42.085  11.888
23133W        W91351  36.824  22.724  12.946
23134W        W91352  41.760  39.532   4.036
23135W        W91353  26.278  36.553   0.370
23136W        W91354  44.998  11.715   2.817
23137W        W91355  11.242  21.804  14.416
23138W        W91356   9.925  15.687  13.113
23139W        W91357  44.239  30.522   0.485
23140W        W91358  42.980   1.245  13.724
23141W        W91359  42.486   4.638  13.888
23142W        W91360  20.745  21.703   0.856
23143W        W91361  13.843  15.763  13.972
23144W        W91362  13.794   8.906  12.361
23145W        W91363  40.552  30.518  11.429
23146W        W91364  26.698  38.801  12.622
23147W        W91365  32.111  31.007  13.908
23148W        W91366  31.396  40.740  11.101
23149W        W91367   2.683   3.896   2.018
23150W        W91368   0.404  34.936   0.241
23151W        W91369   5.771  38.974   3.115
23152W        W91370  23.752   9.106   3.293
23153W        W91371   3.212   1.892   4.639
23154W        W91372  25.581  36.985  10.529
23155W        W91373  36.040  21.741   0.833
23156W        W91374  33.961  35.540  11.830
23157W        W91375  13.027  15.364  14.857
23158W        W91376   6.389   5.363   1.263
23159W        W91377  36.519  25.776  14.533
23160W        W91378   0.882  43.952   3.659
23161W        W91379  33.881  23.029  11.513
23162W        W91380  10.688   5.927   4.132
23163W        W91381  20.753  11.095  14.533
23164W        W91382  22.550  20.357   1.346
23165W        W91383  44.085  28.260  13.789
23166W        W91384  30.275  16.599   4.030
23167W        W91385  32.044  30.070   2.668
23168W        W91386   6.479  37.756  14.904
23169W        W91387  43.012   2.966   1.004
23170W        W91388  44.194   5.162   0.316
23171W        W91389  10.715  41.419  12.903
23172W        W91390  28.377  25.756  13.439
23173W        W91391   7.841  21.537  14.793
23174W        W91392  31.606  37.400  13.327
23175W        W91393  42.520  33.894   2.468
23176W        W91394  11.631   8.197   1.737
23177W        W91395  44.465   7.480   0.798
23178W        W91396  36.416  40.285  12.945
23179W        W91397  43.909  11.676   1.275
23180W        W91398   7.286  42.377   0.597
23181W        W91399  23.743  39.663  13.549
23182W        W91400  34.926   0.296  14.708
23183W        W91401  36.113  14.506   1.388
23184W        W91402  34.659  41.252   3.257
23185W        W91403  23.304  26.419  12.707
23186W        W91404  38.009  37.554  11.616
23187W        W91405  17.614  26.462   3.232
23188W        W91406  38.369   9.675   3.240
23189W        W91407  25.947  37.104   3.280
23190W        W91408  43.975  14.919   4.188
23191W        W91409  42.431  23.561  12.393
23192W        W91410  42.131  24.677   0.962
23193W        W91411  37.127   0.753  12.425
23194W        W91412  43.225  37.098   2.040
23195W        W91413  18.904   1.755  12.645
23196W        W91414  27.935   8.442  14.264
23197W        W91415   1.959  32.638  14.096
23198W        W91416  32.694  18.021  13.956
23199W        W91417  39.582  32.844  12.406
23200W        W91418  19.532  41.728   1.898
23201W        W91419   5.679  42.463   0.861
23202W        W91420  11.087  36.385  11.211
23203W        W91421  28.697  24.258   1.261
23204W        W91422  15.111  36.085  10.479
23205W        W91423   0.866   1.258   0.666
23206W        W91424  17.892  17.214   2.675
23207W        W91425  19.108  16.548   1.173
23208W        W91426  30.237  34.857  13.285
23209W        W91427  24.225  29.953  12.089
23210W        W91428  11.811   8.658   1.943
23211W        W91429  28.169  15.324  12.641
23212W        W91430  43.005   6.080   0.489
23213W        W91431  22.513  44.516   1.355
23214W        W91432  43.090  26.848   2.356
23215W        W91433   7.616  24.535   1.380
23216W        W91434  23.852  13.773  12.057
23217W        W91435  42.334  39.753   0.553
23218W        W91436  13.354  15.580  14.001
23219W        W91437   5.569   7.292   2.273
23220W        W91438   0.997  12.241  13.161
23221W        W91439  22.792  30.402   3.535
23222W        W91440  44.827  30.678  11.944
23223W        W91441  28.415  40.285   2.739
23224W        W91442   8.336   1.424  12.617
23225W        W91443   9.890   0.557  12.739
23226W        W91444   8.326   9.918  13.360
23227W        W91445  37.114  19.758  12.895
23228W        W91446  10.216  32.740   0.382
23229W        W91447  26.099  15.706   1.635
23230W        W91448  15.151   9.718   2.014
23231W        W91449  14.209  15.097  10.385
23232W        W91450   4.026  21.974  12.971
23233W        W91451   1.912   9.669  10.849
23234W        W91452   2.733  18.050  12.910
23235W        W91453  36.275   1.904  14.612
23236W        W91454  37.087  38.308  13.255
23237W        W91455  31.152  26.675   0.362
23238W        W91456   5.324  17.058   0.772
23239W        W91457   9.667   9.202   1.052
23240W        W91458   7.233  19.602  11.219
23241W        W91459  26.124  22.738  12.811
23242W        W91460   6.685  29.558   4.051
23243W        W91461  32.230  14.863   0.231
23244W        W91462   8.408  12.575   2.862
23245W        W91463   1.483  44.412   1.843
23246W        W91464  13.396  24.946   4.537
23247W        W91465  13.665  16.319  13.359
23248W        W91466  10.157  30.410  14.857
23249W        W91467  24.186  35.020   0.826
23250W        W91468  21.961  29.653  14.431
23251W        W91469  11.139  22.820  11.981
23252W        W91470  11.833  31.996   5.045
23253W        W91471  21.836  24.576  11.082
23254W        W91472  33.332  10.268   0.820
23255W        W91473  25.830  10.496  11.572
23256W        W91474  37.466   4.110   4.549
23257W        W91475  26.983  14.796   1.334
23258W        W91476  32.664  15.894   2.431
23259W        W91477   2.203  41.534   4.194
23260W        W91478  39.064   4.207  11.191
23261W        W91479  17.234  39.470   2.883
23262W        W91480  10.674  25.020   2.349
23263W        W91481  35.594  10.932  13.448
23264W        W91482  20.758  16.294   2.205
23265W        W91483  23.136  19.504  13.253
23266W        W91484  36.322   4.351   4.201
23267W        W91485  37.249  27.057  10.199
23268W        W91486   8.041  18.677   5.331
23269W        W91487  23.015  38.955   0.707
23270W        W91488  30.874  28.739   2.583
23271W        W91489  44.204   6.351   3.115
23272W        W91490  39.498  25.384  10.451
23273W        W91491   5.038  15.564  14.824
23274W        W91492   4.991  37.896  14.763
23275W        W91493  37.119  15.235   3.715
23276W        W91494  31.105  37.547   1.168
23277W        W91495   0.871  33.978   2.314
23278W        W91496  33.321  35.648   0.297
23279W        W91497  29.679  32.686   3.196
23280W        W91498  33.978   1.993  12.417
23281W        W91499  39.297  26.116   4.160
23282W        W91500  28.954  22.170   1.696
23283W        W91501  30.029  40.643  13.036
23284W        W91502  40.314  25.421   2.661
23285W        W91503  38.583  12.995   0.242
23286W        W91504   2.170  14.253  13.492
23287W        W91505  14.775  39.957  13.459
23288W        W91506  18.773  19.655  11.861
23289W        W91507  12.143  34.350  14.390
23290W        W91508  31.196  43.875  14.384
23291W        W91509  27.009  23.307  14.368
23292W        W91510  16.887  15.382   1.050
23293W        W91511  25.404  44.499  13.991
23294W        W91512   6.315  18.510   2.731
23295W        W91513   8.242  41.017  14.026
23296W        W91514  18.843  21.740   4.114
23297W        W91515  23.273  38.435   2.200
23298W        W91516  22.075  27.913   0.671
23299W        W91517   8.348  20.622  13.896
23300W        W91518  22.295  12.922   1.402
23301W        W91519  29.738  31.687  11.060
23302W        W91520  38.428  29.284   2.880
23303W        W91521   7.480  41.556   2.646
23304W        W91522  24.663   1.941  13.751
23305W        W91523   1.310   3.052  12.909
23306W        W91524   7.237  30.719   4.567
23307W        W91525   6.170  23.151   2.889
23308W        W91526   3.838   8.698   1.076
23309W        W91527  43.916   0.805   2.778
23310W        W91528  33.925  29.174   0.108
23311W        W91529  42.690  20.361   1.367
23312W        W91530  20.776  41.286   1.228
23313W        W91531  14.450  35.868   0.339
23314W        W91532  10.275  20.195   4.880
23315W        W91533  39.948  32.006  12.084
23316W        W91534   2.192  25.511   2.849
23317W        W91535  26.666  31.161  13.011
23318W        W91536   1.444   7.895  13.254
23319W        W91537  34.908  33.887  13.775
23320W        W91538   1.349  38.873   2.783
23321W        W91539  19.282   0.046   1.155
23322W        W91540  21.843  15.683  10.728
23323W        W91541  32.991  41.566   1.857
23324W        W91542  39.461  19.054   2.130
23325W        W91543  24.588  32.874  12.871
23326W        W91544  21.125  26.208   3.691
23327W        W91545   8.767   3.806  12.578
23328W        W91546   5.886  12.067   2.211
23329W        W91547  25.542  36.082   0.942
23330W        W91548  21.316  22.987  11.815
23331W        W91549   6.938  39.319   2.946
23332W        W91550   4.717   1.514  11.158
23333W        W91551   7.695   5.196  11.586
23334W        W91552  28.441  40.328  12.578
23335W        W91553   0.129  17.791  14.057
23336W        W91554  10.143   4.869  11.017
23337W        W91555  16.614  29.931   3.729
23338W        W91556  13.913  27.099   0.457
23339W        W91557   6.772  22.146  12.123
23340W        W91558  29.920  26.457  13.097
23341W        W91559  34.893  35.046   3.706
23342W        W91560  41.206   6.381   4.217
23343W        W91561  42.459  36.591   4.112
23344W        W91562  19.220  38.398  12.468
23345W        W91563  39.768  22.611  11.197
23346W        W91564  24.047  36.465  14.955
23347W        W91565  42.276  14.553   0.443
23348W        W91566  37.643  25.560   3.218
23349W        W91567   0.521   4.448   0.162
23350W        W91568  24.639  34.508   1.433
23351W        W91569  37.116  29.611   1.056
23352W        W91570  37.310  20.810  10.696
23353W        W91571  23.080  42.508   2.092
23354W        W91572  24.204   8.589  10.356
23355W        W91573  34.896  44.314   3.166
23356W        W91574   3.405   6.418   2.724
23357W        W91575  37.803  43.887   2.548
23358W        W91576  20.248   8.162   1.311
23359W        W91577  35.283   6.972  14.367
23360W        W91578  27.943  13.328   3.819
23361W        W91579   6.211  32.631  13.377
23362W        W91580  34.560   0.442   4.871
23363W        W91581  13.178  22.950   0.784
23364W        W91582  22.253  21.264  12.333
23365W        W91583  23.310  18.519  13.385
23366W        W91584  12.761  37.951   1.021
23367W        W91585  23.201  27.965  12.549
23368W        W91586  23.092  33.350   4.657
23369W        W91587  17.066  13.282   2.699
23370W        W91588  44.841   3.233  10.939
23371W        W91589  32.680  23.097  13.584
23372W        W91590  21.230   2.522  13.951
23373W        W91591   5.311   9.910  12.942
23374W        W91592   2.321   0.355   2.897
23375W        W91593  16.761  19.005   2.696
23376W        W91594  31.161  14.749  14.053
23377W        W91595  23.988  14.173   1.394
23378W        W91596  25.017  22.871   3.610
23379W        W91597  23.907  32.369  14.226
23380W        W91598  12.592  23.591  12.844
23381W        W91599  33.907  40.531   3.171
23382W        W91600  39.918  31.523  12.372
23383W        W91601  41.771   2.021   1.921
23384W        W91602  34.528  38.532  12.521
23385W        W91603  18.564  10.870  11.198
23386W        W91604   1.947  29.120  14.404
23387W        W91605   8.790  11.815  14.598
23388W        W91606   4.821  19.061   1.309
23389W        W91607  35.449  21.299   3.799
23390W        W91608  43.316  24.137   2.791
23391W        W91609  14.764  41.856  11.905
23392W        W91610  31.588  17.588  11.000
23393W        W91611  14.157  20.596  13.378
23394W        W91612  38.957  16.376   3.783
23395W        W91613   6.351  34.883  12.049
23396W        W91614  19.591  40.466   0.749
23397W        W91615  21.111  30.384   3.353
23398W        W91616  10.393   9.721   0.942
23399W        W91617  18.550  21.345  12.571
23400W        W91618  29.550   5.150   0.433
23401W        W91619  41.376   5.248  11.630
23402W        W91620   3.249  28.516  13.959
23403W        W91621   2.235  40.748   3.793
23404W        W91622  22.674  20.211  14.805
23405W        W91623   8.212  18.064   1.858
23406W        W91624  19.258  38.217   4.731
23407W        W91625  30.460  27.642   2.288
23408W        W91626  34.115  44.704   3.999
23409W        W91627   1.363  34.405   3.339
23410W        W91628  21.042  12.504   0.390
23411W        W91629  29.895  11.209   2.316
23412W        W91630  15.187  43.756  12.650
23413W        W91631  43.357   4.254   0.852
23414W        W91632  27.663  21.915  12.029
23415W        W91633  26.155  11.103   2.949
23416W        W91634   7.704  19.926  14.812
23417W        W91635  39.053  26.666   3.705
23418W        W91636  13.137   0.680  12.508
23419W        W91637  40.974   3.958  14.324
23420W        W91638  24.471  30.988  13.340
23421W        W91639  30.116   0.039  14.614
23422W        W91640   6.412  12.851  10.978
23423W        W91641   1.737  13.824   2.953
23424W        W91642  33.598  18.086   2.796
23425W        W91643   7.862  44.056   4.658
23426W        W91644  10.079  37.779   3.247
23427W        W91645  23.168  15.790   1.661
23428W        W91646  38.912  41.858  12.607
23429W        W91647  43.423  44.564   2.774
23430W        W91648  36.335  42.905  12.481
23431W        W91649  16.830  10.546  12.079
23432W        W91650  19.101  19.696  11.415
23433W        W91651  18.530  41.036   3.132
23434W        W91652   8.656   4.384   0.433
23435W        W91653  22.091  38.093   3.327
23436W        W91654  30.386   1.774   2.085
23437W        W91655  17.208  34.079   1.618
23438W        W91656  12.852   0.354  11.194
23439W        W91657  38.876   8.986   0.826
23440W        W91658   2.354  29.265   0.194
23441W        W91659  32.952   3.253   0.790
23442W        W91660  37.423  38.326   4.263
23443W        W91661  27.437  29.474   4.788
23444W        W91662  19.094  27.122  14.407
23445W        W91663  34.984   1.751  10.534
23446W        W91664  39.426   3.495  14.494
23447W        W91665  14.470  11.195   1.865
23448W        W91666   1.470  32.142   0.716
23449W        W91667  39.476   2.454   1.370
23450W        W91668   0.374  16.194   0.350
23451W        W91669  24.802  30.788   4.908
23452W        W91670  41.500   2.887  12.058
23453W        W91671  36.774   1.877   2.666
23454W        W91672   1.868   5.330   1.740
23455W        W91673   9.561  21.180   5.003
23456W        W91674  43.087   1.485   3.735
23457W        W91675  34.364  40.732  11.105
23458W        W91676  24.122  27.522   1.920
23459W        W91677  19.563  10.181  12.392
23460W        W91678  40.738  35.067   2.817
23461W        W91679   9.259   0.389   2.128
23462W        W91680  15.309  30.945  14.497
23463W        W91681  11.463  35.111  12.175
23464W        W91682  33.809  44.259  14.846
23465W        W91683   5.243   1.665  12.019
23466W        W91684  12.609  23.679  14.194
23467W        W91685  44.540  18.611   3.364
23468W        W91686   5.232  28.659   4.588
23469W        W91687  19.460  17.527  11.750
23470W        W91688  19.513  44.968   0.068
23471W        W91689   1.720   4.112   2.824
23472W        W91690   1.435  29.024  13.327
23473W        W91691  40.787  25.561   2.893
23474W        W91692   2.693  36.339  13.433
23475W        W91693   5.280   4.834   3.562
23476W        W91694   8.617  34.463   4.895
23477W        W91695  25.944   7.784   4.236
23478W        W91696  43.289  28.971   3.863
23479W        W91697  41.228  24.005  14.108
23480W        W91698  39.606  41.204   0.497
23481W        W91699   9.406  21.998  13.527
23482W        W91700  26.004  29.946   4.751
23483W        W91701  34.859  13.168  11.621
23484W        W91702  25.704   5.252  11.105
23485W        W91703  19.319  11.376   4.473
23486W        W91704  18.565  25.530  14.503
23487W        W91705   6.105  13.681   2.313
23488W        W91706   2.194  44.168  12.146
23489W        W91707   4.027  37.851  14.931
23490W        W91708  34.950   1.934  11.029
23491W        W91709  10.035  14.599  11.638
23492W        W91710  17.316  29.169   1.362
23493W        W91711  10.861  20.337   3.042
23494W        W91712  32.260   1.220  11.005
23495W        W91713  24.081  31.368  14.470
23496W        W91714  40.479  33.978   3.751
23497W        W91715  36.918  21.187   3.074
23498W        W91716  21.546  28.496  13.844
23499W        W91717   0.256  24.425  12.898
23500W        W91718  34.370   6.903  14.407
23501W        W91719  33.811  26.206  11.205
23502W        W91720  35.165  22.700  10.747
23503W        W91721  18.177   9.160  12.530
23504W        W91722   0.857  34.916   2.748
23505W        W91723  25.019  43.548   3.347
23506W        W91724  14.773  17.813  14.875
23507W        W91725  42.815  39.884   0.412
23508W        W91726   0.540  22.876   4.265
23509W        W91727  18.274  38.336   1.845
23510W        W91728  40.951   0.015  10.663
23511W        W91729  10.801  42.517  14.407
23512W        W91730   9.313  35.468   4.595
23513W        W91731   6.377   6.612   4.344
23514W        W91732   4.545   8.756   1.918
23515W        W91733  16.665  28.946   0.714
23516W        W91734  41.510  21.711   3.133
23517W        W91735  24.870  14.535   1.557
23518W        W91736   7.263  37.830   0.503
23519W        W91737  24.102  19.727  12.433
23520W        W91738   8.987   6.902  14.719
23521W        W91739  25.667  22.967  14.496
23522W        W91740  33.487   5.679  14.693
23523W        W91741  36.060  25.047   4.536
23524W        W91742  34.556  19.099  13.945
23525W        W91743  21.588  38.721   3.351
23526W        W91744  32.267  11.838   2.240
23527W        W91745  38.040   7.972  14.464
23528W        W91746  11.600  34.253   4.059
23529W        W91747  34.050  13.663   3.201
23530W        W91748  14.555  21.007   3.724
23531W        W91749  20.737  24.548   2.250
23532W        W91750  41.828  29.532   1.967
23533W        W91751  10.642  27.684  12.534
23534W        W91752  34.989  35.137   2.649
23535W        W91753  41.431  39.565   0.875
23536W        W91754  16.327  37.564  13.857
23537W        W91755  41.380  19.195   0.782
23538W        W91756   0.311  11.805  14.041
23539W        W91757   4.996   5.816   1.624
23540W        W91758  20.045   2.262   4.986
23541W        W91759  36.703  34.619   5.198
23542W        W91760   4.375  26.614   2.207
23543W        W91761  17.781  24.267   0.252
23544W        W91762  41.137  14.764   1.800
23545W        W91763  17.074  19.740   1.364
23546W        W91764  18.954  20.322  11.165
23547W        W91765  24.000  27.780   4.397
23548W        W91766  16.121  26.858  14.975
23549W        W91767   2.232   8.725   3.067
23550W        W91768   7.768  43.977   3.753
23551W        W91769  25.573  28.969   0.077
23552W        W91770  19.055  19.050  14.518
23553W        W91771   9.282  29.460   1.960
23554W        W91772  43.984  35.818   4.966
23555W        W91773  35.854   5.003   0.735
23556W        W91774  19.116  35.310   4.637
23557W        W91775  30.559  40.232   0.632
23558W        W91776  24.563  12.092  10.830
23559W        W91777  19.667  39.083   2.624
23560W        W91778  10.934  41.330  10.474
23561W        W91779  39.148  17.365   3.742
23562W        W91780   5.650  18.731  12.058
23563W        W91781  32.635  18.590  12.589
23564W        W91782   3.350  20.516   0.018
23565W        W91783   4.688  35.943   3.394
23566W        W91784  12.120  31.248  10.733
23567W        W91785  19.043  41.184  11.455
23568W        W91786   2.295  30.770   4.145
23569W        W91787  11.085  23.532  11.169
23570W        W91788  22.796   0.862   2.798
23571W        W91789  37.665  23.545  13.411
23572W        W91790   9.368  10.784   3.080
23573W        W91791  28.591   4.689  14.094
23574W        W91792  37.980  39.452   1.668
23575W        W91793  14.193   9.619   2.377
23576W        W91794  38.037  11.058  11.044
23577W        W91795  28.277   5.973  13.989
23578W        W91796   7.166  16.594   2.093
23579W        W91797  30.731  15.214   1.793
23580W        W91798  15.050  12.825  12.436
23581W        W91799  16.807   9.409   0.848
23582W        W91800  32.607  31.542  10.872
23583W        W91801  23.582  30.049   4.967
23584W        W91802   9.747  11.221   3.883
23585W        W91803  40.068  33.214  11.507
23586W        W91804  11.991  35.931   0.894
23587W        W91805  26.940  39.322  13.892
23588W        W91806   8.403   4.432  13.912
23589W        W91807  20.517  30.164  14.041
23590W        W91808   8.105  17.458   2.697
23591W        W91809  28.688   5.636  13.903
23592W        W91810  19.853  11.621  11.855
23593W        W91811   0.559  27.134   0.265
23594W        W91812  12.719  37.094  12.115
23595W        W91813  41.828   1.364   3.699
23596W        W91814   3.000  32.667  14.921
23597W        W91815  14.738  43.788  14.473
23598W        W91816  44.972   4.084   0.763
23599W        W91817   5.201  28.096   3.689
23600W        W91818  40.586  44.923  12.309
23601W        W91819  31.544  36.196  10.839
23602W        W91820  31.706  43.220  13.006
23603W        W91821  21.232  17.790   2.416
23604W        W91822  24.670  42.787  12.503
23605W        W91823  15.051   8.847   1.759
23606W        W91824  33.047  22.529  12.418
23607W        W91825  29.107  19.467  13.227
23608W        W91826   8.838  10.613  10.789
23609W        W91827  31.152  16.932  13.526
23610W        W91828  20.387  21.610   1.839
23611W        W91829  23.993   8.252  14.037
23612W        W91830  13.115   2.935   1.152
23613W        W91831  14.000   8.733   2.679
23614W        W91832  24.138   0.413  11.720
23615W        W91833  16.984  21.185   5.067
23616W        W91834  13.764  38.926   4.192
23617W        W91835  39.419  16.786   2.595
23618W        W91836  43.938  11.608  12.957
23619W        W91837  18.293   0.717  11.573
23620W        W91838  42.924   1.804   2.412
23621W        W91839  33.540  39.847   1.758
23622W        W91840  16.464  28.834   2.293
23623W        W91841  40.842   6.706  11.132
23624W        W91842   2.089  14.433  10.001
23625W        W91843  23.536  40.614   3.144
23626W        W91844  24.973  39.005  11.475
23627W        W91845  34.603  22.743  12.434
23628W        W91846  37.387  14.186  13.054
23629W        W91847  29.761  21.239   3.110
23630W        W91848  12.262  37.473   3.714
23631W        W91849  31.370  28.595   0.287
23632W        W91850  26.567  22.205   3.684
23633W        W91851   1.669  41.748  12.580
23634W        W91852  25.620  21.596  10.118
23635W        W91853  27.915   4.933   0.295
23636W        W91854  36.875  26.298   2.533
23637W        W91855  30.522  16.621   1.715
23638W        W91856  38.772  35.414  12.016
23639W        W91857   3.302  35.070  12.924
23640W        W91858   9.289  11.151   2.717
23641W        W91859   0.698   6.430  12.061
23642W        W91860  26.194  10.861  11.602
23643W        W91861  36.639  13.299   0.749
23644W        W91862  11.839  28.599   3.101
23645W        W91863  12.160  10.592   2.711
23646W        W91864   0.217   3.887   3.778
23647W        W91865  36.379  26.455   2.644
23648W        W91866  32.605  31.917   4.681
23649W        W91867  19.797   2.215   3.663
23650W        W91868  36.940  10.349   2.366
23651W        W91869  16.271  38.081  14.026
23652W        W91870  44.048  38.045   4.414
23653W        W91871  38.107  33.733   0.497
23654W        W91872  28.372   5.375   1.753
23655W        W91873  42.063   6.636  12.466
23656W        W91874   7.930  40.483   4.024
23657W        W91875  27.604  22.000  11.526
23658W        W91876  24.072  15.622   2.706
23659W        W91877  13.626   2.952   1.351
23660W        W91878  22.086  10.018  11.379
23661W        W91879  28.686  36.800   3.596
23662W        W91880  13.257  31.312  12.043
23663W        W91881  37.154  34.463   0.833
23664W        W91882  38.572  31.388  12.461
23665W        W91883  12.429   0.686  13.112
23666W        W91884  18.384  22.025   2.494
23667W        W91885   7.803  21.693   4.820
23668W        W91886  11.724  14.273   0.971
23669W        W91887   3.319   0.888  12.478
23670W        W91888  24.190   0.615   3.680
23671W        W91889  28.852   5.432   4.597
23672W        W91890  32.216  35.948   1.307
23673W        W91891  29.640  43.290   3.780
23674W        W91892  26.093  41.303   4.016
23675W        W91893  16.509  39.651   1.280
23676W        W91894  29.871  17.359   3.051
23677W        W91895   2.347  12.909   2.772
23678W        W91896  11.404  27.581  12.094
23679W        W91897  18.076  12.320   2.731
23680W        W91898  37.333  15.877  13.927
23681W        W91899  25.496   2.220   2.753
23682W        W91900   5.433   9.393   0.535
23683W        W91901  22.673  14.202   1.095
23684W        W91902  13.089  38.835  11.421
23685W        W91903  44.726  13.623  14.418
23686W        W91904   6.277  20.538  14.946
23687W        W91905  40.988  17.724   1.387
23688W        W91906  28.704  20.361   1.376
23689W        W91907  25.510   4.648   1.021
23690W        W91908  38.909  42.375  11.517
23691W        W91909   5.671  39.796   4.172
23692W        W91910  34.428   7.312   4.145
23693W        W91911  41.165  28.041  12.887
23694W        W91912  16.604  37.236  14.254
23695W        W91913   3.021  21.075   0.442
23696W        W91914  43.676  22.229  14.849
23697W        W91915  33.081  38.756  13.239
23698W        W91916   6.820  11.589   2.255
23699W        W91917  22.133  29.138   2.712
23700W        W91918   6.434  14.349  14.713
23701W        W91919  15.083  17.723  12.531
23702W        W91920  30.040  25.178   0.998
23703W        W91921  31.292  18.190   0.396
23704W        W91922  18.067  28.620   0.385
23705W        W91923  10.451   9.807   1.873
23706W        W91924   6.104  20.212   3.183
23707W        W91925  12.152  42.300  11.668
23708W        W91926   9.719  31.526   2.841
23709W        W91927   4.443  17.406  14.779
23710W        W91928  10.269   9.350   1.707
23711W        W91929   9.927  26.079  13.968
23712W        W91930  28.367   5.698  11.669
23713W        W91931  40.396   7.138  11.638
23714W        W91932  21.657  24.080   3.185
23715W        W91933  39.974   0.689   2.880
23716W        W91934   3.515  23.543  14.049
23717W        W91935  19.272  22.027  12.383
23718W        W91936  38.824  10.459   3.206
23719W        W91937  37.031   9.101  14.111
23720W        W91938  21.096   5.965  10.637
23721W        W91939   1.784  30.629  10.665
23722W        W91940  33.848  31.553  14.041
23723W        W91941  22.643  34.158  12.555
23724W        W91942  30.402  44.015   2.751
23725W        W91943  22.999  15.464   1.277
23726W        W91944  40.478  12.722   1.177
23727W        W91945  28.758  32.416  13.461
23728W        W91946  37.345  35.647   2.884
23729W        W91947   7.317  43.048  14.931
23730W        W91948   8.143   0.513   4.163
23731W        W91949  11.300  35.157   3.864
23732W        W91950  22.250  19.366  12.411
23733W        W91951  38.955  28.483  14.952
23734W        W91952  44.287  23.198  14.050
23735W        W91953  37.871  10.436   4.389
23736W        W91954  34.063  26.428  10.806
23737W        W91955   4.857  36.327   0.269
23738W        W91956  28.492  29.130  13.764
23739W        W91957  30.317  37.397  12.072
23740W        W91958  38.575  28.759  13.464
23741W        W91959  13.953  16.765   3.154
23742W        W91960  12.609  11.874   2.643
23743W        W91961  33.308  31.250  14.998
23744W        W91962  14.591  21.059  14.483
23745W        W91963   5.766  35.670   1.180
23746W        W91964  37.121   1.809  13.175
23747W        W91965  28.081  11.716   9.588
23748W        W91966   5.738   5.430   0.930
23749W        W91967   3.592  37.407   0.761
23750W        W91968  24.630   4.677  10.726
23751W        W91969  34.219   2.839   0.381
23752W        W91970  22.019  32.539  13.177
23753W        W91971  30.124  29.481   4.621
23754W        W91972  41.884   0.659  10.803
23755W        W91973  34.979  31.152  13.300
23756W        W91974  30.187  33.145  14.794
23757W        W91975   6.152  35.057  11.495
23758W        W91976  34.431  23.993   1.641
23759W        W91977  23.598  13.385   1.732
23760W        W91978  24.483  14.310   1.226
23761W        W91979  34.039   6.402  12.515
23762W        W91980  15.915   7.815   0.657
23763W        W91981  14.880   4.729  13.975
23764W        W91982  42.498  30.578   2.732
23765W        W91983  20.249  31.911  12.032
23766W        W91984  40.340  11.850   2.387
23767W        W91985  28.617  29.604  13.524
23768W        W91986  15.189  34.625   2.426
23769W        W91987  16.781  21.690  11.089
23770W        W91988  31.717  41.277  13.827
23771W        W91989  23.757  25.685   0.970
23772W        W91990  26.259  27.519   1.712
23773W        W91991  39.813  12.172  11.699
23774W        W91992  42.261   2.993  11.082
23775W        W91993  20.185  44.775  14.710
23776W        W91994  12.367  22.684  10.698
23777W        W91995  21.399  15.987   4.911
23778W        W91996  11.312  25.382  13.759
23779W        W91997  28.912  31.197  12.311
23780W        W91998  19.846  34.423  12.356
23781W        W91999   9.218  31.085   3.396
23782W        W92000  13.853  15.332   1.875
23783W        W92001  36.051  22.311   3.479
23784W        W92002   5.083  25.049  10.722
23785W        W92003  17.608   3.285  14.790
23786W        W92004  27.630  16.079   3.655
23787W        W92005  41.715  37.870   1.193
23788W        W92006  43.800  26.115   0.900
23789W        W92007  28.448  34.944  11.168
23790W        W92008  17.726  29.361  10.392
23791W        W92009  31.129  30.254   0.866
23792W        W92010  33.547  41.003   2.337
23793W        W92011  24.898  19.795   4.239
23794W        W92012  26.832  44.277   9.809
23795W        W92013   1.617  14.209  12.074
23796W        W92014  26.856  26.275  11.826
23797W        W92015  18.585  38.812   0.005
23798W        W92016  10.095  16.582  10.996
23799W        W92017   0.014  25.600   2.281
23800W        W92018  22.085  29.027   4.278
23801W        W92019  43.671  30.201   2.403
23802W        W92020  33.130  42.542  13.166
23803W        W92021  38.522   9.953   3.681
23804W        W92022  29.133  33.304  13.088
23805W        W92023  23.967  42.569  13.836
23806W        W92024  13.180  16.203  14.134
23807W        W92025  31.658  31.482  14.531
23808W        W92026   7.444  42.085  11.183
23809W        W92027  17.581  19.890  10.698
23810W        W92028   2.172  11.394  14.991
23811W        W92029   3.133  31.430   3.300
23812W        W92030  25.892  22.248   0.447
23813W        W92031  34.889  15.794  14.641
23814W        W92032   2.690   4.695   0.346
23815W        W92033  40.051  44.237   0.215
23816W        W92034  31.721   3.925   4.071
23817W        W92035   1.837  28.050  11.657
23818W        W92036   0.263  16.684  13.842
23819W        W92037  28.527  29.125  11.510
23820W        W92038  33.445  10.320  11.485
23821W        W92039  21.589  18.875  12.012
23822W        W92040  30.892  16.393   3.437
23823W        W92041  15.900  28.621   4.076
23824W        W92042  22.363  33.081   4.891
23825W        W92043  18.643  38.404  12.858
23826W        W92044  33.892  23.746  12.097
23827W        W92045  36.878  12.184  13.402
23828W        W92046  21.357  36.608  12.940
23829W        W92047   8.413  11.340  12.441
23830W        W92048   1.381  33.901  10.685
23831W        W92049   2.999  42.616   3.750
23832W        W92050  36.126  33.058  14.356
23833W        W92051  16.643  11.753  10.667
23834W        W92052   8.931  43.812   4.291
23835W        W92053   7.170  10.247   3.795
23836W        W92054  31.190  12.825   1.333
23837W        W92055  29.121  22.432  11.497
23838W        W92056  44.024  35.452  11.623
23839W        W92057  38.917   9.641   1.276
23840W        W92058  24.349  22.870  11.648
23841W        W92059  31.857  23.267   4.156
23842W        W92060  31.099  38.072   3.336
23843W        W92061  25.284  39.075  11.056
23844W        W92062  38.181  26.545  11.709
23845W        W92063  38.108  32.167   4.555
23846W        W92064   6.163  29.521  14.840
23847W        W92065  40.428  40.301   1.318
23848W        W92066   3.358   3.765   4.205
23849W        W92067   1.359  33.367   0.308
23850W        W92068  22.176  12.804  13.778
23851W        W92069   2.733   2.860   0.955
23852W        W92070  20.005   3.582  14.472
23853W        W92071  25.658  26.698   3.739
23854W        W92072  28.360  37.876  13.857
23855W        W92073  28.874   4.833   1.891
23856W        W92074  31.154  42.913  13.903
23857W        W92075  38.065   2.390   2.647
23858W        W92076  14.513  18.288   3.655
23859W        W92077  33.603  30.511   3.146
23860W        W92078  43.454  41.421  12.118
23861W        W92079  26.224  31.030  14.797
23862W        W92080  35.032  35.665  14.078
23863W        W92081  27.922  21.800   4.730
23864W        W92082  12.484  11.609  11.541
23865W        W92083  24.271   1.634  14.905
23866W        W92084   1.898  28.236   1.209
23867W        W92085   4.157  43.707   2.716
23868W        W92086  38.641  39.463   0.018
23869W        W92087   1.307   7.955  13.764
23870W        W92088  21.297  11.271   2.179
23871W        W92089  22.124  42.974  13.922
23872W        W92090  42.244  41.813   4.974
23873W        W92091   5.651  27.064  11.846
23874W        W92092  10.142  12.666  12.862
23875W        W92093   1.697   7.911  11.226
23876W        W92094  18.523  44.419  12.806
23877W        W92095  22.142  30.138   0.781
23878W        W92096  13.522  26.746   1.170
23879W        W92097  32.157  21.222   0.806
23880W        W92098   8.118  38.386   2.320
23881W        W92099  13.775  37.402   4.898
23882W        W92100  23.162  37.908   2.353
23883W        W92101  37.373   2.880   3.760
23884W        W92102  11.299  30.675  10.630
23885W        W92103  30.819  19.599   9.839
23886W        W92104  18.083  43.432   2.664
23887W        W92105  37.908  11.663   2.216
23888W        W92106  21.042   3.398   2.250
23889W        W92107  34.408  39.325  12.763
23890W        W92108  17.939  37.710  14.305
23891W        W92109   4.625  44.970  11.316
23892W        W92110   0.031   3.883   4.732
23893W        W92111  27.008  23.669   0.731
23894W        W92112   8.400  18.604  11.954
23895W        W92113  19.340  22.672   0.189
23896W        W92114  29.018  10.327  10.248
23897W        W92115  20.980  32.103  12.492
23898W        W92116   9.282   0.860   2.403
23899W        W92117  14.199  38.203  13.398
23900W        W92118   0.447  14.180   1.832
23901W        W92119   5.623  25.477  13.371
23902W        W92120  44.802  30.746   2.739
23903W        W92121  34.419  29.097  14.962
23904W        W92122  17.300  21.208   2.790
23905W        W92123  28.773  43.039   2.891
23906W        W92124  24.527  25.685  12.488
23907W        W92125  25.253  14.112   3.647
23908W        W92126  13.151   2.795  13.363
23909W        W92127  18.147   7.112  12.303
23910W        W92128  42.805  28.522  10.638
23911W        W92129  17.850   0.594  14.243
23912W        W92130  23.122   1.507  12.590
23913W        W92131  37.892  27.471  11.583
23914W        W92132  17.399  20.561  12.922
23915W        W92133  22.166   0.755  13.551
23916W        W92134  13.669  32.638  11.884
23917W        W92135  18.206   2.958  10.689
23918W        W92136  39.744  10.261   3.934
23919W        W92137  32.648  14.626   1.038
23920W        W92138   1.650  10.836   0.874
23921W        W92139  23.615  26.458  11.386
23922W        W92140  12.865   5.793  10.914
23923W        W92141  32.943   1.837   0.910
23924W        W92142  25.938  11.043  13.546
23925W        W92143  18.193  33.796   1.786
23926W        W92144  42.721  31.961  13.901
23927W        W92145  18.745  42.558   1.005
23928W        W92146  16.649  12.272   2.187
23929W        W92147  26.380  12.291   2.409
23930W        W92148   5.149  40.040  13.805
23931W        W92149  33.919  31.012   2.274
23932W        W92150  17.594  27.530   3.257
23933W        W92151  16.496  17.279  10.075
23934W        W92152  43.080  10.605   1.004
23935W        W92153   0.485  13.553   1.106
23936W        W92154  39.319  28.996  14.011
23937W        W92155  24.197  29.615  13.795
23938W        W92156  17.628  17.886   4.624
23939W        W92157  42.015  30.622   4.592
23940W        W92158  24.231  25.759  13.459
23941W        W92159  20.863  36.361   2.427
23942W        W92160   5.238  15.265   4.673
23943W        W92161  12.867  28.212  13.676
23944W        W92162   3.532  12.354   1.373
23945W        W92163  20.091  16.204   4.656
23946W        W92164  40.277  43.191  13.129
23947W        W92165  32.040  12.062   0.197
23948W        W92166  14.838  28.704   1.633
23949W        W92167  42.780   9.590   4.883
23950W        W92168  30.033   9.899  10.653
23951W        W92169  38.230  12.333  14.497
23952W        W92170  34.484  10.784  13.812
23953W        W92171   8.094  21.383   2.029
23954W        W92172  43.525  28.100  11.900
23955W        W92173  19.200  42.750  12.478
23956W        W92174  10.096   9.801  14.461
23957W        W92175  44.600   4.976  12.123
23958W        W92176   3.088   4.462  11.094
23959W        W92177  22.398   8.711  12.811
23960W        W92178  38.939  20.320  14.426
23961W        W92179  39.065   9.640  14.407
23962W        W92180  23.708  37.575  14.412
23963W        W92181  37.806  30.569   3.234
23964W        W92182   5.965  18.778   3.269
23965W        W92183   1.754  23.540  14.593
23966W        W92184   5.202  26.791  13.982
23967W        W92185  13.211  36.370  13.895
23968W        W92186  24.228  18.106  13.078
23969W        W92187  22.524  20.950  11.060
23970W        W92188  28.942  18.764   1.443
23971W        W92189  34.897  10.806  10.611
23972W        W92190   3.436  23.391  10.608
23973W        W92191  42.458  11.120  11.127
23974W        W92192  18.215   9.625   3.696
23975W        W92193  12.828  21.774  11.999
23976W        W92194  27.953  31.883   0.924
23977W        W92195  35.450  24.989  13.021
23978W        W92196  12.231  26.657  13.565
23979W        W92197   9.356  15.189  14.425
23980W        W92198  41.517   6.661  14.221
23981W        W92199  17.292   4.906   2.788
23982W        W92200  13.524  18.095   4.983
23983W        W92201   9.178  19.244   2.793
23984W        W92202  10.092  26.427  12.071
23985W        W92203   3.602  42.468   2.226
23986W        W92204  14.837  25.972  12.138
23987W        W92205   9.743  41.853   4.425
23988W        W92206  21.711   5.577   3.237
23989W        W92207  24.131  36.007  11.695
23990W        W92208  41.752  23.421  11.155
23991W        W92209   0.026  22.087  14.488
23992W        W92210   7.156   3.761  10.807
23993W        W92211  23.969  18.059  13.506
23994W        W92212   0.864  28.439   4.573
23995W        W92213  43.521  18.702   0.458
23996W        W92214   9.911  13.037   3.269
23997W        W92215  35.799  29.188   1.815
23998W        W92216  33.444   5.409   5.107
23999W        W92217  26.557  35.607  13.659
24000W        W92218  28.581  19.063  11.511
24001W        W92219  12.784  18.017   3.935
24002W        W92220  27.503  25.078  13.373
24003W        W92221  18.727   7.888  13.771
24004W        W92222  17.581  27.729   2.626
24005W        W92223   9.948   7.210  13.192
24006W        W92224   9.667  35.400   0.277
24007W        W92225  12.795  14.565   0.186
24008W        W92226  13.325  31.301   3.659
24009W        W92227  17.203  41.551   5.084
24010W        W92228  25.949  28.766  12.442
24011W        W92229  27.653  20.070  12.145
24012W        W92230  22.658   7.699  11.643
24013W        W92231   9.909  23.196   2.812
24014W        W92232  29.384  23.956  11.598
24015W        W92233   3.193  43.811  11.670
24016W        W92234  44.677  22.448  14.338
24017W        W92235  30.415   5.329  14.142
24018W        W92236   8.103  15.195  11.087
24019W        W92237  30.951   4.597  12.424
24020W        W92238  41.440  23.496  12.877
24021W        W92239   1.920  24.070   3.341
24022W        W92240  15.033  14.918  14.440
24023W        W92241  25.542  34.180   3.839
24024W        W92242  10.418  17.019   0.395
24025W        W92243  39.841   2.018  14.782
24026W        W92244  24.925  17.840   0.822
24027W        W92245  41.225  22.153  14.257
24028W        W92246   4.168   2.704  13.231
24029W        W92247  30.731  28.555  11.057
24030W        W92248  28.678  27.460  13.813
24031W        W92249  30.497   1.855  14.187
24032W        W92250   6.210  41.491   4.103
24033W        W92251  12.728  16.171  13.520
24034W        W92252  12.758   2.764  13.007
24035W        W92253  20.911  32.478   4.934
24036W        W92254  42.207  30.338  12.882
24037W        W92255  17.038  26.102   1.902
24038W        W92256  20.120  28.075  12.459
24039W        W92257  14.685  39.582   0.052
24040W        W92258  34.026  21.523  12.458
24041W        W92259  22.734  28.112  12.763
24042W        W92260  12.400  20.183   2.687
24043W        W92261  23.159   8.788   4.838
24044W        W92262  25.010  25.099  12.047
24045W        W92263  34.341  35.191   1.295
24046W        W92264   7.809   6.818  12.505
24047W        W92265   8.347   9.293  11.490
24048W        W92266  23.603  11.682   2.422
24049W        W92267  26.119  25.145  10.115
24050W        W92268   9.109  31.216   4.354
24051W        W92269   4.938  17.084  11.634
24052W        W92270  18.127  37.155   4.149
24053W        W92271   2.723  19.089   3.604
24054W        W92272  21.154  15.871   2.804
24055W        W92273  21.494   5.632  13.483
24056W        W92274  30.428   2.258   3.283
24057W        W92275  25.682   0.810  14.718
24058W        W92276  34.132   3.067   1.353
24059W        W92277  24.718   5.180  12.969
24060W        W92278  15.512   1.908  13.040
24061W        W92279  24.646   7.185  10.953
24062W        W92280  31.958  33.204   0.927
24063W        W92281  23.098  44.550  13.478
24064W        W92282  15.437  24.237  13.017
24065W        W92283  44.348  22.878  11.217
24066W        W92284  43.044   1.851   4.815
24067W        W92285  43.504  35.864   2.145
24068W        W92286   0.009   4.202   3.192
24069W        W92287   7.601   0.819  13.501
24070W        W92288  37.658  30.924  11.170
24071W        W92289  38.255   8.317  12.398
24072W        W92290  12.177  26.430   0.021
24073W        W92291  15.319  36.363   2.769
24074W        W92292  39.659   3.942  14.805
24075W        W92293  44.033  41.966  11.122
24076W        W92294  43.595   1.266  11.177
24077W        W92295  35.602  34.133  11.707
24078W        W92296  30.703  22.042   1.316
24079W        W92297  13.610  12.141   3.190
24080W        W92298  14.446  36.541  13.293
24081W        W92299  18.241   3.335   1.934
24082W        W92300  37.796  32.144  14.260
24083W        W92301  27.440  24.259  12.047
24084W        W92302  13.465   6.472   3.399
24085W        W92303  44.437  29.363  10.327
24086W        W92304   5.668  41.196   2.871
24087W        W92305  27.495  43.413  11.766
24088W        W92306  18.027   0.402   3.671
24089W        W92307  30.254  42.895   4.161
24090W        W92308   5.292  16.198   3.416
24091W        W92309  31.373  18.801   0.973
24092W        W92310  36.705  18.386   3.006
24093W        W92311  14.510  20.048  10.763
24094W        W92312  26.648  16.642  10.657
24095W        W92313   7.350   5.703   0.699
24096W        W92314  20.704  20.506   2.394
24097W        W92315  40.876  20.637   2.287
24098W        W92316  13.366   4.306   0.313
24099W        W92317  14.360  37.619   0.845
24100W        W92318  33.085  20.943  11.354
24101W        W92319  21.509  29.870   4.194
24102W        W92320  38.470  11.351   2.279
24103W        W92321  44.508   4.639   1.747
24104W        W92322  12.377  32.573  11.034
24105W        W92323  39.391  13.384   3.211
24106W        W92324  40.594  14.650   0.918
24107W        W92325  36.614  25.569   4.807
24108W        W92326   8.431  37.631  14.389
24109W        W92327  43.841   5.846  10.785
24110W        W92328   4.140  31.126  13.186
24111W        W92329   4.401   0.017   1.847
24112W        W92330  44.763  22.520   2.808
24113W        W92331   5.972   1.240  13.838
24114W        W92332  34.404  26.966   2.156
24115W        W92333   4.106  15.466   3.704
24116W        W92334  25.630  19.638   1.749
24117W        W92335  22.141  41.710   4.708
24118W        W92336  42.827   9.191   3.558
24119W        W92337   7.276  24.578  11.405
24120W        W92338   6.130   2.472   3.239
24121W        W92339  40.524  13.099   2.749
24122W        W92340  14.314  13.284   1.446
24123W        W92341  25.965   4.798   0.792
24124W        W92342  43.337  35.084   4.207
24125W        W92343  35.048  37.300  12.520
24126W        W92344  41.164  11.389  11.617
24127W        W92345  33.080   7.889  12.808
24128W        W92346  10.840  25.595   4.923
24129W        W92347  29.193  40.692  12.518
24130W        W92348   6.650  25.018  14.751
24131W        W92349  24.580  31.045   2.914
24132W        W92350  40.960  43.483  12.455
24133W        W92351   3.914  14.019  11.490
24134W        W92352  14.090  25.208  10.755
24135W        W92353  21.789  11.040  13.875
24136W        W92354  44.101  20.627  11.215
24137W        W92355   6.941  29.521   1.231
24138W        W92356   7.117   9.407   2.629
24139W        W92357  34.988  25.708  11.887
24140W        W92358  37.914  42.578   3.703
24141W        W92359  44.858  17.360   4.136
24142W        W92360  38.293  10.341  10.929
24143W        W92361   8.667  14.733  14.891
24144W        W92362  17.697  21.532   2.239
24145W        W92363  38.388  18.109   2.770
24146W        W92364  32.203  35.018  13.520
24147W        W92365  34.791  24.624   4.909
24148W        W92366  25.754  17.034  11.164
24149W        W92367  30.511  38.516  11.066
24150W        W92368  20.531   0.583   4.924
24151W        W92369  17.207  32.351  14.314
24152W        W92370  39.938  10.396   0.256
24153W        W92371   2.924  27.870   2.158
24154W        W92372   7.470  21.965   4.026
24155W        W92373  44.036  10.612   3.593
24156W        W92374  38.545   9.956   2.753
24157W        W92375  19.342   1.786   2.183
24158W        W92376  38.345  13.111  12.134
24159W        W92377  28.222  21.112   1.028
24160W        W92378   5.052  42.779  10.697
24161W        W92379  42.328  35.182   2.813
24162W        W92380  11.811  27.920   2.441
24163W        W92381  11.688  21.791  13.692
24164W        W92382   8.356  27.712  13.471
24165W        W92383   8.729   8.778  13.905
24166W        W92384  43.514  33.124  13.533
24167W        W92385  29.291  23.529  13.298
24168W        W92386  35.094   3.166   0.012
24169W        W92387  21.537  41.820   0.000
24170W        W92388   1.513  19.610  12.538
24171W        W92389  10.659  41.503   0.774
24172W        W92390  44.596  26.968   1.771
24173W        W92391  15.990  17.216  10.988
24174W        W92392  24.159  35.544  12.879
24175W        W92393   6.492  37.940  11.664
24176W        W92394   9.277  12.637  11.618
24177W        W92395  21.499  26.005   0.039
24178W        W92396   7.256  26.198  12.045
24179W        W92397   2.365  36.217   4.559
24180W        W92398  19.619  28.137  12.952
24181W        W92399  41.987  27.577   2.843
24182W        W92400   1.997  31.607  11.000
24183W        W92401  26.949  30.102  13.865
24184W        W92402  41.909  39.857   1.391
24185W        W92403  25.444  22.167  12.028
24186W        W92404   2.352  24.592   0.677
24187W        W92405  20.104   4.227   4.133
24188W        W92406  36.708  32.446  12.475
24189W        W92407  10.888  12.232   1.467
24190W        W92408   7.054   8.612   2.211
24191W        W92409  10.568  43.613   1.818
24192W        W92410  43.506  12.710  14.734
24193W        W92411  16.229   1.091   1.041
24194W        W92412  20.429  18.226  11.622
24195W        W92413  43.200  34.554   1.040
24196W        W92414  22.472  29.069   2.355
24197W        W92415  13.207  22.177   1.280
24198W        W92416  11.163   8.160   0.833
24199W        W92417  19.282  37.827   3.727
24200W        W92418   8.851  36.899  11.565
24201W        W92419  26.130   3.934  12.505
24202W        W92420  23.856  13.167  11.931
24203W        W92421  16.632  29.394   0.966
24204W        W92422  44.164  13.302  11.972
24205W        W92423   0.474  17.794  12.169
24206W        W92424  15.872  12.011  10.210
24207W        W92425  19.725   9.773   3.752
24208W        W92426  22.796  15.578  10.201
24209W        W92427  31.569   3.123   4.573
24210W        W92428   6.805  28.648   4.408
24211W        W92429  10.247   1.266   1.738
24212W        W92430  27.341  26.129   4.579
24213W        W92431  12.558  30.858   3.876
24214W        W92432  37.407  43.454   2.105
24215W        W92433  19.190  16.366  13.397
24216W        W92434  36.362  16.714   2.896
24217W        W92435   5.356  29.431  14.321
24218W        W92436  29.902  13.416   1.375
24219W        W92437  41.365  31.437  14.004
24220W        W92438   5.491  27.218   0.252
24221W        W92439  14.081   6.644   4.124
24222W        W92440   5.144  22.410  11.538
24223W        W92441  13.771  10.398   0.838
24224W        W92442  10.832  10.369  12.142
24225W        W92443  38.099  11.350   0.800
24226W        W92444  42.805   7.132  14.256
24227W        W92445  25.548  25.956   1.390
24228W        W92446  30.350  20.044   3.425
24229W        W92447  44.795  44.873  12.415
24230W        W92448  32.635  30.972   1.786
24231W        W92449  28.728  43.930   2.088
24232W        W92450  29.987  32.685   2.776
24233W        W92451   6.198  14.133   2.598
24234W        W92452  25.519  21.275   3.715
24235W        W92453  42.771  22.700   0.928
24236W        W92454  29.544   9.692  10.694
24237W        W92455  37.869   3.472  13.907
24238W        W92456  44.741  36.565  12.093
24239W        W92457  44.843  15.851  11.603
24240W        W92458  22.512  43.250   3.345
24241W        W92459  42.390  10.608  11.785
24242W        W92460  13.355   9.583   3.369
24243W        W92461  25.371  26.210   1.798
24244W        W92462  42.004  43.208  11.031
24245W        W92463  33.097  16.842  11.116
24246W        W92464  21.799  21.719   3.018
24247W        W92465  27.620  18.543   1.601
24248W        W92466  12.362  33.035   3.065
24249W        W92467  34.857  31.476   0.852
24250W        W92468  35.950  26.108   2.865
24251W        W92469  27.053  44.745   1.905
24252W        W92470   1.315  27.641   1.691
24253W        W92471  40.025  35.500  11.458
24254W        W92472  28.912  38.889   1.935
24255W        W92473  38.304  29.513   4.240
24256W        W92474  29.524  35.175  14.480
24257W        W92475  17.648  30.839   0.096
24258W        W92476  28.089  32.496  13.373
24259W        W92477  22.061  41.553  10.816
24260W        W92478  38.145   7.311   4.608
24261W        W92479  34.047   9.264  14.390
24262W        W92480   6.122  29.024   9.789
24263W        W92481  10.528  29.531  10.961
24264W        W92482  30.973   2.788   1.311
24265W        W92483  12.356  24.445  13.828
24266W        W92484   3.285  14.893  10.705
24267W        W92485  29.129  35.028   0.407
24268W        W92486   3.306   3.375  11.519
24269W        W92487  26.184  26.980   4.671
24270W        W92488  40.423  13.740  12.626
24271W        W92489  31.086  32.157  10.674
24272W        W92490  44.755   3.252  13.253
24273W        W92491  21.180  38.947  14.843
24274W        W92492  44.301  23.157   1.177
24275W        W92493  44.818  38.424   0.173
24276W        W92494  19.264   5.738   4.101
24277W        W92495   7.323  39.135  13.681
24278W        W92496   9.412  16.296  14.589
24279W        W92497  36.929  35.965  14.879
24280W        W92498   6.413  39.765   4.647
24281W        W92499  27.162   6.052   2.743
24282W        W92500  38.051   6.887   5.027
24283W        W92501   8.976  38.673  12.889
24284W        W92502  19.202   3.911  11.528
24285W        W92503  19.564  18.751   2.153
24286W        W92504  27.329  42.876   3.003
24287W        W92505   3.902  41.041  11.341
24288W        W92506  22.205  16.623   3.629
24289W        W92507  22.051  18.566  13.786
24290W        W92508  27.089  38.564   3.169
24291W        W92509  13.567  29.659   4.791
24292W        W92510   8.630  23.542   0.272
24293W        W92511   6.363   0.226  12.519
24294W        W92512  39.803   5.404   3.111
24295W        W92513  37.479  26.233   0.776
24296W        W92514  43.813  44.797  13.895
24297W        W92515   2.361  20.281   2.250
24298W        W92516  26.250  43.937   2.301
24299W        W92517   5.843  33.460   2.770
24300W        W92518  12.613   6.255   2.460
24301W        W92519  16.298  13.372  11.139
24302W        W92520   0.421  15.097  10.761
24303W        W92521  16.646  28.504   0.963
24304W        W92522  30.379  23.598  12.022
24305W        W92523  22.577  41.927   4.485
24306W        W92524  23.595  15.112  12.622
24307W        W92525  13.132  21.252   2.294
24308W        W92526   0.023  11.081  12.328
24309W        W92527  36.458   2.188   0.851
24310W        W92528  32.345  17.177   0.812
24311W        W92529  42.556  15.123  11.201
24312W        W92530   9.434   0.283   0.761
24313W        W92531  43.854   2.501  14.822
24314W        W92532  32.845  17.593   2.529
24315W        W92533   5.346   5.302   2.327
24316W        W92534  22.673  14.792  12.962
24317W        W92535  18.232   1.773  13.398
24318W        W92536  10.183  29.925  12.991
24319W        W92537  20.650  34.616  11.189
24320W        W92538   3.610  24.807   1.937
24321W        W92539  26.046  44.381   2.135
24322W        W92540  25.252  19.999  11.965
24323W        W92541   1.275  26.686   2.247
24324W        W92542  26.996  35.606  14.911
24325W        W92543  21.157  35.912   4.540
24326W        W92544  40.476   9.177   3.373
24327W        W92545   0.177  13.049   1.943
24328W        W92546  20.801  28.622   3.612
24329W        W92547  17.551  10.968  11.064
24330W        W92548  40.560  20.196   4.543
24331W        W92549  31.009  29.907  14.980
24332W        W92550   2.310  39.547   3.199
24333W        W92551   7.292   7.735  12.030
24334W        W92552  28.190  15.001  14.065
24335W        W92553   7.760   8.094  13.529
24336W        W92554  14.619  32.268   3.854
24337W        W92555   0.446  16.108   3.192
24338W        W92556  33.322   6.666   4.742
24339W        W92557  11.392  32.053   0.402
24340W        W92558  30.064  43.855  14.901
24341W        W92559  41.708   9.895  13.460
24342W        W92560  22.694  25.001   4.545
24343W        W92561  36.818  11.987  11.137
24344W        W92562  10.601  20.518  13.510
24345W        W92563  40.275   4.377   5.078
24346W        W92564  26.486  37.508   1.750
24347W        W92565   4.464  17.195   2.995
24348W        W92566  33.533  33.359   3.118
24349W        W92567  42.846  42.482   0.197
24350W        W92568  31.718  27.583  12.885
24351W        W92569  20.523  42.053   1.947
24352W        W92570  38.149   4.040   3.112
24353W        W92571  36.970  28.884  13.009
24354W        W92572  19.650   9.171   3.204
24355W        W92573  20.831  44.125  12.027
24356W        W92574   8.139   2.640  10.698
24357W        W92575  33.427  33.159   1.050
24358W        W92576  38.507  38.381   1.033
24359W        W92577  31.157  35.391   4.203
24360W        W92578   8.887   9.152   2.330
24361W        W92579  41.760  18.308  13.219
24362W        W92580  37.295   3.578   3.711
24363W        W92581  10.899  15.119   4.484
24364W        W92582   5.677  39.628   1.899
24365W        W92583  38.890  32.320  14.797
24366W        W92584  19.908  32.128  12.412
24367W        W92585  15.663  34.995  11.686
24368W        W92586  35.079   6.678  11.618
24369W        W92587   5.927   7.371  13.153
24370W        W92588  26.894  18.261   3.842
24371W        W92589  44.014  36.170   4.289
24372W        W92590  27.423  35.846  11.041
24373W        W92591  17.671  37.898  11.046
24374W        W92592   1.355  12.663   2.580
24375W        W92593  43.970  13.638  13.783
24376W        W92594   2.758  42.750  12.070
24377W        W92595   7.881  30.447  10.790
24378W        W92596  39.310  17.282  13.554
24379W        W92597  20.135  30.020   2.632
24380W        W92598  34.588  40.751  12.921
24381W        W92599   0.039   4.593   0.796
24382W        W92600  10.600  10.785   1.148
24383W        W92601  22.615  36.217  14.972
24384W        W92602  35.584  28.434   2.252
24385W        W92603  33.698   8.319  11.217
24386W        W92604  32.107  31.640  14.841
24387W        W92605  18.576   6.915  12.520
24388W        W92606  18.649   1.068  11.678
24389W        W92607  23.436  40.548   0.865
24390W        W92608   0.343  14.846   0.276
24391W        W92609  18.796   6.347  14.833
24392W        W92610  12.218  34.816   3.729
24393W        W92611  41.012  41.767  13.012
24394W        W92612   7.824   7.706  14.374
24395W        W92613  28.495  28.403   4.638
24396W        W92614  36.056  24.123   3.571
24397W        W92615  13.560   9.354  10.702
24398W        W92616  41.057  22.567   3.164
24399W        W92617  25.510   8.170   0.734
24400W        W92618  24.191  16.326  12.344
24401W        W92619  32.840  10.368  14.429
24402W        W92620  38.601  11.275   0.869
24403W        W92621  38.557  15.295   3.822
24404W        W92622  16.961  29.008   2.246
24405W        W92623   0.243  13.216  12.065
24406W        W92624   1.393  35.125   4.595
24407W        W92625  20.014  41.022   2.785
24408W        W92626  44.798  37.638  11.231
24409W        W92627  23.662  39.491  14.370
24410W        W92628  37.967   4.614   3.989
24411W        W92629  20.585  27.334   3.203
24412W        W92630  27.672  26.086   1.358
24413W        W92631  23.228  34.093   2.843
24414W        W92632   4.319  40.258   1.731
24415W        W92633   4.317  38.850  12.517
24416W        W92634   3.842  11.847  14.390
24417W        W92635  28.244  11.188   0.971
24418W        W92636  14.606  28.108   0.355
24419W        W92637  13.832  33.081   4.581
24420W        W92638  30.925   1.784   3.849
24421W        W92639  18.167  30.121  10.595
24422W        W92640  29.053  16.275   1.366
24423W        W92641   1.511  26.430  14.741
24424W        W92642  20.153  31.020   0.444
24425W        W92643  17.602  36.102  12.518
24426W        W92644  36.789  32.597   3.081
24427W        W92645  26.473  44.416  10.245
24428W        W92646  17.250  29.668  14.352
24429W        W92647   3.408  10.298  10.589
24430W        W92648  41.334  24.215   4.113
24431W        W92649  19.865  31.748  13.297
24432W        W92650   3.319  42.064   4.535
24433W        W92651  18.052  24.628   1.688
24434W        W92652  10.427  14.098   5.153
24435W        W92653  29.008  43.216   4.113
24436W        W92654   6.910  21.188  13.044
24437W        W92655  21.482  27.219   3.204
24438W        W92656  44.053  10.678  11.629
24439W        W92657  37.912  39.876   1.351
24440W        W92658  14.074   8.156  11.557
24441W        W92659   6.896  40.447  12.118
24442W        W92660  41.277  38.954   2.755
24443W        W92661  20.236  28.703  14.275
24444W        W92662  11.217  31.922  11.147
24445W        W92663  26.091   2.430   0.807
24446W        W92664   6.443  40.347  13.407
24447W        W92665  31.341  21.451   3.173
24448W        W92666  36.083  16.268  12.840
24449W        W92667   8.664   5.426  10.434
24450W        W92668  32.723  36.823   2.197
24451W        W92669  28.310  27.708  14.747
24452W        W92670   6.868  20.253   2.904
24453W        W92671   4.438   4.904   2.344
24454W        W92672  12.842   4.675   1.870
24455W        W92673  30.107  33.538  13.291
24456W        W92674  40.312  11.792   1.501
24457W        W92675  33.466  18.723  10.996
24458W        W92676  32.317  24.723  13.078
24459W        W92677  39.056  37.560  14.969
24460W        W92678  10.829   9.094   2.311
24461W        W92679   3.728  42.387  11.953
24462W        W92680  35.604  44.365  14.408
24463W        W92681  11.328   3.094  13.100
24464W        W92682   8.046  23.824  11.522
24465W        W92683  12.875  31.673  14.569
24466W        W92684  11.331  17.893   5.022
24467W        W92685   1.034  40.480   1.784
24468W        W92686  26.828  33.024  13.774
24469W        W92687   4.336  39.144  10.640
24470W        W92688  33.128  34.873  13.813
24471W        W92689  22.498  13.901   4.347
24472W        W92690  27.189  11.266  12.052
24473W        W92691  40.604  23.463  12.545
24474W        W92692   4.485  20.648  12.216
24475W        W92693  34.341  19.399   1.740
24476W        W92694  43.398  41.004   2.191
24477W        W92695  25.577  42.332   0.729
24478W        W92696  14.631  10.328   1.041
24479W        W92697   9.823  17.603   1.740
24480W        W92698  17.739   1.298  14.754
24481W        W92699  38.060  33.468  10.691
24482W        W92700  32.893  13.868   2.730
24483W        W92701  32.841   1.804  14.721
24484W        W92702  12.239  26.706   1.740
24485W        W92703   1.008   9.165  12.388
24486W        W92704  30.175  43.027   2.205
24487W        W92705  27.292  16.894   4.949
24488W        W92706   8.153  37.956   3.124
24489W        W92707   2.346  14.728   1.471
24490W        W92708  44.842  32.169  11.195
24491W        W92709  20.411  42.687  12.080
24492W        W92710  26.771  25.636   9.833
24493W        W92711  40.219  30.667  12.218
24494W        W92712  42.013  39.498   2.661
24495W        W92713  12.055  21.036  11.218
24496W        W92714  12.747  17.786   2.888
24497W        W92715  13.274  37.102   1.001
24498W        W92716  33.865  20.532  11.572
24499W        W92717  23.049  35.046   3.124
24500W        W92718   3.046  39.938   1.379
24501W        W92719   0.356   8.712   0.515
24502W        W92720   3.011  41.987  14.196
24503W        W92721   7.652  44.801   1.295
24504W        W92722  18.681  30.129   3.318
24505W        W92723  11.626  39.532   4.560
24506W        W92724  39.008  37.347   2.848
24507W        W92725  38.821  29.683  13.426
24508W        W92726  11.914   4.789   2.895
24509W        W92727  16.296  38.843   1.271
24510W        W92728  33.073   0.522   0.397
24511W        W92729  41.875  38.839  12.570
24512W        W92730  20.516  30.513   0.930
24513W        W92731  38.763  34.405  10.786
24514W        W92732  24.724   2.351   0.482
24515W        W92733  20.081  19.183   3.237
24516W        W92734  14.170   9.300   2.799
24517W        W92735  17.583  42.024  14.969
24518W        W92736   5.529   5.730  13.355
24519W        W92737  11.776  19.750   3.251
24520W        W92738   2.888   9.484  14.191
24521W        W92739   5.297   8.348  14.483
24522W        W92740  39.409  31.448  14.781
24523W        W92741  31.082  24.952  12.457
24524W        W92742   8.809  26.794  13.416
24525W        W92743   0.169  26.013  10.599
24526W        W92744  36.056  34.661   4.603
24527W        W92745  30.595   8.859  11.108
24528W        W92746  35.545  26.099   2.540
24529W        W92747  25.161  31.829  13.342
24530W        W92748  37.379  39.888   0.498
24531W        W92749  39.862  16.089   2.976
24532W        W92750  14.779  32.311   1.304
24533W        W92751   2.539  22.298  14.846
24534W        W92752  16.179  36.151   2.312
24535W        W92753  39.091   1.238   0.206
24536W        W92754   7.605  15.862   4.892
24537W        W92755  17.511  14.039  13.031
24538W        W92756  32.911  13.865   3.658
24539W        W92757  18.196  14.314   0.468
24540W        W92758  41.681  32.446   2.667
24541W        W92759  40.103  30.222  14.884
24542W        W92760  33.028  10.289  12.245
24543W        W92761  43.989  39.574  10.726
24544W        W92762  28.591  15.806  13.971
24545W        W92763  17.624  13.728   3.789
24546W        W92764  17.185  23.503   2.148
24547W        W92765  37.626   6.396   3.743
24548W        W92766  15.775  43.786   3.768
24549W        W92767  32.870   0.921   3.531
24550W        W92768  40.277  13.374  14.314
24551W        W92769  23.046   1.232   4.095
24552W        W92770  12.165   9.897  14.862
24553W        W92771   7.420   3.682  11.641
24554W        W92772  34.095   1.199   2.271
24555W        W92773  23.751  13.691  11.160
24556W        W92774   4.507  21.638   2.779
24557W        W92775  44.895  20.037  13.919
24558W        W92776  39.593  12.753  12.030
24559W        W92777  26.491  42.928  11.178
24560W        W92778  25.686  41.286  12.047
24561W        W92779  38.554  30.158  11.514
24562W        W92780  36.855  13.654   2.914
24563W        W92781  15.483  41.610   5.585
24564W        W92782   5.113  27.560   1.597
24565W        W92783  15.119   9.050   1.238
24566W        W92784  10.732  16.099  13.657
24567W        W92785  19.401  33.943   2.648
24568W        W92786  19.223  20.117   2.285
24569W        W92787  40.889   3.316  12.570
24570W        W92788   5.386  22.475  13.375
24571W        W92789  10.935  23.857   4.549
24572W        W92790  19.608  19.549  11.235
24573W        W92791  13.616  24.815   4.051
24574W        W92792   4.721   9.158   3.649
24575W        W92793   6.592  18.327   4.526
24576W        W92794  21.255  21.247  11.517
24577W        W92795   2.017  38.573   3.426
24578W        W92796  33.431  35.094  12.979
24579W        W92797  24.488  12.700   4.197
24580W        W92798  18.964   9.381   0.238
24581W        W92799  16.846   4.503  11.043
24582W        W92800   2.397  18.331  13.208
24583W        W92801  23.148  24.171  12.027
24584W        W92802  15.274   1.256  13.855
24585W        W92803  37.700   7.211   1.838
24586W        W92804   5.769  15.597   1.127
24587W        W92805   8.429  15.507  10.166
24588W        W92806  28.935  31.908   1.769
24589W        W92807  30.370  38.255   1.371
24590W        W92808  39.341  36.363  13.326
24591W        W92809  12.918  18.596  12.157
24592W        W92810  25.425   3.676   0.677
24593W        W92811  12.354  44.377   2.103
24594W        W92812  12.784  30.637   2.075
24595W        W92813  41.241  42.493  14.300
24596W        W92814  35.691  30.151   3.878
24597W        W92815  26.432  18.703  13.825
24598W        W92816  43.737  41.010   4.918
24599W        W92817  32.841   6.324   3.824
24600W        W92818  15.467  38.541   2.140
24601W        W92819  16.891   6.299  10.655
24602W        W92820  28.470   7.598  12.270
24603W        W92821  28.956  21.935  12.590
24604W        W92822   6.348  17.377  13.592
24605W        W92823  32.593  23.481   0.243
24606W        W92824  31.025  14.806   4.994
24607W        W92825  26.135  44.958  10.594
24608W        W92826  36.997   8.480  14.911
24609W        W92827  18.152  11.361   5.483
24610W        W92828  20.724  28.566  13.369
24611W        W92829  31.418  29.108  13.396
24612W        W92830  20.845  36.693   0.719
24613W        W92831  26.041  44.831   2.381
24614W        W92832  33.828   4.390   2.979
24615W        W92833  20.742  38.725  14.605
24616W        W92834  25.253  18.308   4.235
24617W        W92835  23.065  23.510  10.394
24618W        W92836  33.645  44.675  12.862
24619W        W92837  37.822  11.525   4.439
24620W        W92838   8.767  27.288  11.488
24621W        W92839  31.218   3.334  12.902
24622W        W92840   9.813  36.816   0.868
24623W        W92841  40.578  33.076   1.359
24624W        W92842  16.817  32.892   0.332
24625W        W92843   3.983  15.129  12.020
24626W        W92844  11.128  10.809  13.531
24627W        W92845   1.429  35.408   0.264
24628W        W92846  25.230  14.489   3.310
24629W        W92847  21.684  14.913   2.419
24630W        W92848  27.624  24.584  11.151
24631W        W92849  27.237  14.206  14.965
24632W        W92850  31.080  21.052   3.730
24633W        W92851   1.973  33.019  10.547
24634W        W92852   5.669   2.327   2.975
24635W        W92853  14.918  41.789   4.579
24636W        W92854  15.865   8.150  14.434
24637W        W92855  11.818  20.475   3.709
24638W        W92856  15.771  11.897   2.626
24639W        W92857   4.627  25.647   4.128
24640W        W92858  42.872   7.766  12.163
24641W        W92859  42.009  11.941   0.294
24642W        W92860  23.580  25.938   4.005
24643W        W92861  44.290  44.833   0.849
24644W        W92862  32.899   9.642  11.201
24645W        W92863  18.581  40.942  14.172
24646W        W92864   8.441  31.914   4.535
24647W        W92865  42.766   4.155  13.948
24648W        W92866  27.185  18.554   2.665
24649W        W92867  38.460  29.127   0.331
24650W        W92868  12.351   3.528  10.680
24651W        W92869  26.668  44.756   0.202
24652W        W92870  28.361  35.000   2.796
24653W        W92871  15.424  18.481   3.657
24654W        W92872  30.182  17.040   3.459
24655W        W92873  31.435  13.884   2.244
24656W        W92874  19.298  25.660   2.865
24657W        W92875  13.814  14.309   4.817
24658W        W92876  42.017  25.283   1.787
24659W        W92877   0.247  41.047  13.394
24660W        W92878  35.093  43.061  14.884
24661W        W92879  30.634  24.881  12.674
24662W        W92880  28.430  40.508  13.474
24663W        W92881   6.668  21.285  12.577
24664W        W92882  25.643  29.994   2.152
24665W        W92883  16.317   4.452  14.464
24666W        W92884  21.641   4.000   1.022
24667W        W92885  22.617  25.387   3.365
24668W        W92886  29.882  38.159  11.582
24669W        W92887  32.228  25.110   4.165
24670W        W92888  44.011   1.262   4.237
24671W        W92889  38.815  41.043  11.275
24672W        W92890   4.519   1.276   2.785
24673W        W92891  33.944   1.308  11.189
24674W        W92892  33.717  33.091  10.622
24675W        W92893  32.414  18.935   1.796
24676W        W92894  40.086   3.034  12.927
24677W        W92895  17.621  18.111   3.284
24678W        W92896   5.177  27.623   0.323
24679W        W92897   7.120  11.879  12.480
24680W        W92898  19.704  15.656   1.892
24681W        W92899  18.902  29.256   2.073
24682W        W92900  30.679  23.094   3.133
24683W        W92901  35.159  13.248  11.207
24684W        W92902  40.768  43.794   1.294
24685W        W92903  26.154  11.002   1.933
24686W        W92904  12.704  25.045  14.227
24687W        W92905  15.009  42.603   4.152
24688W        W92906  43.877   6.206  11.519
24689W        W92907  14.559   7.054   2.803
24690W        W92908  16.535  13.131  13.895
24691W        W92909   2.648  38.219   1.680
24692W        W92910  23.301  24.652   2.761
24693W        W92911  13.875   0.504  11.454
24694W        W92912  33.045  26.232   3.224
24695W        W92913  25.378  35.608  10.509
24696W        W92914  20.019  10.780  14.694
24697W        W92915  17.755  28.799  14.223
24698W        W92916  41.806   8.775   0.509
24699W        W92917  30.269   4.765  11.524
24700W        W92918  34.366  15.222  10.619
24701W        W92919   8.740  31.574   2.174
24702W        W92920  15.527  24.096  14.330
24703W        W92921  44.431  39.454  10.468
24704W        W92922   5.433  27.948   3.243
24705W        W92923  17.271  13.381  12.437
24706W        W92924  32.544  11.082   3.849
24707W        W92925  29.713  35.886   1.266
24708W        W92926  42.362  20.055  14.340
24709W        W92927  27.008  39.919  12.901
24710W        W92928  25.715  24.256   2.270
24711W        W92929  17.109  35.851  14.337
24712W        W92930  24.499  36.293  12.577
24713W        W92931  38.198   5.722   5.438
24714W        W92932  15.808   5.555   3.247
24715W        W92933  24.987  15.822  13.924
24716W        W92934  17.167  22.153  13.001
24717W        W92935  33.096  16.723   4.676
24718W        W92936  44.575  26.223   1.282
24719W        W92937  42.507  33.986   0.435
24720W        W92938   0.443  14.376   0.449
24721W        W92939  37.046   2.867   1.007
24722W        W92940  11.349  25.454   4.999
24723W        W92941  12.381  41.089  12.330
24724W        W92942   4.895  17.486   9.925
24725W        W92943  13.597   3.288   4.814
24726W        W92944  21.048  28.507  14.734
24727W        W92945  33.379  28.256   3.799
24728W        W92946  18.550  43.497   4.666
24729W        W92947  41.371  18.176  13.531
24730W        W92948  33.895  25.996   1.830
24731W        W92949  14.011  36.590  11.116
24732W        W92950   6.481  19.711   5.078
24733W        W92951  37.941  18.943   2.667
24734W        W92952  28.060  43.338   0.773
24735W        W92953  42.382  25.537  14.595
24736W        W92954  41.060  17.773  13.425
24737W        W92955  37.173  28.147   3.108
24738W        W92956  29.754  42.728   9.883
24739W        W92957  23.083  14.560  13.188
24740W        W92958  40.668  19.564   4.964
24741W        W92959  30.400  26.249   3.200
24742W        W92960  38.281  44.644   2.431
24743W        W92961   1.402  17.367   3.845
24744W        W92962  11.070  22.691  12.947
24745W        W92963  27.512  41.899   4.885
24746W        W92964   0.280  38.066  14.500
24747W        W92965  13.245  27.702   1.360
24748W        W92966  37.466  36.002   1.715
24749W        W92967  26.411   2.226  11.528
24750W        W92968  16.762  16.807  10.631
24751W        W92969  31.197   6.144  13.841
24752W        W92970   5.073  35.124  13.542
24753W        W92971  11.828  41.003   4.964
24754W        W92972   2.516  10.872   3.356
24755W        W92973  41.909  18.343  12.265
24756W        W92974  21.564  31.815  13.862
24757W        W92975  30.175  24.681   1.842
24758W        W92976   1.215  11.391  10.741
24759W        W92977  31.556  16.849  12.900
24760W        W92978  38.698   5.753   4.949
24761W        W92979  25.944  19.325  11.509
24762W        W92980  41.418  29.627   1.232
24763W        W92981  32.348  22.810   3.447
24764W        W92982  37.653   1.174   0.322
24765W        W92983  39.558   9.114   3.162
24766W        W92984  31.019  41.540   3.627
24767W        W92985  35.624   3.965  14.426
24768W        W92986  34.520  41.805  11.945
24769W        W92987  22.777  40.134  11.403
24770W        W92988  41.862   2.857   0.446
24771W        W92989  25.997  27.968   2.267
24772W        W92990  41.735  14.286   2.064
24773W        W92991  37.766  29.199  10.636
24774W        W92992  20.077  24.611   3.393
24775W        W92993   6.788  13.337   4.066
24776W        W92994  43.362  26.406   3.664
24777W        W92995   5.184  40.373   1.738
24778W        W92996  32.077  31.833   4.235
24779W        W92997  22.781   2.055   2.335
24780W        W92998  34.097  29.840   9.872
24781W        W92999   5.029  24.894  11.200
24782W        W93000   3.508  41.968  12.171
24783W        W93001  20.445  23.978  13.837
24784W        W93002   1.876  22.025  11.955
24785W        W93003  11.363  13.764   0.129
24786W        W93004  12.669  41.784  12.955
24787W        W93005  30.922  31.421  11.552
24788W        W93006  25.240  15.852  10.680
24789W        W93007   3.227  10.854   2.242
24790W        W93008  25.395  37.576  11.235
24791W        W93009  19.041  11.273  11.927
24792W        W93010  25.461   4.780   2.264
24793W        W93011   5.302  44.694   0.942
24794W        W93012  20.435   7.180   4.780
24795W        W93013   0.812  37.556   1.214
24796W        W93014  13.608  43.282  13.294
24797W        W93015   7.163  13.283  11.062
24798W        W93016  30.607  39.821  10.795
24799W        W93017  11.638   2.901   3.899
24800W        W93018  38.644  21.756   2.282
24801W        W93019   8.715  42.884   0.291
24802W        W93020  26.573  34.604  13.491
24803W        W93021  44.501  29.999   0.937
24804W        W93022  39.822  26.110   2.788
24805W        W93023  15.697  29.556  12.201
24806W        W93024  44.338  27.914   3.222
24807W        W93025  25.989  25.705   3.577
24808W        W93026  41.296   4.526   0.290
24809W        W93027  27.990   2.354   1.254
24810W        W93028  38.543  10.843  13.340
24811W        W93029  27.165  42.312  12.966
24812W        W93030   1.250  29.476  14.979
24813W        W93031  24.030  36.936  12.119
24814W        W93032  23.603  14.808   1.202
24815W        W93033  39.486  42.388   2.886
24816W        W93034  26.174  11.623   2.742
24817W        W93035  40.994  39.535  13.186
24818W        W93036  35.854  17.190  10.692
24819W        W93037  21.589  20.163  12.577
24820W        W93038  40.067   8.192   1.334
24821W        W93039  15.830   6.081  14.971
24822W        W93040  28.949   3.679   2.513
24823W        W93041  33.454  44.706   4.627
24824W        W93042  15.587  37.481   3.582
24825W        W93043   4.579   1.318  14.657
24826W        W93044  13.089  19.610   5.078
24827W        W93045  27.115  17.812   3.995
24828W        W93046  28.482  40.580   1.871
24829W        W93047  39.746  12.183   4.611
24830W        W93048  24.791  31.479   0.346
24831W        W93049  25.860  12.760   4.119
24832W        W93050  39.595   1.704   1.049
24833W        W93051  44.800  25.865  12.512
24834W        W93052   4.226  12.605   2.813
24835W        W93053  37.517  41.919   2.593
24836W        W93054   7.682  27.222   2.212
24837W        W93055  34.067  41.162  10.978
24838W        W93056  25.261  28.572  14.783
24839W        W93057  20.994  18.129   2.082
24840W        W93058   3.275   1.034  11.985
24841W        W93059  40.269  23.753  14.431
24842W        W93060   2.121  18.738   1.333
24843W        W93061  35.819  33.330   2.079
24844W        W93062  33.413  33.305   4.979
24845W        W93063  41.029   8.121  13.881
24846W        W93064  44.476  25.282   3.151
24847W        W93065  24.141  33.820   4.263
24848W        W93066  14.618  24.112   4.611
24849W        W93067   6.971  28.117   3.217
24850W        W93068  32.057  37.395  14.855
24851W        W93069   0.576  23.547   0.382
24852W        W93070  43.034  21.576   0.125
24853W        W93071   9.479  15.796  13.858
24854W        W93072  24.732  31.027   1.977
24855W        W93073  33.227  27.149  12.531
24856W        W93074  17.010  17.706   3.773
24857W        W93075  24.193  18.267   2.361
24858W        W93076  25.224  17.623  14.379
24859W        W93077  30.002  26.644  11.352
24860W        W93078  14.634  41.776   4.151
24861W        W93079  28.074  44.309   2.825
24862W        W93080   8.504   1.228   2.680
24863W        W93081  40.144  27.673  14.899
24864W        W93082  30.396  37.889   2.774
24865W        W93083   3.408  33.004   4.731
24866W        W93084  41.365  27.740   2.791
24867W        W93085   5.258  19.611   2.266
24868W        W93086  40.084  32.906   1.302
24869W        W93087  30.700   0.486  12.979
24870W        W93088  32.060  14.735   0.732
24871W        W93089  22.424  42.783   4.383
24872W        W93090  29.979  43.327  14.318
24873W        W93091  28.196  37.571   4.720
24874W        W93092  16.071  34.410  14.011
24875W        W93093  28.857   8.776  10.538
24876W        W93094  37.686  40.604  12.505
24877W        W93095  39.015  21.309   4.111
24878W        W93096  16.148  38.811  12.245
24879W        W93097   0.925   9.765  13.533
24880W        W93098  39.576  16.567   1.261
24881W        W93099  26.654   4.579   2.039
24882W        W93100  30.329  37.017   2.685
24883W        W93101  27.126  11.165  13.518
24884W        W93102  37.470   8.190  13.014
24885W        W93103  12.836  15.390  11.049
24886W        W93104  15.017  34.379   0.831
24887W        W93105  10.041  11.220  13.405
24888W        W93106  18.684   0.743   4.079
24889W        W93107  33.372  42.443  12.044
24890W        W93108  19.008  36.444  14.860
24891W        W93109   9.312  37.345  11.645
24892W        W93110  13.821   8.633  13.780
24893W        W93111   1.252  17.171   0.421
24894W        W93112  32.726  20.193   2.237
24895W        W93113   7.238   2.690  10.740
24896W        W93114  17.873  28.142   0.424
24897W        W93115  21.943  18.395  13.315
24898W        W93116  19.050  34.931  12.419
24899W        W93117  36.590  37.497  12.440
24900W        W93118   9.654  43.337  13.848
24901W        W93119  41.093  31.527   4.942
24902W        W93120   8.650   7.433   2.682
24903W        W93121   5.299  25.188   1.320
24904W        W93122  10.159  29.383  12.983
24905W        W93123  18.090  41.065   4.469
24906W        W93124  27.285  33.411  11.130
24907W        W93125  35.328  42.995   4.342
24908W        W93126  12.355  22.579  11.553
24909W        W93127  24.993  12.889   0.946
24910W        W93128  24.026   9.087   1.292
24911W        W93129  22.047  21.509   3.805
24912W        W93130   3.889  41.255  13.543
24913W        W93131   1.175  10.318   0.528
24914W        W93132   3.131  32.013   0.813
24915W        W93133   5.599  36.581   4.762
24916W        W93134   5.596   4.909   3.993
24917W        W93135  23.576  21.941   2.350
24918W        W93136  20.699  11.206   3.659
24919W        W93137  16.783  42.909  10.834
24920W        W93138  35.545  21.186   0.880
24921W        W93139  44.544  24.558   1.785
24922W        W93140   2.916  32.703   1.397
24923W        W93141  39.436  21.512  10.852
24924W        W93142  32.121   8.654   3.286
24925W        W93143  40.440  25.260   3.768
24926W        W93144   4.739  18.044   3.576
24927W        W93145   2.947  26.639   0.783
24928W        W93146  24.695  34.411  12.321
24929W        W93147  16.419  31.036   1.985
24930W        W93148  16.625   9.680   0.281
24931W        W93149  42.577   0.996  14.329
24932W        W93150  34.300  35.190   2.122
24933W        W93151  22.548  28.459  10.726
24934W        W93152  34.998  18.097  11.492
24935W        W93153  40.142  14.885   0.958
24936W        W93154  10.914  40.132   2.221
24937W        W93155  12.566   1.475  13.519
24938W        W93156  36.608  24.997   1.885
24939W        W93157  16.215  21.794   2.833
24940W        W93158  10.133  18.841   0.889
24941W        W93159  43.122  42.592   1.043
24942W        W93160   8.413  40.005  14.384
24943W        W93161  41.432  39.545  14.254
24944W        W93162   0.991  25.656   2.241
24945W        W93163  29.159  24.499  13.421
24946W        W93164  34.481  20.297  11.589
24947W        W93165  23.475  22.041   3.180
24948W        W93166  44.302   6.598   4.287
24949W        W93167  10.333  23.683  12.563
24950W        W93168  15.302  33.266  11.115
24951W        W93169  16.552  39.326   0.363
24952W        W93170  10.841   8.493  11.408
24953W        W93171  32.847   0.927  14.173
24954W        W93172  44.741  43.272   3.131
24955W        W93173  22.774  44.234   2.392
24956W        W93174  24.727  31.402   3.264
24957W        W93175  39.443  22.609  12.127
24958W        W93176  28.318   5.207  10.677
24959W        W93177  23.457   4.787   3.202
24960W        W93178  22.687  12.587   3.736
24961W        W93179  21.861  36.817   1.722
24962W        W93180  28.591   3.725   4.773
24963W        W93181  30.052  27.465  13.303
24964W        W93182  28.516  16.668  14.242
24965W        W93183  15.617   1.869  11.655
24966W        W93184  26.035   5.388  10.716
24967W        W93185  32.628  36.322   2.227
24968W        W93186  27.986  32.715  14.313
24969W        W93187  19.466  30.998  10.640
24970W        W93188  14.644   4.228   0.809
24971W        W93189  29.983  23.262   4.727
24972W        W93190  41.645   0.727   3.688
24973W        W93191   4.181  15.768   4.292
24974W        W93192  33.456  24.222   2.142
24975W        W93193  35.333  30.198   4.680
24976W        W93194  24.873   5.891  10.624
24977W        W93195  12.503  25.551   2.420
24978W        W93196  30.892   3.664  13.440
24979W        W93197  36.852  16.776  14.773
24980W        W93198  32.188  20.727  13.055
24981W        W93199  36.387  36.010  14.787
24982W        W93200  23.983   3.290  13.901
24983W        W93201  33.392  41.457  10.414
24984W        W93202   7.310   7.436   4.019
24985W        W93203  12.581  28.479  13.341
24986W        W93204  38.324  30.945  12.535
24987W        W93205  37.888  26.575  13.332
24988W        W93206  35.492  30.119   5.683
24989W        W93207  20.683  12.080   4.635
24990W        W93208  31.042  15.185  11.078
24991W        W93209  37.326  14.957   0.715
24992W        W93210  35.192  34.163  14.111
24993W        W93211  29.920  19.071   1.628
24994W        W93212  14.281  36.355   0.261
24995W        W93213   9.900  18.788  12.961
24996W        W93214   3.759  22.916   1.397
24997W        W93215  30.948   3.489  11.699
24998W        W93216  34.435  15.748   3.079
24999W        W93217  10.336   9.425  13.922
25000W        W93218  18.139  22.095  13.156
25001W        W93219   0.347   3.380  12.095
25002W        W93220  20.164  39.071  11.121
25003W        W93221  29.150  30.544   1.239
25004W        W93222  11.330  18.659  11.643
25005W        W93223  11.361   9.809  12.923
25006W        W93224   2.724  25.605   0.972
25007W        W93225  20.722  22.558  12.863
25008W        W93226  32.879  11.043  10.447
25009W        W93227  41.993  25.446  11.856
25010W        W93228  19.633   5.270  12.482
25011W        W93229   3.435   1.210   1.760
25012W        W93230  39.457  30.724   2.832
25013W        W93231  33.368  20.082  14.495
25014W        W93232   0.885  19.230  12.169
25015W        W93233  23.271   4.765  12.138
25016W        W93234  27.811   0.305  10.548
25017W        W93235  12.566   1.428  10.691
25018W        W93236  37.334  13.133  11.954
25019W        W93237  22.139   7.517  13.259
25020W        W93238   8.791  42.498   2.291
25021W        W93239  38.566  37.398   3.116
25022W        W93240  29.658   6.254  13.743
25023W        W93241  18.941  42.331  12.634
25024W        W93242  34.546  36.123   0.372
25025W        W93243  16.175  44.586  14.074
25026W        W93244  32.982  37.897   1.143
25027W        W93245  31.773   8.351   1.764
25028W        W93246   1.291  43.753   4.538
25029W        W93247  34.443  23.497   3.434
25030W        W93248  32.189  40.305  11.269
25031W        W93249  20.027  23.143  10.625
25032W        W93250  27.219  29.139  13.354
25033W        W93251  39.609  44.416   2.737
25034W        W93252  16.785  13.746   0.087
25035W        W93253  17.491  38.469  11.811
25036W        W93254  21.104  35.964   5.380
25037W        W93255  30.190  11.803  14.817
25038W        W93256   5.576  29.067   3.774
25039W        W93257  29.530   3.448   4.539
25040W        W93258   6.681  42.990   1.321
25041W        W93259  41.878  12.674  14.010
25042W        W93260  41.693  40.130  12.209
25043W        W93261  32.475  20.273   3.541
25044W        W93262  28.205   1.732   0.793
25045W        W93263   6.782  27.401  12.970
25046W        W93264  33.068  24.490   2.344
25047W        W93265  21.856  38.701  10.626
25048W        W93266  22.307  31.565   0.879
25049W        W93267  33.068  40.596  12.151
25050W        W93268   4.213  34.127   0.935
25051W        W93269   8.926  26.864   0.473
25052W        W93270  25.911  28.493  11.590
25053W        W93271  11.379  28.671   2.193
25054W        W93272  25.388  33.520  14.812
25055W        W93273   2.521  38.430  12.059
25056W        W93274  35.598  23.715  11.583
25057W        W93275   9.789   0.297  12.088
25058W        W93276  22.477  13.729   3.273
25059W        W93277  13.594   6.891   4.071
25060W        W93278   7.992   9.562  14.597
25061W        W93279  23.947  10.815   2.814
25062W        W93280  28.523  16.514  13.387
25063W        W93281  39.262  36.135  10.638
25064W        W93282  30.429  39.788   2.762
25065W        W93283   9.010   9.710  14.531
25066W        W93284  26.692   4.453   0.802
25067W        W93285  14.833   0.714   2.202
25068W        W93286  10.717  25.011   0.794
25069W        W93287  42.493  16.902  11.675
25070W        W93288  17.652   3.752  11.742
25071W        W93289  32.896  26.632  14.893
25072W        W93290  15.254  24.522   1.678
25073W        W93291  27.121  35.513  12.940
25074W        W93292   7.397  20.082   2.870
25075W        W93293  42.491   0.531   0.944
25076W        W93294  19.559  17.738   2.410
25077W        W93295  22.804  27.644  12.459
25078W        W93296  34.407  21.637   4.677
25079W        W93297  24.377   9.058  12.517
25080W        W93298  40.923  34.887  11.666
25081W        W93299  34.394  23.724  11.206
25082W        W93300  25.110  17.562  14.862
25083W        W93301  26.135  17.271   3.235
25084W        W93302  18.248  28.161  14.141
25085W        W93303  37.424  18.493  14.819
25086W        W93304  31.100  33.399   2.256
25087W        W93305  32.431  24.632  12.556
25088W        W93306  36.253   7.101  11.219
25089W        W93307  40.870   6.626  12.860
25090W        W93308  19.934  40.532   4.553
25091W        W93309  44.517  23.543   4.652
25092W        W93310  28.548  11.588   1.342
25093W        W93311  25.990  14.772   0.010
25094W        W93312  20.781   4.413  14.931
25095W        W93313  20.625   3.734   4.692
25096W        W93314   5.341  32.320  12.006
25097W        W93315  16.659  29.420   1.965
25098W        W93316  27.199  20.243  11.469
25099W        W93317   8.312  44.746  11.654
25100W        W93318  22.493  14.588   2.819
25101W        W93319  43.500   9.659  13.349
25102W        W93320  21.276  30.899  14.847
25103W        W93321   3.356  42.320  14.029
25104W        W93322  14.466  18.375   2.246
25105W        W93323  14.837  39.784   4.480
25106W        W93324   1.172   1.739  11.778
25107W        W93325  32.582  16.557  13.875
25108W        W93326  17.079  23.777  14.131
25109W        W93327  13.332  22.393  14.936
25110W        W93328   2.853  35.793   0.466
25111W        W93329  19.535   3.525   3.123
25112W        W93330  34.561  20.071  11.099
25113W        W93331  18.943  25.778  13.030
25114W        W93332  39.940  32.750   0.817
25115W        W93333   5.786  43.751  13.858
25116W        W93334  23.013  27.040   2.306
25117W        W93335  25.492  13.636  11.566
25118W        W93336  41.402  17.992  14.913
25119W        W93337  13.208  26.688  12.541
25120W        W93338   2.840  11.553   2.725
25121W        W93339  12.611  35.373  13.002
25122W        W93340   4.998  40.740  10.135
25123W        W93341  21.233  35.318   3.686
25124W        W93342   7.893  32.084   1.273
25125W        W93343  35.661  35.522   3.893
25126W        W93344  23.075  38.047   0.851
25127W        W93345  28.109  12.389  11.954
25128W        W93346  43.335  34.199   3.249
25129W        W93347  26.670   3.781  14.383
25130W        W93348  27.213  19.790  12.380
25131W        W93349   2.826  16.130  10.750
25132W        W93350   8.334  10.895  11.603
25133W        W93351   8.578   8.742   2.343
25134W        W93352   5.824  35.886  10.999
25135W        W93353  23.469  39.455   4.130
25136W        W93354   2.405  17.590   1.714
25137W        W93355   2.386  41.864  14.884
25138W        W93356   8.743  18.547   3.721
25139W        W93357   1.999  13.747   4.698
25140W        W93358  36.729  44.946   2.270
25141W        W93359   4.465  22.664  13.761
25142W        W93360  22.977  31.077   2.100
25143W        W93361  28.888   6.006   2.263
25144W        W93362  22.740  24.030   2.223
25145W        W93363  18.639  24.699   2.133
25146W        W93364  10.918  23.982   0.381
25147W        W93365   7.331  32.058   2.208
25148W        W93366  16.535   9.189   0.475
25149W        W93367   3.747   1.140  11.133
25150W        W93368  28.146  28.655   0.922
25151W        W93369  15.873  19.124  13.102
25152W        W93370  18.819  23.770  13.530
25153W        W93371  41.927   3.922  12.943
25154W        W93372   7.580  30.518   2.783
25155W        W93373  23.516  19.664   4.487
25156W        W93374  37.816  17.804  10.788
25157W        W93375  12.598  13.454  10.903
25158W        W93376  27.665  27.080  11.662
25159W        W93377  19.673  26.558   0.032
25160W        W93378  25.543  20.784   3.832
25161W        W93379  41.329  11.650   3.382
25162W        W93380  31.374   1.495  12.544
25163W        W93381  18.458  43.369  12.799
25164W        W93382  20.325   5.552  12.702
25165W        W93383  18.592  27.544  12.577
25166W        W93384  40.983  34.015   3.628
25167W        W93385  12.731  32.144   2.764
25168W        W93386   8.446   9.588  12.002
25169W        W93387  15.743  30.423  14.957
25170W        W93388  23.052  19.514   1.364
25171W        W93389  38.313  44.944  11.840
25172W        W93390  20.771  39.828   4.267
25173W        W93391  10.665  41.926   3.092
25174W        W93392  28.088  35.890  10.558
25175W        W93393  17.245  43.385  14.393
25176W        W93394   0.968   7.716   2.443
25177W        W93395   6.890  40.954  12.383
25178W        W93396  29.136  13.413   0.048
25179W        W93397  21.743  28.279  10.377
25180W        W93398  19.748   0.443  13.419
25181W        W93399  27.230  30.184   3.714
25182W        W93400  32.950  39.503  13.991
25183W        W93401  25.685  20.638   0.026
25184W        W93402  34.914  42.474   3.309
25185W        W93403  30.080  23.445  14.904
25186W        W93404  44.541  43.602   1.801
25187W        W93405  16.583  24.117  14.792
25188W        W93406  17.162   9.672   1.538
25189W        W93407  18.626   5.314  13.299
25190W        W93408  42.883  16.188   2.693
25191W        W93409   1.912  24.454   2.250
25192W        W93410   6.230   2.524  14.297
25193W        W93411  44.021   2.023   3.858
25194W        W93412  28.573   5.399  13.394
25195W        W93413   3.412  24.346   1.244
25196W        W93414  32.650  35.668   2.706
25197W        W93415  16.526  24.417   3.325
25198W        W93416  36.129  29.036  14.350
25199W        W93417  28.464  37.127   3.222
25200W        W93418  13.089  30.961  14.327
25201W        W93419  19.506   2.033  10.612
25202W        W93420  16.528  14.147  11.595
25203W        W93421  40.106   3.528  11.137
25204W        W93422  40.946  15.555  12.005
25205W        W93423   3.314  25.646   4.000
25206W        W93424   6.041  32.585   0.315
25207W        W93425  35.408  29.149  13.778
25208W        W93426  38.153   3.214  14.664
25209W        W93427  32.226   1.041   4.698
25210W        W93428  25.783  36.900  13.497
25211W        W93429  23.157  26.455   2.180
25212W        W93430  25.587  13.409   1.307
25213W        W93431  18.117  39.433   3.577
25214W        W93432  13.662   4.713  12.981
25215W        W93433  23.002   7.365   3.596
25216W        W93434  13.985  13.075  10.721
25217W        W93435  13.358  21.705  10.828
25218W        W93436  15.643  31.501  12.298
25219W        W93437  41.871  20.133   0.522
25220W        W93438  44.999  41.367   2.769
25221W        W93439  40.616  13.731   1.697
25222W        W93440  35.453   5.843  14.351
25223W        W93441  13.924   4.982   2.707
25224W        W93442  14.262   7.444   3.034
25225W        W93443  19.504  37.102  11.418
25226W        W93444  41.351  35.077  11.944
25227W        W93445  31.804   5.824   2.020
25228W        W93446  38.624   7.384   2.249
25229W        W93447  28.137   9.514  13.524
25230W        W93448  12.631   4.685   3.197
25231W        W93449  14.333   4.484  11.110
25232W        W93450  17.745  16.220   3.787
25233W        W93451  16.262  29.058  13.894
25234W        W93452  37.770  12.564  12.412
25235W        W93453   9.658  40.753   3.233
25236W        W93454  19.083   7.190   3.282
25237W        W93455  34.175   5.791  11.090
25238W        W93456  16.357   6.125  14.926
25239W        W93457   6.793  16.286  12.865
25240W        W93458  23.678  19.071  14.551
25241W        W93459  17.709  30.680   1.792
25242W        W93460   4.015  17.453  11.443
25243W        W93461   9.508  12.833  11.177
25244W        W93462  24.971  43.424   2.267
25245W        W93463   3.583  31.111   3.233
25246W        W93464  12.687  33.428   4.215
25247W        W93465  12.639  11.077  14.541
25248W        W93466  31.452  19.137  13.614
25249W        W93467  17.282  10.094  14.780
25250W        W93468   6.125  40.159  11.543
25251W        W93469   9.011  14.558   4.937
25252W        W93470  10.432  36.038   1.484
25253W        W93471   1.210  18.337   2.265
25254W        W93472  36.222   6.684   0.394
25255W        W93473   9.453  13.234   3.253
25256W        W93474  19.754  43.481  12.537
25257W        W93475  16.287  14.696   0.077
25258W        W93476   2.485   3.418  12.795
25259W        W93477  43.768  29.200  11.642
25260W        W93478  21.723   7.087   3.138
25261W        W93479  34.434   5.869   2.702
25262W        W93480  30.163  43.920   0.978
25263W        W93481  40.617  18.643  10.413
25264W        W93482   6.114  21.529   1.279
25265W        W93483  21.211  24.693  12.416
25266W        W93484  31.835  14.124  11.183
25267W        W93485  24.541  34.760  13.431
25268W        W93486  29.706  33.679  13.638
25269W        W93487  18.597  44.716   4.146
25270W        W93488  26.235   1.486   3.819
25271W        W93489  32.988  17.548   4.269
25272W        W93490  38.866   3.499   2.772
25273W        W93491  17.556  26.556  12.014
25274W        W93492  30.148  27.612   3.292
25275W        W93493   3.208  31.262   0.739
25276W        W93494   2.397   1.329  12.473
25277W        W93495  41.897  24.279  12.437
25278W        W93496  28.870  18.643  13.301
25279W        W93497  21.654  18.363  11.979
25280W        W93498   7.806  18.309   2.761
25281W        W93499   2.209  38.623   1.659
25282W        W93500  31.670  10.242   2.642
25283W        W93501  15.146  16.320   3.518
25284W        W93502  30.987  24.956  11.024
25285W        W93503  10.139  23.466  10.164
25286W        W93504   6.695  16.553   1.348
25287W        W93505  32.120  12.830   3.611
25288W        W93506  33.410   0.191  10.776
25289W        W93507  24.565  11.655  13.376
25290W        W93508  44.797  36.375  10.786
25291W        W93509   3.224  14.560  12.016
25292W        W93510  20.292  38.544   0.766
25293W        W93511  23.280  21.779  10.946
25294W        W93512   0.907  14.646   1.662
25295W        W93513  37.191  22.024  11.679
25296W        W93514  13.235  40.341   2.113
25297W        W93515   2.771   0.258  13.286
25298W        W93516   0.911  44.927   4.545
25299W        W93517  19.660  10.651   2.800
25300W        W93518   4.920  43.075  11.100
25301W        W93519  10.798  42.909  13.030
25302W        W93520   5.454  21.971   1.928
25303W        W93521   0.525  15.368   2.501
25304W        W93522   8.694  29.440  11.652
25305W        W93523  22.778  42.817   1.216
25306W        W93524  16.642  25.782   1.144
25307W        W93525  23.257  42.544   4.108
25308W        W93526  19.738  34.951   2.864
25309W        W93527  31.429  35.539   4.854
25310W        W93528  28.324  14.058   5.020
25311W        W93529  39.044  16.146  11.643
25312W        W93530  31.941  19.585   3.745
25313W        W93531  13.203  37.122  12.546
25314W        W93532  25.926  27.285  13.492
25315W        W93533  32.637  18.142   3.064
25316W        W93534   2.689  34.847  11.808
25317W        W93535   8.756  37.552  14.799
25318W        W93536  44.437   8.892   4.251
25319W        W93537  21.454  25.133   1.429
25320W        W93538  12.102   8.389   4.010
25321W        W93539  29.002  30.950  13.795
25322W        W93540  19.191  23.225   4.150
25323W        W93541  13.396  34.361  14.815
25324W        W93542  32.707  43.541   4.428
25325W        W93543  18.180   9.171   4.980
25326W        W93544   5.423  33.065   1.524
25327W        W93545  40.422   7.895  11.383
25328W        W93546  17.062  19.221   1.329
25329W        W93547  28.838  30.397  11.835
25330W        W93548   7.157  29.591  12.834
25331W        W93549  28.655  18.380   4.114
25332W        W93550   5.176  34.534  10.788
25333W        W93551  41.846  39.987   3.735
25334W        W93552  26.890  25.747   2.745
25335W        W93553  10.928   9.560   3.269
25336W        W93554  21.784   8.867  11.603
25337W        W93555  30.983  32.538  11.448
25338W        W93556  24.734  12.396   4.722
25339W        W93557  24.967   9.756  10.958
25340W        W93558  37.944  23.787   0.873
25341W        W93559  12.215  35.358   2.808
25342W        W93560  18.827  14.727   2.677
25343W        W93561  39.941  30.946   2.891
25344W        W93562  34.430  42.573  11.506
25345W        W93563   2.987   5.696  10.736
25346W        W93564   8.319  41.131   2.315
25347W        W93565   6.887  28.260   2.742
25348W        W93566  25.323  25.125  13.979
25349W        W93567   6.303  37.496  14.064
25350W        W93568   5.667  29.131   1.344
25351W        W93569  33.003  18.026   0.787
25352W        W93570  39.983  36.021  11.414
25353W        W93571  28.016  41.798  11.123
25354W        W93572  28.661  28.520   4.164
25355W        W93573  14.283  19.989  12.054
25356W        W93574  13.752  32.399  11.030
25357W        W93575  44.880  32.292   5.127
25358W        W93576  42.718  23.982  11.685
25359W        W93577  11.838   9.315   1.706
25360W        W93578   0.685  22.765  11.696
25361W        W93579  27.479  37.313   0.103
25362W        W93580  10.273  35.263  10.871
25363W        W93581  18.091  14.297  14.535
25364W        W93582  25.079  34.392  14.459
25365W        W93583  27.182  42.462  12.472
25366W        W93584  35.484  20.036   1.680
25367W        W93585  15.716  35.977  11.282
25368W        W93586  31.345  31.081  11.590
25369W        W93587   7.981  25.207  10.207
25370W        W93588  14.814   2.930   4.503
25371W        W93589   5.457  20.943  11.935
25372W        W93590  41.322  14.706  10.749
25373W        W93591  21.697  25.539   3.119
25374W        W93592   3.268  32.634  11.569
25375W        W93593  40.862  17.837   0.290
25376W        W93594   4.317  16.670  14.589
25377W        W93595  14.360   7.920  11.192
25378W        W93596  31.925  29.472   3.830
25379W        W93597  14.358  41.504  11.602
25380W        W93598   9.100  15.772   4.219
25381W        W93599  38.905  43.839   1.255
25382W        W93600  23.519  20.859   1.302
25383W        W93601   4.040   3.371   0.700
25384W        W93602  21.666   8.117   3.327
25385W        W93603   7.130  16.715  13.760
25386W        W93604  34.413  13.925   3.712
25387W        W93605  28.948  31.111   4.664
25388W        W93606  42.292   4.967   3.356
25389W        W93607   1.420  16.196   0.191
25390W        W93608  28.899   2.287   3.090
25391W        W93609  37.484  25.148   4.291
25392W        W93610  30.241  44.026  13.894
25393W        W93611  16.337   8.077  14.212
25394W        W93612  23.609  10.221  13.980
25395W        W93613  22.692  27.728  11.200
25396W        W93614  19.050  15.744  14.083
25397W        W93615  20.362  21.274  12.007
25398W        W93616  23.062  40.944  13.597
25399W        W93617  42.964   0.804  14.626
25400W        W93618  22.310  33.744   1.763
25401W        W93619  25.904  44.424  13.822
25402W        W93620  36.632  36.476  11.444
25403W        W93621  33.437  18.224  11.625
25404W        W93622   0.603  17.645  13.955
25405W        W93623  19.352  32.819  10.224
25406W        W93624  19.392  27.494  14.184
25407W        W93625  11.293  33.042   3.115
25408W        W93626  40.464  13.474  10.594
25409W        W93627  11.355   3.287   1.280
25410W        W93628  25.578   6.646  11.229
25411W        W93629  14.303  23.611   1.995
25412W        W93630  29.791  42.116  13.974
25413W        W93631   9.393  41.344  13.123
25414W        W93632  12.701  13.296  14.084
25415W        W93633   9.796  31.689   3.772
25416W        W93634  20.016  35.485  14.578
25417W        W93635  22.649  35.066   1.284
25418W        W93636  23.214  39.889   3.507
25419W        W93637  22.692  35.388   2.965
25420W        W93638   5.961  18.550   1.193
25421W        W93639  20.479  43.783  13.824
25422W        W93640  36.907  14.807   0.986
25423W        W93641  11.875  40.322   4.235
25424W        W93642  32.498  29.983   2.884
25425W        W93643  23.128   1.287   0.706
25426W        W93644  15.679  44.295  10.994
25427W        W93645  37.527   0.426  12.155
25428W        W93646  40.069  19.098   0.359
25429W        W93647  20.312  36.015   4.214
25430W        W93648   9.690  36.807   0.351
25431W        W93649   2.595  44.345   5.155
25432W        W93650   5.827   6.313  10.969
25433W        W93651  40.976  33.779  13.073
25434W        W93652  30.448  31.050   1.549
25435W        W93653  23.299  32.514   3.210
25436W        W93654   6.741  43.777  13.857
25437W        W93655  14.465   0.969   2.737
25438W        W93656  40.210  15.680  14.757
25439W        W93657  11.682  39.612  13.003
25440W        W93658  14.770  39.452  11.211
25441W        W93659  39.026   7.845   3.185
25442W        W93660   6.319   0.831   4.162
25443W        W93661  31.945  37.979  13.455
25444W        W93662   6.329  27.770   4.660
25445W        W93663  40.284  25.010   2.339
25446W        W93664  36.978  24.138  14.283
25447W        W93665   4.617  11.920  13.924
25448W        W93666  26.680  20.168  11.287
25449W        W93667  10.277  33.506   4.319
25450W        W93668  38.849   3.483  12.345
25451W        W93669  25.245  24.918  11.604
25452W        W93670  14.291  15.597  13.447
25453W        W93671  29.274  35.866   0.647
25454W        W93672  35.896  13.580   0.921
25455W        W93673  30.378  17.963  11.560
25456W        W93674  13.859  43.941  13.900
25457W        W93675  29.073  38.410   1.195
25458W        W93676   6.307   4.589   2.747
25459W        W93677   8.804   4.234  11.168
25460W        W93678  21.424  34.655   0.953
25461W        W93679   2.437  12.704  13.382
25462W        W93680  10.777  44.998   3.883
25463W        W93681  15.267  26.925  12.622
25464W        W93682  42.032  26.719   0.212
25465W        W93683  39.250  22.727   0.773
25466W        W93684   3.241  39.968  14.966
25467W        W93685   1.744  24.026   1.273
25468W        W93686  14.517  24.611   3.628
25469W        W93687   2.887   3.434   4.604
25470W        W93688  24.515  36.844  13.298
25471W        W93689  40.494  22.074  11.458
25472W        W93690  17.015   5.387  11.958
25473W        W93691  25.754  21.408   2.429
25474W        W93692  41.234  27.036   0.266
25475W        W93693  20.160   7.269   1.419
25476W        W93694   7.876  39.667   0.856
25477W        W93695  43.547  24.042  13.393
25478W        W93696  26.984  32.618   3.053
25479W        W93697  28.413  12.999   2.241
25480W        W93698  43.315  12.134   3.938
25481W        W93699  42.548  41.935  12.800
25482W        W93700  12.794  20.907  11.607
25483W        W93701   5.372  33.588  14.688
25484W        W93702   2.832  24.210   1.739
25485W        W93703  43.493  40.267  10.179
25486W        W93704   5.598  38.805   1.318
25487W        W93705  33.827   2.672   0.044
25488W        W93706  26.031  17.176  13.575
25489W        W93707  29.831   2.417  13.373
25490W        W93708  15.225  33.620  11.683
25491W        W93709  36.104  13.162   1.207
25492W        W93710  27.061  43.514   3.209
25493W        W93711  35.457   5.676  10.353
25494W        W93712   9.452  41.920   1.698
25495W        W93713  28.363   4.277  12.308
25496W        W93714  40.387   4.685  14.396
25497W        W93715   1.471   2.974  13.782
25498W        W93716  38.058  13.724   0.828
25499W        W93717  43.684  17.829  12.875
25500W        W93718  37.874  19.706   1.034
25501W        W93719  41.448  28.437   4.399
25502W        W93720  21.297  30.662   1.983
25503W        W93721   4.420  33.518   3.649
25504W        W93722  12.776  17.191  11.091
25505W        W93723   6.701  31.640   0.243
25506W        W93724  43.416  11.356   0.957
25507W        W93725   3.005   0.511  12.313
25508W        W93726   4.764  43.066   2.377
25509W        W93727  16.086  34.668  11.096
25510W        W93728  11.658  43.256   1.889
25511W        W93729  35.997  25.890  11.116
25512W        W93730  19.716  24.509  11.415
25513W        W93731  28.877  30.429  13.898
25514W        W93732  18.654  36.908  11.037
25515W        W93733  27.297  43.692  14.803
25516W        W93734   6.559  34.030   3.216
25517W        W93735   0.845  32.604  14.528
25518W        W93736   2.500  41.727  12.064
25519W        W93737  32.192  43.215  14.715
25520W        W93738  19.643  14.973  10.227
25521W        W93739   7.077  21.277  14.875
25522W        W93740  24.073   7.876   2.548
25523W        W93741   2.874  41.473   4.427
25524W        W93742  21.668  28.875  11.089
25525W        W93743  10.790  39.812  11.723
25526W        W93744  38.873  39.318   1.233
25527W        W93745  43.593  10.776  13.409
25528W        W93746  11.237  32.218  10.712
25529W        W93747  11.081   4.419  12.211
25530W        W93748  16.341  38.954   4.071
25531W        W93749   0.396   2.563  12.448
25532W        W93750  34.468   1.964   2.015
25533W        W93751  39.042   9.271   3.136
25534W        W93752   5.719  38.050   1.024
25535W        W93753  18.286  28.145  10.667
25536W        W93754   2.500  17.666  13.889
25537W        W93755   8.721  40.333   2.946
25538W        W93756  30.672   8.697   4.966
25539W        W93757  24.641  44.056   4.114
25540W        W93758  29.864  37.930   2.834
25541W        W93759  16.559  14.310   0.319
25542W        W93760  15.068   2.956   3.326
25543W        W93761   8.732   2.419   1.352
25544W        W93762  43.197  12.121  14.419
25545W        W93763  31.068  37.477   0.151
25546W        W93764  44.929   4.501  12.377
25547W        W93765  34.695  27.711  13.714
25548W        W93766  32.648  39.096   1.394
25549W        W93767  27.706  27.191   2.202
25550W        W93768  18.596   9.271  13.392
25551W        W93769  16.819   2.922  12.531
25552W        W93770  39.053  11.731   9.934
25553W        W93771   3.052  29.067  14.465
25554W        W93772   2.733  37.578   2.292
25555W        W93773  11.457  14.639  11.481
25556W        W93774   3.986   3.479  14.256
25557W        W93775  33.943   2.284  12.853
25558W        W93776  14.814  14.823   1.396
25559W        W93777  43.452  43.734   4.645
25560W        W93778  17.007  27.204   2.714
25561W        W93779  31.000  39.982  14.921
25562W        W93780  33.994   4.279   4.032
25563W        W93781   4.447  29.924   0.945
25564W        W93782  28.075  17.020  13.514
25565W        W93783   1.648  28.486   2.264
25566W        W93784  25.279  19.513   2.263
25567W        W93785  12.320   6.337   3.124
25568W        W93786  14.686   2.126   2.464
25569W        W93787   3.347   5.233   1.395
25570W        W93788   3.841  44.388   1.277
25571W        W93789  26.143  23.583  11.536
25572W        W93790  27.947   1.071  13.551
25573W        W93791  23.661   2.445   0.025
25574W        W93792  41.169  42.689  11.344
25575W        W93793  43.868  42.478  14.053
25576W        W93794   8.011  14.859  11.561
25577W        W93795  28.902  12.646   0.814
25578W        W93796  15.777  29.507   0.833
25579W        W93797  29.921   3.993  13.544
25580W        W93798  11.695  38.093   0.247
25581W        W93799  14.394  12.228   2.778
25582W        W93800  32.960  41.067   1.734
25583W        W93801  19.748  33.141   4.362
25584W        W93802  22.769  24.538   4.788
25585W        W93803  33.825  18.011   4.138
25586W        W93804  34.959  25.090  12.475
25587W        W93805  11.293  30.528   4.205
25588W        W93806  39.229  31.833   2.741
25589W        W93807  16.600  16.778  13.883
25590W        W93808  21.042  11.142   2.683
25591W        W93809  27.653  16.867   4.577
25592W        W93810   5.844   1.868   3.771
25593W        W93811  14.092  17.307   0.392
25594W        W93812   0.230  35.423  12.342
25595W        W93813  29.202   9.342   1.973
25596W        W93814  19.562  21.088  14.369
25597W        W93815  20.491  23.298   4.767
25598W        W93816   9.770   2.207   3.122
25599W        W93817   8.675  25.231   2.339
25600W        W93818  22.516  15.631   1.389
25601W        W93819   7.340  31.507   2.720
25602W        W93820  34.896  32.521  13.168
25603W        W93821   5.042  13.043  11.191
25604W        W93822  16.690  32.888  12.140
25605W        W93823  44.800  40.891   3.421
25606W        W93824  22.964  17.310   2.831
25607W        W93825  13.303  33.411  14.295
25608W        W93826   7.199   7.805  12.876
25609W        W93827   5.358  12.855   2.241
25610W        W93828  36.344  37.357  14.019
25611W        W93829  17.353   4.676   1.226
25612W        W93830  28.401  22.601   0.893
25613W        W93831  19.387  43.141   1.790
25614W        W93832  40.015  26.278   1.776
25615W        W93833  10.634   3.989   0.179
25616W        W93834  38.342  17.556   4.230
25617W        W93835  17.266  31.429   1.428
25618W        W93836  33.620  11.156   1.001
25619W        W93837  33.584  22.736   1.301
25620W        W93838   7.290  16.318  11.673
25621W        W93839  42.243  33.006  13.500
25622W        W93840   9.937  14.735   2.456
25623W        W93841   5.835  27.567   2.387
25624W        W93842  12.814  28.416  12.491
25625W        W93843  36.601  32.059   3.763
25626W        W93844  12.307  34.963   0.548
25627W        W93845  40.910   8.342   0.255
25628W        W93846  44.839   0.890  13.840
25629W        W93847   1.308  42.552   0.904
25630W        W93848  37.871  31.651  11.548
25631W        W93849   4.022  25.165  14.008
25632W        W93850  21.274  23.934   4.164
25633W        W93851  39.641  23.639  11.334
25634W        W93852  18.276   0.811  14.011
25635W        W93853  18.712  32.190   3.118
25636W        W93854  11.572  37.575  14.750
25637W        W93855  42.064  18.774  12.498
25638W        W93856   5.229   1.220   4.746
25639W        W93857  21.303  41.379  14.807
25640W        W93858  21.309  39.105  14.350
25641W        W93859  18.167  17.339  12.063
25642W        W93860  36.906  33.610   1.847
25643W        W93861  35.918   4.361  14.567
25644W        W93862  39.360  34.974   1.371
25645W        W93863  34.910  34.112   4.541
25646W        W93864  20.471   4.491  11.146
25647W        W93865  22.954  38.856   3.550
25648W        W93866   4.246   8.267  11.693
25649W        W93867  16.676  21.695   0.212
25650W        W93868   0.769   9.406  14.636
25651W        W93869  16.706  22.702   2.467
25652W        W93870  44.698   9.787   1.820
25653W        W93871  40.553  22.309  10.711
25654W        W93872  19.372  36.876   9.894
25655W        W93873  29.606  24.243  12.551
25656W        W93874  36.948   9.783  14.419
25657W        W93875  25.952  24.491   0.325
25658W        W93876  18.908   9.446  12.994
25659W        W93877  11.686  20.280  12.862
25660W        W93878  32.642   9.876   3.175
25661W        W93879   6.498  29.788   4.795
25662W        W93880   4.441  25.931  11.627
25663W        W93881  22.967   3.307   2.734
25664W        W93882  39.120  18.749   1.821
25665W        W93883  36.995  29.439  13.867
25666W        W93884  31.539  28.100  14.469
25667W        W93885   4.968  43.850  13.313
25668W        W93886   0.768  32.146  12.336
25669W        W93887   1.369  25.959  14.572
25670W        W93888  16.924   3.965  13.325
25671W        W93889  26.140   5.205  12.044
25672W        W93890  37.287  28.615   1.317
25673W        W93891  42.380  40.961   1.258
25674W        W93892  18.248  16.049  13.417
25675W        W93893  29.615   6.167  11.602
25676W        W93894  36.288  33.845   0.151
25677W        W93895   1.484   5.967   2.280
25678W        W93896   6.373  43.887  12.219
25679W        W93897  17.793  28.717   3.683
25680W        W93898  20.722  21.768  13.979
25681W        W93899  36.894  24.938  11.158
25682W        W93900   5.716  29.034   2.867
25683W        W93901  20.163  29.968   4.274
25684W        W93902  30.434  16.582  11.740
25685W        W93903  12.099  18.821   2.212
25686W        W93904  30.987  32.432   1.830
25687W        W93905  11.865   2.013   3.008
25688W        W93906  18.402  38.487  14.104
25689W        W93907  32.838  33.388   2.258
25690W        W93908  41.287  37.251   0.341
25691W        W93909  38.131  18.458  14.354
25692W        W93910  39.989  41.930  13.028
25693W        W93911  17.172  43.534   2.108
25694W        W93912  39.000  34.908   3.400
25695W        W93913   1.680  15.200  11.498
25696W        W93914  22.877   1.958  12.860
25697W        W93915  26.666  26.156  10.757
25698W        W93916  32.986  43.045  10.558
25699W        W93917  25.099  15.605   4.108
25700W        W93918  41.730  20.192   1.557
25701W        W93919  39.566  37.581   0.756
25702W        W93920  43.283  29.983   2.675
25703W        W93921  33.575  28.721   3.964
25704W        W93922  18.550  20.164   2.907
25705W        W93923  16.609  16.023  14.355
25706W        W93924   9.927  23.063   3.326
25707W        W93925   9.658  43.720   1.824
25708W        W93926  25.486   6.148  11.238
25709W        W93927  35.939  31.476   0.736
25710W        W93928  34.301   8.840  14.577
25711W        W93929  36.407  10.366  14.795
25712W        W93930  12.635  43.066  12.537
25713W        W93931  10.203   0.343  10.690
25714W        W93932  30.967  11.757   3.128
25715W        W93933  24.647  41.002   0.453
25716W        W93934   9.253  34.293   2.401
25717W        W93935  34.981  30.648   4.118
25718W        W93936  40.818  10.772   4.618
25719W        W93937  32.004   9.460  14.292
25720W        W93938   6.180  18.246  14.866
25721W        W93939  18.171  44.044  12.096
25722W        W93940  26.223   9.854  11.084
25723W        W93941  43.755   8.132  11.051
25724W        W93942  33.957  34.925  14.415
25725W        W93943  43.370   9.900  12.919
25726W        W93944  30.090  37.477   2.756
25727W        W93945  22.464  19.765   2.181
25728W        W93946  14.568   2.535  10.247
25729W        W93947   8.827  31.934  13.665
25730W        W93948  40.503  35.988  13.363
25731W        W93949  11.958  24.069   1.208
25732W        W93950  35.433  24.489  12.003
25733W        W93951   2.313  13.825  14.503
25734W        W93952  17.812  27.255  13.412
25735W        W93953  26.880  13.824   4.231
25736W        W93954  39.367  37.103   0.645
25737W        W93955  22.794  23.422   3.074
25738W        W93956   2.802   8.258  10.743
25739W        W93957  14.743  20.664  14.141
25740W        W93958  33.437  13.025   4.485
25741W        W93959  21.059  22.238  12.321
25742W        W93960  43.303   9.438  13.785
25743W        W93961  33.163  32.163   5.158
25744W        W93962   0.190  25.943  14.801
25745W        W93963  12.312   6.888   3.772
25746W        W93964  22.286  14.823  12.604
25747W        W93965  32.564  35.868  13.621
25748W        W93966  13.774  30.467   2.413
25749W        W93967  10.318  41.163  11.159
25750W        W93968  35.860  17.669   0.867
25751W        W93969  36.978  18.636   2.624
25752W        W93970  11.892  40.055   3.781
25753W        W93971  31.593  29.065   4.267
25754W        W93972  12.643  44.181   4.076
25755W        W93973   6.424  18.087   1.659
25756W        W93974   5.443   7.915  11.706
25757W        W93975  13.033  17.940   0.976
25758W        W93976  28.144  25.076  14.746
25759W        W93977  11.575   7.599   2.776
25760W        W93978  21.288  16.757   2.863
25761W        W93979  19.662  43.065   4.124
25762W        W93980  41.357  29.476  10.576
25763W        W93981  19.067  18.391   2.672
25764W        W93982  36.131  34.904  13.948
25765W        W93983   0.253  29.121   3.548
25766W        W93984  30.828  40.253  13.487
25767W        W93985  12.735  34.005   4.604
25768W        W93986  41.277  15.358   2.829
25769W        W93987  28.565  25.305   0.867
25770W        W93988  40.404  33.891  10.885
25771W        W93989  41.410  39.669  12.336
25772W        W93990  36.226  25.450  14.805
25773W        W93991  23.304  40.993  11.434
25774W        W93992  16.646   5.131  12.864
25775W        W93993  21.188   2.984  11.492
25776W        W93994  19.266  10.910   2.540
25777W        W93995  40.291  19.054   3.163
25778W        W93996  19.786  29.801   0.024
25779W        W93997  12.868  25.187  13.722
25780W        W93998  14.243  34.062  11.046
25781W        W93999  17.774   8.969   1.384
25782W        W94000  15.340   6.475   2.135
25783W        W94001  15.286  36.111  12.897
25784W        W94002  33.482  43.297  11.910
25785W        W94003  14.742  44.708   3.680
25786W        W94004   8.243   3.326  13.728
25787W        W94005  23.496  17.622   2.277
25788W        W94006   1.045  34.660  13.567
25789W        W94007  13.278  38.964   9.903
25790W        W94008   1.722   2.297   4.989
25791W        W94009  17.008  23.459  11.554
25792W        W94010  37.664  22.153  10.227
25793W        W94011  16.546  26.566   4.802
25794W        W94012  29.158   7.716  12.053
25795W        W94013  39.868  43.248   0.350
25796W        W94014  40.030  34.769   5.024
25797W        W94015  41.994  19.675  10.549
25798W        W94016  44.487  19.609   1.911
25799W        W94017  24.784   6.104  12.966
25800W        W94018   0.045  38.404  14.174
25801W        W94019   5.669  11.258  14.257
25802W        W94020  29.983   3.354   4.798
25803W        W94021  32.340  31.829   0.283
25804W        W94022  42.053  41.894  12.898
25805W        W94023  23.882  19.172  11.769
25806W        W94024  27.702  35.072   0.348
25807W        W94025  35.285  39.457   4.530
25808W        W94026  22.041  22.573  13.238
25809W        W94027  32.343  32.043  12.048
25810W        W94028  10.852  42.245   3.679
25811W        W94029  13.374  29.205  13.988
25812W        W94030  26.150   4.941   2.904
25813W        W94031   0.772  25.022  10.593
25814W        W94032  18.728  42.048  11.334
25815W        W94033  39.653  30.345  11.545
25816W        W94034  42.577  28.974  10.449
25817W        W94035  42.615  30.355  10.941
25818W        W94036  10.621  23.722  13.375
25819W        W94037   6.287   7.603  10.280
25820W        W94038  23.201   5.271  12.114
25821W        W94039   1.786  26.731   1.487
25822W        W94040  40.880  41.821   2.497
25823W        W94041  26.691  31.104   2.117
25824W        W94042  19.554   3.653   0.509
25825W        W94043  19.218  12.341   2.601
25826W        W94044   5.726  13.604  14.774
25827W        W94045  44.853  29.448  10.675
25828W        W94046  31.082  32.614  14.888
25829W        W94047  26.619  10.884   2.191
25830W        W94048  41.610   7.048   3.113
25831W        W94049  30.841  28.433   4.546
25832W        W94050  21.115   0.347   0.872
25833W        W94051  16.242  38.084  11.654
25834W        W94052   6.416  16.700  11.627
25835W        W94053   4.923  36.957   4.337
25836W        W94054  24.360  30.499   4.921
25837W        W94055  11.549  26.642  10.540
25838W        W94056  26.201  14.027   4.423
25839W        W94057  35.827   5.857   0.690
25840W        W94058  34.929  39.992   3.668
25841W        W94059   9.443  31.462  13.039
25842W        W94060  31.081  37.378   1.663
25843W        W94061  18.985   8.303  10.609
25844W        W94062  28.085  30.039  11.470
25845W        W94063  27.184  14.282  11.119
25846W        W94064   3.890  44.937   1.949
25847W        W94065  24.206  40.780   2.206
25848W        W94066   3.755  43.952   1.800
25849W        W94067   1.518   5.794  14.385
25850W        W94068  40.057   4.800   4.861
25851W        W94069  22.902   8.293   3.827
25852W        W94070  18.648   5.196   2.946
25853W        W94071  17.921  27.812   2.179
25854W        W94072  11.487  30.207  14.480
25855W        W94073  15.805  35.800   2.804
25856W        W94074  23.534  32.155  14.538
25857W        W94075   1.368   7.035  10.851
25858W        W94076   9.944  19.234   0.594
25859W        W94077  39.923  18.796   1.368
25860W        W94078  44.299  33.800   0.471
25861W        W94079   3.931  23.832   1.932
25862W        W94080  18.228   4.152   3.266
25863W        W94081  16.779  25.663  10.491
25864W        W94082  21.414   8.755  14.269
25865W        W94083  16.073  23.200  12.412
25866W        W94084  36.545  28.051   1.321
25867W        W94085   8.053  30.947  10.710
25868W        W94086  41.136  12.523  11.928
25869W        W94087  11.240  42.845  10.300
25870W        W94088  41.800  16.232   2.694
25871W        W94089  20.643  20.248   1.901
25872W        W94090   4.984  21.702  13.403
25873W        W94091  44.968   2.252   4.278
25874W        W94092  40.503  22.793   0.875
25875W        W94093  37.829   2.980  14.321
25876W        W94094  25.969   5.620   0.161
25877W        W94095   3.443  18.386   3.129
25878W        W94096  37.471   0.503   4.638
25879W        W94097  11.538  19.511   5.070
25880W        W94098  36.705  32.527  14.037
25881W        W94099  37.169  44.386   1.462
25882W        W94100  38.732  13.195   2.399
25883W        W94101  25.906  22.933   3.014
25884W        W94102  38.749  15.784   4.586
25885W        W94103  16.120  10.766   0.277
25886W        W94104  13.726   5.775   2.233
25887W        W94105   6.768  12.075   1.394
25888W        W94106  15.578  28.271   3.698
25889W        W94107   5.201  26.148   2.632
25890W        W94108  37.912  24.652  14.956
25891W        W94109   6.566  19.225   0.660
25892W        W94110  10.278  33.044  10.223
25893W        W94111  14.913  40.322  10.945
25894W        W94112  17.527   4.810   2.308
25895W        W94113  35.615  20.102   2.740
25896W        W94114   1.296  14.179   0.979
25897W        W94115  31.336  19.060  12.620
25898W        W94116  27.460  12.402  11.736
25899W        W94117  27.241  31.106   3.878
25900W        W94118  37.529  11.621   4.873
25901W        W94119  28.934   5.466   3.228
25902W        W94120   8.362   1.345  11.716
25903W        W94121  38.037  32.981  14.893
25904W        W94122  21.449   8.748  10.733
25905W        W94123  25.793   6.430  14.040
25906W        W94124  27.891  43.365  14.817
25907W        W94125  27.621  42.902   3.841
25908W        W94126  28.712  14.221  14.073
25909W        W94127   7.301  12.739   1.914
25910W        W94128  16.670  39.321  12.867
25911W        W94129  12.667  44.788   2.257
25912W        W94130  24.507  11.148   4.513
25913W        W94131  11.120  31.504   0.649
25914W        W94132  38.422  23.712   2.641
25915W        W94133   7.901  14.998   2.451
25916W        W94134   8.581  25.671  10.777
25917W        W94135  43.007   7.845  11.666
25918W        W94136  12.288  38.423   3.822
25919W        W94137  24.211  23.277  14.535
25920W        W94138  33.926  13.031  11.966
25921W        W94139  43.464   0.729  14.856
25922W        W94140  11.151  43.065  11.581
25923W        W94141  24.269   2.781   0.887
25924W        W94142  33.754  25.455   9.896
25925W        W94143  10.753  35.517  12.895
25926W        W94144  39.665   1.126   3.763
25927W        W94145  34.826  18.732   1.522
25928W        W94146  29.308   6.785   0.392
25929W        W94147  10.602   4.489  13.383
25930W        W94148  36.739  40.927  11.171
25931W        W94149   0.787  13.126  12.077
25932W        W94150   2.333  37.441   0.967
25933W        W94151  42.519  18.764   0.427
25934W        W94152  27.752  31.463   3.194
25935W        W94153   0.526   5.999   4.106
25936W        W94154  39.353  10.068   4.749
25937W        W94155   2.712  39.276   1.742
25938W        W94156  32.898  23.194  14.034
25939W        W94157  15.138  14.429  13.965
25940W        W94158   4.180  18.216  13.557
25941W        W94159  39.119  28.890   1.385
25942W        W94160  38.416  25.775   0.239
25943W        W94161  43.515  38.509   1.880
25944W        W94162  18.236  31.873   3.589
25945W        W94163  39.934  29.840   4.880
25946W        W94164  30.023  26.686   4.542
25947W        W94165  17.125  19.775   2.275
25948W        W94166  25.179  36.833  13.978
25949W        W94167  12.582   6.288  11.543
25950W        W94168   8.769   2.843   1.700
25951W        W94169   7.356  29.061  10.965
25952W        W94170  27.361  18.087  10.308
25953W        W94171  38.300  36.939   3.153
25954W        W94172  15.733  12.232  10.653
25955W        W94173   8.237  22.238   2.868
25956W        W94174   1.686  20.682   0.464
25957W        W94175  42.389  30.782   1.737
25958W        W94176  28.598  23.699   3.586
25959W        W94177   7.864   6.870   0.982
25960W        W94178   3.907  22.829  12.548
25961W        W94179  31.947  19.941  13.509
25962W        W94180  19.971  10.535  10.685
25963W        W94181  35.573  25.532   2.424
25964W        W94182  32.089  38.932   0.719
25965W        W94183   0.996  31.604   4.170
25966W        W94184   4.281  44.860   0.030
25967W        W94185  27.780  42.308   0.291
25968W        W94186  14.784  21.751  13.909
25969W        W94187  15.608  26.169   1.897
25970W        W94188   9.754   9.905  12.348
25971W        W94189  20.136  12.607  11.220
25972W        W94190  16.998  40.041  14.952
25973W        W94191  20.235  39.883   1.176
25974W        W94192  30.922  36.421   1.162
25975W        W94193  19.873  21.056  12.470
25976W        W94194  34.138  22.710  14.358
25977W        W94195  37.414   1.287  10.524
25978W        W94196  10.246   0.873   3.419
25979W        W94197  15.233  37.869  12.620
25980W        W94198  41.371   1.983   3.216
25981W        W94199  21.031   8.197   0.931
25982W        W94200  32.523   6.493   3.473
25983W        W94201  15.702  15.364  10.486
25984W        W94202  41.935   0.021   1.321
25985W        W94203  43.078  27.438  14.276
25986W        W94204  40.829  35.962  14.056
25987W        W94205  33.446   9.644  13.248
25988W        W94206   0.307  18.150  12.512
25989W        W94207  23.426  37.571   3.829
25990W        W94208  17.193  33.625  13.947
25991W        W94209  38.797  10.685  12.036
25992W        W94210   4.731  18.181   2.209
25993W        W94211   5.631  36.325  10.810
25994W        W94212  44.328   4.251  12.966
25995W        W94213  26.024  18.615   3.278
25996W        W94214  10.604  10.868   1.660
25997W        W94215  10.710  44.510   1.669
25998W        W94216  36.565  18.787   4.854
25999W        W94217  32.905  13.825  14.051
26000W        W94218  34.352  15.171  12.391
26001W        W94219   7.250  26.273   2.475
26002W        W94220  23.960  13.890  14.901
26003W        W94221  19.034   5.144   1.233
26004W        W94222  31.670   5.715   4.567
26005W        W94223  20.642  23.171   1.703
26006W        W94224  25.017  21.965   3.321
26007W        W94225   8.838  27.044   2.835
26008W        W94226   9.233  16.724  11.875
26009W        W94227   6.851   8.417  11.107
26010W        W94228  28.184  29.069  14.765
26011W        W94229  21.241  20.423   3.610
26012W        W94230  17.998  36.643   4.140
26013W        W94231   6.165  37.876  11.284
26014W        W94232  37.946  16.752  13.415
26015W        W94233  18.739  39.969  13.953
26016W        W94234  24.735   0.004  12.972
26017W        W94235  28.671  39.983  14.522
26018W        W94236  39.352  37.069   2.428
26019W        W94237  28.737  31.450  14.518
26020W        W94238  29.038   7.309  13.800
26021W        W94239   2.080  39.075  12.945
26022W        W94240  19.828  42.297   0.273
26023W        W94241   5.059  13.607   0.339
26024W        W94242  43.415  33.336   1.367
26025W        W94243  44.463  29.345   1.623
26026W        W94244  39.951  13.138  12.797
26027W        W94245  37.395  38.273   0.928
26028W        W94246  31.521  32.001   3.524
26029W        W94247  41.176  38.140   0.328
26030W        W94248  25.983  19.022   4.188
26031W        W94249  34.934  44.469   4.640
26032W        W94250  21.177  10.183  11.577
26033W        W94251  28.751  13.374   3.057
26034W        W94252  10.264  19.551   3.274
26035W        W94253  14.570   2.381   0.870
26036W        W94254   8.347  41.785   3.759
26037W        W94255  31.435  24.737  11.142
26038W        W94256   1.742  29.558   0.799
26039W        W94257  12.519  12.839  12.971
26040W        W94258   0.952   0.438   3.691
26041W        W94259  19.135  28.480   0.626
26042W        W94260  26.659  14.233   2.496
26043W        W94261  44.297  25.161   4.399
26044W        W94262   6.413  16.343   2.749
26045W        W94263  20.649  43.963  12.467
26046W        W94264  24.983  11.708   3.177
26047W        W94265  29.925  21.243   4.554
26048W        W94266  35.916  18.160  13.310
26049W        W94267   8.908  26.739   1.334
26050W        W94268   1.855  22.894  10.528
26051W        W94269  11.097   6.763   4.130
26052W        W94270  27.076  34.335  13.675
26053W        W94271  36.935  17.934   3.140
26054W        W94272  28.386  29.588   2.118
26055W        W94273  18.506  17.599   1.376
26056W        W94274  13.749   0.786   3.080
26057W        W94275  44.591  39.391  14.567
26058W        W94276  16.681  30.688  11.937
26059W        W94277  23.962  27.207   0.890
26060W        W94278  17.547  16.080   1.838
26061W        W94279   5.617   2.977  12.581
26062W        W94280  24.313  18.097  14.828
26063W        W94281   8.132   7.644  11.061
26064W        W94282   8.388  25.259   2.758
26065W        W94283   5.250  25.585   3.339
26066W        W94284  24.523  39.538   3.376
26067W        W94285   6.837  10.588   2.381
26068W        W94286  43.416  14.590   4.395
26069W        W94287  18.123  32.640  14.232
26070W        W94288  11.676   6.989   4.963
26071W        W94289  37.408  22.495  13.761
26072W        W94290  10.130   8.827   2.261
26073W        W94291  21.678   0.584  13.601
26074W        W94292   7.795  28.544   4.417
26075W        W94293   9.633  31.435  12.391
26076W        W94294   8.837  18.349   0.725
26077W        W94295  27.573   8.064  14.382
26078W        W94296   0.766  22.735   2.853
26079W        W94297  26.388  16.369  11.644
26080W        W94298  39.257  28.227   1.404
26081W        W94299  31.441  25.088   0.310
26082W        W94300   3.930  36.618   4.884
26083W        W94301  44.233  22.084   2.806
26084W        W94302  26.482  21.157   3.594
26085W        W94303  43.656  40.565   4.286
26086W        W94304   1.197  12.609  12.842
26087W        W94305  26.073  30.091   2.941
26088W        W94306  38.033   4.731   3.316
26089W        W94307  25.305  21.058  10.844
26090W        W94308  40.192  43.603  11.101
26091W        W94309  24.538  15.644  14.353
26092W        W94310   7.286  41.049   0.224
26093W        W94311  38.867  17.208   1.147
26094W        W94312  34.857  24.046  12.536
26095W        W94313  25.731   8.674  11.181
26096W        W94314   7.436   8.750   3.601
26097W        W94315  22.143   7.385   1.233
26098W        W94316  26.668   3.674  13.366
26099W        W94317   3.227  32.406   4.082
26100W        W94318  15.212  23.753  10.602
26101W        W94319  32.485  31.273   4.740
26102W        W94320  36.541  30.525  14.241
26103W        W94321  44.038  36.879   0.452
26104W        W94322   2.373  17.956   2.802
26105W        W94323  29.799  30.564   2.704
26106W        W94324  34.055   6.897  13.037
26107W        W94325  11.355  25.641  14.491
26108W        W94326  29.712  36.950   3.791
26109W        W94327  22.804  13.295  12.014
26110W        W94328  28.565  22.459  13.773
26111W        W94329   5.897  30.320   0.732
26112W        W94330  25.153  23.880  11.574
26113W        W94331   8.799  20.287   5.073
26114W        W94332  42.966   8.431   0.381
26115W        W94333   1.761  32.419  13.398
26116W        W94334  12.431   6.661   2.746
26117W        W94335   7.857   9.891   2.306
26118W        W94336  14.954  39.448  14.295
26119W        W94337  33.265  26.030   2.247
26120W        W94338  29.574  17.503  13.906
26121W        W94339  41.585  25.178   4.954
26122W        W94340  27.682  25.188   0.925
26123W        W94341  36.106   1.290   0.823
26124W        W94342  43.521  37.966   4.375
26125W        W94343   2.256  16.065  12.107
26126W        W94344   1.978   9.701  13.536
26127W        W94345   5.823  18.686   2.798
26128W        W94346  44.964  28.963  12.491
26129W        W94347   7.820  15.106   3.348
26130W        W94348  10.763  13.021   1.752
26131W        W94349   0.137  30.666  12.814
26132W        W94350  28.144  24.203   4.134
26133W        W94351  33.935  32.977  11.845
26134W        W94352  41.330  21.050   2.924
26135W        W94353  39.099  38.308   3.080
26136W        W94354   5.001  20.673   1.329
26137W        W94355  34.525  28.680  11.639
26138W        W94356   4.815  16.029  13.041
26139W        W94357   5.128  19.095  11.556
26140W        W94358  39.213  31.543  11.894
26141W        W94359  28.411   3.875   3.757
26142W        W94360  33.981  16.174  13.834
26143W        W94361   2.672  44.580  11.290
26144W        W94362  35.114   7.426   3.133
26145W        W94363  10.953  32.397   4.783
26146W        W94364   6.942  15.287  12.659
26147W        W94365  21.807  32.859   0.881
26148W        W94366  25.568   7.875   0.240
26149W        W94367  27.726  33.114   3.620
26150W        W94368  12.251  39.567  10.754
26151W        W94369  32.904   3.396  12.055
26152W        W94370  40.286  32.993   1.783
26153W        W94371   0.082  15.068   2.146
26154W        W94372  18.626  18.182   1.914
26155W        W94373  34.021  19.511  11.687
26156W        W94374   0.002   4.671  10.273
26157W        W94375  25.137   2.984  14.494
26158W        W94376  44.498  44.491  12.625
26159W        W94377  29.024   2.418  12.394
26160W        W94378   1.743  37.468  11.055
26161W        W94379   3.498  25.978   3.057
26162W        W94380   8.757  32.684  14.286
26163W        W94381  39.414   8.288   4.503
26164W        W94382  20.594  36.502   5.012
26165W        W94383   3.775  11.174   3.758
26166W        W94384  10.673  31.574   2.174
26167W        W94385  23.501  40.588   1.818
26168W        W94386  35.482  41.226  12.715
26169W        W94387  28.030  41.529  14.846
26170W        W94388   4.781   0.326  13.549
26171W        W94389  19.570  29.497   2.676
26172W        W94390  18.610  32.036  13.533
26173W        W94391   0.307  23.233  14.041
26174W        W94392   9.383  25.496   0.224
26175W        W94393  39.344  22.073   1.261
26176W        W94394  30.214  35.978   4.673
26177W        W94395  35.958   8.466  12.019
26178W        W94396  11.780  28.876   0.246
26179W        W94397   0.412   8.902  12.174
26180W        W94398  24.022  41.552  14.749
26181W        W94399  29.425   2.246   4.191
26182W        W94400  37.852  19.728   3.699
26183W        W94401  17.539  32.568   0.894
26184W        W94402  15.710  24.461  13.496
26185W        W94403  15.967  40.796  11.647
26186W        W94404   0.732  28.079   3.188
26187W        W94405  12.891  32.152  14.364
26188W        W94406  42.831  43.326  14.255
26189W        W94407  14.708  22.498   3.069
26190W        W94408  39.318  18.801  11.080
26191W        W94409   0.077  41.289   3.293
26192W        W94410  32.971  25.797   3.491
26193W        W94411  39.903  29.471   2.627
26194W        W94412  41.919  24.470   3.539
26195W        W94413  11.407  43.860  11.911
26196W        W94414  33.359   0.918   2.247
26197W        W94415  34.642  30.776   2.771
26198W        W94416  19.351  20.029  14.063
26199W        W94417  32.966  34.833   1.512
26200W        W94418  18.062  41.249   3.194
26201W        W94419   9.519  42.516   2.867
26202W        W94420  26.583  35.359   2.622
26203W        W94421  40.918  17.050  13.999
26204W        W94422  36.835  33.990   4.613
26205W        W94423   4.303  23.666   0.925
26206W        W94424   4.662  35.461  12.170
26207W        W94425  22.668  40.012   0.311
26208W        W94426  26.855  11.523   1.805
26209W        W94427   4.302   2.622   4.058
26210W        W94428  25.955  42.379  12.620
26211W        W94429  30.889  39.374   1.329
26212W        W94430   2.656  26.598   1.630
26213W        W94431   7.499  32.722  11.633
26214W        W94432  39.720  22.581   2.735
26215W        W94433  18.975  14.200   3.666
26216W        W94434  18.343   5.532  10.670
26217W        W94435  29.846  22.614  14.940
26218W        W94436  37.279  24.646   1.829
26219W        W94437  30.472  30.249   4.622
26220W        W94438   8.376   7.905   0.261
26221W        W94439  24.459   3.396   1.860
26222W        W94440  10.804   8.087  13.890
26223W        W94441  25.224  20.670   4.240
26224W        W94442  28.150  22.258   4.881
26225W        W94443   6.168  17.984   0.322
26226W        W94444   5.321  22.615   5.023
26227W        W94445  36.482   6.798   1.902
26228W        W94446  16.496  23.790   2.279
26229W        W94447  32.485  41.284   1.758
26230W        W94448   6.053  11.766   1.790
26231W        W94449  11.778  34.083   1.883
26232W        W94450  34.827  20.140  14.020
26233W        W94451  41.122   5.332   2.902
26234W        W94452  36.432  14.630   3.736
26235W        W94453  34.636   9.286  12.955
26236W        W94454   7.091  18.108  10.778
26237W        W94455  40.554  29.474  13.974
26238W        W94456  10.793   7.227   0.373
26239W        W94457   0.500  42.967  11.867
26240W        W94458  31.240   8.744   3.393
26241W        W94459  22.158  21.652  12.004
26242W        W94460  39.406  32.972   0.288
26243W        W94461  25.955  36.550   1.660
26244W        W94462  24.973  36.784   3.288
26245W        W94463  20.173  31.685  12.482
26246W        W94464   8.808  43.255  13.117
26247W        W94465  36.921  34.394  10.621
26248W        W94466  39.549  25.490  13.931
26249W        W94467  18.606  20.626   2.194
26250W        W94468  34.984   0.489  11.973
26251W        W94469  28.908   3.153   3.193
26252W        W94470  33.885   0.521  12.652
26253W        W94471  28.313  14.857  11.956
26254W        W94472  39.974  36.578  12.712
26255W        W94473  35.320  15.780  14.934
26256W        W94474  29.912  29.055   1.806
26257W        W94475  10.355  27.533  11.238
26258W        W94476  21.028  34.628  14.367
26259W        W94477   8.909   4.411  14.907
26260W        W94478   1.010   7.122  13.708
26261W        W94479  43.767  14.271  13.633
26262W        W94480  17.838  33.728   2.577
26263W        W94481  30.162   7.885  13.538
26264W        W94482  14.121  19.920  14.949
26265W        W94483   2.849  32.095   3.879
26266W        W94484  40.394  31.697   2.812
26267W        W94485  35.469  15.421  14.543
26268W        W94486   6.001   4.849  12.157
26269W        W94487  38.606  35.884   4.910
26270W        W94488   0.420  28.922  11.973
26271W        W94489  16.854  42.985  14.343
26272W        W94490  44.465  28.550   3.739
26273W        W94491   6.883  14.154  14.315
26274W        W94492  39.461  12.559   0.057
26275W        W94493  21.397  18.162   2.890
26276W        W94494  33.301  18.070   1.832
26277W        W94495   3.534  31.690   0.847
26278W        W94496  10.791   2.889  11.411
26279W        W94497  10.486  15.286  10.208
26280W        W94498  44.526  33.057  14.444
26281W        W94499  10.315   9.202  11.912
26282W        W94500  42.472  36.996   3.359
26283W        W94501  13.212  28.653   2.746
26284W        W94502  41.429  41.740   0.009
26285W        W94503  30.984  44.428  10.543
26286W        W94504  22.213  16.349  12.552
26287W        W94505   9.495   9.409   1.942
26288W        W94506  41.271  10.094  13.282
26289W        W94507  31.999  42.116   4.136
26290W        W94508  26.481  26.513   2.284
26291W        W94509   2.810  29.493   0.278
26292W        W94510  39.585  31.374   1.755
26293W        W94511   9.436   9.418   3.890
26294W        W94512   7.411  21.625   0.051
26295W        W94513  17.858  28.918  11.612
26296W        W94514   9.917  42.897  11.770
26297W        W94515   6.682  40.998   0.921
26298W        W94516  38.443   0.469  11.097
26299W        W94517  25.915  35.047   4.208
26300W        W94518  10.255  33.552   1.890
26301W        W94519  43.512   8.539  10.833
26302W        W94520  17.286  13.275   0.774
26303W        W94521  22.168  28.586  12.083
26304W        W94522   5.373  27.905   4.142
26305W        W94523  15.423  17.310  12.490
26306W        W94524  21.914  34.625  13.029
26307W        W94525   4.505  31.974   1.714
26308W        W94526   5.966  43.941   4.812
26309W        W94527  43.491  37.342  12.345
26310W        W94528  39.837  20.794   1.226
26311W        W94529  39.789  37.313  14.865
26312W        W94530   7.253   0.144  12.436
26313W        W94531  33.124  26.098   2.732
26314W        W94532  32.259  40.396  10.738
26315W        W94533   2.875  34.740  11.233
26316W        W94534  12.305  40.831   1.367
26317W        W94535   7.293  12.306   1.359
26318W        W94536  39.051  32.007  10.026
26319W        W94537   1.188  11.757  13.954
26320W        W94538   0.817  28.682  13.988
26321W        W94539   8.193  14.792  14.550
26322W        W94540  31.402   6.828  12.566
26323W        W94541  21.684   9.911   1.885
26324W        W94542  17.253  15.993  11.435
26325W        W94543   8.581  32.180   1.750
26326W        W94544  37.580  32.644  13.341
26327W        W94545  20.467  22.569   3.819
26328W        W94546  23.207  18.700   1.764
26329W        W94547  26.041  40.135   2.752
26330W        W94548  31.374  35.837   0.346
26331W        W94549  22.419  24.113   0.722
26332W        W94550  31.536   4.044   0.197
26333W        W94551  16.192   7.664  10.910
26334W        W94552  19.902  26.503  10.758
26335W        W94553  43.467  31.192   1.255
26336W        W94554  27.435   7.737   2.294
26337W        W94555  37.323   9.593   3.275
26338W        W94556  13.820  11.247   4.545
26339W        W94557  41.311  25.107  13.780
26340W        W94558  37.537   4.462  14.399
26341W        W94559   8.629  38.868  14.925
26342W        W94560  17.135   7.436  12.063
26343W        W94561  23.018  30.845  14.113
26344W        W94562  32.603  17.155  10.215
26345W        W94563   9.628  25.039   4.566
26346W        W94564  30.582   7.706   1.452
26347W        W94565  19.245   6.007   3.227
26348W        W94566  44.422  31.502   2.696
26349W        W94567  29.602  12.219  14.546
26350W        W94568  26.679  21.221  14.506
26351W        W94569  35.016  11.286   2.314
26352W        W94570  15.320   9.402  13.973
26353W        W94571  22.675  12.547  10.346
26354W        W94572  11.816  36.475  12.913
26355W        W94573   1.721  28.556   1.754
26356W        W94574   4.283  24.985   4.722
26357W        W94575  36.714  43.421   2.706
26358W        W94576  40.833  31.426  14.802
26359W        W94577  44.556  22.162   0.886
26360W        W94578  27.641  26.449   1.802
26361W        W94579   1.752  28.671   0.888
26362W        W94580  26.296  38.103  12.806
26363W        W94581  41.575  34.496  13.573
26364W        W94582   8.680  33.635   0.701
26365W        W94583  38.901   4.347  10.716
26366W        W94584   5.751  19.208   3.486
26367W        W94585   7.498   8.213   4.448
26368W        W94586  37.109  25.661   0.288
26369W        W94587   3.210  30.474   4.873
26370W        W94588   6.336   8.446  11.591
26371W        W94589   2.400  14.350  14.501
26372W        W94590  40.684  37.921  12.332
26373W        W94591  32.172  23.484  11.478
26374W        W94592  29.609   0.598  10.893
26375W        W94593  34.352   4.800   4.655
26376W        W94594  10.830  38.836   1.445
26377W        W94595   9.743  35.481  13.828
26378W        W94596  24.281  38.938   0.508
26379W        W94597  39.619  39.864   3.246
26380W        W94598  38.395  10.303   4.482
26381W        W94599  40.300  24.250   5.102
26382W        W94600  33.066  13.973  12.751
26383W        W94601  10.967  41.140   2.846
26384W        W94602  14.382  32.429  10.394
26385W        W94603  27.287  20.640   3.617
26386W        W94604  18.729   5.768   2.384
26387W        W94605  28.513  32.373   1.329
26388W        W94606  10.867  37.941   3.733
26389W        W94607  16.604  38.185   1.220
26390W        W94608  26.569  28.698   1.342
26391W        W94609  22.478  18.712  11.651
26392W        W94610   4.482  10.244   3.214
26393W        W94611  36.018  25.589  13.307
26394W        W94612  27.926  28.434  13.533
26395W        W94613  41.993  14.230   4.047
26396W        W94614  30.427  24.137  10.575
26397W        W94615  38.824  14.339  13.511
26398W        W94616  28.034  39.900   3.197
26399W        W94617  31.222  29.614  12.092
26400W        W94618  10.765  18.035  11.109
26401W        W94619  19.137   1.086  10.665
26402W        W94620  40.766   5.231   0.492
26403W        W94621   9.119   7.125  13.395
26404W        W94622  19.547  10.377  14.429
26405W        W94623  16.851  39.992   1.715
26406W        W94624   2.273  30.194   0.472
26407W        W94625  32.627  29.647  13.051
26408W        W94626  17.788  43.899  10.224
26409W        W94627  36.613   6.316   4.126
26410W        W94628   6.958   1.895  14.749
26411W        W94629  11.161   1.423   4.258
26412W        W94630   1.275  33.144  11.996
26413W        W94631  28.239  35.430   3.605
26414W        W94632  44.681  34.521   4.690
26415W        W94633   9.147  43.375  10.704
26416W        W94634  17.750  15.287   3.552
26417W        W94635   5.145  40.911   1.828
26418W        W94636   6.469  38.301  12.982
26419W        W94637  22.841  42.422   0.455
26420W        W94638   7.428   4.804   2.806
26421W        W94639   8.265   6.067  13.076
26422W        W94640  36.940   7.787   0.424
26423W        W94641  25.133  13.530   5.062
26424W        W94642  13.581   7.348  11.582
26425W        W94643  13.345  25.803   4.181
26426W        W94644  44.065  29.013   3.267
26427W        W94645  33.089  38.121   0.138
26428W        W94646  39.454  40.490   1.207
26429W        W94647  40.458  31.007   2.082
26430W        W94648  29.581   9.207  10.494
26431W        W94649   4.739   0.305  10.679
26432W        W94650  36.250   9.251   1.830
26433W        W94651  37.591  27.132  12.820
26434W        W94652  28.169  35.054  11.586
26435W        W94653  28.398   7.303  13.524
26436W        W94654  37.571  40.533   2.284
26437W        W94655   1.955  37.364  11.523
26438W        W94656  41.477  33.483   1.184
26439W        W94657  39.594  40.555   3.617
26440W        W94658   6.544  20.099   0.028
26441W        W94659  18.491  36.935  10.187
26442W        W94660  14.580  37.670   3.758
26443W        W94661  32.927  24.631  11.847
26444W        W94662  31.914  39.857   0.322
26445W        W94663  43.189  40.937  13.503
26446W        W94664  32.984  14.703   4.494
26447W        W94665  15.717  39.324   1.685
26448W        W94666  15.726  24.122   4.566
26449W        W94667  11.589  25.163   4.614
26450W        W94668  18.668  24.304   4.350
26451W        W94669  20.522  32.676   4.651
26452W        W94670  32.945  35.359  11.195
26453W        W94671  34.503  30.018  14.322
26454W        W94672  20.691  38.425   4.282
26455W        W94673  24.531  24.025   4.524
26456W        W94674  10.317  30.175   0.313
26457W        W94675  26.041  40.810   3.907
26458W        W94676   9.693  28.130  12.331
26459W        W94677  20.209  27.503   0.460
26460W        W94678  11.714  28.512   4.028
26461W        W94679  43.936   4.728   2.311
26462W        W94680  12.547  10.800   0.887
26463W        W94681  18.214   4.742  12.468
26464W        W94682  15.510  25.041   2.885
26465W        W94683  16.947  22.964  11.392
26466W        W94684  32.191   9.747   3.791
26467W        W94685  31.898  30.512   4.323
26468W        W94686   1.916   2.284  13.866
26469W        W94687  28.515  30.087   0.691
26470W        W94688   3.909  17.544  12.525
26471W        W94689  37.668  26.438   5.035
26472W        W94690  25.048  32.879  11.583
26473W        W94691  12.082   0.233   9.792
26474W        W94692  11.622  28.461  14.676
26475W        W94693  13.443  38.549   0.784
26476W        W94694   4.429  16.698  14.086
26477W        W94695  21.652  38.090  11.557
26478W        W94696   8.860  35.662  14.438
26479W        W94697   6.615  22.772  14.994
26480W        W94698  37.409  43.560  12.006
26481W        W94699  23.961  10.373   0.931
26482W        W94700  43.676  24.975  11.490
26483W        W94701  36.565  34.457   4.619
26484W        W94702  38.073  10.188  13.972
26485W        W94703  32.127  29.126   2.944
26486W        W94704  36.317  28.811   4.161
26487W        W94705  23.645  28.497   0.001
26488W        W94706  10.366   6.883   0.662
26489W        W94707  16.181  36.817  11.642
26490W        W94708  28.955  12.499  14.106
26491W        W94709  10.618  37.941  12.595
26492W        W94710   5.304  26.966  11.460
26493W        W94711  37.883  23.338   4.652
26494W        W94712  23.630  37.778  13.078
26495W        W94713  24.656  32.564  13.558
26496W        W94714  34.506  14.744  13.969
26497W        W94715  13.158  25.290  11.157
26498W        W94716   6.874  26.812  12.932
26499W        W94717  33.864  34.307   0.284
26500W        W94718   7.443   3.944  11.188
26501W        W94719  39.429  11.864  14.222
26502W        W94720   6.871  34.526  12.565
26503W        W94721  30.009  24.037  10.853
26504W        W94722  38.632  25.320   2.380
26505W        W94723  33.170  36.503   2.858
26506W        W94724  40.493   4.799  14.892
26507W        W94725  27.392   0.692  14.478
26508W        W94726  14.384  23.647   2.986
26509W        W94727  36.624   4.770   4.181
26510W        W94728  43.383  37.016  14.356
26511W        W94729  40.431  26.875   2.855
26512W        W94730  15.888  17.519   1.873
26513W        W94731  42.999   5.860   1.409
26514W        W94732   3.442   4.775  10.666
26515W        W94733  39.068   1.215   0.733
26516W        W94734  41.922   1.537  11.133
26517W        W94735  11.452   7.309   4.485
26518W        W94736   7.302  43.666   5.179
26519W        W94737  11.102  22.456  12.425
26520W        W94738  26.528  34.421   3.643
26521W        W94739  18.268  16.642  14.417
26522W        W94740  32.940  35.906  11.178
26523W        W94741  28.864   3.183   1.110
26524W        W94742  17.561  40.505   1.513
26525W        W94743   3.726  37.424   4.591
26526W        W94744   8.200   1.774  10.521
26527W        W94745  17.457  15.585   4.238
26528W        W94746  33.628  22.148   4.099
26529W        W94747  10.887  22.086   3.203
26530W        W94748   8.674  29.044  11.136
26531W        W94749  27.687  10.077  10.802
26532W        W94750  33.716  14.624  10.296
26533W        W94751  35.345  42.102   0.040
26534W        W94752  23.139  12.386   3.654
26535W        W94753   4.781   1.710   2.232
26536W        W94754  35.856   6.871   0.734
26537W        W94755   9.152  41.506  14.106
26538W        W94756  34.422   7.655   2.274
26539W        W94757  42.865  42.370  10.731
26540W        W94758  41.343  35.922   4.136
26541W        W94759  42.302   4.304  11.973
26542W        W94760  32.825  36.589   0.511
26543W        W94761  19.361  44.695  11.228
26544W        W94762  31.512  42.299  12.046
26545W        W94763  18.953  32.824   2.772
26546W        W94764   4.235  25.865   0.288
26547W        W94765  20.613  22.639   0.959
26548W        W94766   9.439  29.661   0.054
26549W        W94767   7.419  35.890   2.284
26550W        W94768   8.921  10.499  12.865
26551W        W94769  43.832  31.503   1.487
26552W        W94770  13.351  18.398  11.921
26553W        W94771  17.202  21.768   0.303
26554W        W94772  15.297   1.722  11.016
26555W        W94773   0.542   9.127   4.736
26556W        W94774  23.985  19.825   4.634
26557W        W94775  34.679  10.633  13.356
26558W        W94776  32.752  29.351   4.273
26559W        W94777  20.615  28.932  12.114
26560W        W94778   5.199  35.022  14.134
26561W        W94779   9.845  36.841   4.339
26562W        W94780  41.975   7.998   1.930
26563W        W94781  27.665  37.085   4.721
26564W        W94782  13.644  40.509  13.951
26565W        W94783  22.211   4.871   1.765
26566W        W94784  12.219   3.541  12.115
26567W        W94785  27.136  39.379   4.374
26568W        W94786  35.063   2.226  11.461
26569W        W94787  17.202  21.833   1.403
26570W        W94788  38.881  38.959  11.970
26571W        W94789  42.405  20.195  10.373
26572W        W94790  19.476   1.820   3.855
26573W        W94791  27.673  22.515  10.352
26574W        W94792  40.684  29.685   0.325
26575W        W94793  11.864   3.346   0.382
26576W        W94794  23.673  30.506  10.454
26577W        W94795  35.063  31.511  12.463
26578W        W94796  36.359   5.961   3.753
26579W        W94797   2.348  36.431   2.312
26580W        W94798   8.793  24.108   1.473
26581W        W94799  21.022  25.684  12.531
26582W        W94800  11.293  28.293  11.571
26583W        W94801   4.859  12.736  13.105
26584W        W94802   4.817  43.226   4.621
26585W        W94803  21.103  38.912   3.354
26586W        W94804  24.934  14.203   0.401
26587W        W94805   6.444  25.470   1.722
26588W        W94806   4.014  36.947   3.294
26589W        W94807  44.951  24.616   0.063
26590W        W94808   7.694   9.669  10.603
26591W        W94809   6.944  35.369   3.189
26592W        W94810  25.042  26.148   4.550
26593W        W94811  18.036  20.457  12.659
26594W        W94812  31.130  44.323   3.652
26595W        W94813  25.207   4.505   4.135
26596W        W94814  24.707  26.759  14.663
26597W        W94815   9.086  10.698  12.419
26598W        W94816  41.877  41.524  13.303
26599W        W94817   1.247  23.980   4.121
26600W        W94818  29.540   4.186  13.227
26601W        W94819  29.153  15.148   1.654
26602W        W94820  36.481  37.506  13.366
26603W        W94821  13.644   2.917  10.970
26604W        W94822  34.899   4.846  13.895
26605W        W94823  21.754  24.132   2.675
26606W        W94824  18.224  44.775   4.886
26607W        W94825  15.683  10.707   3.279
26608W        W94826   9.247  37.687  11.134
26609W        W94827  37.043  16.551   0.206
26610W        W94828  35.302  11.372   4.144
26611W        W94829   0.741   4.823   2.823
26612W        W94830  24.241  20.665   2.129
26613W        W94831  23.620  36.256   2.707
26614W        W94832  34.656  32.901   2.618
26615W        W94833  19.729  21.549  14.597
26616W        W94834  36.025   2.627  13.082
26617W        W94835  39.462   6.311  14.421
26618W        W94836  33.082  30.063   9.922
26619W        W94837  27.936  25.790  13.705
26620W        W94838  35.327  44.754  14.023
26621W        W94839   7.281  14.307   4.555
26622W        W94840  40.970   1.316   3.862
26623W        W94841  27.899  11.442   2.691
26624W        W94842  35.343   4.720   4.903
26625W        W94843  28.161  42.274   4.131
26626W        W94844  14.781   8.781  13.688
26627W        W94845   2.835  23.503   2.611
26628W        W94846   4.309  36.893  14.670
26629W        W94847  29.447  24.997   0.252
26630W        W94848  35.749   9.212  11.174
26631W        W94849  12.447  25.030  11.717
26632W        W94850  20.330  21.794   2.320
26633W        W94851  36.497  11.351   3.122
26634W        W94852   1.832  30.943  14.975
26635W        W94853  38.089   1.353   0.790
26636W        W94854  34.241  27.957  11.186
26637W        W94855  42.947  34.218   0.699
26638W        W94856  12.171  15.120   1.972
26639W        W94857  14.259  23.727   4.616
26640W        W94858  17.736  18.805   2.675
26641W        W94859  35.775   3.701  10.970
26642W        W94860  32.016  30.248  11.980
26643W        W94861   3.778  38.324   4.821
26644W        W94862  26.468   7.381  13.607
26645W        W94863  32.675  11.267   0.066
26646W        W94864   6.742  39.569  14.190
26647W        W94865  35.598  43.207   1.339
26648W        W94866   1.816   3.419  14.588
26649W        W94867  39.170  39.796  10.149
26650W        W94868  23.199  31.182  13.314
26651W        W94869  14.225  21.138  10.571
26652W        W94870  14.785  13.103  14.075
26653W        W94871   5.279  28.615   0.272
26654W        W94872  21.999  33.154  11.578
26655W        W94873  16.819   8.415   3.158
26656W        W94874  32.625  28.061  14.645
26657W        W94875   5.982  35.392  11.130
26658W        W94876  18.663  10.639  13.874
26659W        W94877  15.959   7.189  13.854
26660W        W94878  40.729  36.008   0.459
26661W        W94879  14.410   2.633   2.607
26662W        W94880  29.645  18.686  14.509
26663W        W94881  24.675  33.273   1.250
26664W        W94882   9.221  31.893  13.291
26665W        W94883  39.831  26.758   0.801
26666W        W94884  23.988  18.818  12.143
26667W        W94885   0.396  40.782   0.101
26668W        W94886  39.717  21.098  11.060
26669W        W94887  11.124   8.294   1.941
26670W        W94888  35.505  25.792  12.164
26671W        W94889  30.278  17.220   0.514
26672W        W94890  17.328  25.583   0.811
26673W        W94891  13.522  15.073   1.174
26674W        W94892  38.821  15.782   2.642
26675W        W94893  20.868  17.961  12.589
26676W        W94894  10.207  40.418  10.181
26677W        W94895  40.275  27.728   3.847
26678W        W94896  12.270  29.143  11.653
26679W        W94897  27.349  28.613   4.740
26680W        W94898   1.063  35.978  12.002
26681W        W94899  27.729  11.930   0.546
26682W        W94900  36.023   9.966   2.281
26683W        W94901   3.092   3.365  11.987
26684W        W94902  24.715  43.940   0.910
26685W        W94903  42.602  28.778   2.313
26686W        W94904  15.967  28.657   2.229
26687W        W94905  41.434   4.705   4.548
26688W        W94906  36.597   2.727  11.028
26689W        W94907  27.046  29.636  14.072
26690W        W94908  25.801  27.207  14.377
26691W        W94909  43.141  38.562  10.344
26692W        W94910  41.480  29.594  12.530
26693W        W94911  44.240  15.744   3.676
26694W        W94912  34.004  28.926   3.729
26695W        W94913  10.847  12.099   3.014
26696W        W94914  13.862  17.690  11.474
26697W        W94915  29.913  42.815   1.238
26698W        W94916  32.177   6.654   1.518
26699W        W94917  28.679   4.193   0.852
26700W        W94918  39.325   5.097  10.340
26701W        W94919   4.217  43.958  14.405
26702W        W94920  16.046  19.315   1.697
26703W        W94921  39.905  16.162  12.622
26704W        W94922  28.091  24.551   0.491
26705W        W94923   7.336  32.416   0.208
26706W        W94924   6.170  36.841   0.887
26707W        W94925  43.916  19.539   3.804
26708W        W94926   0.495  32.023  12.904
26709W        W94927   6.693   8.037  14.964
26710W        W94928  41.304  39.869   2.369
26711W        W94929   8.406  33.751  12.036
26712W        W94930   3.764  37.454  11.152
26713W        W94931  36.469  32.238   4.224
26714W        W94932  40.592  11.642   0.010
26715W        W94933  21.764   3.476   4.762
26716W        W94934  39.121  36.846   2.833
26717W        W94935   6.469  22.030   3.514
26718W        W94936  30.141   9.770   4.070
26719W        W94937  12.718  13.310   1.872
26720W        W94938   0.493  33.315   1.805
26721W        W94939   2.641  28.432  13.994
26722W        W94940  21.497  30.186   0.477
26723W        W94941  18.700  20.248  13.499
26724W        W94942  13.258  16.208  11.864
26725W        W94943  24.079  33.087  13.591
26726W        W94944  20.738  42.425  13.028
26727W        W94945  39.091  17.516  13.954
26728W        W94946  37.014  16.255   0.690
26729W        W94947  16.072  30.261   0.389
26730W        W94948  34.845  26.973  13.565
26731W        W94949  10.045  14.685   1.476
26732W        W94950  19.956  26.898  13.490
26733W        W94951  16.648   3.946   4.272
26734W        W94952  31.344  16.658   2.327
26735W        W94953  29.535  29.075  14.853
26736W        W94954  26.297   0.385   0.172
26737W        W94955   3.360  31.881  14.042
26738W        W94956  24.355  34.954  11.860
26739W        W94957   8.815  22.235  14.405
26740W        W94958  30.793  38.549   3.119
26741W        W94959   7.178   6.255   4.598
26742W        W94960   5.294   4.312   1.308
26743W        W94961  29.401  17.778  12.418
26744W        W94962  34.121  21.782   1.783
26745W        W94963  35.462  36.597  14.119
26746W        W94964  37.084   9.025  14.863
26747W        W94965  36.049  38.584  11.693
26748W        W94966  29.061  24.089  10.707
26749W        W94967  26.302  23.466   0.065
26750W        W94968  43.430  25.252  13.958
26751W        W94969  30.754  30.027   3.165
26752W        W94970   9.781  28.582   4.428
26753W        W94971  10.496  36.680  11.801
26754W        W94972  13.882  19.011   3.654
26755W        W94973  42.546   3.806  14.394
26756W        W94974  35.817  41.544  14.549
26757W        W94975  26.560  37.189   2.143
26758W        W94976  20.140  36.479   5.242
26759W        W94977  22.487  10.283  12.571
26760W        W94978  31.368  10.313   3.760
26761W        W94979  27.194  44.037   0.338
26762W        W94980  37.799  31.436  11.083
26763W        W94981  25.123  42.294   0.461
26764W        W94982  12.675  12.397   0.760
26765W        W94983   4.342  31.005  11.661
26766W        W94984  15.221   1.739   1.900
26767W        W94985   1.155  29.967   2.863
26768W        W94986  43.440  44.936   0.453
26769W        W94987  21.285   9.719  12.853
26770W        W94988  41.948  29.246  13.548
26771W        W94989   7.361  39.104  10.541
26772W        W94990  36.720  33.085  12.096
26773W        W94991   2.733  23.315  14.844
26774W        W94992   2.399  15.516   3.111
26775W        W94993  41.856  18.657   3.477
26776W        W94994  28.688  41.498  12.062
26777W        W94995  20.665   5.059   1.077
26778W        W94996  29.095  16.844   4.202
26779W        W94997  37.059   4.411   4.651
26780W        W94998   2.569  41.486   1.694
26781W        W94999  21.552  42.345  14.976
26782W        W95000  15.655  13.855  11.930
26783W        W95001   6.930  44.661   0.399
26784W        W95002  37.085  30.156   3.793
26785W        W95003  43.581  35.844  12.007
26786W        W95004  18.989  17.768  11.764
26787W        W95005  37.583  33.894  12.360
26788W        W95006   1.647   0.709   2.171
26789W        W95007  39.881   5.686   1.869
26790W        W95008  30.214   3.449   0.064
26791W        W95009  42.095   4.118  12.399
26792W        W95010  33.079   3.272   3.187
26793W        W95011  29.677  29.687  13.483
26794W        W95012  21.026  26.992   4.528
26795W        W95013   5.151  39.832   2.717
26796W        W95014  32.437  12.175  11.399
26797W        W95015  29.451  40.035  12.585
26798W        W95016  44.785  31.044  10.794
26799W        W95017  14.243   5.092  13.612
26800W        W95018  19.723  14.900   1.114
26801W        W95019  16.694   4.344   4.638
26802W        W95020   1.257  19.817  11.942
26803W        W95021   2.634  11.151  14.972
26804W        W95022  38.086  12.573   1.889
26805W        W95023  13.091   9.850   4.655
26806W        W95024  15.624  25.367  12.997
26807W        W95025  35.043  28.404   2.288
26808W        W95026  15.920  26.001   3.741
26809W        W95027  13.860   0.865   4.952
26810W        W95028  38.931   9.336  11.280
26811W        W95029   9.808  16.961   2.931
26812W        W95030  36.491  30.194  12.951
26813W        W95031  26.614  25.401   2.279
26814W        W95032   2.969  13.690   4.350
26815W        W95033  16.778  22.946  13.822
26816W        W95034  21.450  44.494  11.254
26817W        W95035  29.137  32.480  12.531
26818W        W95036   8.296  34.347  14.087
26819W        W95037  25.034  23.721  13.522
26820W        W95038  11.079   7.582   0.751
26821W        W95039  15.298  21.234  11.717
26822W        W95040   3.340  15.757   0.352
26823W        W95041  32.070  13.342   3.543
26824W        W95042  14.784   8.688   0.443
26825W        W95043  15.636  42.920   0.563
26826W        W95044  22.203   2.310  13.587
26827W        W95045  20.302  29.515   0.112
26828W        W95046  24.450   2.512  13.546
26829W        W95047  29.170  41.480  14.093
26830W        W95048  40.928  36.627  12.900
26831W        W95049   8.833  28.100   2.714
26832W        W95050   2.415  41.400   4.646
26833W        W95051  43.757  26.553   1.259
26834W        W95052  42.600   1.904  11.551
26835W        W95053  38.273   5.372   0.255
26836W        W95054  36.254  13.781  13.925
26837W        W95055  15.240  25.722  10.715
26838W        W95056  39.338  17.993  12.604
26839W        W95057  40.222   2.294   3.298
26840W        W95058  13.521  19.161   0.856
26841W        W95059  11.187   8.815   3.752
26842W        W95060  43.318   1.399   4.864
26843W        W95061  43.812  17.573   3.580
26844W        W95062  41.371  44.959   0.862
26845W        W95063  36.164  32.224  13.357
26846W        W95064  25.269  33.071   1.860
26847W        W95065  18.308  22.841   2.757
26848W        W95066  35.715  30.435   2.047
26849W        W95067  43.951  44.602   0.428
26850W        W95068  40.719  30.849  12.425
26851W        W95069  42.525   2.254   1.789
26852W        W95070  10.827   1.091   2.228
26853W        W95071  11.850  22.524  11.492
26854W        W95072  32.005   7.434   0.379
26855W        W95073  36.080   6.809   1.225
26856W        W95074  18.887  17.673   3.670
26857W        W95075  25.240  17.015   0.471
26858W        W95076  38.038  29.042  11.045
26859W        W95077  31.437  20.202  13.457
26860W        W95078   9.393   0.826  12.916
26861W        W95079  19.035  31.111   0.241
26862W        W95080   0.495  26.664  13.947
26863W        W95081  26.640  14.596   4.029
26864W        W95082  43.912  32.062  14.523
26865W        W95083  33.275   4.109  12.608
26866W        W95084   8.975  11.389   0.934
26867W        W95085   6.796   5.682  14.419
26868W        W95086  12.060  37.334  11.619
26869W        W95087  43.318  20.215  10.892
26870W        W95088   0.812  26.214  11.133
26871W        W95089  13.323   6.914  11.558
26872W        W95090  29.318  22.278   3.294
26873W        W95091  29.570  29.731   1.236
26874W        W95092  19.281  25.504  12.045
26875W        W95093  14.554  34.574  12.956
26876W        W95094   9.328  23.469  14.458
26877W        W95095   1.368   3.697   1.637
26878W        W95096  25.250   6.172   0.248
26879W        W95097  12.410  27.562  12.475
26880W        W95098  14.143  22.989  13.979
26881W        W95099  36.708  11.187   2.638
26882W        W95100  41.602   0.007  14.522
26883W        W95101  35.473  19.099   2.849
26884W        W95102  34.153   6.491   4.099
26885W        W95103  42.755  22.702  13.675
26886W        W95104  18.537   3.883   4.605
26887W        W95105  41.078  43.135   1.330
26888W        W95106  22.641  43.739   2.457
26889W        W95107  17.015  42.924   0.815
26890W        W95108  17.828   6.301  14.843
26891W        W95109  38.843  14.706   1.328
26892W        W95110   0.343  21.159  11.017
26893W        W95111  22.057  17.137   1.356
26894W        W95112   4.446  30.905   4.313
26895W        W95113  12.534   7.736  14.625
26896W        W95114  18.023  32.861  14.683
26897W        W95115  43.425  12.237   2.429
26898W        W95116  12.328   5.451   0.649
26899W        W95117  14.673  25.550  11.409
26900W        W95118   3.796  41.612  10.050
26901W        W95119  20.100   4.777  10.409
26902W        W95120  38.807  35.466  11.047
26903W        W95121  30.169  28.576   1.868
26904W        W95122  12.097  28.540  10.148
26905W        W95123  41.918  32.169  11.746
26906W        W95124  16.750  22.548   2.969
26907W        W95125   3.261  43.988  14.034
26908W        W95126  10.719  38.614   4.875
26909W        W95127  34.352  20.376   1.712
26910W        W95128  24.166  26.551  12.143
26911W        W95129  12.652  40.694  14.946
26912W        W95130   2.289  16.947  11.545
26913W        W95131  33.740   9.387   1.551
26914W        W95132  37.847  15.363  10.599
26915W        W95133  38.870  28.144  10.704
26916W        W95134  13.788  33.439   3.212
26917W        W95135  15.475  13.305  11.587
26918W        W95136  26.221  16.152  11.212
26919W        W95137  16.798   5.360  12.413
26920W        W95138  37.499  16.964  10.659
26921W        W95139  10.153  22.269   0.915
26922W        W95140  33.415  13.225   0.020
26923W        W95141  10.655  23.024  11.901
26924W        W95142   5.297   7.844  10.725
26925W        W95143  17.341  12.145  11.247
26926W        W95144  42.749  24.377   2.422
26927W        W95145  43.861  18.216  11.951
26928W        W95146  33.621  33.869  12.576
26929W        W95147  15.591   8.681  12.977
26930W        W95148  41.866  38.778  11.621
26931W        W95149  28.125  17.637   3.658
26932W        W95150  40.978  22.521   3.708
26933W        W95151  32.120  38.868   3.158
26934W        W95152   4.322   2.117  14.960
26935W        W95153  39.184  36.597  13.903
26936W        W95154  20.096  36.405   0.771
26937W        W95155  13.383  12.306  13.436
26938W        W95156  42.172  17.712  11.561
26939W        W95157  44.998  32.498   0.838
26940W        W95158  31.115  14.919   2.863
26941W        W95159   4.696   0.797  12.650
26942W        W95160  37.309  15.509   4.683
26943W        W95161   7.735   8.783  10.774
26944W        W95162   3.873  11.609  12.300
26945W        W95163  14.583  34.477  13.468
26946W        W95164   6.880  40.508  12.629
26947W        W95165  31.874   5.360   2.802
26948W        W95166  31.791  23.953  12.016
26949W        W95167  13.347  22.296  11.580
26950W        W95168  34.308  30.349  13.400
26951W        W95169  18.247  36.888  10.664
26952W        W95170  17.263   3.162  12.407
26953W        W95171  34.109  19.272   0.381
26954W        W95172  30.552  18.792  12.668
26955W        W95173  39.837  17.867   4.221
26956W        W95174   0.744  38.433  11.591
26957W        W95175  43.452  16.582  11.531
26958W        W95176  13.369   2.252  12.544
26959W        W95177  39.028  16.997   2.256
26960W        W95178  37.856  12.638   3.595
26961W        W95179  38.036   8.341   1.278
26962W        W95180   1.926  17.828   4.077
26963W        W95181  34.372  24.517   0.671
26964W        W95182   9.395   0.737  10.677
26965W        W95183  34.419   2.522  13.275
26966W        W95184  41.988  22.436  13.114
26967W        W95185   0.054  22.756  14.143
26968W        W95186  23.736   0.891   3.785
26969W        W95187   9.904  16.566   1.247
26970W        W95188  16.218  42.532  12.859
26971W        W95189  13.456  42.714   3.244
26972W        W95190   0.836  10.327  12.940
26973W        W95191  10.797  35.828   4.145
26974W        W95192  43.938  28.678   1.767
26975W        W95193  10.264  20.661   4.043
26976W        W95194  35.798  42.100  14.745
26977W        W95195  25.807   2.788  12.987
26978W        W95196  12.405  38.854  12.429
26979W        W95197  13.280  38.166  14.395
26980W        W95198  30.512  12.661  12.915
26981W        W95199  35.899  34.018  14.841
26982W        W95200  27.275  23.095  12.403
26983W        W95201  40.843  15.861   4.685
26984W        W95202  32.383  40.119  13.845
26985W        W95203  22.054  44.601   1.149
26986W        W95204   6.192  17.207   3.018
26987W        W95205  21.631  42.267   3.375
26988W        W95206  22.704  22.217   3.754
26989W        W95207  29.008   6.875   2.164
26990W        W95208  22.520   7.671   2.409
26991W        W95209   1.919   6.228  14.036
26992W        W95210  40.103  41.006  10.606
26993W        W95211  44.480  23.227  13.011
26994W        W95212  27.013  14.828  14.424
26995W        W95213  31.334  44.035  12.958
26996W        W95214   4.020   1.268   4.501
26997W        W95215  23.093  18.560   2.295
26998W        W95216   3.444  26.793  14.427
26999W        W95217   8.167  11.514   0.443
27000W        W95218  36.348   0.437  10.707
27001W        W95219  14.772  24.752  13.489
27002W        W95220  41.893  38.806   1.915
27003W        W95221   8.125   3.814  14.891
27004W        W95222  31.109  43.749  13.344
27005W        W95223  43.005  24.143   0.968
27006W        W95224   6.500  26.918   4.476
27007W        W95225  37.102  17.711   1.336
27008W        W95226  33.917   6.645  14.361
27009W        W95227  33.173  34.401   4.259
27010W        W95228  14.622  36.751   1.878
27011W        W95229  31.384  39.171  14.912
27012W        W95230  15.728  33.578  11.480
27013W        W95231  19.184  11.072   1.246
27014W        W95232   8.643  23.709   5.125
27015W        W95233  24.532  40.067  12.826
27016W        W95234  37.494   4.759  10.589
27017W        W95235  12.853  16.538   0.457
27018W        W95236  41.521  14.778  14.986
27019W        W95237   4.151  26.590  14.051
27020W        W95238   8.022   8.259   0.035
27021W        W95239  29.049  22.072   4.683
27022W        W95240  30.476  26.125  12.039
27023W        W95241  36.793  27.533  13.103
27024W        W95242  32.071  37.181   4.466
27025W        W95243  36.351   3.697  13.865
27026W        W95244  35.077  11.816   2.280
27027W        W95245  29.795  43.916   1.949
27028W        W95246  32.839  34.492  11.576
27029W        W95247  11.733   9.833  12.574
27030W        W95248  25.891  38.534  13.004
27031W        W95249   9.928  43.484  14.439
27032W        W95250  25.672  24.526  14.868
27033W        W95251   0.875  11.293  13.074
27034W        W95252  26.478   5.776  10.131
27035W        W95253  27.511   3.552   3.295
27036W        W95254  15.788  41.244  11.928
27037W        W95255   5.965  24.537   2.238
27038W        W95256  22.622  39.264  13.658
27039W        W95257  20.088  33.075  14.561
27040W        W95258  13.045  12.266  11.989
27041W        W95259  29.556  23.413   1.472
27042W        W95260  27.473   4.794  12.845
27043W        W95261  22.116  10.777   2.719
27044W        W95262  33.446  28.779   1.840
27045W        W95263  20.466  37.843   2.797
27046W        W95264  16.725  41.084   2.843
27047W        W95265   2.173   4.552   0.384
27048W        W95266  30.959  28.101  11.987
27049W        W95267  37.153   5.719   3.462
27050W        W95268  14.123  37.802   4.768
27051W        W95269   2.604   7.766  12.912
27052W        W95270  10.347   5.282  13.934
27053W        W95271  40.474   4.454  13.943
27054W        W95272  32.621  22.214  12.586
27055W        W95273  31.181  37.767  11.110
27056W        W95274  13.203  15.618  13.422
27057W        W95275  11.354  34.300   2.718
27058W        W95276  21.626  34.173   3.191
27059W        W95277   4.744  32.949  14.415
27060W        W95278  33.001  13.115  14.737
27061W        W95279   0.390  24.334   0.055
27062W        W95280  10.068  15.923   5.490
27063W        W95281  11.243  11.348  10.663
27064W        W95282  20.605  20.682   0.916
27065W        W95283  30.509  14.540   2.748
27066W        W95284  26.118   1.972   2.470
27067W        W95285  22.087   3.510   2.112
27068W        W95286   6.896  38.440   2.643
27069W        W95287  44.029  17.355  14.601
27070W        W95288  22.919  25.160   1.968
27071W        W95289  20.490  29.467  13.794
27072W        W95290  16.638  19.727   2.454
27073W        W95291  31.247  16.854   2.794
27074W        W95292  36.477   5.928   1.945
27075W        W95293   7.394  20.876  11.240
27076W        W95294   5.803  16.227  10.153
27077W        W95295  30.008  33.365   4.107
27078W        W95296  13.923  21.189  13.060
27079W        W95297  17.826  11.142   2.903
27080W        W95298  16.384  23.173   0.092
27081W        W95299   3.921  44.490  10.253
27082W        W95300  28.601  28.889  12.388
27083W        W95301  25.546  42.321   3.422
27084W        W95302  32.003   4.776  12.560
27085W        W95303  44.589   0.342  10.272
27086W        W95304  25.245  10.959   4.505
27087W        W95305   5.709  15.779  12.146
27088W        W95306  15.626  30.042   2.796
27089W        W95307  38.939  43.447  14.087
27090W        W95308  15.665   7.189   0.159
27091W        W95309  27.011   7.130   3.900
27092W        W95310   7.388  25.409   4.129
27093W        W95311  31.932  21.274  13.979
27094W        W95312  33.208  22.446  12.919
27095W        W95313  19.619  26.553  12.120
27096W        W95314   5.618  22.789  13.029
27097W        W95315   3.695  28.048  10.351
27098W        W95316  27.577   9.993   3.280
27099W        W95317  38.362  14.733  14.516
27100W        W95318  31.472  14.512  14.896
27101W        W95319  39.603  23.071  11.009
27102W        W95320  25.716  39.363   2.734
27103W        W95321  12.641   7.570  10.720
27104W        W95322  21.135  34.952  14.775
27105W        W95323  16.223  34.095   3.225
27106W        W95324  28.180   3.568  11.502
27107W        W95325  34.555  40.238  13.005
27108W        W95326  44.070  33.262  11.483
27109W        W95327  19.126   1.425   4.401
27110W        W95328  44.692  37.136  12.892
27111W        W95329   0.159  19.250   2.241
27112W        W95330   0.409   8.355   0.870
27113W        W95331  14.160  17.611  13.778
27114W        W95332  24.543   8.309   1.947
27115W        W95333  17.604  37.089   0.334
27116W        W95334   9.383  36.418   3.748
27117W        W95335  36.405   3.970  13.413
27118W        W95336  26.079  43.607  13.502
27119W        W95337  19.737  32.348  13.017
27120W        W95338   7.704  30.641   3.691
27121W        W95339  32.822   2.958   2.858
27122W        W95340  21.398  43.239   1.830
27123W        W95341  12.192  28.272   0.788
27124W        W95342   7.152  41.083  11.965
27125W        W95343  28.456   5.398  12.071
27126W        W95344  25.570  30.401  14.500
27127W        W95345   1.375  11.711  11.114
27128W        W95346   1.408  11.641   4.604
27129W        W95347  13.755  44.949   3.742
27130W        W95348  15.411  41.438   1.841
27131W        W95349  44.560  34.278  12.850
27132W        W95350  41.345   2.789   1.272
27133W        W95351  35.107  37.006   2.360
27134W        W95352  12.007   0.533   1.574
27135W        W95353  36.387  39.580  10.949
27136W        W95354   8.205  33.854  13.944
27137W        W95355  15.242  17.567  10.419
27138W        W95356  19.147  21.645  12.920
27139W        W95357  25.656  17.986  13.003
27140W        W95358  17.661  16.697  13.115
27141W        W95359  31.457  30.582   0.181
27142W        W95360  11.887  29.125  13.147
27143W        W95361  37.098   4.950  13.889
27144W        W95362  29.215   9.816  14.391
27145W        W95363  19.180   7.916  11.960
27146W        W95364  18.672   3.003  12.471
27147W        W95365  11.256  29.027  11.036
27148W        W95366  39.389   8.704  12.428
27149W        W95367   6.759  37.050   3.586
27150W        W95368   2.758  15.824  12.048
27151W        W95369  38.986   0.863   9.947
27152W        W95370   8.958  16.587  13.378
27153W        W95371  44.173   6.453  11.869
27154W        W95372  39.572   4.619  14.029
27155W        W95373  39.402  27.756   1.683
27156W        W95374  27.529  21.463   2.383
27157W        W95375  32.550  15.315  13.116
27158W        W95376   4.771  16.270  14.892
27159W        W95377  34.104  16.719   3.741
27160W        W95378  33.479  35.390  13.386
27161W        W95379  38.723  34.923   1.988
27162W        W95380  31.036   4.009   2.755
27163W        W95381  15.809  13.834  13.563
27164W        W95382  24.704  35.007   1.304
27165W        W95383   1.173   3.763  11.037
27166W        W95384  13.298  43.412   0.906
27167W        W95385  18.453  44.917  11.403
27168W        W95386  17.634  34.464   4.618
27169W        W95387   9.634   6.788  12.422
27170W        W95388  20.504  29.725  12.801
27171W        W95389  22.408  26.516   4.698
27172W        W95390  30.204  30.196  14.267
27173W        W95391  35.086  42.063  12.523
27174W        W95392  22.189  33.227   1.849
27175W        W95393  40.825   4.848   3.720
27176W        W95394  28.374  15.182   1.030
27177W        W95395  18.072   9.614  14.246
27178W        W95396  23.207  44.971  14.395
27179W        W95397  13.539   4.202  12.804
27180W        W95398  26.450  15.758   2.479
27181W        W95399  11.312  35.318   0.840
27182W        W95400   5.135   0.667  12.410
27183W        W95401  29.544   7.339   0.044
27184W        W95402   2.679  13.468  14.348
27185W        W95403  24.132   6.800   4.043
27186W        W95404  44.535   9.241   1.969
27187W        W95405   2.781  34.174   3.779
27188W        W95406  32.200  36.190   3.188
27189W        W95407  11.179   0.467   0.995
27190W        W95408   8.008  23.671  10.286
27191W        W95409  39.065  21.493  14.926
27192W        W95410  19.124  14.742  10.275
27193W        W95411  32.863  30.050   0.256
27194W        W95412  28.673  38.080   2.422
27195W        W95413   7.719   6.314  10.018
27196W        W95414   8.788  29.431   1.756
27197W        W95415  18.133   4.416   0.698
27198W        W95416  32.296   8.947   5.113
27199W        W95417   4.240  12.104   2.712
27200W        W95418   8.372   7.200  11.186
27201W        W95419  35.320  25.099   1.264
27202W        W95420  43.842  16.865  14.502
27203W        W95421  39.598  29.120   4.281
27204W        W95422   3.683  15.399  10.678
27205W        W95423  20.651   1.971   1.024
27206W        W95424  10.306  28.723   2.226
27207W        W95425  38.889  20.359   0.368
27208W        W95426   3.355  24.406  12.965
27209W        W95427  22.793  13.596   2.850
27210W        W95428  44.512  14.421   5.041
27211W        W95429  22.805   8.347   2.680
27212W        W95430  33.418  40.289   0.025
27213W        W95431  35.753  38.651   3.814
27214W        W95432  11.175  44.883  12.886
27215W        W95433  19.405  41.297  14.221
27216W        W95434  13.653   9.620  11.142
27217W        W95435   8.704  41.838   1.188
27218W        W95436   3.980  42.048   0.664
27219W        W95437  21.038  35.660  10.597
27220W        W95438   7.386  32.151  14.763
27221W        W95439  23.251  31.901   2.094
27222W        W95440  18.582   8.096  10.364
27223W        W95441  11.327  24.185  12.990
27224W        W95442   5.786  34.021  12.854
27225W        W95443  40.110  39.556  11.855
27226W        W95444   7.606  12.405  11.233
27227W        W95445  37.803   6.899   4.571
27228W        W95446  12.578  19.279   2.889
27229W        W95447   6.151  25.056  12.992
27230W        W95448  38.099   9.113   4.656
27231W        W95449  13.974   2.965   1.758
27232W        W95450   2.544  29.991  13.414
27233W        W95451  34.524  13.266  12.932
27234W        W95452  23.289   9.348  14.382
27235W        W95453  10.636  30.041  12.775
27236W        W95454  13.571  10.650   1.796
27237W        W95455   3.807  32.014   4.155
27238W        W95456  22.812   0.725  12.323
27239W        W95457  19.100  16.226  11.792
27240W        W95458   5.382  37.373   3.288
27241W        W95459  17.661  30.887  10.521
27242W        W95460  12.288  10.710  12.795
27243W        W95461  36.430  37.972  12.628
27244W        W95462  29.176  43.843   2.437
27245W        W95463  43.020  26.839  11.150
27246W        W95464  33.996   3.779   2.261
27247W        W95465  30.926  30.198   9.435
27248W        W95466  43.433  41.585  11.577
27249W        W95467  24.496  43.490  14.352
27250W        W95468  24.798  22.151   2.876
27251W        W95469  22.808  34.601   3.331
27252W        W95470  31.446   6.518   3.273
27253W        W95471  20.666  23.805   0.224
27254W        W95472  42.997  27.858   2.456
27255W        W95473  37.081  10.249   1.875
27256W        W95474  39.932  22.944  14.484
27257W        W95475   4.695  34.406  10.594
27258W        W95476   6.211  21.044  12.550
27259W        W95477   8.643  19.694  12.611
27260W        W95478  18.777  43.112  11.554
27261W        W95479  30.340  25.557   1.753
27262W        W95480  32.997  37.426   2.398
27263W        W95481   6.859   7.301   3.142
27264W        W95482  18.271  10.234   4.070
27265W        W95483  22.309  27.853  11.523
27266W        W95484  35.935  37.539   1.211
27267W        W95485  28.956   9.177   2.451
27268W        W95486   3.988  40.037  14.403
27269W        W95487  11.826   2.883   2.919
27270W        W95488  39.993  13.104   2.874
27271W        W95489  15.689  41.306   4.646
27272W        W95490  10.127  32.607   3.152
27273W        W95491  41.966  32.709   2.263
27274W        W95492  14.180   0.761   3.349
27275W        W95493  32.534  36.775  14.300
27276W        W95494  28.292  42.243  11.101
27277W        W95495  12.515  17.766  14.850
27278W        W95496   2.232   3.744  12.016
27279W        W95497  17.586  43.412  13.105
27280W        W95498  28.145  21.634   1.167
27281W        W95499   2.968  44.284   4.148
27282W        W95500  43.031  37.007  11.522
27283W        W95501  19.836  42.962  11.039
27284W        W95502  19.338  18.778  13.466
27285W        W95503   2.398  23.984   0.615
27286W        W95504  30.728  12.161   4.500
27287W        W95505   3.032  10.110  14.068
27288W        W95506   1.111  44.241   0.411
27289W        W95507  12.262  34.657   4.552
27290W        W95508  27.003  34.824  11.183
27291W        W95509  22.739  42.157  13.311
27292W        W95510  24.416   7.442   0.127
27293W        W95511   2.895  15.772   4.296
27294W        W95512  12.646  18.768   4.421
27295W        W95513  35.067   3.020  13.096
27296W        W95514  25.753   5.227   3.137
27297W        W95515  23.297  39.003   3.939
27298W        W95516  29.938   4.700   2.437
27299W        W95517  33.820  31.373  14.938
27300W        W95518   4.184  35.621   0.056
27301W        W95519  18.243  18.978   3.429
27302W        W95520  28.495  41.373  10.702
27303W        W95521   6.128  16.212   0.325
27304W        W95522  40.326   8.425   1.789
27305W        W95523   0.854  14.500   4.693
27306W        W95524  24.024   0.539  12.736
27307W        W95525  30.058  24.644   2.746
27308W        W95526  22.725  13.529  14.378
27309W        W95527  43.913  15.406   1.872
27310W        W95528  11.390  41.411   3.160
27311W        W95529   6.745  26.028   2.316
27312W        W95530  20.550   6.726   3.639
27313W        W95531  43.435   0.979  14.366
27314W        W95532  18.283   1.129  12.660
27315W        W95533  41.191  13.182   5.033
27316W        W95534  35.644  15.916   4.437
27317W        W95535  41.810  13.218  13.838
27318W        W95536   7.291  15.201   1.469
27319W        W95537  30.087  35.427   3.366
27320W        W95538  38.821  42.199  14.985
27321W        W95539  34.468  23.701   5.015
27322W        W95540  39.598  23.611  13.296
27323W        W95541  15.104  15.077   0.454
27324W        W95542  33.644  27.695  13.020
27325W        W95543  15.077  26.657  13.091
27326W        W95544  42.126  31.934   1.080
27327W        W95545   9.379  17.298  10.824
27328W        W95546  19.983   5.625   2.708
27329W        W95547   8.741  43.800   1.986
27330W        W95548  21.531  29.614   2.152
27331W        W95549  33.321  44.664  10.800
27332W        W95550  38.444  25.747  14.348
27333W        W95551  44.408  14.833   0.228
27334W        W95552  12.882   3.373   1.316
27335W        W95553  21.781  22.653   1.444
27336W        W95554   2.442  31.666   0.334
27337W        W95555  34.483  14.972   1.022
27338W        W95556  39.101  34.843  10.446
27339W        W95557  38.026   2.303   4.056
27340W        W95558  41.926  21.044   1.795
27341W        W95559   2.616  41.137   3.708
27342W        W95560  36.030  11.208  14.683
27343W        W95561  42.980  44.486  11.196
27344W        W95562  30.136  24.482   1.349
27345W        W95563  17.608  18.755   4.479
27346W        W95564  22.127  43.000   1.021
27347W        W95565  43.791  11.063   3.579
27348W        W95566  20.172   5.967   1.793
27349W        W95567  12.660  12.121   1.230
27350W        W95568  32.361  37.003   1.829
27351W        W95569  30.532   5.931   3.138
27352W        W95570  25.127  15.592   3.599
27353W        W95571  20.000  14.989   4.927
27354W        W95572  16.283  38.887   2.332
27355W        W95573  44.795  32.467  12.501
27356W        W95574  17.118  37.850   0.405
27357W        W95575  34.567  29.015  14.445
27358W        W95576  13.871  16.277  10.510
27359W        W95577  33.879  32.634   0.689
27360W        W95578   3.447  38.849  10.698
27361W        W95579   2.982  14.122   2.784
27362W        W95580   4.898  21.281  14.500
27363W        W95581   0.450  28.392  11.109
27364W        W95582  37.313   0.787   0.380
27365W        W95583  33.953  27.607   0.649
27366W        W95584  10.133   1.875  13.916
27367W        W95585  37.895  19.465   1.830
27368W        W95586  11.641  18.660  12.063
27369W        W95587   9.148  11.120   1.801
27370W        W95588  31.236   6.291   4.074
27371W        W95589   5.929   4.356  11.183
27372W        W95590   7.190  38.712   4.554
27373W        W95591  26.812  31.649  10.925
27374W        W95592  42.094  42.365   1.415
27375W        W95593  21.530   5.991  11.185
27376W        W95594  28.233  26.103  11.621
27377W        W95595  26.926  10.126  10.267
27378W        W95596  29.532  41.029   4.515
27379W        W95597  31.596  10.856  14.517
27380W        W95598  28.717  33.447   1.448
27381W        W95599  43.922   3.480   0.908
27382W        W95600   0.338   5.329   2.156
27383W        W95601  36.384  31.338   3.293
27384W        W95602  39.888  16.098  13.587
27385W        W95603  31.116  13.080   0.082
27386W        W95604  23.014  24.672  11.988
27387W        W95605  31.250   1.337  11.629
27388W        W95606  37.528  20.297   2.804
27389W        W95607  14.274  35.133  14.420
27390W        W95608  21.199  44.299   5.237
27391W        W95609  16.678  24.869   2.413
27392W        W95610   4.697  14.441  10.593
27393W        W95611   2.326  33.579   4.566
27394W        W95612  14.197  17.713   0.706
27395W        W95613  14.798  15.747   1.403
27396W        W95614  33.696   8.002   0.905
27397W        W95615  33.158  10.859  14.030
27398W        W95616  15.537  12.592  14.178
27399W        W95617   1.455  24.484  12.007
27400W        W95618  29.456  43.415  13.564
27401W        W95619  31.732   2.817   3.165
27402W        W95620  41.398  23.809   3.252
27403W        W95621  27.756  41.930  10.680
27404W        W95622  16.147  40.630   0.518
27405W        W95623  12.836  26.593  10.576
27406W        W95624  23.383  37.944   4.177
27407W        W95625  18.020  33.976   5.109
27408W        W95626  17.809  16.880  10.486
27409W        W95627  12.288  11.757  10.251
27410W        W95628  36.104   0.982   4.106
27411W        W95629   9.275  14.121   3.414
27412W        W95630  44.607   4.540   3.168
27413W        W95631  18.795   2.449   3.618
27414W        W95632  40.506  36.878  13.556
27415W        W95633  12.609   9.331  11.937
27416W        W95634  16.690  24.976   1.502
27417W        W95635   1.240  38.050  13.585
27418W        W95636  14.611  34.324  14.440
27419W        W95637  15.982  23.039   3.347
27420W        W95638   4.791  41.536   0.855
27421W        W95639   1.829  30.531  11.164
27422W        W95640  27.557  16.357   0.960
27423W        W95641  13.228  25.109   0.826
27424W        W95642  29.115   9.455  13.310
27425W        W95643  39.825  29.065  14.012
27426W        W95644  29.191  33.068  11.899
27427W        W95645  23.700  35.672   9.806
27428W        W95646  36.836  14.148   4.545
27429W        W95647  12.664  41.319  11.905
27430W        W95648  25.793  26.569   4.616
27431W        W95649  41.825  20.591  11.886
27432W        W95650  37.781   7.775   4.673
27433W        W95651  42.595  27.100  12.197
27434W        W95652   4.792  24.878   4.801
27435W        W95653  11.589  18.131   4.640
27436W        W95654  30.418  18.028   3.223
27437W        W95655   8.924  22.517   0.290
27438W        W95656  29.120   9.111  13.731
27439W        W95657  15.892  13.243   4.392
27440W        W95658  12.377  24.990  13.806
27441W        W95659   5.159  20.823   4.297
27442W        W95660  41.554   6.769  12.447
27443W        W95661  25.035  26.569  11.584
27444W        W95662  13.163  29.435  12.124
27445W        W95663  33.168  12.799   1.782
27446W        W95664  15.284  21.969  12.097
27447W        W95665   8.403  38.802   4.494
27448W        W95666  40.857  13.542   4.049
27449W        W95667   2.938  25.562  13.501
27450W        W95668  37.504   9.911   2.849
27451W        W95669  17.584  44.986  11.237
27452W        W95670  33.010  15.127   4.126
27453W        W95671  35.487  15.432   4.519
27454W        W95672  14.033  14.420  12.929
27455W        W95673  38.872  41.086  10.759
27456W        W95674  32.503  22.807   4.853
27457W        W95675  37.610   6.247   1.790
27458W        W95676   1.719  22.238   4.662
27459W        W95677   7.164   3.842   3.566
27460W        W95678  25.035  19.680  14.497
27461W        W95679   0.778  17.407  11.464
27462W        W95680  35.541  41.253   0.823
27463W        W95681  39.545  19.121   1.206
27464W        W95682   9.802  35.887   0.461
27465W        W95683   1.805  12.918  13.984
27466W        W95684   6.440  26.148   3.760
27467W        W95685  12.504   0.408   1.499
27468W        W95686   8.178  12.563  12.882
27469W        W95687  41.397  23.841   0.739
27470W        W95688   0.816  29.403   3.197
27471W        W95689  20.119  42.790   2.265
27472W        W95690   0.886  42.770  13.487
27473W        W95691  16.645   0.246  12.320
27474W        W95692  42.180  10.945   2.104
27475W        W95693  35.060   4.183   2.667
27476W        W95694   7.543   4.243  14.417
27477W        W95695  34.946  28.991  11.635
27478W        W95696   5.173   4.354   4.316
27479W        W95697  42.996   5.129   0.067
27480W        W95698  27.470  36.985  11.670
27481W        W95699  19.653  32.433   1.728
27482W        W95700  22.717  41.710  11.490
27483W        W95701  16.178  43.029  12.972
27484W        W95702  23.254  41.447   2.218
27485W        W95703  29.009  38.992   1.046
27486W        W95704   3.538  21.444  14.684
27487W        W95705  17.274   1.763   3.364
27488W        W95706  37.076  44.502  13.888
27489W        W95707  42.547   6.003  12.879
27490W        W95708  31.045  16.064   0.185
27491W        W95709   7.394   5.350   1.105
27492W        W95710  38.590   7.781   2.914
27493W        W95711   2.669  13.816   1.958
27494W        W95712   8.963  37.571   0.324
27495W        W95713  11.239  18.804   0.838
27496W        W95714   2.685  18.029  14.818
27497W        W95715   4.133  11.188  12.923
27498W        W95716   9.834  16.754   4.096
27499W        W95717   9.736   6.529  10.757
27500W        W95718  37.409   0.867  13.636
27501W        W95719  41.546  29.538   0.739
27502W        W95720  22.220  32.648   2.706
27503W        W95721  21.463  42.374  11.014
27504W        W95722  24.518   7.258   4.649
27505W        W95723   5.795  29.978  10.782
27506W        W95724  28.035  12.930  12.333
27507W        W95725  36.147   3.946  14.350
27508W        W95726  42.215   1.449  10.499
27509W        W95727  20.719   6.629  13.557
27510W        W95728  14.246   6.518   0.058
27511W        W95729  40.711  15.679  11.067
27512W        W95730   4.495  24.250  13.538
27513W        W95731  24.341   2.250   0.878
27514W        W95732  12.626  42.313  11.885
27515W        W95733   8.240   8.291  11.684
27516W        W95734   3.908  25.065   2.680
27517W        W95735  22.517  12.384   4.178
27518W        W95736  35.288  12.486  11.674
27519W        W95737  30.740  15.518   2.432
27520W        W95738   9.262   2.798   1.884
27521W        W95739  30.838  42.990   0.996
27522W        W95740  17.216  23.395   3.487
27523W        W95741  39.316  16.624   4.060
27524W        W95742  29.134  31.426   0.162
27525W        W95743  26.543   9.833  12.452
27526W        W95744   0.013  34.018   4.034
27527W        W95745  25.942  32.070   3.253
27528W        W95746  12.731  25.305   3.764
27529W        W95747  28.015  32.074   0.439
27530W        W95748  37.716  36.564  14.939
27531W        W95749  35.345  41.502  11.783
27532W        W95750  20.163  11.154  12.552
27533W        W95751  42.525  21.181   4.333
27534W        W95752  17.932  11.228   1.895
27535W        W95753  19.979   7.409  13.037
27536W        W95754  40.963  38.908   0.860
27537W        W95755  35.980   3.244  14.952
27538W        W95756   8.813  13.364   2.835
27539W        W95757  31.127   1.234  12.146
27540W        W95758  32.631  18.714  14.382
27541W        W95759  27.005  34.424   4.577
27542W        W95760   2.701  41.946   1.210
27543W        W95761  24.708  43.322   3.693
27544W        W95762  34.930  22.209  14.193
27545W        W95763   5.855  44.385  10.159
27546W        W95764  14.495  21.370   4.094
27547W        W95765   4.442  34.050  12.952
27548W        W95766  21.017  29.965  11.504
27549W        W95767  28.066  34.343   9.887
27550W        W95768   7.773  30.376   0.354
27551W        W95769  29.991  23.522   3.088
27552W        W95770   2.055  11.359  13.010
27553W        W95771  27.788  37.235   3.839
27554W        W95772   2.152  29.557  10.741
27555W        W95773   2.745  21.670  14.437
27556W        W95774   5.904  43.826  12.490
27557W        W95775  21.568  32.228  11.482
27558W        W95776  23.588  19.036  10.828
27559W        W95777  12.294  26.909  14.811
27560W        W95778   3.686  27.228  14.587
27561W        W95779  21.029  12.390   3.799
27562W        W95780  43.725  31.407   4.513
27563W        W95781   0.210  43.148   1.054
27564W        W95782  14.960  25.003  10.788
27565W        W95783  29.056  41.354  10.758
27566W        W95784  40.256  38.632  13.857
27567W        W95785  11.387  16.231   2.699
27568W        W95786  35.008  36.600   3.139
27569W        W95787  43.526  29.198  12.089
27570W        W95788   2.790  31.187  11.897
27571W        W95789  17.551   8.728   1.787
27572W        W95790   9.807  23.633   0.889
27573W        W95791  27.083  10.901   1.293
27574W        W95792  28.532  38.577  14.516
27575W        W95793  21.942  29.037  12.090
27576W        W95794  25.645  10.606  13.500
27577W        W95795  25.396   0.270   1.837
27578W        W95796   7.476  12.998  10.744
27579W        W95797  31.393   8.587  12.039
27580W        W95798  10.387   7.766   2.381
27581W        W95799   3.387  28.999  11.606
27582W        W95800  13.316  25.538  10.701
27583W        W95801  11.654   7.948   4.591
27584W        W95802  11.767  43.058  14.237
27585W        W95803  19.000  28.967   2.871
27586W        W95804  31.414  24.390  13.847
27587W        W95805  44.754  21.712   0.818
27588W        W95806  43.432   6.377  10.734
27589W        W95807   4.129  28.460   0.957
27590W        W95808   7.946   6.803   4.614
27591W        W95809  20.626  42.307  11.199
27592W        W95810  15.360   0.905   1.335
27593W        W95811  19.365  33.520   0.384
27594W        W95812  28.707  19.097  12.379
27595W        W95813   4.921  36.221   2.404
27596W        W95814  28.102  36.490  13.848
27597W        W95815  29.606  33.116  10.550
27598W        W95816  40.338  18.279  10.695
27599W        W95817  10.338  15.794   0.780
27600W        W95818  21.103  20.070   3.240
27601W        W95819  20.702  37.026   2.343
27602W        W95820  12.641  36.152  10.773
27603W        W95821   3.658  29.471   0.468
27604W        W95822  24.487  19.574  14.353
27605W        W95823   7.588  40.334   1.197
27606W        W95824  24.009  27.187   3.324
27607W        W95825  29.738   8.494  11.544
27608W        W95826  12.161  38.546  14.387
27609W        W95827  25.090  35.835   3.250
27610W        W95828  36.473   2.343  14.947
27611W        W95829   6.310  19.513  14.258
27612W        W95830   9.052   0.491  14.440
27613W        W95831   9.168  36.039  12.858
27614W        W95832  38.024   6.949   0.189
27615W        W95833  17.402  21.230   4.163
27616W        W95834  42.845  33.132  12.780
27617W        W95835  23.037   5.240  10.669
27618W        W95836  41.994   4.267  14.724
27619W        W95837  42.569  25.898   1.408
27620W        W95838  23.183  19.252   0.914
27621W        W95839  33.371  23.793  12.022
27622W        W95840  22.464  25.834  13.662
27623W        W95841  43.363  30.914  11.699
27624W        W95842   6.459   6.535   2.743
27625W        W95843  23.482  12.088  11.472
27626W        W95844  25.469  16.568  11.134
27627W        W95845  19.346  42.761   2.742
27628W        W95846  28.901   3.435  14.061
27629W        W95847   3.179   8.762  11.944
27630W        W95848  20.118  35.600   5.010
27631W        W95849  11.793  43.405   1.046
27632W        W95850  20.954  17.521  12.880
27633W        W95851  31.655  19.435   1.548
27634W        W95852   8.212  25.789  11.994
27635W        W95853  25.431  17.087  12.978
27636W        W95854  22.520  13.316  14.829
27637W        W95855   0.047   5.183  13.518
27638W        W95856   5.376  16.549  11.987
27639W        W95857  19.653  17.874  12.967
27640W        W95858   0.169  26.507   4.995
27641W        W95859  36.122  18.871  11.400
27642W        W95860  13.329  44.327   0.723
27643W        W95861  26.734  21.969  11.780
27644W        W95862  43.683  24.213  12.917
27645W        W95863  20.260  26.852  11.429
27646W        W95864  12.858  43.426   4.529
27647W        W95865  15.793  37.962   0.334
27648W        W95866  35.519  14.268  12.075
27649W        W95867  40.399  23.272   4.532
27650W        W95868   3.267  42.767  13.822
27651W        W95869  41.616  43.999   3.709
27652W        W95870   2.569  35.358   2.274
27653W        W95871  12.326  23.540   0.760
27654W        W95872  44.840  42.698   0.360
27655W        W95873  12.318   6.768  13.437
27656W        W95874   8.359  15.329  14.349
27657W        W95875  27.701  15.089   3.255
27658W        W95876  28.259  44.140  10.281
27659W        W95877  14.884  41.468  14.767
27660W        W95878  35.638  10.637   0.444
27661W        W95879  25.246  42.140  12.926
27662W        W95880  16.680  40.483  14.971
27663W        W95881  10.684  41.044  11.957
27664W        W95882  38.419  17.818  11.501
27665W        W95883   9.064  14.071   5.190
27666W        W95884  29.562  19.275   4.752
27667W        W95885  19.117   9.161   2.318
27668W        W95886  26.408  28.580   4.543
27669W        W95887   2.164  20.096  13.416
27670W        W95888   9.863  13.039  12.597
27671W        W95889  12.826  44.357   0.809
27672W        W95890  17.154  19.603  10.554
27673W        W95891  37.052  12.727  12.063
27674W        W95892  20.270  40.916  12.457
27675W        W95893  37.561  24.966  12.445
27676W        W95894  14.687  36.981   0.886
27677W        W95895  19.266   4.735  12.314
27678W        W95896  10.259  41.918   2.763
27679W        W95897  18.762  44.813   1.484
27680W        W95898  22.860  40.411   4.622
27681W        W95899  42.104  38.522  12.933
27682W        W95900  11.746   5.440   4.657
27683W        W95901  19.001   0.365  13.702
27684W        W95902  36.887  17.138   4.273
27685W        W95903  19.019  20.781   1.279
27686W        W95904  44.356  33.986  14.516
27687W        W95905  16.405   7.791   0.495
27688W        W95906  19.231  21.961   4.633
27689W        W95907  37.537  29.473  13.901
27690W        W95908  23.742  26.150  10.455
27691W        W95909  26.185  43.253  12.987
27692W        W95910   9.283  34.711   3.140
27693W        W95911  18.716   8.574   0.543
27694W        W95912  29.120   6.880  13.517
27695W        W95913  16.386  40.012   3.735
27696W        W95914  30.436  32.829   2.555
27697W        W95915  18.660  17.752  11.128
27698W        W95916  12.054  17.302  11.547
27699W        W95917  41.333  34.607   2.346
27700W        W95918   4.369  28.771  11.167
27701W        W95919  33.189  19.564   4.186
27702W        W95920  43.469  20.031   4.088
27703W        W95921  36.909  32.458   3.559
27704W        W95922  29.537  19.462  11.530
27705W        W95923  22.992  11.524  14.428
27706W        W95924  15.730  13.384  14.471
27707W        W95925  27.374  41.907   2.447
27708W        W95926  11.847  21.952   0.553
27709W        W95927   2.585  24.508   2.861
27710W        W95928   1.419  39.073  10.700
27711W        W95929  19.548  23.758  13.945
27712W        W95930   4.657  18.816   1.823
27713W        W95931  19.603   0.449   4.542
27714W        W95932  14.592  36.952  12.939
27715W        W95933  14.786  39.411   2.345
27716W        W95934  19.690  11.720  13.084
27717W        W95935  42.498   0.001  11.578
27718W        W95936  39.055  33.076   3.185
27719W        W95937  13.956  17.161  12.789
27720W        W95938  20.708  12.103   0.420
27721W        W95939  29.481  14.302   0.987
27722W        W95940  41.519  44.171   1.446
27723W        W95941  20.201  35.032  13.393
27724W        W95942  18.895  23.407  11.920
27725W        W95943  11.359  24.965  12.640
27726W        W95944   2.981  28.070  11.747
27727W        W95945  32.483  15.596   3.696
27728W        W95946   9.404  38.559  12.014
27729W        W95947  19.217   4.263   2.622
27730W        W95948  11.330   8.720   1.718
27731W        W95949   2.085  11.400   3.830
27732W        W95950  21.431  25.598   1.097
27733W        W95951  24.487  31.481   1.973
27734W        W95952  28.688  38.526  13.449
27735W        W95953  24.415   8.638  14.080
27736W        W95954  30.383  25.498   4.150
27737W        W95955  27.096   5.159   1.570
27738W        W95956  43.460   0.455  13.929
27739W        W95957  42.084  11.677  11.521
27740W        W95958   6.531  28.643  11.658
27741W        W95959  40.660   0.740  11.179
27742W        W95960  41.998   2.863   2.997
27743W        W95961  36.092  38.337  10.615
27744W        W95962  18.844  37.509  11.482
27745W        W95963  18.928  16.811  13.294
27746W        W95964   6.726  15.611   3.506
27747W        W95965  19.086  29.859   4.645
27748W        W95966  11.226  16.353   4.512
27749W        W95967  10.651  14.055   0.493
27750W        W95968   0.300  13.311   3.559
27751W        W95969   8.775   9.447  14.990
27752W        W95970  10.691  40.037   0.843
27753W        W95971  16.065   1.209  12.639
27754W        W95972  29.404  10.712  13.485
27755W        W95973  40.545  19.609  10.786
27756W        W95974  33.234   0.377   2.962
27757W        W95975  42.587  41.372   2.631
27758W        W95976   4.235  42.467   0.433
27759W        W95977   6.096  18.993  12.959
27760W        W95978   0.988   5.213  14.866
27761W        W95979  32.869  39.718   4.120
27762W        W95980  21.701  24.074  13.974
27763W        W95981  25.971  33.783   1.422
27764W        W95982  12.776  36.343   1.456
27765W        W95983   3.641  26.949   2.880
27766W        W95984  36.249  12.351  14.529
27767W        W95985  38.261  19.617  10.953
27768W        W95986  10.473  29.214   2.315
27769W        W95987  31.501  24.968   0.821
27770W        W95988  32.746   6.957   2.336
27771W        W95989  13.218  26.571   4.618
27772W        W95990  14.913  42.117   3.897
27773W        W95991  40.546  43.992   0.344
27774W        W95992  43.811   5.291  14.324
27775W        W95993  44.785  40.806  13.332
27776W        W95994   3.189  31.679  12.506
27777W        W95995  19.545  39.584   2.700
27778W        W95996  21.488  31.092  14.394
27779W        W95997  42.812   2.226  10.650
27780W        W95998  36.808  13.671   1.387
27781W        W95999  38.858  15.177   0.612
27782W        W96000  36.314  35.402  14.486
27783W        W96001  12.846  30.138   3.418
27784W        W96002  20.264  36.908   0.770
27785W        W96003  42.365  26.919  13.352
27786W        W96004   4.766   9.589  11.524
27787W        W96005  13.299   0.616   3.616
27788W        W96006  28.343   5.355   4.598
27789W        W96007  23.227  43.486   1.787
27790W        W96008  22.159  39.425  12.503
27791W        W96009  30.456   4.000  13.523
27792W        W96010   2.914  32.222   5.271
27793W        W96011  10.772  31.336   5.007
27794W        W96012  14.033  21.148  11.055
27795W        W96013   9.860  10.360  12.124
27796W        W96014  11.154  25.957   1.730
27797W        W96015   6.836   6.193  14.447
27798W        W96016  28.508   5.775  14.449
27799W        W96017  11.794  38.623   2.852
27800W        W96018  17.471  10.743   0.872
27801W        W96019  29.408  29.899   0.336
27802W        W96020  37.866  15.063   2.093
27803W        W96021   3.691   3.548   2.711
27804W        W96022  38.763  18.602   3.792
27805W        W96023  33.150  33.426  14.743
27806W        W96024  40.951  43.584  13.704
27807W        W96025  36.876  41.240   4.135
27808W        W96026  33.112  36.398  14.799
27809W        W96027  27.004  18.660  10.734
27810W        W96028  34.522  12.852  11.200
27811W        W96029  40.638  38.982  12.129
27812W        W96030  37.595  10.208   4.778
27813W        W96031  23.112  40.760   3.372
27814W        W96032  20.982   9.292   0.424
27815W        W96033  20.148  28.727   2.803
27816W        W96034  34.631  41.795   4.049
27817W        W96035  37.355   5.401  13.858
27818W        W96036  34.654  44.977   4.679
27819W        W96037  10.039  33.540   0.165
27820W        W96038  39.866   8.217   2.710
27821W        W96039  29.116  14.542   0.004
27822W        W96040  21.389   6.574   3.018
27823W        W96041  42.754  31.114   4.656
27824W        W96042  40.016  37.946  14.910
27825W        W96043  10.790  31.443  10.723
27826W        W96044  34.394   7.700   0.414
27827W        W96045  11.190  21.651   3.110
27828W        W96046  14.492  25.954   3.775
27829W        W96047  18.793  36.965   0.937
27830W        W96048   3.396  35.395  13.923
27831W        W96049   1.386  29.450   1.337
27832W        W96050  24.379  22.440  13.465
27833W        W96051  17.122  41.815  11.023
27834W        W96052  22.949  33.414  14.285
27835W        W96053  15.121  10.222   2.247
27836W        W96054  40.948   3.735   2.169
27837W        W96055  37.928  39.376   0.578
27838W        W96056  20.019  33.989  12.563
27839W        W96057   5.912  33.098   0.157
27840W        W96058  42.962   8.428   0.940
27841W        W96059  29.934  41.241   2.695
27842W        W96060   1.403   5.890   3.326
27843W        W96061  39.893  27.959   0.247
27844W        W96062  25.703  18.045  14.896
27845W        W96063   7.338  25.737   0.036
27846W        W96064  44.604   6.831  11.176
27847W        W96065   1.575  15.871  13.290
27848W        W96066  22.012   5.980  12.545
27849W        W96067   4.828   9.120  10.590
27850W        W96068   6.197  17.277   5.322
27851W        W96069  40.876  39.810   3.806
27852W        W96070  20.529  37.938  13.505
27853W        W96071  31.583  28.878   2.362
27854W        W96072   9.370  22.496  13.306
27855W        W96073  33.536   9.714   3.298
27856W        W96074  44.149  32.710   4.212
27857W        W96075  15.653  36.600   0.205
27858W        W96076  14.498  24.595   2.728
27859W        W96077  13.772  18.239   1.368
27860W        W96078  36.514  39.332  10.513
27861W        W96079  19.001  18.735  10.400
27862W        W96080   1.481  33.934  12.420
27863W        W96081  14.098   7.599   4.030
27864W        W96082  22.126  18.077  12.961
27865W        W96083  12.743  38.154   3.839
27866W        W96084   8.161   5.431   3.077
27867W        W96085  34.891   4.169  14.977
27868W        W96086   4.721  14.397  14.585
27869W        W96087  31.485  13.668   4.158
27870W        W96088  42.361  21.054  14.451
27871W        W96089  13.156   6.183   1.962
27872W        W96090   2.314  32.148  14.453
27873W        W96091   3.792   7.351   1.071
27874W        W96092   9.258  23.938   4.071
27875W        W96093   0.770  27.010   2.649
27876W        W96094  20.910  27.239   4.091
27877W        W96095   6.382   9.374  14.419
27878W        W96096  28.255  23.103  12.724
27879W        W96097  22.231  41.270   1.422
27880W        W96098  37.520   9.739  10.113
27881W        W96099  14.719  42.316  10.155
27882W        W96100   1.761  16.823   4.152
27883W        W96101  22.489  40.474   5.004
27884W        W96102  26.186  34.649   3.277
27885W        W96103  36.949  12.873   0.795
27886W        W96104  13.532  28.413   1.170
27887W        W96105  13.949  39.807  12.862
27888W        W96106  41.012  14.796   2.365
27889W        W96107  10.743  41.004  14.887
27890W        W96108  21.940   7.513  12.278
27891W        W96109  41.942  32.404   0.963
27892W        W96110  10.786  27.093   4.392
27893W        W96111  34.380   0.340  12.761
27894W        W96112   0.342   1.300  12.323
27895W        W96113  21.750  14.241   4.530
27896W        W96114  19.884  23.000   0.135
27897W        W96115  42.342   5.155  11.357
27898W        W96116  20.122   0.382  10.423
27899W        W96117  40.282  42.508  14.540
27900W        W96118  44.604  29.550   4.528
27901W        W96119   9.326  34.532   3.644
27902W        W96120   9.083  32.603   4.156
27903W        W96121  14.877   7.265  14.729
27904W        W96122  43.674   0.850  12.516
27905W        W96123  38.180   6.256   9.955
27906W        W96124  16.052  14.009  11.659
27907W        W96125  28.165  27.123   3.046
27908W        W96126  14.665  44.559  13.504
27909W        W96127   8.823  21.570   2.680
27910W        W96128   0.803  35.484   1.949
27911W        W96129  23.488   7.861  10.718
27912W        W96130   0.804  22.688  10.082
27913W        W96131  23.583  10.178   1.749
27914W        W96132  37.122  43.364  12.522
27915W        W96133  24.471   4.292  13.820
27916W        W96134   8.543  19.658  10.324
27917W        W96135   0.127   4.668   3.034
27918W        W96136  22.648  10.739   2.704
27919W        W96137  36.046  40.746  10.407
27920W        W96138   3.489   7.043  10.296
27921W        W96139  23.467   8.602  11.066
27922W        W96140   4.856  28.022   3.297
27923W        W96141   0.023  34.905  14.880
27924W        W96142  13.806   7.914  14.914
27925W        W96143   0.702  23.187   3.144
27926W        W96144   2.392  34.000   0.840
27927W        W96145  12.458  15.056   2.414
27928W        W96146   7.578  40.880   1.339
27929W        W96147   4.982  14.691   3.606
27930W        W96148  11.469  10.491  14.802
27931W        W96149  32.338  17.018  10.971
27932W        W96150  17.536   0.489   3.714
27933W        W96151  21.267  30.174   2.885
27934W        W96152  22.274  13.392  11.145
27935W        W96153  15.114  12.442  12.835
27936W        W96154  30.192  19.650   4.556
27937W        W96155   1.453  22.835   2.595
27938W        W96156  40.353  24.248  12.089
27939W        W96157  23.345  31.106   0.024
27940W        W96158   8.267   8.306   2.346
27941W        W96159  33.854  27.442   0.169
27942W        W96160  19.805   6.490  13.528
27943W        W96161  39.750  32.651  13.904
27944W        W96162  25.484  22.803   1.946
27945W        W96163  29.122  44.039  12.422
27946W        W96164   5.955  33.929   0.658
27947W        W96165  35.431  27.848  14.445
27948W        W96166  18.954  26.038   2.287
27949W        W96167  13.608  42.414  14.901
27950W        W96168  30.459   3.164   1.881
27951W        W96169   0.162  19.545   1.280
27952W        W96170  33.058  17.122   2.380
27953W        W96171  42.538  22.245  11.605
27954W        W96172  30.511  14.385  12.351
27955W        W96173  16.257  34.894  14.789
27956W        W96174   8.851  39.969  12.492
27957W        W96175  23.541   0.543  14.945
27958W        W96176  34.965  35.165   4.622
27959W        W96177  31.034  29.063  11.065
27960W        W96178  31.878  39.617   1.329
27961W        W96179  39.004   0.365   9.761
27962W        W96180   0.356  35.381  10.757
27963W        W96181  43.009   1.442  10.910
27964W        W96182  44.059  14.576   3.325
27965W        W96183  37.831  20.291   1.278
27966W        W96184   9.813  28.926  14.078
27967W        W96185  43.072  11.611  11.278
27968W        W96186  24.971  20.269   2.661
27969W        W96187  37.283  24.003   4.122
27970W        W96188   4.370  44.284   1.270
27971W        W96189   3.451  33.183  12.439
27972W        W96190  11.603   9.907   0.545
27973W        W96191  10.284  19.685  14.766
27974W        W96192  27.495   7.668  11.192
27975W        W96193  36.765  15.262   0.379
27976W        W96194  16.960  18.451  10.259
27977W        W96195  10.720  12.556   2.799
27978W        W96196  32.308  35.453   0.280
27979W        W96197  23.523   8.520  14.081
27980W        W96198  44.832  41.485  11.903
27981W        W96199  15.756  24.018  12.679
27982W        W96200  38.900  18.981   2.661
27983W        W96201  26.248  34.651   4.072
27984W        W96202   1.418   0.446  12.335
27985W        W96203  23.651   8.955  11.995
27986W        W96204  13.106  26.793   0.268
27987W        W96205  23.038   8.237  12.442
27988W        W96206  31.040  10.142   4.120
27989W        W96207  39.445   8.720   4.214
27990W        W96208  19.168  16.745  11.640
27991W        W96209  44.783  31.499   1.714
27992W        W96210  33.097  42.363   1.292
27993W        W96211  22.557  16.087   0.604
27994W        W96212  15.584  25.702  12.107
27995W        W96213   7.593  31.067   4.391
27996W        W96214  36.352   8.554   1.916
27997W        W96215   2.340  21.432  13.973
27998W        W96216  20.214  25.404   2.396
27999W        W96217   2.244  21.070   3.079
28000W        W96218  41.858  39.337  12.463
28001W        W96219  27.992  27.414   4.636
28002W        W96220  25.718  12.678   3.046
28003W        W96221  16.229  40.783  13.474
28004W        W96222  12.685  43.068   3.710
28005W        W96223  13.654  13.067   3.497
28006W        W96224  34.848  34.902  13.515
28007W        W96225  34.157   7.767   0.897
28008W        W96226   1.957   2.827  13.921
28009W        W96227  39.401   4.155   0.825
28010W        W96228  14.583  33.476  12.847
28011W        W96229  10.824  22.017   0.193
28012W        W96230  42.553  30.633   4.540
28013W        W96231  15.074  29.760  12.951
28014W        W96232  30.367  25.280   2.770
28015W        W96233  41.802  18.640  14.147
28016W        W96234   5.440  25.181  11.103
28017W        W96235  34.013   2.744   3.315
28018W        W96236  11.888  32.682   4.374
28019W        W96237  19.652  38.270  13.241
28020W        W96238  17.118  16.572   1.399
28021W        W96239  29.925  22.731  12.493
28022W        W96240  19.212  14.297   1.392
28023W        W96241   1.475  35.914   2.310
28024W        W96242  27.332  31.612   5.104
28025W        W96243   7.527  11.593  14.719
28026W        W96244  12.578  20.974   1.476
28027W        W96245  28.684  26.101  10.688
28028W        W96246   5.337   4.311  14.010
28029W        W96247   7.459  42.443   1.382
28030W        W96248  12.143  11.676   2.854
28031W        W96249  36.372  41.901  11.156
28032W        W96250  18.012  23.098   3.302
28033W        W96251   1.249  44.741   0.367
28034W        W96252  35.518  12.750  12.066
28035W        W96253   5.761  39.470  12.625
28036W        W96254  41.752  24.996  14.037
28037W        W96255   3.472   3.789   3.723
28038W        W96256   6.490  13.194   4.615
28039W        W96257  35.715  43.756  13.805
28040W        W96258  27.990  39.275  12.013
28041W        W96259  44.708  24.820   1.356
28042W        W96260  13.194  12.685  14.179
28043W        W96261   7.893  40.787   2.223
28044W        W96262  39.445  41.510   3.645
28045W        W96263  43.331  15.669  14.974
28046W        W96264  35.745  19.748   4.603
28047W        W96265  32.076  36.014  13.355
28048W        W96266  12.196  35.423  13.283
28049W        W96267  27.653  39.172  13.874
28050W        W96268  26.653  11.727  12.467
28051W        W96269  34.105  21.710  11.942
28052W        W96270  41.323   6.501   2.532
28053W        W96271  39.049   1.956  13.027
28054W        W96272  15.577  40.361  11.584
28055W        W96273  31.511  41.199   1.809
28056W        W96274   7.762  35.094  10.667
28057W        W96275   0.508  44.097  11.679
28058W        W96276  37.506   3.125   0.951
28059W        W96277   1.541  12.232   3.323
28060W        W96278  10.848  40.817   3.710
28061W        W96279  36.576   3.231   1.510
28062W        W96280  19.561  38.786  13.347
28063W        W96281  37.488  37.439  10.888
28064W        W96282   1.937   5.676   4.131
28065W        W96283  10.620  19.006  14.278
28066W        W96284   5.209  33.974  14.990
28067W        W96285  43.985  37.514  10.771
28068W        W96286  19.712   4.505   3.912
28069W        W96287   8.023  16.082  12.076
28070W        W96288  15.360  20.158   3.283
28071W        W96289   6.806  21.060   0.268
28072W        W96290  36.790  32.686  11.149
28073W        W96291   7.787  42.830  14.773
28074W        W96292  23.723  36.514   4.129
28075W        W96293  20.618  12.070  12.381
28076W        W96294  32.374  37.713   0.119
28077W        W96295   4.445  37.378   0.927
28078W        W96296  13.734   6.319  12.058
28079W        W96297  30.192   9.469  12.664
28080W        W96298  13.174  41.189  12.042
28081W        W96299  16.234  35.863  14.845
28082W        W96300  25.980   8.300   0.889
28083W        W96301  42.857  43.623   1.045
28084W        W96302  27.263  22.614  14.890
28085W        W96303  20.262  44.305  14.850
28086W        W96304  14.251  14.677   0.593
28087W        W96305   8.361  40.770   3.700
28088W        W96306  13.458  16.680   4.043
28089W        W96307  25.484  18.500  14.788
28090W        W96308  44.434   2.482  13.360
28091W        W96309  31.652   1.701   4.178
28092W        W96310  20.022  17.058   3.295
28093W        W96311  23.963   4.271  13.936
28094W        W96312  12.816  41.358   1.463
28095W        W96313   2.270  39.827  13.532
28096W        W96314   6.641  18.436  12.050
28097W        W96315   2.759   7.354   4.139
28098W        W96316  19.181  44.443  14.046
28099W        W96317  35.445   4.427  14.370
28100W        W96318  13.772  32.081   3.762
28101W        W96319  27.773   6.760  10.788
28102W        W96320  19.512  13.432   4.241
28103W        W96321  25.018   3.966  13.529
28104W        W96322   4.283   6.255   2.213
28105W        W96323  20.045   9.328   2.911
28106W        W96324  26.574   0.678  12.224
28107W        W96325  14.133  25.961   2.146
28108W        W96326  34.885  13.019  14.518
28109W        W96327   4.520  39.536  14.413
28110W        W96328   3.773  39.115   0.444
28111W        W96329  12.694  11.853   0.756
28112W        W96330  34.353   7.194   0.191
28113W        W96331  38.338  31.152  13.513
28114W        W96332  34.483  28.489  14.600
28115W        W96333  17.194  40.573  11.894
28116W        W96334  22.724  27.633   3.216
28117W        W96335  21.767  29.603   4.545
28118W        W96336   7.393  35.083   4.669
28119W        W96337  22.201   4.990  13.386
28120W        W96338   8.627  32.141   0.476
28121W        W96339   1.091  34.034   0.771
28122W        W96340   0.398  38.832  11.596
28123W        W96341   7.722   0.387   1.355
28124W        W96342   3.891  12.286  13.594
28125W        W96343  38.557   2.545  11.223
28126W        W96344   2.766   9.413   1.032
28127W        W96345   6.866  32.446   0.883
28128W        W96346  36.800  36.373   2.731
28129W        W96347  30.170  24.742  12.540
28130W        W96348   7.440  15.072  14.400
28131W        W96349  16.496  37.048   2.679
28132W        W96350  17.535  44.110  12.926
28133W        W96351  36.162   9.414   4.628
28134W        W96352  20.649  36.483  13.511
28135W        W96353  42.497  25.511  12.602
28136W        W96354   7.287  17.544   1.722
28137W        W96355   0.293  32.726   3.716
28138W        W96356  44.892  21.134   3.504
28139W        W96357  28.883   4.827  12.843
28140W        W96358  31.202  25.433  12.509
28141W        W96359   3.710  26.582   3.376
28142W        W96360  31.850  42.514  13.545
28143W        W96361  31.477  14.464   0.678
28144W        W96362  18.129  16.831   1.379
28145W        W96363  42.547   4.847   2.607
28146W        W96364   4.292   5.697   3.363
28147W        W96365  28.370   8.300  14.970
28148W        W96366   7.158  20.528  12.536
28149W        W96367   9.493  11.819  12.013
28150W        W96368  26.890  40.136   2.648
28151W        W96369   7.078  43.176   1.038
28152W        W96370  38.580   2.339   2.705
28153W        W96371   2.465   2.142   3.266
28154W        W96372  17.299   0.700   2.177
28155W        W96373  27.561  29.200  12.108
28156W        W96374  23.996   0.909   1.385
28157W        W96375  10.410  28.220   4.081
28158W        W96376   9.790  10.331   4.159
28159W        W96377  26.783  15.128   0.041
28160W        W96378  22.770   2.838  11.925
28161W        W96379  10.220   1.608   0.905
28162W        W96380   1.008  18.987   2.412
28163W        W96381  26.457  29.085   3.705
28164W        W96382  37.437  11.175   4.639
28165W        W96383  38.040  43.156   2.417
28166W        W96384  28.972  27.306  11.152
28167W        W96385  28.935  42.745   0.694
28168W        W96386  29.195   0.713  13.839
28169W        W96387  35.398   0.332   4.308
28170W        W96388  40.586  12.838   0.149
28171W        W96389  21.392   3.886   4.075
28172W        W96390  11.341  39.457  12.024
28173W        W96391  13.395   8.612   4.183
28174W        W96392  38.117   4.176  13.465
28175W        W96393  10.595  12.448   3.303
28176W        W96394  34.031  41.377  13.318
28177W        W96395  42.145  39.998   2.764
28178W        W96396  40.417  27.577   1.981
28179W        W96397  26.713  27.083   3.820
28180W        W96398  38.667  24.810   0.394
28181W        W96399   9.213  40.923  13.379
28182W        W96400  43.008   1.439   1.875
28183W        W96401  27.005  12.774   4.801
28184W        W96402  18.291  28.153  12.527
28185W        W96403  15.634  29.423  14.781
28186W        W96404  15.340  28.396   3.236
28187W        W96405   4.102   1.474  13.571
28188W        W96406  33.135   2.810   4.973
28189W        W96407  31.470  12.031  14.804
28190W        W96408  24.504  20.126  13.621
28191W        W96409  10.343  19.620   4.130
28192W        W96410  38.270  16.080   4.268
28193W        W96411  16.502  32.092   0.424
28194W        W96412  17.817  40.480  12.498
28195W        W96413  20.288  32.806  14.959
28196W        W96414  28.453  26.472  10.981
28197W        W96415  23.073  31.930   2.567
28198W        W96416  41.576   6.580   3.310
28199W        W96417  33.506  13.150  10.785
28200W        W96418  16.335  19.789  13.472
28201W        W96419  40.232   8.661   2.825
28202W        W96420  20.259  35.613   0.482
28203W        W96421  20.504  14.171  13.850
28204W        W96422   1.429  19.492  10.751
28205W        W96423  25.232   8.835  12.992
28206W        W96424  31.967   8.355   3.679
28207W        W96425  37.064   7.963   0.911
28208W        W96426  36.074  16.166  14.617
28209W        W96427   3.451  36.237  12.005
28210W        W96428  43.042  30.115  10.703
28211W        W96429  28.129  28.854  11.811
28212W        W96430  36.005   7.881   2.270
28213W        W96431  43.812  33.440   2.951
28214W        W96432  42.830   8.007   1.662
28215W        W96433  19.223  10.054   1.224
28216W        W96434  31.214  44.060   2.125
28217W        W96435  21.625   5.908   0.327
28218W        W96436  30.096  24.088  13.613
28219W        W96437   6.248  41.272   0.818
28220W        W96438  31.919  26.949  10.285
28221W        W96439  40.041  23.011   0.960
28222W        W96440  32.930  16.251   3.322
28223W        W96441  14.380  21.876   4.143
28224W        W96442  42.975  25.043   0.974
28225W        W96443  10.385   0.650   0.870
28226W        W96444   3.850  33.049  12.067
28227W        W96445  21.688   1.402   1.290
28228W        W96446  14.920  33.350  12.001
28229W        W96447  37.663  19.149   2.285
28230W        W96448  21.706   6.363   3.803
28231W        W96449   1.976  24.453  12.034
28232W        W96450  15.087  11.816  14.283
28233W        W96451  40.749  39.024   2.835
28234W        W96452  36.906  14.149  11.707
28235W        W96453  24.503  22.267   0.346
28236W        W96454   1.919  44.675  10.348
28237W        W96455  21.211  32.936   3.707
28238W        W96456  13.864   2.709  13.791
28239W        W96457  42.139   3.457  11.265
28240W        W96458  12.613  28.543   0.670
28241W        W96459   4.403  42.589   4.533
28242W        W96460   1.961  15.116  11.086
28243W        W96461  42.796  22.247   1.274
28244W        W96462  36.003  41.504   0.870
28245W        W96463  10.555  31.624  12.175
28246W        W96464  23.667  16.926  11.886
28247W        W96465   3.799  12.136   1.781
28248W        W96466  24.038  36.930   4.062
28249W        W96467  23.023  17.333   0.413
28250W        W96468  20.176  15.616  11.939
28251W        W96469  14.171  28.822  14.328
28252W        W96470  35.049  35.781   1.420
28253W        W96471  37.990  37.290  12.043
28254W        W96472   3.367   4.253  10.631
28255W        W96473  13.730  15.261  13.083
28256W        W96474  16.221  34.368   3.899
28257W        W96475   8.832  19.834  10.728
28258W        W96476   9.498  34.086  14.778
28259W        W96477  17.609  21.013   1.348
28260W        W96478  35.559  14.262  14.806
28261W        W96479   3.326  14.347  11.570
28262W        W96480  33.556  33.155  11.537
28263W        W96481  37.185  37.503   2.823
28264W        W96482   1.137  12.761  11.966
28265W        W96483  37.525   4.362   4.091
28266W        W96484  10.442  31.376   2.590
28267W        W96485  39.318  34.863   2.796
28268W        W96486   6.505  40.393   3.656
28269W        W96487  43.751  34.644   4.439
28270W        W96488  16.551  22.065  11.376
28271W        W96489   6.156  28.165   2.168
28272W        W96490  40.458  35.531   1.744
28273W        W96491  38.111  18.508  11.458
28274W        W96492  40.805  36.846   1.356
28275W        W96493  41.396   7.464   1.804
28276W        W96494  10.062   8.751  11.125
28277W        W96495  29.543  31.429  12.383
28278W        W96496  14.344  20.573   4.621
28279W        W96497  23.217  31.553  14.762
28280W        W96498   7.810  21.768  12.131
28281W        W96499  38.359  43.451  11.902
28282W        W96500  28.791  39.874   3.651
28283W        W96501  18.601  37.385   4.058
28284W        W96502  21.174   3.482   4.920
28285W        W96503  10.725  22.694   1.820
28286W        W96504  44.617   7.275  10.840
28287W        W96505  43.587   4.638  11.118
28288W        W96506  34.914  17.087  10.706
28289W        W96507  27.402  27.341   0.813
28290W        W96508  19.693  24.530   2.492
28291W        W96509  12.475   3.436  12.549
28292W        W96510  32.627  10.702   4.259
28293W        W96511  40.397  41.715   2.338
28294W        W96512   9.865  22.744   4.935
28295W        W96513  36.569  15.993   0.939
28296W        W96514   7.088   5.852   4.188
28297W        W96515  21.687  14.654  13.230
28298W        W96516  23.968  30.830  11.185
28299W        W96517  31.766  30.530  10.232
28300W        W96518  25.176  16.209   2.474
28301W        W96519  40.573  33.893   4.607
28302W        W96520  44.431   7.673  11.933
28303W        W96521  22.279  44.971   1.429
28304W        W96522  26.950  29.337   1.937
28305W        W96523  31.518   7.747   4.846
28306W        W96524  42.834  12.124   3.666
28307W        W96525   5.310  26.038  12.633
28308W        W96526  19.500  17.054  13.852
28309W        W96527   4.735   5.364  12.839
28310W        W96528  44.650  36.412   2.192
28311W        W96529  39.381   9.704  12.490
28312W        W96530  24.421  32.935   0.967
28313W        W96531  25.040  20.100   3.122
28314W        W96532  33.722  15.153   0.453
28315W        W96533  23.451  38.044  11.020
28316W        W96534  11.858  32.479   3.243
28317W        W96535   8.336  35.406  12.947
28318W        W96536  34.797  11.982   3.176
28319W        W96537  33.992  14.202   0.906
28320W        W96538   9.269  32.445   3.690
28321W        W96539  19.760  42.936  10.523
28322W        W96540  38.950  28.965  11.091
28323W        W96541  21.469   7.666  10.698
28324W        W96542  39.280  37.951  12.337
28325W        W96543  11.899  43.757  11.005
28326W        W96544  16.801   7.976   2.841
28327W        W96545  35.911   5.254   0.244
28328W        W96546  16.879  44.974  13.576
28329W        W96547  36.336  20.156   0.119
28330W        W96548  22.135   7.626   0.232
28331W        W96549  35.834  33.913   4.115
28332W        W96550  32.091   1.948   2.759
28333W        W96551  39.839   8.196   1.799
28334W        W96552  41.923  20.678  12.885
28335W        W96553   6.104   3.914  10.959
28336W        W96554   5.937  41.533  14.407
28337W        W96555  29.246   2.988   4.589
28338W        W96556   7.177  26.937  14.584
28339W        W96557  25.525  21.579   1.002
28340W        W96558  26.887  13.267  11.980
28341W        W96559  28.437  29.901   2.732
28342W        W96560  19.670  37.158   2.764
28343W        W96561  43.087  30.868  12.490
28344W        W96562   7.465   2.779  13.329
28345W        W96563  33.563  12.492   3.613
28346W        W96564  44.743  27.754  11.623
28347W        W96565   7.942  14.327   0.075
28348W        W96566  25.527  17.198  14.488
28349W        W96567  23.603  20.106   2.733
28350W        W96568   4.708  37.788   0.640
28351W        W96569   2.324  43.979   2.104
28352W        W96570  15.156  32.615   2.789
28353W        W96571  22.275  21.226  11.440
28354W        W96572  38.913  27.246   1.249
28355W        W96573  29.471  43.868   4.844
28356W        W96574  26.989  34.330   0.412
28357W        W96575  17.333   5.301   4.599
28358W        W96576  40.324   7.414  11.183
28359W        W96577  32.874  13.212   4.353
28360W        W96578  30.136  13.170   2.363
28361W        W96579  12.874  39.371   1.029
28362W        W96580  39.348  29.581   4.250
28363W        W96581  27.703   4.701  14.219
28364W        W96582  29.580  33.528  11.749
28365W        W96583  36.409  15.965  13.487
28366W        W96584   7.901  13.269   0.477
28367W        W96585  30.942  22.925  14.775
28368W        W96586  44.482  35.896   1.333
28369W        W96587   9.348  44.855   2.237
28370W        W96588  39.745  12.244   0.405
28371W        W96589  37.836  40.783  11.458
28372W        W96590   6.770  32.167  12.896
28373W        W96591  14.159  34.111  12.399
28374W        W96592  17.658   9.304  12.464
28375W        W96593  25.684  40.944   0.565
28376W        W96594   3.324  28.121  12.897
28377W        W96595  37.893   7.830   3.694
28378W        W96596  15.591   2.191  14.373
28379W        W96597  44.852  13.793  13.423
28380W        W96598  38.628  40.732   4.146
28381W        W96599  16.149  13.278   1.634
28382W        W96600  32.105   7.365  10.162
28383W        W96601  38.125   3.486  12.965
28384W        W96602  36.533   7.280  13.779
28385W        W96603  41.178  35.441  11.080
28386W        W96604  32.800  14.939   4.916
28387W        W96605   8.695  15.690   0.959
28388W        W96606   6.443   7.087  11.998
28389W        W96607  23.224  23.469   1.739
28390W        W96608   4.185  26.410  12.823
28391W        W96609  19.214  38.590   3.440
28392W        W96610   7.630  12.826  11.576
28393W        W96611  12.692   7.439   0.786
28394W        W96612  22.972   3.361  13.762
28395W        W96613  22.071  36.759  12.120
28396W        W96614   3.804  42.479   2.707
28397W        W96615  38.267  32.665  12.643
28398W        W96616   2.703   0.587   1.165
28399W        W96617  31.031  33.621   3.734
28400W        W96618   9.212  23.072  12.615
28401W        W96619  27.675  34.047  12.702
28402W        W96620  41.825  22.915   2.079
28403W        W96621  16.640   1.264   4.426
28404W        W96622   7.148   0.109   4.107
28405W        W96623  18.740  10.254   2.913
28406W        W96624  34.838  23.104  10.688
28407W        W96625  22.227  16.021  13.855
28408W        W96626  27.582  17.681   3.736
28409W        W96627  17.057  44.785   4.052
28410W        W96628   1.802  24.047   4.289
28411W        W96629  17.781  21.478  14.929
28412W        W96630  18.029  32.579  13.436
28413W        W96631  20.200  34.045  13.564
28414W        W96632  14.789  35.823  13.509
28415W        W96633  42.769   0.144   1.231
28416W        W96634  37.637  21.763   2.788
28417W        W96635  38.545  21.501  10.399
28418W        W96636  36.406  12.858  14.404
28419W        W96637  13.939   3.809  11.373
28420W        W96638  16.270  30.519  11.568
28421W        W96639  32.329  42.727  13.444
28422W        W96640  41.422  19.580  14.379
28423W        W96641   6.671  13.117  11.873
28424W        W96642  43.868  42.040  11.593
28425W        W96643  34.592  38.523  11.602
28426W        W96644   8.854  17.782  11.487
28427W        W96645  23.448   9.144   3.699
28428W        W96646  33.074   7.933   2.194
28429W        W96647  39.793   3.698   1.712
28430W        W96648  29.515   3.279  14.896
28431W        W96649  35.019  39.284   2.463
28432W        W96650  14.588   9.280   2.466
28433W        W96651  38.880  43.320   1.222
28434W        W96652  32.675  16.108  14.425
28435W        W96653  42.367  37.292   0.468
28436W        W96654   8.295  25.242  13.882
28437W        W96655   3.787  19.306  11.981
28438W        W96656  40.088  30.375  12.719
28439W        W96657  21.723  25.722  13.084
28440W        W96658  39.506   6.220  11.148
28441W        W96659  36.793  12.182   1.951
28442W        W96660  26.037  33.260   1.472
28443W        W96661  22.981  35.165   4.154
28444W        W96662  39.984  15.972   4.867
28445W        W96663   8.564  16.744  14.800
28446W        W96664  17.777  27.002  14.687
28447W        W96665  44.936  19.744  10.711
28448W        W96666  42.815  34.058   3.223
28449W        W96667  34.163  18.686  13.349
28450W        W96668  23.551  20.373   1.422
28451W        W96669  35.302   0.969  11.294
28452W        W96670  12.569  16.682  13.808
28453W        W96671  24.689  14.196   2.742
28454W        W96672  11.547   3.901   3.402
28455W        W96673  30.597  26.562  11.273
28456W        W96674   3.323  30.811  14.911
28457W        W96675  23.254   2.718  14.778
28458W        W96676  23.033  32.464  13.064
28459W        W96677  36.882  16.725   4.590
28460W        W96678  19.461  26.165   2.176
28461W        W96679   2.262  17.021   4.116
28462W        W96680  38.764  14.309   4.799
28463W        W96681  31.968  16.840  12.570
28464W        W96682  27.936   6.944   1.940
28465W        W96683  14.690   5.705  13.839
28466W        W96684  13.141  39.726  11.685
28467W        W96685   6.497   2.744   2.833
28468W        W96686  26.991  18.713   0.179
28469W        W96687   7.371  24.239   2.274
28470W        W96688  34.362  30.333   2.802
28471W        W96689  18.461  25.147   4.152
28472W        W96690  38.802  37.982   0.718
28473W        W96691  24.261   4.225   0.314
28474W        W96692   8.397  36.912  14.821
28475W        W96693  17.279  34.050  12.875
28476W        W96694  22.775  19.564   1.795
28477W        W96695  31.845   1.726  10.798
28478W        W96696   8.130  13.061  11.965
28479W        W96697  14.330  38.807  14.722
28480W        W96698   4.461  27.032  10.498
28481W        W96699  38.243  33.324   4.595
28482W        W96700  36.118  29.434   2.126
28483W        W96701  37.219  10.308  14.620
28484W        W96702  39.065   5.658  13.973
28485W        W96703  34.491  22.530  11.973
28486W        W96704  13.128  44.980  14.416
28487W        W96705  16.182  22.709   0.252
28488W        W96706   7.865  44.164   0.460
28489W        W96707   1.420  16.544   1.609
28490W        W96708  44.365  33.116  11.909
28491W        W96709  36.306  27.191  13.468
28492W        W96710  32.115  41.346   0.206
28493W        W96711  29.921   5.930  14.057
28494W        W96712  41.257  19.324   4.059
28495W        W96713  41.959  42.513   2.856
28496W        W96714  42.552  27.586  10.750
28497W        W96715   7.892   2.837  12.512
28498W        W96716  42.988  21.086  10.607
28499W        W96717  28.445  19.190   4.346
28500W        W96718  16.489   8.854  14.766
28501W        W96719  43.025  30.631  10.780
28502W        W96720  27.132   8.419  12.620
28503W        W96721   6.511  28.427   1.911
28504W        W96722  44.492   4.887  10.317
28505W        W96723  24.100  23.700   0.303
28506W        W96724   9.838   5.035   4.746
28507W        W96725   6.643  37.003   1.379
28508W        W96726  12.791   4.673   0.942
28509W        W96727  37.543  10.757  11.116
28510W        W96728  22.059  44.531   1.675
28511W        W96729   9.086  16.960   3.565
28512W        W96730  19.622   0.713   4.066
28513W        W96731   3.646  11.417   0.306
28514W        W96732   9.780  41.097  12.864
28515W        W96733  30.434  31.123   1.018
28516W        W96734  29.575  42.877   4.691
28517W        W96735  17.576   1.226   4.120
28518W        W96736  31.238  15.667  11.325
28519W        W96737  38.496  16.045   1.423
28520W        W96738  26.009   8.075  14.999
28521W        W96739  15.699  28.129  10.470
28522W        W96740  22.477   9.544  11.191
28523W        W96741  17.549  23.626  13.961
28524W        W96742  27.173  18.601   1.227
28525W        W96743  10.206  39.008   2.258
28526W        W96744  37.316  18.234  12.511
28527W        W96745  23.671  24.646  10.985
28528W        W96746  25.970  11.570   0.079
28529W        W96747  15.832  25.158   3.804
28530W        W96748  44.993  27.740  13.972
28531W        W96749  17.181  25.896  13.492
28532W        W96750  22.972   2.685   3.690
28533W        W96751   1.132  24.355  11.016
28534W        W96752  20.637   5.686  13.123
28535W        W96753  14.332   5.500   4.919
28536W        W96754   4.938  10.590  14.345
28537W        W96755   1.949   5.292   2.284
28538W        W96756  36.661  31.726  13.008
28539W        W96757   4.299  34.320   0.456
28540W        W96758  24.770  22.629   3.200
28541W        W96759   2.510  26.671  10.774
28542W        W96760  30.287   0.248  11.101
28543W        W96761   8.857  35.902  13.946
28544W        W96762  27.102  22.677  11.622
28545W        W96763  38.486  23.003   1.882
28546W        W96764  23.180  28.728   0.041
28547W        W96765  39.947  17.698   2.234
28548W        W96766  35.121  16.463   0.326
28549W        W96767  43.727   9.836  11.674
28550W        W96768  31.341  27.511   2.367
28551W        W96769  15.989  21.072   1.787
28552W        W96770   6.738  41.875  12.402
28553W        W96771  22.744  42.775  11.764
28554W        W96772   4.830  42.322   3.613
28555W        W96773  13.871  22.454   4.672
28556W        W96774  41.925  14.841   1.294
28557W        W96775  18.585  22.772   2.328
28558W        W96776  37.840  27.893  14.043
28559W        W96777  44.366  35.745  13.881
28560W        W96778  25.046  30.543   2.264
28561W        W96779   7.454  23.762   2.905
28562W        W96780  21.242  16.130   2.340
28563W        W96781  42.129  32.521  12.413
28564W        W96782   8.326  22.941  10.910
28565W        W96783  24.140   6.625  10.216
28566W        W96784   4.746  15.431   2.973
28567W        W96785  33.600  17.337  11.125
28568W        W96786  28.495  30.994   1.787
28569W        W96787  29.157  39.507  11.688
28570W        W96788  13.658   2.714  12.885
28571W        W96789  34.618   0.044  11.039
28572W        W96790  14.343  40.293   5.138
28573W        W96791  21.114  25.699   2.725
28574W        W96792  30.698  14.039   3.676
28575W        W96793  37.917  34.784  10.664
28576W        W96794  15.814  38.382  12.169
28577W        W96795  17.345  23.965  12.380
28578W        W96796  21.398  12.591  11.948
28579W        W96797  38.524  39.833   2.771
28580W        W96798  41.852  40.953   3.584
28581W        W96799  38.650  21.252   1.145
28582W        W96800  39.576  35.969   1.746
28583W        W96801  38.410  12.338   0.911
28584W        W96802  10.163  31.596   2.179
28585W        W96803  14.994  35.448   3.389
28586W        W96804  25.738  21.276  11.675
28587W        W96805  30.189  35.075   0.374
28588W        W96806  15.657  23.220   3.723
28589W        W96807   2.807  44.290   0.330
28590W        W96808   4.954   4.701   2.192
28591W        W96809  27.814  37.946  13.075
28592W        W96810  15.676   8.640   3.133
28593W        W96811  10.313  12.791   3.007
28594W        W96812  29.707  17.810   4.986
28595W        W96813  39.062  18.256   4.692
28596W        W96814  19.843  22.179   0.755
28597W        W96815  34.380  43.625  12.356
28598W        W96816  11.724  41.797   2.213
28599W        W96817  41.091  19.025  12.995
28600W        W96818  33.520  36.327   3.628
28601W        W96819  28.922  11.747  12.918
28602W        W96820  41.571  27.493   4.642
28603W        W96821  33.095  41.931  10.459
28604W        W96822  30.787  17.974   0.323
28605W        W96823  16.605  43.202  14.772
28606W        W96824  17.871  31.137   0.956
28607W        W96825   9.863  34.526  12.629
28608W        W96826   3.657  43.929  13.684
28609W        W96827  13.617  42.929   4.124
28610W        W96828  14.865   9.896   1.221
28611W        W96829   0.946  11.457   2.594
28612W        W96830   4.247  38.024  11.609
28613W        W96831   4.594   4.285  13.358
28614W        W96832  18.201  22.898  14.277
28615W        W96833   0.331   4.168  11.682
28616W        W96834   6.946   3.416   3.314
28617W        W96835   5.699   8.117   0.352
28618W        W96836  30.988   0.550   2.173
28619W        W96837   9.696   6.541  14.125
28620W        W96838  12.890  12.761  12.034
28621W        W96839  38.347   3.461  12.465
28622W        W96840  43.301   4.946   0.477
28623W        W96841  11.800  13.947  12.024
28624W        W96842  32.162  28.058   3.706
28625W        W96843  12.736  42.438  13.736
28626W        W96844   9.375  38.560   1.786
28627W        W96845  39.041  30.465   2.636
28628W        W96846   9.897  25.756  12.059
28629W        W96847  20.545  26.022  11.257
28630W        W96848  21.110  30.203   2.232
28631W        W96849  13.563   1.929   0.266
28632W        W96850  34.480  20.055   0.848
28633W        W96851  13.586  15.626   2.232
28634W        W96852  35.325  35.614  11.586
28635W        W96853   3.093  29.714   4.226
28636W        W96854  24.014  40.836   1.263
28637W        W96855   5.257  14.099   0.423
28638W        W96856  36.019  14.249   4.055
28639W        W96857   9.929  28.987  10.695
28640W        W96858  20.593  11.657  13.383
28641W        W96859   5.866   3.225   0.765
28642W        W96860   9.547  37.520  13.984
28643W        W96861  10.889  27.806  10.454
28644W        W96862  12.723  37.415   2.380
28645W        W96863   5.735  40.454  10.677
28646W        W96864  13.042  40.417   0.865
28647W        W96865  32.489  10.444  12.901
28648W        W96866  44.540  23.053  10.445
28649W        W96867  28.610  38.853  11.581
28650W        W96868  21.609   6.656  14.804
28651W        W96869  41.482  23.952  12.588
28652W        W96870   4.460  32.001  12.960
28653W        W96871  32.916   5.668   0.966
28654W        W96872  37.077  44.935  12.887
28655W        W96873  26.433  42.939  12.097
28656W        W96874  32.492  39.628  13.773
28657W        W96875   8.074  10.349  10.284
28658W        W96876  37.098  35.168  11.044
28659W        W96877  37.578  11.092  13.922
28660W        W96878  13.106  44.199  14.871
28661W        W96879   2.229  28.709  14.210
28662W        W96880  36.946  38.138   4.107
28663W        W96881  23.018   8.406  12.936
28664W        W96882  39.652  33.287   2.749
28665W        W96883  32.034  24.217   2.563
28666W        W96884  15.265  10.579   2.621
28667W        W96885   7.273  34.990  13.519
28668W        W96886  28.664  33.904   0.103
28669W        W96887  29.996  38.564   3.705
28670W        W96888  35.593   4.966   1.191
28671W        W96889  16.771   1.294   0.923
28672W        W96890  11.196  26.334   0.346
28673W        W96891  28.085  33.787  12.552
28674W        W96892  34.626  20.615   3.712
28675W        W96893  13.319  20.736  14.631
28676W        W96894  16.422  29.590  11.617
28677W        W96895  29.668   0.865  11.997
28678W        W96896  22.671  13.066  12.464
28679W        W96897  35.227  42.372  11.232
28680W        W96898  29.807  30.204   4.079
28681W        W96899  17.658  38.631   0.213
28682W        W96900  27.373  43.620   4.864
28683W        W96901   8.682   2.224  11.856
28684W        W96902  13.765   0.284   2.831
28685W        W96903  22.530  11.135  10.207
28686W        W96904  12.709   0.854  11.238
28687W        W96905  36.914  24.069  13.349
28688W        W96906   3.033  24.652   0.466
28689W        W96907  26.758   1.627   3.830
28690W        W96908  17.692   7.040   3.177
28691W        W96909  44.174  22.143  14.956
28692W        W96910  17.085   3.575  14.701
28693W        W96911  39.704  13.164   2.360
28694W        W96912  17.154   4.773   1.925
28695W        W96913  11.671  41.026  12.941
28696W        W96914  29.149   4.266  14.855
28697W        W96915  11.120   3.642   2.182
28698W        W96916  18.249  39.923   1.596
28699W        W96917  35.992  18.662   0.533
28700W        W96918  30.968  18.238   4.738
28701W        W96919  26.051  42.560   0.001
28702W        W96920   9.669  39.934   2.674
28703W        W96921  14.555  43.302  13.500
28704W        W96922  15.256   3.913   3.872
28705W        W96923  36.496   6.644  14.956
28706W        W96924   1.077  20.008   1.781
28707W        W96925  37.600  39.617   2.300
28708W        W96926  23.046  24.288   1.850
28709W        W96927   1.851  34.572  12.936
28710W        W96928   1.876  22.197  13.287
28711W        W96929  37.885  42.521  10.747
28712W        W96930  43.981  13.176   4.570
28713W        W96931  29.084  34.045   1.936
28714W        W96932  19.549  13.348  12.182
28715W        W96933  17.225  24.777   0.282
28716W        W96934   7.470   4.506   2.381
28717W        W96935   3.243  20.010   0.000
28718W        W96936  44.769   0.878   3.976
28719W        W96937   3.947  30.790   0.423
28720W        W96938  17.463  13.126   4.666
28721W        W96939  13.290  42.992  10.509
28722W        W96940  26.928  27.552   0.745
28723W        W96941  27.526  12.278   3.230
28724W        W96942  11.874  16.135   1.766
28725W        W96943  24.411  19.190   2.254
28726W        W96944  43.493  21.750   1.343
28727W        W96945  25.064  18.020  10.496
28728W        W96946  38.793  42.513   4.215
28729W        W96947  16.360  13.369   3.572
28730W        W96948  37.130  40.980  12.096
28731W        W96949  37.561  41.336  12.498
28732W        W96950  39.117  12.687  11.124
28733W        W96951  25.274  41.626  12.891
28734W        W96952  14.034  39.648  13.360
28735W        W96953   3.902  44.522   0.766
28736W        W96954  20.803  19.648  12.732
28737W        W96955  44.410  27.523   3.759
28738W        W96956  44.788  30.170   0.556
28739W        W96957  16.077  26.537  12.382
28740W        W96958  35.043   1.930   0.721
28741W        W96959   4.434  37.536  10.485
28742W        W96960  18.827  20.568   1.727
28743W        W96961  20.524   1.917   0.436
28744W        W96962  14.815  42.373   0.862
28745W        W96963   2.324  39.147   4.622
28746W        W96964  16.551  39.395  11.494
28747W        W96965  37.804  19.540   5.139
28748W        W96966  10.005  40.469  11.404
28749W        W96967  25.658  37.188   2.375
28750W        W96968  43.567  29.452  12.542
28751W        W96969  22.223   7.130   0.382
28752W        W96970   4.256  38.424   2.345
28753W        W96971  39.458   9.424   2.760
28754W        W96972  34.527  32.242  12.337
28755W        W96973  19.718   4.232   1.296
28756W        W96974  13.108  15.394  12.381
28757W        W96975  42.083   0.531  12.174
28758W        W96976  39.914  20.165  14.313
28759W        W96977  22.067   4.199   3.384
28760W        W96978  25.090  12.641   2.501
28761W        W96979  27.025   0.931   2.872
28762W        W96980   1.302  15.379  10.660
28763W        W96981  14.380   8.257   3.992
28764W        W96982   3.787  37.824   4.959
28765W        W96983   4.905   9.115   4.582
28766W        W96984  40.514  39.834  13.458
28767W        W96985  32.352   8.628   2.350
28768W        W96986  41.586  31.974  12.838
28769W        W96987  40.854  27.043   1.245
28770W        W96988   4.229  37.566   4.943
28771W        W96989  19.195  15.619   1.752
28772W        W96990  26.637   5.975   0.862
28773W        W96991  14.366   6.141   4.249
28774W        W96992  34.086  42.348   4.812
28775W        W96993  30.011  27.966   3.711
28776W        W96994   7.721   3.795  12.406
28777W        W96995  24.438   4.944   4.817
28778W        W96996   8.018  29.720  12.066
28779W        W96997  16.897   3.686  12.921
28780W        W96998  31.040  29.124  12.815
28781W        W96999  35.819   5.607   4.814
28782W        W97000   7.854  27.592  14.018
28783W        W97001  24.177  27.536   4.826
28784W        W97002  41.998  19.975   4.868
28785W        W97003  42.576  29.494  14.703
28786W        W97004  34.356   3.699   3.240
28787W        W97005  16.316  37.135  11.224
28788W        W97006  27.415   5.641   3.663
28789W        W97007  33.855   9.592  12.950
28790W        W97008  41.432  30.165  11.848
28791W        W97009  26.809  21.048  10.297
28792W        W97010  21.125  13.262   3.611
28793W        W97011  15.217  24.033   1.874
28794W        W97012  34.398  17.058  12.617
28795W        W97013   6.183   3.785   4.412
28796W        W97014  21.621   0.179   0.836
28797W        W97015  20.806  37.740   5.036
28798W        W97016  10.789  32.529  10.735
28799W        W97017  28.495  14.073   3.765
28800W        W97018  33.830  17.745  12.389
28801W        W97019  43.050  31.626  12.067
28802W        W97020   4.739  32.389   2.780
28803W        W97021  22.979  16.197  11.826
28804W        W97022  31.323  24.949  12.002
28805W        W97023  40.727   0.354  12.524
28806W        W97024   0.961  14.142   1.812
28807W        W97025  24.201  12.741   3.155
28808W        W97026  40.735  22.230   4.163
28809W        W97027  27.919  22.729   2.182
28810W        W97028  17.434  43.943   2.268
28811W        W97029  31.601  40.959  12.320
28812W        W97030  35.442  28.216   1.792
28813W        W97031  40.907   7.352   4.131
28814W        W97032   6.801   7.117  12.445
28815W        W97033  43.749  35.437   1.329
28816W        W97034  20.984  11.320  14.118
28817W        W97035  41.468   2.995   2.287
28818W        W97036   6.429  28.116   3.214
28819W        W97037   6.409  14.634  10.960
28820W        W97038  25.979   5.237  13.368
28821W        W97039  23.112  35.385  13.367
28822W        W97040   2.463  21.138   0.353
28823W        W97041  30.997  21.946  11.638
28824W        W97042  17.155  41.001   2.586
28825W        W97043  44.248  27.189  13.583
28826W        W97044  43.793   2.236   4.394
28827W        W97045  20.183   8.820   2.786
28828W        W97046   7.749  15.668   3.190
28829W        W97047  11.956   5.084   1.470
28830W        W97048  34.779  24.453   1.768
28831W        W97049  28.747  24.907  10.663
28832W        W97050  33.895  40.000   3.967
28833W        W97051  11.454  12.669  11.101
28834W        W97052   1.711  25.450  12.073
28835W        W97053  39.565   5.810   5.513
28836W        W97054   0.558  39.086   3.264
28837W        W97055  38.129  23.973   4.447
28838W        W97056  31.380  20.525  14.038
28839W        W97057  40.568  16.198   4.377
28840W        W97058  42.734   6.207   3.144
28841W        W97059  42.365  18.005  14.550
28842W        W97060   0.463  22.467   3.610
28843W        W97061  17.259  37.462   5.161
28844W        W97062  22.680  41.015   0.203
28845W        W97063  14.333  36.590   0.739
28846W        W97064  23.929  38.936   3.293
28847W        W97065  30.433  11.229  12.492
28848W        W97066  29.788  26.994   3.874
28849W        W97067  19.220  33.765   4.114
28850W        W97068  16.682  18.872   1.200
28851W        W97069  35.611  29.574   3.359
28852W        W97070  31.900   6.318   1.195
28853W        W97071   8.172  40.517   5.017
28854W        W97072  42.963  16.848  13.434
28855W        W97073  22.702  25.023   1.473
28856W        W97074  14.445  42.126  11.599
28857W        W97075  11.780  27.948   0.855
28858W        W97076   4.486  40.659   4.801
28859W        W97077  35.658  11.599   1.256
28860W        W97078  24.068  36.853  13.581
28861W        W97079  38.317  39.368   4.120
28862W        W97080  21.352  29.987   1.353
28863W        W97081  44.788  23.728   0.044
28864W        W97082  31.850  24.726  12.861
28865W        W97083  19.110  39.062  14.395
28866W        W97084  42.431  13.890  10.709
28867W        W97085  29.332  12.576  12.426
28868W        W97086  35.614  34.970   3.170
28869W        W97087   6.887  15.501  13.990
28870W        W97088  37.745  44.737   2.398
28871W        W97089   2.311  42.902  10.598
28872W        W97090   7.269  23.524   3.356
28873W        W97091  36.382   2.768   1.324
28874W        W97092  39.799   5.829  11.344
28875W        W97093   5.267  14.556   1.222
28876W        W97094  30.598   2.861   4.930
28877W        W97095  39.039  28.892  10.230
28878W        W97096   9.181  40.367  11.193
28879W        W97097  15.255  26.209  14.899
28880W        W97098  13.918   8.713   0.236
28881W        W97099  27.457  36.442  13.239
28882W        W97100  13.119   1.870   3.576
28883W        W97101  44.468  11.519  11.296
28884W        W97102  27.169   7.943  12.469
28885W        W97103  35.605  25.377   3.282
28886W        W97104  22.309  23.525  13.370
28887W        W97105   1.725  27.955  12.141
28888W        W97106  19.530   4.822  14.221
28889W        W97107  30.075  35.940   3.174
28890W        W97108  13.686   8.351  10.705
28891W        W97109  33.966  10.232  14.283
28892W        W97110   1.925   1.843  11.216
28893W        W97111  29.065  29.532   4.746
28894W        W97112  30.818   8.606   2.413
28895W        W97113  41.593  38.460  13.017
28896W        W97114  38.762  30.113  11.042
28897W        W97115  15.084  20.184  11.615
28898W        W97116  15.595  29.986  12.470
28899W        W97117  17.129  34.826  14.463
28900W        W97118  29.203  36.074  12.941
28901W        W97119  33.716  23.786   4.146
28902W        W97120  23.044  11.662   0.011
28903W        W97121  31.414  40.736  13.064
28904W        W97122   2.271   6.727  13.424
28905W        W97123  12.796   3.589  14.290
28906W        W97124  25.189  33.073   3.099
28907W        W97125   0.767   0.266   3.176
28908W        W97126  25.223  16.175   0.046
28909W        W97127  39.922  37.995  14.377
28910W        W97128  44.348   6.739  12.664
28911W        W97129  30.893  25.793   0.368
28912W        W97130   1.534  40.837   4.136
28913W        W97131   2.507  27.589   0.860
28914W        W97132  28.756  19.140  13.981
28915W        W97133  39.805  15.006  11.923
28916W        W97134  12.818  20.208   0.516
28917W        W97135   9.858  41.782   4.934
28918W        W97136   1.438   3.419   0.386
28919W        W97137  36.961  43.620  10.808
28920W        W97138   3.822  25.526  11.202
28921W        W97139  18.211   4.722   1.762
28922W        W97140   9.783  11.167   1.179
28923W        W97141   1.296  17.152  13.689
28924W        W97142   2.984  36.961  12.453
28925W        W97143  18.476  34.304   4.267
28926W        W97144  31.353  43.934   3.917
28927W        W97145  27.696  19.502   2.786
28928W        W97146  22.229  14.636   3.314
28929W        W97147  34.027   9.379   4.159
28930W        W97148  42.276  42.377  12.909
28931W        W97149   1.889  35.959  13.466
28932W        W97150   6.366  17.051  14.273
28933W        W97151  20.788  27.765   2.323
28934W        W97152  26.095  36.831  14.218
28935W        W97153  20.463  21.222  10.500
28936W        W97154  21.054  28.031   3.178
28937W        W97155   0.170  35.261   0.924
28938W        W97156  29.999  34.161   2.685
28939W        W97157   5.458   1.215   3.280
28940W        W97158   2.079   4.984  13.163
28941W        W97159   0.202  44.348   4.356
28942W        W97160  10.717  22.271  13.778
28943W        W97161  33.707  30.030   0.014
28944W        W97162  20.502  32.932  12.625
28945W        W97163   0.246  28.852   0.870
28946W        W97164  13.414  26.099   4.604
28947W        W97165  38.836  42.274   0.515
28948W        W97166   8.289  26.840  11.971
28949W        W97167  26.583  40.961  13.945
28950W        W97168  10.860  43.271   3.156
28951W        W97169  35.562  37.780   0.428
28952W        W97170  11.554  17.202  12.855
28953W        W97171  31.917  25.159   0.501
28954W        W97172  10.887   4.862  11.481
28955W        W97173  18.595   6.782   2.404
28956W        W97174   8.481  20.027  13.195
28957W        W97175  23.433   8.635   2.804
28958W        W97176  34.178  11.284  14.061
28959W        W97177  26.588  34.824  14.009
28960W        W97178  42.939   0.841   3.163
28961W        W97179   1.442   4.969  12.166
28962W        W97180  43.019   4.971   2.729
28963W        W97181   1.015  31.234  11.046
28964W        W97182  16.328  19.286  13.300
28965W        W97183  35.777  32.599  10.944
28966W        W97184  13.379  35.007   0.425
28967W        W97185   5.650   0.996   4.075
28968W        W97186  11.126  19.643  13.440
28969W        W97187   4.024  29.985   3.169
28970W        W97188   7.089  31.161   3.092
28971W        W97189   2.883  24.458  12.166
28972W        W97190  39.514  43.589  13.546
28973W        W97191  25.833   1.473  12.855
28974W        W97192  12.822  19.392   1.992
28975W        W97193  43.227  27.803  10.033
28976W        W97194  36.103   0.883  11.575
28977W        W97195   6.727  31.122   0.264
28978W        W97196  17.676  41.278  11.897
28979W        W97197   1.723  25.264   3.681
28980W        W97198   3.394  34.571   3.284
28981W        W97199  40.079  24.952  14.533
28982W        W97200  20.858  43.212   2.615
28983W        W97201   9.764  32.558  12.338
28984W        W97202   2.244  36.013  14.983
28985W        W97203  39.314  23.404   3.058
28986W        W97204   5.761  11.663   0.949
28987W        W97205   1.453   0.763  13.744
28988W        W97206  28.373   3.099   2.317
28989W        W97207  36.269  10.748   5.049
28990W        W97208   8.076  39.498  13.098
28991W        W97209  38.481  43.214   2.154
28992W        W97210   0.982  30.425   3.534
28993W        W97211  35.560  44.016   4.707
28994W        W97212   9.145  26.425  10.720
28995W        W97213  33.424  40.048  10.576
28996W        W97214  20.012  10.828  13.388
28997W        W97215  24.666  28.871   1.328
28998W        W97216  35.276   4.908  14.297
28999W        W97217  33.638  16.884  12.241
29000W        W97218  43.923   8.497  14.398
29001W        W97219  28.125  17.642   0.858
29002W        W97220  39.512  27.477  12.892
29003W        W97221   3.138  13.947  13.516
29004W        W97222   9.209   7.861  14.836
29005W        W97223  29.596  44.808   2.703
29006W        W97224  10.896  24.959  11.537
29007W        W97225  10.394  29.316  11.756
29008W        W97226  21.455   5.857   0.903
29009W        W97227   8.285   1.684   2.516
29010W        W97228  44.598  29.950   1.975
29011W        W97229  28.137  17.226  10.786
29012W        W97230   2.974  44.396  11.702
29013W        W97231  14.613   4.386   3.098
29014W        W97232  41.993  29.214  11.084
29015W        W97233  15.128  39.751   1.305
29016W        W97234  42.475  35.331  12.247
29017W        W97235  34.077  27.422   3.678
29018W        W97236  10.331   4.848  11.506
29019W        W97237   2.979  22.008  11.711
29020W        W97238  19.143  16.336  11.283
29021W        W97239   5.986  34.902   0.873
29022W        W97240  18.044   4.789  14.724
29023W        W97241   2.100   6.175   0.877
29024W        W97242  23.047  37.342  13.824
29025W        W97243  29.225  31.442   1.869
29026W        W97244  34.707  41.224   4.040
29027W        W97245  17.190  23.036   3.840
29028W        W97246  22.667  17.085  13.294
29029W        W97247  17.236  24.262   1.920
29030W        W97248  12.120  23.601   1.915
29031W        W97249   9.755  16.078  11.551
29032W        W97250   9.284   1.670  12.396
29033W        W97251  43.950  24.714   4.639
29034W        W97252  20.953  30.695   0.713
29035W        W97253  14.576  24.736  11.008
29036W        W97254  36.053   9.701   2.755
29037W        W97255   5.181  10.183   4.610
29038W        W97256  16.634   5.372   2.118
29039W        W97257  40.023   4.396   3.919
29040W        W97258   7.297  36.625   1.745
29041W        W97259   1.864   7.013  11.115
29042W        W97260  22.118   0.995  11.928
29043W        W97261  39.551  22.051   5.026
29044W        W97262  38.917  42.781   0.432
29045W        W97263  11.240  25.917  12.367
29046W        W97264  17.961   9.270   0.415
29047W        W97265  24.994  31.039   0.489
29048W        W97266  39.962   6.836   0.018
29049W        W97267  31.027   7.338  13.443
29050W        W97268  35.791  42.949   0.377
29051W        W97269  35.905  12.666  13.921
29052W        W97270  10.607  18.738  10.711
29053W        W97271  18.864  12.838   3.672
29054W        W97272  42.007   0.189   2.289
29055W        W97273  27.413  29.355   0.854
29056W        W97274  40.410   8.178   2.667
29057W        W97275  41.798  19.233   0.476
29058W        W97276  17.564   9.233  13.304
29059W        W97277  39.085   3.350   2.234
29060W        W97278  34.033   4.395  14.213
29061W        W97279  19.104  31.705  12.419
29062W        W97280  22.994  40.113  13.960
29063W        W97281  20.581  43.050   2.217
29064W        W97282  23.061  43.411   1.188
29065W        W97283  12.797  24.268   0.853
29066W        W97284  11.660  22.741  11.906
29067W        W97285  34.013  37.140   4.539
29068W        W97286  38.507  22.078   0.839
29069W        W97287  24.459   0.937  12.912
29070W        W97288   5.924  12.569   2.343
29071W        W97289  42.807  42.474   3.483
29072W        W97290  18.024  43.407  14.840
29073W        W97291  28.341  19.303   0.273
29074W        W97292  12.801  34.448  11.971
29075W        W97293  13.706  11.742   1.492
29076W        W97294  40.925   6.203  11.087
29077W        W97295  15.546  38.447   0.340
29078W        W97296  20.915  31.452   5.545
29079W        W97297  28.600  44.479  10.478
29080W        W97298  31.465  21.094  11.078
29081W        W97299  25.386  10.679   1.791
29082W        W97300  34.207   4.708   3.103
29083W        W97301   4.855  19.871   3.359
29084W        W97302  29.515  35.442  13.726
29085W        W97303  17.129  32.068   0.233
29086W        W97304  40.717  17.576  14.869
29087W        W97305  26.390  20.185   3.774
29088W        W97306  24.786   9.368  12.483
29089W        W97307  21.588   6.405  12.022
29090W        W97308  18.145  34.203   1.452
29091W        W97309   6.335  27.426  14.223
29092W        W97310  36.760  18.004  11.139
29093W        W97311   7.324  25.411   0.448
29094W        W97312  41.890  34.473  14.796
29095W        W97313  35.374  23.216  12.539
29096W        W97314  29.800  36.448  10.934
29097W        W97315  39.969  36.887   0.948
29098W        W97316   2.523  44.447  13.844
29099W        W97317  30.001  34.993  14.422
29100W        W97318  44.588   1.789   0.837
29101W        W97319  14.986  34.018   0.472
29102W        W97320  44.289   5.483  14.380
29103W        W97321  41.587  14.801  12.981
29104W        W97322   0.217   3.350   2.486
29105W        W97323  29.076   9.678   0.630
29106W        W97324  24.040  13.510   2.590
29107W        W97325   3.872   5.247   4.556
29108W        W97326   1.811  42.003   1.747
29109W        W97327  26.538   1.773   0.697
29110W        W97328  30.841  31.465  13.488
29111W        W97329  35.638   2.761  11.196
29112W        W97330  37.588  23.215   3.590
29113W        W97331   1.424   6.703   0.758
29114W        W97332  17.206   9.201  11.388
29115W        W97333  21.146  38.536   4.072
29116W        W97334  10.720  44.431   3.155
29117W        W97335  33.340   6.426   3.770
29118W        W97336  24.717  36.578  13.883
29119W        W97337  30.853  28.255   5.034
29120W        W97338  40.934  35.402  14.803
29121W        W97339  26.826  40.290   4.938
29122W        W97340   4.942  16.694   4.650
29123W        W97341  27.999   6.734   4.160
29124W        W97342  37.419  25.268   0.489
29125W        W97343   4.837  21.222  12.468
29126W        W97344  22.649  30.546   1.320
29127W        W97345  25.475   9.310   2.618
29128W        W97346   5.277  22.210   0.694
29129W        W97347  23.410   6.985  10.716
29130W        W97348  20.828  18.620   0.511
29131W        W97349  21.503  27.483   4.043
29132W        W97350   8.837  33.949   3.251
29133W        W97351  19.508   0.540  11.528
29134W        W97352  43.312  28.481  14.493
29135W        W97353   8.596  26.996  12.356
29136W        W97354  23.400   1.863  13.860
29137W        W97355  34.469  39.536  11.816
29138W        W97356  24.152  27.644   2.427
29139W        W97357  12.183  15.649  14.648
29140W        W97358  36.603   4.188  14.318
29141W        W97359  21.660  13.810  13.363
29142W        W97360  44.097   7.251  12.985
29143W        W97361  23.339  43.420   3.728
29144W        W97362   4.587  32.007   4.942
29145W        W97363  42.766  18.872   4.742
29146W        W97364  10.427  14.630   0.484
29147W        W97365  17.486  30.483  10.153
29148W        W97366  38.892  42.613  12.939
29149W        W97367  15.835  42.310  11.906
29150W        W97368  33.860  41.846   0.093
29151W        W97369  12.262   3.022  11.963
29152W        W97370   7.408  43.214   3.426
29153W        W97371  31.425  34.451   2.499
29154W        W97372  15.251  33.899   2.179
29155W        W97373  22.272  13.676  14.138
29156W        W97374   9.746  28.647  12.171
29157W        W97375  18.116   5.242   0.116
29158W        W97376  36.824  13.058   0.102
29159W        W97377  28.682  42.263   4.102
29160W        W97378  23.798  43.513   0.768
29161W        W97379  18.290  28.562   1.731
29162W        W97380  39.992  42.794   3.901
29163W        W97381  37.831   6.828  11.102
29164W        W97382  39.851  17.233  14.420
29165W        W97383  12.771  12.068  11.454
29166W        W97384  23.843  23.927  13.760
29167W        W97385  12.627  25.071  10.969
29168W        W97386  43.964  23.963  14.277
29169W        W97387   1.696  18.032   0.684
29170W        W97388  34.865  12.887   0.369
29171W        W97389  36.056  38.314  14.673
29172W        W97390  14.334  18.746  12.227
29173W        W97391   5.132  13.511  13.460
29174W        W97392  11.411   7.433  13.867
29175W        W97393   5.230  43.997  12.871
29176W        W97394  24.581  44.724   1.581
29177W        W97395   1.901  30.039  13.993
29178W        W97396   2.449  39.906   4.918
29179W        W97397  33.640  26.394   2.149
29180W        W97398  31.847  12.415  14.839
29181W        W97399  20.350  31.533  12.949
29182W        W97400  39.946  33.857   4.045
29183W        W97401   1.007  35.104  13.888
29184W        W97402   7.671  29.430  11.569
29185W        W97403   8.424  27.145  10.687
29186W        W97404  30.698  17.444   0.314
29187W        W97405  11.925   9.457   0.679
29188W        W97406  39.920   5.247   0.118
29189W        W97407   5.147  22.640   4.539
29190W        W97408   8.331  23.981   0.291
29191W        W97409  31.608  39.361  11.946
29192W        W97410  17.280  26.570  10.588
29193W        W97411  34.066  25.118  12.677
29194W        W97412  29.620  15.426  11.901
29195W        W97413  26.505   4.134   1.809
29196W        W97414  23.698  11.820   4.496
29197W        W97415  13.824   3.287   2.496
29198W        W97416  44.979  42.351  14.358
29199W        W97417  40.351  38.608  11.945
29200W        W97418   1.211  42.298  14.362
29201W        W97419  23.171  31.960  13.029
29202W        W97420   4.233  14.006  12.115
29203W        W97421   3.486  43.539   1.989
29204W        W97422   4.393  18.211   4.102
29205W        W97423  34.464  23.783  13.391
29206W        W97424   3.772  33.891  10.497
29207W        W97425  39.685  38.635   1.533
29208W        W97426  42.267  14.868   2.755
29209W        W97427  18.376  31.710   1.737
29210W        W97428  31.096   1.711  14.503
29211W        W97429  12.693  43.622  11.668
29212W        W97430   1.598   0.033   1.911
29213W        W97431  23.240  43.848   3.988
29214W        W97432   2.718  15.101  10.651
29215W        W97433   5.646   1.340  12.050
29216W        W97434  33.698  26.177  13.000
29217W        W97435  23.640  44.473   0.852
29218W        W97436   3.674   0.787   2.915
29219W        W97437  18.786  14.977  11.196
29220W        W97438  21.195  16.626  12.406
29221W        W97439  37.622  25.668   2.355
29222W        W97440  33.367  25.877   9.781
29223W        W97441   3.901  25.786  12.084
29224W        W97442  34.860  30.969  10.626
29225W        W97443  16.193  26.743   2.886
29226W        W97444   2.525  14.316  13.103
29227W        W97445  24.627  31.377   4.155
29228W        W97446  11.667   8.296   0.652
29229W        W97447   1.215   8.467  13.851
29230W        W97448  27.977  22.473   4.006
29231W        W97449  27.662  11.485  12.031
29232W        W97450   3.871  21.076  11.486
29233W        W97451  30.431  18.801   0.656
29234W        W97452  15.704  23.752  11.267
29235W        W97453  21.343  16.546  11.378
29236W        W97454   0.994  42.036   3.931
29237W        W97455  33.866  37.030   1.873
29238W        W97456  12.555  40.906  13.153
29239W        W97457  20.862  35.108  10.832
29240W        W97458   4.314  10.753   0.088
29241W        W97459  28.483  29.015   2.949
29242W        W97460  16.814  31.003   3.181
29243W        W97461  33.973  43.182  13.554
29244W        W97462  34.572  36.357  14.918
29245W        W97463  21.678  36.107   3.174
29246W        W97464  25.100  31.039   3.052
29247W        W97465   4.983   7.802   2.747
29248W        W97466  32.996  38.141  11.343
29249W        W97467   7.410  25.603  14.041
29250W        W97468  31.396  32.941   4.042
29251W        W97469  33.687  15.301  13.210
29252W        W97470  17.136   1.476   2.049
29253W        W97471  39.387  39.778   2.794
29254W        W97472  16.667  44.358  11.867
29255W        W97473  13.300  14.919  14.872
29256W        W97474   6.230  19.088  10.685
29257W        W97475  15.285   6.065   2.446
29258W        W97476  10.359   0.615  14.902
29259W        W97477   4.416   0.736  13.069
29260W        W97478  17.684  34.352  11.424
29261W        W97479   0.001   7.512  14.817
29262W        W97480  31.103  35.468  11.497
29263W        W97481  44.257  37.288  13.925
29264W        W97482   2.456  18.828  14.348
29265W        W97483  33.176  24.088   9.992
29266W        W97484  35.249   7.413  13.031
29267W        W97485   1.547  35.913   0.280
29268W        W97486  31.995  23.477  11.956
29269W        W97487   9.754  19.536   1.381
29270W        W97488   1.300  39.890   3.256
29271W        W97489  21.672  39.417  12.296
29272W        W97490   1.717   7.017   2.299
29273W        W97491  21.221   9.636   4.902
29274W        W97492  43.459   1.356  13.511
29275W        W97493  39.791  14.454  12.908
29276W        W97494  30.176   7.687   2.185
29277W        W97495  15.806  39.073  11.209
29278W        W97496  11.876  12.817   0.883
29279W        W97497  37.401  24.048  11.249
29280W        W97498  41.285  28.007  11.130
29281W        W97499  23.662  36.786   3.562
29282W        W97500   3.320  24.512   3.937
29283W        W97501  21.802  42.315  14.506
29284W        W97502  17.058  27.043   1.869
29285W        W97503  42.334  17.855  11.081
29286W        W97504  44.368  27.121  10.666
29287W        W97505  27.978  20.690  14.702
29288W        W97506  37.778  18.243   4.083
29289W        W97507  22.476   9.238  13.997
29290W        W97508  33.627  38.348  11.288
29291W        W97509  28.631  32.491  12.479
29292W        W97510   1.291  38.340   2.696
29293W        W97511  22.476  13.073  10.305
29294W        W97512   1.755  32.044   3.009
29295W        W97513   9.438  18.532  12.021
29296W        W97514  41.441  26.611  10.922
29297W        W97515  37.658  37.422   4.108
29298W        W97516   0.242  19.201  13.849
29299W        W97517  27.557  25.752   2.329
29300W        W97518  44.470   8.800   0.642
29301W        W97519   6.230  30.400   2.941
29302W        W97520   9.743  30.071  12.316
29303W        W97521  18.342  26.606   1.904
29304W        W97522  36.240  42.258  13.016
29305W        W97523  16.931   4.254  14.681
29306W        W97524  43.880  28.888   2.255
29307W        W97525  42.983  39.431  13.090
29308W        W97526   7.878  10.428   3.769
29309W        W97527   5.712  18.592   0.732
29310W        W97528  29.198  16.726  10.393
29311W        W97529   5.303  42.381  11.986
29312W        W97530  30.219  37.711   1.283
29313W        W97531  40.646  39.822   2.629
29314W        W97532   6.359  20.976   2.708
29315W        W97533  23.799  32.657   3.266
29316W        W97534   0.185  43.215  11.519
29317W        W97535  30.695  44.556  13.193
29318W        W97536  39.435  25.134   1.319
29319W        W97537   9.347  33.339  10.391
29320W        W97538  33.355  34.874   1.842
29321W        W97539  14.705  24.994  14.097
29322W        W97540  27.989  16.086   0.789
29323W        W97541  26.620  18.282   3.380
29324W        W97542  26.618  22.163   2.280
29325W        W97543  19.542  24.115  12.143
29326W        W97544  15.230  16.115  11.514
29327W        W97545   1.243   3.113   2.252
29328W        W97546  34.353   1.269  12.784
29329W        W97547   7.018   8.238  13.126
29330W        W97548   4.379   3.232   1.878
29331W        W97549  28.947  31.875   4.072
29332W        W97550  32.314  25.234   0.183
29333W        W97551  34.335  42.797   0.395
29334W        W97552  34.715  34.371  13.937
29335W        W97553  34.863   1.923   2.743
29336W        W97554  18.852  16.346  13.951
29337W        W97555   5.881  33.073  12.091
29338W        W97556   0.435  42.031   2.129
29339W        W97557   5.849   1.342   3.614
29340W        W97558  16.105  31.116   4.889
29341W        W97559  41.588  19.134   1.784
29342W        W97560  35.054  32.098  14.828
29343W        W97561  26.009  26.106   2.418
29344W        W97562  13.339  32.949  14.586
29345W        W97563  38.028  12.135  12.550
29346W        W97564  14.492  17.705   0.287
29347W        W97565  38.885  15.772  14.377
29348W        W97566   1.523  17.553   0.870
29349W        W97567  32.717  42.726   2.855
29350W        W97568  39.600  23.794   2.186
29351W        W97569  26.735  23.225   1.355
29352W        W97570  23.092   7.170  11.076
29353W        W97571  16.474  30.194  11.936
29354W        W97572   1.303  31.132   0.854
29355W        W97573  28.866  25.448  14.328
29356W        W97574  22.826   6.507  14.416
29357W        W97575   8.296  19.154   3.318
29358W        W97576  35.572  36.113  14.328
29359W        W97577  40.993  43.204  13.351
29360W        W97578  26.080  43.334   4.794
29361W        W97579  43.475   2.335  12.433
29362W        W97580  35.171  29.936  11.486
29363W        W97581  28.149  29.248   3.257
29364W        W97582  10.675  10.801   4.691
29365W        W97583   3.192  15.592  11.149
29366W        W97584  24.221  15.892   3.175
29367W        W97585   8.309  43.445   3.379
29368W        W97586  28.076   4.741   0.791
29369W        W97587   9.897  41.904   2.134
29370W        W97588   9.440  43.174  11.591
29371W        W97589   9.146   6.839   3.143
29372W        W97590  14.835   3.778   1.143
29373W        W97591   3.665  44.008  12.961
29374W        W97592   3.857   3.960  14.696
29375W        W97593  24.589  42.997   2.886
29376W        W97594  30.635  11.058  12.012
29377W        W97595   2.360  28.491   3.242
29378W        W97596  33.266  28.496   1.037
29379W        W97597  14.229  24.975  12.867
29380W        W97598  24.359   4.877   3.890
29381W        W97599  41.901  10.141  13.881
29382W        W97600   8.173  43.689   4.893
29383W        W97601   0.404   2.487   1.869
29384W        W97602  15.652  13.650  14.017
29385W        W97603  35.049  28.704   0.897
29386W        W97604  34.901   7.889  11.923
29387W        W97605  31.001  21.466   2.754
29388W        W97606  38.530  35.020  12.762
29389W        W97607  23.938  34.562   0.899
29390W        W97608  37.488  18.854  13.139
29391W        W97609  15.707  30.536   2.696
29392W        W97610  12.654   6.187  10.655
29393W        W97611  40.310  33.946   1.681
29394W        W97612  40.582  14.610  13.829
29395W        W97613  28.090   9.518   4.193
29396W        W97614  17.173   7.758  11.664
29397W        W97615  38.959  24.603  10.816
29398W        W97616  30.914  25.480  14.401
29399W        W97617  14.261  36.277   2.215
29400W        W97618  19.208  30.211   2.222
29401W        W97619   8.445  16.553  13.483
29402W        W97620  37.443   1.956  13.545
29403W        W97621  27.559  38.105   4.513
29404W        W97622  39.489  31.046   4.625
29405W        W97623  17.044  15.815  12.804
29406W        W97624  38.536   3.494   2.319
29407W        W97625   4.199  28.549  13.298
29408W        W97626   6.763  29.685  11.672
29409W        W97627  34.209  20.204   2.178
29410W        W97628  22.963  39.547   1.334
29411W        W97629   4.445  23.954  11.955
29412W        W97630  22.191  16.297   2.361
29413W        W97631  20.622  30.103  14.561
29414W        W97632  21.981  12.775  13.298
29415W        W97633  10.827  24.222   1.677
29416W        W97634   8.979  20.385  11.572
29417W        W97635  38.683   4.212  14.734
29418W        W97636  28.154  26.081  14.073
29419W        W97637  22.962   9.389  13.942
29420W        W97638  41.112  27.709  10.729
29421W        W97639  33.451   2.156   4.486
29422W        W97640  32.629  43.715   0.913
29423W        W97641  33.096  21.470  13.914
29424W        W97642  34.705  39.937  10.908
29425W        W97643  38.135  12.836   1.435
29426W        W97644   6.312  19.500  12.937
29427W        W97645  21.258  20.225  14.928
29428W        W97646  40.275  37.611  11.136
29429W        W97647  18.214  44.373  10.711
29430W        W97648   8.752  10.749   1.730
29431W        W97649   6.410  40.796  10.210
29432W        W97650  37.751  13.829   1.234
29433W        W97651  21.727  42.774  14.709
29434W        W97652  27.525  10.467  12.083
29435W        W97653  32.722  34.668   1.939
29436W        W97654  24.291  12.389  11.640
29437W        W97655  23.029  21.543  13.873
29438W        W97656  31.079  12.879   4.206
29439W        W97657   3.420  42.673   1.309
29440W        W97658  13.217  18.216   4.576
29441W        W97659  28.082  43.504  12.464
29442W        W97660  41.246  27.398   3.241
29443W        W97661  13.585   6.895   0.947
29444W        W97662  28.405  11.676  13.059
29445W        W97663  43.554  22.708   1.366
29446W        W97664   4.880  15.059   1.950
29447W        W97665  32.107  37.474  13.475
29448W        W97666  15.242  22.611  13.494
29449W        W97667   6.225  11.175   4.553
29450W        W97668  28.332  28.636  14.508
29451W        W97669   5.757  12.760  14.688
29452W        W97670   6.876  19.290  11.895
29453W        W97671  17.514  21.939  14.850
29454W        W97672  43.891   7.305  10.886
29455W        W97673  16.213  23.770   2.737
29456W        W97674  15.139  18.723  12.507
29457W        W97675  35.348   3.818   4.028
29458W        W97676  13.826  22.595  13.898
29459W        W97677  38.960  12.703  15.000
29460W        W97678   2.399  42.370   0.041
29461W        W97679  24.989   0.742  12.515
29462W        W97680  34.756   4.917  14.415
29463W        W97681  31.874   0.615  12.655
29464W        W97682  18.153  34.949   2.803
29465W        W97683  28.920  11.276   0.418
29466W        W97684  37.518  17.681  12.511
29467W        W97685  10.942  13.281   3.584
29468W        W97686  27.488  13.498  13.526
29469W        W97687  23.966   2.447   2.700
29470W        W97688  19.831   7.875   4.322
29471W        W97689  38.640  17.271   3.869
29472W        W97690  19.714  37.512   1.438
29473W        W97691   7.389  44.678   3.257
29474W        W97692   6.704   0.848  12.467
29475W        W97693  41.832  21.117  12.584
29476W        W97694   1.250  44.548   4.692
29477W        W97695   6.070  18.122  10.733
29478W        W97696  11.968  37.746   1.906
29479W        W97697   5.135  13.145   1.289
29480W        W97698  20.657  33.016   9.802
29481W        W97699  31.386  34.548  11.494
29482W        W97700  13.344  10.661   0.663
29483W        W97701  10.730  36.338  12.117
29484W        W97702   4.509  41.969  11.885
29485W        W97703  29.424  40.595   3.613
29486W        W97704  23.733   2.336   3.260
29487W        W97705  14.721  30.797  13.480
29488W        W97706   7.506   1.045   4.613
29489W        W97707  36.258  23.168  14.420
29490W        W97708  34.831  37.505   3.599
29491W        W97709  13.573   5.453  12.462
29492W        W97710  21.035  44.980  13.236
29493W        W97711  18.717  13.487  14.386
29494W        W97712  29.852  31.958   0.452
29495W        W97713  13.553  35.998   1.967
29496W        W97714   7.224  25.409  13.000
29497W        W97715   8.914  18.588  13.350
29498W        W97716  30.364  21.560  14.529
29499W        W97717   7.562   7.201   1.261
29500W        W97718   3.808  26.422  14.437
29501W        W97719  18.350  21.141   0.484
29502W        W97720  11.449   9.735   1.908
29503W        W97721  42.573  36.913  11.728
29504W        W97722  32.247  24.653   1.215
29505W        W97723   0.417   2.845   3.711
29506W        W97724  28.816   2.448  13.327
29507W        W97725  41.929  37.208   4.646
29508W        W97726   1.182  17.822   4.697
29509W        W97727  12.562   0.442  10.748
29510W        W97728  31.504   6.324   4.542
29511W        W97729  15.036  39.151   1.638
29512W        W97730   3.893  43.484  14.289
29513W        W97731  39.101  44.282   2.777
29514W        W97732  20.042   1.343  12.303
29515W        W97733  28.044  13.817  13.285
29516W        W97734   7.773  34.271   0.402
29517W        W97735  15.258  25.120   0.345
29518W        W97736   4.442  43.387   0.988
29519W        W97737  25.071  12.365   0.795
29520W        W97738  15.664  30.997   4.187
29521W        W97739   6.647  19.769   3.681
29522W        W97740  27.957   9.606   3.293
29523W        W97741  14.426  37.017   3.333
29524W        W97742   5.825  35.500  14.507
29525W        W97743  17.603  43.854   4.604
29526W        W97744   0.732  22.930  14.027
29527W        W97745   8.754  17.983   4.573
29528W        W97746  23.526   9.471  11.993
29529W        W97747  44.691   3.225   4.192
29530W        W97748   6.653  39.606  12.657
29531W        W97749  27.719  39.794   1.407
29532W        W97750  10.344  22.670   4.150
29533W        W97751  25.725   1.227   1.406
29534W        W97752  37.086  38.708   0.379
29535W        W97753  21.250   2.127   2.679
29536W        W97754  32.628  21.257  12.420
29537W        W97755  21.122  43.809  13.445
29538W        W97756  10.357  38.332  12.306
29539W        W97757  33.556  43.382   1.077
29540W        W97758   8.220  24.529   2.026
29541W        W97759   1.761   7.800  12.426
29542W        W97760  35.633  40.426  13.485
29543W        W97761  31.736  31.006   4.334
29544W        W97762  12.247  24.432   0.437
29545W        W97763  32.164  24.471  10.698
29546W        W97764  20.577   7.726  10.407
29547W        W97765   4.894  28.841  12.490
29548W        W97766   8.984  38.877   1.660
29549W        W97767   3.823   5.447   1.301
29550W        W97768  32.890  40.961   4.554
29551W        W97769  24.287  31.712  11.829
29552W        W97770  17.931  15.117   1.771
29553W        W97771   5.222  44.609  13.778
29554W        W97772  44.111  31.822   1.160
29555W        W97773  31.378  15.163   4.105
29556W        W97774  15.363  39.300   1.261
29557W        W97775   5.125  36.433  10.800
29558W        W97776   1.556   8.853  14.432
29559W        W97777  19.036  17.270  11.555
29560W        W97778  41.566  44.888  11.293
29561W        W97779   0.903  36.175   3.222
29562W        W97780  30.578   2.134  11.119
29563W        W97781  39.648  13.734   3.993
29564W        W97782   0.021  33.483  14.873
29565W        W97783  19.082  36.919  10.707
29566W        W97784  25.991  20.297   2.024
29567W        W97785  17.396   4.512  14.836
29568W        W97786   1.354  38.279  12.022
29569W        W97787  35.405   1.352   4.511
29570W        W97788  12.781   9.350  14.092
29571W        W97789  13.996   2.320  12.665
29572W        W97790  24.642  24.296   0.677
29573W        W97791   7.836  26.993   2.650
29574W        W97792  35.975  40.625   3.572
29575W        W97793  29.306  23.474   4.107
29576W        W97794  24.195  19.881   1.766
29577W        W97795  19.740   5.821   3.155
29578W        W97796  19.640  20.011   1.937
29579W        W97797  27.025  17.862  11.914
29580W        W97798   4.123  33.594   4.606
29581W        W97799  18.096   8.714  14.004
29582W        W97800   5.826  31.461   2.262
29583W        W97801  43.342  22.973  12.562
29584W        W97802  28.190   3.260   3.635
29585W        W97803  11.645  15.777  10.755
29586W        W97804  23.661   0.052  14.066
29587W        W97805   9.424   7.324   3.906
29588W        W97806  33.307   2.735  12.360
29589W        W97807  44.342  41.768  11.638
29590W        W97808  25.216  20.967  12.398
29591W        W97809  31.860  22.562  13.450
29592W        W97810   0.938  15.848  11.496
29593W        W97811  11.802  43.704  10.302
29594W        W97812   0.955   2.403  11.635
29595W        W97813  15.670  35.108   5.286
29596W        W97814  10.741  17.779   9.880
29597W        W97815  14.768  20.581  11.602
29598W        W97816  25.063  20.341  14.957
29599W        W97817  37.507  36.969  11.610
29600W        W97818  12.170  21.992   1.814
29601W        W97819  37.476   2.248   2.412
29602W        W97820  44.052   1.152  11.409
29603W        W97821  36.030  12.728  11.226
29604W        W97822  16.297  38.961  11.314
29605W        W97823  19.439  14.860  13.356
29606W        W97824   0.807  18.040   2.374
29607W        W97825  42.406  26.754   2.641
29608W        W97826   3.342   9.188   0.013
29609W        W97827  44.905  31.677   2.800
29610W        W97828  42.774  42.211   2.396
29611W        W97829   3.955  29.436  14.456
29612W        W97830   7.775   6.631   4.160
29613W        W97831  33.867  40.550   4.089
29614W        W97832  36.353  36.545  11.891
29615W        W97833   8.624  17.570   2.007
29616W        W97834   7.576  34.149  11.817
29617W        W97835  28.149  38.822  10.996
29618W        W97836  29.180  11.736  12.052
29619W        W97837   3.424  25.250   4.806
29620W        W97838  35.325  35.160  14.405
29621W        W97839   1.445  32.874   1.767
29622W        W97840  32.897  36.820   0.056
29623W        W97841  18.200  13.637  13.401
29624W        W97842   9.229   9.850   2.628
29625W        W97843  31.015   6.368   1.861
29626W        W97844   2.408   7.193  11.213
29627W        W97845  31.557   1.254   0.774
29628W        W97846  40.560  11.224  13.260
29629W        W97847  11.238  10.075   4.084
29630W        W97848  38.291  33.978   2.162
29631W        W97849  42.943  34.837  13.363
29632W        W97850  32.969  30.183  12.106
29633W        W97851  43.927  23.748  11.244
29634W        W97852  27.570   1.729   1.871
29635W        W97853   5.611  28.906   0.524
29636W        W97854  23.807   0.622   3.342
29637W        W97855   1.140  13.821  10.982
29638W        W97856   3.953  11.883   0.318
29639W        W97857   8.697  24.531   4.673
29640W        W97858  30.679  36.770   0.615
29641W        W97859   1.803  39.900   1.778
29642W        W97860  42.707  14.633  11.038
29643W        W97861  44.711   8.429   4.363
29644W        W97862  40.914   2.719   0.424
29645W        W97863  28.761  24.075  11.128
29646W        W97864   8.238   3.156   0.962
29647W        W97865   7.695  39.425  13.445
29648W        W97866   7.758  39.543   3.682
29649W        W97867  44.836  38.054  13.828
29650W        W97868  29.216  29.971   3.363
29651W        W97869  14.662  22.024  10.570
29652W        W97870   6.304  30.583  12.640
29653W        W97871  18.604   2.660   4.070
29654W        W97872  33.886  37.937   2.789
29655W        W97873  33.200  26.636   4.741
29656W        W97874   6.325  28.470   3.651
29657W        W97875  19.438  15.525  11.559
29658W        W97876  11.871  17.949   1.857
29659W        W97877  29.138  37.786  12.642
29660W        W97878  44.342  17.276  12.160
29661W        W97879   6.678   5.744   0.327
29662W        W97880  32.881  39.999   0.196
29663W        W97881  10.310  40.333   2.019
29664W        W97882  40.105  32.022   3.208
29665W        W97883  28.217   0.982   1.874
29666W        W97884  43.988  33.630  13.109
29667W        W97885  18.312  15.532   0.829
29668W        W97886  38.463  14.368  11.693
29669W        W97887   5.319  36.014  12.798
29670W        W97888  19.769  17.610   1.950
29671W        W97889  26.249  18.253  13.982
29672W        W97890  13.082   0.881   4.454
29673W        W97891   6.206   0.773  10.084
29674W        W97892  25.998  14.141   3.966
29675W        W97893  40.367  24.585  13.331
29676W        W97894   5.330  28.709  11.181
29677W        W97895  15.313  44.502  14.235
29678W        W97896  38.503  44.896  12.823
29679W        W97897  16.655   0.879   2.709
29680W        W97898  17.181   2.317  12.868
29681W        W97899  27.851  34.432  13.226
29682W        W97900  36.477  40.343  14.298
29683W        W97901  39.333  42.490  12.720
29684W        W97902  41.223  19.160  13.465
29685W        W97903  28.087  15.653  13.438
29686W        W97904  19.049  12.568  12.585
29687W        W97905   1.870  24.931  10.787
29688W        W97906  22.122  22.220  13.645
29689W        W97907   7.451   8.782  11.944
29690W        W97908  22.652  32.488  12.165
29691W        W97909  18.216  10.870   1.667
29692W        W97910  42.355   0.849   1.330
29693W        W97911  14.174  39.865   3.357
29694W        W97912  29.457  10.287   3.653
29695W        W97913   2.250  11.287  11.624
29696W        W97914  27.941   6.231  11.924
29697W        W97915  44.351  27.617  10.462
29698W        W97916  41.939  29.775  11.763
29699W        W97917  29.679  24.719   1.864
29700W        W97918  14.247   0.011   2.844
29701W        W97919   3.760  17.016  11.580
29702W        W97920  25.081  33.565   1.847
29703W        W97921  23.225  22.562   1.193
29704W        W97922  42.276  40.505  14.270
29705W        W97923   0.780  15.704  12.917
29706W        W97924  21.580   9.817  11.521
29707W        W97925  29.264   7.214   4.543
29708W        W97926  12.218  42.319   4.261
29709W        W97927  19.514  32.295   4.586
29710W        W97928  32.578  30.670  13.878
29711W        W97929  29.730  14.652   2.679
29712W        W97930  21.129  10.673   0.768
29713W        W97931   6.430   8.084  13.273
29714W        W97932   3.870  33.771   1.779
29715W        W97933   7.367   1.322  13.488
29716W        W97934   8.894   3.513  14.992
29717W        W97935  39.525  25.785   0.746
29718W        W97936  10.189  37.816  14.761
29719W        W97937  36.323  24.649  10.682
29720W        W97938  24.905   3.288   2.349
29721W        W97939  33.636  28.415  14.845
29722W        W97940   9.332   6.834  10.697
29723W        W97941  35.503   8.269   3.157
29724W        W97942  12.014   7.218  13.490
29725W        W97943   3.235  41.503  12.798
29726W        W97944   1.256   3.951   2.639
29727W        W97945  26.488  14.863   5.384
29728W        W97946   3.808  30.463   3.198
29729W        W97947   4.209  15.309   2.360
29730W        W97948  17.586  31.462   3.256
29731W        W97949   2.692  39.051  11.155
29732W        W97950  35.427  35.393   4.701
29733W        W97951   0.481  41.257   2.979
29734W        W97952  11.739   2.741  14.260
29735W        W97953  29.383  12.138   0.851
29736W        W97954   2.942  42.807   1.442
29737W        W97955  20.169   9.623  13.449
29738W        W97956  31.466  38.329   3.633
29739W        W97957  34.028   6.215  13.603
29740W        W97958  25.242  22.817  11.532
29741W        W97959  11.546  41.444   0.011
29742W        W97960  26.136  23.203   0.989
29743W        W97961  34.974  29.724   4.039
29744W        W97962   2.360  18.546   1.736
29745W        W97963  29.756  17.044  14.255
29746W        W97964  26.005  30.089  13.885
29747W        W97965  29.104  24.588   0.251
29748W        W97966   3.407   5.255  13.541
29749W        W97967  29.608   4.142   1.729
29750W        W97968   2.597   4.933  13.044
29751W        W97969  33.827  42.987   4.247
29752W        W97970  32.724   7.933  11.988
29753W        W97971  10.318  37.548  11.931
29754W        W97972  43.316  40.069   3.087
29755W        W97973  41.358  26.597   3.733
29756W        W97974  31.988   2.792  13.015
29757W        W97975   6.799  20.144  12.441
29758W        W97976  25.453  31.362   4.191
29759W        W97977  32.151  15.607  13.875
29760W        W97978  33.390  23.076  11.730
29761W        W97979  36.674  30.957   0.962
29762W        W97980  43.301  29.639   3.087
29763W        W97981  40.054  23.098   1.920
29764W        W97982   7.668  29.610  12.902
29765W        W97983   4.465  43.996  13.305
29766W        W97984  35.485  13.932   4.941
29767W        W97985   4.381  42.921   0.681
29768W        W97986  14.698   8.500   1.271
29769W        W97987  22.184  34.132  14.760
29770W        W97988  44.161  43.223  14.305
29771W        W97989  31.040  26.494  14.860
29772W        W97990  39.758  16.872   4.269
29773W        W97991  24.958  39.334  12.265
29774W        W97992  22.104  31.097   0.978
29775W        W97993  18.158  44.293  10.181
29776W        W97994  35.782  10.510  13.929
29777W        W97995   3.311  23.507   0.923
29778W        W97996  27.430  29.654  10.497
29779W        W97997  34.417   7.412  14.468
29780W        W97998  32.936  17.818  12.706
29781W        W97999  38.540  36.455  10.698
29782W        W98000  16.182   0.714  11.922
29783W        W98001  26.143   4.080  13.948
29784W        W98002  38.164  12.794   0.889
29785W        W98003  15.635  36.822  11.589
29786W        W98004  43.318   6.886  10.545
29787W        W98005  38.541  22.240   2.447
29788W        W98006  16.683  29.569   2.876
29789W        W98007   3.980  10.064  13.959
29790W        W98008  38.065   4.852   2.360
29791W        W98009  24.760  42.759   4.647
29792W        W98010  31.900  18.755  10.453
29793W        W98011  42.313   5.227  11.862
29794W        W98012  33.115  31.818  11.532
29795W        W98013  25.147  15.163  11.057
29796W        W98014  27.194  28.590  11.116
29797W        W98015  12.296  22.013   0.287
29798W        W98016  13.023  31.855  13.095
29799W        W98017   4.855  32.183  14.868
29800W        W98018  18.281  25.438  12.204
29801W        W98019  23.667  27.663  12.598
29802W        W98020  35.541  39.102  10.971
29803W        W98021  12.365  35.136  11.004
29804W        W98022   0.060  31.725  12.007
29805W        W98023  44.848  15.457  13.880
29806W        W98024  38.967  16.559   3.287
29807W        W98025  27.045  20.666  14.734
29808W        W98026   4.423   3.021  12.913
29809W        W98027  20.664  33.855   4.329
29810W        W98028  39.432  20.772   3.290
29811W        W98029  16.057  18.541  10.724
29812W        W98030  25.650   6.393   0.007
29813W        W98031  18.365  24.636   4.093
29814W        W98032  33.175  15.562   1.190
29815W        W98033  39.499  36.364   1.422
29816W        W98034  44.261   2.480   0.331
29817W        W98035  17.384  12.729   2.198
29818W        W98036  30.295  40.634   4.547
29819W        W98037  19.176  31.878  11.093
29820W        W98038  31.488  26.576  11.703
29821W        W98039  42.676  32.929  13.214
29822W        W98040   2.837  29.450   1.282
29823W        W98041  44.193  36.805   2.959
29824W        W98042   1.219  40.954  12.513
29825W        W98043  15.047  24.995   3.139
29826W        W98044  44.563  14.982   1.182
29827W        W98045  29.120  27.781  12.995
29828W        W98046   1.249   4.142   2.148
29829W        W98047  16.837  13.351   4.332
29830W        W98048  15.060   2.160   2.129
29831W        W98049  11.590  11.233  13.130
29832W        W98050  43.276  30.553   3.245
29833W        W98051   0.204  41.985  13.614
29834W        W98052  24.024  18.473   4.584
29835W        W98053  18.450   2.352  11.376
29836W        W98054  33.597   0.714  14.826
29837W        W98055  10.672  40.609  10.285
29838W        W98056   4.317  41.233  13.868
29839W        W98057   6.225  24.922   3.234
29840W        W98058  30.868   0.789  13.385
29841W        W98059  34.806  23.642  14.027
29842W        W98060  14.748  30.514   2.284
29843W        W98061  44.298   5.713   2.771
29844W        W98062  38.397  20.872   4.305
29845W        W98063  25.697  28.152  14.266
29846W        W98064  21.480  23.136   4.552
29847W        W98065  24.592  35.345  14.463
29848W        W98066  31.939  19.195  14.846
29849W        W98067  26.350  15.302  13.648
29850W        W98068   0.858   6.788  11.448
29851W        W98069  30.927  27.467  12.453
29852W        W98070   7.208  40.537   1.474
29853W        W98071  38.977  40.159  11.509
29854W        W98072  10.936  14.052   0.066
29855W        W98073   9.247  19.435   1.167
29856W        W98074  22.838   3.721  12.127
29857W        W98075  31.435  19.682  13.553
29858W        W98076  37.270  40.896  12.598
29859W        W98077   9.599  39.756  14.015
29860W        W98078  40.242   4.858   4.362
29861W        W98079   3.670  22.986  12.977
29862W        W98080   9.782  12.267   2.694
29863W        W98081  18.250  19.980  14.326
29864W        W98082  15.727  41.854  10.884
29865W        W98083  36.463  27.555  12.332
29866W        W98084  42.246  40.078  11.087
29867W        W98085  39.426  37.764   4.186
29868W        W98086  12.275  32.377   4.660
29869W        W98087  23.728  38.639  13.345
29870W        W98088   9.278  15.161  11.649
29871W        W98089  38.800  12.776  10.731
29872W        W98090   2.921   9.019  13.016
29873W        W98091  43.782   4.533  14.852
29874W        W98092  11.332  29.896   1.711
29875W        W98093  42.241  30.751   2.281
29876W        W98094  29.225  35.059   2.402
29877W        W98095  37.005  28.537   4.850
29878W        W98096  41.701   4.679  10.761
29879W        W98097  18.928   8.448   0.080
29880W        W98098  32.214  35.020   2.811
29881W        W98099  23.091  16.062   0.678
29882W        W98100  38.322  40.659  11.136
29883W        W98101  40.682  36.303   4.719
29884W        W98102   1.016  35.340   3.170
29885W        W98103  39.473  18.331  13.549
29886W        W98104   0.744  38.892   0.875
29887W        W98105  15.685  18.623   3.172
29888W        W98106  39.731   9.744   0.653
29889W        W98107  12.806  32.666   0.188
29890W        W98108  30.087  29.477   3.692
29891W        W98109  29.568  16.903  10.739
29892W        W98110  24.723  30.994  10.532
29893W        W98111   9.595  11.081  11.109
29894W        W98112   9.502   9.199  11.983
29895W        W98113   7.618   4.703  10.634
29896W        W98114  44.034  43.817   2.929
29897W        W98115  26.669  12.203  10.738
29898W        W98116  41.574  38.008   4.053
29899W        W98117   1.474  30.355   1.542
29900W        W98118  21.701  11.677   2.825
29901W        W98119  12.835   8.660   1.302
29902W        W98120  44.016  34.340  14.017
29903W        W98121   5.176  44.721   1.457
29904W        W98122  23.589  28.129   1.442
29905W        W98123  41.354  22.842   4.537
29906W        W98124  10.082  21.738  12.086
29907W        W98125   7.887  41.471   4.024
29908W        W98126  36.939  15.522  14.557
29909W        W98127  22.541   2.337  14.916
29910W        W98128  38.889   6.766  14.786
29911W        W98129  42.545  15.700   4.609
29912W        W98130  24.764   7.117  13.034
29913W        W98131  11.305  34.889   1.230
29914W        W98132  34.403  44.129  10.454
29915W        W98133  35.426  31.392  12.113
29916W        W98134  29.879   3.666   4.082
29917W        W98135  31.176  11.213   1.891
29918W        W98136  43.293  26.139  11.173
29919W        W98137  29.401   7.313  13.398
29920W        W98138  38.097  28.452  11.154
29921W        W98139  38.556   6.796  10.435
29922W        W98140  35.378  16.138  11.463
29923W        W98141   6.798  31.483   4.784
29924W        W98142  32.479  28.108  13.296
29925W        W98143  30.361  32.083   0.467
29926W        W98144  41.823  40.343  14.021
29927W        W98145  42.956  15.318   3.315
29928W        W98146   2.765  38.364   4.145
29929W        W98147  43.787  35.468   3.123
29930W        W98148  10.897  20.797   2.268
29931W        W98149  44.689  40.827  12.467
29932W        W98150  37.617  15.147  11.009
29933W        W98151  33.062  22.734  13.330
29934W        W98152  12.749  29.663   1.130
29935W        W98153  30.767  33.867  10.537
29936W        W98154  15.769   9.842   4.924
29937W        W98155   0.714  29.935   0.231
29938W        W98156   6.111  12.839  12.482
29939W        W98157  42.967  11.148  11.141
29940W        W98158  27.157   1.501   3.265
29941W        W98159  15.509  31.181   3.679
29942W        W98160   1.148  36.069   2.679
29943W        W98161  34.997   6.015   3.850
29944W        W98162  38.901   1.113   3.277
29945W        W98163   1.982   1.252  11.626
29946W        W98164   9.077  42.220   1.940
29947W        W98165  20.119  32.025  12.881
29948W        W98166  21.020   8.828  13.881
29949W        W98167  15.373   8.263  13.200
29950W        W98168  21.532  20.053  14.511
29951W        W98169  41.537  22.012   4.605
29952W        W98170   9.689  10.647   0.278
29953W        W98171   4.148   7.719  12.895
29954W        W98172   5.935  29.878  12.231
29955W        W98173   1.509  26.649  10.538
29956W        W98174  22.720  14.293  12.935
29957W        W98175  32.131   5.706   3.754
29958W        W98176  26.472  40.319   0.251
29959W        W98177  21.240  12.339   1.310
29960W        W98178  11.439  37.559   4.162
29961W        W98179  34.972  38.047   0.723
29962W        W98180  27.955  39.376   3.972
29963W        W98181   2.814  27.612  13.269
29964W        W98182   9.385   9.980   0.738
29965W        W98183   7.227  15.066  12.259
29966W        W98184  37.785  24.109  14.926
29967W        W98185  29.965  10.691   2.328
29968W        W98186  38.527  32.010  13.708
29969W        W98187  17.219   9.245  11.895
29970W        W98188  25.865  15.265  13.934
29971W        W98189   8.318  29.401   2.685
29972W        W98190   4.943   3.116  14.252
29973W        W98191   5.593  40.301  13.876
29974W        W98192  42.011  38.053  14.747
29975W        W98193  20.020   8.388  12.891
29976W        W98194   7.903  16.644   4.306
29977W        W98195  29.494  20.673   1.738
29978W        W98196   3.010  11.333  12.177
29979W        W98197  27.210  19.361   2.411
29980W        W98198  18.864  32.679  14.036
29981W        W98199  43.529  15.508  10.731
29982W        W98200   7.943  15.774   1.277
29983W        W98201  14.840   7.217  12.962
29984W        W98202  14.011  23.980   2.245
29985W        W98203   5.831   4.831   3.413
29986W        W98204  38.577  39.708  11.324
29987W        W98205   4.456  42.125   0.776
29988W        W98206  39.437  44.884  14.349
29989W        W98207  42.478   4.460  14.736
29990W        W98208  35.864   1.733   2.896
29991W        W98209  38.369  39.786   3.732
29992W        W98210  28.031  34.136  10.892
29993W        W98211  26.454  19.574  10.745
29994W        W98212  34.975  42.765   2.569
29995W        W98213  21.125  25.183   2.692
29996W        W98214  44.460  36.357   3.206
29997W        W98215  28.503  38.461   0.581
29998W        W98216  44.180  41.516   2.361
29999W        W98217  38.057   7.410   0.452
30000W        W98218  29.978   4.226   0.338
30001W        W98219  17.764  33.072  11.080
30002W        W98220  19.286  38.475   0.971
30003W        W98221   3.959  22.699   1.840
30004W        W98222  22.124  32.798   3.187
30005W        W98223  42.827  38.602   3.460
30006W        W98224  12.403  36.033  12.529
30007W        W98225  15.789   2.926  12.962
30008W        W98226  18.122   6.003  10.712
30009W        W98227  20.304   2.530   1.770
30010W        W98228   4.854  15.669   3.960
30011W        W98229  33.136  15.648  14.778
30012W        W98230  26.892  16.272   3.129
30013W        W98231  13.648   8.327   2.814
30014W        W98232  38.796  40.278   4.320
30015W        W98233  26.395  20.715  11.698
30016W        W98234  38.123  11.796  11.241
30017W        W98235  12.922  32.046   2.156
30018W        W98236  23.744  17.429  12.023
30019W        W98237  18.438   8.384   0.032
30020W        W98238  43.674  21.517   1.773
30021W        W98239   1.484  26.579   3.755
30022W        W98240  42.618   7.325  12.886
30023W        W98241  31.167  32.838   3.396
30024W        W98242   5.637  10.647  11.616
30025W        W98243  11.229   4.942   3.088
30026W        W98244  21.313  38.102   2.732
30027W        W98245  19.627  27.557  11.220
30028W        W98246   3.792   9.292  14.717
30029W        W98247  21.692  32.137   5.496
30030W        W98248  18.729   9.281   1.052
30031W        W98249  24.951  21.187   2.841
30032W        W98250  26.783  11.793   3.258
30033W        W98251  17.288  20.503   0.934
30034W        W98252  12.738  30.979  10.835
30035W        W98253  30.481   2.848   1.141
30036W        W98254  13.653   3.889   1.455
30037W        W98255  33.912  38.832   1.606
30038W        W98256   8.297  30.877   1.863
30039W        W98257  13.719   0.932   3.589
30040W        W98258  43.856  31.155  11.027
30041W        W98259  29.334   1.137   2.357
30042W        W98260  27.671  24.668   2.541
30043W        W98261   4.453   7.216  14.842
30044W        W98262  39.377   5.997   1.238
30045W        W98263  28.859  11.701  13.999
30046W        W98264  15.747   0.355   1.686
30047W        W98265  36.589  23.407  14.730
30048W        W98266  34.965  25.243   4.158
30049W        W98267  12.244  31.180   1.432
30050W        W98268  39.916  41.783  14.396
30051W        W98269  15.110  31.577  11.014
30052W        W98270   9.284   2.256   0.941
30053W        W98271  35.612  17.081   3.236
30054W        W98272  22.298  14.809  11.782
30055W        W98273  21.479  37.047   4.082
30056W        W98274  12.071   1.512   2.903
30057W        W98275  39.855   6.883   3.355
30058W        W98276   3.897  44.356  13.851
30059W        W98277  13.630  17.466  11.906
30060W        W98278  40.886  15.882  11.537
30061W        W98279   4.449  12.311  11.350
30062W        W98280   3.930  32.457  13.424
30063W        W98281  44.817  35.899   2.158
30064W        W98282  17.593  41.862  12.451
30065W        W98283   8.788  32.099   2.240
30066W        W98284  34.719  12.265  14.165
30067W        W98285  16.855   3.295   4.403
30068W        W98286  18.662  29.873  11.700
30069W        W98287  22.700  27.134  13.082
30070W        W98288  41.416  21.253   3.824
30071W        W98289  16.553  22.633   3.954
30072W        W98290   8.229  14.254   4.249
30073W        W98291  36.249  34.215   4.263
30074W        W98292  12.234  40.082  14.514
30075W        W98293  44.004  34.649   2.104
30076W        W98294  33.323  30.327  13.158
30077W        W98295  14.357   5.885  11.540
30078W        W98296  39.840   7.212   2.797
30079W        W98297  41.338  32.881  14.799
30080W        W98298   8.943  44.215  12.812
30081W        W98299   4.314  41.434   1.771
30082W        W98300   6.778  16.435  11.953
30083W        W98301  41.476  32.979   1.381
30084W        W98302  34.988   4.314  13.733
30085W        W98303  24.073  14.103  13.521
30086W        W98304   8.922  11.900   0.937
30087W        W98305  22.060  17.728   4.179
30088W        W98306   3.965   2.242  12.310
30089W        W98307   6.747   4.225   2.263
30090W        W98308  16.984  20.075   3.611
30091W        W98309  40.089  20.011  13.426
30092W        W98310  34.736  25.003  14.824
30093W        W98311   3.361  37.573   4.102
30094W        W98312   5.247   7.391   3.201
30095W        W98313   3.765  13.131  10.948
30096W        W98314  32.098   9.413  12.290
30097W        W98315  18.129  29.891  11.065
30098W        W98316  21.757  28.943   3.752
30099W        W98317  19.528  41.772   1.010
30100W        W98318  22.463   8.742  14.413
30101W        W98319  44.738   7.965   0.081
30102W        W98320  13.843   4.746   0.943
30103W        W98321  30.310  38.569   3.299
30104W        W98322  13.540  14.217   2.364
30105W        W98323  39.366  34.433  13.855
30106W        W98324  26.611   3.734  12.454
30107W        W98325   4.301  42.452   5.013
30108W        W98326  28.466  10.763   4.695
30109W        W98327   8.300   5.891   1.882
30110W        W98328   5.266  41.009  13.613
30111W        W98329  44.006   1.753  10.761
30112W        W98330  33.330  28.831  11.146
30113W        W98331  31.915  44.481   1.486
30114W        W98332   5.190  10.522  13.870
30115W        W98333  35.018  39.971  13.828
30116W        W98334  17.692   1.830  14.862
30117W        W98335  27.974  33.183   3.143
30118W        W98336  14.599   9.934  10.482
30119W        W98337  36.004  40.225  10.425
30120W        W98338   3.326  38.763  12.464
30121W        W98339  29.835  32.614   0.938
30122W        W98340  14.061   3.777   4.170
30123W        W98341   3.857  22.552  14.299
30124W        W98342   0.967  43.449  10.577
30125W        W98343  43.958  23.083   0.763
30126W        W98344  29.117   0.746   0.961
30127W        W98345  37.873  38.799   3.115
30128W        W98346   0.126  43.358  13.476
30129W        W98347  23.147  37.983   4.633
30130W        W98348  29.873  23.944  14.975
30131W        W98349  16.850  27.588  12.127
30132W        W98350  11.902  18.667   2.729
30133W        W98351  15.835  32.461  10.602
30134W        W98352  25.158  40.450   2.356
30135W        W98353  32.588  44.527  13.003
30136W        W98354  21.080  42.051  11.177
30137W        W98355   4.941  33.475  10.667
30138W        W98356  13.253  16.708  12.608
30139W        W98357   3.214  41.433  13.303
30140W        W98358  43.198  44.829  10.826
30141W        W98359   7.366  37.918  11.985
30142W        W98360  38.596   5.945  14.474
30143W        W98361   9.794  38.631   0.097
30144W        W98362  36.138  43.962   1.022
30145W        W98363  24.501  13.867   4.908
30146W        W98364   1.507  14.691   4.631
30147W        W98365  19.079  34.114  12.737
30148W        W98366   6.886  39.453  13.687
30149W        W98367  11.944  43.169  13.256
30150W        W98368  14.059  12.223  12.035
30151W        W98369   8.448  23.737   1.305
30152W        W98370  11.659   1.755  14.310
30153W        W98371  27.166  12.419   4.474
30154W        W98372  27.075  14.532  12.871
30155W        W98373  38.127  37.356   3.840
30156W        W98374  17.833  31.914   3.242
30157W        W98375  32.665   8.066   3.046
30158W        W98376  16.000  24.217  10.242
30159W        W98377  32.405  24.920   5.126
30160W        W98378  27.647   6.623  12.797
30161W        W98379  21.188  37.538  13.064
30162W        W98380  17.323  18.544  14.938
30163W        W98381  21.719  40.710  10.696
30164W        W98382  31.194  27.443   4.665
30165W        W98383   2.986  28.441   1.314
30166W        W98384  39.604  16.125  11.655
30167W        W98385  11.714  14.815  13.241
30168W        W98386  28.155  26.023   1.575
30169W        W98387   0.314   2.259   1.350
30170W        W98388  17.943  16.123  13.818
30171W        W98389   6.102  23.447  12.577
30172W        W98390  39.372  32.309  11.094
30173W        W98391  42.468  34.764   4.598
30174W        W98392  30.614  44.237  10.837
30175W        W98393  24.765  30.372   4.600
30176W        W98394  18.582  36.953  11.566
30177W        W98395   8.837  32.658   0.900
30178W        W98396  28.792  23.739   5.529
30179W        W98397  35.208  35.686   5.049
30180W        W98398   0.224  34.923   3.228
30181W        W98399  30.218  27.566   4.564
30182W        W98400   9.330  27.662  13.815
30183W        W98401   5.011  42.747   9.843
30184W        W98402  27.514  12.089   1.914
30185W        W98403  34.422  35.352  11.980
30186W        W98404  38.845   1.799   4.400
30187W        W98405   7.331  23.026   3.193
30188W        W98406  29.502  26.527   4.631
30189W        W98407  30.391  15.514   0.512
30190W        W98408   8.926  11.203  12.409
30191W        W98409  33.879  10.082  11.559
30192W        W98410  16.500  33.589   2.970
30193W        W98411   8.471   9.904   1.253
30194W        W98412  40.574  17.628   1.753
30195W        W98413   4.717   4.518  12.902
30196W        W98414  16.688  31.392  14.934
30197W        W98415  40.434  43.742  14.885
30198W        W98416  31.931  38.838   4.129
30199W        W98417   4.926  19.277  11.015
30200W        W98418  19.230  11.340  13.612
30201W        W98419  42.584  15.797   2.841
30202W        W98420  32.214  28.345  14.784
30203W        W98421  12.251  14.335  12.024
30204W        W98422   6.697  41.285   4.112
30205W        W98423  40.310   3.785   0.801
30206W        W98424  29.963  28.480  14.981
30207W        W98425  38.019   4.856   4.585
30208W        W98426   4.447  34.507   2.700
30209W        W98427  44.275  13.117   1.520
30210W        W98428  25.618  37.948   3.381
30211W        W98429   1.062  44.983   2.233
30212W        W98430  21.241   5.984   3.685
30213W        W98431  28.207  32.559   2.977
30214W        W98432  25.695  35.655   2.164
30215W        W98433  18.110  29.689   2.120
30216W        W98434  41.617  17.327  13.854
30217W        W98435   1.774  21.415  14.349
30218W        W98436  19.668  23.169   4.333
30219W        W98437  29.046  28.524   1.857
30220W        W98438   2.226  30.595  14.235
30221W        W98439  25.765  38.475  12.318
30222W        W98440  12.318  28.110   3.780
30223W        W98441  37.606   0.352  10.847
30224W        W98442   3.326  23.221   1.414
30225W        W98443  32.048  25.140  13.942
30226W        W98444  40.353  17.334   0.166
30227W        W98445  12.297   8.753   1.215
30228W        W98446   2.942  20.191   4.119
30229W        W98447  36.172  33.006   2.296
30230W        W98448  43.092  23.970   2.356
30231W        W98449  44.715   8.871   4.677
30232W        W98450  16.680  10.035  12.040
30233W        W98451   5.889  26.175   2.923
30234W        W98452   8.836   8.707  14.417
30235W        W98453  29.405   1.167   5.139
30236W        W98454  43.544   2.648  11.642
30237W        W98455  11.550  39.526   0.350
30238W        W98456  39.316  15.694  11.621
30239W        W98457  39.615  30.570  12.834
30240W        W98458  36.364  20.690   3.743
30241W        W98459  40.114  14.113   2.305
30242W        W98460  24.165  10.939  14.666
30243W        W98461  35.397  11.538   0.342
30244W        W98462   1.895  20.722   3.641
30245W        W98463  18.544  28.992  11.204
30246W        W98464  44.405  16.076  10.714
30247W        W98465  42.340  20.503  12.127
30248W        W98466  29.911  44.847  13.114
30249W        W98467  21.099  31.681  11.149
30250W        W98468  16.652  36.119  12.545
30251W        W98469  23.150  43.530   4.745
30252W        W98470  35.538   7.230   4.104
30253W        W98471  39.222  42.121   1.930
30254W        W98472   8.953  33.426   4.062
30255W        W98473   7.764  33.212  11.818
30256W        W98474  31.640   6.691   2.414
30257W        W98475  34.614  26.651   0.262
30258W        W98476  28.060  39.188  13.333
30259W        W98477  17.102  21.014  11.001
30260W        W98478  23.592   7.926   3.999
30261W        W98479  23.536   6.429  12.438
30262W        W98480  16.547  10.389  11.647
30263W        W98481   9.163  29.206  11.074
30264W        W98482  43.095   1.771  11.632
30265W        W98483   7.394  14.605  10.257
30266W        W98484  28.262  34.407  10.488
30267W        W98485  16.349  11.701   0.750
30268W        W98486   1.007  43.372  11.079
30269W        W98487   5.442  40.770   9.840
30270W        W98488  34.894  16.871  13.512
30271W        W98489   3.448   4.326   4.124
30272W        W98490  34.106  30.816  13.516
30273W        W98491  19.680   8.400  13.474
30274W        W98492  33.705  26.760   4.847
30275W        W98493  31.666   6.149   2.387
30276W        W98494  33.948  42.549   3.288
30277W        W98495  23.642  19.810  11.110
30278W        W98496  14.144  10.670  12.491
30279W        W98497  32.159  19.818  11.628
30280W        W98498  11.900  18.750  13.428
30281W        W98499   5.090   7.413   2.415
30282W        W98500  21.103  14.080  14.569
30283W        W98501  25.024  27.129  14.900
30284W        W98502   4.677  43.325   3.211
30285W        W98503  27.527  25.644   0.044
30286W        W98504   7.917  37.226   1.383
30287W        W98505   9.564  43.057  12.094
30288W        W98506  43.074  19.691   0.315
30289W        W98507  24.673  32.957   3.179
30290W        W98508  29.502  19.141   2.450
30291W        W98509  30.594  21.491  12.531
30292W        W98510   1.468   9.151   2.706
30293W        W98511  29.878  31.015  13.484
30294W        W98512  23.703  37.368   1.805
30295W        W98513  16.243  22.491   4.693
30296W        W98514  25.379   1.609  11.937
30297W        W98515  23.769  17.016  11.247
30298W        W98516  39.833  22.236   1.832
30299W        W98517  30.788  14.906  13.399
30300W        W98518  19.165  29.095  11.823
30301W        W98519  16.362   7.171   4.168
30302W        W98520  10.381  15.964   3.116
30303W        W98521  31.507  40.210   1.902
30304W        W98522  21.496  27.171  12.142
30305W        W98523   7.877  12.307   4.186
30306W        W98524  40.011  14.280  13.392
30307W        W98525   8.659  25.742  11.732
30308W        W98526  43.033   2.881  14.497
30309W        W98527  22.662  10.418   3.370
30310W        W98528  19.682  12.316   0.432
30311W        W98529  26.250  22.562  13.284
30312W        W98530   2.416  34.918   1.368
30313W        W98531  15.691  19.177   1.045
30314W        W98532  41.354  32.013   4.253
30315W        W98533  14.270   0.489   1.856
30316W        W98534  13.532  23.994   4.478
30317W        W98535  30.057  21.207   2.122
30318W        W98536  22.776  38.253   2.287
30319W        W98537  38.457  43.503   2.577
30320W        W98538  39.521  26.919   3.806
30321W        W98539   5.249  35.815   1.322
30322W        W98540  25.433   5.655  11.250
30323W        W98541   6.734   2.707  11.988
30324W        W98542   4.125  35.631   4.753
30325W        W98543  37.480  35.394   4.607
30326W        W98544   0.367  39.509   2.174
30327W        W98545  43.896  40.201   2.262
30328W        W98546  10.626  37.087  12.138
30329W        W98547  13.817  20.995  11.484
30330W        W98548  10.365   5.861   9.947
30331W        W98549  18.051  30.090  13.836
30332W        W98550  39.390   8.930   1.748
30333W        W98551  22.762  41.638   2.102
30334W        W98552  22.582  25.875   3.548
30335W        W98553  31.534  12.704   2.903
30336W        W98554  12.604  26.030  14.027
30337W        W98555  18.376   7.400  11.492
30338W        W98556   7.748  23.252   0.202
30339W        W98557  34.060  41.887  14.636
30340W        W98558  37.461  22.296   3.316
30341W        W98559  20.464  36.349  13.991
30342W        W98560  17.068  10.804   1.879
30343W        W98561  27.893   1.675  12.655
30344W        W98562   1.980  20.577  12.235
30345W        W98563  17.039  40.895  13.899
30346W        W98564   1.533  33.299   3.212
30347W        W98565   1.884   7.268   4.031
30348W        W98566  32.350   0.069  13.025
30349W        W98567   6.372  23.152  14.281
30350W        W98568  23.767   8.650   0.240
30351W        W98569  36.643  14.257  11.275
30352W        W98570  13.088  17.535   1.916
30353W        W98571   5.622  22.857   4.597
30354W        W98572  20.265   9.153  12.500
30355W        W98573  41.987  23.996  12.023
30356W        W98574   7.893  31.213  14.234
30357W        W98575  37.679  42.589  12.785
30358W        W98576  25.465  27.551   4.756
30359W        W98577   7.670  12.329   3.717
30360W        W98578  21.509  20.721   4.794
30361W        W98579  35.642  21.692  10.704
30362W        W98580  24.703  14.838   4.057
30363W        W98581  24.711  32.024   0.936
30364W        W98582  31.092  12.772   3.182
30365W        W98583  43.316  29.255   4.288
30366W        W98584  13.111   0.620  13.788
30367W        W98585  43.925  19.574  13.996
30368W        W98586  22.595   3.177   1.120
30369W        W98587  31.563  16.634  13.371
30370W        W98588  20.844   3.248   1.783
30371W        W98589   7.387   1.329   2.160
30372W        W98590  22.503  24.645  13.992
30373W        W98591   6.512  33.108  14.473
30374W        W98592  19.601   5.227  14.842
30375W        W98593  39.368  38.329   0.066
30376W        W98594  26.277  13.508   3.243
30377W        W98595   3.043   1.706   0.486
30378W        W98596   2.273  19.791   2.419
30379W        W98597   3.840  38.738  12.671
30380W        W98598   1.121   7.629   4.173
30381W        W98599  14.410  21.462  13.712
30382W        W98600   9.319  32.823   2.277
30383W        W98601  12.371  22.953   4.753
30384W        W98602   1.730   5.060  12.612
30385W        W98603  25.154  22.533  12.856
30386W        W98604   3.171  12.409   0.321
30387W        W98605  38.836  26.418   1.587
30388W        W98606  24.094  30.525  10.788
30389W        W98607  13.279  13.289   2.252
30390W        W98608   4.331   8.901  10.691
30391W        W98609  41.764  15.178   2.806
30392W        W98610  11.305   0.181   3.462
30393W        W98611  36.826  38.316   1.760
30394W        W98612  37.376  28.923  11.685
30395W        W98613  16.234  44.062  11.654
30396W        W98614  27.247  13.137   4.518
30397W        W98615  33.018  34.574  13.399
30398W        W98616  12.841  26.404   0.902
30399W        W98617  42.306   0.188   4.554
30400W        W98618   6.310  29.592  12.566
30401W        W98619   3.054  16.936  12.683
30402W        W98620  17.774  14.802  13.512
30403W        W98621  42.201  32.498  13.390
30404W        W98622   7.109  31.205   4.348
30405W        W98623  36.838   2.222  10.879
30406W        W98624  29.620  42.998  12.798
30407W        W98625  42.004   0.917  14.924
30408W        W98626  17.997  35.068   3.776
30409W        W98627  41.531  25.266   0.296
30410W        W98628  26.528  36.362  14.962
30411W        W98629   1.804  32.716  12.972
30412W        W98630   6.146  15.536  12.851
30413W        W98631  27.668  20.601   2.466
30414W        W98632  10.420   3.107  14.464
30415W        W98633   3.503   0.561  12.111
30416W        W98634  28.001  13.370  12.632
30417W        W98635  32.297  16.053  11.102
30418W        W98636  15.305   5.412  10.419
30419W        W98637  12.666  29.854   4.636
30420W        W98638  22.125  26.459   3.290
30421W        W98639  13.067  15.716  14.427
30422W        W98640  38.500  26.488  10.965
30423W        W98641  15.989  32.110   0.315
30424W        W98642  33.150   1.918  12.392
30425W        W98643  18.358  39.305   2.277
30426W        W98644  32.239  41.224  13.773
30427W        W98645  29.158  36.304   4.829
30428W        W98646  43.843   4.033  14.770
30429W        W98647  16.613  20.212   2.596
30430W        W98648   5.487   7.442  12.006
30431W        W98649   2.659   2.290  14.392
30432W        W98650  24.161  24.668  11.062
30433W        W98651  39.829  35.361  10.519
30434W        W98652   3.211  10.757   4.446
30435W        W98653  34.121  35.931   1.468
30436W        W98654  32.910   4.949  10.761
30437W        W98655  25.902  13.621   0.910
30438W        W98656  24.932  36.148  13.420
30439W        W98657  34.409  38.033  11.604
30440W        W98658  44.927  13.813  12.385
30441W        W98659  12.409  19.011   0.158
30442W        W98660  43.825  41.976   1.636
30443W        W98661   0.941  21.283   2.692
30444W        W98662   3.362  19.348  10.515
30445W        W98663  32.559  27.710   0.092
30446W        W98664  14.574  33.018  13.145
30447W        W98665  23.779  32.610  14.699
30448W        W98666   9.848  30.975  10.500
30449W        W98667  37.263  14.036   0.919
30450W        W98668  18.678  24.628   4.786
30451W        W98669  38.987  22.265  14.226
30452W        W98670  19.516  26.372  13.340
30453W        W98671  12.870   9.626   0.424
30454W        W98672  40.787  24.263  12.936
30455W        W98673  37.962  26.888  13.778
30456W        W98674  12.750   6.746  11.248
30457W        W98675  36.413  40.869   0.032
30458W        W98676  16.590  34.115   2.297
30459W        W98677  35.912  28.955  12.906
30460W        W98678   1.937  25.460  10.726
30461W        W98679  11.856  35.618  10.620
30462W        W98680  37.345  20.333   1.869
30463W        W98681  34.762  33.147  12.499
30464W        W98682  30.159  29.615  14.321
30465W        W98683  36.480  25.309   0.334
30466W        W98684  39.279   9.705   3.192
30467W        W98685  14.415  41.881   4.595
30468W        W98686  31.240  29.415   3.325
30469W        W98687  26.219  37.799  11.885
30470W        W98688   5.412   3.432  14.519
30471W        W98689   8.365  17.617   0.830
30472W        W98690   6.975  42.633   2.734
30473W        W98691  41.334  12.363   1.211
30474W        W98692  23.239  16.104  14.797
30475W        W98693  32.997  40.999   0.043
30476W        W98694  32.819  21.763  11.774
30477W        W98695  40.972  42.273  12.100
30478W        W98696   4.723  31.062   1.861
30479W        W98697  21.845  23.626   1.827
30480W        W98698  37.621   6.483  13.614
30481W        W98699  10.695   8.000  11.502
30482W        W98700   8.348  15.251   4.980
30483W        W98701  34.020  16.279   1.667
30484W        W98702  33.498  24.556  13.897
30485W        W98703  18.460  37.104   2.350
30486W        W98704  19.039  35.828  12.487
30487W        W98705  12.852  28.958   0.889
30488W        W98706  30.399   0.979  13.610
30489W        W98707  13.363   3.097   3.847
30490W        W98708  43.785  44.484  14.825
30491W        W98709  34.817  19.220   1.805
30492W        W98710  22.880   6.446   1.807
30493W        W98711  44.986  17.625   3.202
30494W        W98712  24.958  42.453   1.387
30495W        W98713  19.128  11.663   0.430
30496W        W98714  37.619  15.211  13.420
30497W        W98715  23.309  43.666   3.121
30498W        W98716  35.689  42.767   2.180
30499W        W98717  23.053  20.654  10.869
30500W        W98718  39.096  15.093  11.377
30501W        W98719   5.444   4.786  14.814
30502W        W98720  43.205  24.426  12.951
30503W        W98721  34.108   0.488   3.634
30504W        W98722   9.324   4.841   4.321
30505W        W98723  11.741  12.119   3.746
30506W        W98724  15.271  42.377   3.186
30507W        W98725  23.543  41.488  13.096
30508W        W98726  20.651  25.986   3.774
30509W        W98727  39.854  20.461  11.673
30510W        W98728  39.580   1.322   2.742
30511W        W98729  14.737  39.912  10.650
30512W        W98730  35.696   8.202   4.027
30513W        W98731  30.032   3.904  14.916
30514W        W98732   1.562  10.279  11.909
30515W        W98733  23.847  29.261  13.950
30516W        W98734   7.461  44.445  13.077
30517W        W98735  26.849  21.821  14.656
30518W        W98736  20.839   0.228   3.569
30519W        W98737  26.043   3.226  11.583
30520W        W98738  20.092  30.004  14.326
30521W        W98739  32.658   1.190   0.035
30522W        W98740  27.401  27.230   4.118
30523W        W98741  37.689  34.927  12.465
30524W        W98742   5.722  17.290  11.448
30525W        W98743  21.827  24.020   0.010
30526W        W98744  21.637   9.543  13.973
30527W        W98745   9.127   0.447   0.341
30528W        W98746  27.039  12.300   1.008
30529W        W98747  41.299  30.514  10.744
30530W        W98748  12.296  13.177   2.170
30531W        W98749  28.790  27.232   3.689
30532W        W98750  29.452   4.262  13.743
30533W        W98751  29.760  33.352  14.045
30534W        W98752  12.627  43.840   3.154
30535W        W98753  43.109  36.365   2.832
30536W        W98754  10.814   8.867   1.821
30537W        W98755  35.181  39.772  10.853
30538W        W98756  26.141  42.631  14.494
30539W        W98757  34.424   0.019   1.661
30540W        W98758  32.459  40.697  14.911
30541W        W98759   0.747   3.413  13.401
30542W        W98760   4.501  36.876   3.132
30543W        W98761  37.580  21.794  14.359
30544W        W98762  43.253   4.365   1.355
30545W        W98763   0.327  21.543  10.629
30546W        W98764  27.458  35.145  13.605
30547W        W98765  21.692  41.323  12.588
30548W        W98766  25.164  31.908  12.491
30549W        W98767  38.679   9.793  12.951
30550W        W98768  32.403  42.424   3.789
30551W        W98769  29.002  23.987   0.958
30552W        W98770  43.247  39.520   2.349
30553W        W98771  22.937   7.311  12.537
30554W        W98772  15.155  13.729  10.676
30555W        W98773  32.442   4.693   1.238
30556W        W98774  20.972   0.177   2.633
30557W        W98775  30.684  37.329  13.393
30558W        W98776  44.353  27.764   0.576
30559W        W98777   0.648  23.714   2.994
30560W        W98778  15.154  20.679   0.503
30561W        W98779  15.589  31.066  13.032
30562W        W98780  26.166  44.354   2.629
30563W        W98781  24.003  42.981  14.970
30564W        W98782  25.637  41.879   1.672
30565W        W98783  21.051  35.051   4.203
30566W        W98784  43.336   4.135   2.746
30567W        W98785  18.591  18.170  12.065
30568W        W98786   7.697  18.604   2.327
30569W        W98787   6.713  16.507   2.329
30570W        W98788  36.026   8.364   0.238
30571W        W98789   7.137  20.164  12.927
30572W        W98790  23.062   5.001  12.540
30573W        W98791  19.270  30.402  13.035
30574W        W98792   7.836   5.032   2.542
30575W        W98793  41.802  16.347   3.606
30576W        W98794  37.049  26.863  11.018
30577W        W98795  16.332  32.587   0.475
30578W        W98796  40.246  35.207   4.222
30579W        W98797  28.397  40.003  13.407
30580W        W98798  41.119  25.518   0.446
30581W        W98799  11.642   9.228  13.422
30582W        W98800  10.805  19.801  10.976
30583W        W98801  29.717  16.569  11.116
30584W        W98802   3.065   7.829  10.842
30585W        W98803  34.735  34.474   4.227
30586W        W98804  15.144   4.886   1.852
30587W        W98805   6.722  23.478  10.777
30588W        W98806  20.325  37.849  11.615
30589W        W98807  20.983  17.727   1.116
30590W        W98808   1.295   0.177  10.969
30591W        W98809  29.839   7.776   2.927
30592W        W98810   8.629  33.376  12.379
30593W        W98811  24.512   4.904  14.998
30594W        W98812  25.994  19.517  11.006
30595W        W98813  28.075  40.038  10.735
30596W        W98814  11.393  22.606   2.179
30597W        W98815  21.599  34.569  11.842
30598W        W98816  28.397   5.327  14.722
30599W        W98817   6.711  37.693   0.887
30600W        W98818   5.954  26.417   1.773
30601W        W98819   9.866  13.592  12.422
30602W        W98820  44.978  18.292  14.791
30603W        W98821   4.914  26.895  14.395
30604W        W98822   5.789  39.422   5.062
30605W        W98823  40.008   5.496   3.584
30606W        W98824  44.751  42.535  11.832
30607W        W98825  32.356  35.030   1.912
30608W        W98826  36.501  35.858   1.893
30609W        W98827   7.534  27.018  12.188
30610W        W98828  36.339   4.199   2.202
30611W        W98829   9.550  36.333  13.513
30612W        W98830   4.835  16.354   3.201
30613W        W98831  31.849  18.536   3.238
30614W        W98832  10.153  44.446  14.873
30615W        W98833   2.711   2.031   4.605
30616W        W98834  34.679  29.967  14.841
30617W        W98835  41.115  39.011   3.689
30618W        W98836  21.610  23.506   0.463
30619W        W98837  39.038   5.275   5.067
30620W        W98838  29.067  18.249  14.991
30621W        W98839   8.869   9.950   0.786
30622W        W98840  18.212  44.165   4.925
30623W        W98841   8.417  28.004  14.776
30624W        W98842  11.011   2.281  14.008
30625W        W98843  33.513  25.666  10.753
30626W        W98844  40.327   5.223  14.375
30627W        W98845  30.901  42.006  14.780
30628W        W98846  10.280  37.825   4.589
30629W        W98847   7.191  34.188  11.472
30630W        W98848  18.337  41.302   1.354
30631W        W98849  35.841  38.928   2.858
30632W        W98850  41.462  44.204  11.641
30633W        W98851   7.632  35.600  14.801
30634W        W98852  29.022  43.288   0.707
30635W        W98853  36.631  30.209   5.066
30636W        W98854  41.052  36.094  12.143
30637W        W98855  10.892   9.671   0.028
30638W        W98856  35.813   1.009   4.529
30639W        W98857  13.092   9.757  14.959
30640W        W98858  16.779  44.381  10.921
30641W        W98859  27.200  24.065  12.464
30642W        W98860  15.711  32.090  13.485
30643W        W98861   6.056  10.835   2.009
30644W        W98862  32.523  28.676  11.332
30645W        W98863   0.727  18.551  13.009
30646W        W98864   9.710  29.150   3.243
30647W        W98865  34.155  36.979  12.527
30648W        W98866  34.882  37.530   0.661
30649W        W98867  31.059   1.132   5.140
30650W        W98868   4.837  16.019   3.582
30651W        W98869  39.076  10.355   1.014
30652W        W98870  40.407   4.407  13.026
30653W        W98871  30.200  23.046  12.125
30654W        W98872   0.191  10.309   0.822
30655W        W98873  37.325   3.615   4.450
30656W        W98874   2.315   2.113  11.995
30657W        W98875  30.780  40.518   4.031
30658W        W98876  40.320  36.324  11.694
30659W        W98877   5.666  27.435  13.464
30660W        W98878  24.090  38.709   1.952
30661W        W98879  27.257  24.431  14.771
30662W        W98880  17.435   3.159   3.283
30663W        W98881  19.056  15.877   2.181
30664W        W98882  23.107  35.981  12.474
30665W        W98883   3.720  18.170  14.800
30666W        W98884  11.389  13.598  11.153
30667W        W98885   3.470   1.235  11.555
30668W        W98886  23.686  42.957   2.710
30669W        W98887  15.842  12.775   4.113
30670W        W98888  19.633   8.159  12.524
30671W        W98889  43.429  13.682   0.875
30672W        W98890  31.805  35.125  14.517
30673W        W98891  23.079   8.929  11.289
30674W        W98892  34.716  38.382  10.436
30675W        W98893  28.352  34.865   0.045
30676W        W98894  15.733  20.380   1.353
30677W        W98895   2.351   3.718   4.211
30678W        W98896  26.543  40.842  12.993
30679W        W98897  19.244  15.091   1.837
30680W        W98898  27.914  40.792   1.062
30681W        W98899  32.027  13.293  13.657
30682W        W98900  35.363   0.774   4.564
30683W        W98901  18.478  21.114   2.286
30684W        W98902   6.859  37.548  13.582
30685W        W98903   8.894  27.068  11.941
30686W        W98904  14.152  24.678   4.080
30687W        W98905  25.198   6.747  13.912
30688W        W98906  15.462  35.754   0.508
30689W        W98907  16.798   7.166  13.120
30690W        W98908  17.603  37.604   0.318
30691W        W98909  41.546  31.114   1.262
30692W        W98910  38.906  10.169  14.333
30693W        W98911  10.127  27.458   1.376
30694W        W98912  18.450  34.025   9.904
30695W        W98913   1.324  24.788  10.804
30696W        W98914  41.413  38.948   1.347
30697W        W98915  31.421  26.044  13.893
30698W        W98916  15.724  31.418   3.219
30699W        W98917  10.786  42.307   2.226
30700W        W98918  25.174  44.555   1.309
30701W        W98919  40.852   4.238   0.334
30702W        W98920  27.688   1.734   0.635
30703W        W98921  37.989  32.995  13.465
30704W        W98922  20.744   9.874   2.349
30705W        W98923  11.187  31.611   2.108
30706W        W98924  41.903  26.445   1.216
30707W        W98925   9.940  15.724  13.611
30708W        W98926  12.597  12.218   4.438
30709W        W98927  37.917   6.365   0.868
30710W        W98928  43.185  14.890   2.994
30711W        W98929  43.460   5.655   4.235
30712W        W98930  27.952  23.275   3.592
30713W        W98931  18.674  28.936   0.674
30714W        W98932  26.157  36.575  10.676
30715W        W98933  24.020  17.624   2.284
30716W        W98934  34.946  31.381  11.413
30717W        W98935  29.566  29.045  13.092
30718W        W98936  31.865  28.690   0.903
30719W        W98937   7.218  24.977   4.413
30720W        W98938  37.431  16.810   2.694
30721W        W98939  18.383  38.372   1.293
30722W        W98940  20.103  31.184  13.914
30723W        W98941  24.783  29.168   3.274
30724W        W98942   9.491  21.119  11.648
30725W        W98943  14.546  17.283   4.517
30726W        W98944   3.158  42.519   0.433
30727W        W98945  42.848  32.315   2.401
30728W        W98946  44.818  37.922  14.332
30729W        W98947  29.342  26.744  11.100
30730W        W98948  41.333  35.995   1.162
30731W        W98949   8.304  12.445  11.627
30732W        W98950  42.459  17.642   1.217
30733W        W98951  16.416  37.593   4.141
30734W        W98952  30.228  23.799   1.102
30735W        W98953  22.964  41.021  14.095
30736W        W98954   3.993  41.911  11.944
30737W        W98955  22.314  33.898  12.854
30738W        W98956  19.764  33.667   2.935
30739W        W98957  12.129   1.054   4.914
30740W        W98958  17.187  36.275   0.289
30741W        W98959  30.709  26.209   4.793
30742W        W98960  22.225   6.272  12.919
30743W        W98961  43.700  17.325   4.010
30744W        W98962  19.728  25.382   2.659
30745W        W98963  23.982   9.400  11.139
30746W        W98964  16.763  20.048   1.636
30747W        W98965  37.340  12.911   2.092
30748W        W98966  32.840   4.869  13.225
30749W        W98967  19.489  14.270  14.716
30750W        W98968  21.695  30.645   0.331
30751W        W98969   5.169  40.689  12.464
30752W        W98970   1.778  21.545   2.362
30753W        W98971   5.969  21.565   0.728
30754W        W98972   9.617  10.955   1.625
30755W        W98973   3.528  28.480   0.025
30756W        W98974  44.358  41.469  12.093
30757W        W98975  40.250  25.956  12.710
30758W        W98976  23.991  41.249  12.513
30759W        W98977  20.503  17.318   2.222
30760W        W98978  18.249  31.078   4.256
30761W        W98979  11.809  26.738  13.293
30762W        W98980   8.349   9.734  13.859
30763W        W98981  40.320  23.144   3.287
30764W        W98982   5.448  41.496   1.185
30765W        W98983  10.367  42.223  14.327
30766W        W98984  16.595  27.884   2.296
30767W        W98985  10.883  29.578  12.626
30768W        W98986  36.997  18.762   4.127
30769W        W98987  19.659  28.595   4.391
30770W        W98988  10.171   1.255  14.325
30771W        W98989  11.569  12.358   3.312
30772W        W98990   9.404  31.081  10.751
30773W        W98991   2.793   3.015  12.882
30774W        W98992  21.673  38.997  12.861
30775W        W98993  44.474  43.243  14.992
30776W        W98994  14.023  40.785   2.475
30777W        W98995  24.074  22.043  14.396
30778W        W98996  32.275   2.982   1.730
30779W        W98997  18.826   7.220  14.550
30780W        W98998  37.096  16.249   3.591
30781W        W98999  29.690  25.145  14.795
30782W        W99000  32.501  33.940   4.278
30783W        W99001   1.427  22.560  14.506
30784W        W99002   0.839  30.631  14.451
30785W        W99003  12.472  41.791   2.650
30786W        W99004  12.212  18.608   0.819
30787W        W99005  33.478   1.032  13.516
30788W        W99006  33.175   4.124  13.467
30789W        W99007  42.873  29.655   5.046
30790W        W99008  26.738   6.001   1.721
30791W        W99009  23.612  27.565   2.703
30792W        W99010   5.642  20.952   4.566
30793W        W99011  20.743  33.093   4.406
30794W        W99012   7.371  44.916   0.411
30795W        W99013  35.923   5.930  10.691
30796W        W99014   8.420  23.818   2.831
30797W        W99015   6.974  28.699  13.844
30798W        W99016  30.047  31.665  10.613
30799W        W99017  11.099  23.551   2.214
30800W        W99018  30.466  27.019  11.093
30801W        W99019  20.543  23.579   2.927
30802W        W99020   7.158  42.319   1.797
30803W        W99021  10.343  28.845   0.815
30804W        W99022  25.140  29.099   2.341
30805W        W99023  36.029  41.251   3.141
30806W        W99024   7.307  42.887  12.182
30807W        W99025  44.155  29.724   1.814
30808W        W99026  12.354   1.005  13.506
30809W        W99027  10.836  40.247  13.480
30810W        W99028  21.964   0.041   1.807
30811W        W99029  41.513  21.454   2.649
30812W        W99030  25.186  12.255  13.973
30813W        W99031  24.284   1.679  14.012
30814W        W99032   8.954   7.324  12.921
30815W        W99033  25.449   1.287   0.426
30816W        W99034   3.181  29.828  11.000
30817W        W99035  36.071   3.869   1.345
30818W        W99036   6.773  42.406   0.874
30819W        W99037  35.368   2.894   3.048
30820W        W99038  20.064  19.059   1.809
30821W        W99039  35.887  44.245   1.423
30822W        W99040  44.807  44.463  13.146
30823W        W99041  44.901  18.348  14.248
30824W        W99042  11.557  25.234   2.265
30825W        W99043  36.978  27.232   4.618
30826W        W99044   2.820   8.537  13.969
30827W        W99045  39.519  42.838  13.074
30828W        W99046  37.147   8.857   3.271
30829W        W99047   8.336  11.431  10.735
30830W        W99048   6.053  39.927   9.817
30831W        W99049  39.399  24.687   2.156
30832W        W99050   4.207  32.402   1.742
30833W        W99051  41.983  20.716   1.380
30834W        W99052  25.015  36.541  14.951
30835W        W99053  33.174   1.976  12.914
30836W        W99054  34.381  43.719   1.523
30837W        W99055  44.982   8.495  13.872
30838W        W99056  28.043  31.629  10.619
30839W        W99057  25.465  12.765   4.494
30840W        W99058  39.587  35.033  12.617
30841W        W99059  36.388   8.811   2.964
30842W        W99060   9.160  36.175  11.151
30843W        W99061  12.798  33.010   3.949
30844W        W99062  43.363  12.207   3.432
30845W        W99063   1.205  14.923   2.759
30846W        W99064  44.938  42.120  12.136
30847W        W99065  14.902  13.817   3.710
30848W        W99066  14.519   2.779  11.540
30849W        W99067  19.096  38.308   2.462
30850W        W99068  32.139   7.467   1.370
30851W        W99069  43.764  38.892   2.866
30852W        W99070  13.355  12.798  10.839
30853W        W99071   1.358  33.388  12.903
30854W        W99072  14.335  40.424  13.353
30855W        W99073  30.615  22.047   0.799
30856W        W99074   9.959  11.846   0.924
30857W        W99075   3.751  39.759  10.438
30858W        W99076  21.262  37.273  12.638
30859W        W99077  41.864  25.606   4.815
30860W        W99078  29.256  32.122   3.720
30861W        W99079  27.601  24.830  12.519
30862W        W99080  32.545  16.627   0.914
30863W        W99081  11.110  31.919  14.988
30864W        W99082  17.245  40.708   2.170
30865W        W99083  22.365   0.938  14.004
30866W        W99084  16.813  27.544  13.002
30867W        W99085   4.847   5.191   2.227
30868W        W99086   3.246  42.873   4.688
30869W        W99087  43.035  37.678  10.690
30870W        W99088   6.602  17.945   4.942
30871W        W99089  11.280  14.098   0.759
30872W        W99090  32.320  36.017   4.036
30873W        W99091  24.731   7.010   0.146
30874W        W99092  41.803  22.197   1.124
30875W        W99093  43.890  22.254   4.663
30876W        W99094  37.834  28.954  13.976
30877W        W99095  33.807  24.940   3.161
30878W        W99096  24.083   1.882  12.369
30879W        W99097   9.048  11.526   5.110
30880W        W99098   7.507  36.275  12.415
30881W        W99099  26.261  37.219   4.882
30882W        W99100  40.393  28.445  14.267
30883W        W99101  28.227   3.419   2.770
30884W        W99102  18.214  27.468   3.900
30885W        W99103  38.636  30.607  11.249
30886W        W99104  23.781   4.463   2.264
30887W        W99105  24.219  18.631  13.056
30888W        W99106   9.229   8.197   0.260
30889W        W99107  27.482  29.689   2.233
30890W        W99108  36.435  23.065   4.645
30891W        W99109  18.301   0.692   1.010
30892W        W99110  41.483  37.521   3.869
30893W        W99111  37.456  42.927   2.777
30894W        W99112  14.776  25.475  10.597
30895W        W99113   9.919   8.860  12.038
30896W        W99114   6.908  33.651  13.004
30897W        W99115  24.423   9.291   4.702
30898W        W99116  29.180   2.977  12.759
30899W        W99117  20.439  30.177   1.780
30900W        W99118  19.078  36.153  11.209
30901W        W99119  32.080  27.286  13.795
30902W        W99120  12.910  36.106  12.535
30903W        W99121  43.255  23.730   0.803
30904W        W99122  13.166  31.964  14.919
30905W        W99123   1.298  25.609   3.833
30906W        W99124  12.946  33.925   2.379
30907W        W99125   8.212  36.940  10.668
30908W        W99126   9.960  14.336  10.350
30909W        W99127  30.398  37.819  10.479
30910W        W99128   6.380  13.775  11.130
30911W        W99129  34.551   1.290   4.400
30912W        W99130  38.853  30.952  12.630
30913W        W99131  11.230  18.981   1.372
30914W        W99132  20.571  36.107   5.338
30915W        W99133  22.781   2.268  11.190
30916W        W99134  30.896  42.783  11.449
30917W        W99135  36.292  34.883  14.493
30918W        W99136  37.474   9.157   4.106
30919W        W99137   2.342  41.465   1.223
30920W        W99138  20.257  42.613   3.658
30921W        W99139  37.075   2.449   2.082
30922W        W99140  18.217  31.837  11.140
30923W        W99141   3.798   1.455  13.152
30924W        W99142   2.159  11.732   0.851
30925W        W99143  43.805  20.304   2.110
30926W        W99144  28.909   0.288   0.894
30927W        W99145  39.708  40.143  14.841
30928W        W99146   8.229  39.010   4.045
30929W        W99147  32.330  33.147  11.051
30930W        W99148  23.333  34.975   2.697
30931W        W99149  32.630  26.594   4.552
30932W        W99150  30.369  30.406  13.818
30933W        W99151   6.996   2.364   5.071
30934W        W99152  43.546   3.925   1.248
30935W        W99153  28.305   6.903  11.228
30936W        W99154  19.176   5.364  13.567
30937W        W99155  33.436  11.616  11.435
30938W        W99156  32.210  16.563  11.210
30939W        W99157  31.422   5.209  14.871
30940W        W99158  23.130  16.330  13.276
30941W        W99159  36.426  29.117   3.771
30942W        W99160  33.581  25.751  11.241
30943W        W99161  14.447  44.913  12.083
30944W        W99162  25.660   3.525  10.811
30945W        W99163   2.227  13.378  14.748
30946W        W99164   3.508  20.235   3.237
30947W        W99165  21.283   1.436  11.456
30948W        W99166   0.492   8.348   2.167
30949W        W99167  22.745  37.395  12.079
30950W        W99168   2.894   8.368   2.711
30951W        W99169  15.611   8.842  13.951
30952W        W99170  18.678  22.391   2.016
30953W        W99171   2.721  33.292   2.359
30954W        W99172  17.879  38.847  14.790
30955W        W99173  42.425   0.209  11.097
30956W        W99174  17.715  36.594   1.436
30957W        W99175  27.633  36.086  11.868
30958W        W99176  29.141  28.053   1.656
30959W        W99177  17.204  32.181  10.534
30960W        W99178  12.395  23.567  12.355
30961W        W99179  39.068  30.947   2.442
30962W        W99180  39.026   9.081  13.540
30963W        W99181   5.682   9.235   2.352
30964W        W99182   5.227   4.469   4.839
30965W        W99183  44.511  14.374   2.658
30966W        W99184   4.262  35.079  10.552
30967W        W99185  35.596  20.486  12.989
30968W        W99186  16.598  32.971  14.880
30969W        W99187   4.287   3.513   2.295
30970W        W99188  29.932   7.922   3.982
30971W        W99189  34.564  22.534   1.659
30972W        W99190  27.267  35.357   1.323
30973W        W99191  32.090  35.857   0.800
30974W        W99192   9.747   4.212   1.281
30975W        W99193  33.533   8.769   3.571
30976W        W99194   8.932  15.586  14.400
30977W        W99195  27.614  16.884   0.978
30978W        W99196  33.583  44.630   2.690
30979W        W99197  31.397   9.857  12.040
30980W        W99198  44.072  40.443  11.389
30981W        W99199  12.141  16.273  10.886
30982W        W99200  37.762  37.984  12.600
30983W        W99201  24.693  27.100  12.587
30984W        W99202  30.437   3.957  11.404
30985W        W99203  35.510  41.316  14.906
30986W        W99204  21.760  30.901   1.302
30987W        W99205  24.731  20.322  12.790
30988W        W99206  39.390   4.875   5.082
30989W        W99207  25.009  13.871  11.550
30990W        W99208  41.837   9.449  14.332
30991W        W99209  16.679  44.357   2.755
30992W        W99210  19.535  32.121  14.590
30993W        W99211  35.011  41.241  10.740
30994W        W99212  27.223   4.089  14.555
30995W        W99213  43.048  39.589   0.022
30996W        W99214  17.675  12.299  14.772
30997W        W99215   4.227   9.498  12.121
30998W        W99216  39.479  23.589  10.855
30999W        W99217  23.901   7.432   2.313
31000W        W99218  40.366  14.772  14.720
31001W        W99219  32.570   9.378   3.015
31002W        W99220  12.744  16.974   4.753
31003W        W99221  32.298  23.467   3.806
31004W        W99222   3.411  13.134   0.921
31005W        W99223  24.450  10.176   3.640
31006W        W99224  37.462   4.903   3.239
31007W        W99225  16.866  10.325   1.843
31008W        W99226  32.486  40.559   3.188
31009W        W99227  16.657  19.015   3.644
31010W        W99228   2.768  33.458   4.243
31011W        W99229  21.643  27.475   0.505
31012W        W99230  33.166   4.867  11.219
31013W        W99231  26.133  13.198   4.271
31014W        W99232  14.180  20.110   4.926
31015W        W99233  24.391  33.502   3.548
31016W        W99234  15.201   3.210   2.897
31017W        W99235  14.746  29.032   2.828
31018W        W99236  17.776  22.144  10.588
31019W        W99237  20.567  42.932   0.400
31020W        W99238  25.953   8.094   2.468
31021W        W99239   2.402  25.257   3.302
31022W        W99240  43.873  13.132   1.170
31023W        W99241  21.557  10.132  11.965
31024W        W99242  42.379  13.653  14.577
31025W        W99243   9.290  12.302  13.111
31026W        W99244  36.457  20.934  14.760
31027W        W99245  16.587  29.537  12.614
31028W        W99246  10.799  17.712   5.511
31029W        W99247   4.406  10.380  14.630
31030W        W99248  15.733   7.407   2.245
31031W        W99249   0.913  43.390   4.547
31032W        W99250  32.972  19.379   1.758
31033W        W99251  37.928  34.160  11.425
31034W        W99252   0.019  34.893   2.183
31035W        W99253  15.112  29.226   0.267
31036W        W99254  10.085   9.707   0.417
31037W        W99255   1.965  44.847   2.431
31038W        W99256   0.883  12.603   0.981
31039W        W99257  19.991   4.910  11.785
31040W        W99258  17.755   1.307  11.547
31041W        W99259  22.717  18.230   3.180
31042W        W99260  37.551  22.267  12.976
31043W        W99261  42.546  24.904   0.707
31044W        W99262  15.733  38.826  11.913
31045W        W99263  35.958  22.091  13.032
31046W        W99264  20.244   5.422   0.404
31047W        W99265   1.831  37.135  12.159
31048W        W99266  23.683  30.645  12.529
31049W        W99267   6.934  16.192  10.553
31050W        W99268  23.667  40.534  10.249
31051W        W99269   1.156   5.708   0.800
31052W        W99270  25.766   3.166   4.084
31053W        W99271   4.801  31.637   3.662
31054W        W99272  38.711  22.682   2.892
31055W        W99273  23.775  12.796   4.938
31056W        W99274  29.557  44.311   2.889
31057W        W99275   3.767  23.811  12.180
31058W        W99276  16.314  38.891  14.504
31059W        W99277  19.648  14.664   0.643
31060W        W99278   3.047  22.121  13.060
31061W        W99279   8.890   9.633   2.977
31062W        W99280  31.903  33.340  13.421
31063W        W99281  42.990   5.310   1.377
31064W        W99282  30.447  32.719   1.656
31065W        W99283   9.861  26.138   0.809
31066W        W99284  24.185  39.626   2.744
31067W        W99285  14.335  30.896  13.834
31068W        W99286  25.029  40.497   4.172
31069W        W99287   7.936  33.541  10.778
31070W        W99288  21.441  34.931  14.269
31071W        W99289  20.945  10.772   4.143
31072W        W99290  39.516  42.848   3.651
31073W        W99291  37.521  30.112  11.611
31074W        W99292   5.701  32.013  13.919
31075W        W99293   9.568  11.722  14.063
31076W        W99294  23.768  40.666  13.925
31077W        W99295  39.869  24.635   3.480
31078W        W99296  18.277  32.096  12.112
31079W        W99297  21.006  31.374   1.428
31080W        W99298  12.165  16.769  14.102
31081W        W99299  24.136  26.659  13.624
31082W        W99300  34.540  43.968  11.980
31083W        W99301  39.157  30.571  14.346
31084W        W99302  29.173  38.318   4.622
31085W        W99303  12.787  10.079  10.747
31086W        W99304  20.807   2.188  14.306
31087W        W99305  13.711  40.886  13.466
31088W        W99306  40.480  39.062  14.765
31089W        W99307  15.513  31.064  11.237
31090W        W99308  36.848  19.369   3.243
31091W        W99309  27.565  32.868   1.437
31092W        W99310  20.192  41.582  11.026
31093W        W99311  37.539  42.564   1.927
31094W        W99312  14.678   3.224  11.324
31095W        W99313   5.408   8.105   2.755
31096W        W99314  20.088  20.894   4.790
31097W        W99315  24.241   0.841  11.984
31098W        W99316  43.489  28.846   1.063
31099W        W99317  39.220   6.374  11.576
31100W        W99318  11.247   3.959  14.273
31101W        W99319  37.347  44.479   4.723
31102W        W99320  28.675  44.964   2.743
31103W        W99321   6.859  41.886   1.718
31104W        W99322  10.402  43.109   2.261
31105W        W99323  29.914  38.709  12.297
31106W        W99324  27.491  44.930   2.136
31107W        W99325  39.755   5.227   4.981
31108W        W99326  29.252  41.337   0.485
31109W        W99327  10.368  26.315  14.038
31110W        W99328   1.303   1.832   2.393
31111W        W99329  18.643   3.794   3.162
31112W        W99330  32.419  19.764  10.825
31113W        W99331  14.712  34.503   0.440
31114W        W99332  27.011  38.789  10.481
31115W        W99333  38.777  44.401   0.360
31116W        W99334  30.080  33.333   1.365
31117W        W99335   0.567  31.441  11.200
31118W        W99336  36.945   0.267  14.731
31119W        W99337   2.308  22.620   1.707
31120W        W99338   0.751  28.972  11.590
31121W        W99339   4.703  36.475  11.096
31122W        W99340   3.962  32.134  13.004
31123W        W99341  33.928  14.153   5.201
31124W        W99342  10.489  35.050  12.926
31125W        W99343   8.882  43.558   1.292
31126W        W99344   0.880  14.590   3.651
31127W        W99345  30.896   6.308  14.886
31128W        W99346   8.928  13.355  11.679
31129W        W99347  19.259  30.455   3.471
31130W        W99348  17.664  21.424  12.080
31131W        W99349  18.031   6.051  13.476
31132W        W99350  26.559  31.447  14.736
31133W        W99351   7.770  35.782  13.352
31134W        W99352  37.312   8.683   0.291
31135W        W99353  32.025  28.705  13.976
31136W        W99354   4.635  37.319  11.667
31137W        W99355  14.297  30.388   0.522
31138W        W99356  18.095  36.822   0.370
31139W        W99357  22.014  41.698  12.285
31140W        W99358   1.552  35.767  11.086
31141W        W99359  35.402   4.513  11.351
31142W        W99360  13.158  25.903  14.438
31143W        W99361  11.619  18.025  12.788
31144W        W99362   4.285  17.534   3.331
31145W        W99363   9.656   9.231   0.544
31146W        W99364  31.659  31.937  11.756
31147W        W99365  19.912  14.656   3.462
31148W        W99366  12.825  10.522   0.040
31149W        W99367  32.630   5.740   1.410
31150W        W99368  18.482   3.294  11.989
31151W        W99369  37.871  23.095  13.288
31152W        W99370  22.050  26.708   2.801
31153W        W99371  18.102  21.083   0.022
31154W        W99372  28.398  15.125  14.538
31155W        W99373   6.646  23.034   3.751
31156W        W99374   5.507  19.226  11.963
31157W        W99375  10.427  36.948   5.091
31158W        W99376  13.897  23.211   4.248
31159W        W99377  35.100  41.596  11.089
31160W        W99378   9.615   6.223   1.634
31161W        W99379  27.372  41.291   2.833
31162W        W99380  23.057  19.068   2.210
31163W        W99381  20.513  21.653  12.481
31164W        W99382  36.396  28.278  13.335
31165W        W99383  12.151   2.828   1.223
31166W        W99384  15.900  23.220   0.469
31167W        W99385  36.949  33.939  10.350
31168W        W99386  22.516  32.634   2.235
31169W        W99387   9.700  44.881  14.245
31170W        W99388  15.585  30.906   1.014
31171W        W99389  39.502  28.132  11.081
31172W        W99390  36.047  41.231   2.244
31173W        W99391  37.827  36.343  12.134
31174W        W99392  42.475  34.134   0.916
31175W        W99393   3.436  21.212  11.683
31176W        W99394  11.328  16.740   0.821
31177W        W99395  32.624  20.019   0.583
31178W        W99396  35.633   4.735   3.732
31179W        W99397   0.882  21.869   4.193
31180W        W99398  21.028  33.356   1.355
31181W        W99399  14.096   9.349   3.370
31182W        W99400   4.296  13.642  14.826
31183W        W99401   0.894  29.472   0.437
31184W        W99402   3.383  16.692   3.465
31185W        W99403  24.430   8.763   2.165
31186W        W99404   6.150  18.038  12.886
31187W        W99405  25.913   2.542  13.430
31188W        W99406  15.692   4.855  12.107
31189W        W99407  33.345  32.179   2.880
31190W        W99408  19.214  31.986  11.933
31191W        W99409  22.990  29.568  12.485
31192W        W99410   0.490  31.472  14.202
31193W        W99411   5.902  28.166   3.084
31194W        W99412  21.189   4.725   1.656
31195W        W99413  13.318  36.040  14.318
31196W        W99414  22.235   1.524  14.794
31197W        W99415  24.899   8.896   0.370
31198W        W99416  27.268  41.077  13.445
31199W        W99417  17.178  11.551   1.215
31200W        W99418   4.818  25.853   4.569
31201W        W99419  31.076  25.003  14.542
31202W        W99420  30.868  26.954   1.837
31203W        W99421  26.235  11.106  13.144
31204W        W99422   3.980  20.502   3.602
31205W        W99423  19.666  28.252   3.207
31206W        W99424  37.345  39.349  14.189
31207W        W99425  24.691  13.381   4.810
31208W        W99426  26.616  12.915   1.949
31209W        W99427  37.819   2.390  12.482
31210W        W99428  39.035  33.432  10.705
31211W        W99429   5.201  15.056   1.104
31212W        W99430  20.680   2.010   3.169
31213W        W99431  13.078  10.883   1.699
31214W        W99432  43.028   8.149  12.476
31215W        W99433  29.886   2.301   1.226
31216W        W99434  30.871  23.128  13.893
31217W        W99435  37.128   4.671   4.188
31218W        W99436  35.968  33.255   4.868
31219W        W99437  14.111   1.471  12.438
31220W        W99438  18.614  41.695  12.070
31221W        W99439  13.608  34.087  10.642
31222W        W99440  35.497   7.250   0.896
31223W        W99441  19.795  24.611  12.901
31224W        W99442  26.003  22.115  14.957
31225W        W99443  30.039  23.235  12.576
31226W        W99444   7.618  32.010   3.306
31227W        W99445  36.847  36.109   0.359
31228W        W99446  41.323   9.104  11.121
31229W        W99447  35.605   4.269   0.366
31230W        W99448  28.951  29.900  12.072
31231W        W99449  29.196   6.138   4.177
31232W        W99450  21.131  32.605  13.371
31233W        W99451  29.924  35.135  13.592
31234W        W99452   6.780   7.283   1.723
31235W        W99453   7.561  42.843   4.032
31236W        W99454  38.199  43.713  11.126
31237W        W99455  34.050  17.623   2.123
31238W        W99456  42.931   4.163  14.987
31239W        W99457  19.740  12.037  14.586
31240W        W99458  40.702   1.580  10.394
31241W        W99459  25.389  10.979  12.591
31242W        W99460  33.446  42.291   4.208
31243W        W99461   4.312  22.566  12.374
31244W        W99462  39.529  12.798   4.061
31245W        W99463   3.735  14.152   3.395
31246W        W99464  34.837  27.131   1.925
31247W        W99465   6.639  31.620   1.345
31248W        W99466   9.403  42.278  13.409
31249W        W99467  27.496   6.363  11.023
31250W        W99468  22.751  32.386  12.641
31251W        W99469  18.185   0.752   4.904
31252W        W99470  25.676  29.978   1.615
31253W        W99471   0.643  16.033   1.260
31254W        W99472  25.077  36.272   4.597
31255W        W99473  39.955   3.348  12.404
31256W        W99474  33.594  30.591   5.264
31257W        W99475  38.983  25.046   1.585
31258W        W99476  44.387  29.020   4.621
31259W        W99477  10.450   3.265  12.697
31260W        W99478   2.788  38.340  10.768
31261W        W99479   6.424  13.310  14.999
31262W        W99480  37.318   3.759   2.408
31263W        W99481  33.555  38.266  14.865
31264W        W99482   3.954  23.300   2.104
31265W        W99483  22.332   9.190   3.732
31266W        W99484  38.517   9.320   0.247
31267W        W99485   2.500  36.550  12.875
31268W        W99486   6.701  22.842   4.561
31269W        W99487  16.806  24.456  12.379
31270W        W99488   6.457   5.689  12.392
31271W        W99489  24.630  16.086  12.549
31272W        W99490  12.379  32.172  13.518
31273W        W99491  26.430  17.508  13.708
31274W        W99492  21.756  20.055   2.765
31275W        W99493   3.639   3.751   1.692
31276W        W99494   5.202  42.899   2.665
31277W        W99495   2.521   9.351  12.428
31278W        W99496  43.738  38.918   2.064
31279W        W99497   3.445  27.756   4.066
31280W        W99498   6.299  36.934   2.292
31281W        W99499  38.332  16.570   1.740
31282W        W99500  32.118  39.420  14.046
31283W        W99501   5.253  43.835  14.298
31284W        W99502   1.888  15.333  13.828
31285W        W99503  34.011  10.179   4.712
31286W        W99504   1.250  42.686   3.344
31287W        W99505  36.863  13.757  12.796
31288W        W99506  13.598  14.189  13.090
31289W        W99507  12.777  30.110   1.402
31290W        W99508  25.064   0.427  13.982
31291W        W99509  27.427   4.955   1.922
31292W        W99510  40.849   3.354  10.733
31293W        W99511   3.292  26.882   3.284
31294W        W99512  41.661  33.785  10.992
31295W        W99513  40.237  42.321  13.558
31296W        W99514  19.235   1.838   0.671
31297W        W99515  25.522  14.834   4.087
31298W        W99516  37.745  37.116  13.976
31299W        W99517   2.885  12.849   0.392
31300W        W99518   8.777  26.438   1.724
31301W        W99519  14.006  16.788  10.571
31302W        W99520  28.369  20.545  12.181
31303W        W99521  22.496   8.029   3.589
31304W        W99522  31.642  38.597   2.776
31305W        W99523  21.099  39.790  10.167
31306W        W99524  41.034  23.780   4.131
31307W        W99525  36.077  16.763  10.471
31308W        W99526  38.509   0.850  14.669
31309W        W99527  18.818  37.014  12.047
31310W        W99528  22.030  29.650   0.888
31311W        W99529  41.504  25.120   2.795
31312W        W99530  41.373  26.599  14.484
31313W        W99531  37.005  10.865  14.256
31314W        W99532  40.396  29.440   4.405
31315W        W99533  30.553  22.023  13.395
31316W        W99534  44.987  21.161  14.456
31317W        W99535  15.883  11.900  11.025
31318W        W99536  30.305  15.655  14.340
31319W        W99537  15.860   0.960  14.992
31320W        W99538  37.076   0.760  14.926
31321W        W99539   0.183   9.648  14.005
31322W        W99540   9.028  10.541  14.429
31323W        W99541  44.473  17.336   2.957
31324W        W99542  17.282  43.714   0.346
31325W        W99543  31.973  13.137   4.013
31326W        W99544   5.223  20.417   3.971
31327W        W99545  32.335   6.161   5.077
31328W        W99546  30.100  24.934  13.045
31329W        W99547   7.273  42.399   4.057
31330W        W99548   8.421  42.327  10.213
31331W        W99549  35.325  25.132  13.510
31332W        W99550  32.851  32.137   3.838
31333W        W99551  25.055  42.263  13.923
31334W        W99552   3.018   1.308   2.828
31335W        W99553  25.835  37.900   1.831
31336W        W99554  24.267  13.548   3.995
31337W        W99555  13.897   7.883   2.959
31338W        W99556  17.817  15.792   3.355
31339W        W99557  33.203   0.761  11.637
31340W        W99558  22.005  26.576  13.380
31341W        W99559  33.555   1.715  12.638
31342W        W99560  16.775  33.024  10.658
31343W        W99561  38.408  16.913  13.521
31344W        W99562  11.853  16.652   1.695
31345W        W99563   3.978   3.715   3.163
31346W        W99564   5.828  16.557   1.353
31347W        W99565  13.582  30.010  14.350
31348W        W99566  38.934  18.968  13.942
31349W        W99567  25.245  28.137   4.041
31350W        W99568  28.862  44.758  12.056
31351W        W99569  19.684   6.778  11.300
31352W        W99570  10.284  30.886  11.183
31353W        W99571  10.171  11.224   3.569
31354W        W99572  43.034  22.699   1.373
31355W        W99573  14.205  25.922   1.250
31356W        W99574  16.341  38.412   0.775
31357W        W99575  26.258   7.350   4.198
31358W        W99576  39.529   0.235   3.637
31359W        W99577  17.590  16.799  12.615
31360W        W99578   7.329  29.373   3.611
31361W        W99579  20.275   7.444   2.809
31362W        W99580  14.092   7.530   3.520
31363W        W99581  10.746  18.859   0.467
31364W        W99582  41.853  40.929   2.706
31365W        W99583  27.043  36.950  12.638
31366W        W99584   1.513  41.613  14.868
31367W        W99585   6.576  44.484  10.891
31368W        W99586  21.317  30.051  11.905
31369W        W99587  16.158  16.264  14.431
31370W        W99588  41.996  18.726  13.015
31371W        W99589  16.220  40.540   1.306
31372W        W99590  19.359  21.737   4.173
31373W        W99591  34.087  29.628  12.074
31374W        W99592  37.925  26.606   0.718
31375W        W99593  20.352   5.063   3.422
31376W        W99594   7.341  39.354  11.317
31377W        W99595   3.697  41.442   3.220
31378W        W99596  14.646  13.332   4.583
31379W        W99597  19.270  30.326  13.916
31380W        W99598  34.056  29.634  12.881
31381W        W99599   4.243   5.368   2.202
31382W        W99600   8.491  34.451  12.639
31383W        W99601   3.218  15.600   4.659
31384W        W99602  36.463  35.057   3.888
31385W        W99603  10.702  20.942  11.817
31386W        W99604  33.177   1.545  10.614
31387W        W99605  35.058  41.777   2.747
31388W        W99606  10.130  30.079  14.416
31389W        W99607  13.168  39.306   3.240
31390W        W99608  15.287  40.481  13.085
31391W        W99609  20.544  17.046   2.670
31392W        W99610  16.773  25.559  10.999
31393W        W99611   0.721  31.005   1.532
31394W        W99612  36.802   8.835  10.217
31395W        W99613  16.570  16.744  12.896
31396W        W99614  35.855  11.747  13.966
31397W        W99615  33.351   0.883   3.761
31398W        W99616  32.469  37.905   1.293
31399W        W99617  22.025  39.492   3.207
31400W        W99618  37.869   3.990  14.817
31401W        W99619  31.801  21.522   3.421
31402W        W99620   5.334  12.779  14.988
31403W        W99621  28.869  20.602   0.042
31404W        W99622  40.290   8.312   4.644
31405W        W99623   9.238  21.039  13.195
31406W        W99624  44.475  44.558   0.436
31407W        W99625   7.241  29.123  14.548
31408W        W99626  13.527  22.266  13.151
31409W        W99627  18.773  34.481   4.656
31410W        W99628  40.591  25.653  12.951
31411W        W99629   9.613  30.946   3.087
31412W        W99630  25.152  41.709   1.870
31413W        W99631  17.864   4.826  10.836
31414W        W99632  16.451  16.223   0.777
31415W        W99633  18.175  18.281   1.647
31416W        W99634  38.409  39.231  11.941
31417W        W99635  24.571  15.968   0.830
31418W        W99636  14.693  23.281   1.832
31419W        W99637  15.028  36.561  14.576
31420W        W99638  17.413   2.503  13.401
31421W        W99639  42.284  31.724  13.783
31422W        W99640  40.200   1.439  11.597
31423W        W99641  27.151  43.044  14.503
31424W        W99642  13.651  30.168   4.936
31425W        W99643   7.897   7.020   2.441
31426W        W99644  12.269  37.892   4.568
31427W        W99645  39.619   6.852  12.519
31428W        W99646  19.255  13.460   2.539
31429W        W99647  36.358  11.103   3.595
31430W        W99648  40.423   5.647  10.735
31431W        W99649  26.172  43.375   2.826
31432W        W99650  11.074  14.637  11.149
31433W        W99651  33.128  25.698  14.328
31434W        W99652  15.156  31.530  12.060
31435W        W99653  16.783  26.088   4.677
31436W        W99654  10.042  23.004   4.474
31437W        W99655   0.603  34.986   1.319
31438W        W99656  33.135  17.224   3.391
31439W        W99657  20.541  10.649   4.971
31440W        W99658  39.325   5.745   0.295
31441W        W99659  26.635   7.589   1.389
31442W        W99660  36.948  44.501   0.378
31443W        W99661  21.110   2.619  14.458
31444W        W99662   7.902  28.449  10.672
31445W        W99663  24.832  25.154  14.035
31446W        W99664   5.706  23.887   0.370
31447W        W99665  37.592   0.774  14.927
31448W        W99666  41.326  16.045   4.781
31449W        W99667   7.403  33.504  12.941
31450W        W99668  22.028  31.542   3.817
31451W        W99669  24.222  18.381   1.862
31452W        W99670  39.910  31.887   1.261
31453W        W99671  38.372   7.201  14.852
31454W        W99672  38.970  31.459  12.802
31455W        W99673   8.689  11.800  13.684
31456W        W99674  16.261   7.627  10.373
31457W        W99675  14.650  37.940  10.979
31458W        W99676  12.051  10.798  10.525
31459W        W99677  40.036  12.021   4.221
31460W        W99678  24.947  30.933   2.576
31461W        W99679  32.431   7.281  14.204
31462W        W99680   4.442  12.842   4.142
31463W        W99681  13.077  15.344   1.224
31464W        W99682   5.438  31.905  10.709
31465W        W99683  13.137  10.047   3.377
31466W        W99684  33.480   1.909  14.125
31467W        W99685  12.544  38.812   1.106
31468W        W99686  26.666  30.380  12.456
31469W        W99687   3.949  40.117   5.430
31470W        W99688  14.649  20.564  14.650
31471W        W99689  15.405  30.610  12.807
31472W        W99690  14.878   1.377   0.728
31473W        W99691   1.757  24.695   0.231
31474W        W99692  21.611  21.316  13.993
31475W        W99693   1.904   0.242  13.675
31476W        W99694  22.279  42.487  14.577
31477W        W99695  39.403  37.551   4.752
31478W        W99696  35.044  21.901  11.093
31479W        W99697   0.104  35.087   4.806
31480W        W99698  28.239   9.128  11.842
31481W        W99699  33.178  28.467   2.186
31482W        W99700  43.676  35.830  11.007
31483W        W99701   5.333   1.960   2.780
31484W        W99702  19.862  37.617  11.453
31485W        W99703  11.316  35.392  13.600
31486W        W99704  29.319   5.364   1.288
31487W        W99705  24.832  13.606   4.037
31488W        W99706   8.623  12.654   1.565
31489W        W99707  22.022  34.622  11.546
31490W        W99708  11.466   8.869   0.241
31491W        W99709  23.654  12.646   2.411
31492W        W99710  10.791  31.546   4.090
31493W        W99711  26.696  28.862   3.263
31494W        W99712  37.003  37.422   0.227
31495W        W99713  13.589   2.008   4.301
31496W        W99714  40.385  26.904  12.977
31497W        W99715   4.875  26.887   4.554
31498W        W99716  20.951  11.921   2.271
31499W        W99717  34.826  40.302  12.566
31500W        W99718  26.764  26.162   1.756
31501W        W99719  20.047  31.991  14.407
31502W        W99720  11.750  11.878  12.041
31503W        W99721  29.155  20.211   2.919
31504W        W99722   0.446   4.383  13.465
31505W        W99723  26.538  10.299   4.543
31506W        W99724  39.302  19.650   4.665
31507W        W99725   0.736   8.880   9.560
31508W        W99726   7.923  26.026  14.080
31509W        W99727   7.765  20.462  10.672
31510W        W99728   0.734  43.506  14.343
31511W        W99729  27.643  17.537  14.545
31512W        W99730  17.533  10.745  12.595
31513W        W99731  44.963  27.537   0.826
31514W        W99732  34.407  19.964  13.768
31515W        W99733  42.187   6.234  11.939
31516W        W99734   1.980  33.993   0.454
31517W        W99735  12.136   1.946   4.782
31518W        W99736  16.929  27.441  14.959
31519W        W99737   9.166   4.739   2.621
31520W        W99738   8.684  38.020   0.521
31521W        W99739  18.223  19.404   0.402
31522W        W99740  33.882  38.801  14.365
31523W        W99741  37.831  44.655   4.648
31524W        W99742   3.529  15.863  14.861
31525W        W99743  12.580  28.831   1.757
31526W        W99744  36.934   8.618  13.958
31527W        W99745  44.593  24.779  11.928
31528W        W99746  10.112  14.627  13.012
31529W        W99747  30.927   2.454   9.815
31530W        W99748  17.539  27.212   2.790
31531W        W99749   7.752  30.159  12.055
31532W        W99750  30.191   5.905   4.785
31533W        W99751  35.668  13.105  11.202
31534W        W99752  43.362  37.818   0.839
31535W        W99753  32.922  26.026  10.083
31536W        W99754  30.390  30.553  12.930
31537W        W99755  23.120  31.011   2.598
31538W        W99756  27.964  37.781  11.877
31539W        W99757  20.153  19.564   1.699
31540W        W99758  40.803  34.119   1.724
31541W        W99759  12.606  28.571   3.806
31542W        W99760   6.985  20.670   4.377
31543W        W99761  38.337   0.831   3.659
31544W        W99762  11.501  40.444  11.575
31545W        W99763  10.814  17.272   4.603
31546W        W99764  43.771   4.852  11.584
31547W        W99765  16.675  26.493   3.401
31548W        W99766  14.700  36.321  14.221
31549W        W99767  26.239  23.893  12.341
31550W        W99768  14.828  29.555   0.676
31551W        W99769  38.828  32.481  14.307
31552W        W99770  22.261   5.933   1.201
31553W        W99771   5.346  26.607   2.407
31554W        W99772  16.559  43.901  10.666
31555W        W99773  31.981  41.951  14.419
31556W        W99774  27.992   6.414   4.968
31557W        W99775  38.971  40.993  11.771
31558W        W99776   3.626  28.474   0.996
31559W        W99777   2.789  17.853  10.815
31560W        W99778  17.579  32.384  14.862
31561W        W99779  15.162  41.787  14.431
31562W        W99780   2.692  41.015  12.525
31563W        W99781   0.791  12.368  12.087
31564W        W99782  28.476  29.405   2.608
31565W        W99783  41.391  20.227   0.752
31566W        W99784   5.339  32.577  11.545
31567W        W99785  12.115   7.453   1.456
31568W        W99786  21.712   3.401  14.832
31569W        W99787  15.539  11.576   5.044
31570W        W99788   3.331  38.509  14.692
31571W        W99789  32.085  12.554  10.274
31572W        W99790  30.546  42.282   0.821
31573W        W99791   2.893  12.133  13.615
31574W        W99792   7.414  39.079  14.327
31575W        W99793  21.817  29.849  13.981
31576W        W99794   0.292  11.283  11.564
31577W        W99795  37.600  41.195  10.795
31578W        W99796  44.858  28.437   4.521
31579W        W99797  22.509   0.868   4.511
31580W        W99798  26.678  39.252  14.386
31581W        W99799  14.082  22.753   0.879
31582W        W99800  32.035  29.520   2.138
31583W        W99801  39.823  25.631   0.350
31584W        W99802  42.424   3.425  14.847
31585W        W99803   9.852  13.639   3.183
31586W        W99804  43.370  23.240  14.974
31587W        W99805  39.489  11.225   2.211
31588W        W99806   9.754  37.655  11.669
31589W        W99807  14.011  43.179  10.315
31590W        W99808  40.089  41.317   0.303
31591W        W99809  38.944  40.405   2.290
31592W        W99810  30.747  32.946  13.515
31593W        W99811  16.589  13.333   2.880
31594W        W99812  17.396  17.542  13.599
31595W        W99813  14.228  12.712  10.364
31596W        W99814   1.481   5.463   2.167
31597W        W99815  32.584  21.404  13.841
31598W        W99816  22.044  28.607  12.955
31599W        W99817  39.618  11.401   2.690
31600W        W99818   8.421  14.981   2.340
31601W        W99819   2.482  11.773  12.172
31602W        W99820  26.722  25.601   0.427
31603W        W99821  24.777  15.033   1.708
31604W        W99822  27.873  32.646  12.898
31605W        W99823  25.589   7.471  13.145
31606W        W99824  28.870  23.504   0.956
31607W        W99825  34.024  23.245  12.004
31608W        W99826  23.658   4.393  10.761
31609W        W99827   8.292   3.115  12.024
31610W        W99828  44.300   5.360   4.061
31611W        W99829   7.305  24.125   0.747
31612W        W99830  42.505  32.159  14.337
31613W        W99831  29.566  23.083   9.961
31614W        W99832  31.946  26.840   4.091
31615W        W99833  37.076  11.104  13.775
31616W        W99834  27.158  27.469  13.850
31617W        W99835  17.775  32.938  12.576
31618W        W99836   1.663  41.464   2.951
31619W        W99837  28.354  43.701  11.922
31620W        W99838  24.109  11.774   4.210
31621W        W99839  22.705  27.027  14.270
31622W        W99840  39.854   5.961   4.072
31623W        W99841  14.500  25.725  12.452
31624W        W99842   2.565   4.326   1.768
31625W        W99843  10.903   8.343  13.413
31626W        W99844  44.952  19.334  14.589
31627W        W99845  18.722   1.001   3.015
31628W        W99846  34.154  31.618   4.210
31629W        W99847   9.259  10.151  11.878
31630W        W99848  43.811  38.505  13.807
31631W        W99849  36.967  33.384  13.467
31632W        W99850  18.594  43.302  12.003
31633W        W99851  32.093  11.778  11.365
31634W        W99852  11.312  33.276   4.008
31635W        W99853  17.653  38.962  11.073
31636W        W99854  43.091  43.554   3.727
31637W        W99855  35.368  31.139  11.666
31638W        W99856  17.726   1.776  12.633
31639W        W99857  40.144  31.710   4.539
31640W        W99858  43.980  12.833  13.401
31641W        W99859   8.561  42.104   3.225
31642W        W99860  12.738  38.296   1.921
31643W        W99861  43.608  18.956   3.254
31644W        W99862  36.975  42.564  10.641
31645W        W99863  40.518  44.448  13.447
31646W        W99864  35.335  32.089   1.849
31647W        W99865   5.199  19.061  13.532
31648W        W99866   1.489  25.077   0.751
31649W        W99867  38.979  37.920   1.819
31650W        W99868   4.661  32.908  13.359
31651W        W99869  40.490  29.064  12.131
31652W        W99870  39.793  10.932  12.090
31653W        W99871  16.845  32.430  11.390
31654W        W99872  42.409  24.657   3.669
31655W        W99873  44.777   9.507  10.778
31656W        W99874   5.686  41.831   0.419
31657W        W99875  37.844  23.763   1.934
31658W        W99876  12.920   4.679  13.431
31659W        W99877   9.409  19.912   1.257
31660W        W99878   3.985   6.589  14.017
31661W        W99879  39.372  18.620   0.293
31662W        W99880  42.910  44.288  13.016
31663W        W99881  33.859  30.568   0.913
31664W        W99882  37.991  35.020  13.375
31665W        W99883  40.761  18.203   1.341
31666W        W99884  31.244  40.191  11.536
31667W        W99885  27.534  11.110  13.043
31668W        W99886   2.726  21.633   4.686
31669W        W99887   6.886  38.604  12.219
31670W        W99888  10.768   9.269  12.173
31671W        W99889   0.352  40.850   2.696
31672W        W99890  21.666  37.048   0.034
31673W        W99891  19.573  10.774   4.619
31674W        W99892  37.930   9.764  14.762
31675W        W99893  32.168  43.541   1.091
31676W        W99894   4.721  40.589   1.862
31677W        W99895  16.076   3.452   2.214
31678W        W99896  20.063  39.561   3.697
31679W        W99897  10.605  42.789   3.326
31680W        W99898  37.545  43.682  12.897
31681W        W99899  41.993  25.907  14.488
31682W        W99900   4.312  16.595  13.585
31683W        W99901  41.703  14.196  14.813
31684W        W99902  21.101  38.478  11.884
31685W        W99903  34.799  10.074  14.958
31686W        W99904  20.642  14.071   4.485
31687W        W99905  32.109  19.216  10.628
31688W        W99906  27.889  17.861   3.247
31689W        W99907   4.379  17.504  11.039
31690W        W99908  31.592  43.528   2.035
31691W        W99909  20.996  20.406  12.325
31692W        W99910  11.900  44.423  14.167
31693W        W99911   7.800  33.788  13.593
31694W        W99912   8.481  22.339   1.209
31695W        W99913  13.773  16.745  12.504
31696W        W99914  20.729  21.465  14.454
31697W        W99915  22.855   6.112  11.601
31698W        W99916  39.501  25.000  11.915
31699W        W99917  17.601   7.933   2.456
31700W        W99918  32.032  35.607   1.642
31701W        W99919  12.648  36.806   1.756
31702W        W99920  28.086  17.831   4.149
31703W        W99921  34.965  12.521  14.540
31704W        W99922  36.640  21.194  12.514
31705W        W99923  32.164  10.149   0.366
31706W        W99924   4.398   1.559   4.234
31707W        W99925  20.351  19.087   3.709
31708W        W99926   3.715  15.684  14.307
31709W        W99927   8.886  26.595  12.510
31710W        W99928  27.719  10.658  11.562
31711W        W99929  12.421   5.330   0.129
31712W        W99930  23.202  44.360  10.651
31713W        W99931   7.360  43.327  11.943
31714W        W99932  20.875  34.294  12.554
31715W        W99933  28.224  13.060   0.069
31716W        W99934   2.892  20.290  12.957
31717W        W99935  18.736  29.073   4.728
31718W        W99936   6.689  19.245   1.164
31719W        W99937  28.604   7.727   3.584
31720W        W99938   3.342  38.643   2.829
31721W        W99939   2.529  36.028  14.529
31722W        W99940  18.718  39.829  10.618
31723W        W99941   8.310  38.435  14.962
31724W        W99942  25.591  33.057   1.271
31725W        W99943  34.086   6.857   1.363
31726W        W99944  29.667  20.287  13.963
31727W        W99945  14.078   3.772  10.704
31728W        W99946  38.851  37.272   1.401
31729W        W99947  15.691   6.264  10.701
31730W        W99948  42.199  16.165  14.521
31731W        W99949  28.542  12.763  13.587
31732W        W99950   7.399  32.708  12.520
31733W        W99951   8.994   4.378   0.848
31734W        W99952   9.670  38.970   3.541
31735W        W99953  25.486  28.647  10.707
31736W        W99954  31.063   8.449   4.710
31737W        W99955  44.340  11.367  12.519
31738W        W99956  38.658   2.003  14.385
31739W        W99957   7.972  40.497   3.518
31740W        W99958   1.948  39.383  13.361
31741W        W99959   1.484   0.795   3.345
31742W        W99960  31.153  43.685  12.594
31743W        W99961  18.039   7.241  14.869
31744W        W99962   6.012   8.781   3.190
31745W        W99963  30.074  29.645   3.107
31746W        W99964  35.114  31.293   4.481
31747W        W99965  36.941  14.150   2.237
31748W        W99966  17.120  33.181  12.356
31749W        W99967  42.971  14.782  14.225
31750W        W99968  33.105   3.469   1.315
31751W        W99969  32.479  10.307   1.391
31752W        W99970  32.055  39.874   0.878
31753W        W99971  14.608  20.440  12.583
31754W        W99972   3.991  12.818   0.331
31755W        W99973  30.354  16.182   4.823
31756W        W99974   2.965  11.465   4.655
31757W        W99975  30.660  33.375   5.042
31758W        W99976  33.469  42.353  10.314
31759W        W99977  43.795   9.300   0.994
31760W        W99978  11.301   8.012  11.045
31761W        W99979  37.525  27.127   2.348
31762W        W99980  19.795  36.578   4.196
31763W        W99981   9.138  19.595   4.577
31764W        W99982  23.528   9.205  12.846
31765W        W99983  43.509  34.502  11.110
31766W        W99984  15.651  37.074   2.308
31767W        W99985   9.204  20.679   2.313
31768W        W99986  24.572   0.354  14.859
31769W        W99987  18.783  29.869  13.504
31770W        W99988  16.058  30.604  13.485
31771W        W99989  36.568  24.156  10.679
31772W        W99990  20.531  26.835   4.064
31773W        W99991   1.930  19.531   3.223
31774W        W99992  20.713  11.450   1.293
31775W        W99993  32.876  30.927   3.327
31776W        W99994  19.536  23.726  14.804
31777W        W99995  24.098   3.504  10.748
31778W        W99996   3.177  19.106  13.947
31779W        W99997  18.155  29.591  10.629
31780W        W99998  41.483   9.136   2.793
31781W        W99999  12.158   0.422   4.587
31782W        W    0  32.033   1.793   4.525
31783W        W    1   5.580   5.955   4.103
31784W        W    2  19.880  32.671   4.170
31785W        W    3  32.502   3.776   3.736
31786W        W    4  19.992  22.297  12.896
31787W        W    5  15.074  44.534  14.837
31788W        W    6  25.969  39.980  10.695
31789W        W    7   8.331  41.160  10.050
31790W        W    8  29.972   6.426   1.796
31791W        W    9  26.638   1.133   3.784
31792W        W   10  43.874  30.035   1.386
31793W        W   11  39.664  29.164   2.287
31794W        W   12  23.717  38.816   0.495
31795W        W   13  26.704  36.185   2.012
31796W        W   14   0.544   5.688   1.670
31797W        W   15  12.652   2.242   2.826
31798W        W   16  26.971  14.812   0.424
31799W        W   17  30.214  18.563  12.344
31800W        W   18  23.265  43.877   1.298
31801W        W   19   0.838   2.739  10.734
31802W        W   20  41.287   5.878   4.151
31803W        W   21  33.570  24.213  11.005
31804W        W   22  12.222  13.345   1.676
31805W        W   23  20.166  44.853   4.625
31806W        W   24  35.673   5.335  14.382
31807W        W   25  29.943   2.950   3.702
31808W        W   26  30.576   6.832  12.936
31809W        W   27   6.989  21.674   1.950
31810W        W   28  27.976   2.362  14.404
31811W        W   29   8.315  10.672  14.828
31812W        W   30  32.535  40.811   0.818
31813W        W   31  28.056  33.445   0.773
31814W        W   32  36.574  41.565   4.375
31815W        W   33   5.276  15.204   0.480
31816W        W   34  26.181  28.427   1.762
31817W        W   35  15.167   8.840   3.069
31818W        W   36  28.476  30.082   1.866
31819W        W   37  43.266   6.164   4.242
31820W        W   38  32.655  36.667  12.379
31821W        W   39  37.317   7.087  11.634
31822W        W   40  19.001  14.120  14.614
31823W        W   41  36.360  26.795   4.023
31824W        W   42  31.107   5.946   3.634
31825W        W   43  34.336  31.620   0.002
31826W        W   44  16.443  41.341  11.161
31827W        W   45  25.093   8.716   3.171
31828W        W   46  39.738  15.817  10.927
31829W        W   47   2.529  41.779  11.167
31830W        W   48   3.505   6.930   2.807
31831W        W   49  17.268  32.210  12.478
31832W        W   50  37.311  40.088   2.144
31833W        W   51   3.912  41.149   4.128
31834W        W   52  21.697  10.301  13.508
31835W        W   53  32.982  34.231  14.329
31836W        W   54   2.066   5.258  14.869
31837W        W   55  17.058   9.332   3.208
31838W        W   56   9.734   8.807   5.005
31839W        W   57  36.443  22.702   0.826
31840W        W   58  26.972  34.440  13.194
31841W        W   59  31.008  13.815   4.015
31842W        W   60   7.181  32.881   2.777
31843W        W   61   8.835  23.413   3.756
31844W        W   62  20.015  36.119  12.342
31845W        W   63  42.327  33.824  11.101
31846W        W   64   9.180   4.882  13.993
31847W        W   65  36.041   6.429   4.221
31848W        W   66  11.634   2.831   4.903
31849W        W   67   3.589   6.645  13.482
31850W        W   68   4.639  27.633  13.125
31851W        W   69  36.026  43.340  10.756
31852W        W   70  41.416  18.076   1.958
31853W        W   71  14.978  44.784   4.131
31854W        W   72  16.088  10.571  14.372
31855W        W   73  29.846   3.169   2.355
31856W        W   74   1.886  26.451   2.961
31857W        W   75  10.635  43.961  11.556
31858W        W   76  42.057  32.585  11.476
31859W        W   77  19.072  41.390   2.342
31860W        W   78  25.176  28.391   0.771
31861W        W   79  41.991  44.194   1.195
31862W        W   80  19.579  15.275   1.483
31863W        W   81  24.742  10.663   0.498
31864W        W   82   3.322  20.468   2.829
31865W        W   83  36.425   7.848  13.319
31866W        W   84  21.773  10.959  11.206
31867W        W   85  19.962  32.672   0.365
31868W        W   86  17.373  13.909  12.538
31869W        W   87  40.821  37.552  11.998
31870W        W   88  29.622  30.581  13.400
31871W        W   89  24.771  43.881   2.437
31872W        W   90  39.165  31.134   1.541
31873W        W   91   1.646  15.193  12.480
31874W        W   92  26.400   0.347   4.195
31875W        W   93  38.723  34.405   3.719
31876W        W   94  10.702  24.447  11.400
31877W        W   95  44.885  31.542  13.404
31878W        W   96  23.167  10.393   4.264
31879W        W   97  18.632   6.977  13.928
31880W        W   98   0.249   6.199  11.424
31881W        W   99  35.137  18.125   2.886
31882W        W  100  17.097  37.725  12.170
31883W        W  101  15.774  15.087  12.531
31884W        W  102  27.684  15.269  12.481
31885W        W  103  32.037   9.959  14.358
31886W        W  104  28.648  41.384   3.210
31887W        W  105  11.868   6.662  11.526
31888W        W  106  30.465  33.642   4.153
31889W        W  107  37.616  19.226  11.462
31890W        W  108   6.382  32.895  14.937
31891W        W  109  44.746   6.807  14.355
31892W        W  110  11.491  10.244  14.317
31893W        W  111  31.346  42.063  11.543
31894W        W  112   1.975  21.981  12.799
31895W        W  113  39.381   6.508  13.469
31896W        W  114  34.843   1.651   0.187
31897W        W  115   7.277  21.636   4.693
31898W        W  116   4.855   6.665  11.181
31899W        W  117  27.464  29.925   2.787
31900W        W  118  22.858   2.194   4.575
31901W        W  119   2.691  12.725   4.080
31902W        W  120  23.323   9.140  12.360
31903W        W  121  37.842  18.640  12.826
31904W        W  122  30.045  39.544   1.361
31905W        W  123  22.488  27.017   2.347
31906W        W  124  35.273  25.338  12.107
31907W        W  125  35.485   9.876   9.963
31908W        W  126  20.263   4.727   1.787
31909W        W  127  18.577  40.828   0.576
31910W        W  128  41.531   8.639  11.115
31911W        W  129  22.633  39.013   1.899
31912W        W  130  15.294  18.328  11.118
31913W        W  131  13.150  38.194   4.614
31914W        W  132  32.360   4.846   3.632
31915W        W  133  37.087   9.122  13.218
31916W        W  134   7.419  16.131  14.800
31917W        W  135  16.842  11.167   0.163
31918W        W  136   5.985  14.561  10.625
31919W        W  137   1.341   6.996  11.387
31920W        W  138   2.853   6.206   1.958
31921W        W  139  20.175  35.578  11.156
31922W        W  140  39.550  17.057  13.983
31923W        W  141   9.656  20.532   2.766
31924W        W  142   3.819  41.297  10.474
31925W        W  143   6.942   4.804   3.016
31926W        W  144  41.254  39.439  11.139
31927W        W  145   7.332  33.790   4.138
31928W        W  146  10.733  21.111   2.668
31929W        W  147  24.571   2.753  10.530
31930W        W  148  22.686  16.628  14.452
31931W        W  149  26.235  33.819  11.062
31932W        W  150  38.948  36.403  14.362
31933W        W  151  17.714  44.316  10.691
31934W        W  152   2.019  38.473  11.265
31935W        W  153  15.134  15.692   0.973
31936W        W  154   2.063   9.206  13.353
31937W        W  155  38.609  24.997  13.964
31938W        W  156  38.331  20.261   1.965
31939W        W  157  34.454  34.410   4.643
31940W        W  158  12.203  14.256   1.764
31941W        W  159  36.915  40.764   1.574
31942W        W  160  29.955  11.479   0.489
31943W        W  161  36.130  15.086   4.055
31944W        W  162  29.526   7.196  10.730
31945W        W  163  12.742  41.605  12.351
31946W        W  164   6.673   1.937   3.304
31947W        W  165   5.787  11.825  14.996
31948W        W  166   7.616   4.939  11.092
31949W        W  167   7.888  33.919   4.794
31950W        W  168   9.167  41.358  14.587
31951W        W  169  25.454  25.070   3.147
31952W        W  170  20.679  16.231  14.515
31953W        W  171  26.987  22.944   3.716
31954W        W  172  37.235  41.334  12.884
31955W        W  173   0.082  15.115  12.584
31956W        W  174  33.100   5.750   0.009
31957W        W  175  24.701   3.130  12.416
31958W        W  176  26.164   0.664   2.535
31959W        W  177  10.639  20.156  12.868
31960W        W  178  17.221  36.083   3.048
31961W        W  179  21.572  14.432  11.183
31962W        W  180   8.665   2.642   4.334
31963W        W  181  41.071   2.363   9.806
31964W        W  182  29.050  22.961  12.620
31965W        W  183  41.308  40.536   3.604
31966W        W  184  27.921   0.239   4.263
31967W        W  185  15.074  43.935   1.739
31968W        W  186  42.889  10.688  14.520
31969W        W  187   1.868  35.576  12.158
31970W        W  188  32.475  37.391   0.569
31971W        W  189  40.460   8.399  13.079
31972W        W  190  25.007  10.189   4.496
31973W        W  191  11.530  30.429  10.226
31974W        W  192  34.906  16.540   3.348
31975W        W  193  24.172  34.874   3.255
31976W        W  194  25.121  15.837   1.705
31977W        W  195  28.697   8.285  10.414
31978W        W  196  26.758  30.378   4.924
31979W        W  197  43.012  43.246  11.352
31980W        W  198  33.344   4.324   1.767
31981W        W  199  21.989  20.217   4.199
31982W        W  200  34.916  37.434   1.174
31983W        W  201  24.584  14.748   3.568
31984W        W  202   5.693  16.349  11.066
31985W        W  203  20.525  38.035   1.483
31986W        W  204  35.433  10.401   4.106
31987W        W  205  18.282  39.929  10.352
31988W        W  206  22.437   1.254  14.404
31989W        W  207  31.607  20.189  14.911
31990W        W  208   5.321  35.563  14.325
31991W        W  209   5.753  27.139   2.122
31992W        W  210   4.601  32.842   4.015
31993W        W  211  37.236  16.150   2.182
31994W        W  212  21.559   9.787  13.527
31995W        W  213  38.078   6.261   1.984
31996W        W  214  28.086  43.478  13.876
31997W        W  215   3.413  24.514   3.267
31998W        W  216  41.040  28.602  12.456
31999W        W  217  42.213  15.842  13.884
32000W        W  218   5.985  31.133  11.163
32001W        W  219  19.354  27.693  12.978
32002W        W  220   5.563   1.419   0.654
32003W        W  221  25.180  25.515   2.253
32004W        W  222  39.412  37.143  11.152
32005W        W  223  26.606  20.593  10.438
32006W        W  224  41.742  41.268   2.303
32007W        W  225  12.154  15.834  11.888
32008W        W  226  33.202  40.513   1.302
32009W        W  227  23.293  31.680  13.944
32010W        W  228  22.039  37.643   4.690
32011W        W  229  33.087   0.527   4.304
32012W        W  230  35.502  38.444  11.517
32013W        W  231  31.371  15.056  10.658
32014W        W  232   5.866   8.878   4.419
32015W        W  233  34.483   1.034   3.081
32016W        W  234  21.644  32.683  13.468
32017W        W  235  12.303  22.505  10.211
32018W        W  236  23.745  12.250   4.220
32019W        W  237   5.388   3.162   3.223
32020W        W  238  19.409  38.225  11.992
32021W        W  239   2.767  27.777   3.441
32022W        W  240  34.217  15.192   1.979
32023W        W  241  13.768  39.787  10.610
32024W        W  242  28.608  16.391   5.359
32025W        W  243  18.511  19.589   0.848
32026W        W  244  25.980  15.656   4.161
32027W        W  245  27.494  39.250  14.370
32028W        W  246   2.925  19.078   2.789
32029W        W  247   5.758  10.141  13.105
32030W        W  248  30.448  20.179  13.028
32031W        W  249  31.050  21.654  13.981
32032W        W  250   0.513  23.014   0.401
32033W        W  251  41.961  29.908   2.602
32034W        W  252  41.521  13.620  11.451
32035W        W  253  19.209  24.234  10.776
32036W        W  254   7.293  28.567  12.524
32037W        W  255  20.311  22.131  14.826
32038W        W  256  11.795  11.052   1.183
32039W        W  257  37.321  43.840  12.434
32040W        W  258  16.161  20.032   2.465
32041W        W  259  35.294  21.513  12.856
32042W        W  260  31.272   3.007  12.522
32043W        W  261  39.050  35.892  14.399
32044W        W  262  34.533   1.913   3.188
32045W        W  263  32.004   0.707   0.731
32046W        W  264  36.070  15.042   1.400
32047W        W  265   8.149  22.655   1.939
32048W        W  266  42.825  16.022  11.924
32049W        W  267   7.695  37.471   4.174
32050W        W  268  14.222  23.536  13.689
32051W        W  269  32.572  30.449   3.058
32052W        W  270  22.140  28.674   1.690
32053W        W  271  39.357  26.072  10.541
32054W        W  272  32.292   8.845   4.260
32055W        W  273  35.615  22.514  12.045
32056W        W  274  31.675  36.672  10.937
32057W        W  275  20.208  13.258  11.953
32058W        W  276  36.463  18.005   1.560
32059W        W  277  17.596  22.079  11.488
32060W        W  278  32.690  30.522   5.140
32061W        W  279  18.214  20.930  12.550
32062W        W  280   1.693  36.427  13.603
32063W        W  281   6.643  29.667  12.963
32064W        W  282  12.320  40.919  14.059
32065W        W  283  35.055   9.695  12.024
32066W        W  284  15.735  16.186  11.664
32067W        W  285  41.317  43.276  13.877
32068W        W  286  30.070   4.920   1.092
32069W        W  287  16.289   8.843  11.668
32070W        W  288  34.634  29.627  10.608
32071W        W  289  32.909  39.839   2.784
32072W        W  290  42.513  36.892   2.251
32073W        W  291  19.147  29.129   3.851
32074W        W  292  18.972   1.840   0.229
32075W        W  293   6.683   3.661   4.550
32076W        W  294   1.215  23.099   3.219
32077W        W  295  18.174  17.708  10.877
32078W        W  296  30.680   5.934  12.525
32079W        W  297  23.662   8.702   1.731
32080W        W  298  16.490   7.702   1.892
32081W        W  299  34.394  34.849   0.844
32082W        W  300  12.437  39.466  11.216
32083W        W  301   0.179  20.229  12.472
32084W        W  302  24.473   8.123  12.832
32085W        W  303  10.223   3.435  10.675
32086W        W  304   1.234  44.935  11.440
32087W        W  305   9.840  23.756   2.796
32088W        W  306  44.275  25.418   0.830
32089W        W  307  35.673  26.263  12.029
32090W        W  308  35.352  20.735  13.383
32091W        W  309  34.369  19.153   0.831
32092W        W  310  23.643   6.764  11.682
32093W        W  311  15.743  35.862  13.101
32094W        W  312   1.354   3.027  10.710
32095W        W  313   1.874  44.457  10.816
32096W        W  314  20.664  11.219   1.848
32097W        W  315  35.693  33.983  14.073
32098W        W  316   4.383  15.117   2.812
32099W        W  317   3.805  12.565  11.578
32100W        W  318  41.017  32.720   3.669
32101W        W  319  24.955  31.866  14.434
32102W        W  320  14.238   7.107  12.110
32103W        W  321  42.347  20.065   2.323
32104W        W  322  44.539  11.631  11.800
32105W        W  323  36.272   4.723  13.905
32106W        W  324  41.353   1.501   0.671
32107W        W  325  10.689  21.412  12.658
32108W        W  326  32.865  44.358  14.353
32109W        W  327  13.126  22.447   0.755
32110W        W  328  25.449  36.953   1.951
32111W        W  329   5.342  27.348  13.858
32112W        W  330  27.476  21.094  10.883
32113W        W  331  37.106  32.008   3.699
32114W        W  332  28.690  39.391   3.716
32115W        W  333  35.056  14.271  12.873
32116W        W  334   9.888  42.509  13.359
32117W        W  335  26.180  15.462  14.507
32118W        W  336   2.764   0.858   3.029
32119W        W  337  16.741  44.880   2.904
32120W        W  338  15.791  15.855  10.607
32121W        W  339  12.704  12.811   0.361
32122W        W  340  40.817  29.686  14.371
32123W        W  341  17.455  21.033   0.499
32124W        W  342  22.259  27.958  13.950
32125W        W  343   8.375  24.770   2.898
32126W        W  344   7.317  12.821   4.577
32127W        W  345  18.126  27.206  12.442
32128W        W  346  35.084  29.333  10.262
32129W        W  347  43.544   8.530   3.215
32130W        W  348  23.070  32.692   1.713
32131W        W  349   7.708  10.892  11.140
32132W        W  350  24.330  35.942  10.176
32133W        W  351  35.825   1.943   1.455
32134W        W  352   2.335  15.921   5.070
32135W        W  353  36.390  37.855  10.745
32136W        W  354   4.385  13.217   0.140
32137W        W  355  42.507  19.754  13.376
32138W        W  356  21.051   5.010  12.859
32139W        W  357   3.137  16.657   4.727
32140W        W  358  30.636   0.006   3.773
32141W        W  359  43.570  25.410   0.216
32142W        W  360  13.163  41.260  13.932
32143W        W  361   9.092  26.164  11.933
32144W        W  362  14.494   8.653  10.432
32145W        W  363  10.725  29.591   1.072
32146W        W  364  11.313  14.645   3.352
32147W        W  365   1.852  33.527   1.945
32148W        W  366  42.517  39.406   0.890
32149W        W  367  35.386  11.364  12.504
32150W        W  368  28.420  27.040  12.036
32151W        W  369   2.793  35.431   3.210
32152W        W  370  14.389  10.899  14.757
32153W        W  371  20.044  29.733  13.070
32154W        W  372  33.031  18.605   4.348
32155W        W  373  26.507  21.534   5.345
32156W        W  374  20.381  15.082   0.936
32157W        W  375  17.002  27.561  11.001
32158W        W  376  20.589   2.457  12.975
32159W        W  377   2.344  24.744   3.304
32160W        W  378  35.998  41.142   3.636
32161W        W  379  36.508   9.803  14.764
32162W        W  380  34.507  29.102   1.305
32163W        W  381  34.541  38.295  13.563
32164W        W  382  19.431  43.787  10.525
32165W        W  383  27.603  22.780   4.218
32166W        W  384  43.526  32.699   0.858
32167W        W  385   3.491   3.283  12.874
32168W        W  386  22.300  28.907  10.834
32169W        W  387   5.304   5.288   1.181
32170W        W  388  34.960  23.256  14.347
32171W        W  389  40.048  14.355  10.990
32172W        W  390   5.996  14.109  14.901
32173W        W  391  18.752  40.060   4.321
32174W        W  392   3.185  20.056   3.655
32175W        W  393  10.326  24.663  11.692
32176W        W  394  26.849   5.928  10.991
32177W        W  395  40.119  13.352   3.850
32178W        W  396  31.902  26.119   1.675
32179W        W  397  12.639  30.594  14.945
32180W        W  398  22.258   7.170  12.027
32181W        W  399  23.122   1.837  14.297
32182W        W  400  18.006   5.444   2.264
32183W        W  401  10.580  33.498   1.457
32184W        W  402  22.728  32.162   2.234
32185W        W  403  22.227  33.986   3.843
32186W        W  404   8.913  35.415  12.411
32187W        W  405  14.045  34.986  14.946
32188W        W  406  31.131  22.828   1.271
32189W        W  407  10.794  34.086   0.490
32190W        W  408  13.645  29.099  11.763
32191W        W  409   5.778  31.896  13.435
32192W        W  410  16.549  10.778  13.388
32193W        W  411  20.979  21.375   1.200
32194W        W  412  29.506  19.589   1.675
32195W        W  413  10.411  30.435   2.694
32196W        W  414  10.364  18.777   5.108
32197W        W  415  17.020   1.398   2.588
32198W        W  416  37.608  39.969  11.207
32199W        W  417  39.518   9.507  13.419
32200W        W  418  10.232   5.994   4.590
32201W        W  419   4.355   0.235   0.842
32202W        W  420   3.317  24.796  12.008
32203W        W  421  37.125  32.376  13.294
32204W        W  422  19.661  41.589   3.273
32205W        W  423  18.044  23.492  11.639
32206W        W  424  21.614  36.143   5.465
32207W        W  425  19.995  34.997  12.927
32208W        W  426  24.475  15.768  13.838
32209W        W  427  26.630  10.843   0.067
32210W        W  428  18.756   8.303  11.449
32211W        W  429  16.599  40.908   1.836
32212W        W  430  39.375  33.128   4.221
32213W        W  431  40.702   3.803   3.005
32214W        W  432  39.687  19.556   2.405
32215W        W  433  26.636  13.276   4.471
32216W        W  434  18.373  27.663  13.033
32217W        W  435  22.158  10.838   4.643
32218W        W  436  27.132  37.954  14.402
32219W        W  437  15.867  34.384  12.532
32220W        W  438  37.118  33.453   2.819
32221W        W  439  19.199  10.625   3.734
32222W        W  440  18.232   5.779   0.311
32223W        W  441   9.776   2.980   2.600
32224W        W  442  43.536  30.417   2.841
32225W        W  443  16.159  31.852   0.734
32226W        W  444  10.757  18.691   4.443
32227W        W  445   1.257   9.267   3.718
32228W        W  446  24.582  23.161   1.435
32229W        W  447  11.157  21.741   4.075
32230W        W  448  21.687  20.549  14.986
32231W        W  449  14.932  22.056   2.924
32232W        W  450   8.414  13.363   3.196
32233W        W  451  13.377  27.710  13.907
32234W        W  452   4.786   7.385   0.690
32235W        W  453   1.452   8.661   4.663
32236W        W  454  40.955   2.810   3.140
32237W        W  455  22.357  12.110  14.379
32238W        W  456  24.519  11.446  12.486
32239W        W  457  27.432  12.041  11.370
32240W        W  458  13.141  30.003   4.838
32241W        W  459  21.264   6.782   1.904
32242W        W  460  19.510   6.345   1.453
32243W        W  461  41.054  35.497   3.192
32244W        W  462  42.752  26.023  10.982
32245W        W  463  37.393  41.047   3.449
32246W        W  464   4.821  13.851   4.895
32247W        W  465  32.414  24.128  14.018
32248W        W  466  38.943   2.178   0.617
32249W        W  467   8.784  13.616   1.333
32250W        W  468  13.204  23.140   4.616
32251W        W  469  36.165  37.115   0.495
32252W        W  470  34.357  38.779   0.400
32253W        W  471  40.348  36.070   2.448
32254W        W  472  30.002   5.563   1.867
32255W        W  473  23.512  36.939   5.303
32256W        W  474  19.373   6.078  10.726
32257W        W  475  18.467  21.523   2.668
32258W        W  476  35.044  44.235   1.763
32259W        W  477   6.743  36.490   0.476
32260W        W  478  44.378   9.645  11.516
32261W        W  479   4.906  32.435   1.014
32262W        W  480   9.923  35.020  12.980
32263W        W  481   9.871  18.180  13.514
32264W        W  482  37.429   2.388  14.542
32265W        W  483  13.922  11.168   3.159
32266W        W  484  43.302   3.631  13.930
32267W        W  485  23.679  29.647   1.456
32268W        W  486   6.521  11.860   3.599
32269W        W  487  31.174  26.714  10.728
32270W        W  488  34.910  18.131  13.531
32271W        W  489  25.526  39.965   2.771
32272W        W  490   9.881  24.607   0.817
32273W        W  491  15.271   5.609   0.985
32274W        W  492  35.145  24.631   1.115
32275W        W  493  15.477  31.483   4.118
32276W        W  494  26.913   7.126  12.250
32277W        W  495  36.383  43.895   2.101
32278W        W  496  30.381   5.392   0.009
32279W        W  497   0.523  35.801   4.120
32280W        W  498  33.716  12.743   0.045
32281W        W  499  43.069  34.429  13.742
32282W        W  500   1.725  29.371   3.224
32283W        W  501   1.254  36.177  12.789
32284W        W  502   7.896  16.363  13.075
32285W        W  503  30.918   5.430   3.650
32286W        W  504  26.911  23.699   1.254
32287W        W  505  10.786  18.092   2.595
32288W        W  506   7.639  25.235   4.571
32289W        W  507   5.620  23.049  11.140
32290W        W  508  24.692  39.737  11.144
32291W        W  509   5.754  29.942   3.725
32292W        W  510  37.117  38.556   1.347
32293W        W  511  27.931  25.496   3.680
32294W        W  512   0.510  21.173  14.436
32295W        W  513   6.041  15.662   2.984
32296W        W  514  39.299  37.222   5.177
32297W        W  515  36.891  10.440   3.154
32298W        W  516  18.713  42.109   2.494
32299W        W  517  21.869   0.809  14.051
32300W        W  518  43.483  18.545  14.531
32301W        W  519  40.367  32.488  12.129
32302W        W  520   9.467  30.796   0.638
32303W        W  521   1.886   0.821  11.392
32304W        W  522  25.144  20.761  11.570
32305W        W  523  33.929  21.359  12.953
32306W        W  524  14.711  22.734  11.125
32307W        W  525  42.896   2.993  12.206
32308W        W  526  33.466  20.780  13.482
32309W        W  527  23.593   9.464   4.098
32310W        W  528  22.554  17.494  10.752
32311W        W  529  24.271  44.952   1.200
32312W        W  530  34.910  34.618   1.905
32313W        W  531  30.156  42.571   3.230
32314W        W  532  17.540  12.432   0.735
32315W        W  533  43.238  21.613  14.308
32316W        W  534  25.370   8.291   3.742
32317W        W  535   5.968  30.549  14.016
32318W        W  536  12.915  21.258   0.538
32319W        W  537  36.096  17.692  13.889
32320W        W  538   3.915  32.481  12.105
32321W        W  539  20.468   8.623  12.053
32322W        W  540  18.500  32.056  12.979
32323W        W  541  34.016   1.670  13.524
32324W        W  542  14.427  21.134   4.911
32325W        W  543  43.765  38.289  11.083
32326W        W  544  42.598  33.521   1.731
32327W        W  545  35.902   3.960  14.923
32328W        W  546  18.846   9.576  12.344
32329W        W  547   2.284  20.026   4.709
32330W        W  548  33.917  32.051  13.916
32331W        W  549  21.028  33.893  12.895
32332W        W  550   7.890  40.066   4.931
32333W        W  551  43.222  31.634   1.102
32334W        W  552  15.362  33.971   1.693
32335W        W  553  35.818  35.405  12.866
32336W        W  554  14.161  31.575  12.467
32337W        W  555  36.847   5.355  11.615
32338W        W  556  31.455  27.457  12.455
32339W        W  557   4.753  37.116  10.352
32340W        W  558  26.481  26.586  11.638
32341W        W  559  28.509   2.366   1.214
32342W        W  560   8.767   6.296  13.617
32343W        W  561  27.012  26.786  11.946
32344W        W  562  31.896   0.815  13.948
32345W        W  563   1.237  28.313  12.833
32346W        W  564  17.159  27.043   0.277
32347W        W  565   1.377  20.051   4.613
32348W        W  566  22.121   0.072   0.951
32349W        W  567  38.126   0.281  10.297
32350W        W  568  20.129  23.526  11.593
32351W        W  569   0.778   5.182   2.450
32352W        W  570  37.155   5.340   0.909
32353W        W  571  31.860  11.329  11.184
32354W        W  572  38.044  44.611  11.573
32355W        W  573   7.199  35.448  12.881
32356W        W  574   0.758  42.231   0.525
32357W        W  575  30.051  38.301  11.132
32358W        W  576   2.004  17.000  14.332
32359W        W  577  39.367  42.422   1.246
32360W        W  578   5.710  39.109  12.078
32361W        W  579  11.412  21.988   0.863
32362W        W  580  29.074  29.990  14.918
32363W        W  581  36.341  37.722   0.924
32364W        W  582  31.199  38.982  10.588
32365W        W  583   1.227  39.892   0.703
32366W        W  584  20.738  41.981  14.550
32367W        W  585  43.984  19.265  11.906
32368W        W  586  41.012   0.348   0.443
32369W        W  587  24.783   8.105   2.878
32370W        W  588  37.880  26.003  12.485
32371W        W  589  41.800  37.781  14.336
32372W        W  590   9.156  27.701   0.051
32373W        W  591  21.854  18.710   2.169
32374W        W  592  26.329  29.684  12.006
32375W        W  593  40.421  42.431   1.391
32376W        W  594  35.377   9.790  12.939
32377W        W  595  38.575  28.070  12.947
32378W        W  596  37.604   7.695   0.372
32379W        W  597  29.519  13.699   4.528
32380W        W  598   5.358  31.147   1.192
32381W        W  599  33.653  34.916  11.521
32382W        W  600  30.050  42.851  11.508
32383W        W  601  37.441  25.493  11.129
32384W        W  602  41.095  19.023   3.681
32385W        W  603  18.083  15.251   4.654
32386W        W  604  26.996   3.766   3.334
32387W        W  605  10.256   1.335  12.538
32388W        W  606   9.651   1.498  13.458
32389W        W  607  32.365  32.002  13.007
32390W        W  608  13.112  35.736  11.238
32391W        W  609  34.012  29.891  11.392
32392W        W  610  12.614   3.020  10.722
32393W        W  611  13.330  17.629  11.522
32394W        W  612  30.482  43.751   3.207
32395W        W  613  18.686  28.996   2.460
32396W        W  614  25.632   0.248  13.477
32397W        W  615  43.023  39.845   2.706
32398W        W  616   7.444  42.418   2.223
32399W        W  617  16.663  33.434   4.778
32400W        W  618  43.886  18.060  12.439
32401W        W  619   7.164  30.946  12.107
32402W        W  620  33.620   5.996   3.804
32403W        W  621   3.281  15.866  10.704
32404W        W  622   8.423  13.355  11.586
32405W        W  623   9.795  17.624   0.746
32406W        W  624  14.403   2.098   3.709
32407W        W  625  17.641   1.498   2.204
32408W        W  626  36.479   6.695   3.316
32409W        W  627  28.023   2.984   4.054
32410W        W  628   3.698  15.629   4.483
32411W        W  629  26.060   2.848   1.135
32412W        W  630  18.244  12.656  14.375
32413W        W  631  25.005  43.108  11.138
32414W        W  632  39.766  42.392  12.963
32415W        W  633   1.246  10.190  13.270
32416W        W  634  17.749   5.930   2.290
32417W        W  635  10.609  32.839  12.601
32418W        W  636  31.784  32.043  12.604
32419W        W  637  43.357  21.137  12.961
32420W        W  638   6.186  39.778  14.841
32421W        W  639   0.960   3.414   1.333
32422W        W  640  12.627  30.506  13.525
32423W        W  641  42.990  33.317   3.115
32424W        W  642  23.951  42.979   4.236
32425W        W  643  43.533  39.384  10.874
32426W        W  644  41.925   7.518  10.742
32427W        W  645  10.748  40.890  10.706
32428W        W  646  39.571  40.385  10.659
32429W        W  647  27.154  30.220   3.195
32430W        W  648  29.003  21.668  14.371
32431W        W  649  17.109  44.268   3.276
32432W        W  650  38.980  40.498  11.923
32433W        W  651  37.759  23.823   4.747
32434W        W  652  13.253  10.112   4.232
32435W        W  653  14.330  18.200  14.924
32436W        W  654  31.523  27.618   4.302
32437W        W  655  21.848  27.117   1.834
32438W        W  656  38.545  15.659  10.984
32439W        W  657  35.355   2.309  11.008
32440W        W  658  22.028  29.397  13.953
32441W        W  659   0.022  33.757   2.839
32442W        W  660  25.568  29.424   2.758
32443W        W  661   5.282  38.400   1.167
32444W        W  662  11.195  26.297  12.721
32445W        W  663   1.671   8.860  11.479
32446W        W  664  29.050  14.781  12.699
32447W        W  665  31.038   0.950   3.397
32448W        W  666  41.787  37.366   3.268
32449W        W  667  40.325  11.179   1.343
32450W        W  668  10.860  36.062  13.603
32451W        W  669  30.651  44.779   1.930
32452W        W  670  41.245   1.232   0.226
32453W        W  671  32.560  43.937   1.804
32454W        W  672  11.856  41.011  13.810
32455W        W  673  27.804   8.753   2.659
32456W        W  674  38.754   3.318  10.764
32457W        W  675  32.507  44.825   0.416
32458W        W  676   6.623  26.467  10.799
32459W        W  677  44.071  15.471  12.371
32460W        W  678  18.751   7.954  14.931
32461W        W  679  19.002  38.779   1.758
32462W        W  680  23.264  13.603  14.387
32463W        W  681  25.621  19.231  13.583
32464W        W  682   8.303  30.942  14.356
32465W        W  683  29.445  19.144  11.974
32466W        W  684  31.558  37.988   2.212
32467W        W  685  15.203  23.222  11.497
32468W        W  686  24.151  10.627   1.346
32469W        W  687  18.972   3.381   2.168
32470W        W  688  39.867   9.702   1.144
32471W        W  689  14.406  15.720   2.844
32472W        W  690  35.748  17.674   1.878
32473W        W  691  21.388  27.322   1.783
32474W        W  692  16.283  29.141   2.823
32475W        W  693   5.875  15.555  14.359
32476W        W  694  27.195  27.671  11.040
32477W        W  695  32.096  37.091   4.995
32478W        W  696   7.929  42.732  10.625
32479W        W  697  39.073  16.874   3.660
32480W        W  698   3.779   2.722  12.485
32481W        W  699  21.537  11.412   1.722
32482W        W  700  33.660   7.154  13.640
32483W        W  701  13.275  14.777  13.401
32484W        W  702  39.102   1.445  13.031
32485W        W  703   3.103  17.137   2.092
32486W        W  704  44.029  19.373   3.289
32487W        W  705  36.298   7.615  11.146
32488W        W  706  25.180  19.520  10.661
32489W        W  707  20.017   4.636  14.280
32490W        W  708   6.608  29.879  13.466
32491W        W  709  40.187  37.984   0.442
32492W        W  710  40.582   7.233  12.480
32493W        W  711  23.595  36.793  11.565
32494W        W  712  25.460  36.940   3.262
32495W        W  713  21.364  36.265   9.741
32496W        W  714  30.693  26.938   0.407
32497W        W  715  37.301  23.234   0.171
32498W        W  716  38.630  18.544  12.559
32499W        W  717  29.166   6.324   1.930
32500W        W  718  32.383   5.309   2.729
32501W        W  719  30.052  37.253  11.258
32502W        W  720   2.486  25.702  10.731
32503W        W  721  41.727   4.303  11.131
32504W        W  722  10.123  14.711  14.420
32505W        W  723   2.898  22.983   3.296
32506W        W  724  22.616  37.782  14.465
32507W        W  725  11.956   8.185  13.390
32508W        W  726  31.386  35.351  11.098
32509W        W  727  29.842  23.978  12.943
32510W        W  728   9.354  10.228  12.382
32511W        W  729   7.197   2.477   4.556
32512W        W  730  18.890  21.700  12.433
32513W        W  731   7.690  35.009  12.584
32514W        W  732   4.973  40.218   1.276
32515W        W  733  21.894  13.142   4.143
32516W        W  734  26.486   5.697   4.549
32517W        W  735  19.596  34.798  13.868
32518W        W  736  30.575   5.308   2.298
32519W        W  737  12.797  20.527  11.256
32520W        W  738  26.714  11.803  10.358
32521W        W  739  18.061  36.608  10.262
32522W        W  740  28.712   6.722  10.959
32523W        W  741   0.291  41.800  12.347
32524W        W  742  40.299  40.320   1.902
32525W        W  743  29.022  25.310  12.948
32526W        W  744  30.880  11.190   0.139
32527W        W  745  37.463  14.647  10.832
32528W        W  746  36.682  38.054  13.484
32529W        W  747  25.571   5.716   2.195
32530W        W  748  22.130   8.424  12.373
32531W        W  749   6.379  23.424   3.274
32532W        W  750  33.564  20.715   0.308
32533W        W  751  13.251   8.615   1.641
32534W        W  752  25.315  26.887   2.842
32535W        W  753  33.864   5.420   1.037
32536W        W  754  40.178  16.718   1.865
32537W        W  755  44.582  16.733   1.303
32538W        W  756  21.412  16.369  14.687
32539W        W  757  13.025  10.866  11.910
32540W        W  758  30.495   1.742   0.184
32541W        W  759  25.197  12.345  11.941
32542W        W  760  26.533  38.743   4.268
32543W        W  761   2.780  28.649  13.541
32544W        W  762   6.262  22.589  10.763
32545W        W  763   8.908  26.054   4.753
32546W        W  764  40.548  19.821  11.660
32547W        W  765  17.622  27.924  14.352
32548W        W  766  37.087  27.119  14.872
32549W        W  767   1.816   0.002  13.075
32550W        W  768  17.643   8.748  11.399
32551W        W  769  12.924  13.080  14.920
32552W        W  770  42.326  16.792  12.902
32553W        W  771  15.605  37.501  13.346
32554W        W  772  11.328  43.114  10.726
32555W        W  773  18.991  41.254  12.830
32556W        W  774  31.843  44.011  13.050
32557W        W  775  43.199  16.192  14.531
32558W        W  776   8.478  15.718   1.862
32559W        W  777  30.043  30.640   4.183
32560W        W  778   8.398  37.092   1.257
32561W        W  779  28.952  25.184   4.125
32562W        W  780  15.384  39.942   0.332
32563W        W  781  42.751  14.134  11.835
32564W        W  782  41.745  21.465  13.967
32565W        W  783  35.372  15.358  14.012
32566W        W  784  24.016  13.377  11.488
32567W        W  785  25.517  33.934  12.962
32568W        W  786  19.707  14.839   1.741
32569W        W  787  31.019  29.685   2.489
32570W        W  788  33.162  34.965   2.840
32571W        W  789   3.897  42.647  10.238
32572W        W  790  24.689  24.244  14.243
32573W        W  791  33.844  32.017   3.723
32574W        W  792  38.970  10.442   0.016
32575W        W  793  11.807  38.110   2.855
32576W        W  794   3.465  32.611  13.608
32577W        W  795  32.039  26.984  14.329
32578W        W  796   5.582  39.370   5.556
32579W        W  797  23.242  35.875  10.646
32580W        W  798  34.214  23.433   0.404
32581W        W  799   7.214   6.230  10.720
32582W        W  800  24.709  22.622  13.095
32583W        W  801  28.176  16.968   3.247
32584W        W  802  25.621  23.989   3.278
32585W        W  803  16.723  37.422  14.936
32586W        W  804  37.683  20.312  11.090
32587W        W  805  25.837  33.923  12.182
32588W        W  806  24.206   0.467   1.216
32589W        W  807   6.952  10.659  10.698
32590W        W  808  25.519  26.494   1.314
32591W        W  809  12.315  23.116   1.065
32592W        W  810   8.836  40.162  13.023
32593W        W  811   7.748  22.028   0.078
32594W        W  812  42.837  32.622   0.041
32595W        W  813  13.418  20.647   0.145
32596W        W  814  18.747  19.039   3.662
32597W        W  815  29.778   8.724  14.724
32598W        W  816  15.062  43.468  11.146
32599W        W  817  28.685  17.831  11.129
32600W        W  818  17.063  35.489  14.814
32601W        W  819   9.140  38.110  12.075
32602W        W  820   9.701  30.098   2.367
32603W        W  821  12.675  34.395  13.073
32604W        W  822  35.573  23.566  14.722
32605W        W  823  29.071  11.729   1.169
32606W        W  824  44.336  39.368   5.089
32607W        W  825  29.539   2.468   0.271
32608W        W  826  14.551  23.236   2.718
32609W        W  827  37.297  20.546   0.831
32610W        W  828  21.681   2.662   2.104
32611W        W  829  28.118  19.981   3.662
32612W        W  830  30.683  20.008  10.692
32613W        W  831  17.380  20.513   1.824
32614W        W  832  44.304  23.761  10.857
32615W        W  833  23.114  23.714  13.866
32616W        W  834   1.085  38.080  12.569
32617W        W  835  44.530   9.704  13.521
32618W        W  836  40.126  14.616   0.532
32619W        W  837   9.991  25.759   3.165
32620W        W  838  39.387  25.464  11.702
32621W        W  839  43.262  13.129   1.799
32622W        W  840  32.990  37.355   4.447
32623W        W  841  19.527  44.021   0.864
32624W        W  842  42.800   2.515   4.072
32625W        W  843  39.518  33.642  10.734
32626W        W  844  13.087  14.141   1.414
32627W        W  845  40.305  38.773   2.717
32628W        W  846  22.236  10.705  12.933
32629W        W  847  15.669  39.660   0.707
32630W        W  848   6.372  36.351   4.792
32631W        W  849  39.024  25.326  10.222
32632W        W  850   6.089  25.991   0.532
32633W        W  851   0.739  23.606  11.554
32634W        W  852  25.083  17.502   4.765
32635W        W  853  23.036  36.556   2.717
32636W        W  854  22.646   4.432   0.941
32637W        W  855  36.203  22.734  13.659
32638W        W  856  35.053  31.362  10.906
32639W        W  857   2.793  14.875   3.309
32640W        W  858  39.619  39.006   4.786
32641W        W  859  27.797  19.646  12.385
32642W        W  860   0.026  18.838  14.430
32643W        W  861  23.584  40.559  11.520
32644W        W  862  43.520   2.337   3.356
32645W        W  863  26.046  15.446   0.811
32646W        W  864  27.673  43.267  12.244
32647W        W  865  31.448   2.287   9.902
32648W        W  866  38.595  30.391   1.940
32649W        W  867  43.430  34.715   3.313
32650W        W  868   4.961   8.807   4.149
32651W        W  869  33.410   6.761  12.482
32652W        W  870  22.516  20.632   4.551
32653W        W  871  27.900   9.958   3.704
32654W        W  872  36.439  35.995   2.860
32655W        W  873  35.840  21.211  10.644
32656W        W  874   2.405   9.694   2.785
32657W        W  875  26.451  43.271  12.516
32658W        W  876  39.857   4.456  10.680
32659W        W  877  21.037  25.962   4.150
32660W        W  878  21.103  26.197   2.852
32661W        W  879  11.685  34.029  11.527
32662W        W  880  12.725  21.764   4.598
32663W        W  881  42.816   7.380   3.887
32664W        W  882  17.149   4.030   2.600
32665W        W  883  36.114  26.593  13.328
32666W        W  884  15.081  43.714  13.141
32667W        W  885   4.007   9.678  10.939
32668W        W  886  16.345  32.637   1.393
32669W        W  887  12.447  10.286  13.652
32670W        W  888  19.970  26.392  13.556
32671W        W  889   4.970  34.875   0.967
32672W        W  890  12.199   7.765   3.339
32673W        W  891   0.175  32.601   0.354
32674W        W  892  15.685  13.407  12.172
32675W        W  893   4.546  15.064  13.464
32676W        W  894   4.398  42.845  13.368
32677W        W  895  41.596  23.112   3.774
32678W        W  896  32.961  30.164  10.445
32679W        W  897  40.490  42.911   4.022
32680W        W  898  18.294  44.268  14.508
32681W        W  899  40.749  21.438   2.465
32682W        W  900   0.786  36.026  11.581
32683W        W  901  32.573  24.665   0.809
32684W        W  902  26.224  24.187   4.556
32685W        W  903  22.119  40.003   2.452
32686W        W  904  21.985  18.790  14.245
32687W        W  905  38.113  21.563   0.186
32688W        W  906  34.543   8.770  14.125
32689W        W  907  12.243  21.061   4.118
32690W        W  908  13.308  21.098  11.576
32691W        W  909  15.802   2.993   9.974
32692W        W  910  37.524  39.888   2.905
32693W        W  911  39.592  19.594  14.542
32694W        W  912  36.541  23.552   2.334
32695W        W  913  21.529  44.567  13.482
32696W        W  914   7.717   3.892   3.718
32697W        W  915  12.768  38.403  12.116
32698W        W  916  34.845  19.108  11.190
32699W        W  917  25.637  21.470   1.498
32700W        W  918   7.961  41.393   3.520
32701W        W  919  29.668  41.766  12.107
32702W        W  920  24.621  35.833   1.916
32703W        W  921  35.386  43.184   0.859
32704W        W  922  12.583  29.465   3.260
32705W        W  923   8.572   9.747   0.413
32706W        W  924  37.999  38.331  12.258
32707W        W  925  28.958  31.186  10.812
32708W        W  926  14.688  29.806  11.254
32709W        W  927  38.669  18.803  10.205
32710W        W  928  19.199  31.211  12.311
32711W        W  929  14.803  12.156   3.447
32712W        W  930  33.247  21.636   1.909
32713W        W  931  40.797  17.379   0.917
32714W        W  932  39.612  19.836  12.600
32715W        W  933   9.079  40.701   2.683
32716W        W  934  42.810  10.223  14.770
32717W        W  935  33.337  37.586   3.129
32718W        W  936  11.559  15.821  11.700
32719W        W  937  44.943  27.696  12.072
32720W        W  938   5.193  44.431  10.667
32721W        W  939   0.170  41.839  14.484
32722W        W  940  19.285  39.106  10.900
32723W        W  941  31.400  16.688  10.203
32724W        W  942  38.352  10.721   4.797
32725W        W  943  18.327  36.157  10.224
32726W        W  944  41.360  19.826  13.880
32727W        W  945  31.407  18.139   4.490
32728W        W  946  42.442  38.505  10.950
32729W        W  947  33.085  34.351  11.147
32730W        W  948  26.499  15.635   1.975
32731W        W  949  14.803   9.896   3.249
32732W        W  950  23.195  38.068  11.561
32733W        W  951  18.777   2.948  13.239
32734W        W  952  43.301  35.916  12.489
32735W        W  953  42.867  22.903   3.167
32736W        W  954  23.962  31.458   3.824
32737W        W  955  40.816   5.670   4.112
32738W        W  956  11.419   0.179  14.657
32739W        W  957  43.420   8.597   1.397
32740W        W  958  25.753  26.977   0.524
32741W        W  959  18.551   8.614   1.894
32742W        W  960   1.840  21.256  13.330
32743W        W  961  26.523   4.243  12.429
32744W        W  962   6.824  12.922  11.282
32745W        W  963  38.585   7.410  11.044
32746W        W  964  26.131  23.452  12.044
32747W        W  965  24.583  43.396  11.194
32748W        W  966  33.505  34.668   0.330
32749W        W  967  12.384  34.032  14.761
32750W        W  968   4.458  14.305   1.866
32751W        W  969  15.543  39.570  14.409
32752W        W  970  43.168   3.675  12.603
32753W        W  971  37.183  30.930   0.838
32754W        W  972   3.080  11.445   3.172
32755W        W  973  40.934  21.741  14.570
32756W        W  974  29.693  41.401   3.158
32757W        W  975  36.390  30.914   0.515
32758W        W  976  19.340  14.851   4.155
32759W        W  977  30.651  14.598   4.566
32760W        W  978  27.949  18.757  14.761
32761W        W  979  36.842  16.201   4.563
32762W        W  980  22.096  25.365  12.167
32763W        W  981  44.327   7.765   4.105
32764W        W  982  38.448   8.074   3.313
32765W        W  983   0.357  27.423  12.923
32766W        W  984  29.662  35.970   0.260
32767W        W  985  12.333  25.476  14.767
32768W        W  986   2.444  38.037   0.731
32769W        W  987  15.467  39.946   2.469
32770W        W  988  14.517  34.106  10.566
32771W        W  989  10.168  13.820   4.805
32772W        W  990  38.506   9.147   2.285
32773W        W  991  16.515  26.718   1.363
32774W        W  992   2.173  24.576  13.826
32775W        W  993   3.587  17.701   0.942
32776W        W  994  16.313  18.176  13.581
32777W        W  995  25.562  23.996  14.733
32778W        W  996  22.066   4.505   4.876
32779W        W  997  28.219  40.322  13.043
32780W        W  998  41.773  16.774  12.955
32781W        W  999  29.860  13.524  11.550
32782W        W 1000  18.663  42.078   0.025
32783W        W 1001  17.668  44.015   3.244
32784W        W 1002  41.322   8.837   0.708
32785W        W 1003  35.926  19.747   2.388
32786W        W 1004  16.725  30.678   1.298
32787W        W 1005  11.762  16.744   0.276
32788W        W 1006  34.075  25.017   1.817
32789W        W 1007   0.281  30.410  14.444
32790W        W 1008  36.513  36.383   4.157
32791W        W 1009  37.883  20.081   4.256
32792W        W 1010  20.782  28.504   1.966
32793W        W 1011  25.779   8.380   4.592
32794W        W 1012  44.549  44.738   3.915
32795W        W 1013   6.169  15.735  12.383
32796W        W 1014  14.260  38.155  11.223
32797W        W 1015   2.656  21.729  12.034
32798W        W 1016  36.780  24.521  11.599
32799W        W 1017  31.092  29.607  12.590
32800W        W 1018  32.087  35.874  13.860
32801W        W 1019  20.583  24.041   1.003
32802W        W 1020   9.828  17.022  14.958
32803W        W 1021  30.264  18.505   2.702
32804W        W 1022  30.979  29.617  11.118
32805W        W 1023  41.508  24.771   0.451
32806W        W 1024   5.228  23.910  11.628
32807W        W 1025  10.860  37.954  11.584
32808W        W 1026  32.929  18.208  11.477
32809W        W 1027  24.328   9.202  13.366
32810W        W 1028  18.708   0.503   0.338
32811W        W 1029  28.151  44.652   5.059
32812W        W 1030   8.142  28.175  13.458
32813W        W 1031  21.655  37.691  10.635
32814W        W 1032  26.421  42.207   3.892
32815W        W 1033  38.640  29.144  14.477
32816W        W 1034  34.704  11.454   1.938
32817W        W 1035   4.035   5.631  10.633
32818W        W 1036   2.446   3.225  11.111
32819W        W 1037  14.646  42.029   5.368
32820W        W 1038   5.860  23.624  14.053
32821W        W 1039  17.764  11.566   2.612
32822W        W 1040  22.083  13.542   3.596
32823W        W 1041  27.971  18.058   2.379
32824W        W 1042  14.805  33.117  14.487
32825W        W 1043  19.209  36.934  14.482
32826W        W 1044  24.478  17.005   2.819
32827W        W 1045  26.572  35.547  11.257
32828W        W 1046  27.583  23.197  14.406
32829W        W 1047  11.115  14.680   4.343
32830W        W 1048   7.982  22.635  13.431
32831W        W 1049  26.971  33.003  11.090
32832W        W 1050   6.901  16.064   3.674
32833W        W 1051   1.505  43.299  11.008
32834W        W 1052  32.206  40.834  13.413
32835W        W 1053  21.144  12.826  10.130
32836W        W 1054  22.536  44.966  13.104
32837W        W 1055  23.727  17.508  11.124
32838W        W 1056   7.810  26.291  11.544
32839W        W 1057  18.174  20.519  12.130
32840W        W 1058  20.226   0.796  11.192
32841W        W 1059   0.248   1.410  14.458
32842W        W 1060  18.131  27.037  11.400
32843W        W 1061  19.192  28.327   4.502
32844W        W 1062  22.090   6.442   1.116
32845W        W 1063  24.933   6.555   3.142
32846W        W 1064  32.591  26.097  12.325
32847W        W 1065  31.389  19.432  14.464
32848W        W 1066  13.854  42.368   2.491
32849W        W 1067  37.039  44.837   4.957
32850W        W 1068   0.816  41.902   2.476
32851W        W 1069  31.560   0.033   0.348
32852W        W 1070   1.241  35.173   1.840
32853W        W 1071  36.566  28.105  14.305
32854W        W 1072  32.025   1.841  10.308
32855W        W 1073   1.388   5.199  11.076
32856W        W 1074  31.545  23.499  10.663
32857W        W 1075  31.525  34.956   3.186
32858W        W 1076  28.898  42.898  12.136
32859W        W 1077  32.590  34.318   3.918
32860W        W 1078  42.333  36.212   2.791
32861W        W 1079  22.010  31.981  11.634
32862W        W 1080   9.773  10.772  13.982
32863W        W 1081  29.503  36.490   3.594
32864W        W 1082  28.434  26.072  14.892
32865W        W 1083  41.352   3.487   2.452
32866W        W 1084  38.992  20.520  11.639
32867W        W 1085   5.364  18.233  14.324
32868W        W 1086  33.832   0.782   4.055
32869W        W 1087  23.145  20.279  10.533
32870W        W 1088  22.668  37.416   3.933
32871W        W 1089   0.401  10.710  10.787
32872W        W 1090  35.834  31.962   1.929
32873W        W 1091  44.128  10.777  13.449
32874W        W 1092   1.297  29.141   3.389
32875W        W 1093   8.179  13.992  12.909
32876W        W 1094  34.923  21.370   4.052
32877W        W 1095   1.393  10.619  11.105
32878W        W 1096  41.483   3.761  11.106
32879W        W 1097   8.769   5.698   1.868
32880W        W 1098  41.053  34.082   0.450
32881W        W 1099   0.041  29.998   1.706
32882W        W 1100  42.814  10.626   3.603
32883W        W 1101   5.305   9.626  10.935
32884W        W 1102  31.334  18.558  14.985
32885W        W 1103  29.648   1.006   3.623
32886W        W 1104   0.247  33.566   3.945
32887W        W 1105   6.450  12.878   0.278
32888W        W 1106  40.260  27.178  11.377
32889W        W 1107  29.874  34.615   3.676
32890W        W 1108  27.560  41.501  12.729
32891W        W 1109  18.169  28.468   2.626
32892W        W 1110  35.089  35.835  13.181
32893W        W 1111  27.521  34.829  11.144
32894W        W 1112  30.120  40.127   1.434
32895W        W 1113  20.352  15.272  14.224
32896W        W 1114  39.747  32.503  12.068
32897W        W 1115  39.990   6.525  14.528
32898W        W 1116  33.126  35.179   0.522
32899W        W 1117  17.855   3.299  13.779
32900W        W 1118  36.372  20.096   1.611
32901W        W 1119  41.985  34.543   4.667
32902W        W 1120  11.508  32.903   2.664
32903W        W 1121  37.384   8.380  14.077
32904W        W 1122   9.348  22.688   4.926
32905W        W 1123  32.177  22.928   3.939
32906W        W 1124  32.982   5.791  12.366
32907W        W 1125  41.442  22.856  11.577
32908W        W 1126  36.863   2.330   0.314
32909W        W 1127  25.012  31.648  14.901
32910W        W 1128  13.851  20.443   0.439
32911W        W 1129  37.618  22.022  13.876
32912W        W 1130  41.780  15.426   1.967
32913W        W 1131  32.997  40.871  12.581
32914W        W 1132  23.261  15.847   3.848
32915W        W 1133  34.286   4.712  14.519
32916W        W 1134  40.341   1.674  12.532
32917W        W 1135  14.037  41.378   3.190
32918W        W 1136  33.674   5.708   3.387
32919W        W 1137   3.237  37.949  14.305
32920W        W 1138  15.618  17.337  13.452
32921W        W 1139  42.478  28.238   2.425
32922W        W 1140   8.781   8.258   3.627
32923W        W 1141  19.577  39.792   3.893
32924W        W 1142  44.047  33.622   0.011
32925W        W 1143  27.436  20.790   1.163
32926W        W 1144   4.378   5.427  12.462
32927W        W 1145  28.994  11.978  12.469
32928W        W 1146  26.503   5.502   3.676
32929W        W 1147  10.245  15.220   4.767
32930W        W 1148   1.857  31.908  14.314
32931W        W 1149  10.856  14.242   1.031
32932W        W 1150  21.025  25.281   1.140
32933W        W 1151   5.935  23.077   0.353
32934W        W 1152  17.594  38.894  10.572
32935W        W 1153  44.861  22.591  12.030
32936W        W 1154  15.018  15.431   0.097
32937W        W 1155  40.891   5.137  14.981
32938W        W 1156  40.591  19.090   3.606
32939W        W 1157   8.431  17.481  11.291
32940W        W 1158  37.800  15.648   2.735
32941W        W 1159   3.219  26.358   3.336
32942W        W 1160  23.808  23.231   2.387
32943W        W 1161   3.495  40.879  14.790
32944W        W 1162  18.784  36.059   2.771
32945W        W 1163   0.412  25.639   3.295
32946W        W 1164  15.512  39.993   3.353
32947W        W 1165  23.671  41.593  11.376
32948W        W 1166  35.764  44.217  11.144
32949W        W 1167  22.705  44.882  14.762
32950W        W 1168  32.518  13.716   0.003
32951W        W 1169  17.260  28.203   1.771
32952W        W 1170  16.592  37.295  10.797
32953W        W 1171  14.447  11.135   3.168
32954W        W 1172   0.495  34.479   3.359
32955W        W 1173  28.609  36.715   4.102
32956W        W 1174   4.324  21.272  11.610
32957W        W 1175  14.242  35.424   1.909
32958W        W 1176   9.164  42.304   3.240
32959W        W 1177  44.888  21.474  12.166
32960W        W 1178  41.262  17.078   2.172
32961W        W 1179  36.823  37.191  11.190
32962W        W 1180  22.028   0.555   0.779
32963W        W 1181  44.536  39.743   2.797
32964W        W 1182  43.447  37.573  13.277
32965W        W 1183  42.494  26.484   3.106
32966W        W 1184  43.843  18.163  14.408
32967W        W 1185  30.498  29.485  10.969
32968W        W 1186  20.149   6.302   0.353
32969W        W 1187  40.362  43.416   4.856
32970W        W 1188  25.710  11.365   1.421
32971W        W 1189  43.342  23.119   3.178
32972W        W 1190  23.721  35.535   1.843
32973W        W 1191  41.946  40.955   0.455
32974W        W 1192  16.673  23.087   3.703
32975W        W 1193  27.963  15.832   2.657
32976W        W 1194  42.507  14.695   1.942
32977W        W 1195  28.954  27.158   2.697
32978W        W 1196  13.395  22.652   2.662
32979W        W 1197   9.059  12.584   0.398
32980W        W 1198  38.377   5.005  14.274
32981W        W 1199  18.844   4.031   1.746
32982W        W 1200  24.218  13.386   3.477
32983W        W 1201  19.287  30.025  10.752
32984W        W 1202  38.564  34.608  14.055
32985W        W 1203  13.294   4.527  13.797
32986W        W 1204  25.014  33.818   1.373
32987W        W 1205  32.176   2.959  13.525
32988W        W 1206  20.198  15.321  10.060
32989W        W 1207  35.984  38.114   2.374
32990W        W 1208   4.916   1.656   2.729
32991W        W 1209  15.945  25.283  13.408
32992W        W 1210   4.422  37.709  13.273
32993W        W 1211  14.133   1.053   0.955
32994W        W 1212  27.868  20.377  14.286
32995W        W 1213   5.162  34.972   4.180
32996W        W 1214  19.738  31.930  11.959
32997W        W 1215  16.443   5.349   4.776
32998W        W 1216  19.232  14.567   0.927
32999W        W 1217  22.630  10.715  13.899
33000W        W 1218  24.345  27.860  13.910
33001W        W 1219   5.921  38.434  14.230
33002W        W 1220  39.053  30.591  10.957
33003W        W 1221  23.103  22.953   1.750
33004W        W 1222  33.671  33.844   3.249
33005W        W 1223  13.160  44.045  13.550
33006W        W 1224  37.108   1.238   4.701
33007W        W 1225  31.546  31.692  14.043
33008W        W 1226   0.812  31.693   0.518
33009W        W 1227  29.809   6.054  13.283
33010W        W 1228   8.171  29.623   2.256
33011W        W 1229  43.860  14.595  12.191
33012W        W 1230  12.380  18.764   1.771
33013W        W 1231  14.147  28.957   0.312
33014W        W 1232  31.568  10.694  12.702
33015W        W 1233  19.030  31.364  14.783
33016W        W 1234  29.053  31.594   4.499
33017W        W 1235   2.096  17.076   2.841
33018W        W 1236  25.087  33.259   2.311
33019W        W 1237  37.117  27.506   3.805
33020W        W 1238  38.344  16.573   4.267
33021W        W 1239  32.634   1.869   0.459
33022W        W 1240  11.747   4.643   3.760
33023W        W 1241   7.964  25.037   1.667
33024W        W 1242  18.608  18.174   1.364
33025W        W 1243  29.092   8.244   1.932
33026W        W 1244   9.390  44.823   3.283
33027W        W 1245  17.718  13.332   3.403
33028W        W 1246  19.859  12.208  12.910
33029W        W 1247   3.495   1.250  10.693
33030W        W 1248   7.353  20.616   4.755
33031W        W 1249  38.670  40.591  11.513
33032W        W 1250  11.441   5.684  12.562
33033W        W 1251   6.860  44.521   2.118
33034W        W 1252  10.488  42.914   1.353
33035W        W 1253  31.983  27.657   0.747
33036W        W 1254  20.138  13.178   2.184
33037W        W 1255  10.614  43.221  11.088
33038W        W 1256  24.245  24.113   4.109
33039W        W 1257  25.144  22.330  13.932
33040W        W 1258  11.918   7.392   2.375
33041W        W 1259   3.862  12.812  13.486
33042W        W 1260  25.933  28.418   3.618
33043W        W 1261  18.718   0.710   5.003
33044W        W 1262  33.560   6.277  12.371
33045W        W 1263  20.386  23.247  11.965
33046W        W 1264  41.515  37.461  11.580
33047W        W 1265  13.655   7.816   1.948
33048W        W 1266  28.701  44.476  10.996
33049W        W 1267   9.671  41.001  10.679
33050W        W 1268   0.770   3.653  13.875
33051W        W 1269  37.390  28.884   0.910
33052W        W 1270  34.348  33.074  12.142
33053W        W 1271  20.742  20.133   0.021
33054W        W 1272  26.180  31.498  13.770
33055W        W 1273  13.167  15.112   4.592
33056W        W 1274  10.588  27.683  13.448
33057W        W 1275  24.970  28.891  11.109
33058W        W 1276  12.757  29.708  11.090
33059W        W 1277  43.315  13.606   4.770
33060W        W 1278   8.312   7.338  10.674
33061W        W 1279  24.251  44.942   4.174
33062W        W 1280  22.175  25.161  10.504
33063W        W 1281  16.292  29.691   2.245
33064W        W 1282  42.024  18.774   2.510
33065W        W 1283  17.174  35.631   3.311
33066W        W 1284   0.768  31.357   4.552
33067W        W 1285  27.841   3.345  13.803
33068W        W 1286  12.814  38.037  12.570
33069W        W 1287  32.548  42.103  12.066
33070W        W 1288   6.723   4.394  14.963
33071W        W 1289  44.113  31.568  11.198
33072W        W 1290  18.258  25.932  14.455
33073W        W 1291   7.119   9.848  14.321
33074W        W 1292  41.265  30.878  11.154
33075W        W 1293  16.756  23.255  12.133
33076W        W 1294  29.419  29.174   0.929
33077W        W 1295  36.891  24.700  13.923
33078W        W 1296  16.324  27.483   0.696
33079W        W 1297  24.549   8.065   2.413
33080W        W 1298  20.717  11.880  14.960
33081W        W 1299   3.287  35.899   0.731
33082W        W 1300  27.434  44.196  14.848
33083W        W 1301  29.254  18.266  13.972
33084W        W 1302  16.294   9.662  14.303
33085W        W 1303  43.259   8.155   3.018
33086W        W 1304  16.646  38.344   0.370
33087W        W 1305  31.093  43.408   0.765
33088W        W 1306  25.559  19.254   4.388
33089W        W 1307  27.119  25.882   0.950
33090W        W 1308  14.032  19.483  12.919
33091W        W 1309  42.154  17.401  12.499
33092W        W 1310  25.108  32.657   4.421
33093W        W 1311  44.364  29.018  13.795
33094W        W 1312  40.392  18.806   0.041
33095W        W 1313  14.726  27.873   2.768
33096W        W 1314   8.690   4.769   2.310
33097W        W 1315  17.343  15.101   0.925
33098W        W 1316  34.078  13.281   2.255
33099W        W 1317  21.517  40.019  13.933
33100W        W 1318  34.516   7.640  10.565
33101W        W 1319  40.503  40.431   0.067
33102W        W 1320  16.195  27.410   1.870
33103W        W 1321  13.684  10.303   2.790
33104W        W 1322  40.851  44.786  11.883
33105W        W 1323  28.942  34.788  11.132
33106W        W 1324  29.079  16.355   2.394
33107W        W 1325  19.448  12.463   1.748
33108W        W 1326  31.799  27.381   1.139
33109W        W 1327  18.084  43.344   3.206
33110W        W 1328  40.829  26.023   1.986
33111W        W 1329   5.938  28.552   2.735
33112W        W 1330  15.255  38.315   3.795
33113W        W 1331  20.772  22.642   3.366
33114W        W 1332  32.884  31.997  12.948
33115W        W 1333  24.306  18.659   2.738
33116W        W 1334   8.319  37.244   3.593
33117W        W 1335   3.413  30.949  12.046
33118W        W 1336  25.604  38.093   2.411
33119W        W 1337  14.768  15.465  13.687
33120W        W 1338  29.914  26.500  13.653
33121W        W 1339  16.967  40.645   5.145
33122W        W 1340   2.523  12.108   1.373
33123W        W 1341   1.914  20.151  11.935
33124W        W 1342   0.436  36.901  14.961
33125W        W 1343  35.088  36.996  14.031
33126W        W 1344  33.357  16.778   3.239
33127W        W 1345  35.889  17.920  11.607
33128W        W 1346   7.844  23.250   4.139
33129W        W 1347  12.037  15.617   1.858
33130W        W 1348   6.929  21.711   2.799
33131W        W 1349  26.012  41.974  11.386
33132W        W 1350  39.588  25.186  10.915
33133W        W 1351  43.061  22.234  11.622
33134W        W 1352  23.682   4.902  10.462
33135W        W 1353  27.159   0.939  13.853
33136W        W 1354   4.642  14.943   0.428
33137W        W 1355  23.475  25.988  13.572
33138W        W 1356  36.476  36.039  13.665
33139W        W 1357  11.772   5.276  12.563
33140W        W 1358  28.088  41.730   2.773
33141W        W 1359  22.010  22.468  11.846
33142W        W 1360  36.105   5.530  12.162
33143W        W 1361   4.380  17.744  13.479
33144W        W 1362  41.060   9.469  12.174
33145W        W 1363  18.592   2.203  14.007
33146W        W 1364  42.403  18.517  14.583
33147W        W 1365  26.749   6.646  11.498
33148W        W 1366  29.590  44.842   2.169
33149W        W 1367  19.282  36.459  10.720
33150W        W 1368  12.862   6.326   4.354
33151W        W 1369   8.135  44.013   4.229
33152W        W 1370  10.611  33.417  14.361
33153W        W 1371  25.231  35.625   2.781
33154W        W 1372   5.749  12.925  11.155
33155W        W 1373  10.282   0.777   1.938
33156W        W 1374   3.161   8.248   3.167
33157W        W 1375  17.527  11.598  12.553
33158W        W 1376  12.246  11.784  13.988
33159W        W 1377  41.386  26.500  11.434
33160W        W 1378  44.966   8.416  12.938
33161W        W 1379   1.838  26.253   1.724
33162W        W 1380  44.130   7.973   2.633
33163W        W 1381   5.295   7.347  10.654
33164W        W 1382  35.302  38.140   1.765
33165W        W 1383  32.085  25.183  12.972
33166W        W 1384  18.118  10.393  10.764
33167W        W 1385   7.845  28.123   3.626
33168W        W 1386  44.198  20.745  10.733
33169W        W 1387  15.867  42.244   3.713
33170W        W 1388  30.620  24.391  13.485
33171W        W 1389   6.011  33.296   2.289
33172W        W 1390  11.349  10.047   1.080
33173W        W 1391   2.037  20.596  14.714
33174W        W 1392  10.190  39.060  13.408
33175W        W 1393  11.411  25.607   4.369
33176W        W 1394  19.578  33.904   3.360
33177W        W 1395   6.193  22.051  14.321
33178W        W 1396  35.574  33.779  10.484
33179W        W 1397   6.290  42.206   0.970
33180W        W 1398  30.144  27.031  10.669
33181W        W 1399  44.794  43.759   2.269
33182W        W 1400  10.045   7.162   1.810
33183W        W 1401  18.316  13.681  12.888
33184W        W 1402   0.796   3.382  12.378
33185W        W 1403  42.308  25.660   3.073
33186W        W 1404  43.262   0.779   2.167
33187W        W 1405  24.544  13.778   3.621
33188W        W 1406  19.430  30.968   4.633
33189W        W 1407   9.915  24.972  11.593
33190W        W 1408  35.819  32.137  12.985
33191W        W 1409  22.031  13.653   2.325
33192W        W 1410  33.848  37.465   1.227
33193W        W 1411  21.489  25.187   1.945
33194W        W 1412  26.360  32.644  13.114
33195W        W 1413  24.261  26.138   3.309
33196W        W 1414  14.160  13.379   3.294
33197W        W 1415   2.291  18.021   0.898
33198W        W 1416  10.414  22.042   0.522
33199W        W 1417  44.794  39.775   3.262
33200W        W 1418  41.944  20.050   2.001
33201W        W 1419   8.069  29.523   0.521
33202W        W 1420  12.345  18.515  13.313
33203W        W 1421  20.626  24.005  12.923
33204W        W 1422  23.377  34.259   4.271
33205W        W 1423  39.496  27.448  11.975
33206W        W 1424   9.137  35.100   1.784
33207W        W 1425  10.923  25.292  13.403
33208W        W 1426  11.801  24.435   9.708
33209W        W 1427   1.757  20.235   1.170
33210W        W 1428  39.915  16.642  10.339
33211W        W 1429  41.251  30.370   4.191
33212W        W 1430   6.354  33.454   4.133
33213W        W 1431  12.014  32.715   0.004
33214W        W 1432  44.286  41.724   3.849
33215W        W 1433  39.199   6.890   1.891
33216W        W 1434  34.457  12.438   3.675
33217W        W 1435   2.875   6.970  11.309
33218W        W 1436  12.420  33.937   0.642
33219W        W 1437  37.892   6.802   2.193
33220W        W 1438  27.098  34.510  12.166
33221W        W 1439  38.843   5.182  14.105
33222W        W 1440   2.037  20.172   5.166
33223W        W 1441  15.296  37.240  11.114
33224W        W 1442  26.398  40.253   1.336
33225W        W 1443  26.144  38.375   0.794
33226W        W 1444  12.695  13.106  13.583
33227W        W 1445  30.055  33.642   0.944
33228W        W 1446  27.135  39.963   4.136
33229W        W 1447  29.031  39.097  14.994
33230W        W 1448  35.087   6.914  12.907
33231W        W 1449  41.971  20.510  14.056
33232W        W 1450  18.121  38.919  12.351
33233W        W 1451  35.524  39.369   1.473
33234W        W 1452  24.707  39.388  13.513
33235W        W 1453  16.789  14.428   0.789
33236W        W 1454  28.515  14.781  11.499
33237W        W 1455   9.633  38.386  10.956
33238W        W 1456  36.454  15.827   4.154
33239W        W 1457  38.954  23.352   3.708
33240W        W 1458  31.076  37.148  13.030
33241W        W 1459   6.289  16.269   5.377
33242W        W 1460  19.120  20.168   4.136
33243W        W 1461  40.164  43.850  14.444
33244W        W 1462   0.270   6.818   3.751
33245W        W 1463  29.414  22.651   0.774
33246W        W 1464  42.270  19.257  13.952
33247W        W 1465  39.303  24.090  14.779
33248W        W 1466  14.822   0.066   2.848
33249W        W 1467   6.565  23.667  12.488
33250W        W 1468  29.790  23.705  13.382
33251W        W 1469  17.107  25.055  14.296
33252W        W 1470  22.580  36.124  13.446
33253W        W 1471   2.568  41.105  14.565
33254W        W 1472  42.396  31.421   4.895
33255W        W 1473  31.963  37.794  13.921
33256W        W 1474  41.442   0.185   1.329
33257W        W 1475  10.837   2.876  13.071
33258W        W 1476  15.706  43.469  14.130
33259W        W 1477  24.798  25.934  10.554
33260W        W 1478  36.545  28.245   1.802
33261W        W 1479   5.210   6.972  11.923
33262W        W 1480   0.187  17.742  14.896
33263W        W 1481  11.748   9.431  11.403
33264W        W 1482  18.241  20.011   4.265
33265W        W 1483  15.851  40.445   4.198
33266W        W 1484  33.981   7.902  12.364
33267W        W 1485   2.830   3.950  13.471
33268W        W 1486  25.285  41.392   4.651
33269W        W 1487  24.533  35.412   2.310
33270W        W 1488  15.298  31.383   2.274
33271W        W 1489  31.186  30.052   2.174
33272W        W 1490  30.246  15.387  13.891
33273W        W 1491  24.222   1.360  12.626
33274W        W 1492  24.644  39.516  14.343
33275W        W 1493  40.255  35.815  12.452
33276W        W 1494   4.313  18.287  12.505
33277W        W 1495  24.986   1.355  11.643
33278W        W 1496  19.210  27.120   2.625
33279W        W 1497  36.788  26.745   1.343
33280W        W 1498  22.094  24.309   0.372
33281W        W 1499   5.116   5.954  13.073
33282W        W 1500   1.794   3.191  12.698
33283W        W 1501   4.988  33.387   1.551
33284W        W 1502  31.870  14.284   0.948
33285W        W 1503  31.540  34.060   3.368
33286W        W 1504  25.608  22.473   4.148
33287W        W 1505  41.985   9.788  11.946
33288W        W 1506  43.913   0.905   0.079
33289W        W 1507  40.905   6.169   0.862
33290W        W 1508  41.447   3.061  10.610
33291W        W 1509  20.812   0.808  12.550
33292W        W 1510  36.323  24.907  13.393
33293W        W 1511  15.686  40.464   3.217
33294W        W 1512  16.147  19.586   2.152
33295W        W 1513  33.867  21.046   0.797
33296W        W 1514   4.448  10.682   1.769
33297W        W 1515  32.444  41.756   0.046
33298W        W 1516   7.201  39.078   4.201
33299W        W 1517  42.339   0.852   0.321
33300W        W 1518  30.429  22.891  12.614
33301W        W 1519   4.709  33.052   2.318
33302W        W 1520  15.832  36.492   1.435
33303W        W 1521  28.683  10.029  10.656
33304W        W 1522  39.801  13.735  12.070
33305W        W 1523  15.557  31.574  11.316
33306W        W 1524  14.107   5.716   3.125
33307W        W 1525  19.284   1.924  12.956
33308W        W 1526  38.987  25.945   0.275
33309W        W 1527  28.686  44.903  11.607
33310W        W 1528   2.713  16.078   1.358
33311W        W 1529  33.114  32.970   2.443
33312W        W 1530  28.151  36.078  12.723
33313W        W 1531  28.903  34.485   1.724
33314W        W 1532  42.874  37.928   0.949
33315W        W 1533  25.604  26.513   3.269
33316W        W 1534  44.196  34.121  10.588
33317W        W 1535  24.329  42.296  11.694
33318W        W 1536  37.580  10.211  12.808
33319W        W 1537  39.881  42.736   2.831
33320W        W 1538   4.167  28.893   3.816
33321W        W 1539   2.775  23.991  10.350
33322W        W 1540   3.563   8.239  14.465
33323W        W 1541  27.437  41.107  11.587
33324W        W 1542  30.706   3.386   3.550
33325W        W 1543  39.962  18.712   3.330
33326W        W 1544  28.743  20.256  13.780
33327W        W 1545   8.170  38.469   0.453
33328W        W 1546   8.635   1.817   3.296
33329W        W 1547  30.542  24.181   4.134
33330W        W 1548  28.917  15.704  11.665
33331W        W 1549  17.671   2.885   4.797
33332W        W 1550  15.365  30.167  13.105
33333W        W 1551  34.880   7.153  11.125
33334W        W 1552  28.056   9.927  13.215
33335W        W 1553  40.031  37.336   0.716
33336W        W 1554   6.957  36.321   0.917
33337W        W 1555  24.787  26.058   3.251
33338W        W 1556   5.514   1.776   4.158
33339W        W 1557  28.190  18.690   0.211
33340W        W 1558  38.337  19.401  13.427
33341W        W 1559  43.708   2.938   4.181
33342W        W 1560  14.084   2.402   0.702
33343W        W 1561  31.588  42.098   0.246
33344W        W 1562  41.304  35.930  14.303
33345W        W 1563  32.887  20.978  13.912
33346W        W 1564   1.916   6.693  13.810
33347W        W 1565   6.839   0.842  14.191
33348W        W 1566   3.418  14.951   2.772
33349W        W 1567  35.463   8.296   1.090
33350W        W 1568  40.813  14.840  10.720
33351W        W 1569   3.450  23.185  11.148
33352W        W 1570  13.670  44.000  12.582
33353W        W 1571  28.729  41.194  11.198
33354W        W 1572  28.273  27.881  11.428
33355W        W 1573  12.366   4.176   0.169
33356W        W 1574  43.371  27.197  11.262
33357W        W 1575  30.004  20.385  13.383
33358W        W 1576  29.102   3.904   5.568
33359W        W 1577   9.365  16.285  12.575
33360W        W 1578  17.068   9.746   2.909
33361W        W 1579  40.854  16.132  13.711
33362W        W 1580  10.467  18.053   1.301
33363W        W 1581  27.512  18.170  11.183
33364W        W 1582  38.978  21.913  12.734
33365W        W 1583  39.257  15.715   4.520
33366W        W 1584   4.664  21.650  10.974
33367W        W 1585  36.422  25.954   2.737
33368W        W 1586  21.337  18.338   2.414
33369W        W 1587  40.470  15.615   5.008
33370W        W 1588   1.533  31.045   2.083
33371W        W 1589  34.953   6.735   0.054
33372W        W 1590  40.557  43.997  11.048
33373W        W 1591  23.258  10.244   0.056
33374W        W 1592  26.839  28.836   4.720
33375W        W 1593  25.779   4.374   2.233
33376W        W 1594  17.016  13.888   1.897
33377W        W 1595   9.604  24.945  10.320
33378W        W 1596  36.007  20.518   1.336
33379W        W 1597   4.720  28.130  10.777
33380W        W 1598  19.875  44.469   0.926
33381W        W 1599  27.540   0.256   2.726
33382W        W 1600  10.257  18.049   0.435
33383W        W 1601  36.089  40.400  11.424
33384W        W 1602  30.788  13.543   2.807
33385W        W 1603  32.001  32.814   1.848
33386W        W 1604  38.278  31.565   4.270
33387W        W 1605  17.864  30.989   3.291
33388W        W 1606  20.674  11.632  14.436
33389W        W 1607   1.321  30.811  14.367
33390W        W 1608  31.385  39.908   0.435
33391W        W 1609  26.714  35.171  10.892
33392W        W 1610  33.474  27.601  12.516
33393W        W 1611  28.142   4.328   3.702
33394W        W 1612  15.324  30.112  14.827
33395W        W 1613  33.393   8.923   0.795
33396W        W 1614  35.484  13.046   4.518
33397W        W 1615  38.097  21.754  14.312
33398W        W 1616   0.127  11.332  12.766
33399W        W 1617  19.967  40.360  11.692
33400W        W 1618   4.449  20.196   0.899
33401W        W 1619  32.856   4.645  14.326
33402W        W 1620   6.753  27.074  13.375
33403W        W 1621  36.538  39.476   1.402
33404W        W 1622  10.612  37.557  11.358
33405W        W 1623  14.571  29.398   2.213
33406W        W 1624  18.773  25.758   1.662
33407W        W 1625  30.697  27.923  11.546
33408W        W 1626  35.802  33.111  11.069
33409W        W 1627   5.327  13.355   3.304
33410W        W 1628   0.483  11.911  12.082
33411W        W 1629  10.811  22.676   4.388
33412W        W 1630   2.259  34.698  14.786
33413W        W 1631  32.606  30.817   3.817
33414W        W 1632   9.649   1.995  13.833
33415W        W 1633  41.512  35.966  10.417
33416W        W 1634   0.290  36.089   3.713
33417W        W 1635  44.073  29.457  12.515
33418W        W 1636   0.268   6.870   1.344
33419W        W 1637   5.640   3.309   2.783
33420W        W 1638  39.938  40.458   2.291
33421W        W 1639  33.985  10.765   3.887
33422W        W 1640   9.193  34.908  11.579
33423W        W 1641  40.215  42.868   0.030
33424W        W 1642   6.952  43.569  14.283
33425W        W 1643  21.701  22.068  11.630
33426W        W 1644  42.603  41.294  11.588
33427W        W 1645  28.599  39.944  10.747
33428W        W 1646  41.390  38.060  11.611
33429W        W 1647  12.922   4.870  13.960
33430W        W 1648  34.348  29.966   4.838
33431W        W 1649   7.908  39.927  12.858
33432W        W 1650  18.272  22.551   1.252
33433W        W 1651  37.542  23.742  12.960
33434W        W 1652  19.827  31.011   1.367
33435W        W 1653  12.293  39.855  14.988
33436W        W 1654  35.570  23.947  14.289
33437W        W 1655   1.513   9.262  12.417
33438W        W 1656  35.356   4.473   2.363
33439W        W 1657  42.724  25.951  12.408
33440W        W 1658  32.433  11.310   0.512
33441W        W 1659  25.049  42.315   3.604
33442W        W 1660   8.636  41.120  12.060
33443W        W 1661  41.877  27.151  13.383
33444W        W 1662  26.999   6.961   1.858
33445W        W 1663  30.266  37.499  14.534
33446W        W 1664  26.824  38.982   4.645
33447W        W 1665  30.108  22.542   3.774
33448W        W 1666  37.314  30.603  10.376
33449W        W 1667   7.734   6.770  10.727
33450W        W 1668   3.451  22.343   2.967
33451W        W 1669  34.899  21.467  12.513
33452W        W 1670  43.649  19.209   2.788
33453W        W 1671  16.647  23.184   4.806
33454W        W 1672  34.324  32.256   3.754
33455W        W 1673  16.299   1.661  14.527
33456W        W 1674   3.174  22.212   4.748
33457W        W 1675  26.026   9.845  12.342
33458W        W 1676  40.208   9.968   0.528
33459W        W 1677   2.881  24.665   4.621
33460W        W 1678  13.232  10.637   4.291
33461W        W 1679  25.666  29.413   4.061
33462W        W 1680  24.623   6.253  10.895
33463W        W 1681   9.327   7.275  10.953
33464W        W 1682  38.536  17.077   1.843
33465W        W 1683  40.741  36.845   3.692
33466W        W 1684  39.022  18.287  12.912
33467W        W 1685  20.168  14.821  13.618
33468W        W 1686   9.299  37.148  13.339
33469W        W 1687  10.751  28.753  13.320
33470W        W 1688  42.547   5.710   4.727
33471W        W 1689  28.392  41.890   3.216
33472W        W 1690  15.718  39.305   3.674
33473W        W 1691   4.431  21.276   1.017
33474W        W 1692  16.211   8.213   0.266
33475W        W 1693  26.868  43.801   3.688
33476W        W 1694  15.392  19.279   3.189
33477W        W 1695  42.308   9.271  14.455
33478W        W 1696  26.266  20.230  14.400
33479W        W 1697   8.275   5.304   4.572
33480W        W 1698  43.147  18.729  14.101
33481W        W 1699  35.887  21.770  14.023
33482W        W 1700  37.483  13.728  14.409
33483W        W 1701  23.067  24.604   1.444
33484W        W 1702  34.626  40.951  13.766
33485W        W 1703   1.694  11.798  14.908
33486W        W 1704  10.055  16.692  11.954
33487W        W 1705  11.910  14.278  14.729
33488W        W 1706  15.874  32.986  10.665
33489W        W 1707  33.880  34.728  12.846
33490W        W 1708  13.054  31.330   4.497
33491W        W 1709  41.995   4.837  11.153
33492W        W 1710  42.116  16.900   1.974
33493W        W 1711  34.653   9.706  13.360
33494W        W 1712  21.152  12.671   2.709
33495W        W 1713  28.977  41.127  13.784
33496W        W 1714  19.649  15.661  13.734
33497W        W 1715  21.181  15.510   4.908
33498W        W 1716   4.507  17.365  11.557
33499W        W 1717  30.872  35.099  12.036
33500W        W 1718  35.018  30.101  12.958
33501W        W 1719  15.231  37.975   4.211
33502W        W 1720  35.171  44.975  12.840
33503W        W 1721  22.646  13.585  13.341
33504W        W 1722  12.610  32.862   3.496
33505W        W 1723  18.169  27.363  14.794
33506W        W 1724   7.750  33.426  14.582
33507W        W 1725  13.138  36.873   0.416
33508W        W 1726   3.521  39.090   1.757
33509W        W 1727  35.359  25.594   3.700
33510W        W 1728  44.236  31.086  12.957
33511W        W 1729   9.119  18.693   3.337
33512W        W 1730  10.143  12.390  14.811
33513W        W 1731  15.426  20.703   1.901
33514W        W 1732  27.878  37.508   2.342
33515W        W 1733   8.814  44.940   3.628
33516W        W 1734  18.231  39.924  11.396
33517W        W 1735   8.441  34.607   3.234
33518W        W 1736  24.679  20.736  14.321
33519W        W 1737  29.670  34.893   1.329
33520W        W 1738  26.045  43.996  14.554
33521W        W 1739   8.161  25.700   2.690
33522W        W 1740  41.703  15.027  12.427
33523W        W 1741  31.078  23.431   4.022
33524W        W 1742  14.724  31.759  11.829
33525W        W 1743   3.347  36.367   2.947
33526W        W 1744  21.715   8.812   2.165
33527W        W 1745  22.744  21.735  14.758
33528W        W 1746   6.474   5.404   2.995
33529W        W 1747  12.320   9.639   3.316
33530W        W 1748   4.242  39.094  11.502
33531W        W 1749   9.533  41.910   3.221
33532W        W 1750  44.445  25.776  13.519
33533W        W 1751  34.861  44.776  13.791
33534W        W 1752  31.588   9.807   2.319
33535W        W 1753  21.609  16.667  10.950
33536W        W 1754  36.907  16.562  11.134
33537W        W 1755   4.922   5.754   2.805
33538W        W 1756  21.178   4.795   2.208
33539W        W 1757  29.276  27.060   3.783
33540W        W 1758  41.081   8.135  12.106
33541W        W 1759  30.633  13.841  14.178
33542W        W 1760  26.059  21.498   9.857
33543W        W 1761  32.001   6.624   4.863
33544W        W 1762   4.294   3.969  13.084
33545W        W 1763  12.074  14.593  12.904
33546W        W 1764   7.729  25.647   2.414
33547W        W 1765  33.817   5.763  10.192
33548W        W 1766  12.625  35.920  11.228
33549W        W 1767  43.941  41.999   3.268
33550W        W 1768   5.633  35.891   1.653
33551W        W 1769  32.406  42.329   2.890
33552W        W 1770  34.566  18.312  14.438
33553W        W 1771  39.414  14.783  14.974
33554W        W 1772  26.186  27.543  11.113
33555W        W 1773   1.275  41.937   4.743
33556W        W 1774   3.857  36.069  12.359
33557W        W 1775  39.805  37.069   0.323
33558W        W 1776  43.235  13.204   0.787
33559W        W 1777   2.793  37.854  14.027
33560W        W 1778  40.611  10.858  13.589
33561W        W 1779   6.199  37.998  13.957
33562W        W 1780   1.126  37.358  14.747
33563W        W 1781  34.151  11.929   2.265
33564W        W 1782  34.918  24.155   5.080
33565W        W 1783   2.783   0.074   1.203
33566W        W 1784  31.729   3.248  12.999
33567W        W 1785   8.256  40.889  11.011
33568W        W 1786  18.020  14.799   1.291
33569W        W 1787   9.697  41.559   2.679
33570W        W 1788  38.962  43.286   0.364
33571W        W 1789  22.594  14.562  13.438
33572W        W 1790  10.398  16.370   4.564
33573W        W 1791  11.523   0.538   2.184
33574W        W 1792  33.174  33.499   4.118
33575W        W 1793  24.452  16.233  10.583
33576W        W 1794  13.281  22.198   2.435
33577W        W 1795   5.073  27.433  13.441
33578W        W 1796  42.592  13.560  12.864
33579W        W 1797  32.092  43.970  13.533
33580W        W 1798  15.838  11.925  14.277
33581W        W 1799   3.874  35.888  10.492
33582W        W 1800  26.043  33.473   0.429
33583W        W 1801  34.675  16.754  12.277
33584W        W 1802  40.821  10.319  13.228
33585W        W 1803  31.512  14.225  12.035
33586W        W 1804  27.742  31.815   4.798
33587W        W 1805  39.014  35.029  10.909
33588W        W 1806  29.570   6.900  13.100
33589W        W 1807  30.350  23.545   0.363
33590W        W 1808  35.413   0.713  12.122
33591W        W 1809   1.170  42.950  12.624
33592W        W 1810  25.633   0.100  10.751
33593W        W 1811  28.317  38.167   1.003
33594W        W 1812   4.386  35.992   1.269
33595W        W 1813  42.887  15.700   1.277
33596W        W 1814  31.920  20.678   4.611
33597W        W 1815   4.777  35.409  11.642
33598W        W 1816  13.305   9.899   1.329
33599W        W 1817  37.088  21.705   0.433
33600W        W 1818  32.668   1.939  11.099
33601W        W 1819   5.957  25.494   1.964
33602W        W 1820   9.297  21.817   2.659
33603W        W 1821  12.207  30.015   3.016
33604W        W 1822  11.329  20.176   2.855
33605W        W 1823  12.598   5.098  11.590
33606W        W 1824   2.983  32.057   2.575
33607W        W 1825   5.020  44.890   2.931
33608W        W 1826  18.390  17.723  13.477
33609W        W 1827  37.827  17.242   1.169
33610W        W 1828  16.612   5.762  12.105
33611W        W 1829   7.042  36.013  14.372
33612W        W 1830  42.422  22.644  12.921
33613W        W 1831   3.342  34.033   0.305
33614W        W 1832  36.993  24.949   4.207
33615W        W 1833  42.797  42.248  11.574
33616W        W 1834  21.642   9.853  14.481
33617W        W 1835  29.483  33.960   3.728
33618W        W 1836  40.564  34.601  14.306
33619W        W 1837  39.651  25.133   0.430
33620W        W 1838  24.104  39.439  12.496
33621W        W 1839  41.808  33.518  10.382
33622W        W 1840  34.659  44.408  12.197
33623W        W 1841  23.553  13.161  14.233
33624W        W 1842   8.455  41.289   0.329
33625W        W 1843   6.802  27.726  14.086
33626W        W 1844  36.597  38.504   1.316
33627W        W 1845  26.686   0.489   4.599
33628W        W 1846  22.222  17.136   4.479
33629W        W 1847   9.067  43.842   0.601
33630W        W 1848   0.050   7.054   1.785
33631W        W 1849   9.349  13.685  12.515
33632W        W 1850   3.711  36.803   1.867
33633W        W 1851  30.348  23.753  14.238
33634W        W 1852  17.078  24.050  14.618
33635W        W 1853  26.969  23.614  11.191
33636W        W 1854  24.791  22.758   5.348
33637W        W 1855   6.817  16.295   1.797
33638W        W 1856   5.892  29.099  14.764
33639W        W 1857  43.875  27.267  11.389
33640W        W 1858  25.630  44.762   1.143
33641W        W 1859   8.765   7.814  12.947
33642W        W 1860  17.768  16.259  10.252
33643W        W 1861  33.299   9.274  11.136
33644W        W 1862  42.766  41.486   5.085
33645W        W 1863  18.515   1.512  12.416
33646W        W 1864   8.785  15.321  12.581
33647W        W 1865  39.690  26.619   2.106
33648W        W 1866  19.640  36.989   1.345
33649W        W 1867  27.899   8.100   0.012
33650W        W 1868   7.886   9.196  10.502
33651W        W 1869  10.198  34.842  10.567
33652W        W 1870   8.896  42.606  11.103
33653W        W 1871  28.491  30.857  10.694
33654W        W 1872   6.456  25.082  10.352
33655W        W 1873   3.370  25.801  12.059
33656W        W 1874   2.058  17.908   3.219
33657W        W 1875  36.464  38.034   3.440
33658W        W 1876  11.374  33.161  13.383
33659W        W 1877  22.207  40.329   0.174
33660W        W 1878   8.874  23.050  13.962
33661W        W 1879   5.546  21.237  12.909
33662W        W 1880  36.877   0.466   2.191
33663W        W 1881  32.014   2.372  14.872
33664W        W 1882  35.945   1.285  11.975
33665W        W 1883  36.078  19.986  12.747
33666W        W 1884   1.629  37.385  14.874
33667W        W 1885  39.606  28.018  14.339
33668W        W 1886  29.239  34.370  11.269
33669W        W 1887  33.133  25.397   4.237
33670W        W 1888  21.222  13.708  14.941
33671W        W 1889  15.318  10.141   1.267
33672W        W 1890  44.761  13.376   2.889
33673W        W 1891   0.227   0.930  10.736
33674W        W 1892  32.070  26.994   0.352
33675W        W 1893  14.969  35.846  12.579
33676W        W 1894   0.355  29.723   1.326
33677W        W 1895   8.068   4.226  13.075
33678W        W 1896  23.021  13.560  12.950
33679W        W 1897  40.628   9.176  12.128
33680W        W 1898  16.809  32.499  10.543
33681W        W 1899  28.681  36.108  14.476
33682W        W 1900  20.926  24.186  13.862
33683W        W 1901  42.359   9.274   4.841
33684W        W 1902  32.412  29.519   2.638
33685W        W 1903  14.017  29.282  12.600
33686W        W 1904  10.891   7.264   2.154
33687W        W 1905  39.799  41.192   2.800
33688W        W 1906   4.022  40.391   2.329
33689W        W 1907  15.122  27.518   2.796
33690W        W 1908   6.393  41.213  14.814
33691W        W 1909  42.885   4.205  12.901
33692W        W 1910  32.482  19.030   4.876
33693W        W 1911  36.161  17.161  11.126
33694W        W 1912  37.105  28.967  14.471
33695W        W 1913  26.011  35.106  14.848
33696W        W 1914   5.270  15.132   2.288
33697W        W 1915   3.729  31.874  13.392
33698W        W 1916   9.664  13.881   3.628
33699W        W 1917  22.667  19.313   0.843
33700W        W 1918  14.373  26.382   0.349
33701W        W 1919  26.650  38.949   3.773
33702W        W 1920  21.348   9.453  14.803
33703W        W 1921  12.757  10.459  12.076
33704W        W 1922  12.081  33.539   4.695
33705W        W 1923  36.591  26.774  12.619
33706W        W 1924  36.966  38.487  12.773
33707W        W 1925   6.655   5.075   2.636
33708W        W 1926  16.216  25.006   1.249
33709W        W 1927  41.330   2.242  11.037
33710W        W 1928  42.656  36.988  12.375
33711W        W 1929  28.071  30.645  13.395
33712W        W 1930  17.210  28.508  12.824
33713W        W 1931  18.160  31.169  11.716
33714W        W 1932  39.023  19.191   4.564
33715W        W 1933   6.663   1.813  10.486
33716W        W 1934  25.251  43.518   3.828
33717W        W 1935  36.900  15.760   0.567
33718W        W 1936  32.254  14.704  11.147
33719W        W 1937   4.756  13.110  12.748
33720W        W 1938  41.493  13.824   3.890
33721W        W 1939  12.889  11.400  11.057
33722W        W 1940  34.351  21.093   3.225
33723W        W 1941  35.680  34.075  12.672
33724W        W 1942  12.915  25.553   0.848
33725W        W 1943  44.973  12.882   2.847
33726W        W 1944  27.077  14.064  12.625
33727W        W 1945  25.238  36.636   2.877
33728W        W 1946  34.038  39.921  13.874
33729W        W 1947  14.812  36.433   2.905
33730W        W 1948  25.575  16.853  12.422
33731W        W 1949  44.513  22.680  14.792
33732W        W 1950  28.951   3.477  11.571
33733W        W 1951   2.973   2.479   2.144
33734W        W 1952  36.936  34.771   3.095
33735W        W 1953  41.921  19.256   1.370
33736W        W 1954   4.649  27.236   2.758
33737W        W 1955  40.668   8.669   4.121
33738W        W 1956  33.665  16.126   0.391
33739W        W 1957  20.059   7.958  13.959
33740W        W 1958  22.992  12.053   0.360
33741W        W 1959  10.942   8.732   4.271
33742W        W 1960   9.932  39.351  13.869
33743W        W 1961  31.968   2.671   0.896
33744W        W 1962  18.271  21.123   2.938
33745W        W 1963  38.612   4.077   0.525
33746W        W 1964  39.443   5.850   2.838
33747W        W 1965  22.172  14.736   2.402
33748W        W 1966  10.344  21.632   1.398
33749W        W 1967  11.684  13.855  13.831
33750W        W 1968  31.820  13.482  11.435
33751W        W 1969  13.069   8.762  12.825
33752W        W 1970  42.670  14.127  13.637
33753W        W 1971  19.399  11.029  11.013
33754W        W 1972  19.117  28.964   1.398
33755W        W 1973  28.970  16.181   3.803
33756W        W 1974  39.817  32.533  10.886
33757W        W 1975  33.419   2.301   3.535
33758W        W 1976  38.728  41.723  14.815
33759W        W 1977  24.053   8.703  14.436
33760W        W 1978   1.447   3.765  13.433
33761W        W 1979  20.578  30.987   4.010
33762W        W 1980  22.283  40.883   4.037
33763W        W 1981  29.232   9.548   4.238
33764W        W 1982  31.529   1.990  12.414
33765W        W 1983   0.510  38.981  10.562
33766W        W 1984  24.075  10.667  10.380
33767W        W 1985   2.468  44.746  14.821
33768W        W 1986   8.369  21.184  12.434
33769W        W 1987   9.414  25.204  13.344
33770W        W 1988   8.278  18.876  10.153
33771W        W 1989  10.197  29.028   3.620
33772W        W 1990  10.398  25.555  14.279
33773W        W 1991  34.651   4.636  10.530
33774W        W 1992  20.547   2.466   2.289
33775W        W 1993  44.824  30.518  12.422
33776W        W 1994  14.538  19.634  12.930
33777W        W 1995  13.359   7.443   0.292
33778W        W 1996  15.230   7.934  11.924
33779W        W 1997  14.154  32.885  12.079
33780W        W 1998   7.950  18.749   0.883
33781W        W 1999  11.399  29.012  13.273
33782W        W 2000  37.821   7.376  14.984
33783W        W 2001  35.400  13.594   4.584
33784W        W 2002  18.834  17.655   4.268
33785W        W 2003  14.595  42.450  12.638
33786W        W 2004   0.080   1.234   2.432
33787W        W 2005  30.551  44.932  11.978
33788W        W 2006   0.505  26.440  12.824
33789W        W 2007   1.231  21.749   4.554
33790W        W 2008   3.623  33.311   1.649
33791W        W 2009  31.833   8.651   2.427
33792W        W 2010  26.642   1.652  13.836
33793W        W 2011  23.541   1.826  11.489
33794W        W 2012  35.881  27.454   2.717
33795W        W 2013   7.777  26.431   0.817
33796W        W 2014   9.953  23.125  10.603
33797W        W 2015  22.029   5.892  14.388
33798W        W 2016  11.872  41.070   2.720
33799W        W 2017  27.846  26.966  13.873
33800W        W 2018   0.532  13.394  11.665
33801W        W 2019   1.024  33.081   3.294
33802W        W 2020  21.238   7.172  10.161
33803W        W 2021  33.792  38.284  14.309
33804W        W 2022  29.243  39.315  13.835
33805W        W 2023  20.542   0.324  11.605
33806W        W 2024  27.792  21.595  11.268
33807W        W 2025  17.368  10.234   0.686
33808W        W 2026  16.513   3.304  14.039
33809W        W 2027  44.368  19.731  14.884
33810W        W 2028  16.110  41.816  12.120
33811W        W 2029  41.296  21.601  11.577
33812W        W 2030  26.471  42.995  13.824
33813W        W 2031   5.861   2.777  14.030
33814W        W 2032   6.361  43.738   2.174
33815W        W 2033   5.672  18.027   5.117
33816W        W 2034  18.843  14.270   0.793
33817W        W 2035  13.661  17.616   3.665
33818W        W 2036   6.140  43.521   9.918
33819W        W 2037   0.818  18.084  13.796
33820W        W 2038  33.503  13.251  13.134
33821W        W 2039  10.825  27.471   0.345
33822W        W 2040  34.234  21.316   1.920
33823W        W 2041  24.880   8.869  10.872
33824W        W 2042  14.709  14.350  14.906
33825W        W 2043   8.361  28.289  14.346
33826W        W 2044  27.151  34.744  14.556
33827W        W 2045  15.129  27.868  14.427
33828W        W 2046   7.643  42.993  13.016
33829W        W 2047  12.541  31.671   2.087
33830W        W 2048   8.404  36.332   3.735
33831W        W 2049  25.506  27.750   2.306
33832W        W 2050   3.919   4.153   1.889
33833W        W 2051  22.239  20.529  11.914
33834W        W 2052  11.094   5.822   3.188
33835W        W 2053  21.797  35.645  14.725
33836W        W 2054  24.462  16.521  11.008
33837W        W 2055  10.342  13.601   0.501
33838W        W 2056  25.252  27.610  14.814
33839W        W 2057  44.557   3.430   0.328
33840W        W 2058   7.200  35.258  14.864
33841W        W 2059  19.647  25.249  14.977
33842W        W 2060  11.664  12.925   4.424
33843W        W 2061  42.643  41.507   0.421
33844W        W 2062   1.981  40.296   3.606
33845W        W 2063  16.707  14.344   4.280
33846W        W 2064  26.237  14.005  11.047
33847W        W 2065  38.742  36.573  13.105
33848W        W 2066  10.436  37.382  10.647
33849W        W 2067  40.969  20.173  13.934
33850W        W 2068  34.339  12.500  13.369
33851W        W 2069  27.138   4.957   4.200
33852W        W 2070  12.132  10.172  11.015
33853W        W 2071  38.436  38.020  13.403
33854W        W 2072  14.620  40.120   3.552
33855W        W 2073  27.127  30.914  12.984
33856W        W 2074  16.346  31.034  14.755
33857W        W 2075  30.098   2.407  12.940
33858W        W 2076  20.488  28.669  10.743
33859W        W 2077  23.647  17.616  14.510
33860W        W 2078  23.531  10.463  13.520
33861W        W 2079   7.410  25.077  14.254
33862W        W 2080  26.435  26.106  13.782
33863W        W 2081   4.546  10.055  12.382
33864W        W 2082  44.667  13.595  11.434
33865W        W 2083  33.396  29.712   3.758
33866W        W 2084  21.525  38.465  12.187
33867W        W 2085  10.799  21.677  11.736
33868W        W 2086   6.789  44.519   2.633
33869W        W 2087  32.938  11.874   0.999
33870W        W 2088   7.944   2.051   4.928
33871W        W 2089  17.862  32.324   1.239
33872W        W 2090  38.817  40.725   0.963
33873W        W 2091  29.126   7.316   1.806
33874W        W 2092  41.464  10.333  13.684
33875W        W 2093   4.963   8.000   5.217
33876W        W 2094  39.790  22.166  10.954
33877W        W 2095  26.059  24.650   1.181
33878W        W 2096  12.399  17.864  12.139
33879W        W 2097   9.401  41.892   2.245
33880W        W 2098  26.088  24.626   3.627
33881W        W 2099  30.906   6.077  11.990
33882W        W 2100  16.216  24.109   0.860
33883W        W 2101  42.815  32.085  11.989
33884W        W 2102  27.170  13.370   0.260
33885W        W 2103   2.170  40.946  10.734
33886W        W 2104  15.724  10.666   1.298
33887W        W 2105  29.477   5.356   2.205
33888W        W 2106  16.655  23.741  13.031
33889W        W 2107  11.221  44.311   2.413
33890W        W 2108  28.288  24.275  10.436
33891W        W 2109   9.715  26.342   3.829
33892W        W 2110  19.290   1.219  14.857
33893W        W 2111  23.924   0.945   1.900
33894W        W 2112  26.968  21.746  12.384
33895W        W 2113   8.322  44.292   1.726
33896W        W 2114  22.628   2.308   1.771
33897W        W 2115  38.725   0.572   5.132
33898W        W 2116   2.170  39.822   3.610
33899W        W 2117  12.049   7.166  11.616
33900W        W 2118  23.954  36.352  13.403
33901W        W 2119  42.730  25.104  13.554
33902W        W 2120  14.009  13.875   1.724
33903W        W 2121   4.763  17.969   2.680
33904W        W 2122  31.136  10.056   2.408
33905W        W 2123  27.593  13.267   2.297
33906W        W 2124  24.674  10.692   1.374
33907W        W 2125  18.034  17.610   4.852
33908W        W 2126  35.307  15.513   0.393
33909W        W 2127  17.018  34.486   0.718
33910W        W 2128   4.425   0.258  13.947
33911W        W 2129  33.132  26.143  12.147
33912W        W 2130  40.004  29.230  14.746
33913W        W 2131  18.159  44.332  11.228
33914W        W 2132  31.343  28.690   2.802
33915W        W 2133  42.388  33.797   3.386
33916W        W 2134  42.459   0.345   0.457
33917W        W 2135   5.669  14.767  12.491
33918W        W 2136  20.116  38.017  13.112
33919W        W 2137  39.527  43.750  13.018
33920W        W 2138  13.556   0.828   0.312
33921W        W 2139   2.454   2.428  13.860
33922W        W 2140  12.431  12.884   3.637
33923W        W 2141  16.170  10.666   2.021
33924W        W 2142  23.405   3.300  10.264
33925W        W 2143  15.106  26.004   3.287
33926W        W 2144  18.989  19.322  14.958
33927W        W 2145  11.912  12.227  12.845
33928W        W 2146   8.633  20.732  12.431
33929W        W 2147  35.607  20.261   4.574
33930W        W 2148   8.222  14.515  12.951
33931W        W 2149  19.080  26.286  10.704
33932W        W 2150  28.933   1.701   3.817
33933W        W 2151  27.165  29.903  12.973
33934W        W 2152   8.598  34.452  11.098
33935W        W 2153  24.973  16.278  10.630
33936W        W 2154  16.789  15.842  11.946
33937W        W 2155   3.949  42.537  12.711
33938W        W 2156  32.597  17.477  11.019
33939W        W 2157  23.958  34.628  12.014
33940W        W 2158   8.863  15.649  10.833
33941W        W 2159  43.967  38.339  13.302
33942W        W 2160  38.936  16.239   2.873
33943W        W 2161  33.291  18.534   2.826
33944W        W 2162   1.950  23.906  10.726
33945W        W 2163   2.381  26.226   1.851
33946W        W 2164  40.405  17.057   1.163
33947W        W 2165   9.948   8.203  10.990
33948W        W 2166   4.147  37.041   2.168
33949W        W 2167  24.274  19.040  14.391
33950W        W 2168  43.332  12.290   1.444
33951W        W 2169  23.759  42.068  14.001
33952W        W 2170   0.939  41.446   4.588
33953W        W 2171  18.023  16.764   2.899
33954W        W 2172  25.809  13.629  14.317
33955W        W 2173  39.139  31.146   0.107
33956W        W 2174   6.916  37.458   1.327
33957W        W 2175  13.580   1.712   1.330
33958W        W 2176  11.834  13.753   0.942
33959W        W 2177  28.669   7.324   0.110
33960W        W 2178  37.468  18.331   2.571
33961W        W 2179   8.224   5.899   3.311
33962W        W 2180   2.691  13.577   3.922
33963W        W 2181  28.428  13.556   2.169
33964W        W 2182   6.403  28.166  13.983
33965W        W 2183  19.155  13.315  12.602
33966W        W 2184  41.433  21.243   0.913
33967W        W 2185  21.447  17.674  11.479
33968W        W 2186   3.916  19.553  14.722
33969W        W 2187  38.776  44.411   2.384
33970W        W 2188  16.872  37.540   4.383
33971W        W 2189  12.085  41.469   4.847
33972W        W 2190  17.364  14.833   0.222
33973W        W 2191  20.979  44.750   1.825
33974W        W 2192  11.063  23.950  13.361
33975W        W 2193  28.104  10.608   4.307
33976W        W 2194  14.536   6.929  14.516
33977W        W 2195  34.846  42.788  13.487
33978W        W 2196  27.837   4.399   1.305
33979W        W 2197   4.072  18.226  11.963
33980W        W 2198  37.637  38.913  14.388
33981W        W 2199  34.129  37.960   2.349
33982W        W 2200  28.668  33.070  11.869
33983W        W 2201   3.169   0.827   3.628
33984W        W 2202  18.218  33.858   4.207
33985W        W 2203  12.338   0.413   3.542
33986W        W 2204  37.032  34.523   1.750
33987W        W 2205  11.597  15.043   2.677
33988W        W 2206   7.363  22.777  14.547
33989W        W 2207   0.478  21.445   1.400
33990W        W 2208  27.712   2.667   4.338
33991W        W 2209  44.884  12.839  11.917
33992W        W 2210   8.911  20.258   3.622
33993W        W 2211   8.465  22.137  12.626
33994W        W 2212  17.135   6.644   2.329
33995W        W 2213   8.844   2.484  10.584
33996W        W 2214  12.865  40.058  13.835
33997W        W 2215  44.391   3.944   2.305
33998W        W 2216  44.344  28.940   1.946
33999W        W 2217  28.708  34.835  14.081
34000W        W 2218  16.637  17.233   2.595
34001W        W 2219  18.600   1.822  11.169
34002W        W 2220   6.290  35.899  10.284
34003W        W 2221  20.242   6.930   2.771
34004W        W 2222  24.743  40.093   4.961
34005W        W 2223  24.332  37.383  11.402
34006W        W 2224  34.882  31.844  13.958
34007W        W 2225   9.625   5.768   3.098
34008W        W 2226  27.964  43.481  11.596
34009W        W 2227  39.458  31.898  12.195
34010W        W 2228   5.267  31.623   1.450
34011W        W 2229  21.172  20.012   4.320
34012W        W 2230  24.419   2.278   1.767
34013W        W 2231  36.078  22.708  11.510
34014W        W 2232  19.686  40.943   0.100
34015W        W 2233  41.590  20.371   2.180
34016W        W 2234  13.608  38.049  10.666
34017W        W 2235  33.936  36.521   1.236
34018W        W 2236  24.667   7.964  14.266
34019W        W 2237   5.240   3.863   4.040
34020W        W 2238  35.927  20.261   1.831
34021W        W 2239  31.253   8.446   1.708
34022W        W 2240  10.756   9.508   4.991
34023W        W 2241  33.965  30.997   1.698
34024W        W 2242  26.566  11.973   2.816
34025W        W 2243  17.150  13.095  11.021
34026W        W 2244  28.953  42.540   1.376
34027W        W 2245  42.365  26.248   1.036
34028W        W 2246  21.457  36.503  13.827
34029W        W 2247  12.205  19.212  11.770
34030W        W 2248  27.039  44.053  14.513
34031W        W 2249  28.161  35.409  11.949
34032W        W 2250  14.744  35.833  12.117
34033W        W 2251  35.100  17.624  14.278
34034W        W 2252   6.805   9.189   0.491
34035W        W 2253   4.291  19.377   1.510
34036W        W 2254  22.296  10.715   3.634
34037W        W 2255   2.293  35.290  12.126
34038W        W 2256  15.608   7.588  11.920
34039W        W 2257  23.105  24.645   3.243
34040W        W 2258  28.188  30.536   4.556
34041W        W 2259  11.230  27.939   4.766
34042W        W 2260  11.647  39.265  13.510
34043W        W 2261  31.684  13.047  13.303
34044W        W 2262  36.272  30.700  10.314
34045W        W 2263  42.896   9.043  12.459
34046W        W 2264  32.536   1.782  10.244
34047W        W 2265   9.880  32.612   0.809
34048W        W 2266  13.705  35.389  11.037
34049W        W 2267  36.315  33.980   0.688
34050W        W 2268   1.683  28.714   3.696
34051W        W 2269   8.450  15.635   0.345
34052W        W 2270  34.443  10.170   3.339
34053W        W 2271  36.255  18.884   1.197
34054W        W 2272  33.045  43.890  12.058
34055W        W 2273  35.784  27.624  12.863
34056W        W 2274  23.645  32.682  12.592
34057W        W 2275   4.478  20.671   3.546
34058W        W 2276   2.049  27.093   3.221
34059W        W 2277  24.168  30.145  13.340
34060W        W 2278  18.005  31.084  10.885
34061W        W 2279  30.347  42.086   4.776
34062W        W 2280  16.749  40.300  11.680
34063W        W 2281  38.817  22.005   1.273
34064W        W 2282  21.127  29.376  14.793
34065W        W 2283  21.233   7.695   4.133
34066W        W 2284  10.673   5.463  12.076
34067W        W 2285  32.180  39.807  11.714
34068W        W 2286  12.163  13.388  14.963
34069W        W 2287  37.525  28.092  13.046
34070W        W 2288  42.439  35.867  13.834
34071W        W 2289  44.837  27.131  11.200
34072W        W 2290  31.108   6.495   0.794
34073W        W 2291   7.670  44.318   0.918
34074W        W 2292  10.919   6.585  11.134
34075W        W 2293  31.731  39.023  10.624
34076W        W 2294  36.318   2.030   4.635
34077W        W 2295   5.765  36.475  13.371
34078W        W 2296  31.484  44.706  11.059
34079W        W 2297  21.301  26.544  14.967
34080W        W 2298   5.375  10.589   3.800
34081W        W 2299  23.964  39.639   4.092
34082W        W 2300  21.770   7.417  14.464
34083W        W 2301  29.097   5.262   5.017
34084W        W 2302  20.579  35.117  12.311
34085W        W 2303  44.592  13.911   1.260
34086W        W 2304  42.798   6.930  11.918
34087W        W 2305  12.663  22.989   4.122
34088W        W 2306   9.275   6.273  11.513
34089W        W 2307  44.901  15.102  12.083
34090W        W 2308  11.060  35.093   4.520
34091W        W 2309  43.980  31.419   2.381
34092W        W 2310  42.463  14.779   0.921
34093W        W 2311  18.178   3.438  13.399
34094W        W 2312  44.022  16.634   0.337
34095W        W 2313  13.781  37.261  12.565
34096W        W 2314  10.810   7.236  14.764
34097W        W 2315  26.608  20.569  14.033
34098W        W 2316  34.463  18.329   2.403
34099W        W 2317  43.353  37.347  12.826
34100W        W 2318  16.509  24.218  13.290
34101W        W 2319  42.894  26.955   0.740
34102W        W 2320  29.918   3.199   3.260
34103W        W 2321  42.831  14.149   1.259
34104W        W 2322  35.976   9.047  13.923
34105W        W 2323  22.812  16.493  10.182
34106W        W 2324  14.188  12.665   0.285
34107W        W 2325  29.643  16.276  13.332
34108W        W 2326  27.285   6.313  13.321
34109W        W 2327  17.035   8.887   2.679
34110W        W 2328  31.729  11.350  12.823
34111W        W 2329  22.502  34.818  14.370
34112W        W 2330  41.075  14.309   3.296
34113W        W 2331  43.259   3.978  11.675
34114W        W 2332  40.877  26.192  13.734
34115W        W 2333  21.703   3.243  13.438
34116W        W 2334   4.274  39.972   3.575
34117W        W 2335  33.426  30.084   3.358
34118W        W 2336  17.673  24.668   4.651
34119W        W 2337  38.041  31.944  14.692
34120W        W 2338   8.753  11.488   3.250
34121W        W 2339   8.597  17.101   3.539
34122W        W 2340  39.521   4.979   1.390
34123W        W 2341  21.034  25.207  14.796
34124W        W 2342  22.277  15.323   3.566
34125W        W 2343   5.388  20.024  10.738
34126W        W 2344  23.067  39.438  13.456
34127W        W 2345  10.321   1.741  14.400
34128W        W 2346  12.405  33.049   1.335
34129W        W 2347   1.827  20.970   4.944
34130W        W 2348  10.096   7.303  11.931
34131W        W 2349  43.373  39.342  11.353
34132W        W 2350  35.504  33.515  12.828
34133W        W 2351  17.073   0.589   1.700
34134W        W 2352   9.630  18.898  14.687
34135W        W 2353  21.947   3.129  12.924
34136W        W 2354  39.313  26.045  13.886
34137W        W 2355  16.028  18.605   0.419
34138W        W 2356  26.963  29.935  10.502
34139W        W 2357  15.265  42.737  14.740
34140W        W 2358  19.100  22.188   4.173
34141W        W 2359  22.489  12.145   4.863
34142W        W 2360  41.438  40.827   0.286
34143W        W 2361   8.417  35.847   2.408
34144W        W 2362  30.516  40.248  11.242
34145W        W 2363  21.045   6.217   3.138
34146W        W 2364   3.394  40.225   2.724
34147W        W 2365  36.088  20.724   4.192
34148W        W 2366  19.207   7.213   4.533
34149W        W 2367  10.305   3.784  13.914
34150W        W 2368   7.304   9.860  14.809
34151W        W 2369   4.958  17.289   3.184
34152W        W 2370  25.182  40.516  14.675
34153W        W 2371  30.444   3.921   3.422
34154W        W 2372  41.328  43.133   3.682
34155W        W 2373   4.261  36.958  11.644
34156W        W 2374  15.079  34.574  13.002
34157W        W 2375   1.938  16.536   2.253
34158W        W 2376  39.818  32.626   0.294
34159W        W 2377  25.712  32.048   1.266
34160W        W 2378  22.211  23.991  13.593
34161W        W 2379  19.497  33.330  11.178
34162W        W 2380  23.469  17.066   0.368
34163W        W 2381  20.052  41.328   2.332
34164W        W 2382  23.797  40.260  11.147
34165W        W 2383  35.780  42.012  13.360
34166W        W 2384  37.128   5.385  12.067
34167W        W 2385  21.140   2.889   0.446
34168W        W 2386   4.872  18.881   3.155
34169W        W 2387  33.517  33.364  13.780
34170W        W 2388  22.142   9.592   0.212
34171W        W 2389  34.557   6.597   3.138
34172W        W 2390  27.868  36.611   4.534
34173W        W 2391  37.655   1.278   3.765
34174W        W 2392  22.498  20.461  14.381
34175W        W 2393  34.445  43.448  13.539
34176W        W 2394  12.759  29.418  10.612
34177W        W 2395  29.079   6.265  12.930
34178W        W 2396  16.042  43.707   4.622
34179W        W 2397  27.036   5.177  10.431
34180W        W 2398   0.162  10.683  13.987
34181W        W 2399  27.883  22.561   0.816
34182W        W 2400  31.543   5.228   0.835
34183W        W 2401  36.837  20.672  12.500
34184W        W 2402  32.513  37.470  14.589
34185W        W 2403  36.903  17.207   1.523
34186W        W 2404  39.848  15.230  13.292
34187W        W 2405  40.750   3.825   4.285
34188W        W 2406  29.460  22.202  10.747
34189W        W 2407  10.426  36.833   3.096
34190W        W 2408  30.389  34.995   4.654
34191W        W 2409  26.198  42.077  10.921
34192W        W 2410  10.238  27.164  10.923
34193W        W 2411  15.644  35.515  11.513
34194W        W 2412  19.394   7.147  11.594
34195W        W 2413   3.843  25.032   4.998
34196W        W 2414   2.747  22.143  12.650
34197W        W 2415  16.866  35.542   2.497
34198W        W 2416  12.559  42.849   2.451
34199W        W 2417  11.171  33.156  11.556
34200W        W 2418  16.345  37.600  11.485
34201W        W 2419  28.609   0.509   0.300
34202W        W 2420  10.341  42.085   2.289
34203W        W 2421   5.656  16.044  13.549
34204W        W 2422  27.204  34.886   4.073
34205W        W 2423  11.078   3.832   3.629
34206W        W 2424   3.187   1.810   0.965
34207W        W 2425   7.370  44.375   0.391
34208W        W 2426  41.212  42.974   4.560
34209W        W 2427   8.807  26.745   4.082
34210W        W 2428  37.066  32.600  12.083
34211W        W 2429  22.369  28.436  12.537
34212W        W 2430  36.094  36.813   2.336
34213W        W 2431  13.206  34.463   2.618
34214W        W 2432  13.045  28.117   0.365
34215W        W 2433  17.609   8.696  10.357
34216W        W 2434   4.184  40.904   1.731
34217W        W 2435  24.794   9.901  13.730
34218W        W 2436   7.969  24.591   0.999
34219W        W 2437  18.092  13.071   1.816
34220W        W 2438  13.619   3.742  10.471
34221W        W 2439   7.582   4.416   4.177
34222W        W 2440  22.263   8.167  11.053
34223W        W 2441  21.134  19.570   0.722
34224W        W 2442  25.247  35.851  13.722
34225W        W 2443   5.163  16.307  11.052
34226W        W 2444  27.735   8.546   0.253
34227W        W 2445   1.341  21.930  11.209
34228W        W 2446  36.929  24.169  11.978
34229W        W 2447  24.072  10.420  11.135
34230W        W 2448  25.409  31.595   2.019
34231W        W 2449  21.075  19.379  10.412
34232W        W 2450  30.179  13.596  11.991
34233W        W 2451  23.629  31.132  14.350
34234W        W 2452  39.114  28.600   0.913
34235W        W 2453  29.962  13.814  12.438
34236W        W 2454  15.784  18.193   3.934
34237W        W 2455   9.061  40.454   0.548
34238W        W 2456  23.546   2.853  12.345
34239W        W 2457  24.704  36.306  12.095
34240W        W 2458   0.840   7.320   0.712
34241W        W 2459  44.579  13.062  10.748
34242W        W 2460  28.434  14.173   2.856
34243W        W 2461  20.040   5.669  11.153
34244W        W 2462  38.020  33.140  14.358
34245W        W 2463  33.584  36.626  13.051
34246W        W 2464  33.073  34.984   3.675
34247W        W 2465  10.003  18.950   1.431
34248W        W 2466  20.721  40.264  11.067
34249W        W 2467  18.638  16.390  13.459
34250W        W 2468  39.274  33.690   2.196
34251W        W 2469  21.858  34.376   3.623
34252W        W 2470  44.275  26.235  14.156
34253W        W 2471  33.497  38.547   3.220
34254W        W 2472  34.066  32.345   4.655
34255W        W 2473   3.953  12.581   3.272
34256W        W 2474  38.850   5.037   4.232
34257W        W 2475  11.919  37.345  12.509
34258W        W 2476  10.623  33.010  11.516
34259W        W 2477  23.335  32.263  10.511
34260W        W 2478   2.966  30.205  10.698
34261W        W 2479   4.940  36.504   3.249
34262W        W 2480  27.153  17.680  11.061
34263W        W 2481  37.957  11.607   3.574
34264W        W 2482  19.733  14.117   0.174
34265W        W 2483  13.754  43.171  12.817
34266W        W 2484   7.507  44.188   1.747
34267W        W 2485  31.421   3.093  10.310
34268W        W 2486  16.595  18.364   1.283
34269W        W 2487  41.957  32.036  12.488
34270W        W 2488   0.994   9.054  10.723
34271W        W 2489  23.219  20.297   1.812
34272W        W 2490  19.519   6.191   4.072
34273W        W 2491  31.078   1.513  13.071
34274W        W 2492  29.485   8.649  13.273
34275W        W 2493  44.262  32.276   0.354
34276W        W 2494  26.200  44.877   1.894
34277W        W 2495  41.498  38.923   2.252
34278W        W 2496  34.471   5.781  13.869
34279W        W 2497  42.294  32.324   1.373
34280W        W 2498   0.316  44.975  12.092
34281W        W 2499   0.450  43.784   1.359
34282W        W 2500  20.249  19.550  14.774
34283W        W 2501  24.231  19.252   0.817
34284W        W 2502  25.040  19.101   1.370
34285W        W 2503  29.139   4.400   1.727
34286W        W 2504  29.596  10.141  10.946
34287W        W 2505  38.937  35.437   9.977
34288W        W 2506  34.601  34.426   0.593
34289W        W 2507  39.882  29.985   2.471
34290W        W 2508   4.950  30.688  14.239
34291W        W 2509  29.564  17.880   0.784
34292W        W 2510  37.264  28.485  12.877
34293W        W 2511  22.062   9.893  10.418
34294W        W 2512  17.354  32.436   1.362
34295W        W 2513  29.686  44.866  14.858
34296W        W 2514  31.336  14.059   4.749
34297W        W 2515  38.303  22.060   1.355
34298W        W 2516   3.666   1.497  11.946
34299W        W 2517  12.768  14.244   1.858
34300W        W 2518  31.527  11.582  12.077
34301W        W 2519  44.272  43.446   3.259
34302W        W 2520  43.057  21.920  12.255
34303W        W 2521  32.058  44.481   5.005
34304W        W 2522   2.885  32.923  12.195
34305W        W 2523  30.935  16.229   4.149
34306W        W 2524  33.146  43.577  11.635
34307W        W 2525  16.668  44.738  14.933
34308W        W 2526   0.035  33.024  14.539
34309W        W 2527  16.306  36.519  13.983
34310W        W 2528  26.365  15.680  12.240
34311W        W 2529  30.895  13.029  10.680
34312W        W 2530  13.358  12.733   4.435
34313W        W 2531  32.522  41.553   3.420
34314W        W 2532  11.358  16.195   1.728
34315W        W 2533  19.648   8.829   1.223
34316W        W 2534   9.802  29.389   3.722
34317W        W 2535  33.449  30.771  13.448
34318W        W 2536  11.720  17.621   2.687
34319W        W 2537   8.923  20.474  12.083
34320W        W 2538  28.332  16.486   3.180
34321W        W 2539   9.360  22.415   1.485
34322W        W 2540  20.243  40.962  13.320
34323W        W 2541   2.301  30.471   4.768
34324W        W 2542  40.552   4.415   1.600
34325W        W 2543  11.773  13.441  12.091
34326W        W 2544   5.970   6.413  11.437
34327W        W 2545   0.250  14.070   5.158
34328W        W 2546  40.667  26.221  14.232
34329W        W 2547  21.174  23.998   3.302
34330W        W 2548  37.140  38.896  14.505
34331W        W 2549   6.392  40.980   2.234
34332W        W 2550   7.816  36.367  14.354
34333W        W 2551  10.409  41.488   4.074
34334W        W 2552  24.457   1.430  14.459
34335W        W 2553  20.225  10.441   0.019
34336W        W 2554  22.752  15.660   5.162
34337W        W 2555   0.994   6.104   3.614
34338W        W 2556   7.972  40.713   4.544
34339W        W 2557  39.882  11.108  14.001
34340W        W 2558  30.055   2.750   1.435
34341W        W 2559  33.846   9.805  12.492
34342W        W 2560  38.006  13.124   1.855
34343W        W 2561  29.680  40.355  11.724
34344W        W 2562  13.753  31.876   0.834
34345W        W 2563  14.629   4.848   3.377
34346W        W 2564  16.605   0.689   1.911
34347W        W 2565  24.846  11.752   2.020
34348W        W 2566  20.743  22.549   1.458
34349W        W 2567   8.811  11.101   2.476
34350W        W 2568  43.228   8.115   1.327
34351W        W 2569   5.419  29.188  11.171
34352W        W 2570  24.693  28.633   3.272
34353W        W 2571  17.348   2.967   0.818
34354W        W 2572   6.296  35.613  11.526
34355W        W 2573  21.537  24.414  14.686
34356W        W 2574  35.563  20.652   3.227
34357W        W 2575  16.053   8.750   3.744
34358W        W 2576  10.336  10.373  12.387
34359W        W 2577  24.141  18.600   1.379
34360W        W 2578  23.327  18.759   0.825
34361W        W 2579   7.642  26.044  13.658
34362W        W 2580  44.769  41.908   0.975
34363W        W 2581  23.714  24.309   1.350
34364W        W 2582  27.279   8.802   2.676
34365W        W 2583   9.634  42.000   0.785
34366W        W 2584   1.745  42.457  12.062
34367W        W 2585  29.461   3.216  14.393
34368W        W 2586  43.470  10.097   4.604
34369W        W 2587   4.910  22.138   2.326
34370W        W 2588  32.348  11.302  11.877
34371W        W 2589  43.467  23.102  11.110
34372W        W 2590  11.207   2.430  13.098
34373W        W 2591  35.926   8.556  12.569
34374W        W 2592  42.289  40.853  14.921
34375W        W 2593   5.021  11.653   1.971
34376W        W 2594  21.163  30.075   4.568
34377W        W 2595  25.066   7.376   4.612
34378W        W 2596  17.339  35.852  10.778
34379W        W 2597  22.237  26.226   0.370
34380W        W 2598  19.673  33.567  11.583
34381W        W 2599  25.525   1.037  10.761
34382W        W 2600  14.870   4.239  14.813
34383W        W 2601   5.634  15.224   2.870
34384W        W 2602  14.676  32.685   0.367
34385W        W 2603  12.182  20.531  13.875
34386W        W 2604  18.409  12.047   0.861
34387W        W 2605  17.438  28.547   4.034
34388W        W 2606  22.691  20.783   1.045
34389W        W 2607  37.376  41.099   1.735
34390W        W 2608  43.848  23.238   3.699
34391W        W 2609  20.232  16.680  12.101
34392W        W 2610  17.140  41.204  12.754
34393W        W 2611   8.170  38.236   3.584
34394W        W 2612  39.648  15.083  14.587
34395W        W 2613   5.911  28.694   4.344
34396W        W 2614   0.884   8.453   3.765
34397W        W 2615  43.604  22.296  13.814
34398W        W 2616  14.709  30.186   1.887
34399W        W 2617  18.518   4.373   1.492
34400W        W 2618  33.816   4.860  14.298
34401W        W 2619  22.501  31.268  11.666
34402W        W 2620  35.949  12.487   4.627
34403W        W 2621   8.407   7.775   2.315
34404W        W 2622  44.366  36.021  14.316
34405W        W 2623  38.978   5.674   3.698
34406W        W 2624   6.528  10.032   2.667
34407W        W 2625  18.025  21.212   2.492
34408W        W 2626  34.457  31.840  14.269
34409W        W 2627  38.461  25.649   0.724
34410W        W 2628   3.824   0.732  12.570
34411W        W 2629   6.191  42.302   3.367
34412W        W 2630  26.902  22.006   1.849
34413W        W 2631  42.902  40.077   3.421
34414W        W 2632  39.477  31.743  13.511
34415W        W 2633   0.567  39.996  12.155
34416W        W 2634   3.118   5.980  10.112
34417W        W 2635  36.286   7.032   3.662
34418W        W 2636  10.404   6.703   1.140
34419W        W 2637   1.970  43.888   4.437
34420W        W 2638  39.875  26.714  11.702
34421W        W 2639  25.664  12.769  11.070
34422W        W 2640  22.382  34.253   1.843
34423W        W 2641   5.454  36.587   3.680
34424W        W 2642  28.400  16.075   1.158
34425W        W 2643   9.137  18.732  13.781
34426W        W 2644   9.715  20.454  11.146
34427W        W 2645   8.384  32.726   3.329
34428W        W 2646  14.236  34.950   2.086
34429W        W 2647  17.740  43.596  14.434
34430W        W 2648   3.160  32.470   0.410
34431W        W 2649   8.794   3.049   4.658
34432W        W 2650  38.287  26.002  13.925
34433W        W 2651  15.638  43.991  12.685
34434W        W 2652  19.802  35.370   2.300
34435W        W 2653  18.846  32.556   0.254
34436W        W 2654   6.944  10.100   2.365
34437W        W 2655  11.058  32.435   4.279
34438W        W 2656  37.501  26.878   2.835
34439W        W 2657  22.746  40.595  13.867
34440W        W 2658  33.250  28.069  14.656
34441W        W 2659  37.902  14.863  10.629
34442W        W 2660  17.051  14.178   1.159
34443W        W 2661  42.293  34.088   2.921
34444W        W 2662   5.389  34.583   1.779
34445W        W 2663  37.297  38.093  12.810
34446W        W 2664  44.467  10.809   1.891
34447W        W 2665   6.205  19.242  12.493
34448W        W 2666  26.604   5.103   3.347
34449W        W 2667  25.027  29.136  12.450
34450W        W 2668  19.346   2.318   0.842
34451W        W 2669  43.826   4.784  13.537
34452W        W 2670  13.725  23.999   2.709
34453W        W 2671   5.281  10.695  13.365
34454W        W 2672  27.934  24.604   0.993
34455W        W 2673  28.094  20.797   4.683
34456W        W 2674  11.856  42.793   0.150
34457W        W 2675  22.543  37.355  13.033
34458W        W 2676  32.535  11.430  10.373
34459W        W 2677  40.059  36.069  10.902
34460W        W 2678  22.790  32.393   0.095
34461W        W 2679  18.674  28.393  11.314
34462W        W 2680  34.822  40.017   2.295
34463W        W 2681  28.639  21.826   1.208
34464W        W 2682  16.325  28.430   1.931
34465W        W 2683   2.365  19.259  12.083
34466W        W 2684   3.479  18.812  14.493
34467W        W 2685  39.833   9.680   1.660
34468W        W 2686  42.492  20.106   4.726
34469W        W 2687  16.405  13.087  11.554
34470W        W 2688  18.154  32.657  12.381
34471W        W 2689   8.619  38.761  14.017
34472W        W 2690   3.371  14.889  14.863
34473W        W 2691  40.003  12.737   2.222
34474W        W 2692   8.400  44.082  13.988
34475W        W 2693  12.602   8.934   2.706
34476W        W 2694  22.175  16.469  14.740
34477W        W 2695  39.935  16.635   4.690
34478W        W 2696  15.560  34.313  14.257
34479W        W 2697  39.856   2.525   3.579
34480W        W 2698  23.028  12.317   2.199
34481W        W 2699  34.113   8.981  13.926
34482W        W 2700  28.717  40.902  10.773
34483W        W 2701  14.138   2.830  12.523
34484W        W 2702  40.295  36.275   0.433
34485W        W 2703  17.173  31.784   1.056
34486W        W 2704  39.881  35.281  13.014
34487W        W 2705  16.667  18.779   4.931
34488W        W 2706  19.087   2.202  12.472
34489W        W 2707   6.288   7.440  14.468
34490W        W 2708  40.525   3.874   2.467
34491W        W 2709  26.595  41.835  13.523
34492W        W 2710  18.636  29.479  11.381
34493W        W 2711  40.932  25.775   0.025
34494W        W 2712  32.611  23.764   3.132
34495W        W 2713  12.767  13.605   1.231
34496W        W 2714  30.331  17.715   0.003
34497W        W 2715   2.865  17.586  14.244
34498W        W 2716   4.657  16.168  11.000
34499W        W 2717  18.238   8.797   4.546
34500W        W 2718  39.366  43.640   1.931
34501W        W 2719   2.380  39.254   2.765
34502W        W 2720  32.316  20.658   3.216
34503W        W 2721  22.455  25.982   2.608
34504W        W 2722  21.681  26.482  11.612
34505W        W 2723  41.355  15.278  13.892
34506W        W 2724  25.248  27.883  13.126
34507W        W 2725  18.274  35.653  12.048
34508W        W 2726  40.782  40.897   0.631
34509W        W 2727  30.513  28.614   3.406
34510W        W 2728  32.434  10.821  10.692
34511W        W 2729  36.605  31.325   1.371
34512W        W 2730  25.607   4.182   4.262
34513W        W 2731  10.389  32.002   1.399
34514W        W 2732  31.112  32.496   4.691
34515W        W 2733  10.782   2.256   3.297
34516W        W 2734  38.769  24.069  14.835
34517W        W 2735  29.963  22.100   1.796
34518W        W 2736  16.793  42.629   3.673
34519W        W 2737  24.240  31.468   0.877
34520W        W 2738  24.580  31.722  12.233
34521W        W 2739  30.664  23.591  11.608
34522W        W 2740   0.455   6.581  13.051
34523W        W 2741  33.076  13.482  12.941
34524W        W 2742  43.975  13.100  13.831
34525W        W 2743  34.512  25.127  12.926
34526W        W 2744  12.314  40.378   3.067
34527W        W 2745  35.783  11.561  14.976
34528W        W 2746   3.375   2.501  13.847
34529W        W 2747  37.970  15.114   0.625
34530W        W 2748  38.901  17.298   2.722
34531W        W 2749  36.328  39.573  13.721
34532W        W 2750  37.269  18.557   1.214
34533W        W 2751  43.064   1.555  12.710
34534W        W 2752  39.919  25.550   1.036
34535W        W 2753   5.358  41.956  13.258
34536W        W 2754  44.429  38.855   0.419
34537W        W 2755  34.500  15.746  13.096
34538W        W 2756  21.723  25.475   0.705
34539W        W 2757  18.947  12.657   0.453
34540W        W 2758  27.863  38.475   2.429
34541W        W 2759   6.861  38.313   1.828
34542W        W 2760   1.303   3.973   0.292
34543W        W 2761  28.922  22.326  10.200
34544W        W 2762  29.225  43.302  10.500
34545W        W 2763  15.374  12.189  14.482
34546W        W 2764  13.303   8.629  11.912
34547W        W 2765  29.732  31.900   4.590
34548W        W 2766  12.723  39.444  13.071
34549W        W 2767  43.926  39.355   3.914
34550W        W 2768  29.431  17.421  10.715
34551W        W 2769  31.337   6.256   0.202
34552W        W 2770   6.407  39.479  13.507
34553W        W 2771  29.097  10.063   4.186
34554W        W 2772  21.231  13.711   1.848
34555W        W 2773  12.701  29.850   2.953
34556W        W 2774   6.826  37.061   2.206
34557W        W 2775  28.867  12.389   2.266
34558W        W 2776   7.517  14.511  13.553
34559W        W 2777   3.517  33.041  10.573
34560W        W 2778  40.284   6.745   3.600
34561W        W 2779  44.307  24.301   0.536
34562W        W 2780  28.138  17.819  14.897
34563W        W 2781  21.888   5.088   3.348
34564W        W 2782   9.626  34.339  14.336
34565W        W 2783  34.154  16.716  12.180
34566W        W 2784  39.493  41.558   1.007
34567W        W 2785  30.289   5.604  11.635
34568W        W 2786  26.171  14.525  12.645
34569W        W 2787  13.303   6.215  10.824
34570W        W 2788  11.293  22.347  11.953
34571W        W 2789  10.993  19.061  14.691
34572W        W 2790  42.947  25.103   0.440
34573W        W 2791  15.453  15.784  10.976
34574W        W 2792   0.469  31.756   4.028
34575W        W 2793  18.358  13.204  12.649
34576W        W 2794  22.810  37.649  13.386
34577W        W 2795   7.246  42.397  12.363
34578W        W 2796  32.597  23.726   4.168
34579W        W 2797  21.727  38.354   2.939
34580W        W 2798  18.686  20.893  12.782
34581W        W 2799  43.965  40.556   1.421
34582W        W 2800  14.506  44.906   1.720
34583W        W 2801   2.175  35.103  10.632
34584W        W 2802   4.706   7.853  11.967
34585W        W 2803   3.469   9.723   1.289
34586W        W 2804  14.367  28.557  13.513
34587W        W 2805  27.367  30.548  11.638
34588W        W 2806  43.881  11.521   2.016
34589W        W 2807  38.848  30.689   0.181
34590W        W 2808  22.177  28.521   4.516
34591W        W 2809  18.397  30.474   1.057
34592W        W 2810   8.147  27.165  14.084
34593W        W 2811  29.934  29.420  13.022
34594W        W 2812  38.557  21.649  14.524
34595W        W 2813  43.408  19.892  11.262
34596W        W 2814  12.285   2.931  12.470
34597W        W 2815  18.036  25.084  14.837
34598W        W 2816  25.196  40.207  12.123
34599W        W 2817  18.996  40.360  11.748
34600W        W 2818   7.849  24.133   2.124
34601W        W 2819  28.064  44.068   3.272
34602W        W 2820  38.878  11.100  14.305
34603W        W 2821  32.212   0.993   2.439
34604W        W 2822  31.176  14.546   1.477
34605W        W 2823  42.068  18.347  11.061
34606W        W 2824   6.121  40.924   1.767
34607W        W 2825  19.315  24.604   2.850
34608W        W 2826   5.789  31.147  12.451
34609W        W 2827  39.354   5.117   9.804
34610W        W 2828  11.861  20.458  11.577
34611W        W 2829  31.990   7.876   4.499
34612W        W 2830  27.422  18.118   1.903
34613W        W 2831  39.396  13.312  14.428
34614W        W 2832  17.207   6.119  12.477
34615W        W 2833  33.951  12.878   0.492
34616W        W 2834  27.516  27.167   3.198
34617W        W 2835   1.493   6.298   3.623
34618W        W 2836  24.093  24.721   4.186
34619W        W 2837  38.885  41.977   2.320
34620W        W 2838  30.608  12.768   3.985
34621W        W 2839   2.390  26.427  14.064
34622W        W 2840  20.035  32.828   4.655
34623W        W 2841  33.991  44.792   0.846
34624W        W 2842  18.097  36.375  12.482
34625W        W 2843  41.089   2.467   2.737
34626W        W 2844  40.423   4.356   2.647
34627W        W 2845   7.819   0.149   0.352
34628W        W 2846  28.438   6.835  13.780
34629W        W 2847  38.543  10.746  14.958
34630W        W 2848  11.154  30.843   2.527
34631W        W 2849  30.117  31.885   1.831
34632W        W 2850   3.800   7.450   3.123
34633W        W 2851   0.491  16.364  14.869
34634W        W 2852  31.000  16.126  11.130
34635W        W 2853  22.718  19.778   0.133
34636W        W 2854  18.970  23.972   4.593
34637W        W 2855  42.293  38.454  14.925
34638W        W 2856  20.249  19.455  13.939
34639W        W 2857  41.198  36.711  11.148
34640W        W 2858  19.687  23.774  13.053
34641W        W 2859   8.152  36.787   3.702
34642W        W 2860  19.552  26.336   1.063
34643W        W 2861  12.317  10.637  11.784
34644W        W 2862   6.896  13.140   0.273
34645W        W 2863  32.077  10.022   2.385
34646W        W 2864  38.279  14.666   0.494
34647W        W 2865  17.262   1.839   1.231
34648W        W 2866  27.690  18.116  10.707
34649W        W 2867  40.097   3.143  11.952
34650W        W 2868  19.705  17.394   4.333
34651W        W 2869  26.083  26.689   3.398
34652W        W 2870  18.351  39.723  12.397
34653W        W 2871   1.445  23.085  14.481
34654W        W 2872  27.517  44.552  13.097
34655W        W 2873  23.488  38.341   4.534
34656W        W 2874  27.447  36.336   2.391
34657W        W 2875  30.905  21.173  14.021
34658W        W 2876  36.522  13.654  11.998
34659W        W 2877   2.041  34.914  12.583
34660W        W 2878  18.602  19.008  10.575
34661W        W 2879  10.638  32.089   3.299
34662W        W 2880   6.599   5.654   4.163
34663W        W 2881   7.785  43.087  13.853
34664W        W 2882  41.612  16.022   4.256
34665W        W 2883  18.240   1.642   0.918
34666W        W 2884  26.678  24.134   1.400
34667W        W 2885  38.521   2.738  13.891
34668W        W 2886  12.731   1.265   2.355
34669W        W 2887  39.923  20.059   3.152
34670W        W 2888  21.391  13.110   4.185
34671W        W 2889  28.699   2.040  12.970
34672W        W 2890   7.495  13.662  11.058
34673W        W 2891  12.539  16.346  13.074
34674W        W 2892   4.161  43.744  12.010
34675W        W 2893  23.042  19.786  12.580
34676W        W 2894   2.893  32.153  14.006
34677W        W 2895  40.318  31.533  14.037
34678W        W 2896  19.454  36.831   5.512
34679W        W 2897  10.272  17.820  12.438
34680W        W 2898  24.895   1.734  12.017
34681W        W 2899  11.253  10.298  10.527
34682W        W 2900  40.790   0.750   2.261
34683W        W 2901   8.567  42.947  11.958
34684W        W 2902  38.103  23.542  13.116
34685W        W 2903   2.519  41.457  11.575
34686W        W 2904  33.801   6.131   9.696
34687W        W 2905  25.087   2.460  12.571
34688W        W 2906   4.781  44.941  14.881
34689W        W 2907  19.479   2.850   1.828
34690W        W 2908  41.846   2.261   3.231
34691W        W 2909   8.480  29.704   1.411
34692W        W 2910  27.043   3.211   4.630
34693W        W 2911  24.323  29.455  14.476
34694W        W 2912  18.972  28.580  13.498
34695W        W 2913   0.429   7.839   1.004
34696W        W 2914  36.827  37.343   3.793
34697W        W 2915  42.482  20.161  10.877
34698W        W 2916  18.106   4.578   1.253
34699W        W 2917  43.596  32.540  11.931
34700W        W 2918  36.381  23.145   0.491
34701W        W 2919  19.182  19.744   1.935
34702W        W 2920  27.447   4.475   3.208
34703W        W 2921   5.374  20.734   3.007
34704W        W 2922  17.671  25.603   0.197
34705W        W 2923  37.133   5.783  11.416
34706W        W 2924   0.688  37.069   4.446
34707W        W 2925  10.634  37.293   3.220
34708W        W 2926  40.029  23.648   4.507
34709W        W 2927  32.417   4.363  14.442
34710W        W 2928  39.309  29.679  11.120
34711W        W 2929   8.608  15.434  12.071
34712W        W 2930  40.663  17.237  12.437
34713W        W 2931  10.573   4.559  14.495
34714W        W 2932  36.063  18.317  12.848
34715W        W 2933   9.149  22.588   4.308
34716W        W 2934  26.657  32.473   4.295
34717W        W 2935  13.142  39.023   2.788
34718W        W 2936  16.720   9.315  12.058
34719W        W 2937  33.510  20.017   2.731
34720W        W 2938  14.279  39.153   0.747
34721W        W 2939  20.904   4.815   4.572
34722W        W 2940  21.946  40.264  10.841
34723W        W 2941   8.025  19.191   1.958
34724W        W 2942  17.211  17.656   2.339
34725W        W 2943  35.880  18.588   1.033
34726W        W 2944   8.795  36.599   0.002
34727W        W 2945  29.542  21.745   3.034
34728W        W 2946  12.864  30.532  14.488
34729W        W 2947  33.452  43.592   3.666
34730W        W 2948  16.286   2.954  13.741
34731W        W 2949   1.064  30.412   4.074
34732W        W 2950  17.492  39.138  12.589
34733W        W 2951   5.344  40.337   2.720
34734W        W 2952  35.430  39.348   0.961
34735W        W 2953  16.781  26.992  12.608
34736W        W 2954  44.849  23.487   3.403
34737W        W 2955  17.188  20.856  11.508
34738W        W 2956   8.084  42.750   4.008
34739W        W 2957   7.845  31.853   4.140
34740W        W 2958  32.589   2.281   4.659
34741W        W 2959  23.116  24.995   2.412
34742W        W 2960  13.421  32.954   1.496
34743W        W 2961  21.116  31.851   3.345
34744W        W 2962  14.578  14.628  14.118
34745W        W 2963  18.673  23.487   9.984
34746W        W 2964  42.755  36.126  14.145
34747W        W 2965   0.053   7.997  13.744
34748W        W 2966  12.659  36.635  11.890
34749W        W 2967   8.739  17.804  13.970
34750W        W 2968  36.900   8.740  14.454
34751W        W 2969   1.007  12.946  11.185
34752W        W 2970   7.251  14.750  13.060
34753W        W 2971   0.406  10.809  14.422
34754W        W 2972   1.895   7.744   1.714
34755W        W 2973  24.039  17.713  13.877
34756W        W 2974  15.106   7.788   0.413
34757W        W 2975  16.139   4.967  12.975
34758W        W 2976   9.664   6.016  11.679
34759W        W 2977  34.251  19.681  10.714
34760W        W 2978  35.597   1.850  11.141
34761W        W 2979  21.353   2.247  12.057
34762W        W 2980  44.998   1.950  12.908
34763W        W 2981   8.239   9.363   0.419
34764W        W 2982  41.329  32.433  13.919
34765W        W 2983   8.096   8.647   3.237
34766W        W 2984   1.189  19.537   4.316
34767W        W 2985  31.972  35.100   4.115
34768W        W 2986   5.287  41.722   0.747
34769W        W 2987  21.698  36.980   2.170
34770W        W 2988  40.646  44.124   3.318
34771W        W 2989   3.833  22.626   0.974
34772W        W 2990  38.035  10.076   3.567
34773W        W 2991   5.972  30.606   2.563
34774W        W 2992  19.310  42.167  14.385
34775W        W 2993  30.007  25.173   1.915
34776W        W 2994  17.659  38.795   4.865
34777W        W 2995  16.211  26.998  12.133
34778W        W 2996  31.464  27.168  11.175
34779W        W 2997  43.416   2.190  14.924
34780W        W 2998  34.269  30.110  12.862
34781W        W 2999  13.089  28.662  13.471
34782W        W 3000  33.497  18.049   0.958
34783W        W 3001  38.403  33.021   2.616
34784W        W 3002  18.652   1.361   2.119
34785W        W 3003   8.308  18.535   0.527
34786W        W 3004  16.694  11.646   1.422
34787W        W 3005   6.338  13.880   3.245
34788W        W 3006  24.076   2.359  12.073
34789W        W 3007   5.010   9.596   3.725
34790W        W 3008  25.177  17.323  12.065
34791W        W 3009  23.781  44.053  12.174
34792W        W 3010  21.456   2.038  10.935
34793W        W 3011  43.353  14.253  12.607
34794W        W 3012  30.459   9.658  13.337
34795W        W 3013  12.660   3.231   0.857
34796W        W 3014  26.662  37.571  12.046
34797W        W 3015  41.082  18.103  11.199
34798W        W 3016  19.116  39.456   2.940
34799W        W 3017  27.559  30.606  13.526
34800W        W 3018   8.637  16.619   3.727
34801W        W 3019  35.651  43.473   0.489
34802W        W 3020  20.789  18.506  12.598
34803W        W 3021   7.832  37.010   4.931
34804W        W 3022  14.197  30.473  13.559
34805W        W 3023  36.045  25.109  10.623
34806W        W 3024  40.698   3.818  14.749
34807W        W 3025  40.492  41.959  13.203
34808W        W 3026   8.926  33.619  11.899
34809W        W 3027  21.012  29.458  11.563
34810W        W 3028  16.525   5.772   2.678
34811W        W 3029  17.610  41.044   0.728
34812W        W 3030  35.179  27.121  11.105
34813W        W 3031  18.741  37.539  14.009
34814W        W 3032  29.828  37.566  12.577
34815W        W 3033  26.630  10.734  14.062
34816W        W 3034  20.083  14.269   4.457
34817W        W 3035  23.335  37.244  14.330
34818W        W 3036  21.229  10.468  10.217
34819W        W 3037  22.775  22.654   1.424
34820W        W 3038  39.383  35.538  13.876
34821W        W 3039   9.621   1.337   0.004
34822W        W 3040   7.277  38.440  14.896
34823W        W 3041  43.700  37.586   2.197
34824W        W 3042   8.451  26.432   1.304
34825W        W 3043   4.934  26.074   1.746
34826W        W 3044  26.164  15.672  14.022
34827W        W 3045  17.573  17.019   3.068
34828W        W 3046  33.366  30.879   1.014
34829W        W 3047   8.697  31.670   1.663
34830W        W 3048  36.485   0.668   1.872
34831W        W 3049  43.020  18.762   0.425
34832W        W 3050  29.586  42.519  12.575
34833W        W 3051  24.457  36.405  14.292
34834W        W 3052  28.669  27.855   1.798
34835W        W 3053  23.250  19.120   3.128
34836W        W 3054   5.694  32.902  13.183
34837W        W 3055   6.400  24.241  10.996
34838W        W 3056  35.107  40.025   0.726
34839W        W 3057  18.286   7.886   0.151
34840W        W 3058  41.921  41.024   4.086
34841W        W 3059  36.801  37.911   0.728
34842W        W 3060  33.902  35.106  13.221
34843W        W 3061  19.552  40.865   1.916
34844W        W 3062  20.756  30.107  13.022
34845W        W 3063  30.053  19.948  11.116
34846W        W 3064  43.489  16.099  14.059
34847W        W 3065   1.374  18.509   1.627
34848W        W 3066  38.541   4.471  13.476
34849W        W 3067  29.927  33.180   2.329
34850W        W 3068  22.646  43.580   4.604
34851W        W 3069  12.041  12.855   1.850
34852W        W 3070  27.063  18.946   3.294
34853W        W 3071  15.858  12.377  14.520
34854W        W 3072  41.804  13.182   0.946
34855W        W 3073  31.477  26.655  13.487
34856W        W 3074   7.977   0.871  12.001
34857W        W 3075  25.870  43.626  14.250
34858W        W 3076  20.355   8.339   2.811
34859W        W 3077  20.474  14.725  14.042
34860W        W 3078  19.749  31.076  11.081
34861W        W 3079  15.834  10.385   1.747
34862W        W 3080  16.874  39.806  11.540
34863W        W 3081  32.823  33.459   0.228
34864W        W 3082  28.113  14.158   3.257
34865W        W 3083  17.507  40.441   3.152
34866W        W 3084  31.500  31.448   2.259
34867W        W 3085  24.115  26.037  14.377
34868W        W 3086  18.080   6.190  12.500
34869W        W 3087  19.704  13.098  13.640
34870W        W 3088  33.510  14.797   3.174
34871W        W 3089  27.232  14.082   4.499
34872W        W 3090  14.575  13.027   0.142
34873W        W 3091   5.995  18.714  13.395
34874W        W 3092  13.068  26.953  14.205
34875W        W 3093  13.760   9.926   1.057
34876W        W 3094  30.686  38.393   0.975
34877W        W 3095   8.734  38.754  10.701
34878W        W 3096   7.498   0.488   2.337
34879W        W 3097  31.080  35.541  14.715
34880W        W 3098   5.917  36.556  12.500
34881W        W 3099   9.336  32.977   0.464
34882W        W 3100  43.833   9.035  13.096
34883W        W 3101  23.225  27.967  12.022
34884W        W 3102  13.158  24.901  14.494
34885W        W 3103   5.087  26.831  13.019
34886W        W 3104   7.455  33.706  10.849
34887W        W 3105  43.763  13.039   4.101
34888W        W 3106   9.860  11.892   3.622
34889W        W 3107  42.988   5.472   2.724
34890W        W 3108  39.295  22.271  11.123
34891W        W 3109  44.466  29.449   2.139
34892W        W 3110  30.186  30.920  13.886
34893W        W 3111  13.240  12.696   1.246
34894W        W 3112  11.283  34.006   1.735
34895W        W 3113   1.916   4.511   0.848
34896W        W 3114  28.440  23.833   0.916
34897W        W 3115  29.774  31.826   2.365
34898W        W 3116   8.485  25.736   0.760
34899W        W 3117  33.367  15.757   0.218
34900W        W 3118  33.343  32.947  13.115
34901W        W 3119  32.480  21.783   4.618
34902W        W 3120  25.521  41.291  11.143
34903W        W 3121  15.634  39.246  14.002
34904W        W 3122   8.754   0.007   1.229
34905W        W 3123  21.452  24.283   3.623
34906W        W 3124  18.242  38.800   2.362
34907W        W 3125   0.883  22.721   3.360
34908W        W 3126   7.948  37.359  11.656
34909W        W 3127  10.295  36.029   3.415
34910W        W 3128  13.368  24.778  13.963
34911W        W 3129  31.355  14.353  14.415
34912W        W 3130   8.401  10.105  11.991
34913W        W 3131  17.675  23.628  12.667
34914W        W 3132  31.879  16.165  11.358
34915W        W 3133  36.066  30.687  11.613
34916W        W 3134  44.983   9.193  13.921
34917W        W 3135   3.420  16.252  13.046
34918W        W 3136  16.579  42.834   1.080
34919W        W 3137  32.457   3.139  14.854
34920W        W 3138  23.330   2.419  13.953
34921W        W 3139  33.361  22.163   0.255
34922W        W 3140   5.381   1.641  14.605
34923W        W 3141   4.533  32.026  11.682
34924W        W 3142  33.993  30.272   5.056
34925W        W 3143  33.151  32.629  12.174
34926W        W 3144  19.286   6.802   2.693
34927W        W 3145   3.686  39.441   4.928
34928W        W 3146  40.841  27.046  11.923
34929W        W 3147   0.890  18.136  13.293
34930W        W 3148  16.801   7.366   3.200
34931W        W 3149   2.150  43.523   3.787
34932W        W 3150  13.848  26.991  14.916
34933W        W 3151  34.795  34.166   3.097
34934W        W 3152   4.660  31.676   2.165
34935W        W 3153   4.946  10.815   0.751
34936W        W 3154  32.033   1.409  13.075
34937W        W 3155  27.168   3.565   2.903
34938W        W 3156   3.783  13.589  10.621
34939W        W 3157  25.546  34.438  13.023
34940W        W 3158  13.732  38.110   0.577
34941W        W 3159   1.187  16.135  12.508
34942W        W 3160  29.199  26.111   3.719
34943W        W 3161  38.907  21.235  13.909
34944W        W 3162  43.817   3.245   0.451
34945W        W 3163  34.626  17.242  11.118
34946W        W 3164  13.945  38.615   1.649
34947W        W 3165  18.933   7.899   4.598
34948W        W 3166  36.319  11.157   0.344
34949W        W 3167   0.728  40.530  12.915
34950W        W 3168  24.824  18.012   4.261
34951W        W 3169  23.003  39.132   2.645
34952W        W 3170   4.733  27.684   3.692
34953W        W 3171   0.233  32.058  11.539
34954W        W 3172   1.280   7.111  12.868
34955W        W 3173  34.556  19.365   4.155
34956W        W 3174  22.323   6.657   2.713
34957W        W 3175  18.246  36.418   3.739
34958W        W 3176  34.099  41.312  13.835
34959W        W 3177  22.220   9.388   3.232
34960W        W 3178   5.802  34.503   2.099
34961W        W 3179   4.878  24.122  13.223
34962W        W 3180   3.919   9.264  10.569
34963W        W 3181  30.010   7.287   2.855
34964W        W 3182  25.307  34.336   3.166
34965W        W 3183  43.182  40.311   1.751
34966W        W 3184  21.469  27.507  11.610
34967W        W 3185   8.811   6.197  12.539
34968W        W 3186  38.629   3.322   5.000
34969W        W 3187  20.095  27.234   2.558
34970W        W 3188  26.451  24.349  13.104
34971W        W 3189  14.811  21.490   4.895
34972W        W 3190  30.886   2.495  14.926
34973W        W 3191  12.301  27.491   1.321
34974W        W 3192   3.947  44.955   2.766
34975W        W 3193  18.050  20.508   4.158
34976W        W 3194  18.293  30.661   1.797
34977W        W 3195  25.228  30.190   3.242
34978W        W 3196  32.487   3.763   2.798
34979W        W 3197   5.397   0.933   2.827
34980W        W 3198  22.002  36.576  13.965
34981W        W 3199   7.457  38.153  13.332
34982W        W 3200  44.913  29.514   1.863
34983W        W 3201  34.631  33.958  11.725
34984W        W 3202  30.991  23.450  14.843
34985W        W 3203   2.025   0.378  12.795
34986W        W 3204  42.003  39.092   3.304
34987W        W 3205  37.294  26.476  10.231
34988W        W 3206  35.601  26.260  12.924
34989W        W 3207  13.287  27.133   3.919
34990W        W 3208  39.891  25.441  11.868
34991W        W 3209  25.001  43.151  13.725
34992W        W 3210   7.665  39.317   4.163
34993W        W 3211   4.765   2.262  13.430
34994W        W 3212  20.494   5.405  11.356
34995W        W 3213  13.297  13.753  12.027
34996W        W 3214   0.975  28.983  13.563
34997W        W 3215  22.573  19.737  13.859
34998W        W 3216   7.680  16.558  14.469
34999W        W 3217  44.874  23.751  11.114
35000W        W 3218  38.593  31.909  11.491
35001W        W 3219   8.777  19.603   2.379
35002W        W 3220   9.322  29.943  13.020
35003W        W 3221  40.367  29.574   2.431
35004W        W 3222  20.321   0.584   2.068
35005W        W 3223  11.836  36.340   1.824
35006W        W 3224   6.765  26.486  13.307
35007W        W 3225   2.370  43.754  11.191
35008W        W 3226  31.043  19.460  12.446
35009W        W 3227  26.469  19.245  11.529
35010W        W 3228  14.662  25.034  12.058
35011W        W 3229  16.280  20.715  10.442
35012W        W 3230   4.814  17.408   4.179
35013W        W 3231  21.141  30.675   5.201
35014W        W 3232   7.848  14.338   0.921
35015W        W 3233  31.905   3.752  11.454
35016W        W 3234  32.515   2.739  10.653
35017W        W 3235  26.372  43.698   3.660
35018W        W 3236  37.672   3.877   1.268
35019W        W 3237  29.171   7.769   2.236
35020W        W 3238   2.672  25.189   2.071
35021W        W 3239  35.659  38.949  13.915
35022W        W 3240   6.581  39.965   4.072
35023W        W 3241   1.547  24.322  14.879
35024W        W 3242   7.168  14.851  14.782
35025W        W 3243  39.102  28.276  12.943
35026W        W 3244  26.526  43.401   0.851
35027W        W 3245  28.315  24.626   5.020
35028W        W 3246  13.582  25.944  13.492
35029W        W 3247   0.515   8.346   4.154
35030W        W 3248  29.928  13.787   0.271
35031W        W 3249  12.304   2.306   0.042
35032W        W 3250  38.594   4.811   1.040
35033W        W 3251  38.020  28.126  10.754
35034W        W 3252  12.942  40.034   4.605
35035W        W 3253  14.680  28.342   1.271
35036W        W 3254  30.663  40.571  14.312
35037W        W 3255  20.514  15.456   3.386
35038W        W 3256  29.478  29.222  13.579
35039W        W 3257  20.494  44.143  12.908
35040W        W 3258   3.746  31.205   3.741
35041W        W 3259   1.899   0.234   1.249
35042W        W 3260  20.369  12.819   4.114
35043W        W 3261  18.103  35.336  12.528
35044W        W 3262  11.060  11.939  14.944
35045W        W 3263  19.444  15.217   2.676
35046W        W 3264   3.468  23.901  14.757
35047W        W 3265  37.816  21.297   0.533
35048W        W 3266  16.366   2.921  12.938
35049W        W 3267   7.870   4.713  13.127
35050W        W 3268  41.106  28.427   4.801
35051W        W 3269  23.882  29.028   3.609
35052W        W 3270  14.912  34.893  13.639
35053W        W 3271  37.926  25.578   2.772
35054W        W 3272  10.257   9.469   3.673
35055W        W 3273  43.864  32.483  10.652
35056W        W 3274   0.758  10.336   4.703
35057W        W 3275  24.199  32.562   2.933
35058W        W 3276  11.432  39.944  12.670
35059W        W 3277  38.892  34.660  11.225
35060W        W 3278   9.430  26.399   3.100
35061W        W 3279  21.117   5.704   3.281
35062W        W 3280   1.333  22.451  11.166
35063W        W 3281   3.912  18.729  12.030
35064W        W 3282  28.051  26.512  14.371
35065W        W 3283   4.201  27.351   0.343
35066W        W 3284  37.005   1.944   2.192
35067W        W 3285   6.451  12.208  13.211
35068W        W 3286  37.873   3.715   3.679
35069W        W 3287  28.739  22.892  10.167
35070W        W 3288  28.107  39.361   4.956
35071W        W 3289  35.444  21.148  12.070
35072W        W 3290  10.643   5.264   2.694
35073W        W 3291   2.614  39.130  12.885
35074W        W 3292  16.519  24.004  11.047
35075W        W 3293  25.174  28.727   3.179
35076W        W 3294  22.027  43.938   3.540
35077W        W 3295   1.276  38.362   4.535
35078W        W 3296  37.650  38.032   0.488
35079W        W 3297  12.076   0.103   1.813
35080W        W 3298  18.374  32.407  13.845
35081W        W 3299   0.993   6.195   3.055
35082W        W 3300   9.363  13.145   4.276
35083W        W 3301  34.518   6.239  12.708
35084W        W 3302  13.626  20.286  10.714
35085W        W 3303   7.782  12.263  14.554
35086W        W 3304  30.490  41.327   2.681
35087W        W 3305  23.027  21.975   3.409
35088W        W 3306   0.812  39.525   4.321
35089W        W 3307   2.273   2.653   1.417
35090W        W 3308  27.139  40.054   2.197
35091W        W 3309  14.833  14.631   3.344
35092W        W 3310   2.798  27.983   0.656
35093W        W 3311   9.650  19.571   0.860
35094W        W 3312  14.218  43.914   4.381
35095W        W 3313  41.432   1.398   4.060
35096W        W 3314  41.973  16.555   0.840
35097W        W 3315  23.335  20.764  14.303
35098W        W 3316  10.820   1.197  12.879
35099W        W 3317  29.695  33.869   4.594
35100W        W 3318  35.572   7.929   1.504
35101W        W 3319  25.358  30.969   2.276
35102W        W 3320  26.662  15.567   0.308
35103W        W 3321  25.028  43.737  12.524
35104W        W 3322  12.830  35.197  11.476
35105W        W 3323  32.181  41.229   2.177
35106W        W 3324  32.136  31.440   3.918
35107W        W 3325  13.476  30.922   1.763
35108W        W 3326  12.731   3.070  14.370
35109W        W 3327  10.291  36.089   2.923
35110W        W 3328   6.943   6.418  13.003
35111W        W 3329  36.181  20.125  11.121
35112W        W 3330  36.374  24.814   0.249
35113W        W 3331   4.716  37.781   3.766
35114W        W 3332   4.796  12.470   1.810
35115W        W 3333  29.918  28.588   4.695
35116W        W 3334  38.392  23.653  12.164
35117W        W 3335  12.787  22.902   1.206
35118W        W 3336  34.921   8.367   1.261
35119W        W 3337  22.539  13.925   1.530
35120W        W 3338   4.191   3.863   0.906
35121W        W 3339  24.744   5.234  13.873
35122W        W 3340  40.769  44.789   4.162
35123W        W 3341   6.829  26.762   3.210
35124W        W 3342  16.356  35.641  10.755
35125W        W 3343  31.959  12.345  11.212
35126W        W 3344   2.934   4.522  12.016
35127W        W 3345  42.625   2.331  11.110
35128W        W 3346  30.377  42.586   1.197
35129W        W 3347  42.797  14.257   3.259
35130W        W 3348  35.977  43.049   3.657
35131W        W 3349  14.975  37.564   4.551
35132W        W 3350   7.317  36.585   0.040
35133W        W 3351  42.040  19.921  13.511
35134W        W 3352  12.987  34.899   2.376
35135W        W 3353  38.846   6.177  13.959
35136W        W 3354  36.479   5.108   3.215
35137W        W 3355  22.197  40.472   2.203
35138W        W 3356  28.220  14.077  14.070
35139W        W 3357  12.975  21.520  11.136
35140W        W 3358  13.507  25.532  14.427
35141W        W 3359  25.969  20.039   2.987
35142W        W 3360  12.723  26.018   2.376
35143W        W 3361  26.517  18.905   4.995
35144W        W 3362  28.932  11.956  14.837
35145W        W 3363  10.654  36.108  12.605
35146W        W 3364  22.721  28.359   2.881
35147W        W 3365   9.308  30.975  12.240
35148W        W 3366  11.158  43.983  12.375
35149W        W 3367  43.072  10.430   3.185
35150W        W 3368  37.263  22.334   3.799
35151W        W 3369   0.981  14.958  10.701
35152W        W 3370  11.220  34.498  13.979
35153W        W 3371  16.312  26.175   1.206
35154W        W 3372   2.488  42.754  13.758
35155W        W 3373   0.329  39.032   3.710
35156W        W 3374  10.643  32.650   0.034
35157W        W 3375  44.987   8.316  12.442
35158W        W 3376  11.042  19.533  12.110
35159W        W 3377  25.705   4.717   3.238
35160W        W 3378  26.000  33.014   0.127
35161W        W 3379  19.795   6.383  10.997
35162W        W 3380  22.780  26.690  10.219
35163W        W 3381  29.574   9.690  13.431
35164W        W 3382  10.205  22.077   3.326
35165W        W 3383   2.949  17.857   1.731
35166W        W 3384  38.167  11.824   3.160
35167W        W 3385  35.170  23.750   1.306
35168W        W 3386  35.448  18.381  12.404
35169W        W 3387  31.625  42.709  13.107
35170W        W 3388  36.512  32.377  11.471
35171W        W 3389  15.729   1.738   3.097
35172W        W 3390  14.798   5.305   2.607
35173W        W 3391  20.086  35.596   3.660
35174W        W 3392  29.919  20.057  14.419
35175W        W 3393  31.437  19.592  10.723
35176W        W 3394  23.784  27.152   1.997
35177W        W 3395  21.945  17.066   3.530
35178W        W 3396  26.061   0.446   3.807
35179W        W 3397  28.644  13.079   3.814
35180W        W 3398  25.264  42.395  14.381
35181W        W 3399   0.895   5.636  12.682
35182W        W 3400  44.795  17.537   3.660
35183W        W 3401  15.426  19.764  12.463
35184W        W 3402  33.387  18.915  12.135
35185W        W 3403   8.873  25.066   2.776
35186W        W 3404   6.385  42.541   1.349
35187W        W 3405   5.119   7.139   5.012
35188W        W 3406   0.345  31.049   4.681
35189W        W 3407  41.498  33.788  13.900
35190W        W 3408  30.680   3.232   1.429
35191W        W 3409  34.823  43.721  11.620
35192W        W 3410  25.667  38.561   0.684
35193W        W 3411   4.798   9.306  14.750
35194W        W 3412  43.229  44.249   1.305
35195W        W 3413  31.019   9.321   0.726
35196W        W 3414  19.507  13.615  13.984
35197W        W 3415   9.433  30.935   0.113
35198W        W 3416  29.107  39.961   3.231
35199W        W 3417  41.310   6.049  12.186
35200W        W 3418   2.156  15.015   0.311
35201W        W 3419  37.622  42.082  12.914
35202W        W 3420  36.954  39.490  10.753
35203W        W 3421   3.820  39.027  13.554
35204W        W 3422  10.185  10.172  14.901
35205W        W 3423   6.487  11.260   1.063
35206W        W 3424  21.133  16.606  12.922
35207W        W 3425  37.717   0.447  14.523
35208W        W 3426  14.106  35.487   0.050
35209W        W 3427   9.715   8.136   0.857
35210W        W 3428  12.379  12.783  12.137
35211W        W 3429  36.285  42.782  10.024
35212W        W 3430  25.712  15.058   0.780
35213W        W 3431  29.430  23.806  14.246
35214W        W 3432  30.876  27.443   2.039
35215W        W 3433  11.747  42.393   3.405
35216W        W 3434   3.831  24.541   4.113
35217W        W 3435  26.114   3.034   2.807
35218W        W 3436   9.972  18.611  12.009
35219W        W 3437  16.191  11.224  12.129
35220W        W 3438   2.249  28.523   2.336
35221W        W 3439   6.236  31.056   1.890
35222W        W 3440   3.830   2.155  13.894
35223W        W 3441  17.715  29.423   1.877
35224W        W 3442  11.319  35.939  12.631
35225W        W 3443  21.611  16.814  13.036
35226W        W 3444  10.896  32.779   1.012
35227W        W 3445  32.059   0.549   4.511
35228W        W 3446  26.431  34.995   3.557
35229W        W 3447  17.592  42.363   1.664
35230W        W 3448  24.749  42.983   2.404
35231W        W 3449  10.670   4.944   2.214
35232W        W 3450  33.485  28.349  11.251
35233W        W 3451  38.104  26.544  12.467
35234W        W 3452   3.071  42.812  14.293
35235W        W 3453  10.311  38.968  12.893
35236W        W 3454  13.860  12.060  11.615
35237W        W 3455  38.594  19.503   4.192
35238W        W 3456  38.226  18.063   4.294
35239W        W 3457  20.134  15.820  10.190
35240W        W 3458  38.393  15.145   0.318
35241W        W 3459  36.906  31.190  12.475
35242W        W 3460  22.958   2.463   0.785
35243W        W 3461   4.168  44.949  14.511
35244W        W 3462   7.242  17.286  11.893
35245W        W 3463  25.102  35.971   0.684
35246W        W 3464   3.684  14.852  13.576
35247W        W 3465  13.930   0.693  14.978
35248W        W 3466  43.856  18.679  11.070
35249W        W 3467  33.118  19.348   1.217
35250W        W 3468   4.953  35.890   0.513
35251W        W 3469  41.188  40.531   0.648
35252W        W 3470  17.791  27.243   3.693
35253W        W 3471   8.015  37.031   4.160
35254W        W 3472  30.335   8.613   4.592
35255W        W 3473  32.082  37.244  11.994
35256W        W 3474  38.538   7.758  11.579
35257W        W 3475  15.553   5.984   0.835
35258W        W 3476  40.394  44.250  10.591
35259W        W 3477   2.956  19.624  11.571
35260W        W 3478   7.298   4.644  14.788
35261W        W 3479   3.406  21.245  12.182
35262W        W 3480  12.081  23.485  14.597
35263W        W 3481  36.907  35.288   3.740
35264W        W 3482  16.766   9.046  11.616
35265W        W 3483  40.762  44.461   3.695
35266W        W 3484   4.445  36.450   2.339
35267W        W 3485  43.984  22.646  14.885
35268W        W 3486  22.010  20.789  12.315
35269W        W 3487   5.285  26.655  11.898
35270W        W 3488  16.179  19.775   3.178
35271W        W 3489  42.052  11.890   3.854
35272W        W 3490   2.156  28.708  11.555
35273W        W 3491  31.982  36.437   2.447
35274W        W 3492  33.507  22.248   2.224
35275W        W 3493   2.349  38.098  12.897
35276W        W 3494   8.458  10.715   4.838
35277W        W 3495   6.629   1.832   1.369
35278W        W 3496  37.402  13.929   2.358
35279W        W 3497  10.666  11.253  11.492
35280W        W 3498  27.161  42.726   3.952
35281W        W 3499  10.820  32.081  11.476
35282W        W 3500  33.746  24.695   4.224
35283W        W 3501   3.386  21.828   0.399
35284W        W 3502  33.309  37.042  12.884
35285W        W 3503  20.596  40.450   2.641
35286W        W 3504  38.158  15.627   3.768
35287W        W 3505  31.139   9.519   4.803
35288W        W 3506  30.648  33.404  14.856
35289W        W 3507   8.452  23.236  11.327
35290W        W 3508  25.582  30.448   1.420
35291W        W 3509  43.878  36.901  14.462
35292W        W 3510  35.093  25.597  13.350
35293W        W 3511   7.740   5.278   4.416
35294W        W 3512  26.505  26.741   0.952
35295W        W 3513  28.995  26.336  11.011
35296W        W 3514  27.527  36.627  10.676
35297W        W 3515  25.904  29.550   2.347
35298W        W 3516  22.985  31.862  10.691
35299W        W 3517  16.616   8.306  11.157
35300W        W 3518  32.075  24.663  11.518
35301W        W 3519  16.116  41.805  14.888
35302W        W 3520  39.569  39.461  13.434
35303W        W 3521  18.399  42.436  14.708
35304W        W 3522  15.258  11.795  11.502
35305W        W 3523  25.254  40.504  12.553
35306W        W 3524   4.426  40.147   1.204
35307W        W 3525  35.293  22.441  11.666
35308W        W 3526  13.330  40.027   3.781
35309W        W 3527  16.596   9.809  13.864
35310W        W 3528  35.006   9.817   2.133
35311W        W 3529  15.598  41.825   2.236
35312W        W 3530  27.490  28.427  13.809
35313W        W 3531  12.932  39.953   1.147
35314W        W 3532  17.532  27.477  10.834
35315W        W 3533   4.288  13.690  11.614
35316W        W 3534  27.182  12.235  14.225
35317W        W 3535  24.220   3.714  12.152
35318W        W 3536  19.195  37.606   3.252
35319W        W 3537  10.052  19.146  13.875
35320W        W 3538  21.061   6.214  11.125
35321W        W 3539   2.718  22.303   3.935
35322W        W 3540   0.337  27.539   4.748
35323W        W 3541  16.577  13.854  14.089
35324W        W 3542  28.104  10.626   3.337
35325W        W 3543  25.500  25.423  14.789
35326W        W 3544  29.173   3.343  12.005
35327W        W 3545  36.100   1.287   2.749
35328W        W 3546  15.759  17.759   4.233
35329W        W 3547  38.341  43.240  14.307
35330W        W 3548   1.385  37.352  12.362
35331W        W 3549   7.395  35.089   0.367
35332W        W 3550  32.593  37.260  14.121
35333W        W 3551  14.673   9.595  11.859
35334W        W 3552   1.332  26.138  11.162
35335W        W 3553  19.498  21.509  12.519
35336W        W 3554  16.143   4.917   3.877
35337W        W 3555  41.896  42.773  12.920
35338W        W 3556  34.940  13.815   4.429
35339W        W 3557  33.606  29.542  11.975
35340W        W 3558  33.645  42.506  12.489
35341W        W 3559  44.624  37.150  11.244
35342W        W 3560  24.232  12.561   5.058
35343W        W 3561  14.713  34.814  12.113
35344W        W 3562  14.811  27.966   4.569
35345W        W 3563  12.171  28.975   3.888
35346W        W 3564  32.703  35.155   2.735
35347W        W 3565   1.715   1.279  12.056
35348W        W 3566  28.637   7.303   3.868
35349W        W 3567  40.783  35.656  12.003
35350W        W 3568  22.557  28.053   1.336
35351W        W 3569   2.903  20.739   2.773
35352W        W 3570  10.883  44.422  11.515
35353W        W 3571  34.903  42.973  14.404
35354W        W 3572  38.437  25.005   4.390
35355W        W 3573   6.728   4.466  12.855
35356W        W 3574   6.323  13.370   3.263
35357W        W 3575  29.162  28.779  12.923
35358W        W 3576   7.804  40.711  12.091
35359W        W 3577  13.821  14.640   2.243
35360W        W 3578  34.124   6.242   4.549
35361W        W 3579   0.698  20.125  12.435
35362W        W 3580  37.573   2.027  13.038
35363W        W 3581  16.226  43.311  14.352
35364W        W 3582  21.359   9.144   2.294
35365W        W 3583  15.965  16.490   5.426
35366W        W 3584   0.033   8.178   2.304
35367W        W 3585  42.372   2.922   0.026
35368W        W 3586  24.387  34.900   1.714
35369W        W 3587   1.941  26.022  12.375
35370W        W 3588  23.078  12.815  14.101
35371W        W 3589  33.161  20.097   4.245
35372W        W 3590  35.969  37.005  12.993
35373W        W 3591  24.219   9.782   4.575
35374W        W 3592  32.489   2.849   3.567
35375W        W 3593  29.160  26.978  11.511
35376W        W 3594  42.412  22.177   3.392
35377W        W 3595  39.597  27.469   2.651
35378W        W 3596  23.602   1.236  13.589
35379W        W 3597  28.528  42.630  10.748
35380W        W 3598  36.176  43.694  14.588
35381W        W 3599  38.911  27.038  11.649
35382W        W 3600  42.852  38.493   1.678
35383W        W 3601  26.591  39.349   0.327
35384W        W 3602  20.070  37.037   0.304
35385W        W 3603  27.704  13.280   0.346
35386W        W 3604  32.351  34.506  12.442
35387W        W 3605  29.485   0.879   0.631
35388W        W 3606  29.846  33.550  10.400
35389W        W 3607   7.597  16.586  14.985
35390W        W 3608  25.077  37.305   3.257
35391W        W 3609  27.899  17.371  14.997
35392W        W 3610  42.427  42.739   4.903
35393W        W 3611  30.689  37.426  14.799
35394W        W 3612  12.300  10.371  14.946
35395W        W 3613  34.593   3.260  14.805
35396W        W 3614  22.276  24.709   2.801
35397W        W 3615  15.265  37.896  14.997
35398W        W 3616  36.178  11.757   3.192
35399W        W 3617   5.060  38.990   5.062
35400W        W 3618  31.364  39.156  11.519
35401W        W 3619  26.459  22.223  13.633
35402W        W 3620  11.153  33.047   0.654
35403W        W 3621  14.257  35.863  11.588
35404W        W 3622  29.681   7.677   2.356
35405W        W 3623   8.843  19.637  13.077
35406W        W 3624  11.449  42.292   1.684
35407W        W 3625  25.250  35.621   0.277
35408W        W 3626   0.764   6.486  13.521
35409W        W 3627  23.592  23.505  13.932
35410W        W 3628  16.319  29.124  12.762
35411W        W 3629  40.511  32.613  11.598
35412W        W 3630  30.412  13.278   1.467
35413W        W 3631  44.470  20.341   3.278
35414W        W 3632   9.221   5.106  14.453
35415W        W 3633  30.666   0.037  14.989
35416W        W 3634   8.457  23.506  12.118
35417W        W 3635  15.727  38.938   0.348
35418W        W 3636  11.393   8.410  14.355
35419W        W 3637  12.198  30.737  12.469
35420W        W 3638  19.845  13.606  11.848
35421W        W 3639   2.848  39.954  14.049
35422W        W 3640   3.821  44.691  14.808
35423W        W 3641   8.655  23.154  14.932
35424W        W 3642  23.458  25.588   1.367
35425W        W 3643  41.269  34.441   3.642
35426W        W 3644  35.085   8.482  12.519
35427W        W 3645  17.090  44.511   1.408
35428W        W 3646  14.234   6.936   4.898
35429W        W 3647  35.905  30.540  14.623
35430W        W 3648  40.863   4.202  12.885
35431W        W 3649  20.773  29.198  12.998
35432W        W 3650  36.545  30.702   2.758
35433W        W 3651  25.757  27.534  14.773
35434W        W 3652  25.689   7.110  11.094
35435W        W 3653  22.970  38.504   1.191
35436W        W 3654  33.081  39.433  14.513
35437W        W 3655   1.611  27.575  11.692
35438W        W 3656  21.658  12.375   0.426
35439W        W 3657  12.184   9.360   2.423
35440W        W 3658  44.903  21.029  13.599
35441W        W 3659  13.586  36.577  13.592
35442W        W 3660  16.522   1.491  11.959
35443W        W 3661  17.902  43.302  12.719
35444W        W 3662   2.755  40.250   0.031
35445W        W 3663  15.800   1.278  11.448
35446W        W 3664  20.589   7.179   2.457
35447W        W 3665   2.868  21.667   3.150
35448W        W 3666  36.302   3.246   5.403
35449W        W 3667  11.151  25.206   3.620
35450W        W 3668  29.982  40.319  12.146
35451W        W 3669  15.680  31.954   4.320
35452W        W 3670  35.988  36.059   0.776
35453W        W 3671  27.966  39.779   4.603
35454W        W 3672   3.760   3.258   3.120
35455W        W 3673   1.986  44.238  14.421
35456W        W 3674   2.483   2.441   3.735
35457W        W 3675   6.331  23.147  13.777
35458W        W 3676  22.592  16.186  11.493
35459W        W 3677  21.051  22.073  12.894
35460W        W 3678  32.731  17.580   0.712
35461W        W 3679  25.571  26.450  13.862
35462W        W 3680  12.468   4.986  14.225
35463W        W 3681  14.265  21.516   1.785
35464W        W 3682  40.543  21.726   3.519
35465W        W 3683  32.518  10.270   0.001
35466W        W 3684   6.918   2.240  10.822
35467W        W 3685  37.570  19.594   3.209
35468W        W 3686  30.397  41.803   3.388
35469W        W 3687  43.956  41.478  11.426
35470W        W 3688  16.516  42.850   4.518
35471W        W 3689  14.023  41.399  13.760
35472W        W 3690  18.571  29.629   1.852
35473W        W 3691  29.096   6.340  11.608
35474W        W 3692  13.300  15.313  11.380
35475W        W 3693   1.229  30.001   3.773
35476W        W 3694  24.578  12.877   4.703
35477W        W 3695  27.966  25.923   0.075
35478W        W 3696  43.808  42.247  12.194
35479W        W 3697   1.334  26.082   1.826
35480W        W 3698  17.101  25.104   0.839
35481W        W 3699  31.140  15.650   0.953
35482W        W 3700   8.406  34.482   3.996
35483W        W 3701  25.061   0.933   4.590
35484W        W 3702   5.252  32.069   1.170
35485W        W 3703  15.676  22.730   3.615
35486W        W 3704  43.827   4.288   4.790
35487W        W 3705  39.110  21.605   3.274
35488W        W 3706  16.116  29.839  12.105
35489W        W 3707  19.355  28.240  12.366
35490W        W 3708  19.668  11.434   1.786
35491W        W 3709  22.069  34.614   0.423
35492W        W 3710   9.850  20.319   0.052
35493W        W 3711  31.129  13.014  14.576
35494W        W 3712  15.673   9.872   4.416
35495W        W 3713  12.168  27.299   4.084
35496W        W 3714  30.373   0.935  10.685
35497W        W 3715  14.372  31.164   1.435
35498W        W 3716  27.941   1.246   3.926
35499W        W 3717  27.466  34.363  14.379
35500W        W 3718  33.648   2.825   4.962
35501W        W 3719  26.072   0.448   3.270
35502W        W 3720   2.929  40.109  12.749
35503W        W 3721  17.269  21.035   0.959
35504W        W 3722  39.566   5.388  10.725
35505W        W 3723  25.481   6.791  10.719
35506W        W 3724  15.620  13.718   2.182
35507W        W 3725  28.170  21.063  13.349
35508W        W 3726  39.908  27.772  12.016
35509W        W 3727  17.105   9.321  12.407
35510W        W 3728  40.032  39.081   4.437
35511W        W 3729   4.366  29.140   3.413
35512W        W 3730  19.523   0.807  11.084
35513W        W 3731  29.698  35.944   4.667
35514W        W 3732  23.138  40.223   5.018
35515W        W 3733  27.890  15.899   0.034
35516W        W 3734  28.343  36.009   0.959
35517W        W 3735   7.716  17.206  11.643
35518W        W 3736   8.991  15.761   2.852
35519W        W 3737  19.840  42.998   2.666
35520W        W 3738  15.908  21.050   3.126
35521W        W 3739  27.415  32.042   9.963
35522W        W 3740  19.307  10.370  12.802
35523W        W 3741  17.243  40.442  10.968
35524W        W 3742  11.026  13.567   2.637
35525W        W 3743  14.719  30.103  13.031
35526W        W 3744  14.323  25.719  10.753
35527W        W 3745  42.767  28.877  12.351
35528W        W 3746  43.940  15.851  13.310
35529W        W 3747   0.496   3.281   0.358
35530W        W 3748  11.013  11.355  12.457
35531W        W 3749  25.737  43.320   3.772
35532W        W 3750  30.033  42.257   2.821
35533W        W 3751  17.955  37.578   1.139
35534W        W 3752  25.759  23.514   4.183
35535W        W 3753  24.104  37.188   5.016
35536W        W 3754   0.427  13.636   1.742
35537W        W 3755   2.459  20.210   3.176
35538W        W 3756   5.687  29.710   3.253
35539W        W 3757  31.224  44.443  11.445
35540W        W 3758   7.691  31.370   0.671
35541W        W 3759  11.954  33.887  13.784
35542W        W 3760  29.100   7.889  11.538
35543W        W 3761   2.179  21.946   4.779
35544W        W 3762  44.408  14.292   3.582
35545W        W 3763  30.513  37.064  12.421
35546W        W 3764  23.842  12.337   1.275
35547W        W 3765  17.370   7.456   4.031
35548W        W 3766  20.728  44.398   4.109
35549W        W 3767  10.142  19.598   0.267
35550W        W 3768  31.508  26.203   5.615
35551W        W 3769  14.625  11.918  13.593
35552W        W 3770  13.223  40.022  14.846
35553W        W 3771  39.564  44.076   2.327
35554W        W 3772  19.553   9.453  11.954
35555W        W 3773  11.381  17.331   4.861
35556W        W 3774  43.365  10.601   0.232
35557W        W 3775  42.771  22.509  11.243
35558W        W 3776  39.346  37.987  13.888
35559W        W 3777   5.268  19.413   4.764
35560W        W 3778  37.314  37.852   0.079
35561W        W 3779  38.548  31.903  12.418
35562W        W 3780  24.643  24.486  13.393
35563W        W 3781  11.124  18.734   3.649
35564W        W 3782   9.007  44.768  10.633
35565W        W 3783  27.288   2.469  13.836
35566W        W 3784  29.384  27.429   0.819
35567W        W 3785  32.946  26.733   3.286
35568W        W 3786  41.334  31.394  14.649
35569W        W 3787  12.629  19.520   0.137
35570W        W 3788  18.717  18.540   3.762
35571W        W 3789  33.458  26.997   4.459
35572W        W 3790  35.105  17.192   2.245
35573W        W 3791  21.751  44.973  10.752
35574W        W 3792  39.383  39.983   4.648
35575W        W 3793  26.472   1.608   1.719
35576W        W 3794  11.237  25.177   3.119
35577W        W 3795   2.378  13.338   1.639
35578W        W 3796  26.477  22.049   5.338
35579W        W 3797  33.878   4.741  13.808
35580W        W 3798  11.725   7.694   3.605
35581W        W 3799  26.102  24.727  13.048
35582W        W 3800   8.962   8.995  13.479
35583W        W 3801  21.554  44.343  11.748
35584W        W 3802  20.088  12.738  13.568
35585W        W 3803   6.904  21.763  14.969
35586W        W 3804   1.352  12.781   3.967
35587W        W 3805  21.639  15.010   0.897
35588W        W 3806  34.579  12.167   0.194
35589W        W 3807   2.726  21.679   2.639
35590W        W 3808  28.590  19.742   3.632
35591W        W 3809  36.334  20.131   1.096
35592W        W 3810   5.070  15.872  10.791
35593W        W 3811  27.503  16.417  11.670
35594W        W 3812  38.854  39.170   2.163
35595W        W 3813  32.609  12.675  10.239
35596W        W 3814  36.950  39.117   2.183
35597W        W 3815  38.255  38.762  12.087
35598W        W 3816  13.576  12.602  12.686
35599W        W 3817   7.699  30.193   1.386
35600W        W 3818   7.700   9.062  11.394
35601W        W 3819   8.314  43.003   3.081
35602W        W 3820  32.625  41.318   0.950
35603W        W 3821  12.105  23.042  14.895
35604W        W 3822  23.013   5.362   1.620
35605W        W 3823  10.704  27.388  11.629
35606W        W 3824  14.296   8.175   1.929
35607W        W 3825  29.686   1.738  12.843
35608W        W 3826   8.373   5.887  10.677
35609W        W 3827   2.978  37.991   2.503
35610W        W 3828   9.381  42.420  14.332
35611W        W 3829  17.696  18.217  12.540
35612W        W 3830  26.888  30.988  12.006
35613W        W 3831  24.231  43.091   2.307
35614W        W 3832   3.715  43.508   1.521
35615W        W 3833  18.027   0.840  12.993
35616W        W 3834  34.447  33.989   1.805
35617W        W 3835  42.046  13.207   4.767
35618W        W 3836  20.065  11.731  13.426
35619W        W 3837  15.355  22.214   1.297
35620W        W 3838  11.224  12.651   4.330
35621W        W 3839  24.539  30.482  13.502
35622W        W 3840  36.973  25.112  10.638
35623W        W 3841   1.043   8.772  14.427
35624W        W 3842  18.718  39.261   3.817
35625W        W 3843   7.270  38.901  12.627
35626W        W 3844  44.343  18.853   1.538
35627W        W 3845  15.605  20.140   0.905
35628W        W 3846  19.237  25.564  13.604
35629W        W 3847  40.832  43.747   4.148
35630W        W 3848  28.958  18.544  12.344
35631W        W 3849  21.706  44.736  12.646
35632W        W 3850  43.482  37.232   1.567
35633W        W 3851   6.790   8.244  13.592
35634W        W 3852  24.985  32.183   0.510
35635W        W 3853  26.239  30.433   4.739
35636W        W 3854  20.383  19.800   0.204
35637W        W 3855   9.212  35.645   3.060
35638W        W 3856   2.229  17.547   1.201
35639W        W 3857  31.937  17.754  12.406
35640W        W 3858  30.108  34.246  10.371
35641W        W 3859  33.603   5.666  11.674
35642W        W 3860  30.398  39.391  10.553
35643W        W 3861  40.602  25.197   5.060
35644W        W 3862  14.351  19.757   0.644
35645W        W 3863   8.541  29.722   0.712
35646W        W 3864  38.695   1.793  10.482
35647W        W 3865  10.768  26.540  13.775
35648W        W 3866  11.443  16.692  11.152
35649W        W 3867  43.558  36.327   3.553
35650W        W 3868  16.299  33.625  12.125
35651W        W 3869  36.950   8.201  13.338
35652W        W 3870  13.736   8.668  13.282
35653W        W 3871  36.987  29.615   1.562
35654W        W 3872  19.102  33.062   1.277
35655W        W 3873  38.596  39.525  12.571
35656W        W 3874  11.420  11.625  14.326
35657W        W 3875  20.683  17.427  11.900
35658W        W 3876  29.858  25.516  14.407
35659W        W 3877   2.811  12.202  12.657
35660W        W 3878   2.015   2.377  12.343
35661W        W 3879  28.183  31.723  11.947
35662W        W 3880  44.977  17.133   2.642
35663W        W 3881  10.290   1.541   3.864
35664W        W 3882  23.136   8.203  11.073
35665W        W 3883  28.102  39.978   2.350
35666W        W 3884   6.720  18.440   5.004
35667W        W 3885   4.310  26.103  14.009
35668W        W 3886  13.687  24.720  12.091
35669W        W 3887   6.967  19.227   0.281
35670W        W 3888  18.801  37.642   3.656
35671W        W 3889  41.884  26.969   1.398
35672W        W 3890   0.201  14.587  12.422
35673W        W 3891  19.980  25.033  12.061
35674W        W 3892  14.735  38.089   1.403
35675W        W 3893  26.272  20.151   1.100
35676W        W 3894   8.379  42.611  11.055
35677W        W 3895  26.740   9.619   0.956
35678W        W 3896  39.337  10.307   1.487
35679W        W 3897  39.041  32.028  13.561
35680W        W 3898  43.959   3.018  14.822
35681W        W 3899  11.746  19.515  14.949
35682W        W 3900  43.827  32.067  11.012
35683W        W 3901  14.096   8.800  14.750
35684W        W 3902  18.220  10.210  12.523
35685W        W 3903  18.663  41.158   0.971
35686W        W 3904   2.983  19.067   1.207
35687W        W 3905  40.993  27.231   4.064
35688W        W 3906  29.362  23.100  12.997
35689W        W 3907  16.402  43.793   9.805
35690W        W 3908  25.863   4.291  13.512
35691W        W 3909   3.470  29.630   0.926
35692W        W 3910  25.449   4.308  12.690
35693W        W 3911  41.598  33.408   2.610
35694W        W 3912   9.930  43.480  14.955
35695W        W 3913   3.489  40.720   4.947
35696W        W 3914  36.022  12.345   2.307
35697W        W 3915  36.326  25.133   1.249
35698W        W 3916  15.172   5.335  12.494
35699W        W 3917  12.294  43.170  13.755
35700W        W 3918  33.449   9.221   3.358
35701W        W 3919  35.478  43.609   3.191
35702W        W 3920  43.588   5.905   2.257
35703W        W 3921  16.845   5.287   4.459
35704W        W 3922  25.962  22.629  12.328
35705W        W 3923  14.561  16.778  13.801
35706W        W 3924  26.056  31.219  11.016
35707W        W 3925  41.837  24.971  14.539
35708W        W 3926   8.751  28.114   1.178
35709W        W 3927  16.261  20.740   2.700
35710W        W 3928  26.749  37.842   4.778
35711W        W 3929   5.346  12.599  11.209
35712W        W 3930  22.161  38.083   2.813
35713W        W 3931   6.848  22.718   1.832
35714W        W 3932  26.366  14.388   0.777
35715W        W 3933  37.952  21.039  12.007
35716W        W 3934  39.883  37.171  11.931
35717W        W 3935  11.035  20.428   1.931
35718W        W 3936  39.467  43.635  11.634
35719W        W 3937   3.041  29.581  14.308
35720W        W 3938   3.235  12.261  12.347
35721W        W 3939  22.940  26.267  11.113
35722W        W 3940  36.095   0.171  11.177
35723W        W 3941  11.841  15.865  11.242
35724W        W 3942  32.174  27.524  14.757
35725W        W 3943  33.997  24.673   4.723
35726W        W 3944  18.065  28.332   4.001
35727W        W 3945  16.182  29.657   4.541
35728W        W 3946  36.847  22.990   0.658
35729W        W 3947   1.058   0.784  14.599
35730W        W 3948   1.279   9.216  12.869
35731W        W 3949  35.499  22.598   3.249
35732W        W 3950  41.455  28.908   4.148
35733W        W 3951  26.899   5.621  14.377
35734W        W 3952  13.783  17.256  13.902
35735W        W 3953  23.202  12.753  13.606
35736W        W 3954  25.789  11.875   1.434
35737W        W 3955   5.433  18.155   2.020
35738W        W 3956  28.095  26.909   0.275
35739W        W 3957   4.942  21.795  14.440
35740W        W 3958  30.978  34.252   2.261
35741W        W 3959  22.057  10.097   0.293
35742W        W 3960  10.038  36.378  13.366
35743W        W 3961  10.662  23.194  13.315
35744W        W 3962  14.165  11.110  14.335
35745W        W 3963   1.969  34.660  14.357
35746W        W 3964  28.213  40.773  12.744
35747W        W 3965   8.765  15.803  13.120
35748W        W 3966  18.795  17.321   1.748
35749W        W 3967  39.381  25.210   2.861
35750W        W 3968  33.667  41.797   1.836
35751W        W 3969   3.671  38.537  13.441
35752W        W 3970   1.431  22.401   2.276
35753W        W 3971  41.827  24.099  10.730
35754W        W 3972  42.989  38.846  14.491
35755W        W 3973  25.990  37.651  13.990
35756W        W 3974  10.285   5.684   2.796
35757W        W 3975  18.117  26.000   4.151
35758W        W 3976  26.538  39.511  11.962
35759W        W 3977  31.135  38.064  14.356
35760W        W 3978   2.853  16.641  11.676
35761W        W 3979  10.166  39.354  10.636
35762W        W 3980  27.207  12.583   2.920
35763W        W 3981  41.234  28.133   3.099
35764W        W 3982  34.924  28.747  12.064
35765W        W 3983  12.592  26.789   5.057
35766W        W 3984  35.589  19.172  14.819
35767W        W 3985  16.693  17.278  14.010
35768W        W 3986  20.196  13.683   0.895
35769W        W 3987  30.818  31.994   4.841
35770W        W 3988  14.673  20.642   1.160
35771W        W 3989  37.660   8.392   2.112
35772W        W 3990  35.445  26.178   5.065
35773W        W 3991   8.646   3.572  11.431
35774W        W 3992   1.813  39.516   3.886
35775W        W 3993  10.344  40.821  11.600
35776W        W 3994  35.811  42.210  13.872
35777W        W 3995  21.719  36.527   0.964
35778W        W 3996  10.117   2.900  10.607
35779W        W 3997  12.589  14.199  11.626
35780W        W 3998  31.173  43.905   0.832
35781W        W 3999  36.635   1.074   1.580
35782W        W 4000  26.645  11.680  10.869
35783W        W 4001  36.090  43.321  12.281
35784W        W 4002  13.046  21.485   3.188
35785W        W 4003  16.275   5.978  13.843
35786W        W 4004  25.687  41.944  12.155
35787W        W 4005   6.435  24.537  12.500
35788W        W 4006  34.208  37.345  11.210
35789W        W 4007  27.197  26.030  12.643
35790W        W 4008  35.398   2.911   2.542
35791W        W 4009  26.342  35.055  10.552
35792W        W 4010  23.577   4.315  11.273
35793W        W 4011  26.189  19.005   0.926
35794W        W 4012  23.744   7.699  11.143
35795W        W 4013  10.250  12.555   3.963
35796W        W 4014  22.784  35.368   3.685
35797W        W 4015   9.806  17.699   4.597
35798W        W 4016  21.632  44.415   1.368
35799W        W 4017  40.437  17.356  11.992
35800W        W 4018  31.548  29.405  14.510
35801W        W 4019  24.725  33.777  13.275
35802W        W 4020   1.445   2.137  11.611
35803W        W 4021   1.716  39.106  13.752
35804W        W 4022  13.376   7.137  12.025
35805W        W 4023  25.470  34.630   0.931
35806W        W 4024   4.170  24.079   0.648
35807W        W 4025   0.346  39.010  13.538
35808W        W 4026  28.129  24.411  11.032
35809W        W 4027  43.658  43.336   1.530
35810W        W 4028  36.472   9.320  14.985
35811W        W 4029   0.395  36.871   1.428
35812W        W 4030  20.007  17.385   2.369
35813W        W 4031  27.002  32.855   0.154
35814W        W 4032   1.329   2.528   4.713
35815W        W 4033  37.848   6.154  14.539
35816W        W 4034   0.256  26.564   3.817
35817W        W 4035   6.109  37.376  11.417
35818W        W 4036  36.116  14.154  11.211
35819W        W 4037  14.547  12.785  12.519
35820W        W 4038   2.424  17.021  13.484
35821W        W 4039  29.633  39.769   4.043
35822W        W 4040  16.007  22.914  11.025
35823W        W 4041  32.527  29.071  14.842
35824W        W 4042  22.813  13.751  11.176
35825W        W 4043  40.184  41.761   5.016
35826W        W 4044  13.873  29.415   3.629
35827W        W 4045  44.423  20.813  13.556
35828W        W 4046  38.522  24.444  12.199
35829W        W 4047  31.289  26.894   4.908
35830W        W 4048   7.643   7.323  14.034
35831W        W 4049  27.645   4.218  10.674
35832W        W 4050  15.851  32.542  11.467
35833W        W 4051  12.300   4.911   4.151
35834W        W 4052  40.972  36.778   4.556
35835W        W 4053  20.463  39.370   0.843
35836W        W 4054  15.049  10.780  11.885
35837W        W 4055   0.171   6.446   4.079
35838W        W 4056  37.606  36.463  10.473
35839W        W 4057   7.375   2.807  12.523
35840W        W 4058   5.248  21.035  14.788
35841W        W 4059  43.940  39.598   4.786
35842W        W 4060  11.970  19.098  10.673
35843W        W 4061  12.892  32.845   3.068
35844W        W 4062  13.947  22.553  13.394
35845W        W 4063  21.507   7.699  13.472
35846W        W 4064  31.536  12.168   1.395
35847W        W 4065  22.349  34.996   2.887
35848W        W 4066  29.865  28.589   2.321
35849W        W 4067   9.407  16.301  14.070
35850W        W 4068   0.423  15.739  14.392
35851W        W 4069   3.752  36.656  14.323
35852W        W 4070  38.518  22.757  14.866
35853W        W 4071  39.891   5.844   1.380
35854W        W 4072  33.415  42.913  13.441
35855W        W 4073  40.291   3.965  13.960
35856W        W 4074  42.980  23.112  11.449
35857W        W 4075  10.025  11.754   2.797
35858W        W 4076  18.305  29.483   1.379
35859W        W 4077  12.784  24.549   3.285
35860W        W 4078   4.601  41.222  14.773
35861W        W 4079  37.019  27.020  12.950
35862W        W 4080  42.297  25.493   4.521
35863W        W 4081  31.801   7.789  14.621
35864W        W 4082  34.887   1.969   1.730
35865W        W 4083   4.202  25.299   4.094
35866W        W 4084   9.945  33.112  14.001
35867W        W 4085   7.582   9.772   0.705
35868W        W 4086   5.352  33.622   2.887
35869W        W 4087  34.569  35.384  13.829
35870W        W 4088   0.891  32.603  10.686
35871W        W 4089  23.982  23.999  12.437
35872W        W 4090  36.959  26.499  13.806
35873W        W 4091  37.701  31.438  10.543
35874W        W 4092  25.467  25.170   0.882
35875W        W 4093  14.352  36.453  12.806
35876W        W 4094  10.654  19.284  13.048
35877W        W 4095  25.034  11.795   4.236
35878W        W 4096  28.064  44.575   3.296
35879W        W 4097  39.542  18.028  14.419
35880W        W 4098   0.983   9.368   0.755
35881W        W 4099  29.178  43.813  11.497
35882W        W 4100  34.874  38.904   0.354
35883W        W 4101  17.861  43.827   5.109
35884W        W 4102   2.014  36.853  12.557
35885W        W 4103  43.929   1.437  13.249
35886W        W 4104  29.247  24.209  11.183
35887W        W 4105  10.599  23.596   3.194
35888W        W 4106  33.026  10.140   0.336
35889W        W 4107  43.699  43.829   1.914
35890W        W 4108  42.257  30.046   4.881
35891W        W 4109  17.571  15.282   0.434
35892W        W 4110  21.087  18.729   3.873
35893W        W 4111  19.775  37.894   3.957
35894W        W 4112  34.632  28.163   3.204
35895W        W 4113  21.513  15.613   4.531
35896W        W 4114  17.448  31.413  13.587
35897W        W 4115  20.350  18.602  13.371
35898W        W 4116  29.533  22.153  11.705
35899W        W 4117  13.164  44.951  13.028
35900W        W 4118   4.362  17.817  11.451
35901W        W 4119   6.357  23.060  12.822
35902W        W 4120  37.064  29.004  12.079
35903W        W 4121   8.472  29.154   1.370
35904W        W 4122  22.294  26.434   1.197
35905W        W 4123  16.593  35.204  10.546
35906W        W 4124  22.248  10.670  14.372
35907W        W 4125  20.376  39.455  11.551
35908W        W 4126  20.606  15.243  10.849
35909W        W 4127  42.956  41.375   3.778
35910W        W 4128   5.949  43.492   1.124
35911W        W 4129  36.948  37.568  12.043
35912W        W 4130  31.061  32.369   3.211
35913W        W 4131   9.727  22.718  14.097
35914W        W 4132   2.440  40.395  11.824
35915W        W 4133  28.634  19.271   2.302
35916W        W 4134  32.243   9.022  14.148
35917W        W 4135  38.068  38.529  13.277
35918W        W 4136  39.022  38.374  14.427
35919W        W 4137  21.514  14.125  10.768
35920W        W 4138  27.229  38.898  14.074
35921W        W 4139   7.426  43.421   1.331
35922W        W 4140  39.810  40.957   2.296
35923W        W 4141  35.845   8.825  11.574
35924W        W 4142  25.696  42.022  10.815
35925W        W 4143  31.440  25.798  14.887
35926W        W 4144   2.394  23.644  10.418
35927W        W 4145   0.241  41.254  14.403
35928W        W 4146  13.794  43.404   2.326
35929W        W 4147   1.998   9.314  14.754
35930W        W 4148  16.621  20.988   3.876
35931W        W 4149  16.322  13.831  13.544
35932W        W 4150  43.894   0.032   1.357
35933W        W 4151  35.809  18.215   4.140
35934W        W 4152  22.729  35.179  12.639
35935W        W 4153  16.699  31.938  13.510
35936W        W 4154  15.990  14.724   2.654
35937W        W 4155  23.520  30.476  12.028
35938W        W 4156  41.355  12.942  10.633
35939W        W 4157  44.160  19.970   3.917
35940W        W 4158  21.756  40.740   2.126
35941W        W 4159  15.089  11.505   1.296
35942W        W 4160  20.134  17.868   2.267
35943W        W 4161   9.727  36.638   1.356
35944W        W 4162  33.534  20.708   2.262
35945W        W 4163  18.202  10.027   4.579
35946W        W 4164  23.515  14.259   1.168
35947W        W 4165   6.502  37.920   1.793
35948W        W 4166  26.922  14.568  10.738
35949W        W 4167   5.454  22.969  13.495
35950W        W 4168  43.970   3.536  14.733
35951W        W 4169  33.090   3.997   2.082
35952W        W 4170   2.068  21.800   3.753
35953W        W 4171  40.849  30.918   2.849
35954W        W 4172  21.704  40.899   2.901
35955W        W 4173  31.396  44.933  12.832
35956W        W 4174  35.010  41.505  14.076
35957W        W 4175  43.495  22.953  10.620
35958W        W 4176   2.406  32.926  13.974
35959W        W 4177  32.590  21.741  12.803
35960W        W 4178  17.139  24.649   4.102
35961W        W 4179  40.734  19.327  13.410
35962W        W 4180   4.487  26.146   4.263
35963W        W 4181  41.942  27.735  14.247
35964W        W 4182  26.909   2.848  13.485
35965W        W 4183  30.462  13.195   0.386
35966W        W 4184  37.492  34.856   3.249
35967W        W 4185  41.791  21.552   4.985
35968W        W 4186  38.023  25.877   1.448
35969W        W 4187  18.149  42.428   2.550
35970W        W 4188  30.357  22.462  11.075
35971W        W 4189   1.885  19.216  10.855
35972W        W 4190  16.089   6.292   3.868
35973W        W 4191  26.247  22.968  11.842
35974W        W 4192  14.088   2.448   1.727
35975W        W 4193   5.433  26.560   0.003
35976W        W 4194   1.376  41.990   0.200
35977W        W 4195  31.282   1.323   0.347
35978W        W 4196  11.346  15.175   3.982
35979W        W 4197  40.331  10.920   4.514
35980W        W 4198  38.561  31.011   3.268
35981W        W 4199  16.689  34.584   0.282
35982W        W 4200  22.148  11.635   3.696
35983W        W 4201  38.315  43.090  12.276
35984W        W 4202  41.319  32.117   0.144
35985W        W 4203  35.447  20.777   3.712
35986W        W 4204  38.900  42.467  14.041
35987W        W 4205  28.089  29.057  12.308
35988W        W 4206  13.075  33.752   4.061
35989W        W 4207  32.133  17.064  14.437
35990W        W 4208  20.132  29.688   0.946
35991W        W 4209  35.436  12.691   1.700
35992W        W 4210  33.190   4.793  12.116
35993W        W 4211  37.144   5.876  13.915
35994W        W 4212  21.269   1.745  14.979
35995W        W 4213  19.523  37.526   0.945
35996W        W 4214  14.188   4.770  11.681
35997W        W 4215  35.319   7.161  12.512
35998W        W 4216   2.205  41.305   5.098
35999W        W 4217   2.499  17.618   3.192
36000W        W 4218  18.638  43.298   3.914
36001W        W 4219   0.242  40.555  13.103
36002W        W 4220  24.583  35.327  12.621
36003W        W 4221  33.021  12.893  12.959
36004W        W 4222  40.260   2.678  12.549
36005W        W 4223  17.076  11.595   3.263
36006W        W 4224  30.098  13.111  14.434
36007W        W 4225   5.865  33.874  10.589
36008W        W 4226  41.585  38.441   1.427
36009W        W 4227  14.901  18.045  13.747
36010W        W 4228  12.373  42.458  13.120
36011W        W 4229  14.101   0.506   5.251
36012W        W 4230  13.670  13.793   4.721
36013W        W 4231   4.724  17.117  11.185
36014W        W 4232  23.223  29.747   4.112
36015W        W 4233  16.821  41.858  10.573
36016W        W 4234  25.002  40.400  13.446
36017W        W 4235  30.948  38.834  12.212
36018W        W 4236   9.697  26.644   0.943
36019W        W 4237  34.520  31.194  12.461
36020W        W 4238   8.122   0.791   2.827
36021W        W 4239  40.386  41.536  14.459
36022W        W 4240  40.370  25.829  10.650
36023W        W 4241   6.442   8.517   3.588
36024W        W 4242   2.268  29.503   2.435
36025W        W 4243  41.959  26.966  14.748
36026W        W 4244  12.832  40.137  13.329
36027W        W 4245   8.420  42.919   5.155
36028W        W 4246   7.594  44.055  13.888
36029W        W 4247   4.493  38.521   0.549
36030W        W 4248  23.161  37.112   0.968
36031W        W 4249  33.941   4.810   2.684
36032W        W 4250  18.220   6.185  12.018
36033W        W 4251  25.044  37.052  12.037
36034W        W 4252   6.633  41.694   2.894
36035W        W 4253  36.545  12.184  10.730
36036W        W 4254  37.239  21.081  13.928
36037W        W 4255  11.712  29.497  10.195
36038W        W 4256  36.488  44.468  11.696
36039W        W 4257  23.119  20.020   0.546
36040W        W 4258  28.176  43.279   0.248
36041W        W 4259  39.278  40.248   3.328
36042W        W 4260  14.604  20.342  13.488
36043W        W 4261  33.967  26.965  11.033
36044W        W 4262   1.246  29.858   0.385
36045W        W 4263  25.504  32.643  11.656
36046W        W 4264   4.823   5.840  14.788
36047W        W 4265   7.233  40.027   1.429
36048W        W 4266  13.641  31.680   1.409
36049W        W 4267  21.872   3.766   3.195
36050W        W 4268  27.585  44.728   3.526
36051W        W 4269   5.745  36.284  12.898
36052W        W 4270  20.806  37.559   4.118
36053W        W 4271  36.915  16.056  11.071
36054W        W 4272  39.001  35.128  11.414
36055W        W 4273  22.774  25.128  12.111
36056W        W 4274   6.743  34.047  12.380
36057W        W 4275   1.038  12.311   3.690
36058W        W 4276  41.411  39.317  13.781
36059W        W 4277   1.794  19.532  12.981
36060W        W 4278  16.989   5.664   3.623
36061W        W 4279  19.599  37.832   4.608
36062W        W 4280  28.857  38.384  11.577
36063W        W 4281  44.174  39.856   0.417
36064W        W 4282  13.049  31.376  11.003
36065W        W 4283  42.410  17.543   2.671
36066W        W 4284  32.132   6.800  10.995
36067W        W 4285  32.340  16.245  11.579
36068W        W 4286   5.825  21.915   3.111
36069W        W 4287  15.324  41.257  11.753
36070W        W 4288   5.467   2.788   0.962
36071W        W 4289  44.275  34.864   3.599
36072W        W 4290  37.927   9.672   1.254
36073W        W 4291  27.270   2.606  14.353
36074W        W 4292   1.269  31.322   2.417
36075W        W 4293  41.656  31.460   0.064
36076W        W 4294  20.287  20.123  13.360
36077W        W 4295  15.052   6.372   0.198
36078W        W 4296   3.948   7.391  13.328
36079W        W 4297  14.261  26.949  14.089
36080W        W 4298  26.271  39.490  13.128
36081W        W 4299  15.184  11.105   2.592
36082W        W 4300  22.933  17.095   3.709
36083W        W 4301  10.315  31.781   0.499
36084W        W 4302  14.666  42.703   4.612
36085W        W 4303  24.528  13.009  12.590
36086W        W 4304  22.430  28.344   0.650
36087W        W 4305   2.992  16.556   1.393
36088W        W 4306  35.006  28.418  11.671
36089W        W 4307  38.100   9.338  11.994
36090W        W 4308  41.243  28.896   4.635
36091W        W 4309  30.848  37.038   2.662
36092W        W 4310   7.705   1.987   4.082
36093W        W 4311  37.502  33.959   3.302
36094W        W 4312   7.753  15.164  10.246
36095W        W 4313  38.638  11.610   3.253
36096W        W 4314  32.130  43.984  11.741
36097W        W 4315   6.336   2.397  11.889
36098W        W 4316  18.019  28.012   4.459
36099W        W 4317  17.979  13.276  13.054
36100W        W 4318  34.553   6.119   1.256
36101W        W 4319  11.697  31.491  10.546
36102W        W 4320  35.258   0.710   3.779
36103W        W 4321   9.448   5.509  13.127
36104W        W 4322  33.206  12.344   0.870
36105W        W 4323  15.191   5.135  13.359
36106W        W 4324  15.096  39.790  11.001
36107W        W 4325  23.352  35.690  10.182
36108W        W 4326  17.347  18.561  13.786
36109W        W 4327  29.058  35.510  10.738
36110W        W 4328  40.908  18.055  14.794
36111W        W 4329   7.501   6.424  11.098
36112W        W 4330  39.361  12.594   2.945
36113W        W 4331   4.769  27.093   3.656
36114W        W 4332   3.524  22.050  12.862
36115W        W 4333  34.072  40.815   1.010
36116W        W 4334  35.912  23.130   4.575
36117W        W 4335  33.870   0.862   1.455
36118W        W 4336  24.040  29.746  11.642
36119W        W 4337  25.759  26.191   3.670
36120W        W 4338  24.906  27.460   0.765
36121W        W 4339  10.096  24.325   3.438
36122W        W 4340  28.996  14.665   1.821
36123W        W 4341  20.516  38.949   0.537
36124W        W 4342  21.257  25.204  10.737
36125W        W 4343  34.087  44.925  12.023
36126W        W 4344  32.137  10.759   3.717
36127W        W 4345   7.169  16.079  13.503
36128W        W 4346   6.039   4.848  10.233
36129W        W 4347  36.864   1.947  13.604
36130W        W 4348  22.963  17.666   2.340
36131W        W 4349  33.792  13.250   4.092
36132W        W 4350  38.522  24.940  13.045
36133W        W 4351   3.102   6.807  13.258
36134W        W 4352  11.325  40.157   1.247
36135W        W 4353   4.797   2.912  10.603
36136W        W 4354  15.049  22.226   0.885
36137W        W 4355  34.416  40.806   0.547
36138W        W 4356  10.660  15.503  14.866
36139W        W 4357  40.849  31.447   3.774
36140W        W 4358  42.004   5.367   3.595
36141W        W 4359  28.508  10.720   1.785
36142W        W 4360   0.315  18.792  12.078
36143W        W 4361  44.283  42.502   3.156
36144W        W 4362  33.683   0.147   2.794
36145W        W 4363   3.949   5.671  13.313
36146W        W 4364  32.400   1.668   3.421
36147W        W 4365   8.893  13.408   0.025
36148W        W 4366   5.087  44.312  11.148
36149W        W 4367  42.056  10.988   3.734
36150W        W 4368  13.551  39.255  14.446
36151W        W 4369  25.771  19.265  14.996
36152W        W 4370  40.702  13.955   3.209
36153W        W 4371  43.977   1.943  11.674
36154W        W 4372   9.820   9.201   3.643
36155W        W 4373  25.424  44.721  11.098
36156W        W 4374  40.119  10.255  12.930
36157W        W 4375   1.250  34.884   3.119
36158W        W 4376  34.630  24.626   1.112
36159W        W 4377  21.699  41.538  11.675
36160W        W 4378   1.275  40.083  11.593
36161W        W 4379  28.833  25.718   3.690
36162W        W 4380   1.676  11.719   3.231
36163W        W 4381  20.626   8.355  11.661
36164W        W 4382  40.291  24.595   3.181
36165W        W 4383  34.675   4.880  12.109
36166W        W 4384   8.697  34.971   4.748
36167W        W 4385  32.224   8.813   1.474
36168W        W 4386   8.132  39.518   4.069
36169W        W 4387  11.122   3.922  11.528
36170W        W 4388  32.862  32.047  13.961
36171W        W 4389  25.698  25.639   0.805
36172W        W 4390  15.166   3.932   1.506
36173W        W 4391   7.991  42.537   1.343
36174W        W 4392   3.372   1.832  12.567
36175W        W 4393  11.805   8.714  13.392
36176W        W 4394  35.293  19.975  13.853
36177W        W 4395  10.511  13.566   2.689
36178W        W 4396   6.312   4.681  13.862
36179W        W 4397  10.347   6.516   4.508
36180W        W 4398   0.930  32.034   0.885
36181W        W 4399  35.296  12.062  11.962
36182W        W 4400  23.693  33.360  13.048
36183W        W 4401  39.420  13.602  11.152
36184W        W 4402  15.273  27.963   1.683
36185W        W 4403  26.644   6.522   1.015
36186W        W 4404   9.299  15.258  12.563
36187W        W 4405  22.189  21.897   0.943
36188W        W 4406  24.712   3.880  11.279
36189W        W 4407   3.573  23.040   1.870
36190W        W 4408  12.251  26.968   2.242
36191W        W 4409  26.380  13.321  11.848
36192W        W 4410   3.647  42.850  12.286
36193W        W 4411  13.753  32.639   2.220
36194W        W 4412  30.343  24.031  11.706
36195W        W 4413  33.370   4.895  13.984
36196W        W 4414   2.934  20.890   0.933
36197W        W 4415  37.261  36.096   2.642
36198W        W 4416  34.662  16.212  11.920
36199W        W 4417  12.814  24.288   2.828
36200W        W 4418  20.292   5.914  11.529
36201W        W 4419  16.318  39.587  11.981
36202W        W 4420  30.123   9.664  11.584
36203W        W 4421  20.282   8.628  12.522
36204W        W 4422  12.830  34.903  11.054
36205W        W 4423  36.669  16.563   3.719
36206W        W 4424  10.343  38.101  14.363
36207W        W 4425  11.601  15.149   0.182
36208W        W 4426  10.812  44.484   3.761
36209W        W 4427  32.409   8.232   4.532
36210W        W 4428  41.517  35.296  12.635
36211W        W 4429   4.009   6.779  12.639
36212W        W 4430  37.870  33.155   3.779
36213W        W 4431   0.512  30.480   0.369
36214W        W 4432  10.862   5.925  10.750
36215W        W 4433  30.429   5.831  12.074
36216W        W 4434  13.608   8.166   3.365
36217W        W 4435  25.538  20.034   2.146
36218W        W 4436  39.852   8.440  12.453
36219W        W 4437  21.848   2.896  14.897
36220W        W 4438  43.237   0.669   4.044
36221W        W 4439  38.098   0.295   3.840
36222W        W 4440  42.094  35.147  10.970
36223W        W 4441   5.024  43.938  11.497
36224W        W 4442  44.261  21.755   5.024
36225W        W 4443  35.034  30.630   0.457
36226W        W 4444  24.533  34.154   2.837
36227W        W 4445   1.900  17.775  12.471
36228W        W 4446  26.918  19.251   0.382
36229W        W 4447  32.769  12.494   2.420
36230W        W 4448  31.187   5.948  11.491
36231W        W 4449  14.287  23.166   4.613
36232W        W 4450  42.556  44.294  12.023
36233W        W 4451  27.622  40.921   0.401
36234W        W 4452  26.767  12.147  13.927
36235W        W 4453   9.141  27.810   3.393
36236W        W 4454   6.419  33.569  10.742
36237W        W 4455   7.103  44.159  14.042
36238W        W 4456   8.558  44.314   4.206
36239W        W 4457   5.288  15.545  11.926
36240W        W 4458   4.853  20.728  12.639
36241W        W 4459  22.790   4.956  12.073
36242W        W 4460  33.961  23.609  14.497
36243W        W 4461  39.947  17.003   0.933
36244W        W 4462  22.032  13.029   3.668
36245W        W 4463  13.025  27.914   1.808
36246W        W 4464  25.124  39.366  14.481
36247W        W 4465  39.976  12.595   1.320
36248W        W 4466  20.331  28.758  12.987
36249W        W 4467  34.120  26.976  13.895
36250W        W 4468  44.982  38.506  12.035
36251W        W 4469   9.070  17.520  14.892
36252W        W 4470  17.776  35.415   0.911
36253W        W 4471   8.442  44.942   0.814
36254W        W 4472   3.367  22.976  12.506
36255W        W 4473  15.250  26.896   1.008
36256W        W 4474   1.918  36.436  10.767
36257W        W 4475   0.276  12.584   1.680
36258W        W 4476  41.601   1.796  14.620
36259W        W 4477  14.431  17.113  12.595
36260W        W 4478  25.561  33.519   2.384
36261W        W 4479  41.879   8.624  11.520
36262W        W 4480  13.124  21.462   0.966
36263W        W 4481  44.158  30.595  14.969
36264W        W 4482  24.630  17.090  13.814
36265W        W 4483  16.481  12.195   0.790
36266W        W 4484   1.077  33.535   3.072
36267W        W 4485  17.468  24.470  12.356
36268W        W 4486  27.807  26.529  10.296
36269W        W 4487  15.534  38.340   4.576
36270W        W 4488  17.621  31.985   1.522
36271W        W 4489  18.881   7.235   0.863
36272W        W 4490  39.435  11.567   4.370
36273W        W 4491  39.674  20.492   1.913
36274W        W 4492  23.545  15.991   4.258
36275W        W 4493  13.618  18.145  12.774
36276W        W 4494   0.414  29.222  12.416
36277W        W 4495  21.088  30.537   0.220
36278W        W 4496  26.519  30.471   4.287
36279W        W 4497  15.059  32.946   4.125
36280W        W 4498  37.655   3.394  11.292
36281W        W 4499  13.846  26.740   3.154
36282W        W 4500  17.197  20.936  13.757
36283W        W 4501  15.820   8.947  12.556
36284W        W 4502  17.641  19.691   0.905
36285W        W 4503  19.060  22.735  14.288
36286W        W 4504  32.529  39.433  10.938
36287W        W 4505  11.165  24.705  13.069
36288W        W 4506  18.331   1.443  11.447
36289W        W 4507  27.582  39.561  13.495
36290W        W 4508  43.293  22.579   1.819
36291W        W 4509  21.789  30.961  14.839
36292W        W 4510  27.152  13.279   2.537
36293W        W 4511  12.855   4.254  12.550
36294W        W 4512   8.128  43.870  11.679
36295W        W 4513  38.454  26.918   3.131
36296W        W 4514   6.726  20.543   0.205
36297W        W 4515  15.264  11.941   3.236
36298W        W 4516  13.699   2.468   4.092
36299W        W 4517  14.918   5.347   0.457
36300W        W 4518  26.514  36.930  13.966
36301W        W 4519  24.984  35.918   4.220
36302W        W 4520  37.046   1.726  12.189
36303W        W 4521   6.732  19.055  11.449
36304W        W 4522  10.560   1.438  12.008
36305W        W 4523  24.472  31.702  14.487
36306W        W 4524  42.145  25.209   4.115
36307W        W 4525   2.861  18.094   1.225
36308W        W 4526  37.769  36.517  11.675
36309W        W 4527  17.245  44.463  10.524
36310W        W 4528   0.581  41.023  12.041
36311W        W 4529  43.778  17.054  13.998
36312W        W 4530  18.327  19.635  12.687
36313W        W 4531  16.177  43.482  14.861
36314W        W 4532  39.521  21.829  11.251
36315W        W 4533  26.792   7.606  12.432
36316W        W 4534  26.460   7.947  14.354
36317W        W 4535  29.738  23.963   2.320
36318W        W 4536  26.519  13.046   1.161
36319W        W 4537  24.261  18.117   3.353
36320W        W 4538  41.231  32.953   1.842
36321W        W 4539  16.410  36.632   2.077
36322W        W 4540  34.883   2.194   0.295
36323W        W 4541  13.299   6.895   3.623
36324W        W 4542  27.993  23.286   1.860
36325W        W 4543  16.125  19.360  11.342
36326W        W 4544   9.373  37.692  14.428
36327W        W 4545  17.558   4.359   2.576
36328W        W 4546  40.214  44.218   2.094
36329W        W 4547  19.825  36.557  10.715
36330W        W 4548  32.961  26.137  12.655
36331W        W 4549  30.433   3.643   1.696
36332W        W 4550  30.771   8.773   3.196
36333W        W 4551  37.508   4.299  11.250
36334W        W 4552  26.732  32.986  13.279
36335W        W 4553  14.598  27.696   3.630
36336W        W 4554  12.673  22.135  10.376
36337W        W 4555   6.347  13.072   4.130
36338W        W 4556  38.538  31.445   3.822
36339W        W 4557  13.521  16.670  10.597
36340W        W 4558  31.510  42.508   0.561
36341W        W 4559  23.715  32.880   4.136
36342W        W 4560  19.020  44.478   3.962
36343W        W 4561  38.074   2.824  12.107
36344W        W 4562  19.270  43.279  11.639
36345W        W 4563  39.403  18.814   0.781
36346W        W 4564   6.795  11.665   0.886
36347W        W 4565  20.253  14.297  14.321
36348W        W 4566  11.810   5.664  13.946
36349W        W 4567  33.532  23.945   4.626
36350W        W 4568   5.299   8.296   4.482
36351W        W 4569   0.955  29.994  11.628
36352W        W 4570  29.190  17.690   2.824
36353W        W 4571   7.629  22.390   2.333
36354W        W 4572  32.528  24.049  12.547
36355W        W 4573  40.708   7.637  12.871
36356W        W 4574   4.905  35.703   2.396
36357W        W 4575  32.903  13.124   0.258
36358W        W 4576  38.564  42.766  14.330
36359W        W 4577  15.245   2.513   3.560
36360W        W 4578  35.001   8.244   4.996
36361W        W 4579  33.058  11.188  13.254
36362W        W 4580  25.461   9.704  10.666
36363W        W 4581  10.192  18.008   4.747
36364W        W 4582  23.940  34.127  11.981
36365W        W 4583   1.018  38.442   3.693
36366W        W 4584  29.150   7.230   3.116
36367W        W 4585  26.148  37.057   1.247
36368W        W 4586  42.379   0.728  11.050
36369W        W 4587   8.813  18.663   2.801
36370W        W 4588   5.894   5.867  10.720
36371W        W 4589   5.973  11.115   2.434
36372W        W 4590   0.567  43.528   3.635
36373W        W 4591  25.669  39.999   3.735
36374W        W 4592  31.324   1.888  11.961
36375W        W 4593  10.633  38.625  14.966
36376W        W 4594  42.428  27.889  14.380
36377W        W 4595  29.963  44.812  11.116
36378W        W 4596  12.872  23.944   1.341
36379W        W 4597   8.329  35.583   0.287
36380W        W 4598  23.086  31.064   3.105
36381W        W 4599  23.511   9.973   0.430
36382W        W 4600   0.388  41.906   0.304
36383W        W 4601   6.476  20.964   1.349
36384W        W 4602  13.087  37.379   0.252
36385W        W 4603  13.883  28.988  12.195
36386W        W 4604   4.336  22.636  10.975
36387W        W 4605  35.094   6.997  12.046
36388W        W 4606   6.956  27.536  12.470
36389W        W 4607  31.877   3.583   1.783
36390W        W 4608  12.886  24.108  11.245
36391W        W 4609  22.198  13.591   0.628
36392W        W 4610  16.749  36.851  13.878
36393W        W 4611  17.144  22.219   1.797
36394W        W 4612  42.226  37.935  11.686
36395W        W 4613  17.620  24.710   3.730
36396W        W 4614  24.973  14.011   5.041
36397W        W 4615   5.016  23.238  11.784
36398W        W 4616  42.070  42.625   4.095
36399W        W 4617  36.300  27.280  14.291
36400W        W 4618  32.910  36.119   4.066
36401W        W 4619  38.862  29.233  12.034
36402W        W 4620  15.668  31.597  13.943
36403W        W 4621  21.542  38.012  12.465
36404W        W 4622  18.892   4.377   3.767
36405W        W 4623  26.954   2.832   3.221
36406W        W 4624  31.017  11.762   4.685
36407W        W 4625  26.384  23.074   2.913
36408W        W 4626  18.115  39.307   3.072
36409W        W 4627  15.578  17.357   3.789
36410W        W 4628  17.023  15.326  12.999
36411W        W 4629  22.122  18.639   4.468
36412W        W 4630   0.649  43.377  13.476
36413W        W 4631  15.794  41.069  13.533
36414W        W 4632  39.376  22.195   3.430
36415W        W 4633  27.167   6.332   2.296
36416W        W 4634   7.367  15.809   0.224
36417W        W 4635  39.341  44.981   3.188
36418W        W 4636  15.660  40.896  10.877
36419W        W 4637  29.647   7.499   4.181
36420W        W 4638  21.889  25.469  12.634
36421W        W 4639   0.036   4.719  14.411
36422W        W 4640  10.100   7.163   3.130
36423W        W 4641  25.516  36.264  11.060
36424W        W 4642  39.364  10.503  13.362
36425W        W 4643  11.326   0.004   1.206
36426W        W 4644   6.916  18.496  11.205
36427W        W 4645   7.977  36.417  12.562
36428W        W 4646  10.492  11.286  12.422
36429W        W 4647  30.928   0.480  14.848
36430W        W 4648  33.128  18.743  13.308
36431W        W 4649  36.053  28.736  14.938
36432W        W 4650  41.806  36.387  13.370
36433W        W 4651  37.351  18.267   3.066
36434W        W 4652   9.336  20.511  10.802
36435W        W 4653  16.200  19.174   0.821
36436W        W 4654  15.168  41.342   4.524
36437W        W 4655   8.378  23.556  14.362
36438W        W 4656   1.304   8.962   4.134
36439W        W 4657  40.107  12.793  12.052
36440W        W 4658  29.685  30.041   2.437
36441W        W 4659  24.689  15.803   3.427
36442W        W 4660  24.616  14.717   2.687
36443W        W 4661  20.672   9.323   3.703
36444W        W 4662  22.170  40.797  12.925
36445W        W 4663  14.358  23.570  10.471
36446W        W 4664  38.265  32.341   3.214
36447W        W 4665  16.549   1.398   4.917
36448W        W 4666   6.059  35.727   5.112
36449W        W 4667  21.365  44.924  12.335
36450W        W 4668  24.496  22.547   9.985
36451W        W 4669  30.713  42.629   4.162
36452W        W 4670  27.640   4.534  13.708
36453W        W 4671  36.881   4.367   1.004
36454W        W 4672  19.537   2.949  14.966
36455W        W 4673  10.489  25.709   3.228
36456W        W 4674  42.894  32.608   1.455
36457W        W 4675  13.323  15.254  10.871
36458W        W 4676   8.212  28.629   3.553
36459W        W 4677  15.878   0.317  11.200
36460W        W 4678   5.218  31.810  12.642
36461W        W 4679  41.851  18.801  10.572
36462W        W 4680  36.360  11.731  14.253
36463W        W 4681  38.855  43.857   3.672
36464W        W 4682  13.367   5.925  13.592
36465W        W 4683  26.511  34.098   0.409
36466W        W 4684   8.194  27.622  11.594
36467W        W 4685  15.056  28.591   3.628
36468W        W 4686  18.675   2.981   4.781
36469W        W 4687  33.690  41.592  13.978
36470W        W 4688  13.167  22.414   3.514
36471W        W 4689   0.849  20.745   2.667
36472W        W 4690  26.560  32.992  12.790
36473W        W 4691  29.432  15.545   2.683
36474W        W 4692   9.473   7.401  13.049
36475W        W 4693  17.846  12.162  13.414
36476W        W 4694  29.589  35.508   3.158
36477W        W 4695  28.565  28.322   1.977
36478W        W 4696  40.588  44.276  11.484
36479W        W 4697   7.216   0.687  13.843
36480W        W 4698  43.668  29.652   1.690
36481W        W 4699  44.140  39.525  14.265
36482W        W 4700  24.111  14.690   1.222
36483W        W 4701   4.847  15.683  11.224
36484W        W 4702  22.746   8.753  13.267
36485W        W 4703  27.367  25.635   1.437
36486W        W 4704  40.763  15.762   4.148
36487W        W 4705  43.842  24.579   0.535
36488W        W 4706  38.472   5.769   3.804
36489W        W 4707  21.504  39.982  14.779
36490W        W 4708  33.165  30.551   2.201
36491W        W 4709   8.133  24.108   3.465
36492W        W 4710  15.753  13.605  10.262
36493W        W 4711  13.381  10.833   1.288
36494W        W 4712  20.358  26.474  10.397
36495W        W 4713   4.787  13.650   4.367
36496W        W 4714  44.676  24.993  11.478
36497W        W 4715   4.484   7.052   2.781
36498W        W 4716  23.777  44.287   3.285
36499W        W 4717  15.572   9.747   0.366
36500W        W 4718  13.205   0.365  12.058
36501W        W 4719   1.862  17.336   4.062
36502W        W 4720  33.413  30.140  11.748
36503W        W 4721  21.682  20.927   2.419
36504W        W 4722  27.138  15.865  13.926
36505W        W 4723  24.248  37.538  14.889
36506W        W 4724  41.925   3.261  14.835
36507W        W 4725  27.894  26.149  11.998
36508W        W 4726  41.039  37.074  14.491
36509W        W 4727  32.875  34.311   2.258
36510W        W 4728  21.116  36.893  13.921
36511W        W 4729   2.243   1.993   1.809
36512W        W 4730  27.988  26.677  11.143
36513W        W 4731  26.704  30.875  12.556
36514W        W 4732  20.776   9.664   4.633
36515W        W 4733  40.256  24.532   2.142
36516W        W 4734  17.537  11.362   9.842
36517W        W 4735  44.899  40.979  13.806
36518W        W 4736  13.662  43.348  10.663
36519W        W 4737  16.696  37.636  12.528
36520W        W 4738  41.804  23.544   3.593
36521W        W 4739   8.710  16.670   1.144
36522W        W 4740  42.963  40.997   0.513
36523W        W 4741   2.668   0.973  10.815
36524W        W 4742  18.635  12.913   2.790
36525W        W 4743  19.892  24.483  12.405
36526W        W 4744  10.803  21.085   0.810
36527W        W 4745  11.299  43.116   0.218
36528W        W 4746  43.323  32.427  11.519
36529W        W 4747  37.490  34.946  14.920
36530W        W 4748  24.322  16.783  13.034
36531W        W 4749  42.005  38.713   4.589
36532W        W 4750   7.922   0.731  11.089
36533W        W 4751   4.030  23.028  13.379
36534W        W 4752  16.055  38.928   3.630
36535W        W 4753  32.565  11.103   2.711
36536W        W 4754  41.257   6.332   0.025
36537W        W 4755  10.530  16.130   5.573
36538W        W 4756  13.719  32.927  13.319
36539W        W 4757  13.251  37.863   3.155
36540W        W 4758   7.274  18.625   4.271
36541W        W 4759   7.967  33.845   3.293
36542W        W 4760   0.840   0.275  12.146
36543W        W 4761  44.295  33.299   3.043
36544W        W 4762  24.002  43.239  14.479
36545W        W 4763  14.894   3.507   5.150
36546W        W 4764   2.293  21.383   4.866
36547W        W 4765  27.015  29.136  12.050
36548W        W 4766  11.857   9.607   3.638
36549W        W 4767  31.482  19.296   4.612
36550W        W 4768  28.436  26.958   0.906
36551W        W 4769   3.063  12.779  10.278
36552W        W 4770  41.283  26.726   2.381
36553W        W 4771  12.827  35.634   4.690
36554W        W 4772  25.235  35.582   3.674
36555W        W 4773  38.469  28.733  12.568
36556W        W 4774  16.081  22.538   3.159
36557W        W 4775   5.645   7.264   4.522
36558W        W 4776  44.497  29.185  12.538
36559W        W 4777  24.945  21.437   1.824
36560W        W 4778  35.795  14.680   4.212
36561W        W 4779  23.731  31.407   0.949
36562W        W 4780  30.097  27.148  14.318
36563W        W 4781   8.890   1.887   4.995
36564W        W 4782   1.269  27.872  11.931
36565W        W 4783  33.575   5.212  11.406
36566W        W 4784  38.917   8.090   4.528
36567W        W 4785  28.006  29.471  12.016
36568W        W 4786   2.295  40.090   0.853
36569W        W 4787  34.982   2.705   2.758
36570W        W 4788   9.732  17.592  14.059
36571W        W 4789  12.605  37.882  12.145
36572W        W 4790  27.943  13.597   4.275
36573W        W 4791  18.035  41.550   3.614
36574W        W 4792  13.336  14.638   3.701
36575W        W 4793   1.752  34.423  12.453
36576W        W 4794  15.805  41.920  12.634
36577W        W 4795  41.394  38.124   0.801
36578W        W 4796  23.773  29.412   3.283
36579W        W 4797  10.012  43.361  10.093
36580W        W 4798  25.830  14.786  10.719
36581W        W 4799   2.136  25.396  12.563
36582W        W 4800  37.394   0.935   2.865
36583W        W 4801  23.227  32.997   3.710
36584W        W 4802  27.002  16.828  13.722
36585W        W 4803  44.984  25.439  14.220
36586W        W 4804  11.663  33.093   3.592
36587W        W 4805  13.616  14.856   1.813
36588W        W 4806  10.797  16.402  14.635
36589W        W 4807   2.831  13.049  13.422
36590W        W 4808  19.126  13.151  13.112
36591W        W 4809  33.852  43.630   0.266
36592W        W 4810  41.865   3.423  12.762
36593W        W 4811  15.090  10.366  14.254
36594W        W 4812  27.120  43.950  10.666
36595W        W 4813  31.259  40.925   1.434
36596W        W 4814   3.897  19.637   1.279
36597W        W 4815   2.881  23.195  14.357
36598W        W 4816   6.220   3.625   0.849
36599W        W 4817  10.833  36.503   0.795
36600W        W 4818  19.434   1.364   3.629
36601W        W 4819  38.559   2.695  13.024
36602W        W 4820   9.653  11.134  14.375
36603W        W 4821  20.928  17.527  11.451
36604W        W 4822   1.114  41.947  14.752
36605W        W 4823  21.160  15.778   0.785
36606W        W 4824  43.108  11.537  13.906
36607W        W 4825  14.620   8.344   0.796
36608W        W 4826  16.090   7.358   2.921
36609W        W 4827   5.809   2.269   0.760
36610W        W 4828  32.092  23.056  11.177
36611W        W 4829  19.839   7.274   3.694
36612W        W 4830   5.477  44.163  12.456
36613W        W 4831  23.132   8.740  14.530
36614W        W 4832   7.890  30.891  11.684
36615W        W 4833  10.179   6.526  13.852
36616W        W 4834  30.960  12.795   0.859
36617W        W 4835  35.163  16.068  12.838
36618W        W 4836  42.390  19.814   3.758
36619W        W 4837  37.560  27.227   3.833
36620W        W 4838   3.070  23.167   1.876
36621W        W 4839   1.640  29.039   1.501
36622W        W 4840  19.705  24.197   3.545
36623W        W 4841  30.099  40.848  12.500
36624W        W 4842  35.472   8.790  13.350
36625W        W 4843  29.623   0.343   1.847
36626W        W 4844  35.794  32.068  10.942
36627W        W 4845  22.550  41.995   0.271
36628W        W 4846  28.533   4.902   4.426
36629W        W 4847  31.379   0.931  13.958
36630W        W 4848   5.904  17.022   2.252
36631W        W 4849   7.800  15.245   4.120
36632W        W 4850  13.746  41.941   5.108
36633W        W 4851  27.381  29.062   4.472
36634W        W 4852  35.941  12.753   1.959
36635W        W 4853   3.419   2.266   4.344
36636W        W 4854  12.738  20.765   3.661
36637W        W 4855  27.583  43.720  12.517
36638W        W 4856   7.934  18.481  14.244
36639W        W 4857  22.010  23.345   4.124
36640W        W 4858  23.239  30.654  13.146
36641W        W 4859  24.696  21.008  14.766
36642W        W 4860  19.971  27.526  14.918
36643W        W 4861  23.929  37.108  12.608
36644W        W 4862   7.158  16.315   0.217
36645W        W 4863  28.733  37.614  12.930
36646W        W 4864  44.097   1.073   4.999
36647W        W 4865  41.085   4.906   0.747
36648W        W 4866  22.960  23.725  12.912
36649W        W 4867  18.282  22.657   3.264
36650W        W 4868  32.157  39.190  11.186
36651W        W 4869  42.387  21.554  14.422
36652W        W 4870  40.307  38.506  13.086
36653W        W 4871  17.137  25.791  11.517
36654W        W 4872  41.970  11.722  13.145
36655W        W 4873  32.667   2.770   4.053
36656W        W 4874   4.011  26.007   3.022
36657W        W 4875  22.182  39.858   4.905
36658W        W 4876  13.280  35.890   0.207
36659W        W 4877   7.749  43.657  14.195
36660W        W 4878  42.840  20.849  14.506
36661W        W 4879  25.548  35.307  14.931
36662W        W 4880  34.804  37.441  13.885
36663W        W 4881  38.763  14.620  10.509
36664W        W 4882  37.442  34.145   4.295
36665W        W 4883  27.976  12.133  10.513
36666W        W 4884  42.207  20.071  11.296
36667W        W 4885   2.506  11.774  12.696
36668W        W 4886  12.117  21.663   3.544
36669W        W 4887   3.941  24.090   4.415
36670W        W 4888  13.626   5.287  12.977
36671W        W 4889  40.851  22.248  12.379
36672W        W 4890  43.915  25.994   4.426
36673W        W 4891   9.820   0.815  12.056
36674W        W 4892  36.148  11.175  11.087
36675W        W 4893  11.398  22.161   3.955
36676W        W 4894  30.153  33.119  12.266
36677W        W 4895  25.739  44.336  10.986
36678W        W 4896  25.411  16.037   0.611
36679W        W 4897   7.185  23.746   2.203
36680W        W 4898  37.321  30.448   4.246
36681W        W 4899  18.214  40.992  11.447
36682W        W 4900  14.803  19.166   0.266
36683W        W 4901  34.499  35.216  12.462
36684W        W 4902  39.425  25.910   4.643
36685W        W 4903  25.186  27.737   4.394
36686W        W 4904  39.003  13.583  14.798
36687W        W 4905  37.336  32.208   2.760
36688W        W 4906  20.020  21.500   2.827
36689W        W 4907   7.866  22.418   5.095
36690W        W 4908  16.744  31.689   1.341
36691W        W 4909  15.528  13.644   5.640
36692W        W 4910  13.328  35.003  13.495
36693W        W 4911  44.506   9.674   2.288
36694W        W 4912  14.852  16.699  10.853
36695W        W 4913  24.977  35.690  10.877
36696W        W 4914  17.300  32.855   1.716
36697W        W 4915  41.890   2.748  14.924
36698W        W 4916   1.412  12.131  12.887
36699W        W 4917  31.118   6.234  10.183
36700W        W 4918  36.632  30.519  13.343
36701W        W 4919  36.933   4.753   2.637
36702W        W 4920   2.084   5.804   1.589
36703W        W 4921  34.360  35.061  13.446
36704W        W 4922   3.901   9.175   2.412
36705W        W 4923  17.283  11.771  13.037
36706W        W 4924  26.816  14.151   0.891
36707W        W 4925  19.634   9.205   2.153
36708W        W 4926  18.619  11.362  12.895
36709W        W 4927  12.122  34.370  10.716
36710W        W 4928  41.452   6.736  11.604
36711W        W 4929  33.714  38.458   4.165
36712W        W 4930  12.838   6.219   2.968
36713W        W 4931  17.293  37.051   3.145
36714W        W 4932   7.573  38.969   3.315
36715W        W 4933  21.508  23.469   4.154
36716W        W 4934  36.663  32.865   2.237
36717W        W 4935  41.098  19.009   1.897
36718W        W 4936  40.949  27.826  13.920
36719W        W 4937   8.362  32.302  13.050
36720W        W 4938  12.620  39.320  14.348
36721W        W 4939   4.848  18.163   0.315
36722W        W 4940   2.282  30.668  11.479
36723W        W 4941  42.424  12.776  11.908
36724W        W 4942  28.100   2.506  12.028
36725W        W 4943   9.661  12.867  14.903
36726W        W 4944  24.395  35.951   2.360
36727W        W 4945  19.777  43.469  11.678
36728W        W 4946   1.356  25.809   0.458
36729W        W 4947  36.933  13.183  10.662
36730W        W 4948  20.767  44.859  11.547
36731W        W 4949  36.816  28.650   1.485
36732W        W 4950  41.545   2.032  12.443
36733W        W 4951  28.091  44.958  13.913
36734W        W 4952  18.101  25.480  14.001
36735W        W 4953  34.315  32.658   2.246
36736W        W 4954  42.873  42.895   3.182
36737W        W 4955  15.709   3.246  13.399
36738W        W 4956  38.625  23.081   4.966
36739W        W 4957  33.137  28.358  12.990
36740W        W 4958  10.266  13.311   3.610
36741W        W 4959  30.422  31.155  11.462
36742W        W 4960  10.723  15.785   2.270
36743W        W 4961  23.214  24.182  12.941
36744W        W 4962  41.787   8.461   1.753
36745W        W 4963  10.512  17.178  14.206
36746W        W 4964   0.743   2.745   0.482
36747W        W 4965  43.800  20.839  12.862
36748W        W 4966  38.451  44.878  14.204
36749W        W 4967  33.730  39.987   4.457
36750W        W 4968  22.245   3.958  13.376
36751W        W 4969   8.962  29.608  13.729
36752W        W 4970  32.185   9.881  10.998
36753W        W 4971  32.216  32.369  12.512
36754W        W 4972  13.286  33.564  11.016
36755W        W 4973   9.404   4.307  14.021
36756W        W 4974  18.380   8.650   4.991
36757W        W 4975   3.724  38.754  13.992
36758W        W 4976  31.636  21.178   0.813
36759W        W 4977  11.641   1.257   4.708
36760W        W 4978  26.620  32.470   1.783
36761W        W 4979   0.355   3.650  12.529
36762W        W 4980  14.121  10.662   2.278
36763W        W 4981  36.063   1.791   0.990
36764W        W 4982   1.745   7.514  11.983
36765W        W 4983   1.292  38.013   3.550
36766W        W 4984   6.800   1.138   4.400
36767W        W 4985  22.189  19.829   0.215
36768W        W 4986  10.658   6.851   2.358
36769W        W 4987  41.802  23.007  12.031
36770W        W 4988   7.339  40.456  13.300
36771W        W 4989  38.542  44.393   2.841
36772W        W 4990   7.218  42.460  13.356
36773W        W 4991  32.250  21.432  11.076
36774W        W 4992  20.654  37.153  10.682
36775W        W 4993  41.424  39.468  12.816
36776W        W 4994   5.854  32.827   3.657
36777W        W 4995  17.061   3.217   2.364
36778W        W 4996  36.953   1.764  11.228
36779W        W 4997  17.199  14.132   2.629
36780W        W 4998   5.539  15.243   4.183
36781W        W 4999  17.913  22.272   4.587
36782W        W 5000  29.803  27.703  12.352
36783W        W 5001  30.141  34.416  14.023
36784W        W 5002  17.534  37.869   1.740
36785W        W 5003  27.385  21.178   4.086
36786W        W 5004  12.216  19.589  10.581
36787W        W 5005  20.310  41.808   4.314
36788W        W 5006  40.270   7.440  12.050
36789W        W 5007  36.177  18.805  12.841
36790W        W 5008  37.948  11.239  12.494
36791W        W 5009  34.224  12.072  11.100
36792W        W 5010   3.101  36.897   4.852
36793W        W 5011  14.653   3.397  13.454
36794W        W 5012  12.475  13.636   0.820
36795W        W 5013  36.768  15.761   2.917
36796W        W 5014  44.536   2.151  12.960
36797W        W 5015  16.371   5.007  12.402
36798W        W 5016  20.848  16.667  11.435
36799W        W 5017  24.564  21.023   4.054
36800W        W 5018  29.018  30.683  12.426
36801W        W 5019  41.111  35.613   2.293
36802W        W 5020  16.649  42.878   2.112
36803W        W 5021  15.743  17.137  14.305
36804W        W 5022  12.162  26.583   3.861
36805W        W 5023  34.383   3.577   1.447
36806W        W 5024  30.541  44.368  12.706
36807W        W 5025   6.417   5.162  12.449
36808W        W 5026  17.260   7.954   3.091
36809W        W 5027   1.327   1.087   4.645
36810W        W 5028  42.296  32.098  12.106
36811W        W 5029  42.982   7.800  13.663
36812W        W 5030  39.334  21.439   1.908
36813W        W 5031  13.672  28.726  13.088
36814W        W 5032  43.407   1.895   5.207
36815W        W 5033  19.952  43.025  12.012
36816W        W 5034  12.247  36.948  11.906
36817W        W 5035  21.249  42.442   3.076
36818W        W 5036  39.095  30.045   2.951
36819W        W 5037  25.398  33.129  10.360
36820W        W 5038  21.557  28.943   4.218
36821W        W 5039  22.529   6.996   0.001
36822W        W 5040   6.233  39.050   2.868
36823W        W 5041  17.438  11.437   1.798
36824W        W 5042  42.822  34.866  12.863
36825W        W 5043  25.175  40.906   0.440
36826W        W 5044  43.860  40.019  10.482
36827W        W 5045  19.894  15.465   5.094
36828W        W 5046  29.506  20.300   2.104
36829W        W 5047  42.374  22.190   2.881
36830W        W 5048   0.394  34.540  12.592
36831W        W 5049  10.176  34.098   3.530
36832W        W 5050  22.289  32.248   3.043
36833W        W 5051  38.994  24.530   0.687
36834W        W 5052  31.901  18.528  13.069
36835W        W 5053   8.118  26.963  14.542
36836W        W 5054  22.857  28.632  12.585
36837W        W 5055  21.255  30.901   1.485
36838W        W 5056  15.536  27.874   2.746
36839W        W 5057  12.638  32.616   1.137
36840W        W 5058  22.432  37.855   9.905
36841W        W 5059  20.515   0.878   4.122
36842W        W 5060  32.036  11.939   1.383
36843W        W 5061  18.051  34.724   1.401
36844W        W 5062   4.038  42.969  14.267
36845W        W 5063  43.560  37.820   0.350
36846W        W 5064   5.414  34.068  10.997
36847W        W 5065  16.583  39.082  14.907
36848W        W 5066  31.894   7.388   2.657
36849W        W 5067  27.775   6.417   3.168
36850W        W 5068  10.984   5.850  13.424
36851W        W 5069  39.754   7.269  14.248
36852W        W 5070  35.397  10.860  10.693
36853W        W 5071  24.066  17.690   0.916
36854W        W 5072  15.787   8.720   0.320
36855W        W 5073  35.318  38.203  14.305
36856W        W 5074  29.673  42.318   3.172
36857W        W 5075  41.474  36.924  11.563
36858W        W 5076   9.744  39.404   2.731
36859W        W 5077  25.502  21.495   1.989
36860W        W 5078  20.598  35.679   0.884
36861W        W 5079  36.318  30.142   4.634
36862W        W 5080  12.390  41.604  14.521
36863W        W 5081  32.479  26.743   4.059
36864W        W 5082  40.587  38.484  12.366
36865W        W 5083  31.757  44.845  10.645
36866W        W 5084   6.246  44.638  13.920
36867W        W 5085  21.622   2.208   0.959
36868W        W 5086  28.192  42.939   2.293
36869W        W 5087  12.385  40.345   4.129
36870W        W 5088  17.214  43.769   3.226
36871W        W 5089  34.395  25.477   2.754
36872W        W 5090  10.240  18.591   0.401
36873W        W 5091   9.607  43.395   2.703
36874W        W 5092   1.166  16.698   3.262
36875W        W 5093  15.238  12.239   1.633
36876W        W 5094  36.239  42.789   4.227
36877W        W 5095  26.890   7.364  13.293
36878W        W 5096  16.302  19.696   0.748
36879W        W 5097  41.560   6.730   1.262
36880W        W 5098   1.865  22.041   1.220
36881W        W 5099  12.783   6.396   1.400
36882W        W 5100  14.744  27.955  13.816
36883W        W 5101  29.156  20.509  11.155
36884W        W 5102   6.246   9.038   4.089
36885W        W 5103  15.068  21.060  14.329
36886W        W 5104  16.302  21.211   1.373
36887W        W 5105   6.399  31.969  11.698
36888W        W 5106  26.663  27.583  13.857
36889W        W 5107  26.471  27.215  10.408
36890W        W 5108  37.099  34.378   4.878
36891W        W 5109  11.722  33.970  14.251
36892W        W 5110  19.384  19.843  14.958
36893W        W 5111  10.927  20.965  14.384
36894W        W 5112  22.132   0.756   2.332
36895W        W 5113  16.688  37.086   4.164
36896W        W 5114  28.056   9.768  11.513
36897W        W 5115  42.359  20.180   2.844
36898W        W 5116  23.208  25.994  11.966
36899W        W 5117  12.526   3.455   1.832
36900W        W 5118  36.209  38.450   3.637
36901W        W 5119  38.331  43.918   2.849
36902W        W 5120   5.246  11.363  11.455
36903W        W 5121  13.568   5.847   4.586
36904W        W 5122  39.444  27.505   0.894
36905W        W 5123  28.508  14.419   5.331
36906W        W 5124  34.003  14.664  13.803
36907W        W 5125  31.464  12.160   1.931
36908W        W 5126  34.368   3.798  12.069
36909W        W 5127  27.388   3.395   2.320
36910W        W 5128   4.393   4.641  10.783
36911W        W 5129  39.065  39.420  13.574
36912W        W 5130  27.690  22.726   1.688
36913W        W 5131  34.062  22.534  10.365
36914W        W 5132  43.975  30.895   3.825
36915W        W 5133  32.490  35.162   4.098
36916W        W 5134  38.636  14.089   2.564
36917W        W 5135  34.951   4.120  13.274
36918W        W 5136   9.447   8.934   4.518
36919W        W 5137  37.113  25.835  11.292
36920W        W 5138   8.187   0.336   1.882
36921W        W 5139  24.050  37.970   1.153
36922W        W 5140   2.396  26.379  12.403
36923W        W 5141  24.460  10.542   0.916
36924W        W 5142  25.019   2.877   4.010
36925W        W 5143  32.102  27.032   0.874
36926W        W 5144  38.306  36.947   0.243
36927W        W 5145  12.655  34.133  10.666
36928W        W 5146  37.295  11.747  14.473
36929W        W 5147  31.459  28.649   1.269
36930W        W 5148  11.718  36.476  10.643
36931W        W 5149   6.630  40.497   0.793
36932W        W 5150  34.192  33.121   2.530
36933W        W 5151  32.608  21.125  14.314
36934W        W 5152   4.065  23.654   3.303
36935W        W 5153  11.505   4.863  13.838
36936W        W 5154   7.823  21.485  13.027
36937W        W 5155  19.587  12.937  14.282
36938W        W 5156  36.230  42.034   3.643
36939W        W 5157  30.447   2.568   2.128
36940W        W 5158  31.413   2.350  14.242
36941W        W 5159  18.092  23.028   1.399
36942W        W 5160  29.648  39.488   1.931
36943W        W 5161  27.060  20.817  13.822
36944W        W 5162  28.473  44.898  12.398
36945W        W 5163   1.773  29.402  12.337
36946W        W 5164  22.236  17.301   0.891
36947W        W 5165   4.917  35.782  12.995
36948W        W 5166  14.042  40.907   0.980
36949W        W 5167  29.559  16.397   3.086
36950W        W 5168   0.473   1.225   3.121
36951W        W 5169  43.886  40.314  11.866
36952W        W 5170  31.160  36.345  14.351
36953W        W 5171  27.616  13.506   4.684
36954W        W 5172  38.111  36.992   0.732
36955W        W 5173  41.428  37.462   4.369
36956W        W 5174  39.478  11.726   0.396
36957W        W 5175  33.818   3.749  14.821
36958W        W 5176  16.323   3.686   0.282
36959W        W 5177  21.042   6.730  11.101
36960W        W 5178  20.677  20.437  14.481
36961W        W 5179  33.622   1.417   2.326
36962W        W 5180  19.201   5.719  13.949
36963W        W 5181  38.303   3.804   1.799
36964W        W 5182  12.787  28.695  12.913
36965W        W 5183   0.735   0.935   3.616
36966W        W 5184  11.428  28.415   4.599
36967W        W 5185   3.126  39.044  12.856
36968W        W 5186  10.230  44.370   1.473
36969W        W 5187  16.658  15.618  14.736
36970W        W 5188   5.210  29.450   3.756
36971W        W 5189  22.555   6.446  14.871
36972W        W 5190  21.485  20.638  12.384
36973W        W 5191  25.967   6.753   2.713
36974W        W 5192   0.227  34.376  11.625
36975W        W 5193  23.992   4.870   5.343
36976W        W 5194  39.097   5.955  14.410
36977W        W 5195  34.796  20.653   1.824
36978W        W 5196  39.590  20.124  13.733
36979W        W 5197  15.810  22.095   2.934
36980W        W 5198  42.721  14.677   2.922
36981W        W 5199  28.982  15.339   3.668
36982W        W 5200   2.186  24.033   2.878
36983W        W 5201  11.714  23.648  13.120
36984W        W 5202  11.602   5.851   3.249
36985W        W 5203  35.559  11.183   4.569
36986W        W 5204  17.421  22.704  12.071
36987W        W 5205  40.235  19.740   0.500
36988W        W 5206  16.082  29.205   2.354
36989W        W 5207   4.307  18.308   1.327
36990W        W 5208  33.572  41.920  12.060
36991W        W 5209  38.042   2.993   3.254
36992W        W 5210  35.931   7.849   4.828
36993W        W 5211  42.491   9.957   1.345
36994W        W 5212  28.681   2.990  12.985
36995W        W 5213  44.792  36.332  13.499
36996W        W 5214  21.088   6.801   0.967
36997W        W 5215  20.285  42.504   0.354
36998W        W 5216  24.257  42.369   3.038
36999W        W 5217   1.453  20.044   0.774
37000W        W 5218  30.028  19.714  13.499
37001W        W 5219  32.879   8.935  12.066
37002W        W 5220   7.127  25.021  10.640
37003W        W 5221  44.406  24.441  13.472
37004W        W 5222   2.349  17.464  11.631
37005W        W 5223  30.609  23.864  13.398
37006W        W 5224  43.443  15.326   3.127
37007W        W 5225  20.755  35.079   1.802
37008W        W 5226  42.242  28.174   2.889
37009W        W 5227   3.475   4.145  11.111
37010W        W 5228  35.375  15.584   2.573
37011W        W 5229   6.814  36.237  11.143
37012W        W 5230   7.274  22.497   2.704
37013W        W 5231   7.929  16.969   2.232
37014W        W 5232  27.471   2.482   2.355
37015W        W 5233  24.019  25.528  12.560
37016W        W 5234  34.891  17.898   3.295
37017W        W 5235  20.301  31.387  13.443
37018W        W 5236  32.701  10.367   3.297
37019W        W 5237  15.377  37.115   3.272
37020W        W 5238  23.203  32.578  14.758
37021W        W 5239  11.645   3.808   4.435
37022W        W 5240  17.339  39.395   2.393
37023W        W 5241   4.769  31.700   4.175
37024W        W 5242   7.774   9.058   3.251
37025W        W 5243   0.520  38.468  10.763
37026W        W 5244  28.980  37.822  11.620
37027W        W 5245  41.111  23.779  12.205
37028W        W 5246   8.615  43.569   2.585
37029W        W 5247  40.880  10.661   0.904
37030W        W 5248  30.588  39.829   3.681
37031W        W 5249   5.610   9.669  14.040
37032W        W 5250  39.276  30.187  11.173
37033W        W 5251  29.580  11.103  10.801
37034W        W 5252  38.744  41.218  14.346
37035W        W 5253  44.297  28.050   2.676
37036W        W 5254   4.034  44.944  10.530
37037W        W 5255   1.276  23.869   1.416
37038W        W 5256  10.262   4.631  14.963
37039W        W 5257  39.060   5.273   1.284
37040W        W 5258  24.224  21.246  14.802
37041W        W 5259   0.833  23.618   1.270
37042W        W 5260  35.894  24.738  13.136
37043W        W 5261   9.332  39.097   2.641
37044W        W 5262  26.954  27.544  11.504
37045W        W 5263   9.199   7.360   1.902
37046W        W 5264  30.849  23.021   1.808
37047W        W 5265  37.934  40.048  14.929
37048W        W 5266   9.237  24.303   2.588
37049W        W 5267   6.966  20.674  12.059
37050W        W 5268  26.686  34.072  13.460
37051W        W 5269  20.635  26.819  12.861
37052W        W 5270   4.907   5.395  11.582
37053W        W 5271  17.950  30.437  14.934
37054W        W 5272   6.121  38.754  11.345
37055W        W 5273  34.654  35.301   3.022
37056W        W 5274   3.131  19.992   2.778
37057W        W 5275  25.059  13.574  10.650
37058W        W 5276  14.754  12.717  12.035
37059W        W 5277  25.086  26.622   3.241
37060W        W 5278  40.580  26.386   2.790
37061W        W 5279  43.025  13.153   4.770
37062W        W 5280  30.939   7.739   1.814
37063W        W 5281  22.039  23.744   3.196
37064W        W 5282  22.700  11.295   4.243
37065W        W 5283  25.698   9.808  13.785
37066W        W 5284  34.925  26.092  13.372
37067W        W 5285   5.216  16.147   4.422
37068W        W 5286  34.657  12.641  14.950
37069W        W 5287  31.143  35.925   5.095
37070W        W 5288  41.141  23.626   1.172
37071W        W 5289  10.606  10.527   0.706
37072W        W 5290   2.764  25.511  11.185
37073W        W 5291  36.175  32.990   3.895
37074W        W 5292  25.117  44.175  12.258
37075W        W 5293  29.554  20.803  11.270
37076W        W 5294   6.816  39.762   5.573
37077W        W 5295  11.136  22.535   4.783
37078W        W 5296  42.115  30.882  14.854
37079W        W 5297   7.771  34.572   1.690
37080W        W 5298  28.412  38.526   3.298
37081W        W 5299  27.714   4.911  11.902
37082W        W 5300  10.330  19.525   2.287
37083W        W 5301  43.633   0.308   4.273
37084W        W 5302  15.317  25.065   4.528
37085W        W 5303  44.832  10.326   3.247
37086W        W 5304  20.142  14.830  10.156
37087W        W 5305  30.628  22.482   3.975
37088W        W 5306   5.765  18.827   4.271
37089W        W 5307  41.157  13.419  10.721
37090W        W 5308  13.763  10.842  11.526
37091W        W 5309   3.637  38.978   2.274
37092W        W 5310  42.723  16.791   0.633
37093W        W 5311  15.762  34.342   2.726
37094W        W 5312  28.691  19.070  10.493
37095W        W 5313  36.988  25.110   2.742
37096W        W 5314  15.226  38.316   1.515
37097W        W 5315  27.979  42.486  14.698
37098W        W 5316  32.848  28.137   2.391
37099W        W 5317  44.066  17.275   2.644
37100W        W 5318  28.644   6.229   3.083
37101W        W 5319  10.759   0.143   2.462
37102W        W 5320  15.676  22.980  12.652
37103W        W 5321  18.644  31.107  12.964
37104W        W 5322  35.541  17.599  14.547
37105W        W 5323  31.402  22.182  12.961
37106W        W 5324  24.039  25.099   1.819
37107W        W 5325  22.691  16.567  13.442
37108W        W 5326   9.218   7.278   9.875
37109W        W 5327   5.231   8.511  12.832
37110W        W 5328  30.211  31.427  11.034
37111W        W 5329   3.870  34.621   0.479
37112W        W 5330  13.062  16.786   0.036
37113W        W 5331  16.552  24.705  12.018
37114W        W 5332  42.088  44.785  14.415
37115W        W 5333  38.363  14.792  11.392
37116W        W 5334   7.331  22.264  11.442
37117W        W 5335  39.344  25.600  14.402
37118W        W 5336   4.132  21.002   1.395
37119W        W 5337  16.109  24.738  14.841
37120W        W 5338   9.372  16.181   4.051
37121W        W 5339  22.571  22.997   0.435
37122W        W 5340  36.025  27.970  13.679
37123W        W 5341  13.749  34.698   1.401
37124W        W 5342  44.967  17.849  12.104
37125W        W 5343  30.367  44.510  13.619
37126W        W 5344  28.282  31.821   1.328
37127W        W 5345  23.657  12.064  12.299
37128W        W 5346  29.986  10.396  10.530
37129W        W 5347  29.959  28.121  12.051
37130W        W 5348  40.938  22.524   0.951
37131W        W 5349  31.185  26.086  12.451
37132W        W 5350  36.358  12.187   0.022
37133W        W 5351   4.455  14.728  11.097
37134W        W 5352  36.128   2.367   1.672
37135W        W 5353   7.660  36.914   3.808
37136W        W 5354   3.829   2.025  12.762
37137W        W 5355  42.475  14.622   4.594
37138W        W 5356  27.215  38.363   4.191
37139W        W 5357  19.113   7.440  12.860
37140W        W 5358  35.613  21.284  12.526
37141W        W 5359  15.608  23.005  13.490
37142W        W 5360  34.842  11.345   3.198
37143W        W 5361   4.793  28.393   4.439
37144W        W 5362   9.818  13.381  10.823
37145W        W 5363  26.523  32.586   3.324
37146W        W 5364  14.238  34.102  13.391
37147W        W 5365  16.543   6.293   4.075
37148W        W 5366  17.222   4.820   9.976
37149W        W 5367  31.064  29.136  14.529
37150W        W 5368  33.581  33.557   0.713
37151W        W 5369  29.595  22.687   3.616
37152W        W 5370   2.351  44.973   2.116
37153W        W 5371  17.859  29.634  11.942
37154W        W 5372   2.060  12.678   1.807
37155W        W 5373   2.372  41.426  12.491
37156W        W 5374  26.582  18.114   2.187
37157W        W 5375  42.973  44.277   5.151
37158W        W 5376  12.470  13.588   3.072
37159W        W 5377  20.361   7.213   3.659
37160W        W 5378   1.925  43.544   2.806
37161W        W 5379  24.659  43.464  12.909
37162W        W 5380  15.107  39.414  11.908
37163W        W 5381  16.103  22.617   4.205
37164W        W 5382  42.012  34.097  12.875
37165W        W 5383  40.983   7.824   0.323
37166W        W 5384  19.159  29.524  13.568
37167W        W 5385  32.172  27.181   3.271
37168W        W 5386  20.700  24.671  12.319
37169W        W 5387   0.328  32.334   1.877
37170W        W 5388  29.136  26.899   3.323
37171W        W 5389   8.334   2.891  11.094
37172W        W 5390  12.047  43.039   0.793
37173W        W 5391  43.096   7.114   4.230
37174W        W 5392   8.985   4.603   1.906
37175W        W 5393  24.427  19.097   3.656
37176W        W 5394  17.861  14.073   0.777
37177W        W 5395   0.092  44.525  12.161
37178W        W 5396  22.189  10.368  13.361
37179W        W 5397  27.053  26.981  14.918
37180W        W 5398  12.217  16.594   2.638
37181W        W 5399   7.417  23.306  13.386
37182W        W 5400  13.682  25.470  13.365
37183W        W 5401  23.207   3.664   3.723
37184W        W 5402  10.058   5.907  11.975
37185W        W 5403  27.473   2.446   0.501
37186W        W 5404  11.061  43.954  10.715
37187W        W 5405  36.852  33.650  13.898
37188W        W 5406  10.127   5.851  14.814
37189W        W 5407  37.622  36.954  12.094
37190W        W 5408  25.697  14.075   2.194
37191W        W 5409  14.593  15.040   2.285
37192W        W 5410  19.005   0.906   0.200
37193W        W 5411  22.287   2.380  11.143
37194W        W 5412   4.815  10.142  14.118
37195W        W 5413   1.217  25.743   2.711
37196W        W 5414   6.905  17.420   0.021
37197W        W 5415  10.938  18.212  10.635
37198W        W 5416  14.153  41.969   3.274
37199W        W 5417  14.755  21.694   2.590
37200W        W 5418   9.561   0.423   1.700
37201W        W 5419   5.420  37.484  13.970
37202W        W 5420  22.180  38.892   4.343
37203W        W 5421  41.255   0.244  14.012
37204W        W 5422  41.205   5.256  12.655
37205W        W 5423  19.006   8.769  10.909
37206W        W 5424  11.646  19.074  13.094
37207W        W 5425   5.398  44.035   4.781
37208W        W 5426  30.206  16.459  14.928
37209W        W 5427  14.585  18.243  13.396
37210W        W 5428   4.672  40.941  10.488
37211W        W 5429   5.677  37.961  14.070
37212W        W 5430  35.483  30.597  14.908
37213W        W 5431  31.161  33.633  14.985
37214W        W 5432  41.382  14.053   2.406
37215W        W 5433   6.675   7.950  11.111
37216W        W 5434  27.144  39.895   3.609
37217W        W 5435  10.895  19.531   4.052
37218W        W 5436  33.946  28.963   1.981
37219W        W 5437   4.838  31.612  14.228
37220W        W 5438  17.325  17.752   0.761
37221W        W 5439  12.791  15.202  11.519
37222W        W 5440   4.182  32.818   0.342
37223W        W 5441  42.016  24.963   1.381
37224W        W 5442  20.152  32.675  13.757
37225W        W 5443  27.476  38.281   0.283
37226W        W 5444  17.256  43.277  11.530
37227W        W 5445  40.245  17.071   4.469
37228W        W 5446  37.328   2.889  11.963
37229W        W 5447  32.010   1.008  14.413
37230W        W 5448  37.903  22.086  10.691
37231W        W 5449  28.369  26.989  11.132
37232W        W 5450   4.833  41.529   1.771
37233W        W 5451  30.486  28.569   9.926
37234W        W 5452  27.969  18.507  14.311
37235W        W 5453  37.851  24.155  12.917
37236W        W 5454  29.623  40.927  10.831
37237W        W 5455  44.781   4.985   2.820
37238W        W 5456  27.786  13.204  10.020
37239W        W 5457  44.304  30.008   0.463
37240W        W 5458  29.159  24.022  14.630
37241W        W 5459   3.375  16.554  13.462
37242W        W 5460  29.073  16.801   2.731
37243W        W 5461  42.950  27.622   4.889
37244W        W 5462   7.889   0.445  14.919
37245W        W 5463  16.224  13.609  14.376
37246W        W 5464  21.108  20.238  10.643
37247W        W 5465  20.987   2.514  13.471
37248W        W 5466   8.266  17.246  14.074
37249W        W 5467  35.330   3.153  11.412
37250W        W 5468  19.639  26.719  12.966
37251W        W 5469  13.138   5.462  13.358
37252W        W 5470  18.383   6.669  12.096
37253W        W 5471  10.003  39.359  12.302
37254W        W 5472  17.639  12.796  11.205
37255W        W 5473  33.015   9.753  12.680
37256W        W 5474  31.840  18.126  13.602
37257W        W 5475  27.645  12.835  12.006
37258W        W 5476  13.274  14.275  12.051
37259W        W 5477   3.995   3.500   1.209
37260W        W 5478  25.218  18.768  11.492
37261W        W 5479   9.216  34.328   1.001
37262W        W 5480   6.983  19.149  11.021
37263W        W 5481   7.303  12.808  11.185
37264W        W 5482  11.393   6.684   2.678
37265W        W 5483  42.110  13.688  13.850
37266W        W 5484   2.372  21.120  10.774
37267W        W 5485  42.749  22.272  12.594
37268W        W 5486   7.271  26.676  10.987
37269W        W 5487  24.113  18.080   1.447
37270W        W 5488  35.463  26.000  13.338
37271W        W 5489  24.460   1.344   4.487
37272W        W 5490   4.458   2.876  11.390
37273W        W 5491  23.545  16.281   3.770
37274W        W 5492  18.798   5.378   5.012
37275W        W 5493  35.348  32.025  13.212
37276W        W 5494  31.666  18.533   3.727
37277W        W 5495  43.761   1.770   3.382
37278W        W 5496  23.584   2.361  10.787
37279W        W 5497  26.189  31.960   1.700
37280W        W 5498  26.462   8.280  14.865
37281W        W 5499   1.660  18.669   4.360
37282W        W 5500  25.838  16.877   4.586
37283W        W 5501   5.244   8.391  10.369
37284W        W 5502  31.975  28.104  12.048
37285W        W 5503  39.569  31.943  10.750
37286W        W 5504  32.623   7.361   3.173
37287W        W 5505  35.520  38.063  12.516
37288W        W 5506  29.971  21.578  14.186
37289W        W 5507  38.268   0.285   5.046
37290W        W 5508  24.770  26.922   2.926
37291W        W 5509  36.140  20.543   0.486
37292W        W 5510  44.030  23.569  10.410
37293W        W 5511  39.879   0.468   0.882
37294W        W 5512  17.821  43.085  14.398
37295W        W 5513   2.469  10.364   3.318
37296W        W 5514  38.361  17.263   1.202
37297W        W 5515  31.436  21.614   4.339
37298W        W 5516  12.363  40.641  11.407
37299W        W 5517   6.419  10.877  13.736
37300W        W 5518  38.863  38.390  10.973
37301W        W 5519  13.187  22.170  14.504
37302W        W 5520   6.919  39.536   0.892
37303W        W 5521  27.676  18.136   4.216
37304W        W 5522  17.679   0.753  14.692
37305W        W 5523   0.693  30.565   0.857
37306W        W 5524  14.227   1.305   4.739
37307W        W 5525  42.103  30.456   0.480
37308W        W 5526  31.635  21.768  12.728
37309W        W 5527  18.207  14.758   4.697
37310W        W 5528  24.021   0.769   0.806
37311W        W 5529  35.409  31.910  14.307
37312W        W 5530  11.778  30.489  10.688
37313W        W 5531   5.479  29.204   2.426
37314W        W 5532   8.314  44.120  10.057
37315W        W 5533  24.223  29.124  13.610
37316W        W 5534  37.494  43.303  13.288
37317W        W 5535  29.478   0.339  14.768
37318W        W 5536  39.787  35.533  11.926
37319W        W 5537   6.121  26.930  12.015
37320W        W 5538  43.892   9.750   4.109
37321W        W 5539  11.785  21.955   2.763
37322W        W 5540  15.099  40.535  11.697
37323W        W 5541  27.530  38.580  13.149
37324W        W 5542   9.151   4.755   4.819
37325W        W 5543  13.469   8.784  14.168
37326W        W 5544   4.101  30.002  13.308
37327W        W 5545  18.347  16.762   3.311
37328W        W 5546   5.488  39.557  11.927
37329W        W 5547  35.156  44.337  12.404
37330W        W 5548  33.566  35.130  11.053
37331W        W 5549  11.708  35.274  14.340
37332W        W 5550  20.205  39.383   3.206
37333W        W 5551  11.882  17.009   2.327
37334W        W 5552  27.518   3.030   4.720
37335W        W 5553   2.206  25.370   4.611
37336W        W 5554  25.534   0.871   4.402
37337W        W 5555  42.405  15.073   0.464
37338W        W 5556  43.519  16.637   2.624
37339W        W 5557  17.637  41.887  14.455
37340W        W 5558  23.920  37.913   3.846
37341W        W 5559  26.079  36.590  14.890
37342W        W 5560  35.905  18.446   3.639
37343W        W 5561  16.757   7.821   3.856
37344W        W 5562  22.337  25.102   4.148
37345W        W 5563  24.225  19.213  13.915
37346W        W 5564  19.554  22.239   3.294
37347W        W 5565  31.474   9.704  13.509
37348W        W 5566  44.244   6.817   3.756
37349W        W 5567   0.227  44.278   2.604
37350W        W 5568  19.187   1.030   2.725
37351W        W 5569   6.043  38.741  11.856
37352W        W 5570  42.405  41.290   3.777
37353W        W 5571  18.368   7.297   0.832
37354W        W 5572  26.617  24.944   2.604
37355W        W 5573  42.853   3.437   3.828
37356W        W 5574  34.111  30.839   2.742
37357W        W 5575   7.506   4.228  13.846
37358W        W 5576  16.327   9.889   3.392
37359W        W 5577  24.523  21.361  13.481
37360W        W 5578  20.857  36.932   1.852
37361W        W 5579  39.454  29.387   1.802
37362W        W 5580  32.448  19.345  14.949
37363W        W 5581  14.721  31.978   4.298
37364W        W 5582  20.739  13.574   0.900
37365W        W 5583   9.743   1.859   0.802
37366W        W 5584  44.891  27.194  14.759
37367W        W 5585  19.206  17.086   3.592
37368W        W 5586  25.196  35.345  13.759
37369W        W 5587  28.543  22.207  10.539
37370W        W 5588  36.942   7.154  14.029
37371W        W 5589  20.481   8.388   3.321
37372W        W 5590  19.749  28.218  13.464
37373W        W 5591  23.120  33.688  14.710
37374W        W 5592  21.282  31.595   4.615
37375W        W 5593   0.890  28.691  12.040
37376W        W 5594   4.672  18.331  13.486
37377W        W 5595  10.551  12.570  13.154
37378W        W 5596   8.482   6.425   0.058
37379W        W 5597  13.611  18.145   3.699
37380W        W 5598  24.388  31.732   4.541
37381W        W 5599  36.934  12.331   0.763
37382W        W 5600  44.033   2.210   3.303
37383W        W 5601  28.890  25.547   1.412
37384W        W 5602  27.213  38.283  13.439
37385W        W 5603   1.979  30.271  11.589
37386W        W 5604  23.189  35.673  11.509
37387W        W 5605  41.501  23.353   0.902
37388W        W 5606  44.917  41.295  10.517
37389W        W 5607  38.392  18.778   0.263
37390W        W 5608  21.554   0.985   4.163
37391W        W 5609  25.196  39.045  13.594
37392W        W 5610  24.409   1.179   1.776
37393W        W 5611  30.893  38.083   3.823
37394W        W 5612   7.203  28.567   3.116
37395W        W 5613  33.852   9.860   1.351
37396W        W 5614  18.040  25.673   3.362
37397W        W 5615   3.292  27.422   0.247
37398W        W 5616   3.061  32.860  11.151
37399W        W 5617   3.417  39.798  12.521
37400W        W 5618  21.496  23.788   3.714
37401W        W 5619  16.463  35.035  11.855
37402W        W 5620  15.160  36.002   1.733
37403W        W 5621  33.103  16.718  13.057
37404W        W 5622  20.246  13.787   4.284
37405W        W 5623  33.492  21.234   2.310
37406W        W 5624  38.599   9.301  12.128
37407W        W 5625   8.882   7.415  11.160
37408W        W 5626  29.661   6.391  11.134
37409W        W 5627  13.623  12.614   2.949
37410W        W 5628  10.770  29.436   1.959
37411W        W 5629  26.954   0.035   3.352
37412W        W 5630  23.058  29.178  14.792
37413W        W 5631   9.117  24.949   3.221
37414W        W 5632  34.648  18.282   2.889
37415W        W 5633   2.279   0.340   4.367
37416W        W 5634  25.551   9.297  12.961
37417W        W 5635  42.043  14.581   1.738
37418W        W 5636  43.577  17.301   1.810
37419W        W 5637  30.993  33.069  10.684
37420W        W 5638  20.615  38.918   1.502
37421W        W 5639  16.874   2.368   9.825
37422W        W 5640  12.812   2.476  11.412
37423W        W 5641  24.137  41.554   3.886
37424W        W 5642  43.881   2.871   2.008
37425W        W 5643  31.420  20.199   3.387
37426W        W 5644  11.416  21.030   0.788
37427W        W 5645  40.044  18.750   4.194
37428W        W 5646  10.284  19.213  13.413
37429W        W 5647  41.205  33.771   2.771
37430W        W 5648  37.233   3.982  13.176
37431W        W 5649  31.046  12.153  10.749
37432W        W 5650  33.127  35.989   3.625
37433W        W 5651  44.117  29.044  14.269
37434W        W 5652   0.710  28.621   0.341
37435W        W 5653   1.481  13.746  11.864
37436W        W 5654   4.855  16.039  12.513
37437W        W 5655  23.419  18.337  14.873
37438W        W 5656  24.434  14.662  10.402
37439W        W 5657  25.677  25.572   0.270
37440W        W 5658   9.366  22.841   1.115
37441W        W 5659  10.676  31.509  13.572
37442W        W 5660  20.641  23.542  12.660
37443W        W 5661  24.936  43.899   0.416
37444W        W 5662  26.925  31.596   1.490
37445W        W 5663  12.344  39.034  12.937
37446W        W 5664  32.510  31.536  12.836
37447W        W 5665  42.872  28.357  12.428
37448W        W 5666  27.688  10.250  14.752
37449W        W 5667  26.578  44.380   2.226
37450W        W 5668  37.472   4.257  10.739
37451W        W 5669  39.426  26.163   2.254
37452W        W 5670  29.320  35.999  11.728
37453W        W 5671  35.100  41.878   0.464
37454W        W 5672  14.180   1.963  11.035
37455W        W 5673  19.055   6.799   1.681
37456W        W 5674  17.848  29.998  13.376
37457W        W 5675  31.423   9.321   3.620
37458W        W 5676  24.395   5.848   0.837
37459W        W 5677  13.884  27.588  13.882
37460W        W 5678  18.502  43.060   2.188
37461W        W 5679  11.773  10.857  12.058
37462W        W 5680  32.922  26.220   4.750
37463W        W 5681  16.539  30.581  14.290
37464W        W 5682  38.407  23.176  14.385
37465W        W 5683  12.233  30.261  13.303
37466W        W 5684  26.611   0.339   0.725
37467W        W 5685  44.778  35.293  12.548
37468W        W 5686  29.913   6.097   1.376
37469W        W 5687   8.506  20.160   2.092
37470W        W 5688  12.753  12.728  12.528
37471W        W 5689  35.436  42.901   1.726
37472W        W 5690  39.854   0.320  10.306
37473W        W 5691  34.340  18.033  14.049
37474W        W 5692  41.803  34.445   3.678
37475W        W 5693   5.381  36.609  13.046
37476W        W 5694  22.040  16.055   2.779
37477W        W 5695  43.573  21.270  14.994
37478W        W 5696  21.953  11.147  12.974
37479W        W 5697  44.445  10.921  14.389
37480W        W 5698   9.509  15.764   0.588
37481W        W 5699  44.751  41.676   3.219
37482W        W 5700   6.687  40.874  11.887
37483W        W 5701   8.473  15.625  13.497
37484W        W 5702  14.305  16.184   4.333
37485W        W 5703  29.944  42.346   3.608
37486W        W 5704  33.935  19.015  11.669
37487W        W 5705   9.376  12.159   0.407
37488W        W 5706  38.030   4.398  11.209
37489W        W 5707   6.168   7.856  10.718
37490W        W 5708  24.593  33.070  13.383
37491W        W 5709  43.851  31.460  10.607
37492W        W 5710  21.200   7.278  11.047
37493W        W 5711  29.376   8.380  11.184
37494W        W 5712  30.127  32.269  12.522
37495W        W 5713  41.977  37.343  13.461
37496W        W 5714  36.399  13.849  12.496
37497W        W 5715  28.095  35.902   3.812
37498W        W 5716  18.295  35.201  14.332
37499W        W 5717  11.359  11.182   0.438
37500W        W 5718  10.399  38.894   1.755
37501W        W 5719  39.133  44.035  11.027
37502W        W 5720   1.405   5.836  13.515
37503W        W 5721  30.546  20.749   4.960
37504W        W 5722   7.617  43.789   2.582
37505W        W 5723  27.202  27.094   3.643
37506W        W 5724  23.161   5.360   2.098
37507W        W 5725  39.382  23.767   2.662
37508W        W 5726  41.560   2.225   2.792
37509W        W 5727  44.210  41.886   2.005
37510W        W 5728  27.156   0.260   1.924
37511W        W 5729  36.846  36.986  14.943
37512W        W 5730   6.568  36.072  14.206
37513W        W 5731   1.927  40.016  14.511
37514W        W 5732   2.540   8.670  13.046
37515W        W 5733  26.904  20.226   4.737
37516W        W 5734   8.222  30.183   1.436
37517W        W 5735  17.303  28.079  13.753
37518W        W 5736  12.760  17.080  12.083
37519W        W 5737   3.499  40.399   2.226
37520W        W 5738   0.204  23.434   3.013
37521W        W 5739  27.250  27.485  14.929
37522W        W 5740   4.759  34.514  11.089
37523W        W 5741  28.509   0.110  14.756
37524W        W 5742  33.004  16.840  13.883
37525W        W 5743  14.078   6.341   1.916
37526W        W 5744  24.157  37.989   3.368
37527W        W 5745  21.098  18.979  11.881
37528W        W 5746  30.164  14.733  14.428
37529W        W 5747  26.959  13.557  10.611
37530W        W 5748  40.930   1.751   3.064
37531W        W 5749  21.510  23.732  12.079
37532W        W 5750  29.435   0.257   3.251
37533W        W 5751  11.146  22.000  11.071
37534W        W 5752  15.734  33.855   5.189
37535W        W 5753  21.972  28.093   4.194
37536W        W 5754  30.712   9.737   2.311
37537W        W 5755  18.135  10.007  14.971
37538W        W 5756  25.210  36.331   3.317
37539W        W 5757   2.111   7.085   5.192
37540W        W 5758  34.058  39.760   1.878
37541W        W 5759  30.086   9.792  14.672
37542W        W 5760   8.262  43.544  14.936
37543W        W 5761  20.400  40.419  11.426
37544W        W 5762  44.848  36.873   0.675
37545W        W 5763  36.128  34.694   4.077
37546W        W 5764   7.939   3.670   4.620
37547W        W 5765  35.871   0.291   3.102
37548W        W 5766  33.092  10.819  14.545
37549W        W 5767  14.237  42.785  12.012
37550W        W 5768  15.538  40.894  13.941
37551W        W 5769  22.780  37.323   1.898
37552W        W 5770  20.747   7.182   1.960
37553W        W 5771  12.862  10.128   1.245
37554W        W 5772   0.011  40.027   0.775
37555W        W 5773  12.524  17.820   0.989
37556W        W 5774   7.597   5.739   4.179
37557W        W 5775  18.747  22.227  12.370
37558W        W 5776  23.512  18.215   0.848
37559W        W 5777   0.177   1.326   1.235
37560W        W 5778   0.490  36.588  13.128
37561W        W 5779  39.931  15.007   2.887
37562W        W 5780  26.820  25.120   3.540
37563W        W 5781  44.402  44.053  14.484
37564W        W 5782  29.244   2.462  11.497
37565W        W 5783  36.041  43.744  11.965
37566W        W 5784  36.443  34.614   3.126
37567W        W 5785  42.331  18.601  10.689
37568W        W 5786  32.749  26.530  13.057
37569W        W 5787   1.016  30.572  13.103
37570W        W 5788   3.216  10.935  12.511
37571W        W 5789  42.571  43.282   0.053
37572W        W 5790  41.289   4.200  12.584
37573W        W 5791  15.806  25.279   1.020
37574W        W 5792  22.125  38.869   4.941
37575W        W 5793  15.735  16.361   4.142
37576W        W 5794   7.994  23.969  14.341
37577W        W 5795  22.572  25.157   2.798
37578W        W 5796   7.690  29.873   0.480
37579W        W 5797  14.889   1.381   9.792
37580W        W 5798  17.133  16.498  11.536
37581W        W 5799  17.580   0.491  11.166
37582W        W 5800  31.521   7.760   4.322
37583W        W 5801  20.459   3.815  14.557
37584W        W 5802  34.181   8.829   4.824
37585W        W 5803   8.763  24.016   4.660
37586W        W 5804  43.616  16.287   3.375
37587W        W 5805  43.019   6.616   0.315
37588W        W 5806  13.102  14.857   3.259
37589W        W 5807  12.326  36.532   4.427
37590W        W 5808  12.145  43.702   3.307
37591W        W 5809   8.841  39.575   9.740
37592W        W 5810  25.612  17.834  13.509
37593W        W 5811  24.131  36.457  11.399
37594W        W 5812  32.010  29.136  10.200
37595W        W 5813  37.570  34.799  13.934
37596W        W 5814  26.603   5.476  11.075
37597W        W 5815  13.939  29.172   0.729
37598W        W 5816   6.535  37.839  14.393
37599W        W 5817   4.248  33.027  11.583
37600W        W 5818  16.347  39.271   2.717
37601W        W 5819  39.650  37.005  14.261
37602W        W 5820  16.735  40.629  12.676
37603W        W 5821  16.851  10.238   0.558
37604W        W 5822  22.250   5.630  14.826
37605W        W 5823  40.594  26.049  13.309
37606W        W 5824  13.138  27.994   4.648
37607W        W 5825  18.499  37.995  13.877
37608W        W 5826   1.645   3.992  12.973
37609W        W 5827  41.946  32.040  14.028
37610W        W 5828  29.388  39.921   1.008
37611W        W 5829  32.937   0.309  10.987
37612W        W 5830  12.266  22.595   1.042
37613W        W 5831  34.115  30.527  10.538
37614W        W 5832   7.022  29.472   4.922
37615W        W 5833  39.829   1.815  11.604
37616W        W 5834  44.884  18.072   1.353
37617W        W 5835  15.957   4.219   1.443
37618W        W 5836   6.812  33.861   2.755
37619W        W 5837   5.527  20.754   1.291
37620W        W 5838  31.537  24.449   0.852
37621W        W 5839  11.223  32.463   2.420
37622W        W 5840  31.417  12.291  13.862
37623W        W 5841  25.525  42.815   0.569
37624W        W 5842  33.996  31.419   5.034
37625W        W 5843  30.505   8.156  14.345
37626W        W 5844  15.218   2.696  14.884
37627W        W 5845   6.404  16.126  14.877
37628W        W 5846  30.231  12.740  14.796
37629W        W 5847  41.167  25.263  10.950
37630W        W 5848   1.510  39.797   2.798
37631W        W 5849  42.922  26.242  11.962
37632W        W 5850  36.340   0.841   2.851
37633W        W 5851  12.238  16.855   1.389
37634W        W 5852  32.372  16.095  13.949
37635W        W 5853  42.269  14.646   4.126
37636W        W 5854  32.645  24.023   0.359
37637W        W 5855   1.615   3.434   4.172
37638W        W 5856  17.768   0.726  11.598
37639W        W 5857  16.736  31.974   1.862
37640W        W 5858  36.562  10.925   0.771
37641W        W 5859  43.480   8.278  12.291
37642W        W 5860  23.103  18.573   4.263
37643W        W 5861  20.756  39.803   0.907
37644W        W 5862  22.234   7.088   1.886
37645W        W 5863   2.252   6.895   1.861
37646W        W 5864  13.449  12.728  11.358
37647W        W 5865   2.620  34.623  13.598
37648W        W 5866  11.237  22.845   3.654
37649W        W 5867  35.048   7.311   9.878
37650W        W 5868  12.123  42.816   4.342
37651W        W 5869   8.737  44.781  11.384
37652W        W 5870   6.200   8.206  14.833
37653W        W 5871   3.278  30.977   1.585
37654W        W 5872  40.460  31.347  11.097
37655W        W 5873  17.578   5.286  11.088
37656W        W 5874  14.122  41.522   1.312
37657W        W 5875  42.744  13.538  14.918
37658W        W 5876  40.251  12.087   3.774
37659W        W 5877  31.067  22.788   0.732
37660W        W 5878  15.934   9.700  11.568
37661W        W 5879  39.039   0.936  10.468
37662W        W 5880  36.669  41.940  13.912
37663W        W 5881  11.202  10.563   4.184
37664W        W 5882  27.584  18.795   4.534
37665W        W 5883  19.925  17.765   2.760
37666W        W 5884  18.096   9.632   0.931
37667W        W 5885  31.384  11.402  11.022
37668W        W 5886   7.959  32.433  11.628
37669W        W 5887  27.160  12.902  12.848
37670W        W 5888   2.367  27.754  10.066
37671W        W 5889  20.528  41.820  13.671
37672W        W 5890  18.797  44.894  14.531
37673W        W 5891   0.201   9.865  11.884
37674W        W 5892   7.409  10.886  11.566
37675W        W 5893  18.400  23.548   0.324
37676W        W 5894  24.903  10.677   2.789
37677W        W 5895  42.487  11.798  13.276
37678W        W 5896  13.398  31.425   0.490
37679W        W 5897  33.054  16.646  10.645
37680W        W 5898  37.063  14.362   4.093
37681W        W 5899  38.300  42.276  10.935
37682W        W 5900  33.966  38.778   1.093
37683W        W 5901  44.431   8.620  14.351
37684W        W 5902   4.281  23.482  13.454
37685W        W 5903  21.072  37.751  12.606
37686W        W 5904   4.343  36.465   0.469
37687W        W 5905   6.407   2.934  11.083
37688W        W 5906  17.670  10.095  10.778
37689W        W 5907  36.179  12.335   4.166
37690W        W 5908   1.436  38.048  14.069
37691W        W 5909   8.939  18.153  11.135
37692W        W 5910  24.966  17.254  11.589
37693W        W 5911  15.787  15.748  10.096
37694W        W 5912  38.551  17.745   1.068
37695W        W 5913  17.688  23.531  11.189
37696W        W 5914  16.750   5.610  13.084
37697W        W 5915  28.025  38.876   4.194
37698W        W 5916   2.416  34.785  10.954
37699W        W 5917  30.428  44.902   4.231
37700W        W 5918  39.412  37.885  10.470
37701W        W 5919  27.146   8.676  13.153
37702W        W 5920  37.811  13.893  13.022
37703W        W 5921  25.237   9.276   4.275
37704W        W 5922  42.933  18.234   2.720
37705W        W 5923  16.568  44.792   3.856
37706W        W 5924  25.905  43.863   0.039
37707W        W 5925  13.184   6.760   4.510
37708W        W 5926  29.091  21.670   4.362
37709W        W 5927  26.200  34.449   2.276
37710W        W 5928  34.021  23.958  13.654
37711W        W 5929  44.861  12.120  12.586
37712W        W 5930   1.827  11.166   0.302
37713W        W 5931  33.673  37.437   0.095
37714W        W 5932  40.340  28.987  10.684
37715W        W 5933   1.590  17.233   0.030
37716W        W 5934  20.380   5.720  10.784
37717W        W 5935  33.506  10.616  10.897
37718W        W 5936  32.449   5.781   0.816
37719W        W 5937  37.803  29.602  14.348
37720W        W 5938   8.162  10.097  11.119
37721W        W 5939   6.693  11.759   4.314
37722W        W 5940  28.472  12.033   2.284
37723W        W 5941  14.344   5.252  14.550
37724W        W 5942   1.695   9.953  13.974
37725W        W 5943  29.332   2.412   2.844
37726W        W 5944   1.454  22.075   1.862
37727W        W 5945  39.833  16.190   3.495
37728W        W 5946  33.510  20.965  14.784
37729W        W 5947  20.534  10.169  12.502
37730W        W 5948  13.266  41.324   2.615
37731W        W 5949   8.426  30.971  12.533
37732W        W 5950  41.919  32.153   5.126
37733W        W 5951  42.236  34.970   1.231
37734W        W 5952  40.099  44.690   1.815
37735W        W 5953  33.810  37.609  11.021
37736W        W 5954  40.082  28.631  13.887
37737W        W 5955   9.905  17.246  11.684
37738W        W 5956  41.024  14.217  13.338
37739W        W 5957  34.397  41.982   3.608
37740W        W 5958  19.600  41.997  11.600
37741W        W 5959   5.179  34.619  13.342
37742W        W 5960  30.113   8.091  12.884
37743W        W 5961  38.875  11.177   4.566
37744W        W 5962  36.842  29.155   0.275
37745W        W 5963  34.945  18.191   3.712
37746W        W 5964  12.842   3.752  12.404
37747W        W 5965   3.627  26.222  13.474
37748W        W 5966  16.694  24.977  12.422
37749W        W 5967  30.651  12.833   2.864
37750W        W 5968   4.237  15.766  14.306
37751W        W 5969  43.608   8.796   3.647
37752W        W 5970   5.767  40.065  14.926
37753W        W 5971  42.902  12.900   0.478
37754W        W 5972  14.263   9.789   4.027
37755W        W 5973   4.144  43.733  11.287
37756W        W 5974  35.577  10.254  13.083
37757W        W 5975   5.717   4.376  13.055
37758W        W 5976  37.482  41.527   3.244
37759W        W 5977   7.667  23.613   1.390
37760W        W 5978   8.265   7.428  14.425
37761W        W 5979   0.992  35.306   0.527
37762W        W 5980  37.594  19.593  13.656
37763W        W 5981  12.409  20.550   2.329
37764W        W 5982  31.659  44.321   3.681
37765W        W 5983  32.128  10.826  12.037
37766W        W 5984   0.466  35.469  14.090
37767W        W 5985  25.676  14.113  10.302
37768W        W 5986  12.815  41.427   2.345
37769W        W 5987  21.408  43.645  14.813
37770W        W 5988  22.883  10.305   2.397
37771W        W 5989  35.557   4.470   3.267
37772W        W 5990  14.355   7.404  13.862
37773W        W 5991  11.893  33.246  10.980
37774W        W 5992  15.471  36.609   3.189
37775W        W 5993   5.175  11.718   1.484
37776W        W 5994  26.405  19.404   4.096
37777W        W 5995  37.533  23.012  14.733
37778W        W 5996  13.781  24.553   1.208
37779W        W 5997   4.450  39.598   4.528
37780W        W 5998   9.604   1.183   4.100
37781W        W 5999  34.417   0.861   1.271
37782W        W 6000  18.030  17.662  14.775
37783W        W 6001   4.132   0.313   0.372
37784W        W 6002  26.441  29.980  13.065
37785W        W 6003   5.752   2.750   2.322
37786W        W 6004  35.584  42.676  14.037
37787W        W 6005  28.871   7.995   2.865
37788W        W 6006  28.983   8.422   3.970
37789W        W 6007   4.298  21.705  13.880
37790W        W 6008  37.507   9.410  13.268
37791W        W 6009  11.736  18.771   3.209
37792W        W 6010   1.247  22.032   3.859
37793W        W 6011  27.688  36.829   0.431
37794W        W 6012   9.270   7.911  13.003
37795W        W 6013  10.252  14.480  12.097
37796W        W 6014   0.548  28.302   2.376
37797W        W 6015  41.967   8.615  13.891
37798W        W 6016  27.966  40.310   1.847
37799W        W 6017  27.266  13.147   3.112
37800W        W 6018  21.146  25.070  13.823
37801W        W 6019   0.370  18.725   1.692
37802W        W 6020  22.565  32.672   0.486
37803W        W 6021  24.052  10.875   0.911
37804W        W 6022  22.671  26.864   3.802
37805W        W 6023  33.116  39.580  13.510
37806W        W 6024  37.758  13.916  11.525
37807W        W 6025  38.976  24.147   1.997
37808W        W 6026   7.729  31.101  12.139
37809W        W 6027  17.286  41.327  12.241
37810W        W 6028   1.030  44.350   4.270
37811W        W 6029  10.399  43.944   2.889
37812W        W 6030  26.654  18.214  10.834
37813W        W 6031  42.484  11.941  10.683
37814W        W 6032  25.757   9.241   4.268
37815W        W 6033  38.297  23.728   1.682
37816W        W 6034  11.696  26.144  13.955
37817W        W 6035  10.406  11.613   4.788
37818W        W 6036   8.385  26.265  13.958
37819W        W 6037   6.350  25.256  11.181
37820W        W 6038  11.148   2.958   3.701
37821W        W 6039   2.068  38.074   4.639
37822W        W 6040  30.578  16.229  10.371
37823W        W 6041  33.639  35.560  10.028
37824W        W 6042  16.862  13.117  13.436
37825W        W 6043  11.710  35.540   2.720
37826W        W 6044  42.404  39.910   1.046
37827W        W 6045  37.108  10.155   1.373
37828W        W 6046  32.568  35.373  13.391
37829W        W 6047  40.611  30.976  14.854
37830W        W 6048   5.893  31.397  13.361
37831W        W 6049  32.357  21.581   1.194
37832W        W 6050   4.777  11.896  13.032
37833W        W 6051  32.941  12.295  11.524
37834W        W 6052  35.629   0.763  14.934
37835W        W 6053  29.571   8.444   1.810
37836W        W 6054  36.003  26.784   4.717
37837W        W 6055  12.702   1.171  10.276
37838W        W 6056   6.320  43.772   0.907
37839W        W 6057  29.978  39.842  14.006
37840W        W 6058  21.597   0.849  13.061
37841W        W 6059  10.276  22.550  14.603
37842W        W 6060  36.126  22.510  11.031
37843W        W 6061  15.200  18.968  12.052
37844W        W 6062  14.129  24.478  12.045
37845W        W 6063  14.436   7.410  11.196
37846W        W 6064  40.019   4.367  14.212
37847W        W 6065  25.253  41.011   3.252
37848W        W 6066   5.824  20.688   3.303
37849W        W 6067  17.578  34.810  11.219
37850W        W 6068  21.028  29.462  13.891
37851W        W 6069  18.107  35.481   4.518
37852W        W 6070   5.050  41.199  12.880
37853W        W 6071  25.561  29.489   1.346
37854W        W 6072   0.931  25.051   5.129
37855W        W 6073  24.217  28.171   3.609
37856W        W 6074   0.995  28.417   1.252
37857W        W 6075  21.809  32.742  10.542
37858W        W 6076  36.402  25.581  11.042
37859W        W 6077  40.095  42.841   1.351
37860W        W 6078  23.986  33.098   2.352
37861W        W 6079  30.501  18.413   4.821
37862W        W 6080  32.148  20.671   1.521
37863W        W 6081  18.571  19.360   3.235
37864W        W 6082  21.887  11.759   4.133
37865W        W 6083  15.673  12.244   3.869
37866W        W 6084  38.059  13.839  14.017
37867W        W 6085   8.785  13.594  14.436
37868W        W 6086  44.353  13.077  12.995
37869W        W 6087  27.995  18.668  12.132
37870W        W 6088  12.863  41.592   3.387
37871W        W 6089  24.482  27.747   1.631
37872W        W 6090  31.650  14.379   2.207
37873W        W 6091  29.166  27.398  13.317
37874W        W 6092  10.613  31.937   0.932
37875W        W 6093  28.808  29.613   1.828
37876W        W 6094  44.467  40.525   0.447
37877W        W 6095  15.075  23.302  14.026
37878W        W 6096   1.017  23.901  12.516
37879W        W 6097  10.437  29.141  13.492
37880W        W 6098  26.947  23.130  14.886
37881W        W 6099  33.520   3.775   3.788
37882W        W 6100  37.931  44.295   2.213
37883W        W 6101   5.055  37.938  12.066
37884W        W 6102   9.288   4.997   3.409
37885W        W 6103  17.572  44.613  12.840
37886W        W 6104  28.438  44.332   3.567
37887W        W 6105  44.838  34.402  13.928
37888W        W 6106  28.360  38.507   2.348
37889W        W 6107  36.552  34.572   2.642
37890W        W 6108  29.752  14.981  12.688
37891W        W 6109  12.307  17.735  13.280
37892W        W 6110   3.565  25.963  11.148
37893W        W 6111  36.449  30.972  12.464
37894W        W 6112  27.446  33.541   4.489
37895W        W 6113  13.713   9.433   2.529
37896W        W 6114  44.774  13.924   2.860
37897W        W 6115  43.382  38.865  11.544
37898W        W 6116  40.364  21.185  12.034
37899W        W 6117  14.088   9.266   4.318
37900W        W 6118  32.077   6.416   9.928
37901W        W 6119  19.951   0.065  13.773
37902W        W 6120   4.258  34.331   3.416
37903W        W 6121   9.821  18.100  14.104
37904W        W 6122  17.010  17.703  12.843
37905W        W 6123  42.467  27.149   1.228
37906W        W 6124  24.126  21.253   4.177
37907W        W 6125  30.112   9.627   1.394
37908W        W 6126  35.941  24.659   2.276
37909W        W 6127   0.796  21.123   4.908
37910W        W 6128  39.533  23.417  13.772
37911W        W 6129  28.053  27.947  11.878
37912W        W 6130  10.966  32.875   4.051
37913W        W 6131  23.748   4.248   0.283
37914W        W 6132  10.770  21.240  13.887
37915W        W 6133  15.313   1.275  12.927
37916W        W 6134  19.028  14.841  11.633
37917W        W 6135  12.088  12.532  11.785
37918W        W 6136  26.282  38.269   4.180
37919W        W 6137  11.767  44.323   0.185
37920W        W 6138  35.547  19.229   5.041
37921W        W 6139   5.944  29.010   3.364
37922W        W 6140   2.760   5.222   1.702
37923W        W 6141  40.412  37.995  10.813
37924W        W 6142   4.808  18.100  12.581
37925W        W 6143  28.148  20.259   1.311
37926W        W 6144  43.942  25.697   2.622
37927W        W 6145  44.570  43.850  11.953
37928W        W 6146   6.938   9.719  13.839
37929W        W 6147  11.638  43.177  10.197
37930W        W 6148  14.409  23.138   2.238
37931W        W 6149   3.719  26.652  13.782
37932W        W 6150  31.548  43.935   1.709
37933W        W 6151  28.311  25.837   3.754
37934W        W 6152   5.532  37.928  14.580
37935W        W 6153  18.962  15.463  13.354
37936W        W 6154  10.120   8.016   2.789
37937W        W 6155  25.393  31.035  13.620
37938W        W 6156   4.572   0.995   2.145
37939W        W 6157   8.424  26.965   1.303
37940W        W 6158  23.686  28.643   3.346
37941W        W 6159   5.998  20.055   1.734
37942W        W 6160   6.879   5.033  13.566
37943W        W 6161  24.975  26.627   0.639
37944W        W 6162  36.232   4.858   0.295
37945W        W 6163  22.738  22.518   2.468
37946W        W 6164  23.021  34.352   3.730
37947W        W 6165  28.214   5.275   0.536
37948W        W 6166  12.235  42.802  14.124
37949W        W 6167  21.602  10.934   1.926
37950W        W 6168  27.947  41.575  11.567
37951W        W 6169  19.571  18.352   4.052
37952W        W 6170  20.616  38.065  12.574
37953W        W 6171  27.218   8.417   2.245
37954W        W 6172  18.482  20.356   0.511
37955W        W 6173  19.718  33.952  14.339
37956W        W 6174   7.108  20.083   0.132
37957W        W 6175   8.735  39.926   3.269
37958W        W 6176  15.802   1.727  11.195
37959W        W 6177  31.945  43.327  11.217
37960W        W 6178  22.664  39.176   0.052
37961W        W 6179  44.294  23.321  12.136
37962W        W 6180  34.620  16.114   4.184
37963W        W 6181  22.423  21.094   0.260
37964W        W 6182  44.532   2.404   1.988
37965W        W 6183  28.375  19.663  11.523
37966W        W 6184  28.503  21.399  10.186
37967W        W 6185  34.863  13.677  11.541
37968W        W 6186   3.958  32.662  12.955
37969W        W 6187  37.036  10.725  13.410
37970W        W 6188  33.020  27.631   3.782
37971W        W 6189  42.832   4.229   3.772
37972W        W 6190  34.166  26.531  14.364
37973W        W 6191  26.695  18.614  12.474
37974W        W 6192   9.746   6.991  10.304
37975W        W 6193  19.528  28.405   1.837
37976W        W 6194  32.074  36.027  14.388
37977W        W 6195  21.634   7.462   0.221
37978W        W 6196  14.276  13.539  11.942
37979W        W 6197  18.617  35.049   3.725
37980W        W 6198  19.949  14.151  10.682
37981W        W 6199  16.092  30.127   1.989
37982W        W 6200  22.131   1.709  12.415
37983W        W 6201  30.133  43.922  12.509
37984W        W 6202  37.315  32.852   4.764
37985W        W 6203  37.894   4.339   1.117
37986W        W 6204  25.377  38.649  11.494
37987W        W 6205  27.615  42.609  12.917
37988W        W 6206   2.618  23.557  13.575
37989W        W 6207  19.556  23.012   3.823
37990W        W 6208  20.529  22.667   2.905
37991W        W 6209  18.542  18.695  12.258
37992W        W 6210  36.638  23.007   3.959
37993W        W 6211  12.652  14.337  13.819
37994W        W 6212  27.945  24.090   0.736
37995W        W 6213  44.961  22.114   4.626
37996W        W 6214  33.072  10.578   4.862
37997W        W 6215   9.400  24.711   2.873
37998W        W 6216   3.228  29.696   2.238
37999W        W 6217  23.603  12.907   1.952
38000W        W 6218  37.978   7.792   0.790
38001W        W 6219  15.699  21.829  10.165
38002W        W 6220  27.838   7.347  13.481
38003W        W 6221  35.448  30.086  12.050
38004W        W 6222  35.327  27.126   9.830
38005W        W 6223   1.922  36.597   3.240
38006W        W 6224  23.924  23.149  11.112
38007W        W 6225  36.490  16.363   4.198
38008W        W 6226   8.962  41.789   1.626
38009W        W 6227  14.893   9.213  11.622
38010W        W 6228  23.460  22.242  13.304
38011W        W 6229   1.345  18.996   0.833
38012W        W 6230  34.521  37.879  13.901
38013W        W 6231  19.219  23.759  11.545
38014W        W 6232  10.846  26.136   4.865
38015W        W 6233  40.001  37.558   0.252
38016W        W 6234  10.762  30.947  11.970
38017W        W 6235  27.009  39.510   2.877
38018W        W 6236  19.048  33.111  12.531
38019W        W 6237  33.903  33.861   4.581
38020W        W 6238   2.839   4.049   1.009
38021W        W 6239   3.640  20.622   4.485
38022W        W 6240  35.384  17.257   3.664
38023W        W 6241  37.850  36.513   4.331
38024W        W 6242  17.465  14.555   2.845
38025W        W 6243   1.714   8.276   1.814
38026W        W 6244   0.700  21.532  10.989
38027W        W 6245  30.615  38.017   2.258
38028W        W 6246  13.864  12.584  11.679
38029W        W 6247  17.681   0.330  13.843
38030W        W 6248  20.744  32.624  11.612
38031W        W 6249   2.997  32.337  11.224
38032W        W 6250  14.008  39.591   0.712
38033W        W 6251  10.788  19.075   1.671
38034W        W 6252  15.052  22.443  12.095
38035W        W 6253  25.693  36.486   3.161
38036W        W 6254  27.550   9.614   2.952
38037W        W 6255  28.845  32.379   3.557
38038W        W 6256  29.119  33.532   0.204
38039W        W 6257  35.357   1.865  12.430
38040W        W 6258   8.620  24.921  12.161
38041W        W 6259  23.548  35.841   3.863
38042W        W 6260   6.287  23.445  10.485
38043W        W 6261  26.014  16.231  10.735
38044W        W 6262  11.733   6.469   2.364
38045W        W 6263  12.685  10.876  11.093
38046W        W 6264  27.149   8.999  14.533
38047W        W 6265  25.183   4.387  10.556
38048W        W 6266   7.688   5.144   4.914
38049W        W 6267  22.643   7.858   1.417
38050W        W 6268   1.284  20.566  13.385
38051W        W 6269  10.673  29.525  13.817
38052W        W 6270   2.773  12.558   3.614
38053W        W 6271   9.381  43.957  11.973
38054W        W 6272  42.785  24.526   1.510
38055W        W 6273  14.912   7.151  11.120
38056W        W 6274  33.910   3.890   4.556
38057W        W 6275  22.906   9.164   4.564
38058W        W 6276  10.575  34.326   4.128
38059W        W 6277  15.093  30.072   3.175
38060W        W 6278  41.344  40.343  13.796
38061W        W 6279  18.154  11.790   5.143
38062W        W 6280  34.378  32.629   1.391
38063W        W 6281  44.493  38.231   4.583
38064W        W 6282  12.334  18.162   1.947
38065W        W 6283   4.886   4.703  13.429
38066W        W 6284  43.521  36.411  12.963
38067W        W 6285  37.933  12.909   4.036
38068W        W 6286  35.676   0.719   5.005
38069W        W 6287  18.275   5.785  14.363
38070W        W 6288  43.710  22.005   2.825
38071W        W 6289  33.336  33.454   0.235
38072W        W 6290  42.002  38.906   2.422
38073W        W 6291  11.855  15.505  10.370
38074W        W 6292  28.920  41.844   2.227
38075W        W 6293   1.198   4.070   3.652
38076W        W 6294  12.678  37.051  14.083
38077W        W 6295   6.415   2.739   1.881
38078W        W 6296   2.707   5.103   4.139
38079W        W 6297  14.055  37.708  13.455
38080W        W 6298  28.220  13.654  10.723
38081W        W 6299  21.279  28.015  14.846
38082W        W 6300  24.074  40.584   4.080
38083W        W 6301  44.931  28.579  14.396
38084W        W 6302  35.880  32.447  14.609
38085W        W 6303   8.899  32.961   1.410
38086W        W 6304  26.107  21.383   2.791
38087W        W 6305  30.016  43.670   2.712
38088W        W 6306   2.835  41.269   2.311
38089W        W 6307  37.060  19.650   1.942
38090W        W 6308   3.997  18.535  11.000
38091W        W 6309   8.752  39.839   2.748
38092W        W 6310  38.195   2.933  11.203
38093W        W 6311   4.417  44.830   4.178
38094W        W 6312  26.024  22.010  12.042
38095W        W 6313  21.599  27.328  14.036
38096W        W 6314  35.808  20.216   3.231
38097W        W 6315   9.207   4.590  14.474
38098W        W 6316  21.647   2.759   4.586
38099W        W 6317  44.304  36.447   1.790
38100W        W 6318  27.938  37.805  11.036
38101W        W 6319   5.003  25.326   4.603
38102W        W 6320  17.336  16.254  12.917
38103W        W 6321  41.334  19.362   2.205
38104W        W 6322  37.903  39.600  11.974
38105W        W 6323  37.569  44.868   1.919
38106W        W 6324  16.208  24.988   1.774
38107W        W 6325  11.245  34.560   4.518
38108W        W 6326  32.257  18.821  12.855
38109W        W 6327   3.709  16.118   0.407
38110W        W 6328   1.293  18.299  12.998
38111W        W 6329  19.119  10.460  10.655
38112W        W 6330  40.424  11.291   3.699
38113W        W 6331  11.541  38.278   4.169
38114W        W 6332  17.329  22.175   2.417
38115W        W 6333   8.753  37.836   2.874
38116W        W 6334  35.360   2.347   3.564
38117W        W 6335  38.761   8.098  14.267
38118W        W 6336  20.264  41.982   0.353
38119W        W 6337  26.530   0.827  13.547
38120W        W 6338  16.565   0.268  10.558
38121W        W 6339  30.719  28.658  13.560
38122W        W 6340  36.454  11.411   1.673
38123W        W 6341  14.087  38.954   1.243
38124W        W 6342  38.412  28.802   2.712
38125W        W 6343  18.891  44.284   3.502
38126W        W 6344  26.490   3.694  11.134
38127W        W 6345   3.784   1.762  14.239
38128W        W 6346  36.349  43.462  13.409
38129W        W 6347  14.784  41.853  10.903
38130W        W 6348   7.394  38.460   0.950
38131W        W 6349  13.221   0.425   0.361
38132W        W 6350  27.516   6.928   4.051
38133W        W 6351  10.093  41.603  12.047
38134W        W 6352  21.950   5.731   0.848
38135W        W 6353  28.214  18.375   1.221
38136W        W 6354  44.408  40.513  12.098
38137W        W 6355  38.804  12.719   3.614
38138W        W 6356  38.582   6.983  12.522
38139W        W 6357  36.057   8.441  13.502
38140W        W 6358  13.201  24.651  13.470
38141W        W 6359  25.163  18.687  12.586
38142W        W 6360  34.335  33.995   0.779
38143W        W 6361   2.704  25.447  12.015
38144W        W 6362  38.947  27.204  10.028
38145W        W 6363   6.458  31.500  12.613
38146W        W 6364  10.181  44.703  12.592
38147W        W 6365  44.008  25.196   3.380
38148W        W 6366  44.437  43.389   4.110
38149W        W 6367  26.173  23.991  13.381
38150W        W 6368  39.067   8.423  11.776
38151W        W 6369  16.857   0.531  10.870
38152W        W 6370  29.535  34.974   3.190
38153W        W 6371  25.973  35.375  14.360
38154W        W 6372  32.836  13.663  12.424
38155W        W 6373  39.826   7.710   2.584
38156W        W 6374  42.157  13.107   3.806
38157W        W 6375  33.054  12.655   4.581
38158W        W 6376   6.675   3.931   0.914
38159W        W 6377  37.949  34.079   4.468
38160W        W 6378  19.178  39.743  13.822
38161W        W 6379  43.355  26.946   0.515
38162W        W 6380  29.656  19.166   2.933
38163W        W 6381   6.012  30.927   3.781
38164W        W 6382   2.004  14.100   0.367
38165W        W 6383  19.497  11.220  14.035
38166W        W 6384   6.940  37.442   4.750
38167W        W 6385  36.904  12.649   3.753
38168W        W 6386  29.942  40.517   3.639
38169W        W 6387  14.662  11.914   4.576
38170W        W 6388  15.807  31.754   1.380
38171W        W 6389  13.771  29.160  14.393
38172W        W 6390  20.076   0.355   4.792
38173W        W 6391  25.523  36.576   3.663
38174W        W 6392  16.664  24.053   4.615
38175W        W 6393  44.857   7.152   0.696
38176W        W 6394  38.286  13.803   0.349
38177W        W 6395   7.957  37.835  14.370
38178W        W 6396  17.438  26.681   0.531
38179W        W 6397  12.356  36.527   3.924
38180W        W 6398   7.754  41.168   0.919
38181W        W 6399   3.737  32.587  10.744
38182W        W 6400  39.373  16.565  14.254
38183W        W 6401  30.044   9.315   3.841
38184W        W 6402  13.752  15.663  13.448
38185W        W 6403  30.669  35.916   0.250
38186W        W 6404  30.370  13.357  11.572
38187W        W 6405  18.938   5.980   2.802
38188W        W 6406  11.279   6.304   0.942
38189W        W 6407  13.937  19.959   1.260
38190W        W 6408  13.301  28.377   3.209
38191W        W 6409  19.728   0.429  12.892
38192W        W 6410  12.814  27.254  13.845
38193W        W 6411  31.715   4.418   2.865
38194W        W 6412   2.996  16.097   2.208
38195W        W 6413  40.400  14.745   2.844
38196W        W 6414  25.980  22.638  14.749
38197W        W 6415  35.451  39.895  12.052
38198W        W 6416  22.560  10.728  13.337
38199W        W 6417  34.829  28.470   2.812
38200W        W 6418  44.240  11.281  14.717
38201W        W 6419   8.155  41.971  14.953
38202W        W 6420  33.052   2.770   3.303
38203W        W 6421   5.275  15.793  12.962
38204W        W 6422  42.998  16.775  10.667
38205W        W 6423  10.458  10.175  14.374
38206W        W 6424   3.348   3.895  11.544
38207W        W 6425  19.803  11.115   3.338
38208W        W 6426   2.052  24.778   1.859
38209W        W 6427  33.633  20.539   0.875
38210W        W 6428  36.882   2.177  12.375
38211W        W 6429   0.985  26.866  11.664
38212W        W 6430  40.384  14.962   0.228
38213W        W 6431  28.614  25.226   4.510
38214W        W 6432  39.726  34.859   1.020
38215W        W 6433   3.847   3.810  13.284
38216W        W 6434  41.427  38.011  14.052
38217W        W 6435  21.598  41.441  14.405
38218W        W 6436   6.239  35.379   0.879
38219W        W 6437  32.082  30.589  13.583
38220W        W 6438  17.490  10.128  13.283
38221W        W 6439   3.869   4.422   1.199
38222W        W 6440  16.371   9.879  13.396
38223W        W 6441   5.860  38.314  13.732
38224W        W 6442  15.324   6.259   1.632
38225W        W 6443  41.049   1.374  10.719
38226W        W 6444   4.853  36.900  10.826
38227W        W 6445  38.630  21.116   1.645
38228W        W 6446  33.082  30.438  11.453
38229W        W 6447  18.158   7.661   3.688
38230W        W 6448  36.383  11.842  11.921
38231W        W 6449   1.682  17.248  14.019
38232W        W 6450  11.418  20.785  14.458
38233W        W 6451  13.095   1.065  14.017
38234W        W 6452  21.039   7.992   3.722
38235W        W 6453  20.525  18.160   4.589
38236W        W 6454  32.211  35.335  10.676
38237W        W 6455  19.267  36.072   4.100
38238W        W 6456  24.892  43.243  12.459
38239W        W 6457   2.439  17.835  14.385
38240W        W 6458  43.573  19.811   2.173
38241W        W 6459   7.188  10.215   4.590
38242W        W 6460   2.197  39.639   4.521
38243W        W 6461  32.640   2.049  12.927
38244W        W 6462   5.641   6.696  11.718
38245W        W 6463  20.220  20.595   1.784
38246W        W 6464   5.655  44.609   0.075
38247W        W 6465  33.358   9.230   3.856
38248W        W 6466  35.413  23.159  10.713
38249W        W 6467   0.259   2.383   0.719
38250W        W 6468  22.264  28.128  12.973
38251W        W 6469   1.896  14.094  14.372
38252W        W 6470  12.552   8.944  13.768
38253W        W 6471  13.060  28.177   1.343
38254W        W 6472   7.489   6.931  11.171
38255W        W 6473  43.407  32.887   0.375
38256W        W 6474  14.239  19.082   0.500
38257W        W 6475   6.122   9.038  10.971
38258W        W 6476   1.846   9.245   3.103
38259W        W 6477   9.721   9.900  11.838
38260W        W 6478  15.174   9.370   0.286
38261W        W 6479  21.838  40.376  14.803
38262W        W 6480  10.437  43.787  13.855
38263W        W 6481  10.693  26.941   4.868
38264W        W 6482  39.213  16.713   1.618
38265W        W 6483  35.401  23.298   4.080
38266W        W 6484  39.619  20.087  13.227
38267W        W 6485  38.537   0.364  10.584
38268W        W 6486  35.965  19.715   3.278
38269W        W 6487  27.475  13.734   1.271
38270W        W 6488  30.180  29.576  13.443
38271W        W 6489   1.733  10.648   1.704
38272W        W 6490  40.467  11.746  12.020
38273W        W 6491  30.432   9.744   4.526
38274W        W 6492   4.930  30.115  12.089
38275W        W 6493  23.571  10.287  13.036
38276W        W 6494  32.534  35.601  11.409
38277W        W 6495  39.952  36.590   0.204
38278W        W 6496   2.907  31.425   0.337
38279W        W 6497   5.771  34.914   1.349
38280W        W 6498   5.261   7.403  14.348
38281W        W 6499  43.240   8.139  11.097
38282W        W 6500  19.985  34.457  13.822
38283W        W 6501  22.698   6.687   4.692
38284W        W 6502  13.436  30.446  11.869
38285W        W 6503  11.820  21.195   1.927
38286W        W 6504  32.890  42.645  10.922
38287W        W 6505  28.395  20.048  10.562
38288W        W 6506  22.306  21.761   0.040
38289W        W 6507  27.137  44.024   1.244
38290W        W 6508  43.090   3.510  11.547
38291W        W 6509  23.418   0.817   2.005
38292W        W 6510  44.406  19.800  13.351
38293W        W 6511  12.461  19.094  10.536
38294W        W 6512  37.049  12.793  12.948
38295W        W 6513  14.772   1.355   0.225
38296W        W 6514  39.229  27.020   0.304
38297W        W 6515  30.664  39.018   3.295
38298W        W 6516  19.491   0.038   2.652
38299W        W 6517  42.439  27.389  11.223
38300W        W 6518   3.495  19.748   0.943
38301W        W 6519  43.899  24.444  13.593
38302W        W 6520  37.092  28.176  12.332
38303W        W 6521  33.152  18.729  14.272
38304W        W 6522  24.473  16.757   2.298
38305W        W 6523  25.640  35.606  11.121
38306W        W 6524  13.278  34.619  11.095
38307W        W 6525  14.221  14.092   4.560
38308W        W 6526  16.301  21.036   2.260
38309W        W 6527  25.024  27.363   2.744
38310W        W 6528  10.865  29.748   1.549
38311W        W 6529  21.284  37.854   2.270
38312W        W 6530  19.644   4.818  12.724
38313W        W 6531  11.756   3.956  11.144
38314W        W 6532  23.112  25.580   3.176
38315W        W 6533  34.477   4.935  12.574
38316W        W 6534  42.578  24.086   1.320
38317W        W 6535  41.780  42.836  10.704
38318W        W 6536   6.357  20.818   1.844
38319W        W 6537  34.082   0.893  14.910
38320W        W 6538   6.727  19.674   0.224
38321W        W 6539  22.313  34.088  11.559
38322W        W 6540  27.541  39.078   4.137
38323W        W 6541  39.132  40.022   0.633
38324W        W 6542  29.567  33.735   0.372
38325W        W 6543  26.935   5.648  11.431
38326W        W 6544   5.361  41.776   3.141
38327W        W 6545  40.472  17.681   0.617
38328W        W 6546  25.881  16.334  11.569
38329W        W 6547  32.607  24.323   4.902
38330W        W 6548  14.364  11.860   4.142
38331W        W 6549   6.863  28.597   2.279
38332W        W 6550  31.679  16.210  12.427
38333W        W 6551  42.814  39.867  13.910
38334W        W 6552  20.381  14.235   4.043
38335W        W 6553  37.526  32.458  14.623
38336W        W 6554  17.807  27.422  11.277
38337W        W 6555  26.635  38.840   0.335
38338W        W 6556  13.904  33.530   2.497
38339W        W 6557  42.944  22.231   2.145
38340W        W 6558   3.637  37.132   2.276
38341W        W 6559  34.115  41.799   2.750
38342W        W 6560  13.776   4.774  14.875
38343W        W 6561   0.181  29.369   0.974
38344W        W 6562  10.243  20.196   4.335
38345W        W 6563  26.461   7.852   4.150
38346W        W 6564  32.192  20.907   2.368
38347W        W 6565   7.495  44.561  13.976
38348W        W 6566  44.660  26.660   2.220
38349W        W 6567   9.913   5.132  10.566
38350W        W 6568  40.189  38.615  14.722
38351W        W 6569  44.380  42.376  10.886
38352W        W 6570  22.709  15.313  14.418
38353W        W 6571  33.842  23.029   3.214
38354W        W 6572  24.487  30.934   3.913
38355W        W 6573  11.611  31.499  11.426
38356W        W 6574  37.651  37.346   0.768
38357W        W 6575   7.618   8.295  12.119
38358W        W 6576   7.200  26.302   1.380
38359W        W 6577  19.702  36.909  12.917
38360W        W 6578  22.574  22.826   4.580
38361W        W 6579  29.606  29.642   4.683
38362W        W 6580   5.285  33.528   0.742
38363W        W 6581  35.897  25.421   3.752
38364W        W 6582  28.288  18.555   2.660
38365W        W 6583  32.867   1.312   1.811
38366W        W 6584  13.767  28.475  12.590
38367W        W 6585  31.899  33.418  12.420
38368W        W 6586  12.652   3.755  11.898
38369W        W 6587   4.289  30.907  14.314
38370W        W 6588  11.791  31.385   0.529
38371W        W 6589  43.650  31.367   0.423
38372W        W 6590  10.665   1.824   0.698
38373W        W 6591  34.404  11.067   1.355
38374W        W 6592  10.275  36.291  10.533
38375W        W 6593  10.375  15.867  13.356
38376W        W 6594  30.955   9.916  10.515
38377W        W 6595   8.072  29.877  11.114
38378W        W 6596  40.263  11.105  11.503
38379W        W 6597  33.064  36.398   4.848
38380W        W 6598  39.955  44.105   3.947
38381W        W 6599   9.237  33.738   0.088
38382W        W 6600   9.141   8.704   2.316
38383W        W 6601  41.544  43.048  10.197
38384W        W 6602  29.045   6.488  14.340
38385W        W 6603  44.920  21.025   0.323
38386W        W 6604  12.257  37.894  11.068
38387W        W 6605  15.756  21.505  14.860
38388W        W 6606  17.054  18.723  13.408
38389W        W 6607  17.323  27.375  12.124
38390W        W 6608   2.805  16.636  14.636
38391W        W 6609  24.065   1.374  10.706
38392W        W 6610   5.806   4.729   2.914
38393W        W 6611  14.176   2.907   2.234
38394W        W 6612   6.288  32.630  11.888
38395W        W 6613  16.300  34.552   3.432
38396W        W 6614  43.036  39.472   1.797
38397W        W 6615  15.370  16.573   9.829
38398W        W 6616  41.429  35.602   1.873
38399W        W 6617  14.749   2.359  14.923
38400W        W 6618  32.371  11.360   2.320
38401W        W 6619  28.913  40.272   1.919
38402W        W 6620  23.516  21.535  14.064
38403W        W 6621  36.505  41.034   1.454
38404W        W 6622  43.217  21.597   4.175
38405W        W 6623  44.935  30.010  12.459
38406W        W 6624   7.400  12.647  12.036
38407W        W 6625   2.674  12.650  12.444
38408W        W 6626   2.884  10.614  13.942
38409W        W 6627  11.091  25.260   4.131
38410W        W 6628  12.787  28.343   2.927
38411W        W 6629  11.667  42.029  11.606
38412W        W 6630  31.630  28.897  12.089
38413W        W 6631  37.533  33.470  14.445
38414W        W 6632  11.349  19.660  11.667
38415W        W 6633  14.418  17.839   2.319
38416W        W 6634  26.464   4.595  14.949
38417W        W 6635  34.601  24.258   4.123
38418W        W 6636  39.022  23.736   4.516
38419W        W 6637   1.038  43.083  14.447
38420W        W 6638  26.190   6.221  14.312
38421W        W 6639  15.301  40.374   0.056
38422W        W 6640  21.816  11.392   2.157
38423W        W 6641  44.442  23.481   1.886
38424W        W 6642  19.953  22.115   0.250
38425W        W 6643  16.482  30.422   4.883
38426W        W 6644  29.929  14.312   4.967
38427W        W 6645  23.903   8.795   2.185
38428W        W 6646  15.360  20.080  12.996
38429W        W 6647  30.589  33.365  10.560
38430W        W 6648  25.684  38.991  10.096
38431W        W 6649   7.166  29.420  11.499
38432W        W 6650  43.072  26.627  13.015
38433W        W 6651  44.022  35.163   2.264
38434W        W 6652  37.519  12.628  12.858
38435W        W 6653  19.972  24.773   5.185
38436W        W 6654  24.578   7.639   3.738
38437W        W 6655  38.118  10.114  11.419
38438W        W 6656  40.480  29.771  13.532
38439W        W 6657  29.063  35.542   2.500
38440W        W 6658   2.964   3.263   1.572
38441W        W 6659  43.538   5.400   1.466
38442W        W 6660   5.871  27.506  13.936
38443W        W 6661  35.354  24.752  12.449
38444W        W 6662  24.605  17.979  12.163
38445W        W 6663   3.246  43.931   0.891
38446W        W 6664  30.687  28.645   1.974
38447W        W 6665  14.920  17.225  12.480
38448W        W 6666  32.925  37.857  10.870
38449W        W 6667  14.237  12.601  12.952
38450W        W 6668  23.389  24.147  11.570
38451W        W 6669  19.758  28.622   1.431
38452W        W 6670  26.926   5.228   0.428
38453W        W 6671  33.704  40.073  12.588
38454W        W 6672  14.567  20.087  11.582
38455W        W 6673  39.483  42.648  10.815
38456W        W 6674  25.554  19.628   5.107
38457W        W 6675  18.219   8.173   3.722
38458W        W 6676   8.215  22.856  12.709
38459W        W 6677  28.597  44.430   3.092
38460W        W 6678   6.464   4.904   1.791
38461W        W 6679   5.957  25.216  12.508
38462W        W 6680  21.144  40.748   0.357
38463W        W 6681  28.834  28.959  14.155
38464W        W 6682  24.214  14.327  14.809
38465W        W 6683  16.820   4.031   1.518
38466W        W 6684  27.572  41.698  14.665
38467W        W 6685  14.626  33.352   1.220
38468W        W 6686  38.354  23.034  10.526
38469W        W 6687  12.712  28.593   4.845
38470W        W 6688  26.532  34.117  14.399
38471W        W 6689   7.912  39.928  13.396
38472W        W 6690  33.193  20.615   1.285
38473W        W 6691  38.608   0.238  10.087
38474W        W 6692   3.988  26.738   2.529
38475W        W 6693  14.292   0.935  12.176
38476W        W 6694  28.639  36.767   1.437
38477W        W 6695   6.215  10.210  13.334
38478W        W 6696  41.533   3.507   3.207
38479W        W 6697  12.621   9.595  10.569
38480W        W 6698  18.049   0.667  12.043
38481W        W 6699  13.824  16.077   2.228
38482W        W 6700  37.472   0.269  14.966
38483W        W 6701  44.416  31.925  14.499
38484W        W 6702  40.811   0.325   0.955
38485W        W 6703  17.703   7.812   3.856
38486W        W 6704   6.290   2.659  12.323
38487W        W 6705  28.233  24.146   0.212
38488W        W 6706  17.740  16.115   0.384
38489W        W 6707  38.079  13.353   1.317
38490W        W 6708   2.290  10.852  12.916
38491W        W 6709  41.767  21.526   1.757
38492W        W 6710  15.952  35.698   2.322
38493W        W 6711  34.497  36.022   3.726
38494W        W 6712  30.720  41.038  14.508
38495W        W 6713  35.146  23.033  11.131
38496W        W 6714  36.886  31.869  14.763
38497W        W 6715  14.084  15.606   2.395
38498W        W 6716  39.299  31.182  10.358
38499W        W 6717  38.009  32.353  12.980
38500W        W 6718  29.605  23.631   4.657
38501W        W 6719  20.296  30.620  11.625
38502W        W 6720   9.781  10.970   4.744
38503W        W 6721  35.128  42.877   5.156
38504W        W 6722  26.117  21.259  12.537
38505W        W 6723  23.226  31.744  11.151
38506W        W 6724  34.157  18.736   3.719
38507W        W 6725   5.358   8.800   4.522
38508W        W 6726  44.065   4.272  12.337
38509W        W 6727  20.663  17.812   2.352
38510W        W 6728  33.175  37.444   1.869
38511W        W 6729  35.055  41.058   3.629
38512W        W 6730  38.057  30.058   2.698
38513W        W 6731  37.399  28.129  13.998
38514W        W 6732  13.801  38.958   4.695
38515W        W 6733  19.370   8.634  14.853
38516W        W 6734  32.967  34.859   2.361
38517W        W 6735  35.183  39.736   3.204
38518W        W 6736  19.563  18.706   3.682
38519W        W 6737  28.861   3.882  12.855
38520W        W 6738  44.949  40.724  11.213
38521W        W 6739  10.314  39.079  11.044
38522W        W 6740  44.887  25.567  13.293
38523W        W 6741   4.831  11.144  12.552
38524W        W 6742   0.549  33.293   0.936
38525W        W 6743   3.456  14.284   3.839
38526W        W 6744  22.648  37.858  12.867
38527W        W 6745  42.939  33.542  11.099
38528W        W 6746  10.679  18.406  12.875
38529W        W 6747  41.739   3.746  14.807
38530W        W 6748   1.163  29.906   1.465
38531W        W 6749  21.207  44.493  12.123
38532W        W 6750  14.881  12.119   2.934
38533W        W 6751  11.216   1.523  14.646
38534W        W 6752  14.240   5.481  14.053
38535W        W 6753  35.910  32.911  11.532
38536W        W 6754  20.759  42.799   4.742
38537W        W 6755   9.245   7.210  11.496
38538W        W 6756  29.467   8.403   0.935
38539W        W 6757  28.466   8.261  11.597
38540W        W 6758   8.383  16.462  12.129
38541W        W 6759   2.396  27.007   4.541
38542W        W 6760  17.736  10.918   4.218
38543W        W 6761  27.541  18.554   2.126
38544W        W 6762  15.655  24.990  14.503
38545W        W 6763  44.885  26.967  10.719
38546W        W 6764  30.693   1.145   4.625
38547W        W 6765  15.612  30.176   3.314
38548W        W 6766  12.806  14.562  10.830
38549W        W 6767  29.448  33.530  12.696
38550W        W 6768  37.311  10.868  12.054
38551W        W 6769   0.080  32.586  12.092
38552W        W 6770  40.157  42.392   1.837
38553W        W 6771  31.507  22.445   3.275
38554W        W 6772  30.711   0.291   4.814
38555W        W 6773  17.487  39.919  14.081
38556W        W 6774  42.820  31.789  12.491
38557W        W 6775  43.978   9.238   1.957
38558W        W 6776  44.258  22.954   3.637
38559W        W 6777  36.347   4.602  10.366
38560W        W 6778  29.463  25.009  12.986
38561W        W 6779  42.789   8.429   1.979
38562W        W 6780  37.890  18.073   1.622
38563W        W 6781   6.970  36.247  13.284
38564W        W 6782  37.381  11.399  10.642
38565W        W 6783  42.575  28.012   1.680
38566W        W 6784  22.981  39.585  14.978
38567W        W 6785   7.267   8.787  11.458
38568W        W 6786   1.562  24.733  11.583
38569W        W 6787  10.410  29.361  14.873
38570W        W 6788   6.791  39.572   3.776
38571W        W 6789  34.772  10.648  12.867
38572W        W 6790  31.081   5.415  11.351
38573W        W 6791   3.826  26.966   1.551
38574W        W 6792   4.962   7.411  12.017
38575W        W 6793  28.975  44.391  12.793
38576W        W 6794  29.586  31.332   3.645
38577W        W 6795  12.827  11.926  14.291
38578W        W 6796  37.116  12.787   3.037
38579W        W 6797  35.645  24.647   1.263
38580W        W 6798  25.096   3.267  12.074
38581W        W 6799  34.665  26.422  10.905
38582W        W 6800  34.866  19.032  13.081
38583W        W 6801   2.771  14.735  13.625
38584W        W 6802  14.613  41.656   5.006
38585W        W 6803   5.262   8.323  10.880
38586W        W 6804  13.255  27.179  11.555
38587W        W 6805  28.840  15.347  13.084
38588W        W 6806  44.937  10.902   3.641
38589W        W 6807  33.303  30.588  11.963
38590W        W 6808  41.798   7.377   4.070
38591W        W 6809  12.294  31.853   2.807
38592W        W 6810  17.246  17.187  12.623
38593W        W 6811  32.000  37.650  13.002
38594W        W 6812  34.090   7.296   0.635
38595W        W 6813  37.848  38.289   2.233
38596W        W 6814  39.232  37.031   0.141
38597W        W 6815  17.773  31.494  11.190
38598W        W 6816  27.230   9.755   4.825
38599W        W 6817   8.741  33.084  12.803
38600W        W 6818   9.177   2.128  13.621
38601W        W 6819  34.447  32.086  14.746
38602W        W 6820  14.511   2.454  12.538
38603W        W 6821   6.864  18.066   1.319
38604W        W 6822  36.364  34.849   0.400
38605W        W 6823  27.102  39.402  13.394
38606W        W 6824  27.958  15.387  14.370
38607W        W 6825  19.085  14.243   2.263
38608W        W 6826   0.764  33.342  11.080
38609W        W 6827   4.016  44.488  12.465
38610W        W 6828  27.626  43.716   2.584
38611W        W 6829   2.024  13.321  12.493
38612W        W 6830  11.534   7.678  14.971
38613W        W 6831  40.266  40.044   2.346
38614W        W 6832  39.391  25.144  13.403
38615W        W 6833  15.313   9.797  12.590
38616W        W 6834   4.858  29.700  11.507
38617W        W 6835   7.374  14.486  12.086
38618W        W 6836  28.651  38.387  10.819
38619W        W 6837  31.120  20.106   4.883
38620W        W 6838  16.128  35.803  12.507
38621W        W 6839  27.400  13.858  10.543
38622W        W 6840   5.863  17.055   3.718
38623W        W 6841   0.600  21.263  11.447
38624W        W 6842  39.445   7.659  12.387
38625W        W 6843   8.120  16.545   3.614
38626W        W 6844  10.153  33.977  11.639
38627W        W 6845  42.295  30.056  13.293
38628W        W 6846   3.579  32.221   3.728
38629W        W 6847   4.964  25.471   3.773
38630W        W 6848  11.567  36.370  12.477
38631W        W 6849  31.874  22.682   3.598
38632W        W 6850  39.083  13.203  12.882
38633W        W 6851  41.474  20.196   2.687
38634W        W 6852  43.899  38.660  12.883
38635W        W 6853  14.659  29.674   1.764
38636W        W 6854  34.643  42.056   1.857
38637W        W 6855  22.164  21.157   2.372
38638W        W 6856  34.628  23.050   3.700
38639W        W 6857  29.737  14.202   0.541
38640W        W 6858  17.694   6.678  11.085
38641W        W 6859   9.332  23.566  12.507
38642W        W 6860   8.615  38.079   3.329
38643W        W 6861  43.033   7.515   3.429
38644W        W 6862  31.663  35.363   2.851
38645W        W 6863  10.364   7.511   0.508
38646W        W 6864   9.247  39.633   2.703
38647W        W 6865   3.207   0.502   2.282
38648W        W 6866  29.087  29.204  13.221
38649W        W 6867   0.299  11.708   1.137
38650W        W 6868  30.314  17.517   3.309
38651W        W 6869  36.443  15.649  13.929
38652W        W 6870  42.966  11.826   4.649
38653W        W 6871  17.778  15.664  14.104
38654W        W 6872  37.354  38.047   2.361
38655W        W 6873  38.081  15.293  14.797
38656W        W 6874  35.774   6.998  13.485
38657W        W 6875  23.971   8.163  12.567
38658W        W 6876   6.299   5.780  11.081
38659W        W 6877   8.311  11.957  10.757
38660W        W 6878  16.340  41.790   5.071
38661W        W 6879  23.930  28.080  14.966
38662W        W 6880  44.308  34.618  10.709
38663W        W 6881  26.779  17.817   5.106
38664W        W 6882   0.060  42.536   3.652
38665W        W 6883  28.880   7.352  13.278
38666W        W 6884  20.569  40.904  14.681
38667W        W 6885  21.269  25.246  11.617
38668W        W 6886  27.993  36.188   4.240
38669W        W 6887  36.018  29.149   4.556
38670W        W 6888  40.569   3.148  13.498
38671W        W 6889  32.623  37.392  13.403
38672W        W 6890  33.077  39.329   2.743
38673W        W 6891   8.285  27.543   3.219
38674W        W 6892  40.030  33.833  12.902
38675W        W 6893  23.498  31.945   0.427
38676W        W 6894  40.494  10.950   1.831
38677W        W 6895  37.625  40.315   0.254
38678W        W 6896   2.827  31.071  13.370
38679W        W 6897   5.866   1.937  12.645
38680W        W 6898  42.492  23.053   4.903
38681W        W 6899   5.816  29.681  12.683
38682W        W 6900  18.093  36.158   3.147
38683W        W 6901  18.324   2.935  13.514
38684W        W 6902  21.097   8.368  10.941
38685W        W 6903  43.862  12.790  10.295
38686W        W 6904  22.318   3.646   1.648
38687W        W 6905   7.612  42.750   3.197
38688W        W 6906  15.546  15.188   2.287
38689W        W 6907  31.443  41.905   2.303
38690W        W 6908  43.460   5.337   0.115
38691W        W 6909  13.074   5.375   2.699
38692W        W 6910  28.869  43.923  13.479
38693W        W 6911  13.898  41.983  14.933
38694W        W 6912  24.583  33.883  11.701
38695W        W 6913  28.162  36.462   2.801
38696W        W 6914  23.647  10.819  13.051
38697W        W 6915   2.095   6.739  12.933
38698W        W 6916  22.645   1.549  14.031
38699W        W 6917  33.049  13.183  13.400
38700W        W 6918   7.203  21.605   3.239
38701W        W 6919  18.624  11.230   0.415
38702W        W 6920  19.520   1.419   0.782
38703W        W 6921  32.623   8.712   3.158
38704W        W 6922  21.386   6.456   4.994
38705W        W 6923  28.853  36.140   0.939
38706W        W 6924  22.137  14.228   2.977
38707W        W 6925   8.075  35.824   2.866
38708W        W 6926   9.119  19.212  12.955
38709W        W 6927   1.492  42.792  14.565
38710W        W 6928  26.227  26.022   3.926
38711W        W 6929  25.706  25.014   2.697
38712W        W 6930  10.431  42.907  14.044
38713W        W 6931  31.380  24.012   3.718
38714W        W 6932   1.532  34.002   4.259
38715W        W 6933  14.741  39.553   1.837
38716W        W 6934  12.917  41.794   1.744
38717W        W 6935  43.882  42.323   2.869
38718W        W 6936  35.915  23.150   1.272
38719W        W 6937  20.167  36.589   4.726
38720W        W 6938  40.572  43.056   1.292
38721W        W 6939   6.257  29.690   2.195
38722W        W 6940   7.162  14.207  11.121
38723W        W 6941  36.596  31.238  12.038
38724W        W 6942   7.265  41.417  12.360
38725W        W 6943  40.492  11.418   4.640
38726W        W 6944  20.643  41.309   3.667
38727W        W 6945  25.130  37.991   3.688
38728W        W 6946  42.417   6.217   4.682
38729W        W 6947   7.928  11.882  14.874
38730W        W 6948   4.614  23.541  11.157
38731W        W 6949  35.572  43.390   1.825
38732W        W 6950  30.612  19.892   2.106
38733W        W 6951  21.213  33.916   3.079
38734W        W 6952   6.633  30.919   0.756
38735W        W 6953  43.003   5.720  12.820
38736W        W 6954  36.881  17.733   0.855
38737W        W 6955  17.361  35.334   1.194
38738W        W 6956  11.835  38.332  11.672
38739W        W 6957  43.324  28.629  10.681
38740W        W 6958  11.376  28.939  14.796
38741W        W 6959  41.593   2.651  13.303
38742W        W 6960  33.489   6.310   2.810
38743W        W 6961  39.800   4.173   1.941
38744W        W 6962  39.444  20.037   1.701
38745W        W 6963  36.051  17.166   2.030
38746W        W 6964  12.414  34.535   1.952
38747W        W 6965  11.762  24.433  11.217
38748W        W 6966   2.937  31.921  13.103
38749W        W 6967  18.288   9.751   5.026
38750W        W 6968  36.918  36.134  14.404
38751W        W 6969  12.364  36.879   3.119
38752W        W 6970  25.455  14.892  14.810
38753W        W 6971  12.285  29.199  10.643
38754W        W 6972  24.541  37.406  10.915
38755W        W 6973  36.544  12.143   1.489
38756W        W 6974  33.134  25.020  12.998
38757W        W 6975  30.047  12.609  11.374
38758W        W 6976  34.863  16.413  12.617
38759W        W 6977  12.782  14.807   1.909
38760W        W 6978  13.873  41.887   2.856
38761W        W 6979  21.756   3.494  12.435
38762W        W 6980  43.552  17.334  14.976
38763W        W 6981   1.625  38.878   3.244
38764W        W 6982  37.399  37.766  12.313
38765W        W 6983  19.822  28.865   1.892
38766W        W 6984  23.841  27.662   9.878
38767W        W 6985  10.137   6.643  12.461
38768W        W 6986  37.798  20.520   0.761
38769W        W 6987   2.705   8.291  11.261
38770W        W 6988  38.494  41.704  14.349
38771W        W 6989  26.663  24.740   0.511
38772W        W 6990  26.059  11.356   3.882
38773W        W 6991  14.705  31.853  11.302
38774W        W 6992  25.924   5.346  11.579
38775W        W 6993  15.273  13.409  10.256
38776W        W 6994  28.547  33.252  12.885
38777W        W 6995  43.329  32.091   4.200
38778W        W 6996  26.728   2.687  11.242
38779W        W 6997  18.847   9.708   2.129
38780W        W 6998  17.676  31.903  12.324
38781W        W 6999  11.770  21.576   0.209
38782W        W 7000  15.193  36.951   4.620
38783W        W 7001  39.487  24.661  14.776
38784W        W 7002  36.453  31.426  10.612
38785W        W 7003  37.427  43.831  11.584
38786W        W 7004  29.577  41.055  12.501
38787W        W 7005  11.271  23.271   3.355
38788W        W 7006  35.492  37.854  13.386
38789W        W 7007   8.434  39.919   5.005
38790W        W 7008  43.973   0.471   3.859
38791W        W 7009  43.792  14.187   3.056
38792W        W 7010  31.615   3.657  13.883
38793W        W 7011  44.768  18.158   0.274
38794W        W 7012  16.445  33.083  12.916
38795W        W 7013  30.854  18.612  13.027
38796W        W 7014  25.403  32.461   2.296
38797W        W 7015  30.136   1.336   5.187
38798W        W 7016  10.793  22.466   0.438
38799W        W 7017  32.836  44.013   2.763
38800W        W 7018   8.261  16.857   3.995
38801W        W 7019  10.982  38.518  13.856
38802W        W 7020   4.731  17.633   1.742
38803W        W 7021   6.423  11.231   2.202
38804W        W 7022  36.928  24.030   1.265
38805W        W 7023  39.325  32.848  11.936
38806W        W 7024  33.602  11.959  12.995
38807W        W 7025  22.522  13.221  13.973
38808W        W 7026  22.243  22.771  12.798
38809W        W 7027  16.925  21.193  12.493
38810W        W 7028  39.009  39.537   0.778
38811W        W 7029  37.922   0.995  13.915
38812W        W 7030   3.903  16.070   2.258
38813W        W 7031  11.456  42.678   1.178
38814W        W 7032  44.311  37.438   4.749
38815W        W 7033  36.903  30.572   3.551
38816W        W 7034   2.710  28.425   0.895
38817W        W 7035  17.647   1.031  12.018
38818W        W 7036  39.861  22.238  12.301
38819W        W 7037  18.612  28.647   2.835
38820W        W 7038   8.503   3.935  13.006
38821W        W 7039  23.996   2.886   2.235
38822W        W 7040  19.543  41.413   0.286
38823W        W 7041  24.745  26.282  14.866
38824W        W 7042  28.755  16.800   0.240
38825W        W 7043  19.142  42.275   0.119
38826W        W 7044  15.394  24.749  10.701
38827W        W 7045  17.115  32.814   0.751
38828W        W 7046  36.959  14.671   2.285
38829W        W 7047  31.423  25.211   2.882
38830W        W 7048  20.774  34.021  11.423
38831W        W 7049  17.657  27.400  14.366
38832W        W 7050  27.085  30.047   4.317
38833W        W 7051  23.216  40.767  10.441
38834W        W 7052  22.491  32.404  13.987
38835W        W 7053  13.518   0.705  10.730
38836W        W 7054  39.884  23.821  13.668
38837W        W 7055  12.697  24.461  13.409
38838W        W 7056  35.558  32.958   2.738
38839W        W 7057  16.758   0.386  12.788
38840W        W 7058   7.400  30.906  13.410
38841W        W 7059  29.282  27.724  11.056
38842W        W 7060  15.692  12.298   4.364
38843W        W 7061  36.449  38.921  11.875
38844W        W 7062   0.760  34.073  14.206
38845W        W 7063  36.449  44.830   2.701
38846W        W 7064   4.819  42.069   2.379
38847W        W 7065  36.654   4.991  13.624
38848W        W 7066  25.152  19.769   2.714
38849W        W 7067  22.519  37.511   4.522
38850W        W 7068  35.062  41.558  12.749
38851W        W 7069  10.606   4.425   4.339
38852W        W 7070  16.818  16.537   2.793
38853W        W 7071  12.751  25.872  13.519
38854W        W 7072  38.443   5.996  12.451
38855W        W 7073  37.014  29.034   4.964
38856W        W 7074   6.705   2.721  14.411
38857W        W 7075  30.741   2.002   4.284
38858W        W 7076  18.630  32.526   4.099
38859W        W 7077  26.789  24.635   4.249
38860W        W 7078  29.260  29.485  12.381
38861W        W 7079  38.864  36.346  13.522
38862W        W 7080  36.713  37.663  13.820
38863W        W 7081  33.901  37.332  14.207
38864W        W 7082   7.700  11.137  13.082
38865W        W 7083  30.481  27.462   1.247
38866W        W 7084  26.030  19.568  10.440
38867W        W 7085  38.230  35.760   1.318
38868W        W 7086  24.965  42.533   2.270
38869W        W 7087  40.601  34.329   3.404
38870W        W 7088  36.890  12.703  13.460
38871W        W 7089  12.755  21.443  11.610
38872W        W 7090  16.725  25.557  14.720
38873W        W 7091  21.241   7.969  12.612
38874W        W 7092  36.212  27.265   4.771
38875W        W 7093   9.161   1.884   2.259
38876W        W 7094  31.563   1.221   4.995
38877W        W 7095  28.451   7.123   4.786
38878W        W 7096   1.379   4.980  14.020
38879W        W 7097   0.618  30.103  11.996
38880W        W 7098   8.345  14.297  14.724
38881W        W 7099  22.743  37.537  10.748
38882W        W 7100  32.152  26.473   4.400
38883W        W 7101  34.466   0.995  11.679
38884W        W 7102  22.131  35.512  13.776
38885W        W 7103  19.879  44.077  11.778
38886W        W 7104   5.303  42.370   2.315
38887W        W 7105  41.945  35.759   1.884
38888W        W 7106  44.028  28.052   0.127
38889W        W 7107  39.466  41.955  12.909
38890W        W 7108  33.898  26.503  13.920
38891W        W 7109  26.866  41.814   2.335
38892W        W 7110   1.241   3.326   3.353
38893W        W 7111  28.485   4.544   0.501
38894W        W 7112  42.018  30.666  11.585
38895W        W 7113  23.994  36.604  14.452
38896W        W 7114   5.507  30.067  12.585
38897W        W 7115  34.948   8.353  11.090
38898W        W 7116  14.035  26.661   4.144
38899W        W 7117  41.987   5.909   3.776
38900W        W 7118  16.871   4.866  12.451
38901W        W 7119  22.549  41.888   1.229
38902W        W 7120   9.134  15.095   2.944
38903W        W 7121   2.830  33.229  13.037
38904W        W 7122  10.994   2.104   0.418
38905W        W 7123  39.845  16.199   0.968
38906W        W 7124   6.024  21.485  14.833
38907W        W 7125  11.138  10.146  13.847
38908W        W 7126  32.720  19.078  12.431
38909W        W 7127   1.960   9.166  10.691
38910W        W 7128   0.588  24.810  14.881
38911W        W 7129   1.785  43.484   4.171
38912W        W 7130   2.137  12.854  14.810
38913W        W 7131  16.727  30.173  14.050
38914W        W 7132  43.263   9.642   4.719
38915W        W 7133  33.886   2.779  14.538
38916W        W 7134   5.701  10.753  12.121
38917W        W 7135  22.518   4.780   4.752
38918W        W 7136   5.836   3.379  10.440
38919W        W 7137   3.989  30.639   1.513
38920W        W 7138  25.509  44.223   2.932
38921W        W 7139  36.405  39.443  14.199
38922W        W 7140  35.311  19.752  10.711
38923W        W 7141  34.637  17.891  13.170
38924W        W 7142  42.695   4.242   1.515
38925W        W 7143  38.836  37.882   3.251
38926W        W 7144  22.049  26.816   1.471
38927W        W 7145  19.010  27.578  14.602
38928W        W 7146  18.289  40.708  12.425
38929W        W 7147  21.699  39.512  11.302
38930W        W 7148  10.207  22.021  10.635
38931W        W 7149  38.689   1.180   5.383
38932W        W 7150   1.433   4.553  13.689
38933W        W 7151  19.383  18.680  14.312
38934W        W 7152  39.044  43.826   3.079
38935W        W 7153  20.803  43.829   1.972
38936W        W 7154   4.668  11.045   2.707
38937W        W 7155  30.843  13.538   3.618
38938W        W 7156  32.586  19.556  14.137
38939W        W 7157  44.507  19.889  12.546
38940W        W 7158  13.525  41.493  11.808
38941W        W 7159  11.457  17.458  13.839
38942W        W 7160  17.587  27.713  13.495
38943W        W 7161   0.668  44.623   1.759
38944W        W 7162  44.974  34.669  11.974
38945W        W 7163  35.421  37.326  14.712
38946W        W 7164  24.524   2.374  11.363
38947W        W 7165  19.547  37.052   5.058
38948W        W 7166  37.179   3.855   4.913
38949W        W 7167  43.672   9.836  13.838
38950W        W 7168  40.057  30.852   1.262
38951W        W 7169  17.749   7.113  13.438
38952W        W 7170  41.774   5.754   4.217
38953W        W 7171  44.065  15.276   2.376
38954W        W 7172  12.331  23.471   0.062
38955W        W 7173  34.459   9.447   2.825
38956W        W 7174  20.190  44.551   3.622
38957W        W 7175  42.548  29.666   4.635
38958W        W 7176  24.114  23.063   0.545
38959W        W 7177  31.562  15.958   0.916
38960W        W 7178   7.842   3.438  12.031
38961W        W 7179  35.367  19.667  12.552
38962W        W 7180   5.122  13.374  10.733
38963W        W 7181  39.885  26.896   3.194
38964W        W 7182  40.414  17.563  14.142
38965W        W 7183  34.072  20.103  12.476
38966W        W 7184  20.263   0.893   0.235
38967W        W 7185   7.389  34.506  12.588
38968W        W 7186  43.459   0.826   3.146
38969W        W 7187  31.086  23.607   1.826
38970W        W 7188  33.279  32.124   1.948
38971W        W 7189  42.953  40.244  13.584
38972W        W 7190  32.206  19.116  12.427
38973W        W 7191   6.670  17.161  12.476
38974W        W 7192  31.868  42.011  12.852
38975W        W 7193  10.400  10.835  12.621
38976W        W 7194  12.646  42.088  14.551
38977W        W 7195  20.318   8.856  11.587
38978W        W 7196  23.675  29.924   3.368
38979W        W 7197  40.073  38.365   1.824
38980W        W 7198   6.356  16.130   0.781
38981W        W 7199  10.607   0.888  14.273
38982W        W 7200  26.506  10.877  13.569
38983W        W 7201   3.819  20.884  10.993
38984W        W 7202  34.106  16.966   3.288
38985W        W 7203   9.641   7.620   0.815
38986W        W 7204  18.291  35.421   3.524
38987W        W 7205  44.788  30.013   4.880
38988W        W 7206  27.105  31.229  11.121
38989W        W 7207  10.197   2.808  11.930
38990W        W 7208  28.344  44.635  11.965
38991W        W 7209  24.653  15.050   3.159
38992W        W 7210   9.356  10.304   1.426
38993W        W 7211  23.869   9.872  11.985
38994W        W 7212   1.263  14.794   0.312
38995W        W 7213  10.648  40.024   1.794
38996W        W 7214  14.253  40.357   3.233
38997W        W 7215  26.989  14.813  13.523
38998W        W 7216  39.583  28.591   2.177
38999W        W 7217   4.618  29.085  10.818
39000W        W 7218  22.569  32.581  11.672
39001W        W 7219  15.089  34.075  14.473
39002W        W 7220  31.995  15.269   2.437
39003W        W 7221  39.059   9.138   1.303
39004W        W 7222  41.475   5.336   3.306
39005W        W 7223   4.957  17.790   4.550
39006W        W 7224   7.961  38.490  13.121
39007W        W 7225  24.699  21.030   0.691
39008W        W 7226  40.995  16.291   3.448
39009W        W 7227  12.406  40.979  10.684
39010W        W 7228  44.239  19.589  12.881
39011W        W 7229   2.933  38.592  12.977
39012W        W 7230   4.449   8.679  14.971
39013W        W 7231  43.553  28.282  14.918
39014W        W 7232  35.584  18.127  14.363
39015W        W 7233  42.892  29.869  12.421
39016W        W 7234  10.014  40.310   1.566
39017W        W 7235  17.372   6.803  13.846
39018W        W 7236   3.699  24.021   4.876
39019W        W 7237  27.911   0.093   2.398
39020W        W 7238   5.353  33.223  10.434
39021W        W 7239  29.740  20.837  11.954
39022W        W 7240  19.473  26.347  12.570
39023W        W 7241  32.231   4.395   2.693
39024W        W 7242  18.005  26.776  13.339
39025W        W 7243  28.521   8.452  12.084
39026W        W 7244  27.988  14.526   4.112
39027W        W 7245  22.604   5.159  14.262
39028W        W 7246   7.214  18.986  14.419
39029W        W 7247  27.181  11.070  12.679
39030W        W 7248  32.964  26.770   3.809
39031W        W 7249   2.897   5.591  11.773
39032W        W 7250  32.838  25.140  11.995
39033W        W 7251  30.641  25.425   1.275
39034W        W 7252  11.327  12.157  11.191
39035W        W 7253  41.370  21.525   1.363
39036W        W 7254  28.069  38.558   0.291
39037W        W 7255   6.938   9.350  14.491
39038W        W 7256   0.438  11.638   0.022
39039W        W 7257   7.192  22.233   2.104
39040W        W 7258  23.092  32.890   5.394
39041W        W 7259  14.756   8.213  11.070
39042W        W 7260  35.103  21.571  13.348
39043W        W 7261   3.809  11.108   4.801
39044W        W 7262  29.880  36.224   4.282
39045W        W 7263  28.722  44.163  13.970
39046W        W 7264  16.379   5.744   1.712
39047W        W 7265  10.950  43.467  14.333
39048W        W 7266  10.089  33.339  14.539
39049W        W 7267  43.301  22.153   0.205
39050W        W 7268  40.026  28.431   1.987
39051W        W 7269  30.230  29.007  11.639
39052W        W 7270  20.262  29.275  13.021
39053W        W 7271  22.945  19.029   2.711
39054W        W 7272   7.461  39.344  12.396
39055W        W 7273  15.244  20.185   0.336
39056W        W 7274   1.455  41.408  10.445
39057W        W 7275   7.314  37.139  11.474
39058W        W 7276  10.659  20.992   4.026
39059W        W 7277  16.260   3.927   2.236
39060W        W 7278   1.766  26.009  14.212
39061W        W 7279  13.357  25.579  11.568
39062W        W 7280  35.585   7.331  11.826
39063W        W 7281   2.977   4.782   4.907
39064W        W 7282  24.777  27.972   0.228
39065W        W 7283   5.237   4.555   1.770
39066W        W 7284   5.961  10.881  11.296
39067W        W 7285  40.255  39.041  13.094
39068W        W 7286  24.582  42.244  14.915
39069W        W 7287  26.134  17.714  11.895
39070W        W 7288  21.849  28.340   2.810
39071W        W 7289  35.978  21.278   1.158
39072W        W 7290  23.520   2.269   1.863
39073W        W 7291   7.372  34.071  12.288
39074W        W 7292  42.367  23.475   2.187
39075W        W 7293  17.684  29.031   0.754
39076W        W 7294  27.968   3.751  10.579
39077W        W 7295  40.484  43.245   0.825
39078W        W 7296  14.231   8.801   1.173
39079W        W 7297  21.089  38.228  12.371
39080W        W 7298  29.393  26.517  13.739
39081W        W 7299   4.993   8.928   1.684
39082W        W 7300  40.418  11.849   4.922
39083W        W 7301  23.801   9.841  12.925
39084W        W 7302  18.343  44.784  13.813
39085W        W 7303  24.256  11.457  14.689
39086W        W 7304   3.746  30.991  12.907
39087W        W 7305  18.669  28.446  11.840
39088W        W 7306  23.387   3.672   0.813
39089W        W 7307   6.204  43.399  12.349
39090W        W 7308  26.729  25.513   3.208
39091W        W 7309  43.379  19.846   1.242
39092W        W 7310  19.210  42.510  13.619
39093W        W 7311   2.483  44.710   0.829
39094W        W 7312  10.463  39.129   1.260
39095W        W 7313  23.533   7.180  13.543
39096W        W 7314  14.429  40.491  10.780
39097W        W 7315  10.414  29.134   4.092
39098W        W 7316  43.947  14.050  14.966
39099W        W 7317  39.446  41.992   4.856
39100W        W 7318  42.225  23.571   0.697
39101W        W 7319  33.948   9.372   2.764
39102W        W 7320  29.146   6.440   2.415
39103W        W 7321  25.122  33.009   4.039
39104W        W 7322  19.788  43.958  12.295
39105W        W 7323  25.780   3.925   3.832
39106W        W 7324  19.106  42.399   2.279
39107W        W 7325   6.806  17.942  11.183
39108W        W 7326  21.188  27.448   2.286
39109W        W 7327  27.171  44.437   2.851
39110W        W 7328  41.525   1.949   4.102
39111W        W 7329  28.693   1.795   4.298
39112W        W 7330  20.067   2.766   3.347
39113W        W 7331   3.727  23.768  10.816
39114W        W 7332   7.582  28.033  13.264
39115W        W 7333  21.597  20.209   4.567
39116W        W 7334   0.197  27.806   1.825
39117W        W 7335   2.177  13.816   2.676
39118W        W 7336  22.278  15.203   1.230
39119W        W 7337  32.486  25.651   3.382
39120W        W 7338  22.335   3.360  14.268
39121W        W 7339   5.985  37.787  11.925
39122W        W 7340  14.616  29.701  12.128
39123W        W 7341  12.627  37.165  10.591
39124W        W 7342  21.044  10.098   4.710
39125W        W 7343  28.591  25.716  10.330
39126W        W 7344  37.588  13.420   2.785
39127W        W 7345  42.919  13.781   1.770
39128W        W 7346  20.354  34.353  12.463
39129W        W 7347  36.885  14.205  13.063
39130W        W 7348  14.235  23.044   1.715
39131W        W 7349  29.243  32.036  13.925
39132W        W 7350  26.393  36.966   1.691
39133W        W 7351   9.140  18.046  14.362
39134W        W 7352  32.771  20.753  12.537
39135W        W 7353  31.526  29.851  11.161
39136W        W 7354   9.063  21.947   0.051
39137W        W 7355   5.120  27.690  11.875
39138W        W 7356  13.384  18.661  14.408
39139W        W 7357   5.242  37.645   1.860
39140W        W 7358  20.478  31.412   4.958
39141W        W 7359  15.173  36.129   2.256
39142W        W 7360  36.639  13.796  14.883
39143W        W 7361  34.393  22.102  13.569
39144W        W 7362   7.088  12.431  12.965
39145W        W 7363  16.709   1.579   1.784
39146W        W 7364  36.188  28.405   0.452
39147W        W 7365  15.770  38.308   1.696
39148W        W 7366  26.376  24.442   1.987
39149W        W 7367  16.146  44.014  14.923
39150W        W 7368   5.336   4.393   3.816
39151W        W 7369  14.195  26.145   4.147
39152W        W 7370  38.851  29.135   1.789
39153W        W 7371  34.894  22.838   1.348
39154W        W 7372  32.697  43.749  12.402
39155W        W 7373  11.897  28.831  12.707
39156W        W 7374  32.201  30.656  11.731
39157W        W 7375  30.456   6.461  13.328
39158W        W 7376  26.278  22.115  11.589
39159W        W 7377   5.400  26.272   1.601
39160W        W 7378  44.377   0.489   1.818
39161W        W 7379  31.693  32.892   0.630
39162W        W 7380  33.366   7.792   0.529
39163W        W 7381  24.496  28.142   3.160
39164W        W 7382   5.241  12.810   0.877
39165W        W 7383  13.851  18.257   2.347
39166W        W 7384  17.762  20.799   2.668
39167W        W 7385  37.220  36.389  14.991
39168W        W 7386  10.188  13.565   2.129
39169W        W 7387   9.160  31.453  12.538
39170W        W 7388   9.247   3.927   3.566
39171W        W 7389  17.065  29.951  11.176
39172W        W 7390  15.643   6.210   3.608
39173W        W 7391   4.739  30.948  10.705
39174W        W 7392  25.652  30.679   5.161
39175W        W 7393  31.538  26.103   2.804
39176W        W 7394  17.750  33.934  12.648
39177W        W 7395  26.445  21.239   0.322
39178W        W 7396  22.439  23.016  13.339
39179W        W 7397  21.647  23.897  11.592
39180W        W 7398  17.354  25.166   5.042
39181W        W 7399   4.740  29.080   2.800
39182W        W 7400  11.373  24.159   4.594
39183W        W 7401  25.121  27.903   0.610
39184W        W 7402  43.909  27.448   3.947
39185W        W 7403  42.725   9.716   1.730
39186W        W 7404   7.890  18.046  11.059
39187W        W 7405  39.012   5.290   2.242
39188W        W 7406  38.539  18.349  11.220
39189W        W 7407  32.011   8.800  10.711
39190W        W 7408  16.082  16.064  13.068
39191W        W 7409   1.183  27.661   3.268
39192W        W 7410  24.661  29.416   1.307
39193W        W 7411  23.834  38.556  12.145
39194W        W 7412  25.062  18.754  14.072
39195W        W 7413  38.544  32.166   2.371
39196W        W 7414  30.579  38.334  14.395
39197W        W 7415  16.733   1.801   1.310
39198W        W 7416  11.293   2.233   3.212
39199W        W 7417  30.957   0.739   4.836
39200W        W 7418   3.188  12.860   3.774
39201W        W 7419  19.721  38.114   1.489
39202W        W 7420  29.400  15.387   2.091
39203W        W 7421  42.559  34.386   1.780
39204W        W 7422  13.143  37.343   3.135
39205W        W 7423  13.593  32.122  10.535
39206W        W 7424  20.064  14.460   0.385
39207W        W 7425  39.512  11.803  11.191
39208W        W 7426   2.831  37.553  10.262
39209W        W 7427  30.482   8.426  12.922
39210W        W 7428  41.975  19.852  12.625
39211W        W 7429   6.900  38.480  13.233
39212W        W 7430   3.491  18.625   3.621
39213W        W 7431  13.409   2.291   3.577
39214W        W 7432  17.068   6.739   4.554
39215W        W 7433  11.358  14.951   1.492
39216W        W 7434  38.159  10.264   4.940
39217W        W 7435   6.216  35.049   3.575
39218W        W 7436  21.674  36.102   2.659
39219W        W 7437  30.103  37.558  13.046
39220W        W 7438  30.873  43.354   3.204
39221W        W 7439  42.579  21.227   3.814
39222W        W 7440  11.648   3.448   3.176
39223W        W 7441  44.035   6.789   1.811
39224W        W 7442  41.565   3.022   0.856
39225W        W 7443  12.582  38.973  11.436
39226W        W 7444   2.512  28.050  10.500
39227W        W 7445   5.772   2.902   1.398
39228W        W 7446  11.332   3.661   0.809
39229W        W 7447  31.902  17.487   0.776
39230W        W 7448  40.928   2.118  14.133
39231W        W 7449  14.393  14.843   3.183
39232W        W 7450  26.349   0.429  10.503
39233W        W 7451  32.058  34.255   3.554
39234W        W 7452  26.232   0.324  12.905
39235W        W 7453  20.247   1.145  14.774
39236W        W 7454  36.008  24.038  14.576
39237W        W 7455   2.256  13.543  14.056
39238W        W 7456  25.920  11.109  12.081
39239W        W 7457   3.420  40.338  13.357
39240W        W 7458  20.231  23.145   2.268
39241W        W 7459  23.500  22.002   4.122
39242W        W 7460  31.860  34.230  13.027
39243W        W 7461  26.983  25.250   2.776
39244W        W 7462  35.418  26.658   1.732
39245W        W 7463  24.238  24.962   4.648
39246W        W 7464  41.098  21.066   4.678
39247W        W 7465  36.514  11.948  12.401
39248W        W 7466   1.828  37.552   0.915
39249W        W 7467  22.203  39.595  14.398
39250W        W 7468   4.459  20.317   1.760
39251W        W 7469  43.884  36.376  12.426
39252W        W 7470   6.121   3.730   2.306
39253W        W 7471  26.537   9.927   0.069
39254W        W 7472  14.001  30.946   3.312
39255W        W 7473  23.000  37.025   4.091
39256W        W 7474  30.597  23.596   2.368
39257W        W 7475  18.288  11.502   1.601
39258W        W 7476  42.939  17.323  13.678
39259W        W 7477  34.963  39.013  10.281
39260W        W 7478  17.807   8.842  13.580
39261W        W 7479  22.700  15.625  11.267
39262W        W 7480   6.418  38.544   2.792
39263W        W 7481   3.273  20.911   1.829
39264W        W 7482  40.508  19.129  10.615
39265W        W 7483  20.234  25.290   0.623
39266W        W 7484  40.508  16.327   1.797
39267W        W 7485  30.977  18.140   4.212
39268W        W 7486  29.387  21.218   2.250
39269W        W 7487   3.404  44.950   4.146
39270W        W 7488  23.290   2.845   4.098
39271W        W 7489  39.885  16.735  10.846
39272W        W 7490  13.880   4.304   0.359
39273W        W 7491   8.142  37.837   4.395
39274W        W 7492   7.948  42.273  11.123
39275W        W 7493  22.668   3.954  11.705
39276W        W 7494  41.284  23.256   4.187
39277W        W 7495   5.398  36.116  13.299
39278W        W 7496  37.414   7.787   2.947
39279W        W 7497   2.314  31.670  12.513
39280W        W 7498  24.649  41.195  12.133
39281W        W 7499  19.069  36.591  10.253
39282W        W 7500  28.940  37.671  12.129
39283W        W 7501  36.658   2.316   1.338
39284W        W 7502   9.841  27.152   2.888
39285W        W 7503  42.567  39.988  11.513
39286W        W 7504  22.462  44.774  14.333
39287W        W 7505  41.935   8.737   3.348
39288W        W 7506   5.326  32.621   1.843
39289W        W 7507  26.571  23.771   4.509
39290W        W 7508  21.086  33.461   3.768
39291W        W 7509  40.926  34.600   2.665
39292W        W 7510  32.875  43.982  13.032
39293W        W 7511  39.753  43.337  11.105
39294W        W 7512   7.905  38.981   0.232
39295W        W 7513  21.133  19.527   4.484
39296W        W 7514  12.332  29.451   3.726
39297W        W 7515  18.327  30.925   0.808
39298W        W 7516  12.463  39.872   0.491
39299W        W 7517   9.743  12.849  10.724
39300W        W 7518  34.464  21.538  11.188
39301W        W 7519   8.060  21.483  10.750
39302W        W 7520  33.863  22.090   3.191
39303W        W 7521  28.557   3.767  14.292
39304W        W 7522   9.476  25.460   0.991
39305W        W 7523  10.827  30.723   4.033
39306W        W 7524  11.616   5.125   3.820
39307W        W 7525  12.218   9.239  11.166
39308W        W 7526  39.562  33.554   3.171
39309W        W 7527  31.100  35.881  10.255
39310W        W 7528  12.671   9.605   2.300
39311W        W 7529  41.808  30.912   2.002
39312W        W 7530   6.034  19.061  12.004
39313W        W 7531   8.801  29.636   2.828
39314W        W 7532  44.997  23.156  14.447
39315W        W 7533  27.381   6.832   2.468
39316W        W 7534  18.146  37.596  12.004
39317W        W 7535  44.450  16.804  12.407
39318W        W 7536  26.392  27.027   2.059
39319W        W 7537   3.233   9.720  13.713
39320W        W 7538  16.778  43.294   1.854
39321W        W 7539  17.771  16.426  10.717
39322W        W 7540  14.550   1.762  13.035
39323W        W 7541  24.620   6.914   4.252
39324W        W 7542  35.929  30.658   0.581
39325W        W 7543  41.405  16.183   0.017
39326W        W 7544  21.297  12.571   4.225
39327W        W 7545  43.737   9.656   1.731
39328W        W 7546   7.819  11.425   2.152
39329W        W 7547   2.357  37.815  10.534
39330W        W 7548  12.889  20.720  10.756
39331W        W 7549   9.999  21.686   0.384
39332W        W 7550  25.729   8.380   1.324
39333W        W 7551   4.843  35.370   0.694
39334W        W 7552  25.161  27.315  12.528
39335W        W 7553  36.185   9.531  12.558
39336W        W 7554  15.738  42.775  10.403
39337W        W 7555  16.012  35.889   4.616
39338W        W 7556  37.393  44.406   0.591
39339W        W 7557  20.350   7.968   4.458
39340W        W 7558  18.978   4.722  12.789
39341W        W 7559  27.341   7.473  13.518
39342W        W 7560  38.570  34.655   4.152
39343W        W 7561   6.154  39.904  13.415
39344W        W 7562  35.969  16.730  13.489
39345W        W 7563  28.031   5.877   2.454
39346W        W 7564  13.723   7.128   2.405
39347W        W 7565  14.744  38.954   4.377
39348W        W 7566  44.544  21.980   3.655
39349W        W 7567  35.637   9.406   3.757
39350W        W 7568  41.885   9.292   4.632
39351W        W 7569  11.567  39.164   1.216
39352W        W 7570  25.123  39.417  11.794
39353W        W 7571  27.995  13.766   0.413
39354W        W 7572   3.834  14.805  14.509
39355W        W 7573   0.493  16.291  13.027
39356W        W 7574  22.372  41.499   2.446
39357W        W 7575  30.854  14.765   2.412
39358W        W 7576  12.491  18.281   3.588
39359W        W 7577  43.798  38.907   1.017
39360W        W 7578  22.279  17.497  14.914
39361W        W 7579  14.578  20.195  13.989
39362W        W 7580   6.724   1.947  12.739
39363W        W 7581  30.817  32.510  14.453
39364W        W 7582  18.136  10.106   1.186
39365W        W 7583  31.671  15.813  13.910
39366W        W 7584   3.771   7.544  14.737
39367W        W 7585  13.321  44.125   2.419
39368W        W 7586   6.135  40.330   9.479
39369W        W 7587  10.483  35.079   4.411
39370W        W 7588  35.107  41.512   4.783
39371W        W 7589  37.893  14.934  11.537
39372W        W 7590  40.372   0.530   3.741
39373W        W 7591   3.303  32.944  14.090
39374W        W 7592   1.154  41.904  11.502
39375W        W 7593  25.274  26.162   3.104
39376W        W 7594  12.408  20.314   3.626
39377W        W 7595  13.062  30.153  11.657
39378W        W 7596   2.976  21.149  13.089
39379W        W 7597  29.741  10.382   3.177
39380W        W 7598  23.062   7.410  11.556
39381W        W 7599  35.545  44.216  11.996
39382W        W 7600  44.082  44.341  12.142
39383W        W 7601  14.054  26.451  11.217
39384W        W 7602  15.732  17.243   0.251
39385W        W 7603  40.847  42.872   3.604
39386W        W 7604  21.049   8.744   0.958
39387W        W 7605  33.144  44.891  11.222
39388W        W 7606  28.057   0.567  13.571
39389W        W 7607  36.455  44.739  10.445
39390W        W 7608  43.929   8.416   2.876
39391W        W 7609  28.116  11.601   3.134
39392W        W 7610  36.769  18.743   1.143
39393W        W 7611   2.296  31.772  13.451
39394W        W 7612  17.382  16.765   0.018
39395W        W 7613   6.422  43.476   1.415
39396W        W 7614  10.640  14.028  11.519
39397W        W 7615  32.095  44.278  14.079
39398W        W 7616  38.322  18.051  12.673
39399W        W 7617  43.951   6.744   4.673
39400W        W 7618   5.049   5.675  13.529
39401W        W 7619   8.703  24.988   0.374
39402W        W 7620  15.015  16.164  11.050
39403W        W 7621  16.183  44.451   3.872
39404W        W 7622  26.133   7.160  11.903
39405W        W 7623  32.143  21.975   4.959
39406W        W 7624  41.932  43.029   2.822
39407W        W 7625  30.179  29.919  11.604
39408W        W 7626  34.724  36.210  10.481
39409W        W 7627  13.293   5.858  12.598
39410W        W 7628  31.645  14.594  13.330
39411W        W 7629   5.119  17.636   3.752
39412W        W 7630   7.481  25.717   4.647
39413W        W 7631   4.755  40.391  10.443
39414W        W 7632  25.534  15.780   3.891
39415W        W 7633  34.163   4.680   0.021
39416W        W 7634  42.991  11.026   3.870
39417W        W 7635  36.511   3.214  14.031
39418W        W 7636  15.194  28.700  11.601
39419W        W 7637  39.362  33.032  14.766
39420W        W 7638  17.193  41.955   3.983
39421W        W 7639  19.602  44.386  12.607
39422W        W 7640  22.524  30.985  14.264
39423W        W 7641  22.601  41.444   4.763
39424W        W 7642  37.598  30.552   2.372
39425W        W 7643  25.049  11.637   1.479
39426W        W 7644  42.006  35.587   1.027
39427W        W 7645   2.017  37.977   1.160
39428W        W 7646   4.769   1.696   0.258
39429W        W 7647  39.265  36.234   4.389
39430W        W 7648  34.151  16.057  10.950
39431W        W 7649  18.917  25.491  11.180
39432W        W 7650  34.417  19.230  14.478
39433W        W 7651   9.192  28.546   0.331
39434W        W 7652  29.959  24.150  11.362
39435W        W 7653  17.019  23.101  10.258
39436W        W 7654  17.125  14.351  14.747
39437W        W 7655  35.082  20.491   3.927
39438W        W 7656   2.713   3.358   4.131
39439W        W 7657   8.605  37.136  12.118
39440W        W 7658  34.204   2.289  11.930
39441W        W 7659  23.949  32.418   1.950
39442W        W 7660  40.874  36.302   3.651
39443W        W 7661  11.845  40.611   2.924
39444W        W 7662  39.862  30.023   0.867
39445W        W 7663  11.240  40.294   0.101
39446W        W 7664  32.953  38.887  14.599
39447W        W 7665  19.095   5.652   4.597
39448W        W 7666  23.956  37.823  13.944
39449W        W 7667  31.649  23.464   3.152
39450W        W 7668  12.358  19.932   4.415
39451W        W 7669  13.126   3.454  14.763
39452W        W 7670  19.419  33.573  10.719
39453W        W 7671  38.931  43.356   2.680
39454W        W 7672  43.913  17.334   3.133
39455W        W 7673   2.115  27.606  11.580
39456W        W 7674  27.122  16.442   1.281
39457W        W 7675  30.541   1.881  11.568
39458W        W 7676  25.657  38.046   0.891
39459W        W 7677  10.774   1.389  13.382
39460W        W 7678   5.803   8.908  13.653
39461W        W 7679  20.079  22.941   4.544
39462W        W 7680  39.407   6.320   2.613
39463W        W 7681  30.444   2.951   3.650
39464W        W 7682   3.642  34.489  13.596
39465W        W 7683  15.169  30.453  13.570
39466W        W 7684  35.824  30.105   4.865
39467W        W 7685  19.156  34.142   2.230
39468W        W 7686  20.070  38.530   2.364
39469W        W 7687  34.964  29.428  13.806
39470W        W 7688  43.345  39.171   0.282
39471W        W 7689  23.042  42.352   1.087
39472W        W 7690  22.225  23.978   2.212
39473W        W 7691  10.935  13.713  13.309
39474W        W 7692  35.808  42.263   2.266
39475W        W 7693  28.288  21.588  11.129
39476W        W 7694  13.159  21.309  13.746
39477W        W 7695   0.927  41.449   5.113
39478W        W 7696   8.536  10.659   0.309
39479W        W 7697  21.196  28.113  13.884
39480W        W 7698  11.660  21.751   3.779
39481W        W 7699  22.783  20.304   0.856
39482W        W 7700  38.568   7.140   1.305
39483W        W 7701  43.786  44.841   2.576
39484W        W 7702  34.291  11.243   4.042
39485W        W 7703   0.263  23.172   3.435
39486W        W 7704  19.331  25.409  12.938
39487W        W 7705  17.099  15.555   2.875
39488W        W 7706  12.631  21.243  14.020
39489W        W 7707   2.474  31.143   0.387
39490W        W 7708  18.297   4.438   4.510
39491W        W 7709   6.446  36.307   3.954
39492W        W 7710  15.496  32.553   3.630
39493W        W 7711  42.898   4.858  13.369
39494W        W 7712  21.160  13.781   4.289
39495W        W 7713  42.368  17.100   2.950
39496W        W 7714   9.812  14.286  13.321
39497W        W 7715   7.868  21.720   4.286
39498W        W 7716  18.009   4.242   1.648
39499W        W 7717  44.270  40.117  10.175
39500W        W 7718   1.125   1.930   0.139
39501W        W 7719  12.819   1.422  11.554
39502W        W 7720   0.710  41.836   3.506
39503W        W 7721   3.851  10.825  11.374
39504W        W 7722   3.879  17.654   3.049
39505W        W 7723  32.061  10.826   2.759
39506W        W 7724   5.636  32.058   4.026
39507W        W 7725  44.791  42.036  11.651
39508W        W 7726  31.619   9.383   2.625
39509W        W 7727  11.829  15.706   3.432
39510W        W 7728  41.310  32.795   0.695
39511W        W 7729   1.435  24.399   4.391
39512W        W 7730  39.426  41.987  11.564
39513W        W 7731  22.789   8.892   1.834
39514W        W 7732  24.852  24.507  12.451
39515W        W 7733  28.800  29.533  11.686
39516W        W 7734  21.079  37.504  11.884
39517W        W 7735  39.486  31.979   2.332
39518W        W 7736  23.687  17.609   4.549
39519W        W 7737  15.832  40.548   2.718
39520W        W 7738  19.147  41.340   4.500
39521W        W 7739  24.697  10.110   0.734
39522W        W 7740  26.023  30.467  14.245
39523W        W 7741  19.053  18.778  11.450
39524W        W 7742  30.841  27.664   9.846
39525W        W 7743  24.909  23.195   3.233
39526W        W 7744  24.597   8.869  13.656
39527W        W 7745  13.706   9.860  11.595
39528W        W 7746   6.190   4.291   4.196
39529W        W 7747   2.024   4.846   2.475
39530W        W 7748  23.221  18.790  14.680
39531W        W 7749  25.765  35.417  13.026
39532W        W 7750   9.680   0.212  11.182
39533W        W 7751   1.063   4.727   0.901
39534W        W 7752  22.554   1.236   1.776
39535W        W 7753   8.613  19.533  11.196
39536W        W 7754  12.224  13.732  10.706
39537W        W 7755  40.383  23.245   2.310
39538W        W 7756  14.848   2.205   1.280
39539W        W 7757  39.500   3.733  11.614
39540W        W 7758   2.099  24.566   2.716
39541W        W 7759  12.340  43.689  13.808
39542W        W 7760  19.984  14.899  14.092
39543W        W 7761  19.273   0.054   0.599
39544W        W 7762  12.209  41.306  13.070
39545W        W 7763   7.296  12.320  13.801
39546W        W 7764   6.919  12.136   3.204
39547W        W 7765   5.164   2.593  13.432
39548W        W 7766  22.653  43.781   4.109
39549W        W 7767  13.628  20.714   0.812
39550W        W 7768   8.654  15.186  10.727
39551W        W 7769  20.383  39.522  13.261
39552W        W 7770  34.743  18.334  11.123
39553W        W 7771  44.937  25.653   0.207
39554W        W 7772  33.994   5.840  14.056
39555W        W 7773  35.850  41.693  13.791
39556W        W 7774  42.060  28.401   4.578
39557W        W 7775  38.512  22.140   4.006
39558W        W 7776   4.963  26.530   2.900
39559W        W 7777  40.548  13.721  13.994
39560W        W 7778  39.410  21.704   3.690
39561W        W 7779   6.744   6.798   2.198
39562W        W 7780  32.587  21.791  10.897
39563W        W 7781  17.522  44.678  11.685
39564W        W 7782   5.442   4.344   2.803
39565W        W 7783  21.153  39.800   2.653
39566W        W 7784  11.149  37.883  12.604
39567W        W 7785  18.076  12.682  11.483
39568W        W 7786  12.821  26.611   3.247
39569W        W 7787  26.550  25.417  10.245
39570W        W 7788  18.279  31.372  14.029
39571W        W 7789  22.366   7.015   0.886
39572W        W 7790   7.954  40.865   5.335
39573W        W 7791  11.213  10.026  14.710
39574W        W 7792   9.292  33.919  11.074
39575W        W 7793  19.577  26.252  11.476
39576W        W 7794  40.770  44.514  10.801
39577W        W 7795  22.956  22.213  13.053
39578W        W 7796  23.159  12.603  10.698
39579W        W 7797  15.216   8.328   2.302
39580W        W 7798  23.498  30.435   2.078
39581W        W 7799  14.626  34.889   1.366
39582W        W 7800  24.921  16.141   0.458
39583W        W 7801   2.525  11.383   0.871
39584W        W 7802   2.554  12.636  10.176
39585W        W 7803  32.308  17.608   2.413
39586W        W 7804  20.827  37.912   1.909
39587W        W 7805  20.219  16.835  12.592
39588W        W 7806  24.327  40.088   4.050
39589W        W 7807  16.395  16.668  12.013
39590W        W 7808  13.217  32.347   4.541
39591W        W 7809   1.994  44.358   4.210
39592W        W 7810   3.962  43.699  13.306
39593W        W 7811   7.678  35.074  14.892
39594W        W 7812   5.351  42.051   1.634
39595W        W 7813  17.712  12.582   9.858
39596W        W 7814  35.768  21.568  12.104
39597W        W 7815  19.377   5.466  14.430
39598W        W 7816   3.398  18.819   1.423
39599W        W 7817   5.768   7.342  14.639
39600W        W 7818  23.006   7.878  14.269
39601W        W 7819  24.984   0.046   1.579
39602W        W 7820  29.723  30.479   4.546
39603W        W 7821  28.732  41.306   0.527
39604W        W 7822  39.825   2.532   3.074
39605W        W 7823  37.924  34.421   2.829
39606W        W 7824  21.550  32.998  10.119
39607W        W 7825  30.427   6.321  11.927
39608W        W 7826  26.579  14.587  10.255
39609W        W 7827  26.486  21.064   4.492
39610W        W 7828  23.807  41.120  11.506
39611W        W 7829   3.048  43.333   4.803
39612W        W 7830  17.053   0.721   9.894
39613W        W 7831  22.567  21.689  12.448
39614W        W 7832   0.468   0.865   0.254
39615W        W 7833  27.058  15.747   3.169
39616W        W 7834  15.554  28.553  11.921
39617W        W 7835   3.737  15.106   4.609
39618W        W 7836  43.731   8.153   1.323
39619W        W 7837   6.347  23.163   2.404
39620W        W 7838  17.899  13.037  10.259
39621W        W 7839  34.097   1.183   4.215
39622W        W 7840  42.770  41.816   4.681
39623W        W 7841  22.948  35.346  10.242
39624W        W 7842  29.451  17.263   2.666
39625W        W 7843  11.822  11.731   4.083
39626W        W 7844  11.657  13.140  10.483
39627W        W 7845  19.808  22.034  14.748
39628W        W 7846  17.687   6.860  11.633
39629W        W 7847   4.497  20.062  14.289
39630W        W 7848  24.218   2.824  14.958
39631W        W 7849   6.369  31.619   4.449
39632W        W 7850  25.477  24.906  13.527
39633W        W 7851  36.323   5.339  11.731
39634W        W 7852  21.027  26.083   2.347
39635W        W 7853  20.954  37.061  14.371
39636W        W 7854  24.439  44.013  14.341
39637W        W 7855  30.156  24.927  14.985
39638W        W 7856  40.534  18.564   4.174
39639W        W 7857  24.199  43.764  12.982
39640W        W 7858   1.701  38.250  12.428
39641W        W 7859   4.295  24.129  13.051
39642W        W 7860  33.927   3.014   1.925
39643W        W 7861  16.536  37.955   2.713
39644W        W 7862  27.998  18.704   3.106
39645W        W 7863  11.838   0.317   0.306
39646W        W 7864  12.043  38.953   1.192
39647W        W 7865  32.281  10.382  11.120
39648W        W 7866  43.946  11.557   3.694
39649W        W 7867  26.252   0.826  12.906
39650W        W 7868  34.060  13.885   1.335
39651W        W 7869  21.979   6.610   4.163
39652W        W 7870   3.651  37.975  11.175
39653W        W 7871  43.999  42.505   1.285
39654W        W 7872  34.419  10.091   0.333
39655W        W 7873  21.216  38.832   0.858
39656W        W 7874  44.731  25.094   1.789
39657W        W 7875  30.903  12.767  12.006
39658W        W 7876  17.485   7.315  14.836
39659W        W 7877  21.070  35.454   3.204
39660W        W 7878   3.932  29.443   4.657
39661W        W 7879  28.635   9.862   4.370
39662W        W 7880  18.702  43.858   3.719
39663W        W 7881  42.854  31.882   4.195
39664W        W 7882  42.964  10.231   1.839
39665W        W 7883   8.953   2.152   3.502
39666W        W 7884  18.566  13.338   1.931
39667W        W 7885  44.576  12.083   4.725
39668W        W 7886  22.103  26.035   0.859
39669W        W 7887  44.349  36.960   3.431
39670W        W 7888   8.129   6.504  14.654
39671W        W 7889  14.693  16.157   3.251
39672W        W 7890  18.774  28.477   4.785
39673W        W 7891  13.257   8.734   4.676
39674W        W 7892  12.294  37.001   4.177
39675W        W 7893  24.150  18.712   5.013
39676W        W 7894  41.316  41.109  14.284
39677W        W 7895  14.848  16.264  10.557
39678W        W 7896  43.311  13.977  10.712
39679W        W 7897  28.564  22.217   4.587
39680W        W 7898  12.618  42.792   4.179
39681W        W 7899  34.382  23.277  14.909
39682W        W 7900  36.526  10.885  13.368
39683W        W 7901  25.253  25.272   3.573
39684W        W 7902   9.968  15.450   2.672
39685W        W 7903  40.032  40.590  14.882
39686W        W 7904  30.934   0.243  13.380
39687W        W 7905   6.841   4.229   3.691
39688W        W 7906  39.995  31.372  12.859
39689W        W 7907  37.024  38.981  14.015
39690W        W 7908  42.651  13.177  11.018
39691W        W 7909  21.549  33.854  12.872
39692W        W 7910  36.406   2.273  11.158
39693W        W 7911  41.749  24.018  14.068
39694W        W 7912  27.058  36.326   0.714
39695W        W 7913   2.746  15.596   3.835
39696W        W 7914  40.403  13.918   0.195
39697W        W 7915  41.779  39.508   3.097
39698W        W 7916   3.737  44.577  10.712
39699W        W 7917   5.002  41.256  11.483
39700W        W 7918  27.497  13.740  12.514
39701W        W 7919  35.812  40.792  11.193
39702W        W 7920  23.476  26.297   1.792
39703W        W 7921   8.790  25.899   1.746
39704W        W 7922  22.250   3.533   4.559
39705W        W 7923  26.694  16.174   1.212
39706W        W 7924  26.680  39.239   4.203
39707W        W 7925   4.150  29.001  10.638
39708W        W 7926  13.981  28.261   4.280
39709W        W 7927  14.826  44.053  14.921
39710W        W 7928  22.956   4.265  13.811
39711W        W 7929   4.193  27.193  13.521
39712W        W 7930   2.021   4.244  12.043
39713W        W 7931  42.350  14.297  14.018
39714W        W 7932   1.117  42.844   4.633
39715W        W 7933  27.042  15.786  13.398
39716W        W 7934  37.502  28.646  12.099
39717W        W 7935  43.437  10.627  14.312
39718W        W 7936  13.684   7.374   4.266
39719W        W 7937   5.436  37.618   4.542
39720W        W 7938  24.310  22.006   2.801
39721W        W 7939  12.245  32.374  10.560
39722W        W 7940  42.016  41.463   1.220
39723W        W 7941  15.457  36.040   3.693
39724W        W 7942  31.393  36.391  11.814
39725W        W 7943  14.654   1.514  12.584
39726W        W 7944  22.655  24.621  11.628
39727W        W 7945   9.408  11.631   3.631
39728W        W 7946  29.925  17.860   3.239
39729W        W 7947  20.609  11.189   4.169
39730W        W 7948  24.016  10.482  13.749
39731W        W 7949  18.139  23.276   1.868
39732W        W 7950  15.232   2.165   5.059
39733W        W 7951   7.199  14.847  13.977
39734W        W 7952  30.121  28.163  14.582
39735W        W 7953  17.859  35.311  12.077
39736W        W 7954  23.739  42.022  10.658
39737W        W 7955  12.627  43.511   2.746
39738W        W 7956  15.381   7.999   4.108
39739W        W 7957  30.986  32.074   2.728
39740W        W 7958   5.274  21.385  10.109
39741W        W 7959  36.311   1.778   0.533
39742W        W 7960  21.524  25.483   0.225
39743W        W 7961  39.059  27.207  12.108
39744W        W 7962  34.600  20.148  12.439
39745W        W 7963  19.928   9.167  11.743
39746W        W 7964  27.705  30.218   0.166
39747W        W 7965   3.567   9.144   1.073
39748W        W 7966  13.845  34.415   0.925
39749W        W 7967  40.739  26.991  11.419
39750W        W 7968  18.131  28.345  12.042
39751W        W 7969  22.752  11.154  12.527
39752W        W 7970  35.798  33.133   0.416
39753W        W 7971  44.526  32.026   3.677
39754W        W 7972   3.658  39.444  14.944
39755W        W 7973  24.999  18.318  14.365
39756W        W 7974  30.332  13.348  12.457
39757W        W 7975  17.866  24.515   4.160
39758W        W 7976  21.619  10.173   3.223
39759W        W 7977  34.167  43.816   4.021
39760W        W 7978  24.524   2.229  10.380
39761W        W 7979   3.958  39.393  13.163
39762W        W 7980  40.319  18.031   1.541
39763W        W 7981  19.695  35.053   4.295
39764W        W 7982   2.781   8.908   0.893
39765W        W 7983  39.865  13.110  14.591
39766W        W 7984  18.744  17.118   2.228
39767W        W 7985   0.298   1.344  13.430
39768W        W 7986  26.223  13.250   0.791
39769W        W 7987   7.253   1.736   1.904
39770W        W 7988  40.479  33.599  13.019
39771W        W 7989  15.177  40.419   3.261
39772W        W 7990  42.054  24.066   0.022
39773W        W 7991  12.143   6.088  13.856
39774W        W 7992  37.053   8.889   0.755
39775W        W 7993  14.377   3.248   0.425
39776W        W 7994  34.816  17.821   0.730
39777W        W 7995  10.372  44.356  12.917
39778W        W 7996  39.067  38.484  12.536
39779W        W 7997  29.709   2.236  11.672
39780W        W 7998  37.253  32.406  12.501
39781W        W 7999   4.161  22.153  10.940
39782W        W 8000  40.548  18.697  10.918
39783W        W 8001   2.304  22.264   2.377
39784W        W 8002  19.469  29.904  11.795
39785W        W 8003  34.548  31.422  11.032
39786W        W 8004  33.847  44.452  11.034
39787W        W 8005  22.923   6.127  13.404
39788W        W 8006  19.236  11.942   4.361
39789W        W 8007  10.817   6.576  13.897
39790W        W 8008  36.618  19.706   5.000
39791W        W 8009  21.984  38.926  12.403
39792W        W 8010  31.937   2.916  12.015
39793W        W 8011  19.576  39.814  11.690
39794W        W 8012  24.974  21.463   0.274
39795W        W 8013  42.484  10.259  10.456
39796W        W 8014  34.489  18.939  11.985
39797W        W 8015  16.129  42.974   0.761
39798W        W 8016  17.535  12.218  10.658
39799W        W 8017  29.906  27.004  12.942
39800W        W 8018  28.140  40.591  10.242
39801W        W 8019  42.790   8.021   0.639
39802W        W 8020  13.206   6.587   1.640
39803W        W 8021   3.767  27.740  14.372
39804W        W 8022  39.116  41.392  11.494
39805W        W 8023  37.375  15.854   4.321
39806W        W 8024  19.666  22.196   4.791
39807W        W 8025  29.145  11.216  13.806
39808W        W 8026  44.713  32.179   2.205
39809W        W 8027  29.938  10.431   1.763
39810W        W 8028  15.125  20.186  13.474
39811W        W 8029  28.930  10.724   1.428
39812W        W 8030  39.438  19.195  10.745
39813W        W 8031  38.060  40.535   3.707
39814W        W 8032  11.651  22.529   2.785
39815W        W 8033   5.312  25.106  13.488
39816W        W 8034  27.964  31.166  13.382
39817W        W 8035  44.626  23.937   0.985
39818W        W 8036  19.794  25.471   0.848
39819W        W 8037  44.571  27.850  11.150
39820W        W 8038  15.127  19.706   3.208
39821W        W 8039  22.807  34.167   0.436
39822W        W 8040  16.575  35.633   4.232
39823W        W 8041  25.610  20.202   0.602
39824W        W 8042   6.770  40.444   2.807
39825W        W 8043  33.734  29.429   2.867
39826W        W 8044  32.136  13.253  12.590
39827W        W 8045  17.113   9.806   0.769
39828W        W 8046  22.000  36.878  11.142
39829W        W 8047  29.836  25.702  13.447
39830W        W 8048  44.071   3.875  14.300
39831W        W 8049  15.621  12.161  14.950
39832W        W 8050  34.566  36.101   4.638
39833W        W 8051   7.001  33.105  14.327
39834W        W 8052  18.601  10.610  10.765
39835W        W 8053  20.822  22.261  14.027
39836W        W 8054  43.028  11.334   1.647
39837W        W 8055  17.097  30.555   4.497
39838W        W 8056  28.940  33.380   3.294
39839W        W 8057  15.691  42.052   0.036
39840W        W 8058  30.478  28.622  10.565
39841W        W 8059  13.273  39.312  13.064
39842W        W 8060  41.247   1.949   1.848
39843W        W 8061   7.393  17.052   2.330
39844W        W 8062  35.103  20.656  12.901
39845W        W 8063  41.261  43.922  12.435
39846W        W 8064  14.307  23.306  14.382
39847W        W 8065  23.663  18.789  12.977
39848W        W 8066  36.859  28.026   4.015
39849W        W 8067  32.302  30.855   5.034
39850W        W 8068  41.955  14.766   4.513
39851W        W 8069  27.381   2.992  10.692
39852W        W 8070  37.599   2.044  11.574
39853W        W 8071   3.037  10.781  13.427
39854W        W 8072   0.873  31.641   1.498
39855W        W 8073   3.441   1.001  14.773
39856W        W 8074  43.054   9.140  11.135
39857W        W 8075  28.011  28.219  11.124
39858W        W 8076  41.997  40.219   4.144
39859W        W 8077   3.465  32.871   0.820
39860W        W 8078  28.325  15.282  13.141
39861W        W 8079  22.528  22.464  11.965
39862W        W 8080  33.863  11.121  12.630
39863W        W 8081   0.322  17.728   0.825
39864W        W 8082  32.146  18.039   0.177
39865W        W 8083  14.144  31.648  11.544
39866W        W 8084  41.261  15.638   4.103
39867W        W 8085  34.376  17.676  10.893
39868W        W 8086   1.312  41.495   0.327
39869W        W 8087  31.933  41.485  12.870
39870W        W 8088  12.343  39.815  12.495
39871W        W 8089  26.987  10.695   3.013
39872W        W 8090  29.082  20.351   1.803
39873W        W 8091  38.138  37.518   4.329
39874W        W 8092  33.028  33.435  13.934
39875W        W 8093  26.313  41.529   3.618
39876W        W 8094  13.791  22.172   4.207
39877W        W 8095  43.229  42.995  14.205
39878W        W 8096  23.740  26.378  12.407
39879W        W 8097  24.088  41.771  14.246
39880W        W 8098  15.671  38.832   4.524
39881W        W 8099  41.644   4.723   2.656
39882W        W 8100  13.994  29.884   1.872
39883W        W 8101  34.042   8.850   0.878
39884W        W 8102   1.451   6.413   3.127
39885W        W 8103  33.631  41.234  13.610
39886W        W 8104  40.760  36.455  13.395
39887W        W 8105  20.202  37.587   3.352
39888W        W 8106  16.134  30.667   4.601
39889W        W 8107  34.607  40.427   2.857
39890W        W 8108  11.427  28.771  14.281
39891W        W 8109  34.469  39.954  14.907
39892W        W 8110  14.607   8.766  11.735
39893W        W 8111  10.321  10.976  13.907
39894W        W 8112  33.673  27.146   0.898
39895W        W 8113   3.823  11.948   1.236
39896W        W 8114   6.371  43.762   3.125
39897W        W 8115  32.860  24.508   0.351
39898W        W 8116   9.366  12.134  12.615
39899W        W 8117   5.175   3.823  14.794
39900W        W 8118  35.420  38.616   1.893
39901W        W 8119  12.108   8.844  14.048
39902W        W 8120  23.253  37.514  10.805
39903W        W 8121  19.014  42.505  14.117
39904W        W 8122  31.515  39.631  12.624
39905W        W 8123  15.056  44.039  14.153
39906W        W 8124  21.519  44.909  13.082
39907W        W 8125  40.683   8.537  12.637
39908W        W 8126  23.720  16.601   0.378
39909W        W 8127  20.844   2.010   2.321
39910W        W 8128  11.594   8.759   5.061
39911W        W 8129   8.694  36.016  10.599
39912W        W 8130  27.194  16.737  13.253
39913W        W 8131   9.244  19.236   0.298
39914W        W 8132  10.468   3.347   2.329
39915W        W 8133  12.774  22.747  14.252
39916W        W 8134  10.920   1.363   3.777
39917W        W 8135  41.802  41.972   3.737
39918W        W 8136   9.064   9.768   0.326
39919W        W 8137  32.076  18.399   5.179
39920W        W 8138   5.829  25.658   2.918
39921W        W 8139  14.770  11.389  12.093
39922W        W 8140  30.507   5.486   1.810
39923W        W 8141  39.718  15.582  14.744
39924W        W 8142  24.616  12.110  11.340
39925W        W 8143   7.171  34.603   3.833
39926W        W 8144  26.680   6.810   4.651
39927W        W 8145  30.832  25.223   3.736
39928W        W 8146  37.227   5.353   9.743
39929W        W 8147   1.279  20.581   2.872
39930W        W 8148  20.506   3.886   3.268
39931W        W 8149  19.537  14.811  12.432
39932W        W 8150  20.849  37.545   2.332
39933W        W 8151  17.635   3.715   0.991
39934W        W 8152  20.280  40.870   2.358
39935W        W 8153   1.177   3.195  12.077
39936W        W 8154  21.971   4.386   1.689
39937W        W 8155  21.332  43.111  13.326
39938W        W 8156  15.047  16.706   2.726
39939W        W 8157  21.525  14.902  11.967
39940W        W 8158   7.876   7.215   0.351
39941W        W 8159   3.943  16.096   3.727
39942W        W 8160  15.640  19.055   1.893
39943W        W 8161  22.473  40.326   2.724
39944W        W 8162  40.988   2.873  10.724
39945W        W 8163  38.317  36.944  11.105
39946W        W 8164  30.039  36.293   2.285
39947W        W 8165  13.639  24.473   0.321
39948W        W 8166  16.219  30.130  14.316
39949W        W 8167  31.792   6.391   4.094
39950W        W 8168   9.782  28.599  13.556
39951W        W 8169  40.061  39.756  14.494
39952W        W 8170  35.860  14.170  11.642
39953W        W 8171  17.201   1.008   0.887
39954W        W 8172  14.221  16.090   3.813
39955W        W 8173  21.111   2.854  12.387
39956W        W 8174   9.200  11.186   0.463
39957W        W 8175  15.097  33.128  11.573
39958W        W 8176  20.107  26.062  10.945
39959W        W 8177  12.370   3.456   2.712
39960W        W 8178  36.901  21.795   2.406
39961W        W 8179  12.412  39.415   2.546
39962W        W 8180   8.126  12.887   3.204
39963W        W 8181  40.070  31.152   1.758
39964W        W 8182  43.538  35.653   0.275
39965W        W 8183  12.374  22.439  14.101
39966W        W 8184  34.445  31.914  10.486
39967W        W 8185  20.111   5.412  13.760
39968W        W 8186  33.509  39.307  11.922
39969W        W 8187  13.901  17.893  11.938
39970W        W 8188  36.589  17.888   0.444
39971W        W 8189  16.007  24.564   4.575
39972W        W 8190  28.316   2.163  11.280
39973W        W 8191  24.752   9.371  14.582
39974W        W 8192  36.032  28.409   5.053
39975W        W 8193  34.213  40.073  11.652
39976W        W 8194  28.164  28.247   5.003
39977W        W 8195   6.723  32.644  14.365
39978W        W 8196  14.879  39.307   0.444
39979W        W 8197  36.835  36.985   3.407
39980W        W 8198  12.142  30.142   0.527
39981W        W 8199  39.820  33.036  11.963
39982W        W 8200  14.100   2.139   4.977
39983W        W 8201  10.652  17.635  13.560
39984W        W 8202  41.556  43.923   4.632
39985W        W 8203  31.030  41.729   4.131
39986W        W 8204  44.322   8.312   1.864
39987W        W 8205  20.934  26.407  11.084
39988W        W 8206  10.123  38.452  12.757
39989W        W 8207  16.056  21.543  13.393
39990W        W 8208  36.679  20.608   3.344
39991W        W 8209  15.393  31.392  13.556
39992W        W 8210  40.856  42.071  12.588
39993W        W 8211   5.347  19.106   2.350
39994W        W 8212   1.333  16.103  12.028
39995W        W 8213   4.515  21.091  12.830
39996W        W 8214  40.763  17.136   1.934
39997W        W 8215  35.914  28.941  11.004
39998W        W 8216   4.137   0.944   2.654
39999W        W 8217  19.276  27.567   2.316
40000W        W 8218  15.803  20.827   2.252
40001W        W 8219   1.731  33.887  11.080
40002W        W 8220  16.760  15.667   1.780
40003W        W 8221  33.964   5.621  14.533
40004W        W 8222  23.042  35.520  13.866
40005W        W 8223   9.782  22.751  13.573
40006W        W 8224  32.083  11.767  12.047
40007W        W 8225  17.361  26.426   3.691
40008W        W 8226  38.717   1.838  13.892
40009W        W 8227  42.316  17.803   3.625
40010W        W 8228  29.439   5.903   1.358
40011W        W 8229  39.668  17.763  11.596
40012W        W 8230  41.734  28.055   2.964
40013W        W 8231  17.011  23.369   0.941
40014W        W 8232  22.520  35.826   3.676
40015W        W 8233  38.419  11.266  13.573
40016W        W 8234  31.369   4.148   3.150
40017W        W 8235  35.084  43.254   1.885
40018W        W 8236  23.738  15.342  14.092
40019W        W 8237  41.126  37.537  10.766
40020W        W 8238   2.241  17.850   2.287
40021W        W 8239  21.715  22.605   0.507
40022W        W 8240  30.704  15.766   4.135
40023W        W 8241  18.898  38.301  11.945
40024W        W 8242   8.394   4.412  14.977
40025W        W 8243  17.091  40.779  13.039
40026W        W 8244  21.009  16.124  12.745
40027W        W 8245   4.877   4.899  11.648
40028W        W 8246  43.764  26.495  14.300
40029W        W 8247  28.025  20.152   0.791
40030W        W 8248  20.703  16.444  12.146
40031W        W 8249  16.612  40.163   1.290
40032W        W 8250  19.240  15.811  14.620
40033W        W 8251   9.405  39.551   0.892
40034W        W 8252  44.301  31.262  10.785
40035W        W 8253  18.610   8.755  11.715
40036W        W 8254   2.464  19.149   0.315
40037W        W 8255  28.055  21.088   3.335
40038W        W 8256  18.143  29.263  12.148
40039W        W 8257  31.555  41.588   3.677
40040W        W 8258  37.241   8.926  11.075
40041W        W 8259  13.771  19.221  14.853
40042W        W 8260  21.130  43.541   1.106
40043W        W 8261  11.339   8.762   1.213
40044W        W 8262  42.240  22.866  13.388
40045W        W 8263  41.949  19.258  12.324
40046W        W 8264  43.965   6.441   0.405
40047W        W 8265  20.954  27.501  10.324
40048W        W 8266  41.382  13.303  13.245
40049W        W 8267  29.632  38.624  13.388
40050W        W 8268  31.651  26.615   2.719
40051W        W 8269   3.890  39.104   3.282
40052W        W 8270  27.011   8.674  14.099
40053W        W 8271  12.741  32.539   2.154
40054W        W 8272   2.146  37.381   2.836
40055W        W 8273  20.763  32.038  11.231
40056W        W 8274  25.643   1.955  11.668
40057W        W 8275  18.344   2.534   0.007
40058W        W 8276  24.673  37.704  11.702
40059W        W 8277  12.151   1.336  10.251
40060W        W 8278  26.380  12.758   4.135
40061W        W 8279  22.218   4.307   0.681
40062W        W 8280   1.976  30.833  11.955
40063W        W 8281  31.700  23.961   3.304
40064W        W 8282   1.401  38.883   4.589
40065W        W 8283   3.876  23.294  10.910
40066W        W 8284   7.781  11.568   3.018
40067W        W 8285  37.476  41.734  11.623
40068W        W 8286  41.862  11.343   2.271
40069W        W 8287   1.832  25.152   2.743
40070W        W 8288  30.303  18.469   0.275
40071W        W 8289  12.234  26.402  13.094
40072W        W 8290   2.526   4.199  11.985
40073W        W 8291  44.874  25.624   3.958
40074W        W 8292   1.439  14.749  10.474
40075W        W 8293  44.291  33.172   4.847
40076W        W 8294  44.683  27.075   4.559
40077W        W 8295  10.029  11.350   0.713
40078W        W 8296   6.914  23.007   0.404
40079W        W 8297  43.231  38.717   3.771
40080W        W 8298  20.852  15.088   4.954
40081W        W 8299   6.066  12.892  10.297
40082W        W 8300  24.757  41.713  12.109
40083W        W 8301  20.557  39.341   3.695
40084W        W 8302  21.816  23.206  13.888
40085W        W 8303   9.637   7.677   3.581
40086W        W 8304  43.901  19.369   1.875
40087W        W 8305  41.766   2.345   0.733
40088W        W 8306  22.625  37.058  10.516
40089W        W 8307  39.540  24.718  12.336
40090W        W 8308  42.695  28.565   0.415
40091W        W 8309   8.408   2.924   3.288
40092W        W 8310  42.481  36.533  10.804
40093W        W 8311  43.507   3.906   2.246
40094W        W 8312  34.422  30.899  14.335
40095W        W 8313  41.162  17.292  12.447
40096W        W 8314  22.451  27.830  14.420
40097W        W 8315  36.972   8.276   4.665
40098W        W 8316  20.945  23.661  13.893
40099W        W 8317   8.605  10.856  12.619
40100W        W 8318  29.594  12.679   3.721
40101W        W 8319   5.456  13.765  11.445
40102W        W 8320  26.679   5.020  12.790
40103W        W 8321  37.154  35.789  11.567
40104W        W 8322  16.863  16.088  14.818
40105W        W 8323  42.393  21.276  13.967
40106W        W 8324  13.559  29.989  11.660
40107W        W 8325  29.848   1.770  10.972
40108W        W 8326  28.591   9.093  10.857
40109W        W 8327  19.344  35.064   1.597
40110W        W 8328  27.136   7.849   1.418
40111W        W 8329  26.008  15.639  13.499
40112W        W 8330   0.369  30.657  13.300
40113W        W 8331  38.179   3.598   4.094
40114W        W 8332  22.755  24.016   5.000
40115W        W 8333  40.485   4.502   4.637
40116W        W 8334  34.371  41.318   0.488
40117W        W 8335  14.699  40.008  12.039
40118W        W 8336  17.685  26.138   2.803
40119W        W 8337  10.661  29.512  12.162
40120W        W 8338   2.544  42.780   3.595
40121W        W 8339   6.186  27.136   1.286
40122W        W 8340  33.068   4.316   3.225
40123W        W 8341  25.319  13.651  14.517
40124W        W 8342  23.167  42.420   2.629
40125W        W 8343   5.874  39.811  13.932
40126W        W 8344  32.802  14.888  13.001
40127W        W 8345  17.304  41.019  11.621
40128W        W 8346   7.033  22.113   4.232
40129W        W 8347  23.108  42.268  12.957
40130W        W 8348  28.879  37.848  13.984
40131W        W 8349  35.443  22.264  13.613
40132W        W 8350   5.338  20.221  12.028
40133W        W 8351  29.149  12.417  14.822
40134W        W 8352  36.568   1.837   4.048
40135W        W 8353   0.439   7.769   4.796
40136W        W 8354  32.447  14.665   1.939
40137W        W 8355  16.781  38.363   1.952
40138W        W 8356  41.722  22.139  12.040
40139W        W 8357  40.565   8.886  13.980
40140W        W 8358  19.615  16.744   4.449
40141W        W 8359  36.962  25.125   0.249
40142W        W 8360  20.724   9.288   3.192
40143W        W 8361  42.332  44.004  13.831
40144W        W 8362  34.881  23.649  12.164
40145W        W 8363  16.060  12.760   1.740
40146W        W 8364   9.443  42.441   5.527
40147W        W 8365  10.504  16.727   1.948
40148W        W 8366  15.733  37.621  12.500
40149W        W 8367  15.481  36.381  14.771
40150W        W 8368  17.027   4.440  13.882
40151W        W 8369  39.070  21.333  14.410
40152W        W 8370   8.231  27.491   4.607
40153W        W 8371  39.351  32.610  10.659
40154W        W 8372  15.361  22.013   3.723
40155W        W 8373  21.885  38.952   3.874
40156W        W 8374  38.954   0.755   0.953
40157W        W 8375  28.050  43.973  10.729
40158W        W 8376  24.897  19.856  14.957
40159W        W 8377  17.552  26.955   0.938
40160W        W 8378  25.934  24.457  13.493
40161W        W 8379  31.115   1.211  14.326
40162W        W 8380  21.131  13.784   3.727
40163W        W 8381  17.739  32.469  11.525
40164W        W 8382  24.780  17.871   2.807
40165W        W 8383  23.919  19.659  13.924
40166W        W 8384  20.265  33.621  12.294
40167W        W 8385  38.598  34.443   4.621
40168W        W 8386  30.919  17.665  10.412
40169W        W 8387  28.463   1.918  10.329
40170W        W 8388  26.192  36.037   0.320
40171W        W 8389   1.323  41.843   2.734
40172W        W 8390  25.416  14.416   1.316
40173W        W 8391  26.739  42.311  11.205
40174W        W 8392  39.322  37.377  10.294
40175W        W 8393   5.126  37.414  14.964
40176W        W 8394  20.511   0.002  12.066
40177W        W 8395  24.611  24.975  13.615
40178W        W 8396   9.484   2.463  13.991
40179W        W 8397  25.900  23.508   1.333
40180W        W 8398   3.213  38.136   2.980
40181W        W 8399  44.735  24.074   2.708
40182W        W 8400  28.644  23.942   2.279
40183W        W 8401  12.125  41.081   0.946
40184W        W 8402   2.166  29.524  12.026
40185W        W 8403  13.420  22.985   4.208
40186W        W 8404  10.366   0.468  12.977
40187W        W 8405  21.246  40.928   1.841
40188W        W 8406  10.929  33.970  13.804
40189W        W 8407   1.500  35.423   1.466
40190W        W 8408  42.463  21.226  13.449
40191W        W 8409  37.088  21.061  11.096
40192W        W 8410  10.707  30.489  12.464
40193W        W 8411   2.717   4.847   1.319
40194W        W 8412  22.422  17.079   3.724
40195W        W 8413  43.417  13.084  14.371
40196W        W 8414   7.770  23.188   1.703
40197W        W 8415  22.649   1.722  12.459
40198W        W 8416  20.788  43.000  11.406
40199W        W 8417  40.543  39.995   0.874
40200W        W 8418   7.904  35.014  12.113
40201W        W 8419  31.566  31.049   3.362
40202W        W 8420  39.029  26.584   5.039
40203W        W 8421  23.874  38.809  10.993
40204W        W 8422  26.081  12.571  13.317
40205W        W 8423   2.029  27.566  14.988
40206W        W 8424  16.141  13.189   2.660
40207W        W 8425  17.604  31.562  14.387
40208W        W 8426   4.777   2.685   3.809
40209W        W 8427  21.985  13.262  13.931
40210W        W 8428   1.354  37.574  13.867
40211W        W 8429   6.786   1.033   3.273
40212W        W 8430  16.798  16.274  12.892
40213W        W 8431  43.165  35.877  11.069
40214W        W 8432  33.962  18.345   0.296
40215W        W 8433   7.246  29.102  14.026
40216W        W 8434   4.019  18.215   0.234
40217W        W 8435  23.663  36.802   1.834
40218W        W 8436  29.303  32.151  14.755
40219W        W 8437  16.061  25.167   2.776
40220W        W 8438  24.642  35.956   2.821
40221W        W 8439  17.152  13.667   2.344
40222W        W 8440  37.917  23.984   3.719
40223W        W 8441  39.980  18.746  14.595
40224W        W 8442   1.463  26.447  14.242
40225W        W 8443  34.477  36.468  13.074
40226W        W 8444  41.529  14.585   3.280
40227W        W 8445  35.540  34.373   0.598
40228W        W 8446   6.449  16.022  10.688
40229W        W 8447  31.526  39.817   0.942
40230W        W 8448  39.079   2.269   2.689
40231W        W 8449  25.780  23.805  11.949
40232W        W 8450   3.284  35.452   0.474
40233W        W 8451  39.993   1.267   4.193
40234W        W 8452  12.289  12.286   2.586
40235W        W 8453  33.533  19.669   0.320
40236W        W 8454  13.645  18.636  12.604
40237W        W 8455  39.851  15.050   0.403
40238W        W 8456  42.023  11.229  12.923
40239W        W 8457  15.881  44.139   3.220
40240W        W 8458   6.726   7.613   2.677
40241W        W 8459   6.697  32.943  13.946
40242W        W 8460  44.266  17.258  14.111
40243W        W 8461  28.669  28.076  10.523
40244W        W 8462  43.945  23.690   2.397
40245W        W 8463  43.801  36.543   1.558
40246W        W 8464  38.324  21.763  12.865
40247W        W 8465  13.788  40.044  14.824
40248W        W 8466  11.947   7.525   4.469
40249W        W 8467  11.926  10.856  11.546
40250W        W 8468  42.419   9.402  13.960
40251W        W 8469  13.737  28.132   2.591
40252W        W 8470  14.314  28.681   4.226
40253W        W 8471  30.875  21.585  14.466
40254W        W 8472  24.599  13.202   3.799
40255W        W 8473  37.011  10.889   2.947
40256W        W 8474  22.558   8.296   0.323
40257W        W 8475  23.111  29.336   4.373
40258W        W 8476  14.246  38.858  10.401
40259W        W 8477  36.622   3.749  11.991
40260W        W 8478  35.612  28.577  12.084
40261W        W 8479  20.634   5.951  12.622
40262W        W 8480   6.857  19.287  14.686
40263W        W 8481  38.077  33.306  13.045
40264W        W 8482   0.983  38.973   0.430
40265W        W 8483  30.707   5.098  10.624
40266W        W 8484  31.731  44.066   2.253
40267W        W 8485  16.195  13.486  12.948
40268W        W 8486  36.561  19.584  13.372
40269W        W 8487  14.860  34.070   1.743
40270W        W 8488  28.680  12.930   3.322
40271W        W 8489  28.325  16.789  11.737
40272W        W 8490  21.677  30.858   4.210
40273W        W 8491  18.564  19.641   4.547
40274W        W 8492  40.671  26.140  11.862
40275W        W 8493   4.108  40.961   2.765
40276W        W 8494  31.451  26.168  10.477
40277W        W 8495   3.836  38.833   4.644
40278W        W 8496  23.621  22.620  14.083
40279W        W 8497  29.974  17.597   3.676
40280W        W 8498  23.005  33.635   2.903
40281W        W 8499  28.533  25.526  13.913
40282W        W 8500   6.873  29.357   1.721
40283W        W 8501  36.568  12.096   3.227
40284W        W 8502   4.512   4.895  14.515
40285W        W 8503  20.108  38.309   1.210
40286W        W 8504  11.372  32.924   1.132
40287W        W 8505  26.985   0.275  12.472
40288W        W 8506  36.624  28.647  10.041
40289W        W 8507   2.294  13.273  12.940
40290W        W 8508  33.486  38.455  10.805
40291W        W 8509  24.060  38.045  12.994
40292W        W 8510  32.096  35.788  11.546
40293W        W 8511  18.304  15.219  14.016
40294W        W 8512  23.660  39.397   1.699
40295W        W 8513  24.743  24.034   3.252
40296W        W 8514  43.273  44.820   5.010
40297W        W 8515   0.027   5.953   4.121
40298W        W 8516  36.389  16.297  14.221
40299W        W 8517  30.542  28.514  14.136
40300W        W 8518  34.082  37.136   2.971
40301W        W 8519   7.780  36.143  12.956
40302W        W 8520  37.964  15.198  13.840
40303W        W 8521  22.923  40.423   0.875
40304W        W 8522  18.102   1.281   0.448
40305W        W 8523  32.007  36.151  12.874
40306W        W 8524   5.816  41.887   4.123
40307W        W 8525  33.926  24.671   3.707
40308W        W 8526  37.310  17.059  13.340
40309W        W 8527  33.863  10.476   2.057
40310W        W 8528   9.867  40.762   1.382
40311W        W 8529  33.961  38.019   4.061
40312W        W 8530   7.665  44.227   4.191
40313W        W 8531  28.531  40.687  11.198
40314W        W 8532  25.236  39.324  10.588
40315W        W 8533  39.824  42.311   4.640
40316W        W 8534   6.804  40.263   1.245
40317W        W 8535  24.244   1.766   2.209
40318W        W 8536   6.562  39.447   2.615
40319W        W 8537  17.129  44.513  14.937
40320W        W 8538   5.856  18.242  14.460
40321W        W 8539   8.780  15.316   2.629
40322W        W 8540   4.902   3.925   3.226
40323W        W 8541  40.339  20.475  14.367
40324W        W 8542   0.500   6.927  11.025
40325W        W 8543  39.787  27.756  13.832
40326W        W 8544   1.541  18.128   1.937
40327W        W 8545  34.842  28.527  12.510
40328W        W 8546  14.099  36.384   3.532
40329W        W 8547  37.685  39.592  12.449
40330W        W 8548  12.746   8.091   2.311
40331W        W 8549  40.086  43.368  14.894
40332W        W 8550  13.311  40.286   4.261
40333W        W 8551  28.086   1.262   1.429
40334W        W 8552  40.767  11.014  14.490
40335W        W 8553  30.785  33.799   2.437
40336W        W 8554   7.388   6.406  13.357
40337W        W 8555  24.177  32.138   3.841
40338W        W 8556  10.741  41.770   2.071
40339W        W 8557   9.818  17.798   0.275
40340W        W 8558   4.143  19.017   1.867
40341W        W 8559  34.110  31.509  12.554
40342W        W 8560  30.871  19.575   1.175
40343W        W 8561   5.713  43.464   4.867
40344W        W 8562  10.185  37.610  11.031
40345W        W 8563  21.663  15.226   4.853
40346W        W 8564  24.768  15.340  13.105
40347W        W 8565  28.665  19.217   4.807
40348W        W 8566   8.019  24.571   4.084
40349W        W 8567  41.021   0.942   1.828
40350W        W 8568  34.146   3.021  12.580
40351W        W 8569  38.675  43.925  12.787
40352W        W 8570   5.899  14.777   2.900
40353W        W 8571  21.738  39.631   4.704
40354W        W 8572  44.827  25.688  11.938
40355W        W 8573  40.294  13.928  14.384
40356W        W 8574  43.972  24.761   2.801
40357W        W 8575   3.178  41.904  13.687
40358W        W 8576   7.412   1.874   2.361
40359W        W 8577  43.978   2.417   1.768
40360W        W 8578  30.581  41.881   1.776
40361W        W 8579  21.732  16.980  12.206
40362W        W 8580  24.639  41.951  10.556
40363W        W 8581  16.781  37.599   4.986
40364W        W 8582   8.498  20.262   3.956
40365W        W 8583  11.848  30.051  14.854
40366W        W 8584   0.188  27.919   3.303
40367W        W 8585  35.585  34.512   0.062
40368W        W 8586  42.819  31.514   3.833
40369W        W 8587   5.214   1.113   1.510
40370W        W 8588   8.499   4.963  11.994
40371W        W 8589   5.097   7.638   4.907
40372W        W 8590  31.665  26.165  14.359
40373W        W 8591  19.522  26.768   3.251
40374W        W 8592   1.525  29.637  11.416
40375W        W 8593  30.571   0.702  12.529
40376W        W 8594  33.601  15.072  11.613
40377W        W 8595  27.995  10.885   1.340
40378W        W 8596  12.943  40.397  12.375
40379W        W 8597  15.365  41.463  13.177
40380W        W 8598  29.952  20.349  14.864
40381W        W 8599  10.918  36.973   4.897
40382W        W 8600  39.394  23.145  13.329
40383W        W 8601  33.602  21.640   3.279
40384W        W 8602  24.407  21.586  13.943
40385W        W 8603  21.670  38.726   2.581
40386W        W 8604   4.015  26.574   0.788
40387W        W 8605  12.107  38.498   1.477
40388W        W 8606  14.341  39.953  12.535
40389W        W 8607  29.847   5.900  11.191
40390W        W 8608   3.009  37.365  10.700
40391W        W 8609  12.121  21.055  13.971
40392W        W 8610  28.201  24.228   2.314
40393W        W 8611  37.917  38.104  13.569
40394W        W 8612  33.430  11.722   3.198
40395W        W 8613  19.237   2.191  13.411
40396W        W 8614  32.298  24.131   4.031
40397W        W 8615  34.992   4.810  12.522
40398W        W 8616   3.386  10.766  13.899
40399W        W 8617  22.522  17.273  12.842
40400W        W 8618  38.537  44.452  10.691
40401W        W 8619  27.207   9.375   4.447
40402W        W 8620  30.389  38.906   0.256
40403W        W 8621  17.790  28.210  12.437
40404W        W 8622   1.874   0.542   2.648
40405W        W 8623   0.589  38.590  14.189
40406W        W 8624  15.846   8.980   2.252
40407W        W 8625  42.128  19.658   0.536
40408W        W 8626  39.326  34.099  12.974
40409W        W 8627  34.804   3.444   1.778
40410W        W 8628  36.953  40.990  11.623
40411W        W 8629  24.914  28.979   2.792
40412W        W 8630  42.505   7.920   4.677
40413W        W 8631  31.473  30.905   4.744
40414W        W 8632  34.196  12.220  14.274
40415W        W 8633  44.399  38.672  13.339
40416W        W 8634  44.466  11.700   5.082
40417W        W 8635   2.953  23.601   1.270
40418W        W 8636   3.557  37.385  13.410
40419W        W 8637   9.500  13.347   2.340
40420W        W 8638   9.356  30.408  12.018
40421W        W 8639  36.027  29.991  10.922
40422W        W 8640  38.409   6.702   0.944
40423W        W 8641   2.858  27.391   1.302
40424W        W 8642  22.188  29.210   3.776
40425W        W 8643  22.003  24.529  14.881
40426W        W 8644   4.704  19.382   0.864
40427W        W 8645  27.953  22.511  11.197
40428W        W 8646  30.536  33.459   0.776
40429W        W 8647  36.501  21.987   3.219
40430W        W 8648  24.257  19.073   3.158
40431W        W 8649  14.248  30.679   2.253
40432W        W 8650  36.053   6.202   0.371
40433W        W 8651   6.310  26.040  14.909
40434W        W 8652   8.889  15.653   1.440
40435W        W 8653  32.055   1.512  14.436
40436W        W 8654  18.362  14.923   1.997
40437W        W 8655   3.982  30.289   0.262
40438W        W 8656  28.884  26.121   4.195
40439W        W 8657  41.262  44.413  12.625
40440W        W 8658  25.075  29.045  14.411
40441W        W 8659  15.617  16.847   0.550
40442W        W 8660  23.696   1.763   0.516
40443W        W 8661  33.282  15.602   4.153
40444W        W 8662  28.635  28.821   2.034
40445W        W 8663   7.807  13.578  14.364
40446W        W 8664  42.780   4.790  10.693
40447W        W 8665   8.328   1.163  13.076
40448W        W 8666   8.928  43.962   2.852
40449W        W 8667  16.089  40.940  11.171
40450W        W 8668  26.226  40.552   3.118
40451W        W 8669  17.761  41.949   3.375
40452W        W 8670   7.741  21.299  11.955
40453W        W 8671  36.502  43.251   1.785
40454W        W 8672   6.973   0.473  14.763
40455W        W 8673   2.748  44.266  12.847
40456W        W 8674  22.968  37.794  11.171
40457W        W 8675  39.520   5.761   3.739
40458W        W 8676  35.355  40.813  14.352
40459W        W 8677  34.251   2.404   0.674
40460W        W 8678  29.143  11.687   0.658
40461W        W 8679  33.590  42.519  14.458
40462W        W 8680  28.574  18.570   0.855
40463W        W 8681  24.457  17.237   3.821
40464W        W 8682  25.955  12.745  12.520
40465W        W 8683  42.289   3.571  13.056
40466W        W 8684  31.607   8.796  14.249
40467W        W 8685  42.026  15.202   2.365
40468W        W 8686  11.876  19.501   2.284
40469W        W 8687  42.879  24.202   1.942
40470W        W 8688  13.129  34.350  11.504
40471W        W 8689  39.561  37.210   1.116
40472W        W 8690   9.616  40.568  14.744
40473W        W 8691  37.272  33.958   0.191
40474W        W 8692  30.636  21.117  14.452
40475W        W 8693   3.726  40.552  11.383
40476W        W 8694   9.892   2.738   4.054
40477W        W 8695  16.353  43.958   3.810
40478W        W 8696  31.199  30.748   0.869
40479W        W 8697  25.109  20.578   3.648
40480W        W 8698  10.098  43.294   4.155
40481W        W 8699  40.537  40.869  12.430
40482W        W 8700  13.979  20.819  11.945
40483W        W 8701   1.496  23.705  12.381
40484W        W 8702  20.729   8.442   2.442
40485W        W 8703  43.347  33.872  11.134
40486W        W 8704   3.784   3.622  11.448
40487W        W 8705  18.727   0.803   0.755
40488W        W 8706  25.045  34.139   2.727
40489W        W 8707  32.943  29.220  12.015
40490W        W 8708   3.857  33.127   4.505
40491W        W 8709  18.763  22.742  13.598
40492W        W 8710  31.611  36.539  10.448
40493W        W 8711  32.442  16.100   0.765
40494W        W 8712  28.497  39.147  11.984
40495W        W 8713  39.647  22.807  13.054
40496W        W 8714  23.883  20.974   2.307
40497W        W 8715  26.964  30.407  14.520
40498W        W 8716  38.987  22.059  13.237
40499W        W 8717   3.019  44.924   2.648
40500W        W 8718  15.055  31.846   3.195
40501W        W 8719   8.852  19.875  13.537
40502W        W 8720  43.923  10.199   3.869
40503W        W 8721   4.787  39.884  11.863
40504W        W 8722  18.545  25.098  14.823
40505W        W 8723  37.425  42.123   1.632
40506W        W 8724  41.521  15.536  13.472
40507W        W 8725   0.700   1.444  14.728
40508W        W 8726  35.446  12.324  12.412
40509W        W 8727  31.863  32.047   0.352
40510W        W 8728  38.092  42.933   4.647
40511W        W 8729  39.486   1.409   0.490
40512W        W 8730  41.377   7.197  12.192
40513W        W 8731   7.158  13.911  10.718
40514W        W 8732  12.418  35.627   4.392
40515W        W 8733  27.721   8.621  11.321
40516W        W 8734  34.431  39.707   4.896
40517W        W 8735  17.067  31.471   3.229
40518W        W 8736  33.607   7.812   3.268
40519W        W 8737  15.096   3.913   3.380
40520W        W 8738  30.914  13.364   1.957
40521W        W 8739  22.264  35.987   0.352
40522W        W 8740  26.723   9.695   2.808
40523W        W 8741   0.611  37.576   4.473
40524W        W 8742  12.993  27.444   2.682
40525W        W 8743  10.682  27.432  10.756
40526W        W 8744   7.416  19.097   4.582
40527W        W 8745  38.064  37.987   4.562
40528W        W 8746  35.193  29.632  12.835
40529W        W 8747  34.176  24.335  11.684
40530W        W 8748  28.811  19.800   2.351
40531W        W 8749   2.462  23.211   4.165
40532W        W 8750   9.774  44.546   1.235
40533W        W 8751  22.148   5.785   0.327
40534W        W 8752  29.414  33.853  14.893
40535W        W 8753  10.427  11.887  14.895
40536W        W 8754   2.361  22.099   1.897
40537W        W 8755  13.855  41.519  11.414
40538W        W 8756  15.603  23.231  12.187
40539W        W 8757  30.867  34.500   2.705
40540W        W 8758  41.013  24.248  12.462
40541W        W 8759   6.815  19.782   3.141
40542W        W 8760  16.199  34.996   3.662
40543W        W 8761  12.441  41.057   2.263
40544W        W 8762  36.732  33.365   0.613
40545W        W 8763  44.481  16.305   4.042
40546W        W 8764  25.551  22.388   2.255
40547W        W 8765  43.481   5.773   0.454
40548W        W 8766  43.014  22.027   0.837
40549W        W 8767  15.757  34.004  13.878
40550W        W 8768  18.563  10.363   0.238
40551W        W 8769  38.897  16.055   3.372
40552W        W 8770  42.584  35.181  10.732
40553W        W 8771  20.624  33.187  10.296
40554W        W 8772  20.044  18.642  11.997
40555W        W 8773  14.128  35.596  12.915
40556W        W 8774  43.335  13.008  11.552
40557W        W 8775  36.058   2.531   4.619
40558W        W 8776  15.603  27.368   2.890
40559W        W 8777  39.431  15.516   4.033
40560W        W 8778  27.435  29.456  12.954
40561W        W 8779  11.670  44.269   2.734
40562W        W 8780  26.203  21.692  13.446
40563W        W 8781   6.022   9.777  12.078
40564W        W 8782  28.677  14.908   3.473
40565W        W 8783  22.974  24.634  10.412
40566W        W 8784  14.042  19.480   0.211
40567W        W 8785  32.031   4.862   2.803
40568W        W 8786  24.140  16.167  13.827
40569W        W 8787  19.102  32.546   1.701
40570W        W 8788  37.042  36.353   2.257
40571W        W 8789  12.896   3.629   2.764
40572W        W 8790  12.671  40.207  14.814
40573W        W 8791  31.218  25.093   2.406
40574W        W 8792  41.458  40.195   3.238
40575W        W 8793  18.187  20.251   2.326
40576W        W 8794   2.345  14.256  12.536
40577W        W 8795  15.994  12.677  14.962
40578W        W 8796  33.317  11.813  14.708
40579W        W 8797  25.413  12.358   0.345
40580W        W 8798  15.598  44.110   2.362
40581W        W 8799  40.975  28.170   3.606
40582W        W 8800  29.905  37.616  10.381
40583W        W 8801  24.099   0.377  10.682
40584W        W 8802  37.004   2.536  14.269
40585W        W 8803  43.940   0.900  14.555
40586W        W 8804   6.729  21.496   2.355
40587W        W 8805  17.348   3.407  13.821
40588W        W 8806  24.630  10.228  13.025
40589W        W 8807  33.158  27.273   0.832
40590W        W 8808   8.121   4.382   1.803
40591W        W 8809  25.079  42.826   1.830
40592W        W 8810  26.017  31.654  11.303
40593W        W 8811   9.165  18.059   1.044
40594W        W 8812   1.814  19.833   0.382
40595W        W 8813  39.789  42.096   3.192
40596W        W 8814  41.907  26.490  10.738
40597W        W 8815  41.312  33.331  13.754
40598W        W 8816   0.886  32.513  11.505
40599W        W 8817  42.896  23.478   4.069
40600W        W 8818   9.018  38.350  11.642
40601W        W 8819  29.756  26.930  13.911
40602W        W 8820  23.114  19.447   4.241
40603W        W 8821  33.886  20.470  13.526
40604W        W 8822  21.432   8.351   0.629
40605W        W 8823  24.234  41.967  13.218
40606W        W 8824  14.756  42.831  13.565
40607W        W 8825  21.924   8.781  14.336
40608W        W 8826  37.367   9.964  12.411
40609W        W 8827  21.166  39.667   1.209
40610W        W 8828  36.438   4.478   0.801
40611W        W 8829  38.598   1.632  12.960
40612W        W 8830  24.753  24.112   2.358
40613W        W 8831  28.640  40.252   1.473
40614W        W 8832   8.254  30.023  14.261
40615W        W 8833   0.427  37.885   4.124
40616W        W 8834  41.274  15.827  13.850
40617W        W 8835  25.007   1.494   0.558
40618W        W 8836  13.087  11.285  13.386
40619W        W 8837   2.172  17.776   4.544
40620W        W 8838  42.334   0.331   1.432
40621W        W 8839  18.179  24.089   0.926
40622W        W 8840  44.875   5.437  11.409
40623W        W 8841   0.312  42.193  12.843
40624W        W 8842  26.769  22.586  13.435
40625W        W 8843  31.108  12.404   1.639
40626W        W 8844   7.925  43.618  12.165
40627W        W 8845  43.578   7.278   4.087
40628W        W 8846   4.485  28.557   4.075
40629W        W 8847  27.096  36.099   4.572
40630W        W 8848  12.094  19.351   1.268
40631W        W 8849   8.888   9.485   1.302
40632W        W 8850   7.797  41.103  14.997
40633W        W 8851  36.758  19.391  11.678
40634W        W 8852  13.636  22.988   2.346
40635W        W 8853  37.903   6.420  11.900
40636W        W 8854  35.638  42.428  10.924
40637W        W 8855  28.762   9.073   1.951
40638W        W 8856   7.794  25.934  10.766
40639W        W 8857  20.463  17.651  12.403
40640W        W 8858  17.365  27.585  13.958
40641W        W 8859  13.210  15.733  11.076
40642W        W 8860   9.721  31.385   2.325
40643W        W 8861  40.862  43.486   4.607
40644W        W 8862  23.611  27.154  14.123
40645W        W 8863  32.459  44.102  12.113
40646W        W 8864  35.151  37.030   1.398
40647W        W 8865  20.099  32.580   2.529
40648W        W 8866   0.573  30.822  12.516
40649W        W 8867   7.187  27.583   4.649
40650W        W 8868  33.082  13.408  12.021
40651W        W 8869   1.178  10.117   2.733
40652W        W 8870  42.977  38.794   0.388
40653W        W 8871  11.336  23.420   3.844
40654W        W 8872  40.831  30.120   4.997
40655W        W 8873   1.682  44.832  13.899
40656W        W 8874   8.033   7.834  12.565
40657W        W 8875  36.547  44.436   2.262
40658W        W 8876  43.391   2.916   2.193
40659W        W 8877  18.087  44.674  12.913
40660W        W 8878  10.264  15.668   1.350
40661W        W 8879  38.123  21.940  13.819
40662W        W 8880  24.992  14.031   3.177
40663W        W 8881  26.163  14.129   2.402
40664W        W 8882  24.749  27.083   0.427
40665W        W 8883  36.214  11.074   2.724
40666W        W 8884  10.442   6.907  11.997
40667W        W 8885  31.707   2.098   0.189
40668W        W 8886  12.182  44.156  14.894
40669W        W 8887  30.351  30.582  12.018
40670W        W 8888   8.203  28.521   3.036
40671W        W 8889  41.966  31.734   3.265
40672W        W 8890  37.467  25.962   1.286
40673W        W 8891  28.178  15.501  13.921
40674W        W 8892  26.370   2.480  12.191
40675W        W 8893  30.847  16.298   1.992
40676W        W 8894   8.630  21.679   1.321
40677W        W 8895  32.528  14.642  10.716
40678W        W 8896  14.122  19.368  11.221
40679W        W 8897   1.390   9.158   1.723
40680W        W 8898  23.078  18.524   3.742
40681W        W 8899  42.979  10.037   4.145
40682W        W 8900   2.388  42.383   0.883
40683W        W 8901  40.406   1.293  14.320
40684W        W 8902  34.974   2.818   1.078
40685W        W 8903   3.228   6.403  14.766
40686W        W 8904  11.069  16.304   0.814
40687W        W 8905   1.240  29.255  10.659
40688W        W 8906   3.885  33.732   0.863
40689W        W 8907  36.880  27.252   0.354
40690W        W 8908  22.491  29.547  11.544
40691W        W 8909  42.517  27.108  13.830
40692W        W 8910  19.417   9.758   4.178
40693W        W 8911  38.466  24.233  13.521
40694W        W 8912  29.863   0.004   3.291
40695W        W 8913   6.213  21.076   4.566
40696W        W 8914  29.054   3.332  10.202
40697W        W 8915   2.792  28.108  13.576
40698W        W 8916  39.254  18.107  13.994
40699W        W 8917  22.107  39.861  11.154
40700W        W 8918   1.832  44.423  11.313
40701W        W 8919  10.141  40.955   3.236
40702W        W 8920  20.833  27.199   0.191
40703W        W 8921  13.588   4.155  11.491
40704W        W 8922  25.226  34.461   4.222
40705W        W 8923  11.475   3.246  12.613
40706W        W 8924  35.892  15.415  13.960
40707W        W 8925  35.381  22.855   3.762
40708W        W 8926  24.492  27.569   3.189
40709W        W 8927  31.898   7.169   2.206
40710W        W 8928  27.262  34.529  10.758
40711W        W 8929  27.551  43.235  10.944
40712W        W 8930  18.155  43.021  13.978
40713W        W 8931  10.081  32.605  14.036
40714W        W 8932  27.625  15.123   0.281
40715W        W 8933   7.834  24.593  10.710
40716W        W 8934  20.789   0.188  11.149
40717W        W 8935   8.403  43.989   2.909
40718W        W 8936  17.526  40.346   2.409
40719W        W 8937  29.645   5.703  13.616
40720W        W 8938  41.781  42.976   0.021
40721W        W 8939  25.012   3.817   1.308
40722W        W 8940  23.436  33.042   3.197
40723W        W 8941  26.543  18.232   2.717
40724W        W 8942  43.282  41.377  12.599
40725W        W 8943   0.876  13.753   1.449
40726W        W 8944  15.645  22.838   4.102
40727W        W 8945  30.098  44.496   4.321
40728W        W 8946  39.953  36.467   3.254
40729W        W 8947  21.345  33.940  11.502
40730W        W 8948  30.227   8.285   4.209
40731W        W 8949  39.672  16.566  13.805
40732W        W 8950  33.002  13.562  14.997
40733W        W 8951  28.147  29.930  12.974
40734W        W 8952  26.140  35.360   3.804
40735W        W 8953   9.586  40.990   4.105
40736W        W 8954   6.355  10.319  14.764
40737W        W 8955  13.212   8.631  13.294
40738W        W 8956  40.324  32.063  12.432
40739W        W 8957  42.492  15.486   1.560
40740W        W 8958   2.435  19.609   0.031
40741W        W 8959  15.423  35.426   4.886
40742W        W 8960   3.893  21.233   0.484
40743W        W 8961  22.146  17.328  14.359
40744W        W 8962  26.117  10.648  13.866
40745W        W 8963   4.262  36.060   4.422
40746W        W 8964  33.053  13.713   1.421
40747W        W 8965   0.613   9.770  12.585
40748W        W 8966  41.829  34.639   1.157
40749W        W 8967   4.679   9.113   1.285
40750W        W 8968   9.741  24.698  11.118
40751W        W 8969  10.810  22.580  11.596
40752W        W 8970  30.128  10.150   1.346
40753W        W 8971  15.745  44.763  12.061
40754W        W 8972  33.032   5.673  14.404
40755W        W 8973  34.517   6.615  10.764
40756W        W 8974  10.708   0.334  10.815
40757W        W 8975   3.837  23.045   4.034
40758W        W 8976  14.549  19.924  12.501
40759W        W 8977   6.367   8.976  11.415
40760W        W 8978   3.715   1.971   1.831
40761W        W 8979  26.454  42.387   4.790
40762W        W 8980  25.142   4.063  14.420
40763W        W 8981  40.536  14.678  12.982
40764W        W 8982  39.021  34.832   4.429
40765W        W 8983  12.614   5.897   0.750
40766W        W 8984   3.500  10.138  11.055
40767W        W 8985  38.038   9.806   2.767
40768W        W 8986  31.391  31.461  14.990
40769W        W 8987  22.726   4.231  14.334
40770W        W 8988  16.968  33.677  12.209
40771W        W 8989   7.232  21.117   4.605
40772W        W 8990  32.353   6.893   4.625
40773W        W 8991  31.893  40.904  13.010
40774W        W 8992  10.185  21.265   0.676
40775W        W 8993   6.101  16.506   4.056
40776W        W 8994  26.750   3.328   3.159
40777W        W 8995  44.152  19.478   2.342
40778W        W 8996   0.412  39.267   0.899
40779W        W 8997   3.419  38.733   1.223
40780W        W 8998  15.305  33.981   4.857
40781W        W 8999   7.229  37.567  12.910
40782W        W 9000  15.548  35.398   0.138
40783W        W 9001  19.101  41.729   2.749
40784W        W 9002  16.509   9.407   3.223
40785W        W 9003  42.844  10.912   4.373
40786W        W 9004  12.221  15.537  13.012
40787W        W 9005  32.208  17.631  12.865
40788W        W 9006  27.569  34.895  12.822
40789W        W 9007   5.707   1.872   0.422
40790W        W 9008   9.771  24.146   1.402
40791W        W 9009  17.802  39.951   1.861
40792W        W 9010   0.410  44.609  14.095
40793W        W 9011   9.113  27.602   1.515
40794W        W 9012   9.368  39.976  13.435
40795W        W 9013  43.582   3.365   5.056
40796W        W 9014   4.442  16.744   2.216
40797W        W 9015  24.997  39.345   3.568
40798W        W 9016   4.900   8.267   4.173
40799W        W 9017  30.849  30.788   3.606
40800W        W 9018  44.960  38.885   0.391
40801W        W 9019   9.050  15.210  11.120
40802W        W 9020  44.634  13.824  10.648
40803W        W 9021  18.487  32.768  14.915
40804W        W 9022  44.612  43.383   3.631
40805W        W 9023  28.189  44.942  11.587
40806W        W 9024  14.655  26.428   0.810
40807W        W 9025   5.680   2.900   4.119
40808W        W 9026  23.634  37.331   4.801
40809W        W 9027  37.607  44.474  10.662
40810W        W 9028  37.813  39.666   4.997
40811W        W 9029  36.504  16.915  12.072
40812W        W 9030  36.876  27.508  13.616
40813W        W 9031  41.360  22.043   1.332
40814W        W 9032   4.910  20.739   3.233
40815W        W 9033   6.839  31.609  10.982
40816W        W 9034  14.046   0.699  14.074
40817W        W 9035  39.965  31.077   3.408
40818W        W 9036  14.657  38.460  11.125
40819W        W 9037  39.031  10.159  11.552
40820W        W 9038  17.265  38.921   2.218
40821W        W 9039  26.462  29.493   2.246
40822W        W 9040  33.942  26.931   3.671
40823W        W 9041  29.259  42.923   3.731
40824W        W 9042  13.613  34.814   3.800
40825W        W 9043  43.938  43.589   4.848
40826W        W 9044  26.093   1.634  12.437
40827W        W 9045  37.136   2.348  13.226
40828W        W 9046  23.251  33.066  13.025
40829W        W 9047  29.086  23.659   1.423
40830W        W 9048  20.697   2.526  13.918
40831W        W 9049  29.646  24.731  13.381
40832W        W 9050  38.004  38.879  12.513
40833W        W 9051  17.947  44.740  10.436
40834W        W 9052  27.498  27.605   4.764
40835W        W 9053   5.504  41.249  14.412
40836W        W 9054  28.459   3.858  14.804
40837W        W 9055   2.849  33.369   3.160
40838W        W 9056  20.122  39.966  13.393
40839W        W 9057  16.488   9.281   2.291
40840W        W 9058   9.318  16.214   2.766
40841W        W 9059  30.833  37.579   2.434
40842W        W 9060  19.152  27.063  13.890
40843W        W 9061  33.362   2.224   1.814
40844W        W 9062  17.373   6.061   5.052
40845W        W 9063  38.059  13.309  14.025
40846W        W 9064  33.088   2.328   4.799
40847W        W 9065   6.437   5.532  11.551
40848W        W 9066  24.243  39.166  14.403
40849W        W 9067   1.504  29.102   4.907
40850W        W 9068  13.289   6.931   0.321
40851W        W 9069  28.615  30.865   1.301
40852W        W 9070  30.892   9.645  13.621
40853W        W 9071  24.117   1.313   0.794
40854W        W 9072  17.354   7.165   2.769
40855W        W 9073  29.975  40.738  14.936
40856W        W 9074  40.931   4.901   5.156
40857W        W 9075   4.184  36.529   4.106
40858W        W 9076   1.210   2.683  12.021
40859W        W 9077   7.830  28.188   3.117
40860W        W 9078  33.631  31.395   3.221
40861W        W 9079  17.152   8.847   4.176
40862W        W 9080   8.609  42.081   0.747
40863W        W 9081  27.537  30.429   2.861
40864W        W 9082  35.055  32.177   2.646
40865W        W 9083   7.376  33.657   2.333
40866W        W 9084   3.989  30.006   4.076
40867W        W 9085  37.093  36.180   4.563
40868W        W 9086   4.336  10.711   3.411
40869W        W 9087  25.995  42.599   1.025
40870W        W 9088  15.686   8.859  11.006
40871W        W 9089  17.720  44.374   5.020
40872W        W 9090  17.111   3.375  11.956
40873W        W 9091  33.479  10.932   0.357
40874W        W 9092   9.367  29.123   3.898
40875W        W 9093   4.213   2.988   4.403
40876W        W 9094  44.355   8.348   3.329
40877W        W 9095   0.752  43.558  12.985
40878W        W 9096  28.107   2.918  11.617
40879W        W 9097   0.301  10.110   4.472
40880W        W 9098  14.278  44.598   0.753
40881W        W 9099   8.585  20.628   0.447
40882W        W 9100  18.821  38.592  10.655
40883W        W 9101  25.963  20.869   5.020
40884W        W 9102  29.769  21.657  11.012
40885W        W 9103  11.370  13.433   2.228
40886W        W 9104  42.149  35.484   2.308
40887W        W 9105  40.057   1.859   0.877
40888W        W 9106  23.739  25.683  13.079
40889W        W 9107   1.530  34.648  13.357
40890W        W 9108   0.600   8.570   4.661
40891W        W 9109   3.856  29.338  12.698
40892W        W 9110  18.439  30.141   1.708
40893W        W 9111   6.312  11.578  12.086
40894W        W 9112  37.106  14.403  11.132
40895W        W 9113  19.625   9.672   2.814
40896W        W 9114   3.685  20.052  12.377
40897W        W 9115   8.402   1.408   0.268
40898W        W 9116  24.778   2.026   2.687
40899W        W 9117   5.551  21.711   2.724
40900W        W 9118  41.438   5.294  13.545
40901W        W 9119  16.520   2.488   3.190
40902W        W 9120   8.241  32.271  12.047
40903W        W 9121  19.481   7.252  12.492
40904W        W 9122  27.128  42.848  12.809
40905W        W 9123  33.581  26.622  10.969
40906W        W 9124  22.709  10.237   2.881
40907W        W 9125   8.800  44.705   1.657
40908W        W 9126  31.182  12.168  14.333
40909W        W 9127  20.601  26.681   4.565
40910W        W 9128  35.406  20.251   2.262
40911W        W 9129  24.253  10.685   4.496
40912W        W 9130  40.835  16.299  12.475
40913W        W 9131  36.457  10.235   0.285
40914W        W 9132   5.896  19.627   0.109
40915W        W 9133  23.986   3.367  14.772
40916W        W 9134  21.122  12.366   4.643
40917W        W 9135  30.187  13.242   0.963
40918W        W 9136  44.027   8.883   3.937
40919W        W 9137  25.236  25.689  11.126
40920W        W 9138  16.837  36.124   4.271
40921W        W 9139  20.689  12.159  11.856
40922W        W 9140  34.388  42.260   3.154
40923W        W 9141  14.488  17.188  12.096
40924W        W 9142  40.724  10.487  10.969
40925W        W 9143  14.249   0.444  12.582
40926W        W 9144  30.619  18.984  13.400
40927W        W 9145   1.395  21.077   2.830
40928W        W 9146  14.360  22.287   0.372
40929W        W 9147  22.048  16.544  13.004
40930W        W 9148  40.061  43.412   2.123
40931W        W 9149  22.498   7.855  14.379
40932W        W 9150  17.702  37.865   4.611
40933W        W 9151  38.516   3.295   1.831
40934W        W 9152   9.097  10.675   2.662
40935W        W 9153   6.306  10.091  11.131
40936W        W 9154   9.805  12.398   3.748
40937W        W 9155   2.254  42.955   3.212
40938W        W 9156  39.438  40.332   1.924
40939W        W 9157  35.541  18.259   4.582
40940W        W 9158  13.404  18.169   3.246
40941W        W 9159  30.107  43.202  14.804
40942W        W 9160  33.254   7.221   3.181
40943W        W 9161  33.378   6.194  13.072
40944W        W 9162  28.069  13.514   9.657
40945W        W 9163   5.160  30.231  14.291
40946W        W 9164  12.782  17.543   3.371
40947W        W 9165   6.438  29.691  13.946
40948W        W 9166  41.291  26.126   1.718
40949W        W 9167  22.038  10.392  11.928
40950W        W 9168  13.335  42.725  10.941
40951W        W 9169  11.379  44.412  14.384
40952W        W 9170   6.235   0.909  10.629
40953W        W 9171  36.800   5.765   2.732
40954W        W 9172   1.985  27.094  11.609
40955W        W 9173  42.939  17.334  11.568
40956W        W 9174   6.903  22.733   2.969
40957W        W 9175   1.524  34.087   1.700
40958W        W 9176  33.227  15.821  10.880
40959W        W 9177   2.785  12.600   2.771
40960W        W 9178  23.771  42.435  14.956
40961W        W 9179  26.555  14.980  11.553
40962W        W 9180  35.953  23.539  11.938
40963W        W 9181  26.554  34.620   0.466
40964W        W 9182  40.254  29.904   1.674
40965W        W 9183  22.826   1.845   1.453
40966W        W 9184   9.366  26.918   2.327
40967W        W 9185  41.471   4.545   0.791
40968W        W 9186  24.355  35.005  14.006
40969W        W 9187  16.312   9.351  13.884
40970W        W 9188   8.036  26.241  11.095
40971W        W 9189  12.101  18.179   0.538
40972W        W 9190  17.118  24.662  13.026
40973W        W 9191  20.728  40.050   3.402
40974W        W 9192  29.449  38.510  12.429
40975W        W 9193   7.798  16.283   3.941
40976W        W 9194  41.044  10.244  14.000
40977W        W 9195  24.596  41.452  10.733
40978W        W 9196  17.520  20.572   0.273
40979W        W 9197  31.387   5.367   1.435
40980W        W 9198  22.818  12.542  13.298
40981W        W 9199  24.681  35.927   1.005
40982W        W 9200  31.062  26.236   4.004
40983W        W 9201  36.989  23.674  14.484
40984W        W 9202  23.359  41.980   3.504
40985W        W 9203  15.084  16.169   1.501
40986W        W 9204  15.645   4.767  12.981
40987W        W 9205  17.201  31.846  14.220
40988W        W 9206  14.213  32.023  11.173
40989W        W 9207  24.636  18.013  12.679
40990W        W 9208  15.570  22.447   0.865
40991W        W 9209  25.716  18.090  12.021
40992W        W 9210  24.513  37.736   0.322
40993W        W 9211  14.125   5.168   0.826
40994W        W 9212  27.015  39.013  13.051
40995W        W 9213  32.436   5.385  11.145
40996W        W 9214   6.420  21.735  11.443
40997W        W 9215  14.059  32.512  14.748
40998W        W 9216   4.928  12.105   4.105
40999W        W 9217  42.221   8.338  14.848
41000W        W 9218  24.002   6.239   1.463
41001W        W 9219  26.903   2.337   4.493
41002W        W 9220  16.108  10.001  11.203
41003W        W 9221  40.670   3.485  11.222
41004W        W 9222  18.092  24.454  13.006
41005W        W 9223  26.876  29.281   4.457
41006W        W 9224  13.585  20.155  11.200
41007W        W 9225  25.454  40.841  12.006
41008W        W 9226  37.515  16.631   0.455
41009W        W 9227  28.095  42.719  11.034
41010W        W 9228   3.111   0.985   5.086
41011W        W 9229  25.090  42.121   0.967
41012W        W 9230  22.149  20.973   1.895
41013W        W 9231  37.044  38.348  11.506
41014W        W 9232  26.748  12.276   1.464
41015W        W 9233  41.538  19.565   5.014
41016W        W 9234  17.648   1.074   0.651
41017W        W 9235  33.104  22.047  12.599
41018W        W 9236   0.749   1.568   0.212
41019W        W 9237  28.134  43.250  12.009
41020W        W 9238   4.394  32.266   3.152
41021W        W 9239   5.300  38.946  10.909
41022W        W 9240   0.988  23.240   0.348
41023W        W 9241   8.366  26.939   0.416
41024W        W 9242  44.193  25.104  14.930
41025W        W 9243   8.841  10.164  12.491
41026W        W 9244  43.096  22.404  13.941
41027W        W 9245   7.666   7.950  14.820
41028W        W 9246  35.132  31.771   4.231
41029W        W 9247  17.861  27.899  11.460
41030W        W 9248   1.034  15.226   2.374
41031W        W 9249  22.815  39.887   0.940
41032W        W 9250  23.415  29.835  13.239
41033W        W 9251   5.407  16.332   5.406
41034W        W 9252   1.997   8.196  12.161
41035W        W 9253  33.855  38.509  12.953
41036W        W 9254  19.156  36.776   1.390
41037W        W 9255  18.181  12.886  13.921
41038W        W 9256  41.219   1.532  11.596
41039W        W 9257  23.227   6.498  12.843
41040W        W 9258  20.570   1.717  14.282
41041W        W 9259  34.935  22.462  13.563
41042W        W 9260  27.564  23.699   3.672
41043W        W 9261  24.256  41.556  12.188
41044W        W 9262  32.249  36.102  14.875
41045W        W 9263  10.848  15.852   0.834
41046W        W 9264  41.286  23.114   1.352
41047W        W 9265  28.609   8.270   2.135
41048W        W 9266  40.753  37.268   2.164
41049W        W 9267   7.479   3.216  14.506
41050W        W 9268   5.692  44.249   4.423
41051W        W 9269  42.865   9.183   4.067
41052W        W 9270  24.168  40.952  13.424
41053W        W 9271  15.502  36.453   1.005
41054W        W 9272  26.963  14.557   2.747
41055W        W 9273  17.301  37.443   4.632
41056W        W 9274  40.339  10.642  12.412
41057W        W 9275  31.650  14.205   0.272
41058W        W 9276  31.764  43.793  11.431
41059W        W 9277  25.249  40.678   1.899
41060W        W 9278  26.984  29.087  14.314
41061W        W 9279  18.072   9.093  14.334
41062W        W 9280  25.705   3.321  13.703
41063W        W 9281  23.589   0.155  10.378
41064W        W 9282   2.710  27.414   4.297
41065W        W 9283  34.012  34.293  11.142
41066W        W 9284  43.808  17.927  11.509
41067W        W 9285   5.422  26.479  11.432
41068W        W 9286   9.587  36.360  12.988
41069W        W 9287  13.819  39.879   1.118
41070W        W 9288   9.112  35.453  14.017
41071W        W 9289   2.312   5.752  14.731
41072W        W 9290   5.724   5.229   4.626
41073W        W 9291  19.240  22.524  12.539
41074W        W 9292  36.043  32.578  14.134
41075W        W 9293   7.218  44.822  11.538
41076W        W 9294  36.092  12.304   3.201
41077W        W 9295   6.362  27.683  13.762
41078W        W 9296   9.564  40.755  13.830
41079W        W 9297   9.385   8.624  13.392
41080W        W 9298   3.274   9.632  11.064
41081W        W 9299   1.724   5.707  11.503
41082W        W 9300  31.363  10.721  13.668
41083W        W 9301  21.154   3.052  14.163
41084W        W 9302  26.649   7.510   2.718
41085W        W 9303  24.296   1.119   3.579
41086W        W 9304  21.498  15.898  12.044
41087W        W 9305  30.696   2.192  12.502
41088W        W 9306  35.238   9.665   4.384
41089W        W 9307  35.051  19.540   3.265
41090W        W 9308  43.304  10.060  12.429
41091W        W 9309   3.931  44.403   4.602
41092W        W 9310  44.435  30.738   1.378
41093W        W 9311  37.705  15.747   1.827
41094W        W 9312  24.455  35.278  13.578
41095W        W 9313  39.972  43.620   4.122
41096W        W 9314  30.445  34.855  12.435
41097W        W 9315  28.442  16.879   5.491
41098W        W 9316  27.528  44.688   1.663
41099W        W 9317  22.060  13.303   2.713
41100W        W 9318  44.925  44.722   0.249
41101W        W 9319  38.390  27.032   0.002
41102W        W 9320   0.261  16.608   4.631
41103W        W 9321   6.896  13.958   0.662
41104W        W 9322  37.163  24.007  10.385
41105W        W 9323  17.193  40.548   4.658
41106W        W 9324  19.194  27.150   0.085
41107W        W 9325   2.640  39.033  14.245
41108W        W 9326  17.057  41.379  14.773
41109W        W 9327  24.229  22.818  10.724
41110W        W 9328   1.238  40.885  13.489
41111W        W 9329  16.128   4.696  13.452
41112W        W 9330   4.903   5.323  14.844
41113W        W 9331  17.264  38.339   1.758
41114W        W 9332  36.484  25.190  11.377
41115W        W 9333  31.927  19.338  11.536
41116W        W 9334   4.756  19.471  11.493
41117W        W 9335  38.407  32.512   2.756
41118W        W 9336  38.090   6.660   4.152
41119W        W 9337  24.464   7.116  11.429
41120W        W 9338   4.761  38.925  12.235
41121W        W 9339  32.826  37.549   1.495
41122W        W 9340  38.798   3.329  11.614
41123W        W 9341  25.101  44.225  12.751
41124W        W 9342   1.467   6.889   3.316
41125W        W 9343  27.168  21.922  12.858
41126W        W 9344  40.932  35.943  11.116
41127W        W 9345  17.117  16.151   2.126
41128W        W 9346  30.571   5.825   3.640
41129W        W 9347  28.710  12.290  13.368
41130W        W 9348  24.776  40.878   1.770
41131W        W 9349   3.984  20.620  10.549
41132W        W 9350  34.955   4.216  10.534
41133W        W 9351  12.639   6.320   1.920
41134W        W 9352  17.208  34.251   2.899
41135W        W 9353  30.743   9.694   3.549
41136W        W 9354  23.996  13.835   3.601
41137W        W 9355   8.606  18.152  13.584
41138W        W 9356   2.537  17.768  11.244
41139W        W 9357  36.481  30.938  10.736
41140W        W 9358   9.776  36.417  12.134
41141W        W 9359   4.312   7.755  11.629
41142W        W 9360  19.766  31.604  14.166
41143W        W 9361  44.519  29.681  14.485
41144W        W 9362   7.015  14.583  13.476
41145W        W 9363  24.741  17.627   1.999
41146W        W 9364  25.793   2.274  10.953
41147W        W 9365  27.565  34.071  11.577
41148W        W 9366  32.040  15.567   5.025
41149W        W 9367   6.605  33.019   4.139
41150W        W 9368  12.516  38.407   4.316
41151W        W 9369   9.609  29.166  12.422
41152W        W 9370  43.771  13.992   2.119
41153W        W 9371  14.206  27.136   1.836
41154W        W 9372   0.432  40.516  12.111
41155W        W 9373  43.052   2.363  14.601
41156W        W 9374   6.279  42.921  12.579
41157W        W 9375  41.768   5.530   0.890
41158W        W 9376  32.355  38.707  11.118
41159W        W 9377  33.894  30.013  10.888
41160W        W 9378  18.637  38.912   0.511
41161W        W 9379  42.433   7.962  11.306
41162W        W 9380  29.460   1.171  11.568
41163W        W 9381  11.145   7.065   0.720
41164W        W 9382   4.947  30.962  14.887
41165W        W 9383  11.611  13.902   2.293
41166W        W 9384  21.489  36.061  12.937
41167W        W 9385  29.591  23.469  11.482
41168W        W 9386  18.641  30.600  10.660
41169W        W 9387  21.295  25.578   4.966
41170W        W 9388  10.265  36.078   1.959
41171W        W 9389  40.315  30.848   0.742
41172W        W 9390  25.568  13.568  10.325
41173W        W 9391   3.696  18.184   2.247
41174W        W 9392  10.117   6.262   1.836
41175W        W 9393   7.248   7.004   0.450
41176W        W 9394  23.085  31.554   3.280
41177W        W 9395  37.958  44.472   4.192
41178W        W 9396   1.426  19.019   3.998
41179W        W 9397  11.466  13.749   1.782
41180W        W 9398  32.953  17.073   2.925
41181W        W 9399  30.911   6.906  11.575
41182W        W 9400  16.627  41.618   2.193
41183W        W 9401  39.522  43.424  12.542
41184W        W 9402  28.184  14.356  12.049
41185W        W 9403  16.106   1.675  11.673
41186W        W 9404  11.539  39.384  12.517
41187W        W 9405   8.438  34.914   2.459
41188W        W 9406  10.794   0.967  11.917
41189W        W 9407  20.981   7.487  10.630
41190W        W 9408  24.912  42.523   3.155
41191W        W 9409  30.653  24.500   1.423
41192W        W 9410  32.146  31.687   4.767
41193W        W 9411   6.312  15.723   4.448
41194W        W 9412  26.640  27.085  11.486
41195W        W 9413   0.262  13.715   2.792
41196W        W 9414  19.184  18.039   4.198
41197W        W 9415  13.219   5.657   3.615
41198W        W 9416  28.450   9.791   3.153
41199W        W 9417  43.011  37.920   4.090
41200W        W 9418  37.989  17.597   0.345
41201W        W 9419   9.113  43.755  14.452
41202W        W 9420  11.802  43.012   1.395
41203W        W 9421  24.972  16.633   0.238
41204W        W 9422  35.247  39.717   2.281
41205W        W 9423  17.267  35.756   0.244
41206W        W 9424  15.635  30.492  12.370
41207W        W 9425  29.691   1.911   1.491
41208W        W 9426  35.313  34.940   4.939
41209W        W 9427   5.321  22.302  13.858
41210W        W 9428  36.858  41.954   1.375
41211W        W 9429   4.689  27.900   4.597
41212W        W 9430  10.653  14.735  14.445
41213W        W 9431   2.786  21.044   2.368
41214W        W 9432   3.702   2.915  13.351
41215W        W 9433  31.898   3.211   0.899
41216W        W 9434  22.544  18.358   4.583
41217W        W 9435  39.080  41.650   1.804
41218W        W 9436  20.616  27.666   4.117
41219W        W 9437  19.702  29.459   4.505
41220W        W 9438  18.500  44.879   2.005
41221W        W 9439  39.776   7.858  13.939
41222W        W 9440  33.979  24.587  10.389
41223W        W 9441  43.949  14.892   2.010
41224W        W 9442  43.095  23.310   4.515
41225W        W 9443   5.848  16.625   9.817
41226W        W 9444   1.294   7.180   0.902
41227W        W 9445  12.701  33.595  10.665
41228W        W 9446  44.381  39.497  11.961
41229W        W 9447  12.738  10.350   3.220
41230W        W 9448  19.824  20.676   2.139
41231W        W 9449  25.154   1.878  13.908
41232W        W 9450  23.983  21.285  11.171
41233W        W 9451  32.496  11.360   1.405
41234W        W 9452  26.006  42.557   0.521
41235W        W 9453  42.755   3.795   2.110
41236W        W 9454   4.660  44.027   1.858
41237W        W 9455  20.633  41.946  13.191
41238W        W 9456   9.848  17.983  11.183
41239W        W 9457  41.074  31.564   2.314
41240W        W 9458  12.617   0.311   1.009
41241W        W 9459   8.926   6.255   0.301
41242W        W 9460   5.291   3.033   2.393
41243W        W 9461  32.935  35.502   3.683
41244W        W 9462  40.334  44.456  11.082
41245W        W 9463  41.119  42.343   4.093
41246W        W 9464  29.141   1.755   0.669
41247W        W 9465  15.487  15.520  11.972
41248W        W 9466  44.804  12.574  11.469
41249W        W 9467  15.532  16.272  11.141
41250W        W 9468  35.927   9.649   4.196
41251W        W 9469  41.992  10.107  14.825
41252W        W 9470   0.705   0.722  10.602
41253W        W 9471  12.773  34.671   2.812
41254W        W 9472  39.002  19.824  14.337
41255W        W 9473  29.895  44.341  11.712
41256W        W 9474  29.417  24.083  12.092
41257W        W 9475  37.896   2.829   2.251
41258W        W 9476   4.006  27.102  12.308
41259W        W 9477  12.371   0.495   1.988
41260W        W 9478  44.306  26.708  13.387
41261W        W 9479   4.909  36.424  12.046
41262W        W 9480   3.449  38.589  12.949
41263W        W 9481  40.840   0.308   3.716
41264W        W 9482  41.632  43.949  12.067
41265W        W 9483  16.097  38.383   1.223
41266W        W 9484  33.671  14.318   0.504
41267W        W 9485  21.688  33.922   2.709
41268W        W 9486  30.569  12.497  13.881
41269W        W 9487  19.753   1.308  11.204
41270W        W 9488  32.307  12.347  13.290
41271W        W 9489  11.559  23.629  14.554
41272W        W 9490  16.998  26.388  13.448
41273W        W 9491  42.019   7.940  12.558
41274W        W 9492   0.672   6.957  13.328
41275W        W 9493  29.013  16.647   1.783
41276W        W 9494   4.863  39.807   4.792
41277W        W 9495   9.536  15.158  10.799
41278W        W 9496  35.872   1.934  10.713
41279W        W 9497  40.971   7.473   4.645
41280W        W 9498   6.775  26.163   1.661
41281W        W 9499  18.653  44.467   4.932
41282W        W 9500  26.987  28.710   0.198
41283W        W 9501  18.210   7.169   3.613
41284W        W 9502  21.668  41.081  13.652
41285W        W 9503  39.043  39.037  11.431
41286W        W 9504  22.137   2.412  14.097
41287W        W 9505  16.646  25.266   1.059
41288W        W 9506  17.641  26.441   4.107
41289W        W 9507   7.411  31.324   1.688
41290W        W 9508  25.518  29.642   3.587
41291W        W 9509  27.527  38.377  11.213
41292W        W 9510  10.214   6.192   4.088
41293W        W 9511  13.165  26.480  13.022
41294W        W 9512  14.530  37.482  13.669
41295W        W 9513  36.348  21.514  13.955
41296W        W 9514  36.891  34.144  14.869
41297W        W 9515   6.759  37.129  10.424
41298W        W 9516  31.178  28.393  14.828
41299W        W 9517  42.444  29.443  11.235
41300W        W 9518  16.044  13.807  11.189
41301W        W 9519  41.615  36.590   2.274
41302W        W 9520  14.047   6.969   2.780
41303W        W 9521  14.702  26.307  11.017
41304W        W 9522  36.235  26.686   1.000
41305W        W 9523  31.049  32.664  12.097
41306W        W 9524  29.632  27.072  10.515
41307W        W 9525  20.697   8.880  14.779
41308W        W 9526  41.464  26.136   1.220
41309W        W 9527  32.076   0.946   3.091
41310W        W 9528  21.272  31.981  12.080
41311W        W 9529  10.102  32.957  12.396
41312W        W 9530  12.135  20.219   4.037
41313W        W 9531  28.245  25.306  10.550
41314W        W 9532  19.164  25.068  13.733
41315W        W 9533  22.106  33.837   1.289
41316W        W 9534  44.001   8.747   3.293
41317W        W 9535  15.981  15.369   3.716
41318W        W 9536   9.469   3.355   2.379
41319W        W 9537  35.529  41.508  10.811
41320W        W 9538   2.900  31.651   4.658
41321W        W 9539  12.179   0.785  12.593
41322W        W 9540  19.327   7.763   4.307
41323W        W 9541  12.723  22.451   3.241
41324W        W 9542  32.473   9.185   3.892
41325W        W 9543  24.068  35.475  13.908
41326W        W 9544  35.829  13.349   4.267
41327W        W 9545  24.829  42.171  11.871
41328W        W 9546   2.264  25.506   3.751
41329W        W 9547  27.315   8.232   3.332
41330W        W 9548   8.295  17.735  14.272
41331W        W 9549   2.420  32.837   1.461
41332W        W 9550  27.744   3.988  12.026
41333W        W 9551  32.013  15.182   0.994
41334W        W 9552  29.834  42.787   2.913
41335W        W 9553  38.082  19.862   1.504
41336W        W 9554  10.292  42.835  13.137
41337W        W 9555   6.855  15.316   4.015
41338W        W 9556  25.180   5.527   0.874
41339W        W 9557  24.274   0.814   3.184
41340W        W 9558   1.814  41.323  10.827
41341W        W 9559  18.310  31.646  13.602
41342W        W 9560  33.647   0.179  12.944
41343W        W 9561   9.615  10.806  13.321
41344W        W 9562  25.469  33.691   3.729
41345W        W 9563  18.971  23.921  11.120
41346W        W 9564  36.975  36.488   3.389
41347W        W 9565  20.348  40.394   3.565
41348W        W 9566  18.988  41.379  11.919
41349W        W 9567  10.033  14.331  13.809
41350W        W 9568  42.811  36.276  11.974
41351W        W 9569  32.808  35.743   3.214
41352W        W 9570  37.742  18.308  10.909
41353W        W 9571  28.157   5.964   2.948
41354W        W 9572   4.215  13.241  13.574
41355W        W 9573   8.685  31.401  11.210
41356W        W 9574  28.679  42.034   3.645
41357W        W 9575  27.331  26.478   0.635
41358W        W 9576  41.923  37.418   4.123
41359W        W 9577  27.978  35.602  14.733
41360W        W 9578  38.302   9.665   0.882
41361W        W 9579   6.618  18.098   2.706
41362W        W 9580  14.774   7.704   0.016
41363W        W 9581  40.691  27.605  14.941
41364W        W 9582   4.911  42.710   4.632
41365W        W 9583   4.647  40.019   2.721
41366W        W 9584   8.787  15.372   4.177
41367W        W 9585   6.318  34.754   2.761
41368W        W 9586  32.796  31.982   0.474
41369W        W 9587  21.641  15.840  10.238
41370W        W 9588  21.786  39.123   4.618
41371W        W 9589   1.208  13.717   3.757
41372W        W 9590  15.999  12.621   3.255
41373W        W 9591   6.342  18.296  12.447
41374W        W 9592   2.974  12.560  13.263
41375W        W 9593   9.191   3.805  10.592
41376W        W 9594  34.660  25.538   0.917
41377W        W 9595  19.158  42.052  13.881
41378W        W 9596  40.569  16.194  14.146
41379W        W 9597   3.945  23.596   4.610
41380W        W 9598  40.081   7.015  14.551
41381W        W 9599  29.524  18.076  11.587
41382W        W 9600  18.131   1.135  11.821
41383W        W 9601  34.972   8.726  13.385
41384W        W 9602  33.741  37.515  13.682
41385W        W 9603  30.050  39.095  11.381
41386W        W 9604   2.625  42.715   2.302
41387W        W 9605  27.378   3.382  14.021
41388W        W 9606  23.110  40.806   4.361
41389W        W 9607   1.423  12.009   0.786
41390W        W 9608  26.574  28.977  14.032
41391W        W 9609   0.771  25.689  11.125
41392W        W 9610  13.233  12.349   0.509
41393W        W 9611  27.073  14.658   1.840
41394W        W 9612  31.043   9.117  10.930
41395W        W 9613   6.357   5.315   3.513
41396W        W 9614  29.518  27.682   2.717
41397W        W 9615  40.828  15.783   1.272
41398W        W 9616  32.403  36.145   2.692
41399W        W 9617  28.970   2.781   2.830
41400W        W 9618  29.462  10.745   4.524
41401W        W 9619  35.014  23.169  12.904
41402W        W 9620  37.475  33.554  13.499
41403W        W 9621  14.538  42.280  14.470
41404W        W 9622  18.494  22.466   3.705
41405W        W 9623  41.087  10.000  12.092
41406W        W 9624   3.848   7.592   2.113
41407W        W 9625  43.852  32.911  13.861
41408W        W 9626  36.300  14.837  14.281
41409W        W 9627  28.156  26.427   1.913
41410W        W 9628  38.599   1.349  10.720
41411W        W 9629   3.732   2.496  12.966
41412W        W 9630  14.751  36.163  10.039
41413W        W 9631  18.641  16.589   0.416
41414W        W 9632  26.624  40.088   1.776
41415W        W 9633  28.214  41.386  11.957
41416W        W 9634  32.028  41.230  12.037
41417W        W 9635  22.060  12.407   4.711
41418W        W 9636  16.250  22.492  13.564
41419W        W 9637  41.884  20.192  14.489
41420W        W 9638   1.445  36.876  13.493
41421W        W 9639  21.744  24.113  13.432
41422W        W 9640   0.267  38.964  12.967
41423W        W 9641   7.501  41.293  12.802
41424W        W 9642  13.276  38.453  13.444
41425W        W 9643  21.024  25.866   0.938
41426W        W 9644  21.504  12.798   1.308
41427W        W 9645  40.606  11.441   1.702
41428W        W 9646   5.768  26.126  10.627
41429W        W 9647   7.207  24.835   1.308
41430W        W 9648   7.807  26.436   3.705
41431W        W 9649  22.290  32.619  12.593
41432W        W 9650  38.306   0.392  13.481
41433W        W 9651  44.219  43.383  13.690
41434W        W 9652  18.952   8.471  14.572
41435W        W 9653  38.704  31.553  11.967
41436W        W 9654   7.881  11.250   2.625
41437W        W 9655   5.747   8.961   2.783
41438W        W 9656   4.821   2.995   0.995
41439W        W 9657  36.005  44.815  14.703
41440W        W 9658  42.255   4.264  11.072
41441W        W 9659  18.289  33.038  13.450
41442W        W 9660   9.646  14.014  12.880
41443W        W 9661  28.505  44.473   2.593
41444W        W 9662  38.341  15.838   0.981
41445W        W 9663  34.985   5.744  11.642
41446W        W 9664  23.248  12.612   1.712
41447W        W 9665   9.853  44.855  10.450
41448W        W 9666  29.487  37.136  14.394
41449W        W 9667  29.540   8.634   0.425
41450W        W 9668  26.038  36.514   4.435
41451W        W 9669  39.800   0.384  13.478
41452W        W 9670  17.593  32.909   2.426
41453W        W 9671   6.852  28.530  12.153
41454W        W 9672  42.843  23.162  11.958
41455W        W 9673  27.837  27.442  12.457
41456W        W 9674  21.431  20.760  11.488
41457W        W 9675  32.539  37.940   4.238
41458W        W 9676  22.296  18.219  11.708
41459W        W 9677  20.493  37.122   4.159
41460W        W 9678  33.344  24.657  12.619
41461W        W 9679  37.507   0.030   2.771
41462W        W 9680   7.969  14.766   4.173
41463W        W 9681  22.785  19.032   1.780
41464W        W 9682  28.142  35.007   1.017
41465W        W 9683  27.735   7.593  12.304
41466W        W 9684  39.018   0.184   3.679
41467W        W 9685  18.115   2.366  12.220
41468W        W 9686  34.990  29.751   1.691
41469W        W 9687  40.080  15.188  11.382
41470W        W 9688  44.696   9.836  14.019
41471W        W 9689  27.484  15.548   1.420
41472W        W 9690  22.118  12.097   0.323
41473W        W 9691  28.920  43.979  11.064
41474W        W 9692  44.503  10.164  12.777
41475W        W 9693  20.696  13.556   4.482
41476W        W 9694  37.416  34.647   4.098
41477W        W 9695  18.625   6.309   1.675
41478W        W 9696  33.177   8.803   4.541
41479W        W 9697   9.945  40.009   2.220
41480W        W 9698  43.724  28.485   1.333
41481W        W 9699  31.359  39.621  13.115
41482W        W 9700  17.601  34.545   1.578
41483W        W 9701  16.038  26.099   2.258
41484W        W 9702  17.901  18.994   2.198
41485W        W 9703  41.557  32.078   3.332
41486W        W 9704   8.885  30.053  10.782
41487W        W 9705  14.028  29.629   1.028
41488W        W 9706   7.890   7.236  11.349
41489W        W 9707  17.092  33.346  13.491
41490W        W 9708  38.953  26.142   3.713
41491W        W 9709  44.747  40.995   4.644
41492W        W 9710   7.707   5.634  13.561
41493W        W 9711   8.728  41.088  13.508
41494W        W 9712  15.308   2.963   3.780
41495W        W 9713  13.902  32.583  10.564
41496W        W 9714   1.731  37.030   2.688
41497W        W 9715  39.549  10.184  11.579
41498W        W 9716  28.010   1.893  13.469
41499W        W 9717   4.373   6.762   0.192
41500W        W 9718  12.270  29.568   2.797
41501W        W 9719  37.834  16.366   4.184
41502W        W 9720  38.449  11.507  14.533
41503W        W 9721  16.189  21.146  13.938
41504W        W 9722  31.044  17.360  10.823
41505W        W 9723   5.375   0.512  10.624
41506W        W 9724  33.761  10.132  13.359
41507W        W 9725  44.777   1.852  12.102
41508W        W 9726   9.077   2.472  12.087
41509W        W 9727  43.424  28.634   2.224
41510W        W 9728  18.799  30.167   1.291
41511W        W 9729   6.415   3.269   2.090
41512W        W 9730  19.967  38.506   3.689
41513W        W 9731  30.904  13.473  14.416
41514W        W 9732   4.866  14.911   2.783
41515W        W 9733  26.285  13.844  11.923
41516W        W 9734  44.791   4.480   2.668
41517W        W 9735  14.987  13.859  11.445
41518W        W 9736  41.513  35.080  10.399
41519W        W 9737   2.705  25.608  14.502
41520W        W 9738  36.369  35.940  10.790
41521W        W 9739   8.162  39.812   1.822
41522W        W 9740  36.550  19.759   4.119
41523W        W 9741   8.836  22.041  10.850
41524W        W 9742   4.342   1.441   2.320
41525W        W 9743  27.789  13.670  14.941
41526W        W 9744   0.530  20.606  12.567
41527W        W 9745  26.183  42.064  14.516
41528W        W 9746  37.856  16.686   4.983
41529W        W 9747   9.947  35.054  12.060
41530W        W 9748   6.664  38.103   2.295
41531W        W 9749  22.932   4.030  12.531
41532W        W 9750  24.215   2.358  12.616
41533W        W 9751   3.989   9.207  13.731
41534W        W 9752   0.714  19.066   1.512
41535W        W 9753  34.475  24.578   4.527
41536W        W 9754  39.747  28.187  12.567
41537W        W 9755  36.341  28.413   2.726
41538W        W 9756  27.562  28.220   2.131
41539W        W 9757  13.747  37.739   3.797
41540W        W 9758   7.701  15.194  10.784
41541W        W 9759  33.407  12.743   4.977
41542W        W 9760   9.994  34.023  14.907
41543W        W 9761  37.945  28.032  12.739
41544W        W 9762  11.819   1.727  10.483
41545W        W 9763  44.484   8.347  13.906
41546W        W 9764  23.663  17.572  13.545
41547W        W 9765  35.944  41.936  12.331
41548W        W 9766  20.081  33.833   3.632
41549W        W 9767  11.322   0.983   2.369
41550W        W 9768  39.100  44.912  12.411
41551W        W 9769   6.509  36.497   0.005
41552W        W 9770  29.780  32.194  14.993
41553W        W 9771  24.960   8.831   2.147
41554W        W 9772   3.720  21.658   0.749
41555W        W 9773   3.854   3.230   2.209
41556W        W 9774  30.456  38.338  10.589
41557W        W 9775  35.614  29.141  14.269
41558W        W 9776  33.460  14.854  10.699
41559W        W 9777  16.192  21.277   0.084
41560W        W 9778  15.933  18.593   3.690
41561W        W 9779  35.663  18.770  12.120
41562W        W 9780  42.947  27.354   2.300
41563W        W 9781  41.434  36.770  12.925
41564W        W 9782  44.859  15.809   1.761
41565W        W 9783  26.089  28.248   0.316
41566W        W 9784  32.393   6.277   0.074
41567W        W 9785  33.120  29.596   0.282
41568W        W 9786  43.366   3.348   3.670
41569W        W 9787  34.025  23.206   2.779
41570W        W 9788  26.671  22.026   3.216
41571W        W 9789  27.965  18.371  12.564
41572W        W 9790  27.074  12.280  11.073
41573W        W 9791   0.069  23.156  12.871
41574W        W 9792  44.601  41.206   3.064
41575W        W 9793   4.953  37.986   3.079
41576W        W 9794   2.336  14.758  13.354
41577W        W 9795  14.801   5.249   2.089
41578W        W 9796  10.261  33.576  13.000
41579W        W 9797  29.659   1.334   0.863
41580W        W 9798  21.748  21.935   3.931
41581W        W 9799  42.082  16.317   4.411
41582W        W 9800  28.838  21.958  13.083
41583W        W 9801   8.781   9.628   2.472
41584W        W 9802  15.843  14.799  11.184
41585W        W 9803  21.287  32.031   3.804
41586W        W 9804  28.412  18.197   5.027
41587W        W 9805  28.063  13.307   2.482
41588W        W 9806  33.107  31.389   3.183
41589W        W 9807   9.313  38.069  10.692
41590W        W 9808  12.211   1.244  13.979
41591W        W 9809  18.021  14.519  12.306
41592W        W 9810  16.808  26.650  12.973
41593W        W 9811  35.998  10.112  14.998
41594W        W 9812  40.258  37.865  12.592
41595W        W 9813  41.854  10.641  13.813
41596W        W 9814  21.063  15.625  11.087
41597W        W 9815   3.660  14.153   0.400
41598W        W 9816  12.434   6.011  14.719
41599W        W 9817   0.774  37.308   0.123
41600W        W 9818  25.836  11.402   3.298
41601W        W 9819  35.476   1.524   1.488
41602W        W 9820  24.985  19.066   3.732
41603W        W 9821   3.280  29.347   0.101
41604W        W 9822  28.605  14.438   4.768
41605W        W 9823  42.443   9.292   4.335
41606W        W 9824   6.312  31.876  10.301
41607W        W 9825  36.090  11.671   0.961
41608W        W 9826  37.131  28.624   2.439
41609W        W 9827   8.642  16.211   2.126
41610W        W 9828  19.073  26.883  11.277
41611W        W 9829   2.741  11.383   1.793
41612W        W 9830  16.219   8.547  14.449
41613W        W 9831  21.556  43.547  13.417
41614W        W 9832   5.901  28.054   2.582
41615W        W 9833  35.203  13.334  12.493
41616W        W 9834  14.999  26.707   5.000
41617W        W 9835  24.263  10.662   3.658
41618W        W 9836  40.341  39.293   2.713
41619W        W 9837  20.810  24.403   2.745
41620W        W 9838  40.698  22.196  14.065
41621W        W 9839  38.929  20.688   3.681
41622W        W 9840  20.490  14.547   4.591
41623W        W 9841  41.246  36.655   3.690
41624W        W 9842  39.330  30.155   1.326
41625W        W 9843  21.079  29.914   0.342
41626W        W 9844  11.594   5.682  11.171
41627W        W 9845   1.026  19.734   3.777
41628W        W 9846   0.815   8.487  13.421
41629W        W 9847  31.178   7.839  13.393
41630W        W 9848  25.528  12.048  13.347
41631W        W 9849  10.139  27.951   1.188
41632W        W 9850  12.676  12.415  11.071
41633W        W 9851  24.473  38.370  13.005
41634W        W 9852  24.138  14.826   0.250
41635W        W 9853  18.614  28.135  14.951
41636W        W 9854  22.198  41.239   0.206
41637W        W 9855  30.760  32.240  10.150
41638W        W 9856  43.907   2.969   0.918
41639W        W 9857  15.812  31.237   1.408
41640W        W 9858  19.663  29.983   4.463
41641W        W 9859   9.771   0.806  14.104
41642W        W 9860  37.389  38.344   1.746
41643W        W 9861  15.607   1.407  12.437
41644W        W 9862  38.944  36.310  11.006
41645W        W 9863  21.264  23.035   2.372
41646W        W 9864  19.203  28.410   0.120
41647W        W 9865  13.537  19.990  14.103
41648W        W 9866  26.008  11.873   0.950
41649W        W 9867  29.191   1.464  10.360
41650W        W 9868   1.292  33.192   4.548
41651W        W 9869  23.119  17.435  14.449
41652W        W 9870  22.339   4.303  14.677
41653W        W 9871  38.828   3.468   0.840
41654W        W 9872  19.290  21.871  14.714
41655W        W 9873   4.184  16.119  10.720
41656W        W 9874  11.279  37.094  13.827
41657W        W 9875   5.210  20.730  13.846
41658W        W 9876  18.114   6.933   2.307
41659W        W 9877  14.648  25.134  13.154
41660W        W 9878  17.660  14.424   0.399
41661W        W 9879  17.644   9.368  14.406
41662W        W 9880  28.884   0.361  11.483
41663W        W 9881  17.641  37.618  13.408
41664W        W 9882  41.295   9.366   3.239
41665W        W 9883  31.081  19.212   3.271
41666W        W 9884   1.795  32.492  10.449
41667W        W 9885  42.708  40.394  14.018
41668W        W 9886   0.438  24.543   1.398
41669W        W 9887  29.046  11.314   2.285
41670W        W 9888  36.929   6.714  11.447
41671W        W 9889  32.148   3.217   2.206
41672W        W 9890  30.405  18.083  12.267
41673W        W 9891  18.550  39.208   3.339
41674W        W 9892  29.370  30.386   2.193
41675W        W 9893  20.232  25.176  10.794
41676W        W 9894  13.711  20.241  14.993
41677W        W 9895  13.220  12.320  14.992
41678W        W 9896  27.112   3.836  14.104
41679W        W 9897  44.435  14.274  14.970
41680W        W 9898  13.164   0.405   4.630
41681W        W 9899  37.225  15.570  13.522
41682W        W 9900   7.292  18.522  12.483
41683W        W 9901  26.898  39.999   1.306
41684W        W 9902  13.569  29.438   2.347
41685W        W 9903  39.191   2.871   1.914
41686W        W 9904  18.610  23.522  14.528
41687W        W 9905  23.521  23.374   1.330
41688W        W 9906  13.348  31.808   3.651
41689W        W 9907  21.919   0.960   1.090
41690W        W 9908  34.620  19.649   2.865
41691W        W 9909  27.202  31.605  13.798
41692W        W 9910  21.728  16.600  12.573
41693W        W 9911  17.657  13.930   0.297
41694W        W 9912  35.815  36.225   1.480
41695W        W 9913   2.227  13.743   1.216
41696W        W 9914  38.789   5.201  12.627
41697W        W 9915  34.492  22.111   1.972
41698W        W 9916   2.880  30.418  14.063
41699W        W 9917  23.100  41.960   2.361
41700W        W 9918  13.738  22.700  12.942
41701W        W 9919  40.713   7.161  10.309
41702W        W 9920  38.797  21.031  12.954
41703W        W 9921  36.404  14.577   0.973
41704W        W 9922  26.211  25.695  13.970
41705W        W 9923  14.369  22.522  14.055
41706W        W 9924   4.710  24.646  10.784
41707W        W 9925  15.698  22.232  12.976
41708W        W 9926  11.816  37.359   0.929
41709W        W 9927  30.642   0.314  11.614
41710W        W 9928  30.506  39.842  13.326
41711W        W 9929  11.829  14.581   2.772
41712W        W 9930  11.851  35.939  12.573
41713W        W 9931  23.127  31.682  13.466
41714W        W 9932  43.250  41.871  13.272
41715W        W 9933   6.756   0.408   1.902
41716W        W 9934   3.212  15.650  14.492
41717W        W 9935  17.196  34.449  11.143
41718W        W 9936  16.157  22.069  10.683
41719W        W 9937  42.121   0.945   3.567
41720W        W 9938  34.367   1.722   4.642
41721W        W 9939  13.709   7.385   2.867
41722W        W 9940  13.240  28.389   1.778
41723W        W 9941   3.348   2.925  14.185
41724W        W 9942  10.515  25.466  12.994
41725W        W 9943  44.915  28.471  13.463
41726W        W 9944  22.136  26.583  11.395
41727W        W 9945   8.809  16.203   4.084
41728W        W 9946  30.210  18.745  11.601
41729W        W 9947   4.503  11.097  11.095
41730W        W 9948  29.459  23.390  13.782
41731W        W 9949  17.224   2.379  10.216
41732W        W 9950  27.394  35.009   2.358
41733W        W 9951  44.330   4.324   1.343
41734W        W 9952  23.010  36.414  13.280
41735W        W 9953  11.074  12.317   3.417
41736W        W 9954   1.269  30.056  11.219
41737W        W 9955  34.919  16.772  11.130
41738W        W 9956   3.367  36.623  12.343
41739W        W 9957  30.048  12.389  13.977
41740W        W 9958   2.693  41.602   3.956
41741W        W 9959  41.756   4.447   3.694
41742W        W 9960  24.656  26.181   3.747
41743W        W 9961  16.582  41.914   0.662
41744W        W 9962  44.403   8.289   0.348
41745W        W 9963  43.449   4.747   1.003
41746W        W 9964  18.268  20.122  14.850
41747W        W 9965  24.999   2.825  13.376
41748W        W 9966  10.772  11.678  13.110
41749W        W 9967  41.378  18.812  11.861
41750W        W 9968  24.960  24.803   4.378
41751W        W 9969  37.956  24.319  10.702
41752W        W 9970  27.268  34.386   3.214
41753W        W 9971  15.002   8.098   1.464
41754W        W 9972  10.865  40.634   2.943
41755W        W 9973  38.849  10.781  12.912
41756W        W 9974  22.084  20.615   2.305
41757W        W 9975  30.371   7.828   4.692
41758W        W 9976  28.091   7.141  10.847
41759W        W 9977  12.875  10.630   1.255
41760W        W 9978  42.991  27.449  10.490
41761W        W 9979  10.086   3.853   3.959
41762W        W 9980  16.187  11.543  10.825
41763W        W 9981  31.193  27.611  12.031
41764W        W 9982  30.930  22.035  10.696
41765W        W 9983  36.977  30.187  10.747
41766W        W 9984  27.448  36.314  14.780
41767W        W 9985   2.373  26.369   2.820
41768W        W 9986  13.405  38.671  14.434
41769W        W 9987  24.229  17.656  12.853
41770W        W 9988  36.061  25.587   4.786
41771W        W 9989  22.824  15.332  12.050
41772W        W 9990  39.022  13.839   0.965
41773W        W 9991   5.126  16.220   0.297
41774W        W 9992  28.409   9.815   1.284
41775W        W 9993  44.229   4.958  14.447
41776W        W 9994  44.233  39.774   1.245
41777W        W 9995  26.036  31.620   1.174
41778W        W 9996  44.771   5.146   4.293
41779W        W 9997  31.592  41.526   4.528
41780W        W 9998  39.948  10.876  11.155
41781W        W 9999  23.809  36.436   0.977
41782W        W10000  37.886  33.515  11.196
41783W        W10001  40.687  14.177   1.138
41784W        W10002  40.335  24.278  14.321
41785W        W10003  18.895  16.865  11.225
41786W        W10004  34.846  27.875  13.023
41787W        W10005  12.679  10.388   1.704
41788W        W10006   7.337   0.650   3.928
41789W        W10007  42.007  17.378  13.463
41790W        W10008   2.946  34.928   0.247
41791W        W10009  34.368  30.023   2.395
41792W        W10010  10.164  14.824  10.235
41793W        W10011  16.343  19.141   4.239
41794W        W10012  14.318  16.855   2.237
41795W        W10013  13.260  32.921   0.091
41796W        W10014  24.002  20.229  14.819
41797W        W10015  41.588  38.252  14.496
41798W        W10016  24.910  29.648  12.432
41799W        W10017  37.345  35.976   1.212
41800W        W10018  34.900  23.766   4.706
41801W        W10019  35.566  39.929   4.061
41802W        W10020   5.189  38.785   0.009
41803W        W10021  11.108  43.290  11.134
41804W        W10022   0.184  15.969  12.039
41805W        W10023  33.388   1.067   5.283
41806W        W10024  19.551  41.318  11.403
41807W        W10025   2.751  43.819  11.932
41808W        W10026  41.273  11.669   1.009
41809W        W10027  18.343  31.569  12.054
41810W        W10028   4.033   5.726   4.865
41811W        W10029  31.278   6.171  11.018
41812W        W10030  23.121  36.379   4.823
41813W        W10031  30.138  12.290  10.574
41814W        W10032  41.272  43.022  10.665
41815W        W10033  19.760  44.272   2.289
41816W        W10034   6.604  16.251  14.381
41817W        W10035  31.076  26.622   3.665
41818W        W10036  21.067  31.806   4.198
41819W        W10037  14.791  17.560   3.226
41820W        W10038  18.325  26.301   0.345
41821W        W10039  16.279  36.085   0.358
41822W        W10040  15.263  15.662   9.886
41823W        W10041   3.729  26.984   1.049
41824W        W10042  12.308   1.856  12.593
41825W        W10043   2.719   8.946  12.132
41826W        W10044   3.851  44.423   2.766
41827W        W10045  31.625  24.220   2.853
41828W        W10046  42.439  34.517   4.118
41829W        W10047  16.213  38.692   3.216
41830W        W10048  30.577  42.687   2.340
41831W        W10049  36.492  20.317  10.719
41832W        W10050  42.578  29.512  13.946
41833W        W10051  20.596  10.654   0.388
41834W        W10052  23.900   3.103  11.504
41835W        W10053  23.314   3.735  12.402
41836W        W10054  28.684  12.101   3.640
41837W        W10055   0.871  27.943  10.709
41838W        W10056   2.288  44.409  11.573
41839W        W10057  30.353  25.094  12.190
41840W        W10058  19.505   3.416   2.195
41841W        W10059  35.904  15.120   4.523
41842W        W10060   3.733  19.117   2.368
41843W        W10061  24.203  17.492   4.508
41844W        W10062  37.004   8.843  11.540
41845W        W10063   4.834  12.713   2.319
41846W        W10064   5.463  38.467  12.929
41847W        W10065  29.006  40.862   0.539
41848W        W10066  30.158  10.659   1.318
41849W        W10067  41.849  28.552   1.761
41850W        W10068  34.807  29.712  11.100
41851W        W10069   4.916   1.757  13.310
41852W        W10070  23.007  42.770   3.226
41853W        W10071  27.918  29.467  10.591
41854W        W10072  14.684  30.790  12.197
41855W        W10073  33.144  22.911  11.136
41856W        W10074  26.705  16.130  14.077
41857W        W10075   3.151  20.741   3.257
41858W        W10076  26.535  11.557  12.961
41859W        W10077  12.925  31.393  13.329
41860W        W10078  14.657  40.380   2.351
41861W        W10079   7.271  44.669   0.851
41862W        W10080  33.922  19.196   3.734
41863W        W10081  39.308   9.232  14.930
41864W        W10082  19.982  32.110  11.493
41865W        W10083  10.421  22.314   2.004
41866W        W10084  36.973   8.825   3.792
41867W        W10085  43.355   7.668   3.817
41868W        W10086  24.707  16.143   4.698
41869W        W10087  17.025  14.250  12.270
41870W        W10088  20.841  24.565  11.274
41871W        W10089  13.248  32.564  11.079
41872W        W10090  18.507  24.032  13.892
41873W        W10091  25.623  41.101   0.051
41874W        W10092   2.184  22.297   3.885
41875W        W10093   0.974   5.639  11.113
41876W        W10094  13.205  40.331   2.650
41877W        W10095  44.010   4.470   1.713
41878W        W10096  44.757  28.305   2.575
41879W        W10097   7.928  14.589  12.019
41880W        W10098  10.746   7.595   1.275
41881W        W10099   9.141  40.520  14.091
41882W        W10100  39.549  12.660  13.742
41883W        W10101  14.495   0.753  12.943
41884W        W10102   0.317  31.350  14.675
41885W        W10103   0.133  16.145  14.515
41886W        W10104   3.842  41.179  12.204
41887W        W10105  22.530  11.652  14.227
41888W        W10106  32.037  35.479   3.732
41889W        W10107  34.112  36.310  13.840
41890W        W10108  25.841  12.088  12.895
41891W        W10109  22.694  31.497  12.602
41892W        W10110  41.022  32.854   1.159
41893W        W10111   0.742  39.401   1.297
41894W        W10112  34.262  24.687   4.091
41895W        W10113  14.591   6.562   3.228
41896W        W10114  32.154  13.224  13.118
41897W        W10115  16.728  43.378   2.354
41898W        W10116  26.846  30.788  14.222
41899W        W10117  23.039   0.681   2.359
41900W        W10118  40.853   4.963  12.411
41901W        W10119   0.602  16.449   5.033
41902W        W10120   6.276  25.107   4.853
41903W        W10121  17.185  22.586  13.855
41904W        W10122   8.262  43.124   2.579
41905W        W10123  13.156   1.966   4.595
41906W        W10124  24.491  17.990   1.107
41907W        W10125   2.728   9.808  13.790
41908W        W10126  29.549   6.223   3.646
41909W        W10127  40.364  38.660   4.480
41910W        W10128   8.214  25.941  14.499
41911W        W10129  35.483  40.798  14.869
41912W        W10130  20.437  32.690  10.154
41913W        W10131  30.672  24.612   4.433
41914W        W10132  43.929   7.319   1.513
41915W        W10133  27.470   8.626  14.373
41916W        W10134  24.512   9.828  10.700
41917W        W10135  44.007  19.552  14.516
41918W        W10136  23.114  43.744   0.778
41919W        W10137   6.688   5.278  12.917
41920W        W10138   4.841  23.649   0.965
41921W        W10139  35.433   8.974   4.689
41922W        W10140  36.047  40.405   1.215
41923W        W10141   1.319  30.133  12.631
41924W        W10142  31.336   5.446   4.230
41925W        W10143  18.601  17.536  10.638
41926W        W10144  10.902  13.469  12.156
41927W        W10145  32.464   7.729   4.706
41928W        W10146   4.647  16.492  12.390
41929W        W10147  43.778  33.120   0.682
41930W        W10148   6.146  33.526  12.001
41931W        W10149   0.523   4.829   2.119
41932W        W10150   8.010  33.063  14.323
41933W        W10151  31.036  30.703   4.492
41934W        W10152  16.093  30.016   1.021
41935W        W10153  16.877  36.856  12.970
41936W        W10154  20.609  43.306  14.541
41937W        W10155   2.647  15.503   2.653
41938W        W10156  16.604  29.270   3.279
41939W        W10157  40.268   8.868   3.745
41940W        W10158   8.651  23.519  13.856
41941W        W10159  11.064  28.366   1.829
41942W        W10160  25.404  16.779   4.324
41943W        W10161   2.566  12.789   1.809
41944W        W10162   1.423  36.691   1.903
41945W        W10163   9.788   0.373   4.700
41946W        W10164  33.484  41.309   1.883
41947W        W10165  15.095  25.036   0.853
41948W        W10166  26.310   1.388  11.558
41949W        W10167  24.229  21.418   2.346
41950W        W10168   4.430  10.159   0.098
41951W        W10169  24.415  19.350  11.106
41952W        W10170   3.307  37.366   4.925
41953W        W10171  37.026  19.267  12.590
41954W        W10172  36.381   5.621   2.359
41955W        W10173   3.002  39.525   2.108
41956W        W10174  23.068   0.066   3.233
41957W        W10175  13.360  31.456  13.076
41958W        W10176  24.114  39.283   3.623
41959W        W10177  17.574  13.315   1.423
41960W        W10178  38.094  17.174   2.214
41961W        W10179   6.776  37.516  11.252
41962W        W10180  16.107   0.940   3.504
41963W        W10181  38.726  22.396   4.958
41964W        W10182  21.074  27.722   2.744
41965W        W10183  25.017  11.128  10.810
41966W        W10184  12.177   7.954  12.493
41967W        W10185  34.531  18.486  12.510
41968W        W10186  30.636  18.153   2.783
41969W        W10187  17.571   4.388   4.604
41970W        W10188  17.560   4.789  14.015
41971W        W10189  36.223  40.470   9.997
41972W        W10190  39.755  23.930   3.601
41973W        W10191   4.465  27.599   4.166
41974W        W10192  18.076  41.447  14.954
41975W        W10193   1.401  22.003   0.800
41976W        W10194  23.955  12.638   0.353
41977W        W10195  26.121  11.252   4.767
41978W        W10196   3.250  33.951  13.694
41979W        W10197  27.674  24.322  12.518
41980W        W10198   2.963  18.405   3.357
41981W        W10199   2.994  31.929   0.327
41982W        W10200  36.948  42.040  10.582
41983W        W10201  22.101  21.972   3.560
41984W        W10202  35.157  28.507  10.769
41985W        W10203  29.698   0.858  12.936
41986W        W10204   7.800  27.683   3.110
41987W        W10205  29.904  23.203   1.871
41988W        W10206   4.482  16.825   1.399
41989W        W10207  16.310   8.180   1.789
41990W        W10208  44.032  25.940  11.619
41991W        W10209  19.212  20.331  14.918
41992W        W10210  26.463  38.573   4.749
41993W        W10211  35.529  24.247  11.554
41994W        W10212  23.208   5.293  13.837
41995W        W10213  29.821  44.860   0.876
41996W        W10214  41.452  20.855   3.474
41997W        W10215  43.486  43.870   3.643
41998W        W10216   7.572  34.084   0.983
41999W        W10217  43.282  22.128   3.130
42000W        W10218  30.832  36.748  14.328
42001W        W10219   6.364   5.174  14.899
42002W        W10220  24.954  27.598  13.500
42003W        W10221  30.650   4.712  14.447
42004W        W10222  16.214  42.540  11.633
42005W        W10223  31.373   2.789   2.101
42006W        W10224  42.769  26.876  12.661
42007W        W10225  10.970  37.601   1.904
42008W        W10226  35.844  37.384  13.827
42009W        W10227  33.855   2.962  10.624
42010W        W10228  29.124  39.228  12.374
42011W        W10229  19.220  44.599  14.524
42012W        W10230  12.471  14.230  14.303
42013W        W10231  25.239  17.533   3.924
42014W        W10232  38.266  41.005   0.176
42015W        W10233  22.587  11.698   2.123
42016W        W10234  14.552  21.928  11.454
42017W        W10235  13.339  19.807  13.645
42018W        W10236  27.178  24.285   4.227
42019W        W10237  44.838   9.887   4.636
42020W        W10238  26.682  26.834   2.821
42021W        W10239   7.609   9.589   0.163
42022W        W10240  34.925  35.664   2.805
42023W        W10241   5.629  40.625   1.766
42024W        W10242  17.602  34.324  11.947
42025W        W10243  29.690  32.919   1.365
42026W        W10244   5.425  31.641   1.946
42027W        W10245  24.125  40.837   0.310
42028W        W10246  36.580  10.637   3.645
42029W        W10247   2.921   0.261  12.779
42030W        W10248  26.852  34.819   0.830
42031W        W10249  25.940   7.320  11.473
42032W        W10250  44.484  42.763  12.609
42033W        W10251   5.511  12.531   0.479
42034W        W10252  36.847  14.202   0.313
42035W        W10253  41.442  14.143  11.524
42036W        W10254  24.523  17.431   0.294
42037W        W10255  43.888  10.658   1.264
42038W        W10256   7.710  44.384  14.857
42039W        W10257  29.154  34.626   3.223
42040W        W10258  40.977  44.323   0.276
42041W        W10259  26.549   5.341  10.563
42042W        W10260   6.363  39.475   1.283
42043W        W10261   5.251  42.389  13.011
42044W        W10262   9.471  42.570  12.983
42045W        W10263   4.767  38.391   4.278
42046W        W10264   7.578  21.882   2.161
42047W        W10265  36.711  42.730   0.885
42048W        W10266  38.265  40.000  13.427
42049W        W10267  18.674  39.846  11.657
42050W        W10268  17.327  26.299   1.512
42051W        W10269  42.910  26.374  12.612
42052W        W10270  35.284  43.480   3.670
42053W        W10271  19.475  23.658   2.438
42054W        W10272  43.274   5.206   1.875
42055W        W10273   2.339  23.554  12.881
42056W        W10274  14.639   2.334  13.474
42057W        W10275  40.764  29.423   2.705
42058W        W10276  38.076  38.353   3.232
42059W        W10277  23.510  27.945   4.491
42060W        W10278  14.650  30.875  11.699
42061W        W10279  17.552   2.364  11.530
42062W        W10280  20.871   3.293   0.781
42063W        W10281  20.450   5.785  13.587
42064W        W10282  27.665  20.598  13.159
42065W        W10283  38.449  24.460  10.765
42066W        W10284  19.616  19.412  11.747
42067W        W10285  27.977  31.623   2.689
42068W        W10286  28.401   0.349   1.016
42069W        W10287  40.944   8.948  10.765
42070W        W10288  31.011  11.814  13.052
42071W        W10289   3.916   7.274   3.611
42072W        W10290  28.552   1.826  12.048
42073W        W10291  30.542  32.883  10.861
42074W        W10292  20.530  31.054  13.086
42075W        W10293  26.345  23.529  13.222
42076W        W10294  19.237  36.874   2.737
42077W        W10295   1.371  31.565   4.644
42078W        W10296  19.496  18.523  11.608
42079W        W10297  34.998  42.420   1.166
42080W        W10298  32.179   3.766   2.188
42081W        W10299  26.974  20.162  13.335
42082W        W10300   1.334  43.729  11.717
42083W        W10301  15.019  38.499  11.497
42084W        W10302   7.369  22.061   3.032
42085W        W10303   6.423  26.538   0.053
42086W        W10304  11.672  31.637   3.473
42087W        W10305  18.483  39.170   5.025
42088W        W10306  44.705   9.862  11.824
42089W        W10307  39.484   4.483  13.532
42090W        W10308  15.344  24.251  10.582
42091W        W10309   0.972  21.846   2.694
42092W        W10310  41.740  19.731   2.705
42093W        W10311  22.157  36.430  14.484
42094W        W10312  15.266  42.411   2.690
42095W        W10313  26.538   3.323  13.800
42096W        W10314   0.032   8.277  10.762
42097W        W10315  21.866  29.861   1.367
42098W        W10316  44.072  14.095   1.337
42099W        W10317   1.714  32.165   2.497
42100W        W10318   2.644  34.923   3.273
42101W        W10319  29.595  24.482   1.403
42102W        W10320  18.127  30.960  13.767
42103W        W10321  10.844  44.857   0.964
42104W        W10322   3.743   2.065  10.632
42105W        W10323  32.876  16.075   1.749
42106W        W10324  41.544   7.398  11.236
42107W        W10325  22.705   6.123   3.134
42108W        W10326   4.334  43.423  14.553
42109W        W10327  31.460  27.472  11.622
42110W        W10328   5.490  26.905   0.858
42111W        W10329  31.082  28.613   4.121
42112W        W10330  38.747  12.226   1.906
42113W        W10331  30.243  40.412  11.682
42114W        W10332  36.818   4.287   4.216
42115W        W10333  34.813  19.466  11.545
42116W        W10334  22.736  11.211  14.055
42117W        W10335  36.954  22.202   3.388
42118W        W10336  21.526  16.389   1.379
42119W        W10337  38.202  22.674  13.438
42120W        W10338  25.483   1.456  14.537
42121W        W10339  40.887  40.328   3.873
42122W        W10340  28.074   6.093  10.724
42123W        W10341   2.438  32.152   4.215
42124W        W10342  32.036  40.274   3.211
42125W        W10343   2.043  24.498  14.336
42126W        W10344  16.603   6.411   1.256
42127W        W10345  24.136  27.481  11.076
42128W        W10346  38.244  36.475  13.021
42129W        W10347  34.632  31.427  10.531
42130W        W10348  40.972  23.551   3.290
42131W        W10349  27.992  34.539   0.217
42132W        W10350  30.137  24.955  10.746
42133W        W10351  26.975  19.687   1.627
42134W        W10352   3.176  21.383   4.622
42135W        W10353  21.667  18.305  12.848
42136W        W10354   1.567  27.665  14.761
42137W        W10355   2.095  14.072  12.968
42138W        W10356  44.647  24.594  14.074
42139W        W10357  26.436  39.449   3.262
42140W        W10358  13.242   2.359   3.096
42141W        W10359  16.745  43.837  10.195
42142W        W10360   3.712  40.300   3.705
42143W        W10361  41.838  38.280  11.726
42144W        W10362  40.172   1.080   3.724
42145W        W10363  22.029  40.816  11.982
42146W        W10364  12.022   5.850  14.439
42147W        W10365  30.656   8.209   4.480
42148W        W10366  38.981  19.488  13.831
42149W        W10367  29.609  41.946   2.741
42150W        W10368   0.016   3.346   1.982
42151W        W10369   4.816   2.773   2.420
42152W        W10370  27.001  38.429  13.969
42153W        W10371  25.948  28.870   4.545
42154W        W10372  39.962  41.214   4.164
42155W        W10373  29.052  26.890  13.291
42156W        W10374  36.958  12.851   1.695
42157W        W10375  33.767   8.358  12.545
42158W        W10376  42.855   3.915  10.655
42159W        W10377  23.458  22.372  12.387
42160W        W10378  39.885  37.374   4.580
42161W        W10379  37.083  32.949   3.580
42162W        W10380  12.215  21.206  14.851
42163W        W10381  39.400  20.169  14.196
42164W        W10382  31.932  17.405  12.005
42165W        W10383  15.589  33.791   4.033
42166W        W10384  23.106  10.381   1.507
42167W        W10385  44.456   3.503  12.134
42168W        W10386  25.538  32.647  13.489
42169W        W10387  23.835  41.238  14.370
42170W        W10388  22.650  27.548   4.136
42171W        W10389  22.173  43.865   0.435
42172W        W10390  23.109  10.884  13.842
42173W        W10391  13.098   5.275  12.348
42174W        W10392  31.555   6.514  10.092
42175W        W10393  16.014  11.167  11.637
42176W        W10394   3.198  26.260   1.047
42177W        W10395  32.141  26.076   0.688
42178W        W10396  26.606   6.357   2.073
42179W        W10397   2.507  36.079  10.874
42180W        W10398  43.539   9.888  11.166
42181W        W10399   9.458  44.896  10.832
42182W        W10400  35.097  10.407  10.859
42183W        W10401  23.946  37.914  14.721
42184W        W10402  15.744  18.952  10.696
42185W        W10403  23.701   2.822  13.899
42186W        W10404  29.333  37.587   2.126
42187W        W10405  36.884  22.152  12.088
42188W        W10406   1.325  13.225   3.720
42189W        W10407  14.559  36.132   4.762
42190W        W10408  28.578  33.970  12.625
42191W        W10409  11.203  41.926   4.113
42192W        W10410   0.510   4.307   3.032
42193W        W10411   0.426   3.852   3.301
42194W        W10412   2.043  44.266   3.695
42195W        W10413  40.569  11.798  13.784
42196W        W10414   3.599  28.953   0.744
42197W        W10415  11.335  40.602  14.316
42198W        W10416  29.638  17.485   1.786
42199W        W10417  12.627  42.404   1.845
42200W        W10418  17.250  12.953  11.517
42201W        W10419   8.450  10.217  12.850
42202W        W10420  35.905   3.343   5.091
42203W        W10421  23.434  33.647   2.603
42204W        W10422  30.892  10.729   1.926
42205W        W10423   8.043  11.997   1.764
42206W        W10424  10.132  39.996  12.979
42207W        W10425  25.034  23.192  13.397
42208W        W10426  18.815   3.439   0.748
42209W        W10427  29.011  16.819  11.207
42210W        W10428   3.912   0.748  14.842
42211W        W10429  19.925  25.472  11.518
42212W        W10430  28.446  36.243   2.300
42213W        W10431  37.277  24.762   0.500
42214W        W10432  20.590  44.458  13.517
42215W        W10433  17.838  10.463   1.779
42216W        W10434  12.629  32.197  13.065
42217W        W10435  43.429  39.327   3.754
42218W        W10436  30.956  31.361   1.744
42219W        W10437  23.509  14.814  13.939
42220W        W10438  40.586   0.019   0.458
42221W        W10439   5.136  20.664   2.341
42222W        W10440  27.689  41.962   3.950
42223W        W10441  28.521   7.236  11.579
42224W        W10442  19.255  18.040  13.895
42225W        W10443   7.360   1.840   2.867
42226W        W10444  14.807   9.722  12.334
42227W        W10445  43.977  34.557  12.026
42228W        W10446  37.809  11.700  12.737
42229W        W10447  39.352  13.086  13.945
42230W        W10448   2.712  28.673   1.821
42231W        W10449   3.773   2.460   2.760
42232W        W10450  35.607  24.702  13.613
42233W        W10451   3.372  39.062  13.779
42234W        W10452  21.179   7.186   4.058
42235W        W10453  36.438   1.380   1.219
42236W        W10454  19.179  23.924   1.475
42237W        W10455  36.634  35.939  11.474
42238W        W10456  36.871  20.818  14.448
42239W        W10457  11.081  23.108  14.844
42240W        W10458   7.623  24.062   1.136
42241W        W10459   4.142  39.415   4.144
42242W        W10460  31.703  26.590  13.020
42243W        W10461  17.240  29.849  12.989
42244W        W10462  40.809  13.342   0.894
42245W        W10463  22.039  39.198  10.635
42246W        W10464   6.223  38.219   4.628
42247W        W10465  40.767   0.544   3.281
42248W        W10466  36.826  21.518   4.089
42249W        W10467  28.040   6.359   0.396
42250W        W10468   5.901  20.610   0.293
42251W        W10469  24.198   8.816   2.642
42252W        W10470  31.938  17.205  12.951
42253W        W10471  22.917  44.478   4.506
42254W        W10472  11.597  21.288  11.313
42255W        W10473  36.654  19.921  14.278
42256W        W10474   2.606  18.812  12.024
42257W        W10475   5.764  18.320   4.139
42258W        W10476  14.066  35.939   3.865
42259W        W10477  25.439   9.773  14.776
42260W        W10478  33.425  39.727   4.118
42261W        W10479  19.026  37.814  11.991
42262W        W10480  23.989  27.764   3.350
42263W        W10481  38.960  16.533   9.900
42264W        W10482  15.809  14.173   0.878
42265W        W10483  41.863  11.167  10.265
42266W        W10484   6.883   4.461  12.380
42267W        W10485  22.119  18.432   1.798
42268W        W10486  10.226   9.437   2.730
42269W        W10487  23.285  31.625   0.798
42270W        W10488  11.685  41.853  13.531
42271W        W10489   5.980  42.060  14.431
42272W        W10490   2.339  35.111   3.691
42273W        W10491  39.413  31.077  13.411
42274W        W10492  40.601  22.792  10.835
42275W        W10493   1.266  10.862   3.595
42276W        W10494  28.804  36.339   3.361
42277W        W10495  14.177  37.161   5.124
42278W        W10496  17.145  44.412  10.010
42279W        W10497  41.091  22.496  11.617
42280W        W10498   3.857  38.449   2.696
42281W        W10499  18.636  29.415  12.368
42282W        W10500  11.134  19.092  13.079
42283W        W10501  27.541   2.348  12.924
42284W        W10502  15.665   7.931  13.511
42285W        W10503  13.781  25.366   2.866
42286W        W10504  18.292  34.282  13.526
42287W        W10505  44.445  38.332   1.396
42288W        W10506  21.249  24.249  11.547
42289W        W10507  42.035   4.997   2.407
42290W        W10508   1.733  28.614  10.735
42291W        W10509   4.787   0.192   4.111
42292W        W10510  35.092  30.151   0.237
42293W        W10511  16.419  26.691   5.301
42294W        W10512  20.262  12.808   4.612
42295W        W10513  44.460  23.290   4.141
42296W        W10514   2.863  38.484  11.643
42297W        W10515  33.493  36.377  11.492
42298W        W10516  38.522  12.824  12.812
42299W        W10517  30.444  14.113   4.632
42300W        W10518  19.739  17.652   4.816
42301W        W10519  29.387  38.545   2.282
42302W        W10520  32.648   5.394  10.672
42303W        W10521  30.157  43.301   1.747
42304W        W10522  29.874  30.068  12.563
42305W        W10523   3.261  16.973   1.603
42306W        W10524   2.851   7.979   0.349
42307W        W10525  19.606  40.496  12.472
42308W        W10526  23.789  15.250   3.800
42309W        W10527  28.904  40.294  13.368
42310W        W10528   4.367   0.411   4.912
42311W        W10529   1.413  28.424   4.642
42312W        W10530   3.141  23.142   2.832
42313W        W10531   8.842  31.374   1.226
42314W        W10532   7.906   0.221  11.257
42315W        W10533  24.537  36.816   3.861
42316W        W10534  21.730  23.528  11.231
42317W        W10535   5.720  31.489  14.801
42318W        W10536   2.786  34.159   1.173
42319W        W10537  39.942  26.573   3.639
42320W        W10538  10.109  11.660   2.274
42321W        W10539  30.644  19.352   2.303
42322W        W10540  27.739  34.629   2.322
42323W        W10541  42.285  10.906  13.873
42324W        W10542  22.007  29.918   2.194
42325W        W10543  41.607  43.326   4.539
42326W        W10544   5.917   3.640   0.429
42327W        W10545  35.891  20.997   3.810
42328W        W10546  20.942  27.223  13.874
42329W        W10547   9.090  39.503  11.272
42330W        W10548  21.482  35.700   3.434
42331W        W10549  18.761  15.629  14.486
42332W        W10550  35.856  22.312  12.576
42333W        W10551  44.495   9.292   2.854
42334W        W10552   6.332  23.608  12.011
42335W        W10553  28.929  43.334  13.495
42336W        W10554   6.845   9.164   3.444
42337W        W10555  20.896  32.651   5.420
42338W        W10556  10.293  40.037  12.063
42339W        W10557  42.393  36.309  12.530
42340W        W10558  39.443  27.952   3.589
42341W        W10559  23.271  23.893   0.838
42342W        W10560  19.171  17.898   2.076
42343W        W10561  21.166  18.543  13.686
42344W        W10562   5.750  10.598   1.250
42345W        W10563  17.768  14.252  12.645
42346W        W10564  38.355  19.538   3.738
42347W        W10565  36.819  33.165  11.396
42348W        W10566  41.997  35.483  12.548
42349W        W10567  33.174  26.475   1.448
42350W        W10568  16.710  39.355   3.576
42351W        W10569  14.249  39.244  12.014
42352W        W10570  26.444  18.307   0.341
42353W        W10571  11.257  18.746   4.198
42354W        W10572  40.576   5.258   3.914
42355W        W10573  43.067  24.508   4.165
42356W        W10574  15.617   3.646   1.497
42357W        W10575  15.266  40.102  10.631
42358W        W10576  43.481  40.562   3.178
42359W        W10577  20.776  27.309  12.948
42360W        W10578  42.841   4.968   1.764
42361W        W10579  34.486  26.463   2.266
42362W        W10580  26.878  25.453   1.436
42363W        W10581  35.889  23.955  11.072
42364W        W10582  25.377  40.027   0.314
42365W        W10583   1.829   4.307   1.356
42366W        W10584  20.963   3.982   2.994
42367W        W10585  15.327   0.333  14.303
42368W        W10586   8.934  43.374   2.202
42369W        W10587   9.269  31.288   2.922
42370W        W10588  40.886   7.460   2.307
42371W        W10589  25.123  10.900   2.337
42372W        W10590  42.663  12.502   2.698
42373W        W10591   1.538  37.105   3.910
42374W        W10592  21.717  27.345   4.500
42375W        W10593   4.905   8.813  13.453
42376W        W10594   6.346  10.881   0.468
42377W        W10595  30.857   8.555  12.087
42378W        W10596  10.307  21.731  11.498
42379W        W10597  29.358  33.918  11.076
42380W        W10598  41.874  26.192  11.710
42381W        W10599  43.017  43.126   1.005
42382W        W10600  24.416  21.906  13.536
42383W        W10601  35.544  34.846   0.806
42384W        W10602  32.274  12.801  10.689
42385W        W10603  33.904   9.660   3.690
42386W        W10604  15.518  44.488  11.451
42387W        W10605  10.617  22.723  11.111
42388W        W10606   5.761  34.475   4.626
42389W        W10607  26.970  28.501   2.157
42390W        W10608  28.921  32.891   0.928
42391W        W10609  37.975  16.656  10.867
42392W        W10610  26.495  12.077  13.045
42393W        W10611   9.187  27.057   3.749
42394W        W10612  22.023  36.419   0.026
42395W        W10613  24.531  31.911   0.460
42396W        W10614  23.172  42.438   3.603
42397W        W10615  32.568  13.406   2.337
42398W        W10616  32.462  37.662  13.813
42399W        W10617  23.255  14.742   1.836
42400W        W10618  30.468  43.893  11.170
42401W        W10619  26.076  38.084  14.284
42402W        W10620  18.697  19.594   1.777
42403W        W10621  44.274  22.550  13.483
42404W        W10622  44.552  25.790  14.162
42405W        W10623  35.880  12.776   1.446
42406W        W10624  36.691  39.861  14.454
42407W        W10625  12.180  33.543   4.178
42408W        W10626  33.316   4.483  14.936
42409W        W10627  25.797  43.026   2.398
42410W        W10628  19.480  20.513  11.280
42411W        W10629  16.162   4.296   4.827
42412W        W10630  30.541  27.478   0.374
42413W        W10631  33.634   0.373   1.919
42414W        W10632  21.525   2.214  12.825
42415W        W10633  41.843  29.125  14.037
42416W        W10634  30.634  38.628  14.856
42417W        W10635  12.355   6.245   4.458
42418W        W10636  39.106  40.781  13.479
42419W        W10637  34.786  29.704   0.845
42420W        W10638   0.398   2.346  13.302
42421W        W10639  35.065  41.629   0.018
42422W        W10640   5.764  38.440  11.139
42423W        W10641  35.961  35.807  12.550
42424W        W10642   3.446  28.960  11.096
42425W        W10643  34.125  36.585  14.821
42426W        W10644   5.739  38.554   0.900
42427W        W10645  32.548  15.930   3.302
42428W        W10646  32.194  39.729  11.196
42429W        W10647  11.569  29.482   4.234
42430W        W10648   4.240  41.549  14.952
42431W        W10649  35.543  13.096  13.855
42432W        W10650  29.039  18.190  10.280
42433W        W10651  12.932  38.472   0.824
42434W        W10652  44.674  11.787  13.395
42435W        W10653   0.257  27.925  14.758
42436W        W10654   7.361  44.693   1.732
42437W        W10655   8.467  17.856  12.769
42438W        W10656  26.495  40.410  13.348
42439W        W10657  24.074  17.087   4.222
42440W        W10658  14.755  20.230   2.660
42441W        W10659  12.556   1.962  13.330
42442W        W10660   9.226  37.862  11.610
42443W        W10661  11.197  20.047   3.345
42444W        W10662   8.324   7.530   1.824
42445W        W10663  26.554  35.278   2.102
42446W        W10664  37.045   6.832  12.879
42447W        W10665  21.187  22.211  11.505
42448W        W10666   5.443  20.293   0.695
42449W        W10667  10.114  38.002   1.237
42450W        W10668  21.043  34.465   4.039
42451W        W10669  30.407  18.618   1.141
42452W        W10670  36.457   9.424   4.203
42453W        W10671  23.766  35.951   0.701
42454W        W10672  44.598  44.917   2.317
42455W        W10673   6.694   2.820   1.265
42456W        W10674   4.086  26.006  11.208
42457W        W10675  14.143  17.136  13.527
42458W        W10676  32.198  13.564  11.797
42459W        W10677  13.257   3.292  13.383
42460W        W10678  14.661  27.002  13.780
42461W        W10679  10.910  42.374   3.193
42462W        W10680  22.363  31.531  13.017
42463W        W10681  27.673  22.498   2.778
42464W        W10682  43.963  37.060   1.439
42465W        W10683  27.952  37.464  13.860
42466W        W10684  40.848  31.948  14.851
42467W        W10685  31.035  43.398  14.223
42468W        W10686   6.338  33.424  14.851
42469W        W10687  23.658  39.874   1.515
42470W        W10688  23.633  43.300  11.488
42471W        W10689   4.586  27.606   3.157
42472W        W10690   9.179  38.606   4.116
42473W        W10691  39.235  28.034  12.503
42474W        W10692  14.225   9.741  10.803
42475W        W10693   9.441  43.400  14.300
42476W        W10694   3.365  43.962   4.013
42477W        W10695  23.454  39.519   1.200
42478W        W10696  26.622  44.532  11.115
42479W        W10697  37.530  37.386   0.254
42480W        W10698  38.211  25.918  14.777
42481W        W10699  27.989   7.466   1.163
42482W        W10700  33.083  23.534   0.393
42483W        W10701  40.883  38.382   0.738
42484W        W10702   3.938  24.156  11.121
42485W        W10703  13.536  13.152  11.670
42486W        W10704  33.580  27.583  11.625
42487W        W10705   5.234   9.831  11.460
42488W        W10706   7.924  29.011   4.658
42489W        W10707   2.758   9.439   4.372
42490W        W10708  17.252  34.323   3.745
42491W        W10709  40.493  39.467   0.958
42492W        W10710  25.250  14.343  13.973
42493W        W10711  37.507  29.639   2.231
42494W        W10712  23.953  10.041   1.337
42495W        W10713  43.248   0.350  10.883
42496W        W10714  19.350  20.419   4.516
42497W        W10715  28.668  40.769   1.396
42498W        W10716   0.098  30.199  13.996
42499W        W10717  32.435  18.781  12.084
42500W        W10718  42.940  36.635   4.962
42501W        W10719  19.332  41.482   3.682
42502W        W10720  44.892  33.866  12.795
42503W        W10721  30.690  14.903   1.035
42504W        W10722  23.966   4.829  14.873
42505W        W10723  15.258   4.166  12.428
42506W        W10724  22.974  25.494  12.409
42507W        W10725   5.867  40.685  10.225
42508W        W10726   9.779  13.125   0.357
42509W        W10727  17.570  42.952  12.531
42510W        W10728   4.100  37.861  13.653
42511W        W10729  34.809  35.343   4.161
42512W        W10730  32.236  25.945  11.999
42513W        W10731  35.482  44.850   4.096
42514W        W10732  40.845  44.962  14.969
42515W        W10733  25.536  19.730  12.913
42516W        W10734  34.389  42.586  13.557
42517W        W10735  28.378  17.317   2.658
42518W        W10736  36.950   9.735   3.728
42519W        W10737  38.912  20.456   1.349
42520W        W10738  20.691  35.581  10.959
42521W        W10739  10.369  33.798  12.540
42522W        W10740  27.980  28.942   0.255
42523W        W10741   5.346  13.783  11.968
42524W        W10742  23.642  33.034  11.061
42525W        W10743   0.679  20.792  13.026
42526W        W10744  36.454   4.200   1.259
42527W        W10745  33.811  41.299   3.594
42528W        W10746  23.022   2.853  12.377
42529W        W10747   7.866   1.536   2.170
42530W        W10748  34.506  42.240   1.225
42531W        W10749  22.536  26.359   3.716
42532W        W10750  25.954  15.551  10.236
42533W        W10751  18.662  20.789  11.143
42534W        W10752   0.965  42.909   2.800
42535W        W10753  18.564  28.255   3.768
42536W        W10754  11.962   2.246  11.514
42537W        W10755  41.296  11.726  12.476
42538W        W10756  20.015  33.612   2.242
42539W        W10757   4.166  25.957   1.275
42540W        W10758   0.831  13.648   0.434
42541W        W10759  19.312  32.589   0.471
42542W        W10760  41.345   1.556  12.494
42543W        W10761  32.411   7.282   0.677
42544W        W10762   0.506  42.227   4.118
42545W        W10763  27.768   3.304  10.802
42546W        W10764  29.148  43.206  13.952
42547W        W10765  37.631   0.563  11.647
42548W        W10766  24.039  43.685  11.459
42549W        W10767   0.446  33.095  13.057
42550W        W10768  39.274  19.165  12.475
42551W        W10769   6.821  16.087  13.902
42552W        W10770  38.326  35.902  12.694
42553W        W10771  22.987  30.569   0.890
42554W        W10772  28.482  25.328   3.676
42555W        W10773  13.156  35.679  12.451
42556W        W10774  25.631  33.970   3.343
42557W        W10775  11.834  15.170  14.323
42558W        W10776   5.760  42.893   2.899
42559W        W10777  32.079  13.363   2.609
42560W        W10778  26.469  18.629  11.973
42561W        W10779  14.789   9.389   1.026
42562W        W10780  18.639   9.173  10.979
42563W        W10781  24.002  13.815   0.842
42564W        W10782  10.620   2.494   5.237
42565W        W10783  32.219  29.915  14.437
42566W        W10784  20.490  17.006   4.559
42567W        W10785  20.474  32.157  11.622
42568W        W10786   4.388  39.987   9.786
42569W        W10787   8.453  29.232  10.712
42570W        W10788  41.821  34.902   1.612
42571W        W10789  23.364   1.280   4.522
42572W        W10790  22.631  20.209  11.589
42573W        W10791   1.973  28.100   2.204
42574W        W10792  27.558   7.845   3.035
42575W        W10793  29.537   5.993   2.673
42576W        W10794  34.736  34.795   1.247
42577W        W10795  12.141  20.627   2.783
42578W        W10796  35.281  19.579   4.768
42579W        W10797  27.856  32.025  13.525
42580W        W10798  43.793   7.815  13.122
42581W        W10799   6.353  20.672   3.275
42582W        W10800  13.850   4.983  14.360
42583W        W10801   8.758   2.513  14.942
42584W        W10802   3.162   3.921  13.891
42585W        W10803  28.547  27.637  12.973
42586W        W10804  11.878  29.015  12.116
42587W        W10805   0.022  42.838  14.040
42588W        W10806  18.740  19.683  13.490
42589W        W10807  23.125  12.058   2.659
42590W        W10808  17.299  15.192  12.082
42591W        W10809   0.894  22.662  14.461
42592W        W10810  14.019  27.403  11.798
42593W        W10811  39.877  16.964  11.998
42594W        W10812  42.284   1.925  14.722
42595W        W10813   0.937  39.282  10.719
42596W        W10814  24.146  30.151  12.576
42597W        W10815  15.261  23.733   1.459
42598W        W10816  14.672   8.897   0.924
42599W        W10817   5.648  18.361   3.208
42600W        W10818  12.323  29.472   4.605
42601W        W10819  10.820  29.634   4.678
42602W        W10820  20.233  27.483   1.367
42603W        W10821  20.895  17.173   4.903
42604W        W10822  20.705  34.379  12.090
42605W        W10823  37.424  29.091   3.084
42606W        W10824  26.219  20.267  12.973
42607W        W10825  44.967  26.200   1.628
42608W        W10826  12.684  40.287  11.166
42609W        W10827  21.198  43.143  12.085
42610W        W10828   1.534  29.295  12.872
42611W        W10829  31.523  32.364   0.032
42612W        W10830  39.354  21.548   2.804
42613W        W10831  41.790  16.430  12.087
42614W        W10832  12.168   7.497   3.817
42615W        W10833   3.350  12.410   1.889
42616W        W10834  17.114  29.752   4.623
42617W        W10835  42.975  14.801   0.979
42618W        W10836  41.636  28.307   4.871
42619W        W10837  23.130  16.622  14.745
42620W        W10838  40.386   8.915   2.405
42621W        W10839  17.585  32.901   2.930
42622W        W10840   7.301  39.738  14.971
42623W        W10841  33.257   1.211  13.969
42624W        W10842  28.904  28.650  13.353
42625W        W10843  38.117   5.414   3.678
42626W        W10844  38.411   1.477   2.469
42627W        W10845   2.134  39.230   4.158
42628W        W10846  25.960   7.652  13.617
42629W        W10847  29.883  36.985   1.789
42630W        W10848  24.937   7.215   3.132
42631W        W10849   8.649  36.720  13.063
42632W        W10850  25.025  18.082   0.381
42633W        W10851  11.681  33.871  13.347
42634W        W10852  21.937  19.680   3.097
42635W        W10853   2.017  21.848  14.106
42636W        W10854  25.911  35.365  11.986
42637W        W10855  24.440  23.161  11.230
42638W        W10856  13.197  31.961   2.613
42639W        W10857  12.272  15.370   0.384
42640W        W10858  38.320  41.431   2.771
42641W        W10859  21.305  14.660  12.876
42642W        W10860  10.470  27.930  12.104
42643W        W10861   3.823   9.573   0.894
42644W        W10862  17.115  16.635   2.318
42645W        W10863  42.970  13.296  14.517
42646W        W10864  19.765   9.944  13.333
42647W        W10865  12.626  23.527  11.525
42648W        W10866  22.374  27.248   3.242
42649W        W10867  29.465  26.389   1.254
42650W        W10868  31.481   9.200   1.008
42651W        W10869  20.304  31.865  14.958
42652W        W10870  10.922  42.715  12.531
42653W        W10871  22.977  18.862  12.462
42654W        W10872  43.069  43.336  12.414
42655W        W10873  34.059  11.635  14.457
42656W        W10874   3.671  20.056   2.774
42657W        W10875   5.808  34.003   4.360
42658W        W10876  38.136  23.015  10.996
42659W        W10877   7.440   2.206   0.761
42660W        W10878  11.208   9.748  11.703
42661W        W10879   4.581  24.939  11.473
42662W        W10880  35.736  29.466  12.030
42663W        W10881  11.112  27.746  11.636
42664W        W10882  13.229  12.733  14.679
42665W        W10883  26.026  30.109  13.359
42666W        W10884  32.361  20.292   0.964
42667W        W10885  38.716  34.181  13.295
42668W        W10886  28.615  33.949  13.495
42669W        W10887  41.021  12.806   2.423
42670W        W10888  32.263   8.133   1.853
42671W        W10889  39.491  42.429  14.787
42672W        W10890  24.312  20.870   1.643
42673W        W10891   4.193  30.122  11.624
42674W        W10892  31.012   9.409   3.909
42675W        W10893  21.961  15.183  11.869
42676W        W10894   3.676  30.875  14.468
42677W        W10895  20.795  34.393   3.590
42678W        W10896  10.281  36.023   0.559
42679W        W10897  33.306  22.393   4.449
42680W        W10898   8.384  32.443  12.534
42681W        W10899  30.166   7.670   0.726
42682W        W10900  21.505  10.337   4.829
42683W        W10901  31.189   8.445   0.425
42684W        W10902  27.187  38.047   1.370
42685W        W10903  12.853   7.214   3.335
42686W        W10904   2.242  13.614   2.201
42687W        W10905  21.154  10.793  12.619
42688W        W10906  37.833  22.690  11.406
42689W        W10907  29.422  23.577  11.968
42690W        W10908  41.525  29.858   3.336
42691W        W10909  11.310  32.899   1.642
42692W        W10910  30.454  41.008   3.305
42693W        W10911   2.324  32.507   4.594
42694W        W10912  22.779  32.476  13.548
42695W        W10913  24.958  43.433  13.312
42696W        W10914  36.816  38.018  14.562
42697W        W10915   1.401   5.493  13.918
42698W        W10916  32.691  38.410   4.143
42699W        W10917  28.434  20.103   0.380
42700W        W10918  16.806  18.593   1.726
42701W        W10919  18.116  15.214   3.164
42702W        W10920  44.741  39.067  13.877
42703W        W10921   0.846  19.835  12.819
42704W        W10922  42.357  38.965  10.448
42705W        W10923  26.533  12.855   2.456
42706W        W10924  32.304  16.674   2.260
42707W        W10925   3.245  38.282  13.299
42708W        W10926  30.610  10.401   1.263
42709W        W10927   4.472  14.602   3.687
42710W        W10928  26.065  14.516  10.344
42711W        W10929  41.720  31.058  12.542
42712W        W10930  19.287  23.732   1.948
42713W        W10931  36.518  10.411   0.756
42714W        W10932  37.973  33.845   4.007
42715W        W10933  15.163   8.120  13.636
42716W        W10934   6.295  35.823   4.652
42717W        W10935  11.218  30.420   4.934
42718W        W10936  36.058   5.444  14.746
42719W        W10937  33.400  37.476  10.725
42720W        W10938   1.137  24.757  11.327
42721W        W10939  40.135  44.506  11.585
42722W        W10940  36.954  23.617  14.998
42723W        W10941  29.412  16.805   0.824
42724W        W10942  12.062  27.719  11.470
42725W        W10943  13.362  17.888  11.987
42726W        W10944  27.705  27.995  14.224
42727W        W10945  18.765  39.406  11.897
42728W        W10946  11.863  43.458  14.559
42729W        W10947   2.519  18.081   1.910
42730W        W10948  35.299  43.084   0.355
42731W        W10949  14.352  17.624   1.722
42732W        W10950  13.906  24.986  12.471
42733W        W10951   6.612   8.064  14.041
42734W        W10952  20.981  37.084   4.039
42735W        W10953  24.008  40.323  10.674
42736W        W10954  13.106  36.054   3.678
42737W        W10955  27.616  32.510   4.233
42738W        W10956  10.604   3.627  12.367
42739W        W10957  23.231  22.779   3.567
42740W        W10958  18.502  14.026   9.908
42741W        W10959  20.928   2.865   3.275
42742W        W10960  15.988   0.993  10.536
42743W        W10961  19.694   4.485   3.390
42744W        W10962  15.908  26.389   2.663
42745W        W10963  37.465  17.296  13.974
42746W        W10964  38.606  23.187  12.324
42747W        W10965  20.510  16.522   2.619
42748W        W10966  27.694  19.787   1.002
42749W        W10967  40.808  42.614  10.005
42750W        W10968  27.155  38.725  12.428
42751W        W10969  33.478  36.924   3.679
42752W        W10970   2.026  40.574   1.686
42753W        W10971   7.758   9.310   4.493
42754W        W10972   3.229  16.452  12.592
42755W        W10973  38.314   2.925  10.279
42756W        W10974  10.826  41.930   4.515
42757W        W10975  20.977   8.220  12.979
42758W        W10976  31.106  16.574   0.939
42759W        W10977   6.347  18.767   2.271
42760W        W10978  14.258  17.687  14.257
42761W        W10979   8.664   1.418  14.393
42762W        W10980   0.470   5.019  14.464
42763W        W10981  16.123  42.737   0.231
42764W        W10982   3.483  11.993  11.121
42765W        W10983  32.165   8.803   2.798
42766W        W10984  33.992  40.427  11.307
42767W        W10985  27.122   5.902  14.773
42768W        W10986  36.229  10.786  14.000
42769W        W10987  44.980  14.777  11.549
42770W        W10988  16.315  28.969   1.819
42771W        W10989  17.820  13.234   0.046
42772W        W10990  37.606  17.067   3.195
42773W        W10991  37.577   1.011   4.602
42774W        W10992  23.556  43.729   2.200
42775W        W10993  26.806  27.184  14.170
42776W        W10994  24.966  25.187   0.954
42777W        W10995  43.740  40.503   0.946
42778W        W10996  23.493  26.510   4.060
42779W        W10997  31.993  40.767   0.909
42780W        W10998  20.033  13.609  10.676
42781W        W10999  27.087  23.030  13.469
42782W        W11000   4.781  36.398   0.790
42783W        W11001   2.502  32.566  13.596
42784W        W11002  16.563  28.597   1.489
42785W        W11003   8.384   1.348  10.717
42786W        W11004   8.759  17.067   1.900
42787W        W11005  18.006  21.977  14.096
42788W        W11006   5.995  36.169   2.879
42789W        W11007  44.866   7.568  11.193
42790W        W11008  14.109  17.860  12.465
42791W        W11009  30.814  28.181   9.809
42792W        W11010  23.776  19.757   2.378
42793W        W11011  29.148  41.708   2.754
42794W        W11012  24.535   6.339   3.395
42795W        W11013  37.036  23.240   3.690
42796W        W11014   5.147  13.177  13.057
42797W        W11015   6.135  13.272  11.105
42798W        W11016  37.879  29.726  10.467
42799W        W11017   6.287  10.195  14.241
42800W        W11018  16.324   5.819   4.123
42801W        W11019  19.678  44.736   1.380
42802W        W11020  13.878   6.474  12.563
42803W        W11021  44.570  35.047   1.351
42804W        W11022  41.391  14.329   2.864
42805W        W11023   4.672   0.808   3.715
42806W        W11024  30.424  13.684   0.220
42807W        W11025  41.392  25.600   3.557
42808W        W11026  25.321  11.636   2.806
42809W        W11027  39.758   6.409   2.235
42810W        W11028  39.537   3.260   1.853
42811W        W11029  41.502  18.570  12.853
42812W        W11030  35.356  24.506  14.054
42813W        W11031  17.731  33.812   0.171
42814W        W11032   7.624  43.938  13.362
42815W        W11033  21.738  27.608  12.047
42816W        W11034   8.158  38.048  13.800
42817W        W11035  10.150  28.673   4.829
42818W        W11036  17.568   0.437   5.247
42819W        W11037  39.857  15.641  13.866
42820W        W11038  24.221   3.162  11.108
42821W        W11039  44.254  38.980   3.758
42822W        W11040  11.384  38.658  10.330
42823W        W11041  18.143  18.075   4.660
42824W        W11042   1.267   1.532   0.929
42825W        W11043  33.293   4.907  10.421
42826W        W11044  16.271  13.754  14.874
42827W        W11045   3.786   8.947   0.125
42828W        W11046  36.524   3.403  12.478
42829W        W11047  16.232  34.524   4.909
42830W        W11048  11.270  21.766  10.615
42831W        W11049   3.822   9.462  12.772
42832W        W11050  28.596  34.488  12.499
42833W        W11051  34.726  42.714  11.899
42834W        W11052   6.975  19.352   2.871
42835W        W11053  15.481  30.810  10.127
42836W        W11054  18.701  28.367  10.411
42837W        W11055  24.131  40.268  13.954
42838W        W11056  41.808  41.226  11.494
42839W        W11057   0.928   1.097   0.065
42840W        W11058  14.983  12.083  11.181
42841W        W11059  11.808  13.551   1.428
42842W        W11060   8.385  32.950   4.545
42843W        W11061  40.122  22.511  14.102
42844W        W11062  38.086  19.017  11.518
42845W        W11063   6.867   9.770   1.272
42846W        W11064  13.198   9.439  13.772
42847W        W11065  15.706  26.503  14.906
42848W        W11066  27.793  17.229  11.202
42849W        W11067  34.905  33.502  14.630
42850W        W11068   3.523  43.976   1.328
42851W        W11069  24.630  28.130   2.405
42852W        W11070  14.090  18.811   4.116
42853W        W11071  19.179  16.152   3.108
42854W        W11072   4.693   9.570  12.345
42855W        W11073  30.593  44.490   2.712
42856W        W11074  21.305  40.735  11.525
42857W        W11075  21.639  20.679   4.284
42858W        W11076  24.293   4.254  12.384
42859W        W11077  43.790  41.796   3.722
42860W        W11078  28.112   1.508  12.211
42861W        W11079  12.458  43.206  11.444
42862W        W11080  24.912  33.588   0.019
42863W        W11081   0.691  13.403   2.791
42864W        W11082   5.303  27.709  13.083
42865W        W11083  37.500  17.952   2.218
42866W        W11084   2.742  24.268  13.075
42867W        W11085  36.255   1.812  10.395
42868W        W11086   2.459  11.550  14.572
42869W        W11087  17.821   4.900  11.329
42870W        W11088  18.334  29.059  12.580
42871W        W11089  23.567  12.189   1.693
42872W        W11090  33.566  20.192  12.554
42873W        W11091  13.185  14.037   2.850
42874W        W11092  22.409  25.112  11.760
42875W        W11093  30.441  21.126   1.231
42876W        W11094  24.246  12.291  14.010
42877W        W11095  25.111  32.002   3.791
42878W        W11096  15.100   8.593  12.890
42879W        W11097  23.502  25.195  13.108
42880W        W11098   4.718  27.423   1.271
42881W        W11099   4.705  21.730   0.787
42882W        W11100  43.775  27.939   2.763
42883W        W11101  12.782  33.089   1.708
42884W        W11102   3.314  15.211  13.596
42885W        W11103  38.323   6.172   4.189
42886W        W11104   1.896  14.900  14.884
42887W        W11105  30.713  23.651  13.866
42888W        W11106  31.358  33.314  10.989
42889W        W11107  11.392   6.402  14.991
42890W        W11108  23.788   1.555  13.955
42891W        W11109  41.381  11.234  12.522
42892W        W11110  29.475  18.625   0.493
42893W        W11111  21.038  30.695  13.407
42894W        W11112  11.704  42.255   0.351
42895W        W11113  18.480   6.056   0.715
42896W        W11114  32.218  15.729  10.703
42897W        W11115  36.901  13.782  12.293
42898W        W11116  43.237   6.264   2.271
42899W        W11117  26.499  21.130   5.019
42900W        W11118  11.723  35.572  13.355
42901W        W11119  32.890  24.732  12.343
42902W        W11120  31.585  37.586   0.838
42903W        W11121  38.856  32.635   0.211
42904W        W11122  32.581  19.243  10.845
42905W        W11123   0.230   9.787   1.766
42906W        W11124  18.314  27.575  12.136
42907W        W11125   6.404  14.035   4.486
42908W        W11126   5.682  12.267  10.995
42909W        W11127  10.618   6.424  10.738
42910W        W11128  36.834  21.704  13.025
42911W        W11129  17.677  28.195  13.374
42912W        W11130  22.807  31.359   4.622
42913W        W11131  31.333  10.876   4.252
42914W        W11132  44.203   2.651   1.196
42915W        W11133  19.478  37.102   4.156
42916W        W11134  14.523  17.847   4.539
42917W        W11135   3.367   2.070  13.553
42918W        W11136  15.078  37.422   0.401
42919W        W11137  26.538  12.571   4.608
42920W        W11138  42.145  16.366  13.635
42921W        W11139  24.745   8.924  13.166
42922W        W11140   5.352  10.273  14.364
42923W        W11141  29.634   5.769  14.613
42924W        W11142  19.368  32.143  12.404
42925W        W11143  10.105  28.991   2.615
42926W        W11144  10.767  10.243   2.892
42927W        W11145  41.645  21.067  12.011
42928W        W11146  12.582  15.514   1.203
42929W        W11147  18.122   2.792   3.958
42930W        W11148  13.964   1.214  14.126
42931W        W11149  16.421  23.613  12.320
42932W        W11150  40.228  40.981  12.006
42933W        W11151  15.881   1.046  14.056
42934W        W11152  21.307   2.613  11.044
42935W        W11153  12.118  21.202  12.122
42936W        W11154  22.499  28.686   4.137
42937W        W11155  36.860   7.799  13.050
42938W        W11156  27.446   7.639   0.550
42939W        W11157  32.297  40.101  14.470
42940W        W11158  19.600  29.602  13.857
42941W        W11159   3.203  35.457   2.901
42942W        W11160   8.680  35.013   1.992
42943W        W11161  41.826  25.343  10.109
42944W        W11162  32.000   9.712  13.425
42945W        W11163  19.582  14.620   0.103
42946W        W11164  28.135  40.762   2.777
42947W        W11165  40.300   2.004   2.504
42948W        W11166   6.251   7.692   0.847
42949W        W11167  21.537  15.642  14.877
42950W        W11168  38.992   5.899   2.010
42951W        W11169  18.626  25.061  12.405
42952W        W11170  32.398   1.599  14.816
42953W        W11171   6.560   8.898  12.416
42954W        W11172   0.852  29.468   1.396
42955W        W11173   9.931   9.730   1.900
42956W        W11174   3.192  37.160  10.168
42957W        W11175  24.114   2.108   3.541
42958W        W11176  38.004  38.264  10.612
42959W        W11177   0.418   8.304  14.793
42960W        W11178  44.416   4.466   2.258
42961W        W11179  15.805  14.751  13.474
42962W        W11180  16.710  38.370  13.935
42963W        W11181  23.556  31.042   3.863
42964W        W11182  26.255   5.220   2.087
42965W        W11183  33.944  36.359   4.250
42966W        W11184  13.349   4.729   1.899
42967W        W11185  32.631  25.700  13.441
42968W        W11186  14.183   2.532   1.206
42969W        W11187  40.290  36.444   1.755
42970W        W11188  15.331   0.753   2.363
42971W        W11189  38.531  29.984   4.234
42972W        W11190   0.411  18.249   0.924
42973W        W11191  40.613   1.335  13.848
42974W        W11192  33.512  40.540   5.058
42975W        W11193  26.691   5.613  14.917
42976W        W11194  21.052  20.045   1.433
42977W        W11195  43.615  23.549  13.594
42978W        W11196  12.680  28.185  12.068
42979W        W11197  24.798  39.963  11.581
42980W        W11198  20.899  15.073   1.040
42981W        W11199  14.432  35.427  12.011
42982W        W11200   0.360  27.397  12.044
42983W        W11201   9.609  11.599  11.090
42984W        W11202  34.121  30.454   4.545
42985W        W11203  14.619  36.115  10.552
42986W        W11204  15.861   0.332  14.344
42987W        W11205  24.076   2.930  13.535
42988W        W11206  42.892  10.999   1.275
42989W        W11207  20.706  37.572   3.198
42990W        W11208  32.637  30.589  10.514
42991W        W11209  34.061   4.450  11.084
42992W        W11210   3.277  31.413  11.549
42993W        W11211  22.764   0.424   4.569
42994W        W11212  26.076  40.805   2.141
42995W        W11213  25.169  39.563   1.328
42996W        W11214  37.861  21.119   0.038
42997W        W11215  20.837  32.539   9.816
42998W        W11216  22.272  17.058   1.834
42999W        W11217  17.056  29.568   1.183
43000W        W11218  31.587   9.334  12.975
43001W        W11219  37.345  10.859   1.724
43002W        W11220  37.503  15.398  13.920
43003W        W11221   5.146  11.275   0.349
43004W        W11222  12.726  42.287   4.184
43005W        W11223  13.357  29.402   3.646
43006W        W11224  18.851  16.530  14.499
43007W        W11225  29.079  19.074  13.584
43008W        W11226  33.020   5.703   2.348
43009W        W11227  11.045   6.370  13.470
43010W        W11228   1.040   8.351   4.767
43011W        W11229  40.460  25.766  14.340
43012W        W11230  30.936  26.947  10.326
43013W        W11231  43.359  25.700   1.021
43014W        W11232  25.608   3.215  11.251
43015W        W11233  17.764   9.055  14.778
43016W        W11234  31.001  27.449  10.304
43017W        W11235  34.190  39.604   4.150
43018W        W11236  40.060  41.936   1.504
43019W        W11237  34.990   0.773  12.434
43020W        W11238   4.462  22.020   3.162
43021W        W11239  10.429   8.965   2.649
43022W        W11240  42.714  22.537   4.140
43023W        W11241   9.132  13.821  14.809
43024W        W11242  15.674  25.451   2.567
43025W        W11243   2.438  15.665   0.499
43026W        W11244  29.188  12.791   2.022
43027W        W11245  40.063  29.043  13.575
43028W        W11246  38.107  34.589   4.384
43029W        W11247  14.128  36.936  13.130
43030W        W11248  10.305  21.635  10.982
43031W        W11249  23.186  26.097   4.815
43032W        W11250  23.681  15.075  11.075
43033W        W11251  38.329  43.295  10.900
43034W        W11252  33.572  37.178  11.126
43035W        W11253  25.686  26.117  10.554
43036W        W11254  12.136   5.886  11.990
43037W        W11255  31.972   7.465  11.473
43038W        W11256  36.127  18.664   3.217
43039W        W11257  32.488  30.437   0.769
43040W        W11258   0.806  27.130  12.070
43041W        W11259  27.745   0.882   1.293
43042W        W11260   9.543  10.612  14.436
43043W        W11261  20.987  44.679  11.123
43044W        W11262  32.352  42.151  14.721
43045W        W11263  15.156  20.129   4.582
43046W        W11264   0.416  34.018   2.586
43047W        W11265  21.782  39.304  14.380
43048W        W11266  16.762  13.122  10.007
43049W        W11267  17.765  24.233  10.712
43050W        W11268  39.616  35.626   2.138
43051W        W11269  18.285  14.746   4.182
43052W        W11270  10.785  19.266   0.132
43053W        W11271  21.951  13.867   0.194
43054W        W11272  27.288   9.443  11.923
43055W        W11273  39.988  40.269   0.290
43056W        W11274  33.159  30.683  13.926
43057W        W11275  35.597  17.562   0.417
43058W        W11276   1.840  17.194  11.625
43059W        W11277   9.003   5.353   2.566
43060W        W11278  21.698  34.965   2.164
43061W        W11279   2.822  36.950   4.417
43062W        W11280   5.804  27.622  12.985
43063W        W11281  37.057  32.710  10.705
43064W        W11282   9.320  29.639   3.802
43065W        W11283  32.737  38.307   0.918
43066W        W11284   3.236  27.061   0.905
43067W        W11285  32.354  29.658  10.985
43068W        W11286  43.561  42.934   2.691
43069W        W11287   9.510  33.482   0.425
43070W        W11288  33.698   2.759  12.668
43071W        W11289   4.695   2.990   4.227
43072W        W11290  14.541  42.502   2.457
43073W        W11291  10.343  29.916   2.597
43074W        W11292  18.260   1.856   3.202
43075W        W11293  29.156  13.682  10.446
43076W        W11294  23.935  39.485   3.185
43077W        W11295  22.133   2.942   2.147
43078W        W11296  35.379  20.181   0.715
43079W        W11297  32.832  23.825  12.164
43080W        W11298  34.893  21.188   0.634
43081W        W11299  31.405  32.019   3.033
43082W        W11300  24.179   0.966   4.057
43083W        W11301  24.210  11.226   2.609
43084W        W11302   5.117   5.687   4.124
43085W        W11303  38.238   8.170  11.539
43086W        W11304  23.316  11.291   3.183
43087W        W11305   5.831  12.610   3.902
43088W        W11306  31.538  16.425   0.665
43089W        W11307  36.846  30.475  13.810
43090W        W11308  35.966  29.412  10.089
43091W        W11309  23.476  19.084   2.643
43092W        W11310   9.130  23.184   4.986
43093W        W11311  24.566  40.252   1.370
43094W        W11312   9.432   1.869  12.846
43095W        W11313   2.359  34.339  10.674
43096W        W11314  42.904  25.516   0.782
43097W        W11315  43.479  30.026  13.157
43098W        W11316  38.374   2.457  13.463
43099W        W11317  19.222  32.662  11.498
43100W        W11318   8.678   0.063  10.943
43101W        W11319  28.430  32.933  14.123
43102W        W11320  16.392  28.796   3.217
43103W        W11321  43.008  22.968   4.120
43104W        W11322  22.956  30.112   3.128
43105W        W11323  13.324   4.721   0.946
43106W        W11324  13.684  10.895   4.107
43107W        W11325  29.450  28.441  10.661
43108W        W11326  15.355   9.984  13.368
43109W        W11327  32.794  40.308  14.500
43110W        W11328  39.291  29.029   4.688
43111W        W11329   8.078   0.022   4.207
43112W        W11330   2.788   1.542   0.084
43113W        W11331  33.261   0.252  13.972
43114W        W11332  15.557  43.255  10.280
43115W        W11333  26.982   9.822  14.198
43116W        W11334   1.056  42.965  10.335
43117W        W11335  33.451  44.349  11.928
43118W        W11336  43.340  32.134  12.125
43119W        W11337  23.785  40.796  12.401
43120W        W11338  13.211  22.128   0.364
43121W        W11339  41.369  31.206   3.671
43122W        W11340  24.580  20.529   1.371
43123W        W11341  41.808  41.132  14.411
43124W        W11342   4.212   8.659   1.532
43125W        W11343  34.694   5.600   3.058
43126W        W11344  17.229   8.276  13.751
43127W        W11345  21.657  34.759  14.715
43128W        W11346  35.504  20.788   4.627
43129W        W11347  16.499  12.759  13.555
43130W        W11348   3.924  13.656   3.343
43131W        W11349   9.117  40.544   2.123
43132W        W11350  38.032  43.570   3.335
43133W        W11351   5.420  21.204   2.798
43134W        W11352  14.529  31.116  14.534
43135W        W11353  34.847  25.265  13.685
43136W        W11354  44.744  21.615  14.482
43137W        W11355  20.269  15.734   4.119
43138W        W11356  10.234   2.379   2.294
43139W        W11357  32.504  30.078   2.390
43140W        W11358  28.661  26.204   3.749
43141W        W11359  20.615  44.963  13.647
43142W        W11360   7.983   1.255   2.611
43143W        W11361  16.308  16.835   3.330
43144W        W11362  21.205   3.774   1.928
43145W        W11363   4.320  21.132  13.294
43146W        W11364   6.515  31.049   3.299
43147W        W11365  18.020  33.008  13.018
43148W        W11366  20.267  21.675   3.814
43149W        W11367   2.936   0.788  12.814
43150W        W11368  15.568  40.581  13.512
43151W        W11369  18.363  33.762   2.522
43152W        W11370  40.549   2.261  12.446
43153W        W11371   5.295  15.327  12.752
43154W        W11372  19.061  39.315  14.829
43155W        W11373  22.583  20.138   4.388
43156W        W11374  38.018   2.985  13.825
43157W        W11375  39.847  38.336   3.686
43158W        W11376  30.452   8.757   0.255
43159W        W11377  19.635  17.170   1.602
43160W        W11378   5.922  27.197   3.195
43161W        W11379  14.173  21.296   2.307
43162W        W11380  13.787   2.401   0.278
43163W        W11381  15.614   3.617   2.046
43164W        W11382  22.105   0.375   2.741
43165W        W11383  10.820  25.457  12.553
43166W        W11384   5.953  21.896  13.487
43167W        W11385  35.350  17.230  11.607
43168W        W11386  29.470  40.279   2.745
43169W        W11387  11.882  37.962   2.376
43170W        W11388  31.684  40.880  13.479
43171W        W11389  22.017  34.995   3.319
43172W        W11390  15.546  35.789   2.022
43173W        W11391  28.581  29.986  11.652
43174W        W11392   8.306  38.924  12.793
43175W        W11393   5.922   6.595  13.767
43176W        W11394  17.288  18.936  11.807
43177W        W11395   3.176  20.840   4.665
43178W        W11396  25.409  15.648  10.236
43179W        W11397   9.910   4.511  11.570
43180W        W11398  38.403  13.308  14.870
43181W        W11399  29.975  20.240   0.795
43182W        W11400   1.946  24.426  10.650
43183W        W11401  22.295   5.145  11.114
43184W        W11402  20.244   0.058   3.628
43185W        W11403  23.139  11.374  11.036
43186W        W11404  44.406  17.169   3.991
43187W        W11405   0.725  15.365  11.605
43188W        W11406  11.075  29.661   4.231
43189W        W11407   7.930   6.136   4.153
43190W        W11408  24.690  18.310  13.116
43191W        W11409  33.967  20.791  14.960
43192W        W11410  33.486  36.413  14.405
43193W        W11411   5.981  41.437  13.894
43194W        W11412  12.740  34.409   3.263
43195W        W11413   7.318  25.495   2.690
43196W        W11414  31.883  23.096  10.708
43197W        W11415  34.612  41.310   0.013
43198W        W11416  44.355  39.462   3.227
43199W        W11417  29.814   7.158   4.606
43200W        W11418  41.798   3.306   4.654
43201W        W11419   7.734  16.124  10.989
43202W        W11420  30.365   9.705   0.503
43203W        W11421   5.233  32.624   2.830
43204W        W11422  18.004   1.356  12.296
43205W        W11423   5.218  15.738  13.512
43206W        W11424  18.038  19.353   1.515
43207W        W11425  31.230  17.005  14.471
43208W        W11426   9.305  22.678  13.788
43209W        W11427  32.573  31.571  11.394
43210W        W11428  44.944   8.432   3.898
43211W        W11429   0.723  35.483   0.077
43212W        W11430  10.377  37.520   0.917
43213W        W11431  44.292   9.711  10.688
43214W        W11432   6.315  12.383  12.418
43215W        W11433  30.124   1.535  14.421
43216W        W11434  39.474   5.984   1.750
43217W        W11435  32.406  19.781   1.001
43218W        W11436  19.229  27.625  10.768
43219W        W11437  24.248   2.310   3.098
43220W        W11438   2.209  11.708  13.625
43221W        W11439  43.028  17.322  13.199
43222W        W11440  33.270  42.827  10.150
43223W        W11441   2.311   9.381   2.361
43224W        W11442  25.493  16.584  12.855
43225W        W11443  38.968  29.710  11.941
43226W        W11444  27.043   0.775   3.828
43227W        W11445  43.985  26.901   3.145
43228W        W11446  27.382  22.087   1.249
43229W        W11447  41.069  23.986   2.460
43230W        W11448  31.404  13.677   2.787
43231W        W11449   5.394   5.782   1.024
43232W        W11450  29.052  38.033   4.153
43233W        W11451   5.011   9.607   2.871
43234W        W11452  17.802  12.182  12.572
43235W        W11453  37.291  24.246   0.499
43236W        W11454  21.497  31.386   5.065
43237W        W11455   2.943   2.721  10.774
43238W        W11456  42.034  24.091  14.504
43239W        W11457  16.124  32.492  11.898
43240W        W11458  42.933  44.913   1.661
43241W        W11459   8.251  14.560  10.311
43242W        W11460  43.987  33.621   3.904
43243W        W11461  13.324   3.795  14.421
43244W        W11462  17.111  22.904  10.733
43245W        W11463  29.300   2.883  11.144
43246W        W11464   9.196  13.875  12.026
43247W        W11465  23.582  10.866  14.975
43248W        W11466  27.949  39.797   1.869
43249W        W11467  32.506  44.786  13.445
43250W        W11468  16.199   3.981  14.295
43251W        W11469  22.417  40.569  10.774
43252W        W11470   6.923  29.034  14.967
43253W        W11471  20.782  33.581   0.907
43254W        W11472  36.605  15.132   3.621
43255W        W11473  16.558  32.469   3.704
43256W        W11474  30.481  39.334   0.534
43257W        W11475  29.583  20.584  10.800
43258W        W11476  24.202  28.742   0.982
43259W        W11477  42.884   9.877  12.213
43260W        W11478  14.569   9.626  13.652
43261W        W11479  23.521  26.162   0.956
43262W        W11480  16.796  42.516   2.857
43263W        W11481  39.118  28.950  14.498
43264W        W11482  21.685   7.508   3.451
43265W        W11483   4.862   5.878  10.133
43266W        W11484   5.129  30.529  14.708
43267W        W11485  38.477  33.383  12.149
43268W        W11486  34.597  39.842  12.677
43269W        W11487  30.503   5.307  12.013
43270W        W11488  15.550   5.350  13.690
43271W        W11489  42.388  28.968   3.612
43272W        W11490  23.197  11.386  13.336
43273W        W11491  11.607  41.407  10.400
43274W        W11492  21.744  18.401   3.884
43275W        W11493  35.026  40.487  13.013
43276W        W11494  22.726  25.048   3.753
43277W        W11495   0.879  25.486   4.542
43278W        W11496   6.890   0.183   0.488
43279W        W11497  42.693  24.849  11.120
43280W        W11498  42.285  38.439   4.176
43281W        W11499   5.877  25.462  11.195
43282W        W11500  37.855   0.637  13.524
43283W        W11501  15.835   6.714   3.691
43284W        W11502  31.578  39.168  12.870
43285W        W11503  39.614  34.615  13.434
43286W        W11504   6.898   6.830  12.026
43287W        W11505   0.866  40.447  14.925
43288W        W11506  36.984   6.994  14.968
43289W        W11507   0.751  29.833  11.167
43290W        W11508  18.063  24.716   3.154
43291W        W11509  37.653  12.185  13.081
43292W        W11510  14.088  16.974   3.628
43293W        W11511  19.987  22.671   2.212
43294W        W11512  22.746  42.437  12.522
43295W        W11513  37.547  18.996  14.972
43296W        W11514  17.158  31.680  10.599
43297W        W11515   3.901  24.646  13.966
43298W        W11516  18.784  18.257  11.137
43299W        W11517  25.394  32.364  12.862
43300W        W11518  12.130  29.579   1.731
43301W        W11519  38.297  10.832  12.908
43302W        W11520  24.873  16.624  14.359
43303W        W11521  16.152  26.178  10.670
43304W        W11522  38.760  27.974   1.490
43305W        W11523  15.847  24.457   0.909
43306W        W11524   8.916  36.386   2.738
43307W        W11525  10.262  24.760  12.188
43308W        W11526  41.797  35.994   2.684
43309W        W11527  39.880  43.821  13.899
43310W        W11528  25.091  44.678   2.339
43311W        W11529  31.466   5.828  12.953
43312W        W11530  32.971  20.302   4.726
43313W        W11531  27.188  42.262   4.199
43314W        W11532   2.867  13.354   1.830
43315W        W11533   8.640  12.903   3.220
43316W        W11534  38.667  37.872   0.221
43317W        W11535  22.257  37.643   0.416
43318W        W11536   2.832  33.451  10.740
43319W        W11537  35.905  32.163   4.888
43320W        W11538  37.106   4.854  11.598
43321W        W11539  30.335  37.572   2.323
43322W        W11540  40.809  41.817  14.333
43323W        W11541  20.019  11.220   2.856
43324W        W11542  24.422  35.498   0.810
43325W        W11543  21.921  44.963  14.398
43326W        W11544  34.353  37.569  14.284
43327W        W11545  24.256   4.279  14.362
43328W        W11546  26.979  11.177  11.580
43329W        W11547  42.908  12.210  10.471
43330W        W11548  26.285   4.304   2.268
43331W        W11549  43.289  42.017  14.691
43332W        W11550  21.191  36.857   2.258
43333W        W11551  42.078  42.101  14.483
43334W        W11552   5.750  21.516   2.283
43335W        W11553  20.895  40.456  10.630
43336W        W11554  31.615   0.357   4.771
43337W        W11555  43.989  41.267  10.957
43338W        W11556  18.469  11.364  12.040
43339W        W11557  20.756   3.287   3.733
43340W        W11558  39.913  17.149   0.423
43341W        W11559  13.329  36.382   1.349
43342W        W11560  35.381  35.819   2.641
43343W        W11561  30.941   2.668  11.958
43344W        W11562  25.565  33.845   1.993
43345W        W11563  17.077  39.322  11.539
43346W        W11564  19.203  20.877  13.994
43347W        W11565   3.128   8.184  14.758
43348W        W11566  12.245  39.011   2.241
43349W        W11567  17.783  38.361   2.741
43350W        W11568  23.680  18.339   1.325
43351W        W11569   1.227  14.571  10.922
43352W        W11570  16.341   3.192   1.807
43353W        W11571  39.376  21.470  13.935
43354W        W11572  30.344  28.911   0.480
43355W        W11573  19.526  16.087   0.565
43356W        W11574  44.411  16.718   3.721
43357W        W11575  40.934  10.429   0.421
43358W        W11576   5.626  34.468  13.104
43359W        W11577  24.008  22.166   3.231
43360W        W11578  23.098  13.150   1.709
43361W        W11579  21.988   6.342   2.120
43362W        W11580  37.477   1.933  14.819
43363W        W11581  21.082   7.058  12.420
43364W        W11582  44.287  35.911  11.596
43365W        W11583  23.040  21.884   3.942
43366W        W11584  40.525  16.638   3.727
43367W        W11585  24.539  38.765   1.289
43368W        W11586  33.001  41.331  12.299
43369W        W11587   0.101   1.699  12.479
43370W        W11588  13.320   0.672   1.306
43371W        W11589  41.160  36.279   4.493
43372W        W11590  26.848  34.981   4.474
43373W        W11591  15.797  43.277   3.858
43374W        W11592  34.998   1.020  11.942
43375W        W11593  44.397  16.116   4.505
43376W        W11594   7.189  29.896   2.243
43377W        W11595  17.812  35.208  14.067
43378W        W11596  10.274  38.529   3.587
43379W        W11597  41.359  43.895  10.745
43380W        W11598  13.203  34.185   3.281
43381W        W11599   6.209   8.789  12.856
43382W        W11600  28.428  41.773   1.393
43383W        W11601  16.776   4.289  11.493
43384W        W11602   3.155   9.115  11.169
43385W        W11603  30.369   7.431  11.028
43386W        W11604  22.585   5.195  11.544
43387W        W11605   1.977  37.573  14.532
43388W        W11606  17.331  42.779  11.696
43389W        W11607  28.588  30.594  13.480
43390W        W11608   4.629  40.579   3.661
43391W        W11609  42.494   8.520  13.023
43392W        W11610  17.496  22.133  12.513
43393W        W11611  43.765  22.536  13.309
43394W        W11612   0.486   0.171   4.321
43395W        W11613  33.413  16.168  12.446
43396W        W11614  39.006   6.426   3.301
43397W        W11615  31.379  28.669   3.693
43398W        W11616  35.532  13.544  10.980
43399W        W11617  19.835  10.422   1.860
43400W        W11618   2.488  19.667  13.506
43401W        W11619   4.586   4.041   2.839
43402W        W11620  12.694  28.980  13.360
43403W        W11621  22.030  35.156  14.745
43404W        W11622  12.569  27.154   4.630
43405W        W11623  10.886  35.682  11.474
43406W        W11624  40.586  23.775  12.088
43407W        W11625  23.905  16.120  11.417
43408W        W11626   6.073  26.227  11.488
43409W        W11627  15.475  19.295  13.554
43410W        W11628  20.986  33.088  11.614
43411W        W11629   6.926  44.870  11.005
43412W        W11630  32.354  20.948  13.880
43413W        W11631  30.200  38.363  11.986
43414W        W11632  26.263  44.355   4.285
43415W        W11633  13.167  18.612  10.387
43416W        W11634   7.290  29.422   2.012
43417W        W11635  17.366  10.638   3.951
43418W        W11636   8.149   3.173  10.676
43419W        W11637  27.706  22.903  13.993
43420W        W11638  33.371   9.311   1.173
43421W        W11639  43.068   4.898  11.938
43422W        W11640  38.151  37.634  14.893
43423W        W11641  18.206  18.647   2.478
43424W        W11642   8.919   0.902  13.099
43425W        W11643  33.318  25.023   1.283
43426W        W11644  30.486   6.885  11.111
43427W        W11645  17.788  35.563  10.742
43428W        W11646   2.695  32.652  11.432
43429W        W11647  40.115  27.966  14.465
43430W        W11648  39.364   5.068   4.226
43431W        W11649  17.667  25.222  13.965
43432W        W11650  17.251  26.810  11.414
43433W        W11651   5.262   1.315   4.243
43434W        W11652  21.506  15.391  12.038
43435W        W11653  34.904  13.129   3.927
43436W        W11654  22.085  41.574  14.275
43437W        W11655  28.155   8.303   0.444
43438W        W11656  23.291  36.030   3.383
43439W        W11657  14.117   6.873   1.281
43440W        W11658  18.654  26.869  14.351
43441W        W11659   0.861  27.562   0.399
43442W        W11660  17.877  11.736   1.774
43443W        W11661  13.632  20.117  12.408
43444W        W11662  20.565  43.386   1.834
43445W        W11663   1.744   1.009  13.394
43446W        W11664  14.739  20.982   0.307
43447W        W11665  35.319  37.576   4.847
43448W        W11666  34.097  35.446  14.630
43449W        W11667   5.442  44.224   3.186
43450W        W11668  42.506  27.693  11.628
43451W        W11669  24.109  28.324  11.702
43452W        W11670  25.719  31.360  12.906
43453W        W11671  18.204  37.366  10.117
43454W        W11672  31.048  11.776   3.639
43455W        W11673  25.597  39.322  12.010
43456W        W11674   9.432  28.924  10.761
43457W        W11675  10.852  28.026  14.009
43458W        W11676  29.068  20.542  10.647
43459W        W11677  29.042  32.529  13.901
43460W        W11678  15.541   6.413  13.045
43461W        W11679  29.128   7.739  13.527
43462W        W11680  32.619  18.134  14.838
43463W        W11681  43.315  44.608   1.844
43464W        W11682  26.914  42.911  11.896
43465W        W11683  23.059  41.224   4.646
43466W        W11684  12.676   9.689  11.577
43467W        W11685  22.611  27.458  10.767
43468W        W11686   2.550  22.650   1.192
43469W        W11687  35.018  26.953  13.071
43470W        W11688   7.930  36.199   4.324
43471W        W11689  18.634  33.615  10.238
43472W        W11690  10.181   5.723   0.967
43473W        W11691  41.018  29.488   3.156
43474W        W11692  35.451  44.117   3.147
43475W        W11693  13.686   0.943   2.210
43476W        W11694  13.111  29.390  14.839
43477W        W11695   4.126  27.388  14.395
43478W        W11696  34.599  23.901   0.322
43479W        W11697  42.827  22.395   3.159
43480W        W11698   9.191  18.711   0.443
43481W        W11699  32.067   6.416  11.323
43482W        W11700  22.309   0.730  12.396
43483W        W11701  21.287  28.992   4.643
43484W        W11702  43.753  42.294   0.430
43485W        W11703  43.437  31.280  14.936
43486W        W11704  28.415  26.551  11.478
43487W        W11705   4.681  23.773  13.565
43488W        W11706  28.987  39.345  14.297
43489W        W11707  44.004  41.455   1.052
43490W        W11708  39.947   3.201   0.426
43491W        W11709  43.763  35.010  11.906
43492W        W11710  36.371  30.524   0.853
43493W        W11711  37.502  28.152  11.994
43494W        W11712   6.721  44.110  12.864
43495W        W11713  28.181  38.401  10.556
43496W        W11714  31.160  37.111   3.953
43497W        W11715   1.982  24.843  13.015
43498W        W11716  33.932  26.595   4.092
43499W        W11717  23.655  12.796   1.437
43500W        W11718  25.551   7.646  14.365
43501W        W11719   0.664   5.674  13.156
43502W        W11720  18.561  38.755  13.659
43503W        W11721   3.724  19.367  11.127
43504W        W11722  20.023  10.330   2.387
43505W        W11723   7.208  34.540  13.095
43506W        W11724  40.456   4.151  14.406
43507W        W11725   5.441  14.905  13.593
43508W        W11726  40.230   7.409  12.866
43509W        W11727  44.928  44.120  13.577
43510W        W11728  43.780  34.054  13.329
43511W        W11729   4.897  23.562   4.640
43512W        W11730  24.501  36.414   0.207
43513W        W11731   3.609  40.425   3.214
43514W        W11732  41.832   0.997   0.411
43515W        W11733   4.406  24.471  14.362
43516W        W11734  35.500  30.282   9.884
43517W        W11735   2.423  44.921  11.586
43518W        W11736  38.869   9.936   2.334
43519W        W11737  31.922  29.615   4.854
43520W        W11738  41.245   8.213  11.181
43521W        W11739  15.171  13.904   3.285
43522W        W11740  14.270  33.298  11.357
43523W        W11741  25.937  29.034   2.822
43524W        W11742  30.817  30.081   0.446
43525W        W11743  25.684  37.224  12.762
43526W        W11744  33.047   5.348   4.776
43527W        W11745  41.016  25.017  10.526
43528W        W11746  10.099  39.854   5.313
43529W        W11747  26.577   1.928   2.130
43530W        W11748  25.176  16.466   2.915
43531W        W11749  39.956   7.595   4.123
43532W        W11750  39.951   1.044   2.526
43533W        W11751  20.265  27.810  14.322
43534W        W11752  30.951  27.136  11.162
43535W        W11753  14.878  16.405  14.033
43536W        W11754   7.631  22.931  13.698
43537W        W11755   4.836   6.397  12.159
43538W        W11756  15.802  10.174  14.043
43539W        W11757  40.559  10.137  11.533
43540W        W11758  27.147   0.026   1.467
43541W        W11759  23.425  11.809  13.130
43542W        W11760  29.218   0.951  12.263
43543W        W11761  36.803  41.063  12.884
43544W        W11762   1.420   3.996  10.655
43545W        W11763   1.763  35.071  12.176
43546W        W11764  16.685  32.918  11.618
43547W        W11765   4.468   0.515   1.734
43548W        W11766   0.260  35.915  13.873
43549W        W11767   1.371   8.897   2.238
43550W        W11768  34.608  17.622  11.912
43551W        W11769  25.584  17.180   3.316
43552W        W11770  39.047  33.960  13.797
43553W        W11771  38.459  32.488  10.816
43554W        W11772  44.491  32.247  12.921
43555W        W11773  43.848  43.315   2.414
43556W        W11774  19.045  35.554   2.365
43557W        W11775  31.859   0.779   4.926
43558W        W11776  17.010  16.526   0.511
43559W        W11777   5.099  38.871   1.338
43560W        W11778   6.475   0.316   3.520
43561W        W11779   2.010  41.559  12.137
43562W        W11780  18.795  30.028  14.879
43563W        W11781  18.363  19.636  12.166
43564W        W11782  12.318  32.798   3.953
43565W        W11783   7.498  22.228   0.868
43566W        W11784  31.548  15.286  14.174
43567W        W11785  42.762   6.381  11.216
43568W        W11786  42.511  34.266  10.904
43569W        W11787  41.526  39.751   1.909
43570W        W11788  27.071  38.056   3.159
43571W        W11789  35.082  22.329   1.238
43572W        W11790  22.030  12.340  13.014
43573W        W11791  42.697  40.479   2.877
43574W        W11792  24.989  38.480   1.902
43575W        W11793  28.131  11.133   3.328
43576W        W11794  38.460  38.289  12.955
43577W        W11795  19.088  13.128  11.428
43578W        W11796  41.125   7.331   2.761
43579W        W11797   5.149   0.103  14.484
43580W        W11798  44.404  42.780   1.459
43581W        W11799  21.408  38.254   0.521
43582W        W11800   6.365  19.959   1.384
43583W        W11801  26.692   9.334   3.214
43584W        W11802  24.077  19.143  13.030
43585W        W11803   2.305  41.478  13.373
43586W        W11804  28.053  24.409  14.303
43587W        W11805  24.717   3.435   3.284
43588W        W11806   4.739   6.203  10.936
43589W        W11807  20.252  15.667  14.940
43590W        W11808  21.727   6.962  11.456
43591W        W11809  19.089  43.788  13.389
43592W        W11810   9.289   6.923  12.924
43593W        W11811  27.106  17.068   2.257
43594W        W11812  41.138  26.672  12.173
43595W        W11813  36.588   5.259  10.749
43596W        W11814  33.159  25.470   0.230
43597W        W11815   5.880  30.896  13.485
43598W        W11816   1.284  23.292   2.297
43599W        W11817  13.609  23.208  12.102
43600W        W11818  41.857  43.866   4.202
43601W        W11819  18.544  32.027   4.069
43602W        W11820   9.908  33.190  11.916
43603W        W11821   0.657  44.375   4.638
43604W        W11822  22.691  32.432   2.697
43605W        W11823   9.875  31.593  13.991
43606W        W11824  41.924   6.234   3.208
43607W        W11825  33.052  19.215   3.047
43608W        W11826  30.056   1.965  11.398
43609W        W11827  30.724   1.315  13.428
43610W        W11828  21.582  10.760   2.892
43611W        W11829   4.129  17.208  11.886
43612W        W11830  36.343  43.396   2.303
43613W        W11831  16.270   7.113   3.351
43614W        W11832  22.589   9.354  13.497
43615W        W11833  30.490   0.186  12.553
43616W        W11834  14.833  12.673   2.258
43617W        W11835  34.912  36.346  10.953
43618W        W11836  12.548  26.031   0.077
43619W        W11837  30.949  11.600  14.086
43620W        W11838  43.878   0.551   1.388
43621W        W11839  38.119  27.785   0.276
43622W        W11840  21.203  18.446  11.172
43623W        W11841  15.233  13.125  14.408
43624W        W11842  24.154  26.578   4.579
43625W        W11843  42.606  26.104  12.947
43626W        W11844  20.717  33.463   1.747
43627W        W11845  35.558  40.243   1.033
43628W        W11846   3.033  28.542  14.916
43629W        W11847  24.371  39.593   1.002
43630W        W11848   1.024  42.846  13.984
43631W        W11849  24.183  24.216   0.467
43632W        W11850  32.136  14.228   2.297
43633W        W11851  30.486   0.860   1.603
43634W        W11852  28.720  29.775   3.580
43635W        W11853  34.385  10.754  10.517
43636W        W11854  27.024   3.392  13.640
43637W        W11855  14.180  12.543   4.720
43638W        W11856  33.582   7.775   3.785
43639W        W11857  41.744   0.788   3.188
43640W        W11858  24.671  27.394   4.436
43641W        W11859  10.225   6.392  12.929
43642W        W11860  19.942   0.333   3.302
43643W        W11861   1.426  14.539  13.438
43644W        W11862  33.981   4.196  12.054
43645W        W11863  21.761  33.262  10.585
43646W        W11864  12.579  11.357   4.434
43647W        W11865  18.757  15.778   5.169
43648W        W11866   7.633  41.850   4.281
43649W        W11867  32.398   5.946   4.618
43650W        W11868  19.645   9.985  11.129
43651W        W11869  12.277  31.507   4.065
43652W        W11870   2.924  42.948  12.961
43653W        W11871  10.233  15.550   2.215
43654W        W11872  42.588  12.157  12.905
43655W        W11873  16.704   5.493   4.016
43656W        W11874  23.576  30.349  13.450
43657W        W11875   8.449  38.336   0.851
43658W        W11876  13.104  34.735   0.783
43659W        W11877   0.020  28.724   1.319
43660W        W11878  38.402  15.346   3.332
43661W        W11879  13.693  12.719  14.907
43662W        W11880  42.898  27.848  12.449
43663W        W11881  34.676   7.111   3.136
43664W        W11882   2.925  34.965   2.130
43665W        W11883  25.536  18.828   0.182
43666W        W11884  15.878  39.566   2.656
43667W        W11885  27.043  11.405  10.693
43668W        W11886   0.922  21.697  11.407
43669W        W11887  13.876  34.088  13.985
43670W        W11888  34.383  13.921  11.549
43671W        W11889  20.980  38.498   2.137
43672W        W11890  25.653   8.191  12.434
43673W        W11891  30.860  38.628   0.439
43674W        W11892  11.384  27.620   0.811
43675W        W11893   1.041  13.562   3.250
43676W        W11894   9.327  37.961   2.308
43677W        W11895  20.651  21.268  13.966
43678W        W11896  43.098  24.327   4.655
43679W        W11897  27.709  29.224   1.272
43680W        W11898  24.422  20.368  11.140
43681W        W11899  10.510  13.200  14.552
43682W        W11900   5.216  29.625   4.419
43683W        W11901  28.703  32.081  13.961
43684W        W11902  42.473  32.033   2.737
43685W        W11903  33.866  30.020   4.603
43686W        W11904  36.873  43.901   2.866
43687W        W11905  35.478  42.894  10.706
43688W        W11906  26.131  20.550  14.787
43689W        W11907  32.502  42.320  10.772
43690W        W11908  12.393  31.015  13.883
43691W        W11909  36.281  23.125  12.078
43692W        W11910  36.586  12.587  13.031
43693W        W11911  39.066  13.223   0.178
43694W        W11912  33.527   5.462   0.173
43695W        W11913  42.708  25.452   4.231
43696W        W11914  24.712  12.446  13.824
43697W        W11915  30.010  39.413   0.301
43698W        W11916  15.003  17.350  14.857
43699W        W11917   6.940  29.680   2.684
43700W        W11918  44.464  33.935  12.491
43701W        W11919   9.102  29.146  12.496
43702W        W11920  17.799  36.916   3.090
43703W        W11921  40.509  27.545  12.542
43704W        W11922  30.075   7.923  11.150
43705W        W11923   4.702  44.302  10.663
43706W        W11924  38.142  16.644  13.897
43707W        W11925  42.893  35.001  11.377
43708W        W11926   9.354  10.306   3.372
43709W        W11927   7.835  23.608  10.769
43710W        W11928  38.474   9.459   2.771
43711W        W11929  22.631  23.708  11.610
43712W        W11930   8.874  27.392  10.919
43713W        W11931  22.392  19.195  12.904
43714W        W11932  26.644  21.789   4.917
43715W        W11933  28.955  25.068   0.110
43716W        W11934  34.790  11.347   4.123
43717W        W11935   8.120   4.869   5.032
43718W        W11936  26.071   6.143  11.970
43719W        W11937   7.800  16.535  12.069
43720W        W11938  17.047  12.594  11.202
43721W        W11939  21.606  26.321   4.527
43722W        W11940  34.968  31.367   2.239
43723W        W11941  11.797  44.267   1.787
43724W        W11942  25.607  37.047  14.165
43725W        W11943  40.430   5.409  11.213
43726W        W11944   3.210   0.161   4.741
43727W        W11945   9.640  40.235  13.816
43728W        W11946  34.656  22.234  11.143
43729W        W11947   3.584  15.125  12.558
43730W        W11948  20.506  21.070  10.987
43731W        W11949  41.107  18.248   4.962
43732W        W11950  10.040   0.299  13.351
43733W        W11951  28.968  10.568  14.395
43734W        W11952  25.041  29.032  14.959
43735W        W11953  15.584  14.994  12.071
43736W        W11954  27.808   7.102  12.128
43737W        W11955  26.926  31.986   4.268
43738W        W11956  10.863  20.113   0.256
43739W        W11957  28.138   5.948   1.280
43740W        W11958  32.625   8.978   2.695
43741W        W11959  19.594  44.229   1.346
43742W        W11960  38.343  14.890   2.284
43743W        W11961  43.395  11.551  12.764
43744W        W11962  43.707  21.042   2.702
43745W        W11963  29.513   2.721  14.748
43746W        W11964  20.343  32.320   0.282
43747W        W11965  22.062  35.536   0.151
43748W        W11966   0.394   4.789   3.774
43749W        W11967  28.959  37.016   0.991
43750W        W11968  37.394  36.559   3.698
43751W        W11969  18.258  36.052   4.101
43752W        W11970  33.057   8.724  11.632
43753W        W11971  12.273  33.316   1.793
43754W        W11972  37.558  21.416   1.842
43755W        W11973  40.392  19.531   2.260
43756W        W11974  17.551  38.006   2.269
43757W        W11975  29.137  35.821  12.474
43758W        W11976  44.934   2.756  13.276
43759W        W11977   8.656  20.810  11.528
43760W        W11978  21.820  33.574   0.919
43761W        W11979   1.574  21.680   3.657
43762W        W11980  27.457  36.886  12.963
43763W        W11981   0.818  19.510   3.350
43764W        W11982   1.157  38.448  14.270
43765W        W11983  32.411  44.620  11.109
43766W        W11984  38.614   8.251   0.632
43767W        W11985  11.340  39.969   4.629
43768W        W11986  41.860  18.772  11.992
43769W        W11987  27.573   1.561  13.522
43770W        W11988  42.968   4.714  12.859
43771W        W11989  16.934  33.118  13.924
43772W        W11990  16.967  26.895  13.422
43773W        W11991  43.383  13.377   3.964
43774W        W11992  11.884  20.323   0.359
43775W        W11993  30.971  20.239  14.362
43776W        W11994  39.277  17.806   4.178
43777W        W11995  21.573  38.197   3.416
43778W        W11996  26.818  20.495   3.910
43779W        W11997  26.942  19.792  11.503
43780W        W11998  13.779  18.846   1.443
43781W        W11999  18.500   2.052   0.283
43782W        W12000  20.479   7.299  12.956
43783W        W12001   3.165   8.602  14.377
43784W        W12002  29.425  11.617  12.578
43785W        W12003  41.778   8.356  13.426
43786W        W12004  32.301  27.634  11.229
43787W        W12005  12.673  40.527  10.606
43788W        W12006  22.241  17.062  13.890
43789W        W12007  44.883  36.825   1.209
43790W        W12008  36.364  11.881   1.899
43791W        W12009  13.080  25.018   3.278
43792W        W12010   9.927   0.450   0.741
43793W        W12011  32.517  35.798  14.128
43794W        W12012  16.123  19.049   3.798
43795W        W12013  22.730   5.473   0.093
43796W        W12014  36.000  24.073   4.077
43797W        W12015  29.473  42.297  13.555
43798W        W12016  30.473  18.291   2.038
43799W        W12017  11.344   1.909  10.662
43800W        W12018  10.660   7.895  14.895
43801W        W12019  44.970  31.557   4.122
43802W        W12020  40.568  14.230  12.410
43803W        W12021  24.062  11.757  13.160
43804W        W12022  34.593  18.600  11.554
43805W        W12023  33.405  33.416  12.873
43806W        W12024  13.872  13.325  14.541
43807W        W12025  21.529  19.178   4.576
43808W        W12026   7.820  43.327  11.206
43809W        W12027  25.726  16.741  14.733
43810W        W12028  41.475  38.500   1.937
43811W        W12029  12.324   4.671  11.556
43812W        W12030  34.264  39.965   4.497
43813W        W12031  23.976  43.776  14.421
43814W        W12032  16.575  27.096  13.075
43815W        W12033  15.763  15.790   3.284
43816W        W12034   5.398  11.900  11.499
43817W        W12035  39.945   8.123   4.294
43818W        W12036  31.239  22.448  10.717
43819W        W12037   1.769  32.599  11.003
43820W        W12038  22.378  26.670  13.035
43821W        W12039  13.235  35.245   0.862
43822W        W12040  11.092  27.567  13.279
43823W        W12041  10.802  25.717  12.118
43824W        W12042   3.343  23.384   0.003
43825W        W12043  25.928  24.270  12.129
43826W        W12044  31.503  15.278   0.254
43827W        W12045  10.392  29.082   1.264
43828W        W12046   8.379   2.013   2.890
43829W        W12047  10.292  13.058   0.520
43830W        W12048   8.750   0.844   3.411
43831W        W12049  20.030   5.835   3.607
43832W        W12050  35.976   5.416   2.015
43833W        W12051  42.847  31.584  10.751
43834W        W12052  37.051   5.215  14.351
43835W        W12053  32.023  41.425  11.533
43836W        W12054  35.918  33.414   3.996
43837W        W12055  28.509  36.282  11.900
43838W        W12056  30.184   1.873  13.020
43839W        W12057   8.160  18.159  14.590
43840W        W12058  18.708  17.666   2.239
43841W        W12059  16.284  23.439  12.814
43842W        W12060  13.064  18.488  14.012
43843W        W12061   0.237  37.032   4.727
43844W        W12062   5.721  17.876   2.323
43845W        W12063   1.788  13.696   1.984
43846W        W12064  36.602   0.304  13.756
43847W        W12065  32.248  43.847   4.201
43848W        W12066  25.022  13.670  12.415
43849W        W12067  13.786  25.139   4.833
43850W        W12068  33.207   7.700  10.793
43851W        W12069   9.718  38.152  12.757
43852W        W12070  41.313  12.386   2.301
43853W        W12071  31.424  36.534  14.957
43854W        W12072  39.453  11.984   0.840
43855W        W12073  26.372  17.729  10.516
43856W        W12074  22.054  38.318  14.349
43857W        W12075  16.868  43.397  11.869
43858W        W12076   2.227  33.727  14.483
43859W        W12077  22.681  34.032   2.821
43860W        W12078  21.349  10.491  11.175
43861W        W12079   8.780  19.115   3.080
43862W        W12080   0.853  11.196   4.659
43863W        W12081  14.243  33.680   0.999
43864W        W12082  32.032  40.909   1.779
43865W        W12083   8.954  14.914   2.332
43866W        W12084   8.704  27.744  11.742
43867W        W12085  20.726  24.791   1.789
43868W        W12086   3.413  38.266   2.484
43869W        W12087  32.374  25.346  10.318
43870W        W12088  18.861  31.389   2.761
43871W        W12089  13.931   9.815   2.804
43872W        W12090  33.865   8.693  12.155
43873W        W12091   6.912  11.076  11.565
43874W        W12092   5.384  10.413  12.871
43875W        W12093  25.189  27.898   2.695
43876W        W12094  10.708   0.402   1.178
43877W        W12095   0.725  16.265  11.205
43878W        W12096  25.976  26.670  14.360
43879W        W12097  29.528  31.191  14.939
43880W        W12098  37.038  11.140   4.289
43881W        W12099  22.655  40.453  12.947
43882W        W12100  22.010  40.722  11.141
43883W        W12101  17.518   5.459  11.952
43884W        W12102  25.082   7.692  11.613
43885W        W12103  25.459  26.215  12.481
43886W        W12104  14.106  15.093   4.745
43887W        W12105   5.882   0.016   3.152
43888W        W12106  27.839  10.212   0.876
43889W        W12107  30.134  19.897  12.041
43890W        W12108  39.088  15.584   3.587
43891W        W12109  25.038   9.922  14.469
43892W        W12110  22.056  11.409  11.203
43893W        W12111  17.173  31.202   2.347
43894W        W12112  44.423  35.426  10.743
43895W        W12113   5.388   7.110   1.828
43896W        W12114   6.695  40.584  14.385
43897W        W12115  31.387  21.010   1.255
43898W        W12116  30.140  12.191  14.470
43899W        W12117  34.089  17.604  11.963
43900W        W12118  43.016  42.824   0.593
43901W        W12119   4.477   3.665   1.431
43902W        W12120  14.796   0.452  12.584
43903W        W12121  30.573  21.347  10.206
43904W        W12122  21.980  31.564   3.296
43905W        W12123  43.518  43.896  14.357
43906W        W12124  19.277   6.382  11.153
43907W        W12125   0.925  10.697  14.321
43908W        W12126   7.700  23.025   4.587
43909W        W12127  40.401   2.673  11.088
43910W        W12128  40.323   4.560   1.161
43911W        W12129  12.638   1.219  13.050
43912W        W12130   0.466  19.659   2.670
43913W        W12131   4.373  34.000  11.949
43914W        W12132  28.604  24.654  10.242
43915W        W12133  35.974  14.257  10.727
43916W        W12134  14.871  26.641   1.244
43917W        W12135  35.367   3.820  13.320
43918W        W12136  10.231  10.675   4.393
43919W        W12137   0.527  37.446   3.873
43920W        W12138  31.235   5.873  14.274
43921W        W12139  10.719  41.286  14.290
43922W        W12140  34.340   5.422  12.426
43923W        W12141  37.501  38.443   2.642
43924W        W12142  15.104  41.816   1.412
43925W        W12143   4.244  11.596   0.811
43926W        W12144  20.715   1.022  14.995
43927W        W12145  39.870  29.518   4.463
43928W        W12146  37.320   0.514   2.527
43929W        W12147  21.725   8.762   0.759
43930W        W12148  40.609  23.058   2.764
43931W        W12149  24.673  11.931   4.936
43932W        W12150  24.587  10.713  14.443
43933W        W12151  34.733  18.099  14.935
43934W        W12152  15.134   1.319   5.234
43935W        W12153  10.624  14.380  11.100
43936W        W12154   5.775  18.141   4.631
43937W        W12155   0.907  40.945  14.975
43938W        W12156  31.650  33.883  12.478
43939W        W12157  37.711  30.613  11.693
43940W        W12158  23.144  27.922  13.060
43941W        W12159   4.663  33.450   3.171
43942W        W12160  32.557   5.510   4.852
43943W        W12161  14.381  36.591   2.629
43944W        W12162  30.988  43.823  12.098
43945W        W12163  28.471  28.207   0.275
43946W        W12164  25.440  32.963  10.848
43947W        W12165  31.690  27.649  14.684
43948W        W12166  25.618  12.004   5.218
43949W        W12167  42.860  38.422   4.460
43950W        W12168  18.281  19.109  14.048
43951W        W12169  33.576  38.749  13.404
43952W        W12170   9.719  36.032  14.977
43953W        W12171  25.687  42.813  12.542
43954W        W12172  26.291  32.501  11.178
43955W        W12173  27.936  14.711  13.304
43956W        W12174   3.653  33.540  12.137
43957W        W12175  40.478   0.329   2.377
43958W        W12176  12.724  12.623  13.366
43959W        W12177  15.673  42.031   3.254
43960W        W12178  11.790  32.462  11.645
43961W        W12179  23.684   0.383   1.266
43962W        W12180  35.630   4.363  12.546
43963W        W12181   0.622   7.757   4.312
43964W        W12182  31.701  36.822   4.166
43965W        W12183  19.578  26.219   1.621
43966W        W12184  21.202  29.667  11.116
43967W        W12185  15.261  33.656   4.446
43968W        W12186  12.102  10.115   0.381
43969W        W12187  16.169   4.499   3.557
43970W        W12188  26.984  26.102   9.941
43971W        W12189   9.989  28.448   0.799
43972W        W12190  27.182  15.830  12.036
43973W        W12191   5.858   3.399  13.272
43974W        W12192  18.987   0.691  11.588
43975W        W12193  20.565  37.232   3.599
43976W        W12194  43.347  29.830   0.310
43977W        W12195  33.696   5.801   2.874
43978W        W12196  40.475  30.433  10.938
43979W        W12197  17.575  38.963  14.061
43980W        W12198  14.218  29.236  10.571
43981W        W12199  41.505   3.979  14.386
43982W        W12200  17.233  10.125  14.250
43983W        W12201   2.246   7.907  12.565
43984W        W12202  17.611  44.669   4.191
43985W        W12203  44.751   4.097   3.656
43986W        W12204  42.617   0.472  14.258
43987W        W12205  24.561  23.207   1.965
43988W        W12206  15.974  11.344   2.373
43989W        W12207  28.527  26.220  14.390
43990W        W12208   1.828  28.553   0.056
43991W        W12209   1.891   2.299   1.545
43992W        W12210  35.668   5.533   2.420
43993W        W12211  28.473  35.737   2.294
43994W        W12212  23.953   2.786   3.144
43995W        W12213   5.005  30.145   3.279
43996W        W12214   0.571   6.373   3.730
43997W        W12215  20.641  44.010   3.127
43998W        W12216  15.142  27.900  13.447
43999W        W12217   1.552   8.811  10.896
44000W        W12218  15.680  18.133   2.885
44001W        W12219  20.137  15.001   3.785
44002W        W12220  37.439  12.396   1.300
44003W        W12221  17.872   3.765   1.450
44004W        W12222  27.521  14.837   0.681
44005W        W12223  12.684   0.216  13.103
44006W        W12224   0.227  13.769   4.238
44007W        W12225   3.596   5.250   2.805
44008W        W12226  23.852   1.571  12.924
44009W        W12227  20.436  41.188  12.867
44010W        W12228  26.541  40.273  14.259
44011W        W12229  27.043  12.610  12.424
44012W        W12230   9.745  32.188   3.672
44013W        W12231   7.266  39.153   1.983
44014W        W12232   4.803  18.271   4.466
44015W        W12233   3.521   6.919   0.929
44016W        W12234  12.667  23.508  10.605
44017W        W12235  15.295   3.761  11.371
44018W        W12236  25.201  20.455   2.241
44019W        W12237   5.894  31.134   3.327
44020W        W12238  38.848  29.059   0.944
44021W        W12239  13.485  30.985   3.246
44022W        W12240  10.831   5.632   1.698
44023W        W12241  33.061  42.049  11.925
44024W        W12242  12.802  42.736   1.440
44025W        W12243  43.114  28.963   2.537
44026W        W12244  17.604  43.361   3.897
44027W        W12245  23.694  23.502  13.395
44028W        W12246  35.366   9.033  11.498
44029W        W12247  36.302   6.690   4.608
44030W        W12248  26.169  32.989   0.624
44031W        W12249  15.333  41.080  12.245
44032W        W12250  19.422  19.906   4.492
44033W        W12251  27.545  44.995   3.991
44034W        W12252   9.725   2.592   3.554
44035W        W12253  38.488  21.515  11.400
44036W        W12254  31.929   1.415  12.515
44037W        W12255   9.620  39.567  12.682
44038W        W12256  34.570  40.027   1.817
44039W        W12257  30.906   0.691   1.342
44040W        W12258  29.449  37.006  12.105
44041W        W12259  19.384  32.752   4.205
44042W        W12260  28.147   5.259   4.091
44043W        W12261  24.435   5.797  14.806
44044W        W12262  32.082  43.565   0.581
44045W        W12263   2.700   8.328  14.444
44046W        W12264  41.339   7.657   4.179
44047W        W12265  16.168   2.476   3.595
44048W        W12266  28.623   8.877   0.942
44049W        W12267   1.146  41.926  13.985
44050W        W12268  26.155  43.829  11.401
44051W        W12269  22.709  43.935  11.191
44052W        W12270  33.652  26.077  12.098
44053W        W12271  15.332   3.618  14.411
44054W        W12272  13.290  16.803   1.435
44055W        W12273   2.460  35.944   1.409
44056W        W12274  14.607   0.584   5.395
44057W        W12275   0.860  22.260   3.064
44058W        W12276  36.073  44.642  11.228
44059W        W12277  19.262   7.410  14.341
44060W        W12278  33.640  18.150  10.715
44061W        W12279   3.881  38.873   1.431
44062W        W12280  31.263  37.404   4.778
44063W        W12281  40.732   6.366   0.033
44064W        W12282  15.043   1.679  13.038
44065W        W12283  18.107  30.394  12.785
44066W        W12284  11.862  21.132   1.001
44067W        W12285  26.272   2.744  11.538
44068W        W12286  27.805   4.255   4.913
44069W        W12287  41.032  20.483  15.000
44070W        W12288  27.017   0.264   4.245
44071W        W12289  36.681   5.401   0.699
44072W        W12290   2.809  28.073   0.144
44073W        W12291  26.945  19.558  11.957
44074W        W12292  44.946   7.602   0.942
44075W        W12293   6.620  36.912  11.707
44076W        W12294  42.503  40.245   0.650
44077W        W12295  24.616  16.288   3.629
44078W        W12296  28.358  28.491   3.761
44079W        W12297  15.646  13.084  14.055
44080W        W12298  43.899  43.931  13.054
44081W        W12299  44.092  22.699   0.395
44082W        W12300  35.004  17.615   4.291
44083W        W12301  14.272  28.276  12.620
44084W        W12302   9.278  43.276  12.455
44085W        W12303   6.823  34.016  13.379
44086W        W12304  15.681   2.835   5.098
44087W        W12305  26.409   3.103  10.301
44088W        W12306  19.166  25.159  12.476
44089W        W12307   4.635  43.591  11.483
44090W        W12308  23.056   2.325  10.759
44091W        W12309   6.192  10.079   1.650
44092W        W12310  10.810  25.583  11.192
44093W        W12311  21.555  43.290   4.119
44094W        W12312  17.084  20.452   3.260
44095W        W12313  30.768   1.506  13.924
44096W        W12314  18.277   0.444  10.802
44097W        W12315  13.743  33.132  11.758
44098W        W12316   3.273  14.756   3.209
44099W        W12317  43.334  41.796  10.542
44100W        W12318  15.075  28.738  12.089
44101W        W12319  23.595  43.077   1.788
44102W        W12320  23.793   2.643  12.729
44103W        W12321  10.251   8.328   2.391
44104W        W12322   5.244  38.144  11.568
44105W        W12323  41.611  15.745   2.825
44106W        W12324   0.752  17.990   4.235
44107W        W12325  12.241  17.281   0.412
44108W        W12326   9.771  38.837  11.666
44109W        W12327  11.800   1.363   3.662
44110W        W12328  19.763  11.334  13.600
44111W        W12329  43.202  17.064   2.382
44112W        W12330  11.779  13.213  12.604
44113W        W12331  37.152   3.801   1.395
44114W        W12332  26.521  35.100   4.051
44115W        W12333  41.596   6.750   4.260
44116W        W12334  31.371   2.162  13.724
44117W        W12335  28.626  43.370   3.310
44118W        W12336  34.559   4.468  13.489
44119W        W12337  28.453  37.616   4.289
44120W        W12338  30.385   5.845  11.203
44121W        W12339  17.127  15.654  12.299
44122W        W12340  17.511   5.802   2.730
44123W        W12341  35.099  36.856  10.660
44124W        W12342  25.741   8.825  13.013
44125W        W12343  16.952   0.824   3.132
44126W        W12344   4.842  27.245  12.793
44127W        W12345  20.783  15.521   2.759
44128W        W12346  32.695  23.263   4.670
44129W        W12347  39.006  14.697  13.050
44130W        W12348  15.416  30.947   1.889
44131W        W12349  22.189  16.873  12.529
44132W        W12350  33.604  39.624  12.342
44133W        W12351  40.497   0.764  10.387
44134W        W12352  14.094  34.123   4.182
44135W        W12353  39.915   8.645   2.433
44136W        W12354   4.619  30.625  14.633
44137W        W12355   4.694  27.372   4.572
44138W        W12356  17.016  22.210  11.197
44139W        W12357  36.319   8.583  11.020
44140W        W12358  28.501  26.140   3.227
44141W        W12359  39.636  21.502  13.392
44142W        W12360  27.038   4.850   2.250
44143W        W12361   9.938   9.402   3.184
44144W        W12362  11.504  16.047   0.718
44145W        W12363  27.484  33.367   3.170
44146W        W12364  10.877  16.140   3.744
44147W        W12365   7.836  11.847   3.878
44148W        W12366  42.981  11.621   2.437
44149W        W12367  40.543  17.035  11.157
44150W        W12368  43.039   4.357  12.433
44151W        W12369   3.986  16.684  13.128
44152W        W12370   8.405  35.559   4.146
44153W        W12371   8.615   4.310  14.473
44154W        W12372  35.102  17.390   0.600
44155W        W12373  30.610  42.951  14.833
44156W        W12374  33.584  22.478   1.748
44157W        W12375  43.351  19.588   1.726
44158W        W12376  40.456  32.024  11.915
44159W        W12377  39.572   3.537   2.305
44160W        W12378  41.009  34.172  10.565
44161W        W12379  34.976   9.345   4.084
44162W        W12380  43.622  26.691   1.780
44163W        W12381  24.357  14.736   1.673
44164W        W12382   8.390  21.127  10.563
44165W        W12383  23.741   9.761   0.925
44166W        W12384  22.555  41.075  13.776
44167W        W12385  15.281  17.804  14.917
44168W        W12386   0.384   0.414  11.378
44169W        W12387  14.564  32.566   1.713
44170W        W12388  31.137  14.353   2.280
44171W        W12389  26.347  22.539  10.662
44172W        W12390  21.327  30.594   3.827
44173W        W12391  12.203  29.635  11.543
44174W        W12392   5.757   9.543  10.690
44175W        W12393  40.753  10.945   3.296
44176W        W12394  34.822  44.813   0.436
44177W        W12395  14.139  18.063   1.954
44178W        W12396   5.665  26.011  14.268
44179W        W12397  25.020  19.083  11.837
44180W        W12398  17.913   5.686  11.106
44181W        W12399  30.082  37.541   0.785
44182W        W12400  38.321  37.190   1.399
44183W        W12401   8.114   9.582  11.085
44184W        W12402  27.449  41.981  13.767
44185W        W12403   8.369  18.565  13.338
44186W        W12404  14.788   4.496  10.344
44187W        W12405   2.402  40.215   3.897
44188W        W12406  25.674  28.105  12.909
44189W        W12407  26.753  13.749  11.071
44190W        W12408  24.105  21.882  10.343
44191W        W12409  39.871  12.287  11.209
44192W        W12410  38.020  41.504  10.783
44193W        W12411  31.450  13.709  11.133
44194W        W12412  20.794  39.482  13.553
44195W        W12413  24.895  22.187   4.776
44196W        W12414  34.355   7.228  12.762
44197W        W12415  27.210  24.670  13.492
44198W        W12416  32.693  23.638  13.874
44199W        W12417   4.463  29.012  13.398
44200W        W12418  19.657  29.939   2.378
44201W        W12419  28.392   8.311  12.998
44202W        W12420  10.414  13.291   0.074
44203W        W12421  13.179  13.221  12.050
44204W        W12422   9.245  13.109   0.415
44205W        W12423  22.321  34.641   3.553
44206W        W12424  42.510  30.636   3.675
44207W        W12425   3.723  25.298  12.052
44208W        W12426  22.268   8.621   4.157
44209W        W12427  10.129   6.178  13.442
44210W        W12428   4.993  34.592  14.377
44211W        W12429  34.862  25.319   1.876
44212W        W12430  16.151  38.440  12.703
44213W        W12431  38.978   9.771   1.824
44214W        W12432  20.272  41.577   1.922
44215W        W12433  34.669  35.748   5.006
44216W        W12434  21.124   5.361   2.892
44217W        W12435   3.884   6.470   3.345
44218W        W12436   0.250   5.152  11.593
44219W        W12437  29.265  39.704   3.676
44220W        W12438  41.184  10.766   1.296
44221W        W12439  43.010  44.173   0.237
44222W        W12440  41.494  15.072   2.376
44223W        W12441  30.884  41.927   3.289
44224W        W12442  15.186   4.477  13.014
44225W        W12443  19.235   2.292  14.696
44226W        W12444   0.270   3.397   3.544
44227W        W12445  38.418  29.627   1.172
44228W        W12446  24.735   1.811  14.237
44229W        W12447  44.567   7.863   1.179
44230W        W12448   2.835  34.489   4.208
44231W        W12449  19.025  40.353   2.483
44232W        W12450  31.532  10.967   1.576
44233W        W12451  14.299  28.789   0.770
44234W        W12452  17.213  18.059   0.075
44235W        W12453  34.943   7.150   2.709
44236W        W12454  38.798   9.496   0.783
44237W        W12455  24.023  26.141   0.772
44238W        W12456  22.174  18.565  12.066
44239W        W12457  34.244  19.905  14.870
44240W        W12458  30.928  13.646   0.211
44241W        W12459   9.860  43.320  10.601
44242W        W12460   6.767  19.671   0.819
44243W        W12461   5.271  27.454   2.567
44244W        W12462  10.862   8.335   3.609
44245W        W12463  17.645   7.144   4.393
44246W        W12464  16.249  31.534   3.613
44247W        W12465  31.857   2.889   0.425
44248W        W12466   5.733  40.054   4.638
44249W        W12467   9.114  20.725   0.463
44250W        W12468  27.971  23.923  13.058
44251W        W12469  21.868   8.279   0.926
44252W        W12470  43.035  40.976   4.156
44253W        W12471   2.008   1.418   0.367
44254W        W12472  10.327  18.332  12.448
44255W        W12473  38.074   5.927  11.168
44256W        W12474   0.958  11.134  13.571
44257W        W12475  14.748  26.738   1.755
44258W        W12476  20.690  21.610  10.805
44259W        W12477  30.709  37.543  10.822
44260W        W12478  15.077  33.097  14.048
44261W        W12479  18.228  32.058   2.368
44262W        W12480   5.356  35.122   3.726
44263W        W12481  10.728  38.411  11.377
44264W        W12482  32.653  27.084   0.777
44265W        W12483  29.480  14.920  11.945
44266W        W12484  16.866   3.028   1.008
44267W        W12485  15.170   6.829  12.995
44268W        W12486  12.508  20.532   0.298
44269W        W12487  11.570  34.987   1.878
44270W        W12488  31.524  13.820  13.813
44271W        W12489   4.305  29.121  12.890
44272W        W12490  29.970  40.774   1.620
44273W        W12491   5.264  26.570   0.518
44274W        W12492  32.254  24.648  13.973
44275W        W12493   7.703  11.750   0.321
44276W        W12494  31.870  23.761   3.760
44277W        W12495  36.972   5.461  14.801
44278W        W12496  23.645  39.855  11.851
44279W        W12497   7.672  10.227   0.464
44280W        W12498  17.629  36.066   3.785
44281W        W12499  37.428  18.079  10.548
44282W        W12500  24.186   4.920  10.831
44283W        W12501   2.239  39.506  10.615
44284W        W12502  29.640  16.202  11.466
44285W        W12503  40.227  39.033   3.172
44286W        W12504  25.632   9.327  14.031
44287W        W12505  12.652  20.131   3.215
44288W        W12506  42.502  35.279  11.736
44289W        W12507  42.387  12.560   1.874
44290W        W12508  16.375  22.082  14.503
44291W        W12509   1.476  17.647  13.743
44292W        W12510  38.499  16.514  10.861
44293W        W12511  16.560  27.438  10.736
44294W        W12512   2.511  24.172  11.195
44295W        W12513   5.445  38.579   3.759
44296W        W12514  26.486  39.929  12.942
44297W        W12515  21.081  38.656   1.321
44298W        W12516  22.072   4.752   0.402
44299W        W12517  15.227  33.585   3.701
44300W        W12518  27.150  28.617   2.991
44301W        W12519  22.067   3.060   4.699
44302W        W12520   3.277  15.114   1.276
44303W        W12521  23.054   5.622  13.347
44304W        W12522  12.852   4.077  14.477
44305W        W12523  41.776   1.191   2.181
44306W        W12524  12.806  25.606  14.867
44307W        W12525   8.760   7.160   3.275
44308W        W12526   6.210  31.907  14.076
44309W        W12527   2.793  33.884   3.335
44310W        W12528  33.924  26.655  14.823
44311W        W12529  32.188  37.070  11.468
44312W        W12530  30.249  37.222  14.964
44313W        W12531  42.868  30.948   2.622
44314W        W12532  26.107   7.641   0.852
44315W        W12533   1.778   7.928  14.588
44316W        W12534  30.866   1.453   4.245
44317W        W12535   3.528  15.244  14.502
44318W        W12536  14.431  42.192  13.253
44319W        W12537  10.958  31.148   2.027
44320W        W12538  12.721  33.052   0.758
44321W        W12539   8.148  42.512   3.151
44322W        W12540  23.327  12.264  11.940
44323W        W12541  37.924   2.933   0.712
44324W        W12542  38.122  13.485   2.897
44325W        W12543  17.620  28.396   4.501
44326W        W12544  35.617  33.584  14.785
44327W        W12545  16.140  16.412   4.533
44328W        W12546  27.533  34.455   1.357
44329W        W12547   8.993  25.949  10.958
44330W        W12548  21.346   5.218   3.331
44331W        W12549  12.232  19.327  14.803
44332W        W12550  24.458  14.777  14.834
44333W        W12551   7.183  15.733  10.280
44334W        W12552  13.379  28.898   3.169
44335W        W12553  17.671  21.583   1.335
44336W        W12554  33.288  26.182  11.167
44337W        W12555  25.193  34.531  12.344
44338W        W12556  43.112  13.533  12.893
44339W        W12557   7.833  19.107  10.109
44340W        W12558  14.096  33.575  14.625
44341W        W12559  32.432   7.304   2.659
44342W        W12560   4.550   6.650  10.764
44343W        W12561  15.909   3.429  12.914
44344W        W12562  20.597  38.483   1.201
44345W        W12563  41.427  23.888   4.777
44346W        W12564   9.123  25.099   0.024
44347W        W12565  15.198  44.377  13.735
44348W        W12566  22.254  11.014   0.281
44349W        W12567   9.231   8.968  13.042
44350W        W12568  29.659   2.215  10.671
44351W        W12569  20.529   5.189  12.997
44352W        W12570  31.777   9.799  13.917
44353W        W12571  24.468  33.535   4.544
44354W        W12572   8.145  23.584   5.078
44355W        W12573  16.103  33.980  11.512
44356W        W12574  31.519  23.687   4.125
44357W        W12575  33.165  44.635   1.707
44358W        W12576  35.788  36.423  11.166
44359W        W12577  40.189   8.547   4.152
44360W        W12578  30.513   4.779   0.732
44361W        W12579  20.831  40.031  12.403
44362W        W12580  27.409  41.817   2.963
44363W        W12581  16.700   7.811   2.359
44364W        W12582  25.515  26.415  14.396
44365W        W12583  14.914   3.231   0.516
44366W        W12584  40.818  39.903  12.163
44367W        W12585  13.584  28.721   1.590
44368W        W12586  39.155  32.513   1.465
44369W        W12587  34.556  27.195  12.974
44370W        W12588  39.562  38.997  11.376
44371W        W12589  36.842   8.428   2.032
44372W        W12590  16.856  12.696  10.720
44373W        W12591  38.792   7.842  11.156
44374W        W12592  11.801  15.508  12.708
44375W        W12593  30.099  31.022   2.904
44376W        W12594   2.424  35.635  13.001
44377W        W12595   5.224  17.741  14.343
44378W        W12596  13.689  32.077  13.806
44379W        W12597  14.857  21.263  13.504
44380W        W12598  33.130  31.016  12.617
44381W        W12599  29.050  31.538  13.821
44382W        W12600  10.817  10.346  11.609
44383W        W12601  30.592  19.544   3.336
44384W        W12602  21.653  39.979   1.827
44385W        W12603   1.977  40.539   2.615
44386W        W12604  42.898  13.166   1.207
44387W        W12605   5.858  41.935   0.902
44388W        W12606  33.678  20.192   2.252
44389W        W12607  29.677  43.757  14.398
44390W        W12608  11.862  42.555  12.872
44391W        W12609  21.662  24.031   1.396
44392W        W12610  40.076   9.835  11.183
44393W        W12611  18.569  24.595   1.628
44394W        W12612  21.627   8.379   2.468
44395W        W12613  28.425  30.965   4.755
44396W        W12614  40.451  11.301   0.804
44397W        W12615  42.333  31.176   0.772
44398W        W12616  14.780  12.115   3.971
44399W        W12617  40.687   9.273   2.121
44400W        W12618   1.925  20.081   3.193
44401W        W12619  10.471   6.837  11.134
44402W        W12620  37.840  33.017  11.935
44403W        W12621   4.213   5.808   0.536
44404W        W12622  41.212   7.764  14.858
44405W        W12623   8.259  43.199   4.754
44406W        W12624  18.317  39.471  10.622
44407W        W12625  13.213  38.137   1.807
44408W        W12626  34.303   2.575  11.102
44409W        W12627  39.023  40.607   1.825
44410W        W12628  31.600  36.953   3.670
44411W        W12629   3.498  29.971  13.472
44412W        W12630  39.325  35.606  10.694
44413W        W12631   8.676  41.546   0.760
44414W        W12632  44.404  37.906   3.181
44415W        W12633  43.629   4.424  10.655
44416W        W12634   2.659  10.635   2.923
44417W        W12635   8.131  43.816  13.152
44418W        W12636  19.370  24.152   2.584
44419W        W12637  43.841  44.307  11.686
44420W        W12638  42.432  13.636  13.435
44421W        W12639  13.702  14.257  12.560
44422W        W12640  40.436   4.422  12.098
44423W        W12641  38.582  41.855   0.314
44424W        W12642   3.909  36.176   1.344
44425W        W12643  14.193   1.380   3.296
44426W        W12644  14.664  12.848   2.731
44427W        W12645   2.268   1.069   3.720
44428W        W12646  11.657  35.739   4.543
44429W        W12647  33.938  33.542  12.960
44430W        W12648  29.950   0.986  11.569
44431W        W12649  21.023  10.491   5.054
44432W        W12650  18.488  31.965  10.691
44433W        W12651   0.151  27.054   4.770
44434W        W12652  33.644  42.000  14.340
44435W        W12653   7.697  28.161  11.049
44436W        W12654  34.525  23.946   3.676
44437W        W12655  30.421  29.082   1.807
44438W        W12656   6.844  42.549   0.366
44439W        W12657  37.070   7.215  13.521
44440W        W12658  28.882  17.542  11.521
44441W        W12659   9.255  15.852   3.672
44442W        W12660   8.559  36.084  14.348
44443W        W12661  20.561  30.151  12.483
44444W        W12662  39.988  25.216  14.115
44445W        W12663  35.975   8.768   2.652
44446W        W12664  19.568  37.773  14.154
44447W        W12665  21.236  14.187   1.353
44448W        W12666  43.187   2.712  11.305
44449W        W12667  42.744  42.032  13.253
44450W        W12668  30.888  43.248  13.391
44451W        W12669  43.257  31.419   3.552
44452W        W12670   8.728  26.019   3.755
44453W        W12671   7.383   3.440  11.194
44454W        W12672   6.413  34.362  14.719
44455W        W12673  20.657  24.173   4.195
44456W        W12674  13.371  30.907   4.487
44457W        W12675  24.795  30.920   0.964
44458W        W12676  32.809  13.334  13.890
44459W        W12677  43.171  17.967  12.988
44460W        W12678   6.961  36.603  10.796
44461W        W12679  20.819  38.406   1.674
44462W        W12680  42.762  36.649   3.692
44463W        W12681  24.497  30.674   2.237
44464W        W12682  12.467  21.254   3.703
44465W        W12683  41.033   6.912  12.453
44466W        W12684  36.333  11.470  12.287
44467W        W12685  18.246  21.591   0.201
44468W        W12686   5.492  18.609  13.292
44469W        W12687  37.431  31.915  13.953
44470W        W12688  19.769  10.294  11.529
44471W        W12689  22.718  29.685   4.224
44472W        W12690  38.943  35.918   0.298
44473W        W12691   4.023  41.110  13.072
44474W        W12692   9.829  19.239   0.080
44475W        W12693  24.627  16.132  12.019
44476W        W12694  17.592  15.811  13.637
44477W        W12695   9.867  31.948  12.399
44478W        W12696  33.521   1.161  12.955
44479W        W12697  34.617  42.840  13.975
44480W        W12698  20.571   3.486  13.139
44481W        W12699   3.398  28.744   1.377
44482W        W12700  14.368  39.741   3.813
44483W        W12701  18.862  44.954   2.381
44484W        W12702  37.476  11.060   2.207
44485W        W12703   9.423  27.636   0.531
44486W        W12704  34.610   0.922  13.961
44487W        W12705  38.225  41.456   4.549
44488W        W12706  11.562  24.255  12.416
44489W        W12707  38.165   1.996  14.419
44490W        W12708  11.567  17.613  14.884
44491W        W12709  26.323  42.411   1.772
44492W        W12710  17.164   0.764   0.260
44493W        W12711  23.975  24.789  10.588
44494W        W12712  17.647   2.865   0.415
44495W        W12713  35.652  39.604  10.942
44496W        W12714  23.545  25.950  11.481
44497W        W12715  11.629  11.772   2.790
44498W        W12716  25.041   0.023   4.572
44499W        W12717  34.601  19.590   1.020
44500W        W12718  36.771  35.202  12.459
44501W        W12719   7.147   7.866   0.765
44502W        W12720  43.224  14.666   3.881
44503W        W12721  36.778  13.655  13.819
44504W        W12722  35.117   6.174  12.373
44505W        W12723   9.394  18.764  12.896
44506W        W12724  32.371  30.967   0.335
44507W        W12725  33.197  24.519   1.448
44508W        W12726   2.698  35.220  11.290
44509W        W12727  25.934  39.908   4.148
44510W        W12728   6.165  39.855   1.827
44511W        W12729  32.483  37.114  10.457
44512W        W12730  41.054   7.985   4.800
44513W        W12731  37.793  22.498   4.580
44514W        W12732   3.997  15.678  14.751
44515W        W12733  21.103  20.259  12.802
44516W        W12734  23.820  13.897   1.920
44517W        W12735  38.963  42.132  14.449
44518W        W12736  41.519  14.118  14.319
44519W        W12737   7.872  21.520  11.516
44520W        W12738   5.866  41.277   1.407
44521W        W12739  28.941  16.262  12.080
44522W        W12740  38.472   4.026   2.273
44523W        W12741  18.945  42.360  10.804
44524W        W12742  29.413   6.219  10.724
44525W        W12743  39.353  33.076   1.332
44526W        W12744   5.935   2.034   4.321
44527W        W12745  41.899  16.765  13.854
44528W        W12746  27.796  32.895  12.441
44529W        W12747  26.256  34.008  10.543
44530W        W12748  42.012   7.176  11.108
44531W        W12749  12.638   0.896  13.901
44532W        W12750  17.214  36.447   1.299
44533W        W12751  33.522  18.022   0.440
44534W        W12752  35.148  29.654  10.666
44535W        W12753   4.271  42.308   2.841
44536W        W12754  31.143  24.479  12.294
44537W        W12755   0.820  32.245   1.933
44538W        W12756   7.194  40.320   4.959
44539W        W12757  41.024  42.857   4.085
44540W        W12758  13.816  33.950   2.758
44541W        W12759  21.441  10.820   4.088
44542W        W12760  36.893  23.106  10.565
44543W        W12761   4.204  34.849   3.344
44544W        W12762  19.093   0.481   3.916
44545W        W12763   2.719  24.240  11.735
44546W        W12764  23.510  11.229   1.847
44547W        W12765  26.054  25.784  13.036
44548W        W12766  10.012  42.301  14.805
44549W        W12767  13.398   7.840   2.813
44550W        W12768  33.927   5.767   4.589
44551W        W12769  34.001  34.962  13.816
44552W        W12770  11.972  42.002   3.644
44553W        W12771  17.759   0.209   4.278
44554W        W12772  25.262  19.095  12.279
44555W        W12773   5.835   0.809  14.068
44556W        W12774  20.512   2.696  13.452
44557W        W12775  36.156   5.146  14.328
44558W        W12776  23.620  25.927   0.511
44559W        W12777   4.307   9.828   3.557
44560W        W12778  14.797  16.345   4.250
44561W        W12779  44.332  32.037  10.327
44562W        W12780  14.064  32.967   3.740
44563W        W12781  12.796  23.760   0.859
44564W        W12782  17.833  34.005   0.721
44565W        W12783  11.165  30.922  11.069
44566W        W12784  23.017  32.536   3.650
44567W        W12785  31.603  40.083  11.886
44568W        W12786  43.859  34.082   0.266
44569W        W12787  24.513  27.325   2.665
44570W        W12788  41.136  31.925   0.905
44571W        W12789  13.775  38.160  11.446
44572W        W12790  13.860  16.951  14.320
44573W        W12791  27.577  11.825  12.420
44574W        W12792   2.427  18.341  10.716
44575W        W12793  36.980  18.232   0.246
44576W        W12794  10.224  42.020   4.670
44577W        W12795   4.715   5.471  13.862
44578W        W12796   6.753  37.972   1.330
44579W        W12797  14.274  37.474  12.629
44580W        W12798   1.320   5.505   1.256
44581W        W12799  39.275   0.013  11.475
44582W        W12800   9.676  41.105   1.754
44583W        W12801  29.132   5.596  14.471
44584W        W12802  20.899  36.098   4.933
44585W        W12803  44.377  32.450   2.495
44586W        W12804  25.239  35.090   2.798
44587W        W12805  11.595  40.545  13.853
44588W        W12806  15.132  10.695  12.412
44589W        W12807   3.774  23.363   1.113
44590W        W12808  39.003  38.522   1.524
44591W        W12809  24.827  31.568  12.695
44592W        W12810  11.225  17.904  11.732
44593W        W12811  19.319  19.115  14.047
44594W        W12812  33.358   9.672   9.793
44595W        W12813  38.378  32.442   0.372
44596W        W12814  36.135  42.449   0.991
44597W        W12815   9.602  30.158  14.452
44598W        W12816  41.266  26.229   4.142
44599W        W12817  31.645  32.575  12.419
44600W        W12818   0.345  44.795   4.652
44601W        W12819  20.303   4.709   0.968
44602W        W12820   9.218  35.401   0.510
44603W        W12821  20.461  44.786  11.128
44604W        W12822   0.563  33.984  11.589
44605W        W12823  44.671  19.355   2.378
44606W        W12824  29.646  23.503  12.911
44607W        W12825  36.532   3.478  13.010
44608W        W12826  15.559  38.425  14.455
44609W        W12827  38.559  14.308   4.050
44610W        W12828  24.992  38.039  12.544
44611W        W12829  26.155   7.350   1.306
44612W        W12830  39.788   2.368   0.686
44613W        W12831  40.550  25.479   4.228
44614W        W12832  14.653  43.344   3.765
44615W        W12833  27.286  11.596   0.451
44616W        W12834  26.596  35.981  14.009
44617W        W12835  21.211  11.719   0.883
44618W        W12836  32.913  39.044  12.291
44619W        W12837  17.399   8.211   1.635
44620W        W12838  26.520   6.293  13.127
44621W        W12839  24.680   1.735   4.204
44622W        W12840   1.824  41.096   3.292
44623W        W12841  15.596  16.119   3.680
44624W        W12842  25.050  30.490   3.728
44625W        W12843  25.461  32.499   1.201
44626W        W12844   5.898  15.261  14.824
44627W        W12845  11.990  40.345   9.876
44628W        W12846   0.193   3.415   4.055
44629W        W12847  31.724  28.177   0.393
44630W        W12848  32.854   3.737   0.625
44631W        W12849   4.827  42.403   0.493
44632W        W12850  41.407   8.580   0.247
44633W        W12851  20.837  36.070   4.146
44634W        W12852  42.745  18.175  10.680
44635W        W12853  16.083  24.571  12.166
44636W        W12854  22.483   2.941   3.346
44637W        W12855  29.836  11.782  14.415
44638W        W12856   2.868  34.967  12.700
44639W        W12857  32.636  12.320  12.379
44640W        W12858  10.949  44.406  14.097
44641W        W12859  35.334  25.740   2.868
44642W        W12860  20.164  41.520   3.669
44643W        W12861  22.966  17.313  12.465
44644W        W12862   6.142  34.083  12.471
44645W        W12863  40.759  40.749  12.880
44646W        W12864   3.311  29.440  12.538
44647W        W12865  38.669  12.827   4.092
44648W        W12866  31.039   0.227   4.016
44649W        W12867  37.459   7.898   2.426
44650W        W12868  25.997  40.867  11.969
44651W        W12869  25.116  23.026   1.449
44652W        W12870   8.942  38.148  12.931
44653W        W12871  24.969   9.268   3.820
44654W        W12872  43.580  12.728   1.643
44655W        W12873  31.067  21.676   1.468
44656W        W12874  34.349  40.683   2.437
44657W        W12875  19.090   3.209  14.860
44658W        W12876  37.957  14.249   3.185
44659W        W12877  32.420  23.074  11.655
44660W        W12878   4.681  20.966   2.242
44661W        W12879  40.107  32.708   2.373
44662W        W12880  42.368   4.211   0.713
44663W        W12881  33.323  12.221   3.256
44664W        W12882  33.900  23.500  14.996
44665W        W12883  37.046  13.737   1.925
44666W        W12884   5.359  26.065   3.134
44667W        W12885  14.357  42.462   0.617
44668W        W12886   0.297  33.400  14.285
44669W        W12887  14.661  10.889  11.560
44670W        W12888  16.660  43.461   3.356
44671W        W12889  26.132   1.282  14.697
44672W        W12890  14.262  16.809  11.017
44673W        W12891  28.935  36.150   0.385
44674W        W12892  40.997  32.326   3.327
44675W        W12893  40.920  26.181  12.314
44676W        W12894  32.214  38.300   1.021
44677W        W12895  44.895   3.739  14.765
44678W        W12896  42.803  10.404   4.464
44679W        W12897  36.561  41.780  13.217
44680W        W12898  18.504  25.088  11.907
44681W        W12899  18.000  24.993   3.966
44682W        W12900   0.205  44.625   1.047
44683W        W12901  19.266   0.849   3.604
44684W        W12902  17.068  35.680   4.090
44685W        W12903   2.668  19.368   1.701
44686W        W12904   2.748   7.419  11.533
44687W        W12905  36.761  21.975   0.772
44688W        W12906  13.387   9.233   0.803
44689W        W12907   0.876  34.433  13.138
44690W        W12908  25.905  39.423  14.069
44691W        W12909  14.082   2.435  13.371
44692W        W12910  27.890  17.327   3.969
44693W        W12911  11.845  12.431  13.336
44694W        W12912   6.460  35.099   1.362
44695W        W12913  23.977  17.037   0.329
44696W        W12914  18.029  11.950  13.848
44697W        W12915  16.159  40.629  10.758
44698W        W12916  41.048  38.250  12.467
44699W        W12917  28.669  40.086   4.102
44700W        W12918  10.779  16.207  12.204
44701W        W12919   3.192   0.778  11.527
44702W        W12920   7.898   1.232  12.826
44703W        W12921  35.062   8.198  13.410
44704W        W12922   5.689  24.844   1.240
44705W        W12923  39.286  41.011   3.621
44706W        W12924  19.316  21.990   3.712
44707W        W12925   0.996  30.136   0.996
44708W        W12926  17.863  38.591  14.339
44709W        W12927  23.473  18.679  12.464
44710W        W12928   5.434  43.939   0.064
44711W        W12929  17.237  26.504   0.987
44712W        W12930  19.778  24.907  10.729
44713W        W12931  21.256   1.201  11.916
44714W        W12932   9.146   3.247   0.702
44715W        W12933   8.502   4.724   1.828
44716W        W12934   4.330   9.964  14.345
44717W        W12935  34.023  19.804   0.327
44718W        W12936  33.025  35.661   1.843
44719W        W12937  16.424  30.570   2.255
44720W        W12938  43.998  21.109  11.054
44721W        W12939   4.710  11.757   0.990
44722W        W12940   8.193  14.769   0.077
44723W        W12941   9.690  17.825  14.529
44724W        W12942  30.561  31.053  12.905
44725W        W12943  24.126  31.335   4.321
44726W        W12944  10.091  36.464   3.200
44727W        W12945  11.077  40.558  13.856
44728W        W12946  23.744   1.834   3.887
44729W        W12947  38.975  44.896   2.379
44730W        W12948  42.765  34.002  11.314
44731W        W12949  17.697  24.027   4.175
44732W        W12950  35.050   5.146   3.980
44733W        W12951  24.284  16.835  12.482
44734W        W12952   4.238  27.272  11.904
44735W        W12953   2.441   7.397   3.355
44736W        W12954   4.813   2.270   9.981
44737W        W12955   6.698  26.250   3.211
44738W        W12956  39.382  44.132  11.480
44739W        W12957  20.205  28.009   3.650
44740W        W12958  27.137  17.262   1.436
44741W        W12959  27.891  39.919  13.191
44742W        W12960  32.279  37.505  10.773
44743W        W12961  28.439   8.384   0.859
44744W        W12962  22.047  22.969   4.551
44745W        W12963   9.352  13.522  14.440
44746W        W12964  24.570   2.206   4.330
44747W        W12965  31.631  16.739   1.645
44748W        W12966   1.511   2.397  12.417
44749W        W12967  43.552   6.319   2.785
44750W        W12968  14.848  12.362  12.397
44751W        W12969  24.542  36.372   4.652
44752W        W12970  43.755  44.855   0.860
44753W        W12971  16.633  15.106   1.429
44754W        W12972  36.615  33.095   3.690
44755W        W12973  21.832  31.995  11.138
44756W        W12974   2.693  37.919   3.875
44757W        W12975   9.703  12.871   1.771
44758W        W12976  12.261   1.464   2.439
44759W        W12977  34.911  18.981  11.694
44760W        W12978  13.145  23.645   4.556
44761W        W12979   9.690   5.271  12.060
44762W        W12980  22.121  41.040  10.722
44763W        W12981   0.361  16.578  14.374
44764W        W12982  11.877  43.855  12.123
44765W        W12983  16.503  38.466  11.391
44766W        W12984  36.424   1.759  13.964
44767W        W12985  26.656  31.143   3.289
44768W        W12986  19.678   3.666  11.545
44769W        W12987  35.598  17.192  12.081
44770W        W12988  10.592   2.712   3.088
44771W        W12989  19.103  28.386  11.022
44772W        W12990   7.448  19.661  12.103
44773W        W12991  32.663  44.781   3.410
44774W        W12992  11.689  18.000   0.808
44775W        W12993  16.986  22.572  14.764
44776W        W12994  39.540  35.749  11.472
44777W        W12995   4.136  28.475   2.183
44778W        W12996   6.784  13.412   1.905
44779W        W12997  22.621   0.761  12.816
44780W        W12998   2.454  15.201  11.090
44781W        W12999   1.650   3.716  11.200
44782W        W13000   4.142  14.859  12.450
44783W        W13001  13.387   5.302  11.940
44784W        W13002  23.770  11.297  14.758
44785W        W13003  14.791  32.817   1.270
44786W        W13004  26.924  30.960   4.257
44787W        W13005  25.949  31.642   2.042
44788W        W13006  25.750   4.889   1.867
44789W        W13007  28.181  31.169   2.483
44790W        W13008   8.265   7.827  13.027
44791W        W13009  40.304  18.524   2.282
44792W        W13010   5.784  33.477   0.898
44793W        W13011   1.783   0.874  10.370
44794W        W13012  12.079   5.680  14.948
44795W        W13013   0.720  36.401   1.375
44796W        W13014   6.291   0.420   4.946
44797W        W13015  34.542  31.730  13.378
44798W        W13016   6.465   0.892   0.156
44799W        W13017   8.867  12.318   2.730
44800W        W13018  35.582   6.947   1.328
44801W        W13019   4.530  21.631  10.459
44802W        W13020  41.082  34.781   0.633
44803W        W13021  17.818   5.381  11.533
44804W        W13022  27.623  22.947   2.548
44805W        W13023   5.814  21.627  11.352
44806W        W13024  35.338  20.579   1.850
44807W        W13025  41.458  39.602   1.401
44808W        W13026   4.274  21.289  10.116
44809W        W13027   5.113   9.816   1.733
44810W        W13028  13.809  14.781   5.031
44811W        W13029  10.652  18.728  14.954
44812W        W13030  25.414  10.459  12.640
44813W        W13031  32.853  36.842   3.098
44814W        W13032  38.615   2.484  10.308
44815W        W13033   2.666  35.434  12.507
44816W        W13034  24.830  26.306   1.835
44817W        W13035  20.212   0.251   2.459
44818W        W13036  20.517  10.870  13.441
44819W        W13037  42.504  15.292   1.047
44820W        W13038  33.923  14.375  13.374
44821W        W13039   7.965  20.006   3.291
44822W        W13040  22.083  29.989  14.808
44823W        W13041  33.504   6.341   0.806
44824W        W13042   0.443  28.515  14.300
44825W        W13043  14.295  15.188   2.747
44826W        W13044  22.509  39.960  12.230
44827W        W13045  24.695  41.408   1.796
44828W        W13046  12.382  14.098  12.481
44829W        W13047  35.750   5.479  13.890
44830W        W13048  28.874  26.686   2.933
44831W        W13049  21.519  36.354   1.542
44832W        W13050   3.772   2.648  14.119
44833W        W13051  11.175  14.858  12.884
44834W        W13052  16.564   5.458  11.109
44835W        W13053  33.965  44.401   0.407
44836W        W13054   7.267  24.062  12.720
44837W        W13055  20.519  30.438  14.972
44838W        W13056  35.947  13.510  12.183
44839W        W13057  11.882  21.606  14.710
44840W        W13058  21.311   9.494  10.347
44841W        W13059  38.543  24.263   0.784
44842W        W13060   7.862  18.650  12.831
44843W        W13061  44.474  15.825   5.067
44844W        W13062  40.494  30.886   1.582
44845W        W13063  31.193  28.703   5.054
44846W        W13064  12.559   2.693   0.917
44847W        W13065   1.324  24.617   0.485
44848W        W13066  13.439  22.636  13.546
44849W        W13067  44.330  29.148  10.782
44850W        W13068  18.820  32.083   1.180
44851W        W13069  20.738   1.736   3.915
44852W        W13070  31.945  25.200   2.886
44853W        W13071   0.002  32.939  12.832
44854W        W13072  32.651   4.465  12.915
44855W        W13073  14.111  43.341  14.082
44856W        W13074  33.875  30.957   3.187
44857W        W13075  43.460   1.547  13.037
44858W        W13076   5.194  13.346   2.155
44859W        W13077  10.328  13.415  14.109
44860W        W13078  29.642  42.623  13.913
44861W        W13079  23.423   8.198   0.907
44862W        W13080  40.450  39.561  11.465
44863W        W13081  24.107  33.406   1.022
44864W        W13082  41.542  30.983  10.736
44865W        W13083  10.915  26.716  12.402
44866W        W13084  29.349  18.633  13.546
44867W        W13085   4.659  44.940  11.829
44868W        W13086  38.483  34.596  13.078
44869W        W13087  24.250  12.302   3.395
44870W        W13088  37.524  17.076   5.047
44871W        W13089  26.198  42.438   4.294
44872W        W13090  28.948  28.504  10.584
44873W        W13091  28.453   1.168  14.749
44874W        W13092   3.667  16.246  11.441
44875W        W13093   6.857  33.975   4.339
44876W        W13094  35.996  30.631  14.127
44877W        W13095  25.916  44.597   0.679
44878W        W13096  13.243  37.030   2.720
44879W        W13097  10.723  24.681  14.309
44880W        W13098  13.594  15.288  12.220
44881W        W13099  33.441   2.552  11.625
44882W        W13100  37.650  19.739  12.077
44883W        W13101  31.365  36.427  13.525
44884W        W13102  22.531  10.734  12.324
44885W        W13103  21.706   2.333  13.804
44886W        W13104  17.515  22.754  12.888
44887W        W13105  40.790  16.796   0.282
44888W        W13106  29.047   3.403  13.028
44889W        W13107  35.471  40.058   1.986
44890W        W13108  34.219  40.103   3.186
44891W        W13109  42.019   1.903   2.870
44892W        W13110  38.701  34.867   0.140
44893W        W13111  21.520  36.323  10.250
44894W        W13112  11.215  29.861   2.569
44895W        W13113   5.620  14.971  10.690
44896W        W13114  28.572   3.322   3.992
44897W        W13115  15.373   1.831   2.412
44898W        W13116  17.335  43.722  11.162
44899W        W13117  33.896  25.889  11.655
44900W        W13118  18.809  10.712   1.679
44901W        W13119  15.753  44.944  11.584
44902W        W13120  14.555  37.064  10.724
44903W        W13121  34.701  13.890  11.113
44904W        W13122  44.743  37.472  13.793
44905W        W13123  27.877  44.899  12.976
44906W        W13124  31.105  20.652   0.295
44907W        W13125  16.551  34.645  12.800
44908W        W13126  11.783  36.959  13.077
44909W        W13127  44.243   5.384  12.129
44910W        W13128  17.136  33.065   4.274
44911W        W13129  42.841  19.957   1.028
44912W        W13130  22.120  42.958   0.501
44913W        W13131  21.753  13.324  11.089
44914W        W13132  37.967  44.085   0.307
44915W        W13133  25.408  12.324  11.072
44916W        W13134  30.639   7.676  12.322
44917W        W13135  11.705  16.197   1.224
44918W        W13136  21.329  32.574   0.691
44919W        W13137   1.223  12.699   2.090
44920W        W13138  44.559  35.444   0.265
44921W        W13139  31.119   3.357  14.806
44922W        W13140  35.834  10.018  14.070
44923W        W13141  18.905  14.552   3.219
44924W        W13142  27.675  10.125   2.782
44925W        W13143  30.014  24.554  13.978
44926W        W13144  11.147   6.394   1.919
44927W        W13145  37.900   6.696   1.687
44928W        W13146  24.407  29.644  12.474
44929W        W13147  23.767  19.585  12.070
44930W        W13148   8.816  26.043  10.492
44931W        W13149  10.413  42.433  13.424
44932W        W13150  21.314  19.098   1.684
44933W        W13151   0.021   4.379   0.316
44934W        W13152  42.804  43.307   0.560
44935W        W13153  37.854   6.095   4.954
44936W        W13154  20.514   6.652   2.390
44937W        W13155  42.231  16.299   1.275
44938W        W13156  20.219  15.528  11.075
44939W        W13157   9.814  33.782  13.344
44940W        W13158  21.058   4.695   0.284
44941W        W13159  14.828  18.803  14.296
44942W        W13160  19.331  11.725  14.513
44943W        W13161  15.398  20.119  14.408
44944W        W13162  16.656  10.113  12.998
44945W        W13163  17.282  28.954   2.839
44946W        W13164  24.091  17.091  11.631
44947W        W13165  44.493  28.527  13.993
44948W        W13166  44.557  18.468   1.245
44949W        W13167   9.168  33.438  12.310
44950W        W13168   5.945  15.211   3.260
44951W        W13169  34.087  43.418   1.229
44952W        W13170   3.816  19.024   0.862
44953W        W13171  13.087  37.316  10.336
44954W        W13172  43.719  36.524  13.898
44955W        W13173  21.568  39.537   2.884
44956W        W13174  37.872  30.321   1.028
44957W        W13175   1.897  16.764   1.774
44958W        W13176  22.196   5.644  11.182
44959W        W13177  30.566  35.947   0.800
44960W        W13178  23.431   3.042   1.354
44961W        W13179  33.582  26.232   0.446
44962W        W13180   2.406  35.882  10.413
44963W        W13181  42.218   3.370  14.380
44964W        W13182  36.642  25.240   3.604
44965W        W13183   8.414   7.128  13.093
44966W        W13184  42.881  14.770   3.406
44967W        W13185  13.811  29.883  12.603
44968W        W13186  26.988   8.364  14.940
44969W        W13187   8.697   3.412   0.997
44970W        W13188  24.202  36.106   0.983
44971W        W13189  13.664  11.344  12.933
44972W        W13190  35.831  16.810   0.835
44973W        W13191  23.766  10.951   0.449
44974W        W13192  25.065  16.272  12.882
44975W        W13193  27.190  33.806   4.876
44976W        W13194  33.655   1.211   2.807
44977W        W13195  38.762  43.080  11.070
44978W        W13196  37.634  24.635   0.936
44979W        W13197  40.461  18.250  10.099
44980W        W13198   4.269  18.018   3.186
44981W        W13199  16.408  35.424  13.879
44982W        W13200   4.802   3.440  13.857
44983W        W13201   8.328   6.706   2.345
44984W        W13202  11.597  18.561  13.848
44985W        W13203  15.245  17.995   1.417
44986W        W13204  29.197  39.520   0.716
44987W        W13205  13.327  42.555   1.296
44988W        W13206  38.275  27.895  14.750
44989W        W13207  12.129  17.637  10.670
44990W        W13208  31.382   5.775  10.284
44991W        W13209  15.649  16.025  12.160
44992W        W13210  14.527  40.918   4.022
44993W        W13211  18.568   3.729   2.085
44994W        W13212  29.144  20.745   0.471
44995W        W13213  33.854   4.864   4.651
44996W        W13214  18.591   7.303  10.469
44997W        W13215   4.400  35.009   2.836
44998W        W13216  32.049  40.582   4.522
44999W        W13217  30.177   0.255   4.539
45000W        W13218  39.294  32.522   3.199
45001W        W13219  16.402  20.770   1.806
45002W        W13220  28.591  30.835  11.579
45003W        W13221  30.845  14.379   1.849
45004W        W13222  31.653  41.058  11.438
45005W        W13223   8.438  17.962  11.095
45006W        W13224  24.274  43.090   5.149
45007W        W13225   3.409  33.910   0.810
45008W        W13226  38.468  10.839   1.302
45009W        W13227  35.552   9.640   2.864
45010W        W13228  18.681   4.298  13.505
45011W        W13229  28.098  29.562  12.527
45012W        W13230  40.589  36.975  13.060
45013W        W13231  40.936   8.992   3.295
45014W        W13232  44.951   1.205   1.943
45015W        W13233  40.325  19.577  13.633
45016W        W13234  31.872  38.491   0.576
45017W        W13235   1.686  41.332   4.262
45018W        W13236  24.024   9.357  12.897
45019W        W13237   2.305   1.373  14.924
45020W        W13238  34.044  15.290   1.480
45021W        W13239  28.386  25.579   1.278
45022W        W13240  32.014  29.466  14.260
45023W        W13241  15.084  24.155   0.237
45024W        W13242   2.769  13.054   1.421
45025W        W13243  25.958  37.385   0.885
45026W        W13244   1.331   1.377   2.637
45027W        W13245  44.467  31.426  14.349
45028W        W13246  27.237  34.868   1.178
45029W        W13247  37.910  42.453   4.650
45030W        W13248   5.897  40.745   1.336
45031W        W13249  21.439  40.915   4.133
45032W        W13250  16.679  42.712  13.825
45033W        W13251  38.024  23.214  14.868
45034W        W13252  33.995  15.206   0.009
45035W        W13253   8.379  11.654  12.927
45036W        W13254   2.763  33.356   4.783
45037W        W13255   0.196   8.778  12.618
45038W        W13256  28.555  16.631   1.535
45039W        W13257  37.906  40.321   3.279
45040W        W13258  12.371  34.096   3.118
45041W        W13259  25.715  41.609  14.952
45042W        W13260  15.551  23.465   0.774
45043W        W13261  20.418  44.033  11.661
45044W        W13262  13.694  17.793  13.689
45045W        W13263  14.158  10.113  11.738
45046W        W13264  43.550   3.216   1.758
45047W        W13265  16.728   0.505   0.391
45048W        W13266   0.171  43.352   1.527
45049W        W13267  12.026   3.461   1.743
45050W        W13268  14.672  13.527   0.202
45051W        W13269  38.904   2.318   3.521
45052W        W13270   4.862  39.786   3.162
45053W        W13271  22.832  17.076  14.737
45054W        W13272  25.480   1.156  11.717
45055W        W13273  15.497  14.175   1.355
45056W        W13274  44.351  22.819  12.044
45057W        W13275  42.585   2.733   1.944
45058W        W13276  37.156  40.380  13.443
45059W        W13277  33.233  18.035  13.057
45060W        W13278   3.428  11.925   0.266
45061W        W13279  40.913  16.187   0.170
45062W        W13280  23.770  10.930   4.525
45063W        W13281  13.593  30.447   3.270
45064W        W13282   9.383  41.301  12.579
45065W        W13283  31.340   8.657   4.313
45066W        W13284  32.144  32.199  14.948
45067W        W13285   0.986   2.511   3.151
45068W        W13286  10.983  32.506  11.765
45069W        W13287  14.726  24.000  10.528
45070W        W13288  18.148   2.959   4.445
45071W        W13289   1.024   7.321   4.570
45072W        W13290  35.373  22.955  11.582
45073W        W13291  29.659  27.959  10.777
45074W        W13292  15.794   2.365  12.931
45075W        W13293  15.125  19.867   2.720
45076W        W13294  37.511  27.676  11.046
45077W        W13295   0.769  28.962   4.541
45078W        W13296  13.778  43.772   3.646
45079W        W13297  24.611  22.479   4.455
45080W        W13298  40.049   2.996  14.875
45081W        W13299  44.463  40.587   3.176
45082W        W13300  32.396  17.410   3.755
45083W        W13301  20.513  42.258  14.948
45084W        W13302  12.368  30.847   4.615
45085W        W13303   0.228  25.026  11.517
45086W        W13304   5.373  34.129   4.068
45087W        W13305  28.110  37.599   0.329
45088W        W13306  33.432  15.063   2.288
45089W        W13307  38.910  16.519   0.733
45090W        W13308  24.491  27.111  10.524
45091W        W13309  36.052  11.316   4.638
45092W        W13310  12.300  27.854  11.912
45093W        W13311  15.558   0.413   3.112
45094W        W13312  34.039   6.965   4.242
45095W        W13313  23.666  44.032  13.995
45096W        W13314  13.164  18.572  14.877
45097W        W13315   2.463  25.008   1.630
45098W        W13316  22.926  37.120  12.556
45099W        W13317  22.614  25.751   1.699
45100W        W13318   7.330  18.534   2.715
45101W        W13319   8.281  20.432   1.695
45102W        W13320  40.861  36.327  14.908
45103W        W13321  41.037  44.201  11.086
45104W        W13322   8.747  15.188   1.645
45105W        W13323   5.868   9.280   3.319
45106W        W13324  22.187  11.930  14.848
45107W        W13325  23.271  11.516   0.986
45108W        W13326   0.758  41.563  11.583
45109W        W13327  23.638  40.496   2.670
45110W        W13328  29.621   4.965  12.519
45111W        W13329   3.698  15.306  11.552
45112W        W13330  18.816  13.706  14.853
45113W        W13331  42.203  13.230  11.912
45114W        W13332  29.693   8.674   1.352
45115W        W13333  22.737  39.708   4.447
45116W        W13334  12.192  26.002   4.075
45117W        W13335  17.843  13.750  12.713
45118W        W13336   6.908   5.962   0.726
45119W        W13337  20.474  24.246  11.146
45120W        W13338  22.210  36.520  12.574
45121W        W13339  25.724  31.577   2.888
45122W        W13340  28.636  13.369   0.282
45123W        W13341  19.616  30.193  12.170
45124W        W13342  21.698  33.525  13.252
45125W        W13343  22.235  41.747  12.893
45126W        W13344  25.696  43.023  10.723
45127W        W13345   2.768   9.217   2.173
45128W        W13346  17.764   7.891   1.408
45129W        W13347   5.513  34.630  14.313
45130W        W13348   0.684  44.415  14.506
45131W        W13349  13.557  28.861  13.586
45132W        W13350  19.686   4.462   4.415
45133W        W13351  11.643  31.477  13.530
45134W        W13352  17.106   2.549  13.826
45135W        W13353   8.835  32.233  11.047
45136W        W13354  28.171  33.096   0.383
45137W        W13355  26.048  33.766   2.364
45138W        W13356  43.398  42.181   1.843
45139W        W13357  18.094  40.565   4.367
45140W        W13358  41.892   7.284  13.236
45141W        W13359  36.372  16.337  10.355
45142W        W13360  30.393   2.304   1.351
45143W        W13361   8.411  22.007  13.503
45144W        W13362   1.042  37.401   4.673
45145W        W13363  30.147  24.599  13.456
45146W        W13364   0.861   5.927  10.673
45147W        W13365  39.285  20.212   2.755
45148W        W13366  41.278  38.887  12.941
45149W        W13367  42.283  37.437   3.105
45150W        W13368  20.513   1.464  13.826
45151W        W13369   9.660  33.171  11.462
45152W        W13370  25.290   2.759  12.934
45153W        W13371  13.639   7.674   4.742
45154W        W13372  10.835  30.427   2.407
45155W        W13373  17.702  42.006  12.945
45156W        W13374  27.909  42.784  11.946
45157W        W13375  21.213  18.062  13.524
45158W        W13376  35.023  39.550  12.554
45159W        W13377   2.424  38.338   3.689
45160W        W13378  19.676  13.646   0.920
45161W        W13379  26.508  23.841  10.270
45162W        W13380  32.757   8.609  13.318
45163W        W13381  10.300  11.148   4.575
45164W        W13382  30.060   0.987  14.448
45165W        W13383  32.054  25.691   2.650
45166W        W13384  15.032  15.294   2.261
45167W        W13385  24.234  23.083  14.045
45168W        W13386  30.709  37.896   1.239
45169W        W13387  28.089  31.478  12.413
45170W        W13388  26.525   6.500   2.935
45171W        W13389  16.153   9.010   5.018
45172W        W13390  17.140  35.536  11.209
45173W        W13391  21.728  32.854   2.611
45174W        W13392  12.626  38.434   2.468
45175W        W13393  38.006  42.727   0.420
45176W        W13394  44.020  26.145  13.017
45177W        W13395  22.412  38.593  14.079
45178W        W13396  20.025  26.628   3.260
45179W        W13397  31.225  14.554   4.593
45180W        W13398  17.368   5.868  11.166
45181W        W13399  25.683  19.098   0.907
45182W        W13400  44.657   2.701   4.261
45183W        W13401  44.362  26.225   2.242
45184W        W13402  35.319  44.609   3.093
45185W        W13403   6.148   0.251   4.475
45186W        W13404  44.851   6.906  12.678
45187W        W13405   6.430  28.555  10.763
45188W        W13406  42.595  33.870   3.887
45189W        W13407  38.400  41.265  13.930
45190W        W13408  39.507  17.235   3.365
45191W        W13409  39.086  11.459   1.624
45192W        W13410  44.568  20.047   0.279
45193W        W13411  23.176   4.251  10.930
45194W        W13412  25.230  10.146   4.046
45195W        W13413  16.128   8.146   2.275
45196W        W13414   1.294  32.974  13.872
45197W        W13415  39.128  11.225   2.591
45198W        W13416  10.173  13.582  11.941
45199W        W13417  14.253  32.159   1.925
45200W        W13418  18.332  20.363   1.830
45201W        W13419  31.555   7.186  13.315
45202W        W13420  34.333  10.622   2.222
45203W        W13421  25.192  28.678  12.622
45204W        W13422  15.814  34.460  10.322
45205W        W13423  23.201  11.550   2.721
45206W        W13424  16.304   5.218  11.482
45207W        W13425  29.169  42.842  12.987
45208W        W13426  23.297  21.005  14.750
45209W        W13427  25.400  44.928  12.581
45210W        W13428   6.687  27.390   2.541
45211W        W13429   1.161  23.582   2.967
45212W        W13430   6.161  21.699  13.923
45213W        W13431  17.303  33.952  10.856
45214W        W13432  36.049  28.726   1.778
45215W        W13433  34.898  34.960  12.633
45216W        W13434  22.502  24.902   5.020
45217W        W13435   9.621   4.930  12.466
45218W        W13436  35.432  21.247  14.969
45219W        W13437   7.301  40.967   0.759
45220W        W13438  10.895  15.683  13.365
45221W        W13439   5.318  18.010  12.452
45222W        W13440   6.779  16.556   3.685
45223W        W13441  18.585  15.133   4.634
45224W        W13442   4.258  29.944   3.640
45225W        W13443  24.405  14.636   0.752
45226W        W13444  30.979   8.180   2.076
45227W        W13445  41.156   8.846   4.118
45228W        W13446  43.406  11.343   2.441
45229W        W13447  14.171  12.702   2.890
45230W        W13448  37.608  25.055   3.332
45231W        W13449  16.648  33.835  11.746
45232W        W13450  26.652  15.571  11.786
45233W        W13451  16.781   5.856  12.588
45234W        W13452  16.580  23.617  10.699
45235W        W13453  39.873  26.007  10.628
45236W        W13454  16.223  11.273  13.145
45237W        W13455  32.005  33.477  13.992
45238W        W13456  32.575  28.228   1.736
45239W        W13457  40.959  22.002   0.980
45240W        W13458  12.565  24.033  11.648
45241W        W13459  32.595   7.727   2.033
45242W        W13460  18.123  17.025   3.710
45243W        W13461  26.550  20.727  14.521
45244W        W13462   5.154   1.949  14.987
45245W        W13463  17.390   4.005  14.764
45246W        W13464  14.386  43.596   0.547
45247W        W13465  15.774  38.425   2.587
45248W        W13466  32.489  42.026   4.730
45249W        W13467  13.596  21.208  13.454
45250W        W13468   2.328  38.370  14.271
45251W        W13469   1.837   0.420   4.649
45252W        W13470  35.312  18.615   2.868
45253W        W13471  44.972   7.737   4.513
45254W        W13472   3.991  19.521   0.789
45255W        W13473  28.534  10.725  13.738
45256W        W13474  22.376  37.183   0.585
45257W        W13475  42.416   8.095   2.880
45258W        W13476   4.761  21.101   0.009
45259W        W13477  13.376  32.842   4.534
45260W        W13478  26.609  28.991  13.007
45261W        W13479   9.079  40.227   9.806
45262W        W13480  11.548   9.270   4.839
45263W        W13481  30.598  43.377  11.118
45264W        W13482  33.427  14.288   5.186
45265W        W13483  28.206  22.764   4.988
45266W        W13484  17.744  43.458   0.438
45267W        W13485  39.423  14.678  11.604
45268W        W13486   8.401   1.872  11.590
45269W        W13487   5.332  42.538   3.606
45270W        W13488  21.929  19.245  14.449
45271W        W13489   6.977  17.948   3.613
45272W        W13490  34.144  32.528  12.146
45273W        W13491  10.305  44.439   3.812
45274W        W13492  14.608  36.652   3.835
45275W        W13493  14.283  34.600  14.118
45276W        W13494  24.436  28.148  12.983
45277W        W13495   0.452  30.782  11.247
45278W        W13496  15.199  36.138   0.715
45279W        W13497  19.286  18.530   5.000
45280W        W13498  13.784  11.211   3.687
45281W        W13499  27.711   1.312  14.567
45282W        W13500   6.462  29.975   4.292
45283W        W13501  27.431  34.142   3.651
45284W        W13502   3.657  34.541   2.296
45285W        W13503  18.640   3.925   0.703
45286W        W13504  17.316   3.436  11.495
45287W        W13505   3.641  11.151   1.862
45288W        W13506  10.380   4.389   0.416
45289W        W13507  31.066  19.683   4.612
45290W        W13508   2.389  42.873   1.870
45291W        W13509  30.647  26.686  10.654
45292W        W13510  15.615  26.663   1.751
45293W        W13511  12.257  10.169  11.563
45294W        W13512  11.155  21.169   3.301
45295W        W13513  27.191   7.946  13.398
45296W        W13514  12.744  44.457   1.775
45297W        W13515  40.519  23.458  14.020
45298W        W13516  29.145  31.712  10.721
45299W        W13517  24.870   0.925   1.836
45300W        W13518  42.246  19.281  11.194
45301W        W13519   1.421   7.462  13.813
45302W        W13520   3.688  14.738  12.142
45303W        W13521  25.705  34.666   2.249
45304W        W13522  36.799  38.650  11.071
45305W        W13523  44.506   6.246  12.797
45306W        W13524  42.579  18.382  11.111
45307W        W13525  23.771  24.505  13.268
45308W        W13526  17.569  39.459   4.180
45309W        W13527  39.278  20.634  12.610
45310W        W13528   2.557  16.425   3.776
45311W        W13529  19.107  29.584  11.601
45312W        W13530  14.885   7.277   4.313
45313W        W13531  21.873  12.713   1.645
45314W        W13532  36.156   5.454   0.656
45315W        W13533  41.297  15.609   1.413
45316W        W13534   0.862  41.339   3.308
45317W        W13535   0.716  16.479   3.426
45318W        W13536   9.791  40.458   2.018
45319W        W13537  24.808  36.819   0.400
45320W        W13538   3.729  33.983  13.432
45321W        W13539  42.336  28.899  14.490
45322W        W13540  20.629  34.743  12.644
45323W        W13541  24.294  27.471   3.650
45324W        W13542  29.720  22.572  11.448
45325W        W13543  40.778  18.296   2.344
45326W        W13544   8.325  38.125  11.322
45327W        W13545  27.757  39.713   3.632
45328W        W13546  22.049   0.495  14.909
45329W        W13547   0.535  20.453   4.283
45330W        W13548   4.672   3.281  11.750
45331W        W13549  34.697  16.603  13.929
45332W        W13550  25.246  31.871  10.744
45333W        W13551  21.648  39.006  11.123
45334W        W13552  29.254  18.009  10.712
45335W        W13553  14.143  43.554   3.125
45336W        W13554   2.273  12.640  13.872
45337W        W13555  21.907  21.579   1.891
45338W        W13556  19.601   4.474  10.949
45339W        W13557  34.613  30.547  10.442
45340W        W13558  27.420  30.858   4.364
45341W        W13559   6.828  31.301  12.291
45342W        W13560  20.558  37.501   1.355
45343W        W13561  28.452  32.669   0.892
45344W        W13562  36.361  17.776  14.967
45345W        W13563  33.431  16.577   0.617
45346W        W13564  22.070   0.244  11.727
45347W        W13565   7.895  19.327   5.028
45348W        W13566  23.120   3.449   1.287
45349W        W13567   4.200  34.244  14.092
45350W        W13568   3.888  23.666   2.838
45351W        W13569  19.471  29.889  11.287
45352W        W13570  14.676  11.524  14.913
45353W        W13571  33.716  15.283   1.902
45354W        W13572  10.395  18.622   4.074
45355W        W13573  37.003   9.709  12.087
45356W        W13574  25.194   6.161  12.172
45357W        W13575  38.892  37.630  10.452
45358W        W13576  42.818  39.634  12.572
45359W        W13577   4.947  15.778   4.967
45360W        W13578   5.847  14.703  13.014
45361W        W13579  44.275  32.418  12.479
45362W        W13580  24.185  29.230   1.224
45363W        W13581  11.250  22.308  14.279
45364W        W13582  22.502  31.528   3.641
45365W        W13583  25.086  42.941  13.217
45366W        W13584   6.247  17.604   1.630
45367W        W13585   4.359  32.802   3.112
45368W        W13586  32.728  38.610  11.463
45369W        W13587  34.062  20.704   0.461
45370W        W13588   7.316   3.236  14.005
45371W        W13589  33.109  26.922  12.966
45372W        W13590  20.808  39.221  14.524
45373W        W13591  21.150  26.876  11.900
45374W        W13592  36.020   1.250  12.891
45375W        W13593  35.864  38.771  10.764
45376W        W13594  12.795  44.439  14.119
45377W        W13595  18.215  28.741   0.875
45378W        W13596  34.867  25.071   1.006
45379W        W13597  33.537  35.064  10.135
45380W        W13598  32.806  21.791  14.791
45381W        W13599   9.770  44.317   3.840
45382W        W13600  28.321   7.298   2.048
45383W        W13601   2.198  19.093  13.803
45384W        W13602  13.673  21.939  11.749
45385W        W13603  25.191  44.685  12.132
45386W        W13604   9.879  26.427  11.196
45387W        W13605  38.748  21.253   0.261
45388W        W13606  40.815  41.221   1.373
45389W        W13607  19.016   1.444   1.007
45390W        W13608  13.633  17.364  14.508
45391W        W13609  13.630  36.024  13.913
45392W        W13610   1.403  12.755  13.716
45393W        W13611  24.254   4.249   2.218
45394W        W13612  43.222  13.178  12.006
45395W        W13613  22.041  22.740   1.887
45396W        W13614  15.109  37.272   1.268
45397W        W13615   0.683  40.715  13.387
45398W        W13616  28.252  20.139   4.127
45399W        W13617  34.559  28.006  14.877
45400W        W13618  43.434  35.300  13.976
45401W        W13619  13.731  13.777  13.360
45402W        W13620  39.513  30.244   2.701
45403W        W13621  12.628  43.809   9.893
45404W        W13622  18.591  14.106  11.630
45405W        W13623  18.032  10.683  12.497
45406W        W13624   2.244  29.392  14.721
45407W        W13625  25.180  30.080  12.548
45408W        W13626  22.165   1.544   1.893
45409W        W13627  22.384  10.032  12.119
45410W        W13628  24.672  28.212  11.099
45411W        W13629  22.140  41.411   3.214
45412W        W13630   8.235   4.753   0.840
45413W        W13631  27.906  39.036  12.468
45414W        W13632  15.775  18.281  12.371
45415W        W13633  17.890  33.276   4.342
45416W        W13634  37.575   6.749   4.124
45417W        W13635  35.435  37.115  12.825
45418W        W13636  37.834  13.954  12.431
45419W        W13637  11.109   4.423  11.708
45420W        W13638  23.241  18.762  12.003
45421W        W13639  26.848  21.994   1.347
45422W        W13640  29.610   2.271  12.925
45423W        W13641   7.047  43.629   4.280
45424W        W13642  27.514  21.609   3.380
45425W        W13643  20.101  26.971   2.123
45426W        W13644  27.697  11.180   1.778
45427W        W13645  13.709  36.619  10.678
45428W        W13646  16.326  22.642  10.695
45429W        W13647  42.369  39.329  12.198
45430W        W13648  26.233   8.327  13.977
45431W        W13649  35.316  37.898  10.735
45432W        W13650  15.689  29.994  10.832
45433W        W13651  38.060  15.682  11.899
45434W        W13652  39.783   2.544  14.804
45435W        W13653  20.495  17.220  14.320
45436W        W13654  44.331  14.807  13.702
45437W        W13655  35.693  37.281   0.286
45438W        W13656  14.276  26.499  12.075
45439W        W13657   0.972  20.212  14.273
45440W        W13658  28.455  37.103   0.917
45441W        W13659  25.756  42.227  13.070
45442W        W13660  11.348  14.253   4.159
45443W        W13661  28.379  32.907  11.506
45444W        W13662  39.602  28.781  13.623
45445W        W13663  24.105  22.584  14.300
45446W        W13664  20.690  30.272   0.461
45447W        W13665  16.557  30.119  11.191
45448W        W13666  31.643   3.782   1.075
45449W        W13667  13.173  11.723  10.647
45450W        W13668   6.725   6.745   3.585
45451W        W13669   2.998  19.772  13.538
45452W        W13670   3.995  17.398   1.055
45453W        W13671  13.851  22.986   0.332
45454W        W13672  30.907  33.666  12.128
45455W        W13673   3.122  38.597   0.818
45456W        W13674  31.612  11.166   2.826
45457W        W13675  40.038  16.812   3.780
45458W        W13676  33.995  24.137   0.795
45459W        W13677  25.493  15.589   2.313
45460W        W13678   7.404  14.997  13.486
45461W        W13679  21.616   6.802  13.292
45462W        W13680  11.286   0.775  11.975
45463W        W13681  18.220   3.117   0.939
45464W        W13682  17.198   8.763  11.632
45465W        W13683   9.489  16.698   2.618
45466W        W13684  38.789   0.310   0.300
45467W        W13685  12.088  15.579  14.128
45468W        W13686  28.523  36.977  12.666
45469W        W13687   2.320   5.616  11.140
45470W        W13688   5.474  21.327   0.714
45471W        W13689  20.443  27.113  13.694
45472W        W13690  35.631  34.947  13.062
45473W        W13691  43.866  27.766  11.608
45474W        W13692  17.597   1.244   1.160
45475W        W13693   8.768  20.073   2.605
45476W        W13694  22.501  17.787  11.522
45477W        W13695  29.733  11.477   2.735
45478W        W13696  27.638  33.809  11.128
45479W        W13697  21.252  17.363   0.796
45480W        W13698   7.257  40.516  10.696
45481W        W13699  10.176   0.323   0.289
45482W        W13700  30.028  22.780  13.411
45483W        W13701  40.461   1.729  11.250
45484W        W13702  20.532  42.043   0.817
45485W        W13703   3.852   4.884  11.599
45486W        W13704  19.166  10.782   0.799
45487W        W13705  35.879  24.454  11.224
45488W        W13706   7.314  26.982   1.924
45489W        W13707  40.484  40.520   2.394
45490W        W13708  22.665  40.013   1.739
45491W        W13709  44.432  17.226   3.464
45492W        W13710  41.509  30.587  12.518
45493W        W13711  18.351  37.988  12.700
45494W        W13712  17.054  26.969   0.788
45495W        W13713   3.003   9.911  14.552
45496W        W13714  28.505  34.469   2.684
45497W        W13715   0.269  28.456  14.787
45498W        W13716  44.873  39.542  14.056
45499W        W13717  29.242   6.006  10.293
45500W        W13718   8.692  25.291   4.041
45501W        W13719  13.393  38.970  14.875
45502W        W13720  26.179  18.572   0.699
45503W        W13721  25.266   3.318  10.487
45504W        W13722  19.611  30.402   0.786
45505W        W13723  38.808   6.409  14.418
45506W        W13724  24.549   1.443  13.585
45507W        W13725  35.414  34.277  13.660
45508W        W13726  18.711  16.138  10.621
45509W        W13727  27.977   1.003   2.929
45510W        W13728  31.633  13.206   2.861
45511W        W13729   6.045  27.531  10.706
45512W        W13730  34.901  20.174   3.555
45513W        W13731  32.854   7.778   3.433
45514W        W13732  22.110  33.518   2.409
45515W        W13733  35.009  44.729  11.498
45516W        W13734  13.634  37.245   3.685
45517W        W13735  30.359  11.694  14.308
45518W        W13736   7.293   2.206   1.696
45519W        W13737   0.439  13.658   4.915
45520W        W13738   7.196  13.256  12.725
45521W        W13739  15.783   5.771  12.957
45522W        W13740  19.949   0.739   1.277
45523W        W13741  31.689   5.197   4.528
45524W        W13742  29.832  19.674   1.257
45525W        W13743  29.707  18.588   1.808
45526W        W13744   8.797  37.996   1.446
45527W        W13745   2.287   8.739  13.501
45528W        W13746  38.359   4.471   4.621
45529W        W13747  44.391  17.636   4.298
45530W        W13748   9.398  23.011  11.450
45531W        W13749  32.437  15.764  11.965
45532W        W13750  32.649  15.181   1.854
45533W        W13751  12.651  16.828   0.834
45534W        W13752   8.255  30.785  13.050
45535W        W13753   2.472  12.592  11.979
45536W        W13754  36.141  24.678   1.409
45537W        W13755   8.768  41.371   1.886
45538W        W13756   0.870   0.856   4.638
45539W        W13757  29.098  42.991   1.136
45540W        W13758  14.299  28.043   1.795
45541W        W13759  31.361  31.064   0.367
45542W        W13760  32.482  15.742   4.575
45543W        W13761  43.976   2.903   2.515
45544W        W13762  38.516   5.690   0.769
45545W        W13763  17.197  21.302   2.283
45546W        W13764  40.720  12.604  10.295
45547W        W13765  27.994  15.495   0.341
45548W        W13766  35.642   2.722   0.482
45549W        W13767  13.028  25.705  13.923
45550W        W13768  20.764  37.608  11.481
45551W        W13769  17.809  43.533  13.567
45552W        W13770  18.702  25.087   1.407
45553W        W13771  12.558  31.013  12.778
45554W        W13772  31.505   7.141   1.463
45555W        W13773  40.898  13.677   0.325
45556W        W13774  26.482  11.270  11.666
45557W        W13775   2.650   3.827   2.513
45558W        W13776  18.200  35.051  12.964
45559W        W13777  26.525  43.779  12.366
45560W        W13778  32.808  14.873   2.734
45561W        W13779  13.358  44.865   1.426
45562W        W13780   0.752  36.173  10.576
45563W        W13781  21.380  14.650   1.776
45564W        W13782  41.289   1.725   0.049
45565W        W13783  42.414   0.501   2.295
45566W        W13784  41.737  24.588   2.280
45567W        W13785  16.871  11.551   3.824
45568W        W13786  36.559  18.762  13.217
45569W        W13787  44.522  12.224  14.009
45570W        W13788  37.451   3.392  11.764
45571W        W13789  30.206   0.319  12.987
45572W        W13790   2.768  12.542  10.638
45573W        W13791  33.435  28.852   4.872
45574W        W13792  10.699  33.872  12.927
45575W        W13793  38.289  39.403  11.031
45576W        W13794   0.519  34.485   1.184
45577W        W13795   6.408  38.339  14.357
45578W        W13796   7.885   8.682  14.709
45579W        W13797  36.119  28.122  10.579
45580W        W13798  14.965  29.449  12.534
45581W        W13799   2.686  20.238   2.717
45582W        W13800  15.154  41.714   4.120
45583W        W13801   6.871  15.200  11.877
45584W        W13802  41.842   6.169  12.571
45585W        W13803  38.642  23.463   0.367
45586W        W13804   8.265   0.954   0.730
45587W        W13805  30.473  20.245  11.101
45588W        W13806  35.656  11.193   1.600
45589W        W13807  28.626  37.880   3.873
45590W        W13808   4.011   6.605   1.928
45591W        W13809  27.362  34.859  11.814
45592W        W13810   4.769  40.631  10.896
45593W        W13811   2.898  38.861  10.693
45594W        W13812  28.995  23.437  11.673
45595W        W13813   1.911  14.534  13.127
45596W        W13814  41.551  42.974  11.139
45597W        W13815  38.872   4.003   2.886
45598W        W13816  39.541  34.155  10.726
45599W        W13817  32.004  20.120   3.306
45600W        W13818   1.512  38.326  11.214
45601W        W13819  18.294   2.615   0.916
45602W        W13820  14.740  11.603  10.252
45603W        W13821  35.948  10.160   4.091
45604W        W13822  34.351  34.110  14.445
45605W        W13823  44.865  30.537   5.008
45606W        W13824  42.785  25.526   3.298
45607W        W13825  32.972   7.856   1.338
45608W        W13826  17.262  37.152  13.837
45609W        W13827   7.296  34.904   2.004
45610W        W13828  10.378  27.419  12.178
45611W        W13829   4.166   7.729   3.857
45612W        W13830   3.045  14.318  13.171
45613W        W13831   9.681  36.925  10.633
45614W        W13832  21.353  14.364  14.028
45615W        W13833   8.716  19.082   2.477
45616W        W13834  23.045   5.435  11.471
45617W        W13835  14.668  27.761   1.490
45618W        W13836  25.438  18.737   3.752
45619W        W13837  19.969   7.285  14.986
45620W        W13838  27.379   8.737   1.717
45621W        W13839   5.444  16.278  10.606
45622W        W13840   1.409  19.485   0.330
45623W        W13841  14.278  16.502   3.507
45624W        W13842  14.341   9.081  12.991
45625W        W13843   8.867  37.903  14.422
45626W        W13844  33.449  17.144  14.973
45627W        W13845   4.753  39.786   1.435
45628W        W13846  26.495  38.590  12.125
45629W        W13847  27.916  32.629  10.407
45630W        W13848  44.434  34.059  13.947
45631W        W13849  23.513  43.893   3.536
45632W        W13850  26.741  23.548   9.806
45633W        W13851  19.055  12.633  11.604
45634W        W13852   8.917  18.249   3.199
45635W        W13853  43.364  43.524  11.054
45636W        W13854  25.480  14.730  11.096
45637W        W13855  19.117  40.366   4.980
45638W        W13856  40.766   8.236   3.562
45639W        W13857  23.287   9.837  12.925
45640W        W13858  25.065   8.397  11.552
45641W        W13859  25.582  37.363  13.759
45642W        W13860  37.970  15.073  12.040
45643W        W13861  18.244  23.108  14.933
45644W        W13862  22.608  31.081   1.166
45645W        W13863  36.160  38.919  14.091
45646W        W13864  17.050  35.125   1.921
45647W        W13865  28.242  34.094   3.298
45648W        W13866  21.922   5.723   2.791
45649W        W13867  39.599  22.264  11.581
45650W        W13868  34.512  18.240   3.391
45651W        W13869  38.792  39.437   3.882
45652W        W13870  44.984  13.408  14.807
45653W        W13871  27.410   8.661   4.572
45654W        W13872  43.442  14.602   0.864
45655W        W13873   3.988  24.487  11.552
45656W        W13874   3.772  12.121  12.137
45657W        W13875   4.822  14.134  13.029
45658W        W13876  14.436  21.158  13.188
45659W        W13877  30.120  11.246  10.736
45660W        W13878  12.221  14.571   3.118
45661W        W13879  24.453   4.876  11.725
45662W        W13880  42.320  42.497   3.665
45663W        W13881  16.604   7.812  13.802
45664W        W13882   8.236  23.577   4.169
45665W        W13883  11.717  39.616  10.673
45666W        W13884  34.881  14.853   3.659
45667W        W13885  24.390  15.909  10.186
45668W        W13886  37.391  27.520   1.372
45669W        W13887  12.002   3.188   4.155
45670W        W13888   7.369  38.535  14.377
45671W        W13889  27.466  29.202   1.820
45672W        W13890  28.907  31.894   0.675
45673W        W13891   8.145  21.418   3.356
45674W        W13892  44.349  15.736   2.378
45675W        W13893  35.435  11.532   2.563
45676W        W13894  33.111  14.277   4.765
45677W        W13895  30.203  12.161   4.489
45678W        W13896  33.358  37.459   3.637
45679W        W13897  11.323   3.039  11.233
45680W        W13898  41.236  35.240   0.441
45681W        W13899  25.159  21.270   0.727
45682W        W13900  26.179  19.565   2.821
45683W        W13901  26.830   2.333  12.411
45684W        W13902  24.187  29.766   3.282
45685W        W13903   7.147  14.042   4.995
45686W        W13904  28.202  43.059   1.313
45687W        W13905  23.663  24.984   4.108
45688W        W13906  35.966  25.727  12.833
45689W        W13907  39.389  27.002   0.813
45690W        W13908  40.782  30.570   4.166
45691W        W13909  28.731   8.505   1.257
45692W        W13910  40.334   4.998   0.355
45693W        W13911  40.868  44.002  10.637
45694W        W13912  18.570   0.493   4.552
45695W        W13913   1.838  11.294   2.973
45696W        W13914  23.706  19.074   4.086
45697W        W13915  28.299  36.130   3.234
45698W        W13916  10.116  25.171  11.175
45699W        W13917  38.943  13.344  13.820
45700W        W13918  19.829  25.892   1.221
45701W        W13919   2.341  12.416  12.887
45702W        W13920   3.517  31.906  12.061
45703W        W13921  41.283  40.414   4.186
45704W        W13922   1.831  13.109   3.348
45705W        W13923  36.476  10.565   4.618
45706W        W13924  38.550   8.630   2.271
45707W        W13925  38.020  19.169   0.203
45708W        W13926   6.763  14.658   0.240
45709W        W13927   6.715  38.945   2.653
45710W        W13928  41.958  22.745  14.568
45711W        W13929  31.199   4.073  12.487
45712W        W13930   0.524  30.037  13.332
45713W        W13931  32.495  27.634  14.377
45714W        W13932  42.870   3.680  14.796
45715W        W13933  11.972  11.564  11.685
45716W        W13934   7.728  29.588   0.925
45717W        W13935  41.912  12.160  14.006
45718W        W13936  19.667  16.849  12.851
45719W        W13937  40.991  29.181  14.008
45720W        W13938  20.811  17.209  13.904
45721W        W13939  38.004  35.746  13.876
45722W        W13940  17.696  32.130   3.670
45723W        W13941  33.399  35.891  12.410
45724W        W13942  11.066   6.267  11.526
45725W        W13943  12.246   6.363   0.111
45726W        W13944  35.928  33.333   0.919
45727W        W13945  29.173  39.369   4.523
45728W        W13946   0.948  16.605  12.142
45729W        W13947  42.514  31.968   4.608
45730W        W13948   2.914  17.224   0.788
45731W        W13949  28.754   4.617  12.108
45732W        W13950  35.652  32.491   1.848
45733W        W13951  39.977  27.225  12.952
45734W        W13952  35.905   5.657   3.759
45735W        W13953  42.173   4.598  13.472
45736W        W13954   0.293  25.868   1.902
45737W        W13955  36.947  39.302   1.692
45738W        W13956  29.131  28.988  12.459
45739W        W13957  16.295  38.060   4.419
45740W        W13958  16.082  32.453  13.717
45741W        W13959   3.000  11.175   0.821
45742W        W13960  13.831  28.166   0.792
45743W        W13961  33.630  40.462   0.870
45744W        W13962  13.287  22.709  14.477
45745W        W13963  24.631  29.955   1.270
45746W        W13964  32.989  43.295  11.226
45747W        W13965  17.054  30.688   0.486
45748W        W13966  19.320  27.452   4.200
45749W        W13967  19.191  42.490  13.074
45750W        W13968  29.086   7.492  14.841
45751W        W13969  22.642   7.408  11.237
45752W        W13970  32.998   2.366  12.587
45753W        W13971  35.408  25.952  11.703
45754W        W13972  38.060   9.203  12.527
45755W        W13973  18.162  43.468   2.153
45756W        W13974  39.704  42.896  14.941
45757W        W13975  34.004  10.758   3.373
45758W        W13976  16.236  24.723   4.146
45759W        W13977   5.318  26.634   4.762
45760W        W13978  19.210  36.597  12.914
45761W        W13979   3.234  16.317   0.364
45762W        W13980  12.635  38.925  11.941
45763W        W13981  30.107   5.212  12.483
45764W        W13982  34.006  32.141  11.848
45765W        W13983   8.727  16.362  12.945
45766W        W13984  26.992  26.370  12.960
45767W        W13985   3.948  27.569   2.296
45768W        W13986  11.437  32.397  12.017
45769W        W13987   1.662  15.123   0.359
45770W        W13988  31.936   4.175  14.418
45771W        W13989   7.308  15.097   4.091
45772W        W13990   4.993   6.211  11.386
45773W        W13991  27.119  27.690   2.802
45774W        W13992  28.566  39.271   1.132
45775W        W13993  28.055  33.947  13.425
45776W        W13994  12.056  23.826   2.377
45777W        W13995  21.312  22.816  10.101
45778W        W13996   2.384  24.170  14.073
45779W        W13997  25.808  15.530   5.337
45780W        W13998  16.702  21.298   3.470
45781W        W13999  35.457   5.880  11.432
45782W        W14000  17.512  44.765   1.679
45783W        W14001  29.410  22.143   4.311
45784W        W14002   2.739  31.188   4.491
45785W        W14003  19.935  38.110  11.845
45786W        W14004  18.296  13.712  10.938
45787W        W14005  21.544  33.324   3.572
45788W        W14006   8.042  11.456  10.299
45789W        W14007   6.718   9.825   1.772
45790W        W14008  44.308   4.103  11.135
45791W        W14009  26.055  29.641  13.044
45792W        W14010  35.044  38.319  10.827
45793W        W14011  42.372  20.329   3.824
45794W        W14012  43.314  20.700   2.732
45795W        W14013  10.494  39.287  12.452
45796W        W14014  44.509  24.256   3.164
45797W        W14015  33.095  12.346   2.819
45798W        W14016  37.821  34.825   3.786
45799W        W14017  18.041  40.559   2.477
45800W        W14018   6.607  44.283  14.771
45801W        W14019  35.160  30.469   3.237
45802W        W14020  11.650  17.112   1.854
45803W        W14021  35.032  29.781   2.619
45804W        W14022  31.429   0.998   3.737
45805W        W14023  17.769   4.943   1.411
45806W        W14024  35.238  44.246  11.062
45807W        W14025  31.134  44.210  11.000
45808W        W14026  21.914  41.499   5.282
45809W        W14027  15.285  32.346  14.260
45810W        W14028   8.640  31.819   0.883
45811W        W14029  35.237  36.107  13.923
45812W        W14030  20.291  36.861  13.424
45813W        W14031  31.856  30.917   0.349
45814W        W14032   7.661  41.928   0.100
45815W        W14033  13.788  15.916   0.851
45816W        W14034  37.692  13.236   4.983
45817W        W14035   7.241   9.477  12.590
45818W        W14036   5.599  36.084   3.858
45819W        W14037  23.753  39.300   0.275
45820W        W14038  35.133  32.478  10.647
45821W        W14039  41.869  33.844   4.180
45822W        W14040  19.657  32.567  12.506
45823W        W14041  44.257  26.717  14.338
45824W        W14042  17.822  34.025  13.690
45825W        W14043  40.107   5.283  11.974
45826W        W14044  35.095  37.078  13.529
45827W        W14045   8.887  30.604   2.468
45828W        W14046  14.511  27.424  11.923
45829W        W14047  37.311  13.278   1.723
45830W        W14048  39.623  30.433  14.548
45831W        W14049  32.528  35.520   1.792
45832W        W14050  26.706  24.784  13.380
45833W        W14051   5.745  14.185  13.110
45834W        W14052  19.537  12.219   3.960
45835W        W14053  27.617  36.231   1.917
45836W        W14054  37.701   2.977   1.781
45837W        W14055   4.464  31.811  12.141
45838W        W14056  12.219  33.771   3.497
45839W        W14057  36.101  25.426  13.797
45840W        W14058   2.424  16.597   0.130
45841W        W14059  12.127   4.428  13.400
45842W        W14060  44.493  41.418   1.266
45843W        W14061  35.517   0.264   3.809
45844W        W14062   5.459  15.024  11.211
45845W        W14063  42.914  13.810  14.466
45846W        W14064  42.803  42.849  11.129
45847W        W14065  39.547  32.548  11.568
45848W        W14066   1.736  10.653   3.752
45849W        W14067  15.210  18.720  13.946
45850W        W14068   4.298  11.117   4.623
45851W        W14069  11.145  27.075  10.884
45852W        W14070   5.263   2.656   1.446
45853W        W14071   1.263  39.360   1.256
45854W        W14072  39.381   0.367  11.099
45855W        W14073  34.402  12.612   0.404
45856W        W14074  44.853  16.581  14.581
45857W        W14075  15.375  34.533  11.640
45858W        W14076  17.554  19.609   0.345
45859W        W14077  32.231  10.131   3.370
45860W        W14078   5.338  30.496   1.984
45861W        W14079  17.115  22.044  13.963
45862W        W14080  13.243  29.021   2.336
45863W        W14081   9.622  27.369   3.749
45864W        W14082  36.358  36.508  13.441
45865W        W14083  18.234  17.820  11.918
45866W        W14084  27.127   3.527   4.185
45867W        W14085  42.491  33.499   4.222
45868W        W14086  20.629  14.599  10.264
45869W        W14087  21.697  30.435  11.166
45870W        W14088  13.305  41.842  10.807
45871W        W14089   8.669   9.393  13.274
45872W        W14090   0.725  32.161  14.828
45873W        W14091  41.216  35.534  13.423
45874W        W14092  41.725   3.264   2.790
45875W        W14093  29.084  39.495   1.221
45876W        W14094  10.254  44.677   2.171
45877W        W14095  31.598  22.501   1.386
45878W        W14096  40.606  22.622  11.493
45879W        W14097  24.804  23.068  11.599
45880W        W14098  23.599  10.358   2.968
45881W        W14099   6.116  10.410  11.483
45882W        W14100  26.521  14.245   2.003
45883W        W14101  36.443  20.152   4.420
45884W        W14102  10.111  38.494   2.290
45885W        W14103  14.363  42.462   3.348
45886W        W14104  14.175  31.142  11.478
45887W        W14105   1.258  39.545   2.174
45888W        W14106  15.613   9.904   2.177
45889W        W14107  29.923  29.000   0.184
45890W        W14108   0.745  17.183   0.363
45891W        W14109  12.337  13.707   2.317
45892W        W14110   8.654  29.964  13.932
45893W        W14111  42.065   4.446   3.272
45894W        W14112  20.517  18.797  12.920
45895W        W14113  42.209  39.538  11.179
45896W        W14114  37.606  27.962  11.522
45897W        W14115  38.067  25.468   0.017
45898W        W14116  40.762  26.340   4.229
45899W        W14117  44.680  11.726   0.514
45900W        W14118  33.591  28.456  13.902
45901W        W14119  39.775   2.871  12.544
45902W        W14120   3.425  42.347   0.006
45903W        W14121  14.033  34.520  13.662
45904W        W14122  38.608   8.210   4.120
45905W        W14123  37.805  22.170   0.360
45906W        W14124  20.987  23.473   4.134
45907W        W14125  21.476   4.808  12.409
45908W        W14126  42.447  35.639   0.706
45909W        W14127  23.486   5.032  14.992
45910W        W14128  27.601  25.713   0.983
45911W        W14129   1.305  33.887   0.288
45912W        W14130  12.527  23.571   2.247
45913W        W14131  43.087  25.969   1.433
45914W        W14132  20.827  26.151   1.338
45915W        W14133  41.797  22.847   2.580
45916W        W14134  33.672  10.668  14.396
45917W        W14135  15.369   6.691  13.457
45918W        W14136  12.156  28.001   1.234
45919W        W14137   6.639  42.954   3.014
45920W        W14138  29.262  28.861   1.391
45921W        W14139  21.227  17.331   4.538
45922W        W14140  22.476  26.335  13.552
45923W        W14141   0.210   9.394  11.021
45924W        W14142  14.682  31.709  13.278
45925W        W14143  13.746  29.951   2.377
45926W        W14144  44.350  27.495  12.791
45927W        W14145  28.849  26.626  14.462
45928W        W14146  18.729   6.336  11.119
45929W        W14147  30.597  25.175  10.796
45930W        W14148  24.230  30.686  12.542
45931W        W14149  19.789   5.786  11.600
45932W        W14150   9.517  18.340  14.569
45933W        W14151  14.979  31.365  14.460
45934W        W14152  40.411  29.997   0.664
45935W        W14153  13.251  25.383   2.924
45936W        W14154   0.793  33.566  14.181
45937W        W14155  10.322  19.058   2.103
45938W        W14156   0.882  44.485  13.204
45939W        W14157  31.110  24.949   4.138
45940W        W14158  14.793   6.184   2.627
45941W        W14159  23.110  22.699   4.599
45942W        W14160   3.230  24.588   1.675
45943W        W14161  11.735  15.223   1.716
45944W        W14162  41.549   4.072  10.714
45945W        W14163  13.546   9.925   2.445
45946W        W14164   4.676   8.814   2.847
45947W        W14165   0.777  33.149   2.309
45948W        W14166  17.573  30.537  12.532
45949W        W14167  37.444  25.666   4.553
45950W        W14168  27.810  14.711  13.824
45951W        W14169   5.173  21.680   0.496
45952W        W14170   8.754   5.051  10.055
45953W        W14171  16.996   5.628   2.349
45954W        W14172  35.026  31.154   2.725
45955W        W14173  34.906  38.809   3.256
45956W        W14174  23.684  15.684  11.615
45957W        W14175   4.745  38.982   2.868
45958W        W14176  28.279  29.571  11.587
45959W        W14177  34.041  37.127   0.906
45960W        W14178  27.804  13.886   5.048
45961W        W14179  33.406  18.508  12.945
45962W        W14180  29.832   5.216   3.651
45963W        W14181  30.486  38.276   0.465
45964W        W14182  41.344  34.182  10.948
45965W        W14183  17.783  39.058   2.290
45966W        W14184  10.125  13.821  13.862
45967W        W14185  12.543   1.653  14.432
45968W        W14186  15.849  40.497  11.173
45969W        W14187  11.092  25.781   2.201
45970W        W14188   0.926  31.143   2.757
45971W        W14189  18.090  37.352  13.434
45972W        W14190  36.540  38.547  11.500
45973W        W14191   3.542   9.723  13.264
45974W        W14192  21.212   6.771  12.018
45975W        W14193   2.804  19.685  14.435
45976W        W14194  18.744  35.819  13.865
45977W        W14195  28.488  21.989  11.802
45978W        W14196  37.032  36.928   2.320
45979W        W14197  16.458   0.709   3.193
45980W        W14198   2.887  29.747  12.484
45981W        W14199  43.396  26.192   1.827
45982W        W14200  34.432  34.810  10.629
45983W        W14201  24.431   6.918  13.399
45984W        W14202   0.014  35.818   4.245
45985W        W14203  19.291   0.687  13.364
45986W        W14204  17.345  22.714   1.674
45987W        W14205   9.700  27.485  11.617
45988W        W14206  27.211  28.219   4.151
45989W        W14207   4.793  21.646   3.244
45990W        W14208  12.730  22.338   1.065
45991W        W14209  27.121   3.039   3.959
45992W        W14210  22.834   1.998   3.285
45993W        W14211  33.718  26.268   3.114
45994W        W14212  17.497  31.010  10.992
45995W        W14213  16.259  29.647   0.709
45996W        W14214  11.472   9.624   4.012
45997W        W14215   6.420  38.371  12.441
45998W        W14216  44.527  18.730  11.653
45999W        W14217  20.165  21.200   3.256
46000W        W14218  10.768  33.317   4.215
46001W        W14219  35.172  42.025   3.194
46002W        W14220  32.941  40.393   3.398
46003W        W14221   1.346  43.876   1.341
46004W        W14222  33.164  43.035  12.945
46005W        W14223  12.221  28.472   4.150
46006W        W14224  43.828   7.475   3.461
46007W        W14225  36.937   7.663  14.096
46008W        W14226  33.421  26.937   3.579
46009W        W14227   8.509   5.584  13.102
46010W        W14228   9.303  24.567  12.529
46011W        W14229   0.911  32.368  13.585
46012W        W14230  10.808  23.505  12.423
46013W        W14231  27.026  40.784  12.067
46014W        W14232   7.445   6.807   3.797
46015W        W14233  42.919  39.311  11.068
46016W        W14234  16.531   4.285  10.699
46017W        W14235   5.671  12.219   1.765
46018W        W14236  12.022  33.011  12.514
46019W        W14237   0.585   8.731   2.504
46020W        W14238  16.709  36.972  14.694
46021W        W14239  13.743   6.348  11.080
46022W        W14240  25.222   1.064   1.479
46023W        W14241  31.151  41.247  11.566
46024W        W14242  15.806  20.671  12.160
46025W        W14243   8.894   0.804  12.276
46026W        W14244  35.204   2.364   3.069
46027W        W14245  20.833  21.281  12.317
46028W        W14246  12.653  29.194  11.054
46029W        W14247  40.502  31.095  10.654
46030W        W14248  18.248  18.413  11.535
46031W        W14249  16.852  18.447  12.992
46032W        W14250  40.808  44.413  10.303
46033W        W14251  26.456  19.578  13.958
46034W        W14252  10.276   7.724   4.107
46035W        W14253  44.389  25.455  11.608
46036W        W14254  21.199  27.576   0.216
46037W        W14255   6.744  21.224   1.729
46038W        W14256   1.938  20.700   0.944
46039W        W14257   3.058  22.459  14.838
46040W        W14258   8.000  17.276   0.692
46041W        W14259  31.627  13.433   2.406
46042W        W14260  26.667   3.410  12.059
46043W        W14261   6.334  17.286  10.247
46044W        W14262  19.679   2.987   4.098
46045W        W14263  32.902  31.388  11.747
46046W        W14264  42.207  28.136  13.965
46047W        W14265   9.357  18.945   1.952
46048W        W14266  18.221  42.581   4.642
46049W        W14267  33.108   1.339   0.931
46050W        W14268   9.832  23.892  11.628
46051W        W14269   2.214  26.378  11.075
46052W        W14270  42.211   9.284   0.893
46053W        W14271  31.103  23.517  13.093
46054W        W14272  37.841  13.129  11.954
46055W        W14273  13.662  23.132   0.808
46056W        W14274  25.967  11.559   1.844
46057W        W14275   3.290   5.668   3.118
46058W        W14276  30.440  18.599  10.689
46059W        W14277   0.999  44.380  12.708
46060W        W14278  43.953  15.835  11.561
46061W        W14279  44.779  13.059   0.752
46062W        W14280  25.485  33.587  12.048
46063W        W14281   2.873  30.094   1.974
46064W        W14282  20.189  44.374  11.017
46065W        W14283  32.787   1.419   3.647
46066W        W14284  15.572   2.983  10.763
46067W        W14285  35.911   2.164  10.232
46068W        W14286  12.227   5.120  12.874
46069W        W14287  34.076  28.164   3.227
46070W        W14288  43.873  20.569  14.896
46071W        W14289  32.504  11.832   0.379
46072W        W14290  33.805  30.089   0.662
46073W        W14291   0.483   8.620  13.024
46074W        W14292  31.649  18.374   0.792
46075W        W14293  42.753  36.540   0.793
46076W        W14294   9.722  23.574  10.481
46077W        W14295  28.827  11.384  13.271
46078W        W14296   2.648  18.315  11.964
46079W        W14297  17.862   8.737  12.553
46080W        W14298  29.434  33.380   2.360
46081W        W14299  25.201  37.468   4.118
46082W        W14300   3.369  21.798   4.291
46083W        W14301  25.455  24.669   2.396
46084W        W14302  13.234   3.289  14.264
46085W        W14303  26.245  11.768   3.223
46086W        W14304  14.662   5.748   2.373
46087W        W14305  36.527  41.401  14.962
46088W        W14306   1.355   9.911  12.204
46089W        W14307   2.531  14.608   4.570
46090W        W14308  10.773  34.149  12.441
46091W        W14309   1.411  16.096   0.711
46092W        W14310  38.495   3.501  11.186
46093W        W14311  12.158  35.866   2.700
46094W        W14312  35.999   4.479   1.396
46095W        W14313  38.378   6.703   1.473
46096W        W14314  40.345   6.865  11.223
46097W        W14315  12.223   2.735   3.262
46098W        W14316  20.213  42.755   4.470
46099W        W14317  23.067  20.484  13.124
46100W        W14318  12.349  38.827   4.585
46101W        W14319  32.932  15.675  14.317
46102W        W14320  44.787  34.953  13.457
46103W        W14321  32.536  16.767  13.380
46104W        W14322  35.900  31.373   2.721
46105W        W14323  35.510   7.781   0.980
46106W        W14324  37.591  38.115  14.026
46107W        W14325  43.085   1.969  13.481
46108W        W14326  18.989  25.496   4.754
46109W        W14327   2.359  33.218  14.519
46110W        W14328  33.082   5.420   1.703
46111W        W14329  28.766   0.593   1.310
46112W        W14330   6.856  16.849   3.255
46113W        W14331  20.908  35.395   4.566
46114W        W14332  41.068  23.546   4.590
46115W        W14333   9.305  33.919  12.157
46116W        W14334  42.729  18.636  14.981
46117W        W14335  15.250  44.929  13.901
46118W        W14336   0.306  43.404   2.381
46119W        W14337   5.189  34.972  10.492
46120W        W14338  15.860  15.592   0.449
46121W        W14339  21.122  26.364   0.906
46122W        W14340  29.185  28.116   3.592
46123W        W14341  43.820  22.546   1.790
46124W        W14342  21.058  36.144  13.463
46125W        W14343  30.454  12.263   4.044
46126W        W14344  23.281   1.967  11.939
46127W        W14345  15.801  28.103  11.954
46128W        W14346  43.943  31.421  13.541
46129W        W14347  36.508  41.720   4.864
46130W        W14348  10.068  32.697  11.963
46131W        W14349  38.927   6.233   4.998
46132W        W14350  25.533  18.807  13.294
46133W        W14351  28.260  35.045  13.827
46134W        W14352   8.349  10.377  10.720
46135W        W14353  11.657  33.470  13.013
46136W        W14354  38.136  13.288   0.383
46137W        W14355  31.085   9.442  12.772
46138W        W14356   1.788  22.328   0.792
46139W        W14357  27.052   5.286  12.389
46140W        W14358  28.182  15.566   4.071
46141W        W14359   8.924   1.944   3.975
46142W        W14360   0.681  19.516  11.245
46143W        W14361  42.839  42.940  13.336
46144W        W14362   8.336  14.517   1.014
46145W        W14363  43.203  25.119   4.977
46146W        W14364   5.905  19.550  12.078
46147W        W14365  40.510  15.217  10.082
46148W        W14366  23.019  39.420  11.953
46149W        W14367  14.354  19.108  14.999
46150W        W14368   0.421  20.576   2.412
46151W        W14369   5.174  38.377   3.336
46152W        W14370  13.379   5.186  14.700
46153W        W14371  40.079  13.836   0.926
46154W        W14372  31.615  13.381   3.752
46155W        W14373  24.773  34.985   2.604
46156W        W14374  34.563  26.296   2.801
46157W        W14375  31.638  21.068  11.973
46158W        W14376  32.415  37.789   2.250
46159W        W14377  39.891  39.012  10.530
46160W        W14378  31.160  13.002  12.418
46161W        W14379  26.497   7.819   3.118
46162W        W14380  30.169  22.210  14.926
46163W        W14381   0.827  38.379   2.168
46164W        W14382  15.187  34.442   0.257
46165W        W14383  29.672  42.083   1.787
46166W        W14384  23.194  36.364  12.806
46167W        W14385  43.351  36.957  11.119
46168W        W14386  27.402   8.669  11.708
46169W        W14387  16.203   2.987  14.761
46170W        W14388  43.604  14.103   1.622
46171W        W14389  41.662  28.204   1.425
46172W        W14390  32.955  44.110   1.070
46173W        W14391  28.662  14.895   2.949
46174W        W14392  35.573  32.968   4.578
46175W        W14393   6.926  26.732  13.740
46176W        W14394  39.349  12.353  12.414
46177W        W14395  13.052   9.365  12.227
46178W        W14396  11.393  24.208   3.200
46179W        W14397   5.506  21.693   4.116
46180W        W14398  23.477  16.693   4.692
46181W        W14399  38.137  37.260   2.791
46182W        W14400  18.252  34.944   3.322
46183W        W14401  42.882  35.910   2.755
46184W        W14402  33.310  21.928  14.770
46185W        W14403  35.984  22.626   1.144
46186W        W14404   1.175  25.149  13.424
46187W        W14405  29.879  24.038   1.457
46188W        W14406  16.539  14.585   3.853
46189W        W14407  18.818  33.161  14.839
46190W        W14408   6.952   9.852   2.867
46191W        W14409  24.179  34.126  11.457
46192W        W14410  29.430   6.753   4.643
46193W        W14411  41.930  24.613  13.729
46194W        W14412  27.271  13.703  11.995
46195W        W14413  41.461  39.268  13.276
46196W        W14414   1.750  34.737   3.229
46197W        W14415  12.673  33.713   0.085
46198W        W14416  14.148   8.310  14.904
46199W        W14417   2.206  25.867   4.705
46200W        W14418  18.703  17.070  10.803
46201W        W14419   2.777  43.250  11.869
46202W        W14420   8.302   5.311   2.592
46203W        W14421  30.450  39.337   4.645
46204W        W14422  12.782  12.422  14.373
46205W        W14423  32.100  23.209  14.356
46206W        W14424  39.481  36.426  12.823
46207W        W14425  38.386  14.047   4.538
46208W        W14426  43.433   1.727   1.793
46209W        W14427   7.556  19.037   4.087
46210W        W14428  24.977   0.521   2.762
46211W        W14429  32.689  38.554   2.034
46212W        W14430  18.814  28.163  12.448
46213W        W14431  15.586  40.579  12.350
46214W        W14432  41.290  23.539   3.732
46215W        W14433  23.314   3.184   0.874
46216W        W14434  41.393  38.057   2.189
46217W        W14435  33.086  40.099  10.951
46218W        W14436  25.512  11.299  14.315
46219W        W14437  12.333  33.445  11.861
46220W        W14438   5.212  25.087   3.170
46221W        W14439   4.200  37.514  11.452
46222W        W14440  42.033   6.380  10.506
46223W        W14441  44.984  30.594   0.353
46224W        W14442  10.208   1.992   3.619
46225W        W14443   8.809  19.744   1.894
46226W        W14444  33.634   8.073  13.334
46227W        W14445  28.509  24.191  14.679
46228W        W14446  31.938   0.559   1.270
46229W        W14447  38.363  35.374   3.694
46230W        W14448  32.374  20.619   0.175
46231W        W14449  42.975  37.480  11.674
46232W        W14450  35.681  22.968  11.135
46233W        W14451  27.933  41.885   4.391
46234W        W14452  13.815  42.339   1.743
46235W        W14453  34.900  27.034   3.282
46236W        W14454  38.300  25.022  14.868
46237W        W14455  40.563  10.012  10.962
46238W        W14456  43.986  15.274  10.741
46239W        W14457  24.310   3.416   4.561
46240W        W14458   4.801  32.613  11.026
46241W        W14459  20.810  13.196  10.714
46242W        W14460  28.119  32.089   4.021
46243W        W14461  42.576  15.859  10.641
46244W        W14462  26.729   8.692   0.504
46245W        W14463   9.659  24.577   2.453
46246W        W14464   0.200  28.689   2.283
46247W        W14465  36.115   5.631  12.995
46248W        W14466   2.651   8.053  13.969
46249W        W14467  11.257   1.211  11.162
46250W        W14468  13.782  15.321   2.689
46251W        W14469  19.828  11.189  12.162
46252W        W14470   6.336  34.621  12.519
46253W        W14471  13.736  34.417   1.861
46254W        W14472   3.055  35.159   5.118
46255W        W14473   1.557   8.820   3.145
46256W        W14474  34.996  33.460  14.088
46257W        W14475  29.532  28.724   1.917
46258W        W14476  44.276  41.880   1.102
46259W        W14477  40.654  35.022   0.509
46260W        W14478  34.064  38.754  12.546
46261W        W14479   2.887   3.459   2.195
46262W        W14480  21.019   9.136   4.555
46263W        W14481   7.689  16.061  13.475
46264W        W14482  39.024   6.212   1.591
46265W        W14483  13.134  27.848  14.413
46266W        W14484  28.045   5.413   0.081
46267W        W14485   1.469  14.601  14.877
46268W        W14486  11.688  36.052   2.849
46269W        W14487   9.888   2.628   1.379
46270W        W14488  24.099   3.794   4.248
46271W        W14489  42.793  28.575  14.475
46272W        W14490  16.986  31.075  11.079
46273W        W14491  40.386   6.475   4.779
46274W        W14492  41.445  19.656  10.585
46275W        W14493  12.347  19.621  11.449
46276W        W14494   8.216  17.628   4.437
46277W        W14495  30.455   3.556  12.596
46278W        W14496  41.817  27.946   4.529
46279W        W14497  13.609   2.033   4.820
46280W        W14498  30.896  22.933  10.432
46281W        W14499  36.638   1.949  11.960
46282W        W14500  11.406  41.051  12.068
46283W        W14501  44.853  22.615   4.920
46284W        W14502   6.673   7.637   3.523
46285W        W14503   7.701  12.695  14.267
46286W        W14504  39.417  41.415  14.035
46287W        W14505   5.137  33.089  13.430
46288W        W14506   3.806  40.232   1.855
46289W        W14507  10.216  29.757  13.916
46290W        W14508   8.099  18.718   1.389
46291W        W14509  31.346   7.632  10.403
46292W        W14510  20.124  42.348  13.958
46293W        W14511  33.844  30.546  10.098
46294W        W14512  38.514  23.604   3.610
46295W        W14513  28.489  36.271   1.384
46296W        W14514  37.988  23.028   3.288
46297W        W14515  34.099  36.171   0.113
46298W        W14516  18.689  13.794   1.707
46299W        W14517  13.235  38.099   2.708
46300W        W14518  14.130  21.284   3.527
46301W        W14519   2.517  16.368  14.303
46302W        W14520  19.234  20.243   1.722
46303W        W14521  24.000  13.762  10.701
46304W        W14522  43.983   3.705   2.057
46305W        W14523  22.003  43.471  12.200
46306W        W14524   4.765  41.273  13.609
46307W        W14525   5.947   5.334  11.523
46308W        W14526  29.406  36.944   4.996
46309W        W14527   0.497   4.273  12.564
46310W        W14528  10.590   9.704   0.459
46311W        W14529  37.802  41.436   1.775
46312W        W14530  20.753  29.122   3.778
46313W        W14531  21.087  37.983   3.247
46314W        W14532  28.428  32.437  14.388
46315W        W14533   3.521  32.819  14.956
46316W        W14534  38.122   4.712   0.244
46317W        W14535  11.129  30.282   0.894
46318W        W14536  34.639  30.467   4.643
46319W        W14537  26.460  25.188   0.639
46320W        W14538  28.188  24.586  12.471
46321W        W14539   4.196   5.293   4.142
46322W        W14540  14.626  31.414  10.989
46323W        W14541  36.413  42.901  11.149
46324W        W14542   8.899   5.297  13.773
46325W        W14543  38.398   3.792   2.723
46326W        W14544  36.866  44.058   2.359
46327W        W14545  28.544   8.333   2.648
46328W        W14546  13.290   1.669  10.997
46329W        W14547  14.750  43.379   2.282
46330W        W14548   7.701  31.735   0.292
46331W        W14549  13.189  42.656   4.184
46332W        W14550  43.295  36.743   1.672
46333W        W14551  39.484   6.322   3.135
46334W        W14552  26.990  41.388   1.754
46335W        W14553  19.569  33.846   2.173
46336W        W14554  43.690  36.936  12.639
46337W        W14555  36.045  35.685  10.486
46338W        W14556  35.171  24.565  10.552
46339W        W14557  21.751  31.949   2.373
46340W        W14558  21.154  33.572  13.519
46341W        W14559   6.870  32.939   1.689
46342W        W14560   7.615   6.204   0.374
46343W        W14561  35.586  24.253   4.351
46344W        W14562   3.286  24.460  10.623
46345W        W14563  15.314  37.478  10.665
46346W        W14564  18.932  26.494  14.601
46347W        W14565  38.021  11.303   4.004
46348W        W14566  11.191  44.444  10.595
46349W        W14567  36.184  34.019  12.635
46350W        W14568  42.974  16.321  13.356
46351W        W14569  27.339  10.256   0.776
46352W        W14570   7.993  41.535   0.211
46353W        W14571  23.664  35.416  13.007
46354W        W14572   3.085  10.862  12.006
46355W        W14573   0.384  41.069   4.511
46356W        W14574  16.752  29.866  10.770
46357W        W14575  41.343  19.164  10.466
46358W        W14576  16.684  40.750   9.865
46359W        W14577   2.263  35.244   4.365
46360W        W14578  19.199   3.208  13.414
46361W        W14579   6.764  22.505   0.434
46362W        W14580  10.259  26.116  12.548
46363W        W14581  26.496  12.223   3.284
46364W        W14582  19.978  28.154   2.266
46365W        W14583  11.845  15.383  11.804
46366W        W14584  36.650  24.019  13.913
46367W        W14585  26.941  18.220   0.428
46368W        W14586  41.389  13.274   1.767
46369W        W14587   2.406   7.193  12.064
46370W        W14588  21.704  31.085   3.280
46371W        W14589   3.329  27.471  13.118
46372W        W14590  32.063  23.781  13.880
46373W        W14591  14.111  18.557  10.714
46374W        W14592  36.113  26.550  11.466
46375W        W14593  19.736  29.095  11.901
46376W        W14594  13.374   2.495   4.764
46377W        W14595  14.276  43.488   9.984
46378W        W14596  39.933  40.034  13.461
46379W        W14597  37.332   7.706  12.860
46380W        W14598  33.622  24.424   3.383
46381W        W14599   8.231  34.527   0.540
46382W        W14600  22.056   3.296  10.599
46383W        W14601   4.664  28.935  14.498
46384W        W14602  22.355  21.145   4.086
46385W        W14603  15.960  26.864   3.960
46386W        W14604   7.718   2.377  11.985
46387W        W14605  27.866  31.626  14.332
46388W        W14606  15.254  39.111   2.115
46389W        W14607  25.628  29.515  12.768
46390W        W14608  43.705  27.572  11.022
46391W        W14609  32.865  24.466  12.802
46392W        W14610  12.283  44.695  14.875
46393W        W14611  29.386  40.293  14.926
46394W        W14612  12.991  25.197   2.159
46395W        W14613  26.461  25.350  11.550
46396W        W14614  32.229   9.733   4.316
46397W        W14615  12.792  28.424  11.441
46398W        W14616  15.192  18.513   1.463
46399W        W14617   5.267  23.038  12.688
46400W        W14618   9.275  10.585  13.977
46401W        W14619  38.419  13.407   2.025
46402W        W14620  34.335  32.735   0.896
46403W        W14621  30.524  18.660   4.384
46404W        W14622  40.291  15.382  13.923
46405W        W14623  11.316   4.708   4.073
46406W        W14624  31.357  15.608  13.500
46407W        W14625  44.003  40.339   0.258
46408W        W14626   4.183   3.811  11.750
46409W        W14627   2.709  17.425   3.647
46410W        W14628  40.517  32.063  14.016
46411W        W14629  44.217  36.331  10.208
46412W        W14630  14.693  19.631   3.483
46413W        W14631  15.749  34.818  13.917
46414W        W14632  35.318  26.471  11.643
46415W        W14633   0.021  31.204   2.632
46416W        W14634  20.497  14.667  14.601
46417W        W14635   8.370  40.609   4.250
46418W        W14636  36.120  21.701   1.922
46419W        W14637  17.276  38.399   2.835
46420W        W14638  41.426   1.672   5.029
46421W        W14639  12.265  22.925  11.169
46422W        W14640   1.961  25.203   0.956
46423W        W14641  26.547  25.610  14.937
46424W        W14642  44.942   0.379  13.626
46425W        W14643  14.712  40.810  14.059
46426W        W14644  16.387  15.029   0.990
46427W        W14645  37.388  17.667  11.532
46428W        W14646  27.561  17.679  14.051
46429W        W14647   6.459  40.162   3.130
46430W        W14648  44.935  16.764   1.712
46431W        W14649   9.648  27.597   4.224
46432W        W14650   0.078  35.662  12.773
46433W        W14651  27.190  23.990   2.305
46434W        W14652  43.832  37.064   3.427
46435W        W14653  29.722  37.515   1.165
46436W        W14654   7.396  10.860  14.010
46437W        W14655  44.481  16.966   2.601
46438W        W14656  37.043  31.467   3.960
46439W        W14657   7.013  24.872  13.445
46440W        W14658  22.380   4.678  12.126
46441W        W14659  44.886  36.915   2.138
46442W        W14660   7.085   5.229   0.717
46443W        W14661  32.953  15.130   1.378
46444W        W14662  20.631  38.706  11.095
46445W        W14663  13.791   4.467  14.439
46446W        W14664   4.281  11.850  10.355
46447W        W14665  40.627  15.620  13.376
46448W        W14666  16.587   7.353   3.694
46449W        W14667   0.188   2.888   1.615
46450W        W14668  35.444  44.405  10.633
46451W        W14669  22.182  15.764   3.836
46452W        W14670  29.192  44.927  10.714
46453W        W14671  16.503   9.878   0.734
46454W        W14672  38.523  25.451  11.889
46455W        W14673  10.768  11.305   4.365
46456W        W14674  42.959   3.510  12.087
46457W        W14675  23.469  30.957  11.135
46458W        W14676  27.075   9.727   3.210
46459W        W14677  42.564  27.629   1.356
46460W        W14678   4.929  39.029  11.247
46461W        W14679  29.429  15.394  14.732
46462W        W14680  26.991  44.438  14.931
46463W        W14681  15.685  27.007   0.259
46464W        W14682  19.588   9.677  12.405
46465W        W14683  25.556   2.461   3.245
46466W        W14684  31.929  29.207   0.971
46467W        W14685  37.497  42.791  11.579
46468W        W14686  27.607  10.593  13.012
46469W        W14687   3.012  16.599  13.077
46470W        W14688   2.778  43.976  14.919
46471W        W14689  24.720  20.691   2.864
46472W        W14690  14.720  21.160  13.984
46473W        W14691  19.746  36.101   2.822
46474W        W14692  38.278  13.891   3.778
46475W        W14693  12.609  39.035   0.191
46476W        W14694  18.955  35.801   4.611
46477W        W14695  30.148  15.353  12.615
46478W        W14696  11.252  43.232  13.854
46479W        W14697   4.718  27.383   0.377
46480W        W14698  24.789  31.977   2.825
46481W        W14699   3.464   0.805   1.181
46482W        W14700  31.971  24.748   4.414
46483W        W14701  24.520  22.851  14.457
46484W        W14702  27.460   5.467   1.864
46485W        W14703  17.978  42.960   2.202
46486W        W14704  22.173  21.014   0.718
46487W        W14705  28.922  21.501   2.936
46488W        W14706  37.535  25.776   0.547
46489W        W14707  27.207   7.677  11.610
46490W        W14708   1.246   5.341  14.402
46491W        W14709   0.915  17.713  12.434
46492W        W14710  32.555  43.729  13.414
46493W        W14711  14.619   8.613  12.209
46494W        W14712   6.147  40.808  11.984
46495W        W14713  28.676  35.023   4.211
46496W        W14714   5.228  16.767  10.627
46497W        W14715  43.810   5.256  13.350
46498W        W14716   5.927  29.872  13.501
46499W        W14717  44.001  19.991  12.539
46500W        W14718  29.531   7.710  10.755
46501W        W14719  13.180  20.320  13.787
46502W        W14720  35.151  27.417  11.566
46503W        W14721  18.283  22.955   4.914
46504W        W14722  38.035  18.682   4.219
46505W        W14723  13.730  36.847   1.912
46506W        W14724  34.825  25.968  11.108
46507W        W14725  34.527  23.012  14.465
46508W        W14726  17.126   6.277  10.186
46509W        W14727  23.169  21.046   3.564
46510W        W14728   9.604  23.159   4.232
46511W        W14729  25.821   6.902   3.323
46512W        W14730  22.112  23.284   0.370
46513W        W14731   9.629  35.903  11.121
46514W        W14732  37.312  41.772  12.526
46515W        W14733   5.904  12.657  10.730
46516W        W14734  13.887  40.126  11.549
46517W        W14735  16.590   5.920   2.182
46518W        W14736   5.249  37.024  13.807
46519W        W14737  25.174  21.554  10.704
46520W        W14738  42.431  43.026   4.014
46521W        W14739  12.256  22.102   4.443
46522W        W14740  43.883  29.124   4.483
46523W        W14741  29.502  21.710  10.564
46524W        W14742  36.299  13.318   1.661
46525W        W14743  16.408  21.250  12.478
46526W        W14744  28.247  34.972   5.012
46527W        W14745  31.975  27.072  11.158
46528W        W14746  43.113  20.476   4.091
46529W        W14747  30.503  31.336  13.876
46530W        W14748   7.810  11.211  13.958
46531W        W14749   6.024  25.532   4.635
46532W        W14750  15.829  10.682  13.930
46533W        W14751  30.029   9.931  13.475
46534W        W14752  26.610  38.789   2.237
46535W        W14753  23.018  17.095  11.596
46536W        W14754  21.508  23.094   2.819
46537W        W14755  36.976   8.234  14.364
46538W        W14756  44.779  18.374  11.355
46539W        W14757  38.483   7.656  14.406
46540W        W14758  27.137  44.017   3.302
46541W        W14759   2.424  20.965   0.853
46542W        W14760  38.878  11.157   1.283
46543W        W14761   8.255  38.638  10.512
46544W        W14762  39.614  26.306  11.536
46545W        W14763  40.854  26.545   3.748
46546W        W14764  30.457  26.653   1.894
46547W        W14765  11.327  28.960  13.784
46548W        W14766   5.469  25.756   0.357
46549W        W14767  17.257  33.954  11.359
46550W        W14768  19.410   5.479   3.342
46551W        W14769  43.290  35.863  11.570
46552W        W14770  26.623  41.938   0.938
46553W        W14771  30.980  28.798   0.568
46554W        W14772  31.082  10.222   0.332
46555W        W14773  18.000  23.626   0.735
46556W        W14774   1.779  35.746  13.923
46557W        W14775  28.211  34.865  10.713
46558W        W14776   2.318  34.250  14.509
46559W        W14777  39.695  28.044   4.534
46560W        W14778  19.814  14.017  13.230
46561W        W14779  34.155  15.510  10.989
46562W        W14780   7.591   8.235  14.007
46563W        W14781  19.321   6.609  10.706
46564W        W14782  28.901  32.180   2.811
46565W        W14783  41.978  37.292  14.373
46566W        W14784  36.483  41.334  12.456
46567W        W14785  24.533  29.357   2.610
46568W        W14786   7.652  25.114  10.609
46569W        W14787   7.348  26.576  11.487
46570W        W14788   4.208  30.989   1.826
46571W        W14789   6.425  14.761   2.791
46572W        W14790  24.061  23.672   2.314
46573W        W14791  34.187  16.080  12.850
46574W        W14792   7.070  17.118   2.814
46575W        W14793  12.811  36.660  13.765
46576W        W14794   3.745  21.848  11.088
46577W        W14795  33.048  37.407   4.939
46578W        W14796  42.969  32.070   2.830
46579W        W14797  40.815  31.853  13.350
46580W        W14798  35.026  41.705  12.165
46581W        W14799  12.237  11.747  13.061
46582W        W14800  35.980  10.789   1.490
46583W        W14801  20.198   9.904  13.001
46584W        W14802  22.512   0.405   0.951
46585W        W14803   3.493  42.788  12.816
46586W        W14804  41.134  11.188  12.079
46587W        W14805  14.438  32.463  11.366
46588W        W14806   7.304  19.116  14.902
46589W        W14807  27.929  29.691   1.263
46590W        W14808  31.497  34.412   0.319
46591W        W14809  41.972   1.221   4.538
46592W        W14810  14.125  21.271  14.543
46593W        W14811  37.785   4.778   1.912
46594W        W14812  11.682  38.539   4.779
46595W        W14813  19.473   9.235   0.316
46596W        W14814  34.830  39.999  13.368
46597W        W14815  41.212  36.758   0.395
46598W        W14816  36.647  11.132  12.872
46599W        W14817  17.167  30.134   3.395
46600W        W14818   5.769  27.258   3.693
46601W        W14819  28.152  24.061  12.557
46602W        W14820  37.663  26.007   1.802
46603W        W14821  13.803   8.427  11.996
46604W        W14822  25.744  41.854   3.299
46605W        W14823  20.339  36.793  11.639
46606W        W14824  19.078  24.130  12.382
46607W        W14825  18.495   2.304   3.203
46608W        W14826   4.710  38.701   2.443
46609W        W14827   5.248   0.755   0.761
46610W        W14828  13.195  16.300   3.301
46611W        W14829   4.357  18.731  10.664
46612W        W14830  14.405   1.701   2.291
46613W        W14831  24.589  22.101  10.333
46614W        W14832  41.490  11.981   0.242
46615W        W14833   4.678  22.564  13.174
46616W        W14834  44.290  25.939   0.898
46617W        W14835   9.703  21.514  13.920
46618W        W14836  29.649  35.324  12.404
46619W        W14837   4.865   1.867   1.219
46620W        W14838  13.778  18.703   1.940
46621W        W14839  40.969   0.262  12.060
46622W        W14840  12.195  20.815  12.450
46623W        W14841  18.088  15.361  11.603
46624W        W14842   5.775  25.079   4.591
46625W        W14843  12.753  44.090  14.509
46626W        W14844   3.279   7.576   5.187
46627W        W14845  40.344  31.235   4.471
46628W        W14846  38.019   7.451  14.524
46629W        W14847  30.760  36.800  12.787
46630W        W14848  36.010   9.478  12.092
46631W        W14849  40.853  38.003  13.290
46632W        W14850  14.301  19.322  14.038
46633W        W14851  32.485  20.974  10.930
46634W        W14852   1.963  18.264   2.773
46635W        W14853  10.276   6.962   3.565
46636W        W14854  24.002  38.830  13.934
46637W        W14855   1.751  43.944   3.956
46638W        W14856  30.181  28.968   3.729
46639W        W14857  41.908  33.219   2.232
46640W        W14858  15.020  40.992  13.087
46641W        W14859   9.737  22.163   3.700
46642W        W14860   4.315  14.976  14.962
46643W        W14861   1.288  20.119   3.143
46644W        W14862  18.752   7.658   1.837
46645W        W14863  31.982  17.072   3.582
46646W        W14864  33.388  43.810   1.335
46647W        W14865  20.273  12.157  10.653
46648W        W14866   6.797   7.669  11.562
46649W        W14867  28.461  34.519   4.817
46650W        W14868   8.787  13.281  11.197
46651W        W14869   4.609  11.606  13.456
46652W        W14870  20.613   6.764   4.533
46653W        W14871   3.391  34.411   4.111
46654W        W14872   4.351  10.433   0.899
46655W        W14873   5.451  37.622  11.941
46656W        W14874  21.013  17.902   1.609
46657W        W14875  35.208  18.274   9.962
46658W        W14876   4.342  15.091   1.430
46659W        W14877  39.449  14.781   4.597
46660W        W14878  37.762  24.211   4.147
46661W        W14879  25.143   7.179  14.932
46662W        W14880  31.889  39.376   0.880
46663W        W14881  44.749   2.364   0.547
46664W        W14882  42.777  33.021   1.777
46665W        W14883  19.729  24.597   0.313
46666W        W14884  18.752  20.769  10.629
46667W        W14885  44.900  33.195   0.393
46668W        W14886  29.505   6.248   4.695
46669W        W14887   1.433  19.609  13.451
46670W        W14888  23.045  18.982   1.336
46671W        W14889  26.015   8.804   4.345
46672W        W14890   3.503  32.365   0.859
46673W        W14891  27.261  12.118  13.727
46674W        W14892   3.325  29.717  12.962
46675W        W14893  21.937  17.491  12.120
46676W        W14894  40.932  19.329  14.301
46677W        W14895  27.727  17.294  13.002
46678W        W14896  24.048  20.596   1.244
46679W        W14897  39.981  10.631  11.604
46680W        W14898  15.231   0.436   0.937
46681W        W14899   6.646  15.247   2.668
46682W        W14900  40.607  33.564   2.830
46683W        W14901  28.408  18.063   3.770
46684W        W14902  20.305  29.048  14.856
46685W        W14903   8.592  36.546   1.438
46686W        W14904  43.275  23.484  13.242
46687W        W14905   8.302  10.781  13.888
46688W        W14906  26.007  21.249   4.522
46689W        W14907  11.357   1.921  13.866
46690W        W14908  13.809  34.959   2.367
46691W        W14909  25.993   4.296   3.527
46692W        W14910  18.541  26.035  12.856
46693W        W14911  34.340   2.867  10.680
46694W        W14912  34.720  14.347  10.366
46695W        W14913  24.038  38.903   0.032
46696W        W14914  22.068  34.429   3.150
46697W        W14915  12.745  24.524   4.119
46698W        W14916   5.307  11.893  12.926
46699W        W14917  44.691  11.377  13.687
46700W        W14918  37.871  17.250  12.000
46701W        W14919  23.600   8.417  11.862
46702W        W14920   7.290  33.227  12.500
46703W        W14921  22.610  39.053  12.861
46704W        W14922  25.463  43.955   4.597
46705W        W14923  10.780  41.897  14.946
46706W        W14924  41.550   9.548  12.030
46707W        W14925   4.863  17.334  12.069
46708W        W14926  44.865  12.628   1.980
46709W        W14927  38.400  39.539   4.597
46710W        W14928  11.095   4.602  12.974
46711W        W14929  35.356   3.832   2.991
46712W        W14930  44.925   7.526  12.011
46713W        W14931   3.815  10.667   3.616
46714W        W14932  36.239  44.165  11.359
46715W        W14933  36.535   4.705  14.905
46716W        W14934  18.089  25.176   1.249
46717W        W14935  13.216  35.940  12.918
46718W        W14936  18.215  33.787  13.461
46719W        W14937  22.327  41.721   3.600
46720W        W14938  19.194  13.028  11.920
46721W        W14939  25.244  27.239  14.425
46722W        W14940  37.852   1.371  11.355
46723W        W14941  27.601   3.315   2.776
46724W        W14942  42.698  17.664   5.273
46725W        W14943  15.372  25.111   3.533
46726W        W14944  27.246  28.303   0.351
46727W        W14945  34.669  16.920   4.494
46728W        W14946  15.507  23.008  14.903
46729W        W14947  18.410   6.719   1.911
46730W        W14948  24.991   3.358   1.838
46731W        W14949  21.167  36.507   1.884
46732W        W14950  36.921  19.053  14.425
46733W        W14951  12.690  41.932  13.461
46734W        W14952  35.520  23.098   0.927
46735W        W14953   0.843  27.034  13.868
46736W        W14954  34.873  24.024  14.867
46737W        W14955  11.668  26.239  14.904
46738W        W14956  35.672  10.182  14.532
46739W        W14957  23.514   3.046   2.246
46740W        W14958   7.461  30.040  14.923
46741W        W14959  19.315  19.662   3.410
46742W        W14960  13.261  36.447   4.852
46743W        W14961  17.901  11.708   9.999
46744W        W14962  36.109  37.649   1.676
46745W        W14963   1.034   8.073   0.279
46746W        W14964   0.625  22.966  12.542
46747W        W14965  36.598  43.763  13.755
46748W        W14966  31.515  26.303  14.872
46749W        W14967  42.085  26.079  13.042
46750W        W14968   9.751   3.099   3.715
46751W        W14969   0.448  31.973   1.499
46752W        W14970  17.739  43.818   3.713
46753W        W14971  39.543  34.558  14.309
46754W        W14972  11.097  17.210   2.815
46755W        W14973  33.616  21.201  12.531
46756W        W14974  38.617  41.925  13.888
46757W        W14975   4.263  42.852   1.676
46758W        W14976   6.980   1.152  13.801
46759W        W14977  30.098  29.541   1.253
46760W        W14978  18.097  34.107   2.827
46761W        W14979   6.061  13.854   3.701
46762W        W14980  36.813  24.624   1.570
46763W        W14981  17.227  20.992   1.823
46764W        W14982  27.997  16.858   3.745
46765W        W14983  32.500  32.583   1.898
46766W        W14984  37.991  27.981  10.240
46767W        W14985  41.424   1.453   3.140
46768W        W14986  24.471  28.422   4.575
46769W        W14987  38.571  13.751   0.769
46770W        W14988  10.788  27.092  12.062
46771W        W14989  26.750  32.075  10.174
46772W        W14990  33.570   8.676  13.533
46773W        W14991  32.485  43.506  14.371
46774W        W14992  14.760  42.943   5.106
46775W        W14993  15.597   4.710   2.167
46776W        W14994  22.769  28.129  11.583
46777W        W14995  17.276   1.047  14.844
46778W        W14996  14.815   0.168   1.195
46779W        W14997   1.778   2.628   2.838
46780W        W14998  26.792  26.819   4.291
46781W        W14999  40.904  40.866   3.595
46782W        W15000  22.518  37.891   3.586
46783W        W15001  12.010  34.515   4.995
46784W        W15002   3.004  28.422  12.599
46785W        W15003  10.824  39.041   4.593
46786W        W15004  29.133  18.509   4.667
46787W        W15005  13.021  12.923   4.107
46788W        W15006  13.675  34.359   2.426
46789W        W15007  38.964  15.375  10.953
46790W        W15008  31.861  37.076   1.810
46791W        W15009  19.037  36.894   0.491
46792W        W15010  17.073  22.034   0.918
46793W        W15011   6.003   4.821  13.188
46794W        W15012   3.571  22.092   1.005
46795W        W15013  16.611  29.705  12.108
46796W        W15014  21.006  39.435  14.950
46797W        W15015  38.342   6.192  14.862
46798W        W15016  21.632  41.141   2.424
46799W        W15017  12.326  34.682  11.917
46800W        W15018  37.433  33.633   4.251
46801W        W15019   9.731   8.370   0.394
46802W        W15020  25.123  26.122  11.352
46803W        W15021  22.413   6.476  11.173
46804W        W15022   0.002  37.595   3.935
46805W        W15023  15.091   3.346   4.640
46806W        W15024   2.493  32.251   2.423
46807W        W15025  40.053  36.880  14.764
46808W        W15026  44.766  11.173  11.588
46809W        W15027   0.230  13.740  10.927
46810W        W15028  35.414  35.732   0.665
46811W        W15029   5.740   9.618  13.141
46812W        W15030  44.021  42.177   2.394
46813W        W15031   2.374  36.700   4.403
46814W        W15032   2.393  22.064  14.391
46815W        W15033  26.156  34.232   4.733
46816W        W15034  16.604  18.029  13.129
46817W        W15035  16.351  35.006  11.350
46818W        W15036  17.751  11.572   0.455
46819W        W15037  30.740   1.764   1.151
46820W        W15038  15.189   4.269  11.218
46821W        W15039  37.951   5.233  12.466
46822W        W15040  20.064  27.116   4.107
46823W        W15041  29.435  44.709   3.213
46824W        W15042  15.622  26.815   2.678
46825W        W15043   6.270  30.471   0.376
46826W        W15044  16.276  41.124   0.427
46827W        W15045  44.578  11.218  12.095
46828W        W15046  18.246  14.105  12.571
46829W        W15047  17.281   9.869   4.943
46830W        W15048   0.738  18.332  11.274
46831W        W15049   4.293  38.339   4.064
46832W        W15050  21.636  42.294   4.366
46833W        W15051  11.380  43.848   2.653
46834W        W15052   0.921  21.264   0.870
46835W        W15053   6.414  25.996   2.814
46836W        W15054  22.927  10.884  11.923
46837W        W15055   2.617  39.306  14.700
46838W        W15056  39.276  14.579  11.123
46839W        W15057  23.370  43.712  12.239
46840W        W15058   5.823  23.684  12.211
46841W        W15059  17.466  42.288   4.307
46842W        W15060  44.191  44.707   9.878
46843W        W15061  44.317   8.325  11.098
46844W        W15062  24.297  32.395  10.820
46845W        W15063  32.010  26.177  14.759
46846W        W15064  19.677   7.597  13.906
46847W        W15065  44.996  42.288   2.275
46848W        W15066  15.298  44.662  12.388
46849W        W15067  11.270  29.367   1.693
46850W        W15068  23.583  28.448  14.052
46851W        W15069  25.934  14.945   4.683
46852W        W15070  35.432  20.116   4.082
46853W        W15071  22.453   6.022   3.593
46854W        W15072  39.427   1.478   4.097
46855W        W15073  17.207   3.691  12.501
46856W        W15074  33.988  20.050   3.924
46857W        W15075   7.596   3.992  12.894
46858W        W15076  37.368  34.819  14.424
46859W        W15077   6.610  28.620  14.205
46860W        W15078  14.563  20.728   4.162
46861W        W15079  11.238  34.311   0.351
46862W        W15080  32.357  14.112   1.863
46863W        W15081  33.326  43.184   2.461
46864W        W15082  32.337  11.709   1.757
46865W        W15083   9.602   1.202  10.706
46866W        W15084   4.451  30.629   0.516
46867W        W15085  36.991  28.134   2.594
46868W        W15086  39.087  16.027  13.954
46869W        W15087  35.549   8.343  12.312
46870W        W15088   9.136  23.422   2.365
46871W        W15089  21.562  18.213   4.875
46872W        W15090  43.493  31.016   3.312
46873W        W15091  19.755   2.791  14.518
46874W        W15092  31.433  20.670   2.875
46875W        W15093  24.481  31.091   0.591
46876W        W15094  31.656  13.017  14.622
46877W        W15095  19.681  18.273  14.392
46878W        W15096   9.458  35.521  10.761
46879W        W15097  25.555  33.375   0.283
46880W        W15098  39.988  43.559  11.570
46881W        W15099   8.854   0.022   2.626
46882W        W15100  24.081  21.133   2.763
46883W        W15101  33.884  16.372   0.780
46884W        W15102  12.849  31.132   2.587
46885W        W15103  30.253  38.415  12.532
46886W        W15104  26.079  28.568   0.760
46887W        W15105  14.694  18.746   1.382
46888W        W15106  37.261  21.040   1.672
46889W        W15107   9.061  12.272   1.834
46890W        W15108  39.922  38.309   0.755
46891W        W15109  33.002   9.556  13.517
46892W        W15110  30.423   4.945  11.070
46893W        W15111  34.746   9.372  10.999
46894W        W15112  43.721  11.164  11.662
46895W        W15113  18.222   7.503  11.976
46896W        W15114  39.974   2.338  11.598
46897W        W15115   8.390  19.257  12.528
46898W        W15116  38.468  24.668   3.760
46899W        W15117   0.721  42.006  11.823
46900W        W15118  25.688  39.075   4.806
46901W        W15119  43.350  30.163  14.890
46902W        W15120  37.010  22.673  12.025
46903W        W15121   5.236   7.386  11.576
46904W        W15122  29.988   2.061  12.560
46905W        W15123  31.123  14.345  11.656
46906W        W15124  24.046   0.331   2.595
46907W        W15125  23.189   6.903  14.477
46908W        W15126  24.867  37.892   4.123
46909W        W15127  14.400  43.361  14.526
46910W        W15128  33.594  26.731   0.265
46911W        W15129   4.805  32.506  12.431
46912W        W15130   2.851  27.868  10.873
46913W        W15131  35.355  41.806  14.605
46914W        W15132  16.270  27.000  12.656
46915W        W15133  41.897  26.069  12.194
46916W        W15134   2.872  21.692   1.304
46917W        W15135  32.160  22.537   4.268
46918W        W15136   3.465  25.453  14.884
46919W        W15137  11.088  28.036  13.514
46920W        W15138  12.649  12.271  12.317
46921W        W15139  41.413  20.213  12.141
46922W        W15140  40.631   4.741   2.377
46923W        W15141  24.742  33.104   1.839
46924W        W15142  25.673  44.087  10.540
46925W        W15143  17.951  37.134   2.462
46926W        W15144  34.042  13.050  13.045
46927W        W15145  38.740  32.344   0.741
46928W        W15146   8.799  22.765  10.647
46929W        W15147  35.469  14.951  14.302
46930W        W15148  13.591  17.150   3.289
46931W        W15149   2.528  37.451   3.276
46932W        W15150  26.359  14.276  13.901
46933W        W15151  34.003  25.888  10.794
46934W        W15152   5.868  42.306   1.320
46935W        W15153  25.975  28.806  10.758
46936W        W15154  38.481  44.551   4.241
46937W        W15155  12.233  32.328  11.447
46938W        W15156  29.116  26.402   0.343
46939W        W15157  35.954  13.287  13.108
46940W        W15158  17.527  24.145   1.443
46941W        W15159  40.794  15.555   2.799
46942W        W15160  12.761  24.152  13.949
46943W        W15161  35.090  43.019   1.295
46944W        W15162   5.368  43.334  12.025
46945W        W15163  19.285  40.755  11.537
46946W        W15164  14.625  18.778  13.412
46947W        W15165  30.220  43.980  10.608
46948W        W15166  21.009   0.704  14.239
46949W        W15167  14.443  10.682   1.440
46950W        W15168  36.316  32.168  12.122
46951W        W15169  20.342  32.119   2.397
46952W        W15170  17.909  26.003   2.333
46953W        W15171  16.665  41.350   3.314
46954W        W15172  32.966  41.490  14.707
46955W        W15173  34.850  37.966   1.916
46956W        W15174  14.536  38.309   0.524
46957W        W15175  22.699  10.665   1.291
46958W        W15176  31.098  25.379  10.730
46959W        W15177  14.382  43.908  11.940
46960W        W15178   7.624   9.657   1.662
46961W        W15179  34.400   6.262  11.706
46962W        W15180  41.255  43.368   1.761
46963W        W15181  21.298  36.837  11.726
46964W        W15182   2.123   6.616  14.335
46965W        W15183  11.734  40.781  12.504
46966W        W15184  31.919  15.592  11.980
46967W        W15185   0.562   3.877   4.737
46968W        W15186  35.301  11.032   0.254
46969W        W15187   4.948  21.277   0.760
46970W        W15188  23.699  44.769   0.399
46971W        W15189  10.578  23.834  14.262
46972W        W15190  15.248  24.728   2.173
46973W        W15191  42.160  10.433   3.640
46974W        W15192  35.954   8.957  13.390
46975W        W15193  37.669  39.797   0.906
46976W        W15194  40.263   7.281   0.936
46977W        W15195  17.562   7.433   2.371
46978W        W15196   4.274  22.883  14.267
46979W        W15197   5.415   1.109  14.806
46980W        W15198  41.569  38.792  11.204
46981W        W15199  40.280  44.855   2.280
46982W        W15200  25.333  13.295  11.939
46983W        W15201   7.888   3.330   1.288
46984W        W15202  24.173  25.109   2.354
46985W        W15203  38.367  34.517  12.587
46986W        W15204  15.217   9.052  11.150
46987W        W15205  43.763  10.910   0.367
46988W        W15206  38.346  36.512   4.449
46989W        W15207  44.909  17.574  11.115
46990W        W15208  24.171  42.299   3.851
46991W        W15209  18.104  35.920   1.903
46992W        W15210  15.570   6.344   0.346
46993W        W15211  21.180  40.062   1.621
46994W        W15212  17.294  15.122   3.378
46995W        W15213  25.425   3.954   3.457
46996W        W15214  44.011  28.496  14.246
46997W        W15215  41.104  36.983   3.354
46998W        W15216  18.967  19.130   0.852
46999W        W15217   8.283  41.376  12.435
47000W        W15218   6.821  44.403  13.318
47001W        W15219  10.603  31.577   3.055
47002W        W15220  14.176  34.634  11.088
47003W        W15221  13.158  22.811   2.226
47004W        W15222   5.281  38.478   4.254
47005W        W15223   7.364  36.311  14.088
47006W        W15224   8.746   0.881  14.078
47007W        W15225  27.685  31.042   2.372
47008W        W15226  39.762  21.716   1.756
47009W        W15227  23.039  35.510   0.202
47010W        W15228   3.405  16.119  14.380
47011W        W15229  11.279  39.786  14.982
47012W        W15230  33.671   9.641  12.049
47013W        W15231  12.721  43.761  10.765
47014W        W15232  36.104  22.598  12.046
47015W        W15233  10.450  39.892   2.261
47016W        W15234   8.771  39.477  12.341
47017W        W15235  11.172   8.627   3.272
47018W        W15236  21.058  41.071  11.196
47019W        W15237  21.161  34.427   3.154
47020W        W15238  14.741   8.311  13.884
47021W        W15239  40.076  32.343  11.721
47022W        W15240  19.841  18.779  13.452
47023W        W15241   2.070   2.887   2.270
47024W        W15242  23.700  26.965   0.472
47025W        W15243  36.736  20.137  11.133
47026W        W15244   7.966   6.841   3.738
47027W        W15245  23.304  13.174  11.986
47028W        W15246  32.133  18.592  13.526
47029W        W15247  32.539   7.479  12.118
47030W        W15248  26.712  25.525  11.136
47031W        W15249  31.142   2.964  11.148
47032W        W15250  25.989  37.341  12.084
47033W        W15251  10.157   7.645  12.474
47034W        W15252   7.358  23.271  12.382
47035W        W15253   5.195   5.803  11.591
47036W        W15254  17.633  36.936  14.100
47037W        W15255  21.486  12.226  13.983
47038W        W15256  21.030  13.126   0.849
47039W        W15257  42.126  43.820  12.023
47040W        W15258  29.621   5.458   2.674
47041W        W15259  32.980  28.451  11.221
47042W        W15260  14.623  37.280  12.161
47043W        W15261  27.838   5.182   0.926
47044W        W15262  21.056  34.079  13.432
47045W        W15263  14.751  13.455   1.066
47046W        W15264  27.920  19.784  10.750
47047W        W15265  28.912  26.259  14.865
47048W        W15266  25.015  29.398   0.908
47049W        W15267  35.858  16.060   1.273
47050W        W15268  42.153  42.688   1.844
47051W        W15269  10.361  44.396  11.537
47052W        W15270  28.928   9.762   1.298
47053W        W15271  33.168   7.163  10.802
47054W        W15272   5.655  24.790  14.547
47055W        W15273   2.451   2.940  12.466
47056W        W15274  34.051   5.034  12.291
47057W        W15275  11.129   5.651   4.158
47058W        W15276  42.350  25.707  10.692
47059W        W15277   2.867  32.153  14.882
47060W        W15278  40.391   4.481   0.283
47061W        W15279  44.466  37.525   5.250
47062W        W15280  26.190  26.696   2.882
47063W        W15281  26.854  37.995  13.692
47064W        W15282  36.027  33.101  13.384
47065W        W15283  36.624  27.981  10.620
47066W        W15284  31.438  24.238  14.995
47067W        W15285  34.253  11.987  13.323
47068W        W15286  34.979   1.306   2.406
47069W        W15287  11.341  22.646  11.514
47070W        W15288  17.322   9.297   3.663
47071W        W15289  11.341  39.812   2.209
47072W        W15290  15.169  37.351  13.589
47073W        W15291   4.782   5.281  14.334
47074W        W15292  22.909  34.122  11.217
47075W        W15293   5.712  15.842  11.133
47076W        W15294  17.543  31.666  11.662
47077W        W15295  32.610  12.558   3.695
47078W        W15296  29.150  44.862   1.844
47079W        W15297  31.216  17.347   3.356
47080W        W15298  10.295  17.021   3.181
47081W        W15299  43.635  18.631  14.033
47082W        W15300  12.266  34.697  13.166
47083W        W15301  32.345  19.912  10.335
47084W        W15302  20.084  33.901  11.508
47085W        W15303  16.533   6.707  14.438
47086W        W15304  10.186  34.932  11.600
47087W        W15305  32.063  42.244  11.995
47088W        W15306  36.342  13.023  13.895
47089W        W15307  28.015  29.109   2.728
47090W        W15308  27.677  11.894   2.834
47091W        W15309  36.291  43.675  11.512
47092W        W15310  26.215  10.834   0.389
47093W        W15311  19.811  26.992  10.566
47094W        W15312  30.935  24.153  13.841
47095W        W15313  40.899  29.700  10.389
47096W        W15314  13.442  41.844   2.600
47097W        W15315  42.456   7.624  12.475
47098W        W15316  26.270  11.812   0.438
47099W        W15317  42.066  12.629  14.745
47100W        W15318  19.100  35.840  14.285
47101W        W15319  37.643  11.739  14.854
47102W        W15320   7.813  22.252   3.222
47103W        W15321  12.076  35.402   0.376
47104W        W15322   1.944  43.052  10.919
47105W        W15323  36.866  36.551  14.086
47106W        W15324  27.134  30.702  11.192
47107W        W15325  13.285  11.414  12.541
47108W        W15326  37.922  20.156  11.512
47109W        W15327  36.470   8.172   2.307
47110W        W15328  32.843  18.786   2.856
47111W        W15329   1.928  31.366  11.965
47112W        W15330  22.438  12.126  11.629
47113W        W15331  19.729  38.560  14.903
47114W        W15332  29.577  13.971  13.301
47115W        W15333  34.164  34.470  12.075
47116W        W15334   6.358  30.233  10.929
47117W        W15335  15.980  29.468   4.086
47118W        W15336  34.786   7.637   2.722
47119W        W15337  40.065  42.292  11.200
47120W        W15338  36.999  34.851   2.586
47121W        W15339  20.639   8.338  11.162
47122W        W15340  38.964  42.419   3.069
47123W        W15341  35.589  32.030  11.478
47124W        W15342  14.114   3.019  14.535
47125W        W15343  34.148  16.187  11.954
47126W        W15344   1.789  43.877  11.507
47127W        W15345  43.265  31.822   5.028
47128W        W15346  26.437  14.918  13.330
47129W        W15347  15.883  41.243   1.647
47130W        W15348   8.664  39.842  10.639
47131W        W15349  19.047  11.380   3.088
47132W        W15350  44.509   8.133  10.655
47133W        W15351  42.642   5.165   0.480
47134W        W15352  32.623  39.281   4.311
47135W        W15353  16.772  11.120   4.552
47136W        W15354  10.344  21.337  11.846
47137W        W15355   9.889  14.236  14.351
47138W        W15356   4.981  13.458   1.678
47139W        W15357  27.132  20.627  10.219
47140W        W15358  40.382  18.193  13.610
47141W        W15359  31.016  33.627   4.702
47142W        W15360  16.709   7.140   4.575
47143W        W15361  30.403  27.599   2.817
47144W        W15362  24.631   2.698   4.301
47145W        W15363   0.128  39.851  12.412
47146W        W15364  28.048  39.047   0.485
47147W        W15365  40.488  41.522  14.979
47148W        W15366  40.552   2.380  11.945
47149W        W15367  12.360  12.336  14.983
47150W        W15368  29.570   2.671   1.680
47151W        W15369  30.253  18.693  13.762
47152W        W15370  37.108   9.179   1.633
47153W        W15371   0.878  38.948   1.893
47154W        W15372   2.338   5.693   4.468
47155W        W15373  19.890  30.958  13.508
47156W        W15374  20.506  22.724   1.898
47157W        W15375  18.150   2.890   1.385
47158W        W15376  11.416  15.650  13.447
47159W        W15377  19.789  19.342   0.441
47160W        W15378  36.523  11.278  10.703
47161W        W15379  16.095   5.906  13.359
47162W        W15380  34.399  27.044  11.450
47163W        W15381   3.218  12.734   4.285
47164W        W15382  23.309   2.048   1.402
47165W        W15383  17.183  18.917   5.041
47166W        W15384  36.092  44.241   2.386
47167W        W15385   6.199  18.273   4.926
47168W        W15386  26.962  13.269  14.801
47169W        W15387  27.965  14.608  14.329
47170W        W15388  14.151  11.871  14.783
47171W        W15389   6.823  37.078  10.943
47172W        W15390  38.896  16.515   2.428
47173W        W15391   5.260  34.539   4.917
47174W        W15392  10.457  13.196  12.078
47175W        W15393  42.863  10.413  11.580
47176W        W15394  20.582  18.757   1.470
47177W        W15395  42.445  18.043   2.924
47178W        W15396  14.060  38.512   4.113
47179W        W15397   4.373  44.492   3.698
47180W        W15398  28.256  25.950   2.813
47181W        W15399  24.657  33.098   3.774
47182W        W15400  13.144  28.914   0.017
47183W        W15401  25.621   2.699   3.713
47184W        W15402  25.126   1.193  12.119
47185W        W15403  21.259   6.315   0.743
47186W        W15404   7.952  42.489   2.254
47187W        W15405  36.048  21.674   4.734
47188W        W15406  36.888  37.838   2.123
47189W        W15407   3.729  11.720  14.875
47190W        W15408  16.192  24.257   2.948
47191W        W15409  19.629  22.719  11.941
47192W        W15410  25.368  22.199   1.793
47193W        W15411  18.282  24.232  13.464
47194W        W15412   0.311   4.773  13.746
47195W        W15413  34.215  11.995   0.920
47196W        W15414  22.630  10.068  14.486
47197W        W15415  14.528  28.840   1.233
47198W        W15416  15.293  31.693   4.562
47199W        W15417  39.405  20.809  11.413
47200W        W15418  13.699  14.376  10.765
47201W        W15419   6.493  42.481   2.956
47202W        W15420  36.176  37.503   3.832
47203W        W15421  30.076   8.458   0.481
47204W        W15422  32.610  35.900   0.929
47205W        W15423  29.426  39.243   1.511
47206W        W15424  32.507  19.953  13.789
47207W        W15425  30.001  24.151   4.232
47208W        W15426  44.324  10.140  14.276
47209W        W15427   0.767  40.792   0.469
47210W        W15428  15.831  29.166  12.535
47211W        W15429  23.332  34.206   5.025
47212W        W15430  43.833  39.930  14.979
47213W        W15431  40.881   0.244   2.881
47214W        W15432  37.110  33.450   0.274
47215W        W15433  31.414  22.776  14.958
47216W        W15434  33.151  25.159  12.476
47217W        W15435  34.443  14.134  10.761
47218W        W15436  17.269  15.731   0.270
47219W        W15437  20.148  28.734  12.068
47220W        W15438  34.144  22.087   4.575
47221W        W15439  12.151   1.701  11.267
47222W        W15440   2.140   8.676   1.326
47223W        W15441   6.385  37.978   4.189
47224W        W15442  44.903  40.596  11.934
47225W        W15443  20.701  31.371   2.070
47226W        W15444   3.265   8.876   1.855
47227W        W15445   8.322  39.641   5.445
47228W        W15446  32.435   2.828  12.144
47229W        W15447  32.652  32.499   0.844
47230W        W15448  11.810  12.915  13.555
47231W        W15449  22.467   6.779  10.751
47232W        W15450  43.645  18.802  10.220
47233W        W15451  39.227  41.871  14.801
47234W        W15452  27.412  43.989  12.060
47235W        W15453   6.451  33.060  13.523
47236W        W15454  16.809  36.505   1.759
47237W        W15455   0.658  38.576   3.320
47238W        W15456  36.929  19.668  10.884
47239W        W15457  38.977  42.604  14.676
47240W        W15458   0.431  25.560  10.768
47241W        W15459  15.178  26.708  13.912
47242W        W15460  41.292   8.841  14.809
47243W        W15461  21.723  39.041   0.973
47244W        W15462  31.160  13.659  13.400
47245W        W15463  29.929  17.825   9.986
47246W        W15464  38.450  39.306   1.851
47247W        W15465  16.558  41.505   1.335
47248W        W15466   0.369  17.079  14.424
47249W        W15467  24.725  12.579  10.610
47250W        W15468  23.826  40.407   2.211
47251W        W15469  14.213  25.927   2.653
47252W        W15470  20.634   6.145   1.879
47253W        W15471  15.395  42.830  10.021
47254W        W15472  21.113  33.144   0.879
47255W        W15473   9.088  44.701  12.574
47256W        W15474  22.693  42.838  13.274
47257W        W15475  18.468  27.381   0.831
47258W        W15476  11.090  26.712  11.868
47259W        W15477  33.404  28.029   4.464
47260W        W15478  41.045   6.784   0.281
47261W        W15479  12.585   0.898   1.773
47262W        W15480  37.318  19.143   3.238
47263W        W15481  24.726  13.572   3.189
47264W        W15482   3.246   1.215   4.070
47265W        W15483  43.894  30.525  11.911
47266W        W15484  22.137  31.666  13.468
47267W        W15485  28.773  35.589  14.429
47268W        W15486  26.182  36.034  12.846
47269W        W15487  38.256  10.572   0.333
47270W        W15488   2.882   2.906  12.034
47271W        W15489  42.755  21.995  11.157
47272W        W15490  16.303  34.379  14.910
47273W        W15491  10.357  40.638   3.780
47274W        W15492  39.332  44.453   3.214
47275W        W15493  15.790  11.657  13.831
47276W        W15494  21.062  33.425   0.076
47277W        W15495  30.438  28.367   5.369
47278W        W15496  11.663  30.111  13.992
47279W        W15497  44.091   0.104   0.448
47280W        W15498  11.288  42.398   0.761
47281W        W15499   9.707  32.236   4.578
47282W        W15500  12.082  18.999  11.332
47283W        W15501  14.338  40.224  10.346
47284W        W15502  34.456   8.568   3.998
47285W        W15503  43.565   2.960  14.466
47286W        W15504  44.594  35.022   4.689
47287W        W15505  27.583  16.619   1.432
47288W        W15506  22.699  34.013  13.866
47289W        W15507  34.514  39.247   0.623
47290W        W15508  15.261  17.948  13.052
47291W        W15509   7.305  25.168  11.114
47292W        W15510  44.746  21.280  14.900
47293W        W15511  21.464  13.184  11.500
47294W        W15512  30.087  41.736   2.669
47295W        W15513   0.646  23.594   3.917
47296W        W15514   0.946  12.606  13.517
47297W        W15515  25.512   7.615   4.456
47298W        W15516  39.304  15.272   0.921
47299W        W15517  19.751  17.718   0.835
47300W        W15518   7.721  38.808   1.141
47301W        W15519   4.272  31.908  10.898
47302W        W15520  23.314  38.516   0.764
47303W        W15521   8.715   8.716   0.575
47304W        W15522  29.654  24.770  10.755
47305W        W15523  11.748  18.161  11.182
47306W        W15524  39.132   6.168   3.727
47307W        W15525  32.896   8.379   4.664
47308W        W15526  14.365  34.178  13.872
47309W        W15527  28.855  22.591   9.763
47310W        W15528  16.953   6.880  13.527
47311W        W15529  28.719  16.140   0.759
47312W        W15530  26.350  18.523  12.853
47313W        W15531  16.200  17.822   3.284
47314W        W15532  43.603  18.556   2.177
47315W        W15533  33.028  11.285  13.757
47316W        W15534   0.470   0.728  13.029
47317W        W15535  18.269  14.580   0.025
47318W        W15536  17.272  16.379  14.661
47319W        W15537  26.104   4.832   1.297
47320W        W15538  21.692  24.756   1.712
47321W        W15539  33.690  23.492  11.707
47322W        W15540  36.412  31.821   4.518
47323W        W15541  42.016   9.662   4.974
47324W        W15542  41.067  18.493   1.937
47325W        W15543   8.242  26.173   3.570
47326W        W15544  35.702  40.037  14.356
47327W        W15545  19.627  21.499  10.713
47328W        W15546  38.417  40.961   1.245
47329W        W15547  44.228  30.454  13.116
47330W        W15548  41.239  32.573  14.394
47331W        W15549  23.052  31.367   1.308
47332W        W15550  20.544  38.941   4.227
47333W        W15551   1.831  34.487   1.801
47334W        W15552   0.829  19.235  14.058
47335W        W15553   0.873  31.671   2.812
47336W        W15554  28.584  31.606  12.409
47337W        W15555  36.150  20.648  11.961
47338W        W15556  39.338  34.010   3.259
47339W        W15557  37.124  21.089   4.050
47340W        W15558  12.187   5.443   1.780
47341W        W15559  36.952  17.585   2.749
47342W        W15560  37.380  15.276   1.734
47343W        W15561  34.869  29.141   3.253
47344W        W15562  17.339  37.122  12.981
47345W        W15563   5.474   8.449  11.762
47346W        W15564   0.437   9.825  14.433
47347W        W15565   8.963   5.730  14.032
47348W        W15566  13.166  17.039   1.946
47349W        W15567  34.608  13.776  12.899
47350W        W15568  36.629  20.450  14.774
47351W        W15569   6.611  34.965   3.266
47352W        W15570  25.242  14.413  10.173
47353W        W15571  34.057   5.831   1.334
47354W        W15572  10.300   4.230   4.734
47355W        W15573  25.720  17.476  13.102
47356W        W15574   1.766  44.753   0.328
47357W        W15575  37.561   8.158  10.754
47358W        W15576   9.189  40.445  13.584
47359W        W15577   1.725   2.335   2.040
47360W        W15578   8.702  17.769   3.126
47361W        W15579   6.738   7.531  14.765
47362W        W15580  39.720   8.689   2.898
47363W        W15581  26.731  19.086  14.914
47364W        W15582  35.570  11.274  14.383
47365W        W15583   1.437  25.307  10.746
47366W        W15584  18.274  35.358  10.680
47367W        W15585  42.814  18.696   1.848
47368W        W15586  39.921  17.487  12.042
47369W        W15587  10.528  21.021   9.989
47370W        W15588  22.106  21.492  14.058
47371W        W15589  33.012  37.706  11.596
47372W        W15590  11.149  20.500  13.501
47373W        W15591  18.083   8.781  11.670
47374W        W15592  36.029  22.694   3.086
47375W        W15593  18.723  29.875  12.559
47376W        W15594  37.550  43.703   1.141
47377W        W15595  21.574   2.968   3.744
47378W        W15596  19.501   9.171   4.396
47379W        W15597  42.664  35.770  11.119
47380W        W15598  42.242  23.005   2.347
47381W        W15599   9.924  15.119  12.992
47382W        W15600  23.996   9.904  11.162
47383W        W15601  18.075  32.963   2.286
47384W        W15602   5.207   1.802   0.497
47385W        W15603  26.778  13.237  12.767
47386W        W15604  11.633   1.649  13.303
47387W        W15605  29.810  27.481   3.672
47388W        W15606  35.378  12.150   1.734
47389W        W15607  44.705  43.973  14.923
47390W        W15608   2.583  31.980   2.879
47391W        W15609  30.036  30.535   3.146
47392W        W15610   3.510  13.565  11.076
47393W        W15611  36.588   7.332  13.287
47394W        W15612  40.749   6.925   3.690
47395W        W15613  41.617   7.479   2.807
47396W        W15614  36.311  22.200  14.354
47397W        W15615  37.026  11.866   3.297
47398W        W15616  20.522   3.419   2.234
47399W        W15617   0.233  20.635   0.496
47400W        W15618  19.001   8.383   2.902
47401W        W15619  16.341  11.187  14.997
47402W        W15620  23.732  34.126   9.901
47403W        W15621  15.854  12.467  11.488
47404W        W15622   9.905   9.812  11.367
47405W        W15623   8.556  30.624   1.485
47406W        W15624  44.006  22.991   2.690
47407W        W15625   8.066   8.805   2.271
47408W        W15626  32.857   1.981  10.618
47409W        W15627   9.151  44.558  11.116
47410W        W15628  44.857  20.632   4.594
47411W        W15629  26.532   8.755  13.894
47412W        W15630  36.069   1.908   1.929
47413W        W15631  20.779  12.387  14.922
47414W        W15632  15.081  18.193  11.590
47415W        W15633  38.404  33.910   2.693
47416W        W15634  30.894   9.845  13.100
47417W        W15635  22.090  41.114  13.985
47418W        W15636   2.228  12.605  11.541
47419W        W15637  18.536  24.559   3.330
47420W        W15638  22.623  33.311   4.498
47421W        W15639   8.656  27.040   3.654
47422W        W15640  24.538  24.907  11.268
47423W        W15641  20.461  41.740  14.923
47424W        W15642  27.053  37.044   2.261
47425W        W15643  43.257  39.786   4.099
47426W        W15644  40.642  17.734  13.721
47427W        W15645  38.495  27.073   0.843
47428W        W15646  27.437   3.560   4.602
47429W        W15647  23.261   4.492   2.195
47430W        W15648  27.203   5.694   1.427
47431W        W15649  41.368   6.336  12.633
47432W        W15650  33.426  21.488  12.951
47433W        W15651   5.729  34.463  11.056
47434W        W15652  44.509  35.051   2.778
47435W        W15653  14.271   6.159   2.865
47436W        W15654  14.416  43.485  12.545
47437W        W15655  43.869  28.031   1.115
47438W        W15656  33.721  12.036  14.417
47439W        W15657   0.438  35.978   1.487
47440W        W15658  18.500   5.846  13.345
47441W        W15659  28.018  37.387  14.351
47442W        W15660  40.838  17.315   0.382
47443W        W15661   8.971   3.295   4.199
47444W        W15662  40.042  38.541   3.130
47445W        W15663  42.210  13.220   0.633
47446W        W15664  16.940  39.988  14.045
47447W        W15665  15.637  33.462   2.012
47448W        W15666   6.171  43.039   1.332
47449W        W15667  30.928  42.824  10.909
47450W        W15668  28.510  38.113  14.304
47451W        W15669  39.209  26.283  14.926
47452W        W15670  14.010  23.911  12.548
47453W        W15671  22.637  25.671  14.138
47454W        W15672   4.217  23.091  14.777
47455W        W15673  41.911  35.508   3.722
47456W        W15674  16.988  33.402   3.578
47457W        W15675  40.041  29.492  13.299
47458W        W15676   8.330  25.439  14.387
47459W        W15677  28.151  42.037   3.659
47460W        W15678  35.280   7.319  13.542
47461W        W15679  42.358  19.475  11.931
47462W        W15680  22.729  38.415  10.540
47463W        W15681  21.944  25.210   1.696
47464W        W15682  14.381  21.787   2.210
47465W        W15683  38.919   5.856  10.177
47466W        W15684  35.343  17.326  12.511
47467W        W15685  22.496   1.807   0.534
47468W        W15686  12.113  44.715  11.007
47469W        W15687  39.898  26.574   0.325
47470W        W15688  24.639  26.714   1.471
47471W        W15689  28.782  19.640   1.074
47472W        W15690  35.806  31.697  12.254
47473W        W15691  44.590  23.978  13.344
47474W        W15692  41.282   5.054   0.307
47475W        W15693  22.941  37.903  12.000
47476W        W15694   4.753  23.496  13.147
47477W        W15695  24.618  38.422  14.238
47478W        W15696   7.482   1.270  10.652
47479W        W15697   4.790  44.506   0.978
47480W        W15698   2.764  17.656   2.685
47481W        W15699  18.507  24.548  13.821
47482W        W15700  44.455  43.920   3.235
47483W        W15701   4.334  44.377   0.235
47484W        W15702  40.554  29.549   0.902
47485W        W15703  15.703  44.303   3.685
47486W        W15704  12.631  28.385   2.453
47487W        W15705  23.688  24.940  13.539
47488W        W15706   2.428   6.593   0.862
47489W        W15707  10.775  23.910   1.232
47490W        W15708  27.583   0.743   0.401
47491W        W15709   9.850  23.367   0.437
47492W        W15710   2.620  35.918   3.070
47493W        W15711  35.377  44.417  14.894
47494W        W15712  25.086  41.870   4.543
47495W        W15713   4.185   5.654  14.108
47496W        W15714   1.246  18.745   3.225
47497W        W15715  29.631   1.974   2.989
47498W        W15716  32.118  39.390  13.488
47499W        W15717  20.532  16.412   3.789
47500W        W15718   1.817  21.673   0.857
47501W        W15719  25.208  33.507   2.761
47502W        W15720  30.683  30.822  13.880
47503W        W15721  22.223   3.232  14.756
47504W        W15722  30.019   8.225   2.312
47505W        W15723   9.689  42.412  10.579
47506W        W15724   1.125  21.094   3.877
47507W        W15725  23.612  42.740  12.346
47508W        W15726  28.974  29.412   2.366
47509W        W15727  44.258  16.642  14.744
47510W        W15728  25.487  35.239  12.600
47511W        W15729  21.188   6.919   4.853
47512W        W15730  21.805  38.044  12.892
47513W        W15731  10.360  10.869  13.141
47514W        W15732  23.623  27.155  10.601
47515W        W15733   2.652  42.525   0.465
47516W        W15734  33.362  13.132   2.140
47517W        W15735  38.899  20.760   2.226
47518W        W15736   5.872   6.817   1.880
47519W        W15737  28.202  31.433   1.745
47520W        W15738  30.130  19.247   4.903
47521W        W15739  14.568  40.250   4.566
47522W        W15740   9.366  36.863   4.643
47523W        W15741  10.676   6.793   3.311
47524W        W15742  22.205  31.495   0.358
47525W        W15743  27.021  33.404   0.759
47526W        W15744  39.837   6.987  12.038
47527W        W15745  29.797  43.120   4.252
47528W        W15746   4.695  38.402   0.043
47529W        W15747  22.749   7.576  10.350
47530W        W15748  32.933  37.868   2.984
47531W        W15749  43.977  22.291   2.252
47532W        W15750   0.462  25.106   2.685
47533W        W15751  37.028   1.204  11.277
47534W        W15752  14.201  38.111   0.850
47535W        W15753  25.632  28.397   0.495
47536W        W15754   9.388  20.113   3.336
47537W        W15755  20.173  42.245  12.378
47538W        W15756  20.808  21.172   4.209
47539W        W15757  19.265  15.249  11.118
47540W        W15758  21.192  20.539   0.890
47541W        W15759  22.095   8.425   3.205
47542W        W15760  26.001   2.663   4.522
47543W        W15761  18.553   6.872   3.873
47544W        W15762   4.109  16.432  12.179
47545W        W15763  21.106  24.110   0.261
47546W        W15764  36.809  22.013  13.449
47547W        W15765   0.453   3.230  12.988
47548W        W15766   1.343  42.405  13.871
47549W        W15767  42.938  10.655   2.693
47550W        W15768  16.852  42.013   0.231
47551W        W15769  11.745  30.696   3.100
47552W        W15770  16.720  27.598   1.168
47553W        W15771   3.758  22.152   4.305
47554W        W15772  26.021  32.604  11.602
47555W        W15773   1.396  10.363   0.989
47556W        W15774  23.528   9.779  10.496
47557W        W15775  36.405  22.498  12.729
47558W        W15776  10.246  42.887   9.924
47559W        W15777   8.261  13.199  11.114
47560W        W15778   3.131   2.968  11.219
47561W        W15779  20.439   5.986   1.105
47562W        W15780  37.767  12.588   4.419
47563W        W15781  26.421  24.278   0.487
47564W        W15782   4.323   7.036  13.439
47565W        W15783   1.161  10.708   4.769
47566W        W15784  40.994  35.852   0.054
47567W        W15785  21.210  39.934   2.132
47568W        W15786  30.583  28.892  14.534
47569W        W15787  31.576   5.480  12.517
47570W        W15788  42.019  12.736   2.215
47571W        W15789  14.089  17.701   2.736
47572W        W15790  29.291   8.621   3.333
47573W        W15791  41.537  31.218  13.381
47574W        W15792  43.893  10.122   0.904
47575W        W15793  39.857   6.008  12.369
47576W        W15794  32.605  14.629  14.972
47577W        W15795  31.589  32.453   3.274
47578W        W15796  13.623  14.815   2.695
47579W        W15797   0.488  21.622   3.602
47580W        W15798  23.933  40.885   1.775
47581W        W15799  27.971  10.955   2.879
47582W        W15800  17.042  24.207  11.977
47583W        W15801  21.182  24.661   2.463
47584W        W15802  38.434  41.150   2.335
47585W        W15803  44.243  34.498   4.946
47586W        W15804  15.650  26.692   3.590
47587W        W15805  36.411  14.057   1.339
47588W        W15806  34.034  11.418  14.913
47589W        W15807   9.203   1.772   0.736
47590W        W15808  21.107  36.696   2.727
47591W        W15809  41.046  13.554  11.204
47592W        W15810  26.750  24.089  11.154
47593W        W15811  24.296   4.698   1.946
47594W        W15812  32.161  36.388  14.002
47595W        W15813  11.213  36.448   3.389
47596W        W15814  24.545  37.831   4.538
47597W        W15815  43.069  36.154   0.919
47598W        W15816  10.520  30.064   1.226
47599W        W15817  29.429   0.536  13.388
47600W        W15818  25.976  28.926   3.654
47601W        W15819  14.638  14.696   1.866
47602W        W15820  39.803  24.503   1.886
47603W        W15821  10.605  35.612   0.348
47604W        W15822  35.069  44.373  14.466
47605W        W15823  35.131   1.490   2.861
47606W        W15824   5.263  16.834  14.030
47607W        W15825   7.392  18.144  14.977
47608W        W15826  10.349  16.848   4.129
47609W        W15827   0.098  38.162  12.942
47610W        W15828  33.488   9.975  12.853
47611W        W15829   1.011   2.222   2.700
47612W        W15830  14.201  13.231   0.441
47613W        W15831  37.776  13.427  13.271
47614W        W15832  31.688  34.367  11.098
47615W        W15833  30.612  12.749   3.385
47616W        W15834  22.990   9.244   0.390
47617W        W15835  24.448  42.475  13.137
47618W        W15836  10.830  32.923   2.244
47619W        W15837   0.937   8.639   2.121
47620W        W15838  39.869  10.278   3.388
47621W        W15839   5.764   2.892   4.659
47622W        W15840  24.705  12.576   3.335
47623W        W15841  35.666  32.976  11.991
47624W        W15842  34.967   1.262  13.368
47625W        W15843  41.603  42.547  12.583
47626W        W15844   0.768  36.667  12.224
47627W        W15845  26.647  28.899   0.571
47628W        W15846  33.462   9.732  10.335
47629W        W15847  41.883   8.515   5.085
47630W        W15848  10.813  22.028  14.245
47631W        W15849  40.716   3.599   5.163
47632W        W15850  22.470  18.719   3.272
47633W        W15851  25.958  25.545  11.524
47634W        W15852   1.488   4.852   4.608
47635W        W15853  14.671  30.374   3.299
47636W        W15854  27.603  35.359  13.055
47637W        W15855  22.199  20.303   0.014
47638W        W15856  31.843   4.218  13.109
47639W        W15857   2.746  10.760  10.588
47640W        W15858  29.405  22.778   0.187
47641W        W15859  38.957  19.621  13.289
47642W        W15860   1.784  11.786  12.864
47643W        W15861   5.298  33.679   4.286
47644W        W15862  16.853  43.433  12.390
47645W        W15863  14.787  36.592  10.609
47646W        W15864  21.396   3.224   0.790
47647W        W15865  28.394  41.998  13.566
47648W        W15866  25.450  42.350  12.502
47649W        W15867  12.854  17.708  12.921
47650W        W15868   8.369   4.941   3.139
47651W        W15869   4.793  43.552  12.541
47652W        W15870  41.961  23.213   1.689
47653W        W15871  42.153  31.534  13.334
47654W        W15872  10.864  42.899   0.363
47655W        W15873  10.317  14.011   2.859
47656W        W15874  27.501  13.283  12.768
47657W        W15875  24.452  13.571   0.831
47658W        W15876  12.109  10.115   4.515
47659W        W15877  24.533  10.844   4.064
47660W        W15878  27.073   7.253   2.421
47661W        W15879   4.345  28.349   0.469
47662W        W15880  29.910   9.956  12.000
47663W        W15881  29.497  34.201   2.825
47664W        W15882  13.788  40.746   0.326
47665W        W15883  23.701   3.323   0.524
47666W        W15884  44.454  29.021   2.939
47667W        W15885  15.151  38.529   4.892
47668W        W15886  32.355  15.880   0.283
47669W        W15887  16.234  16.794  12.486
47670W        W15888   8.401   0.619  12.136
47671W        W15889   4.236  37.416   4.443
47672W        W15890   6.371  13.924   0.408
47673W        W15891   5.528   6.796   0.986
47674W        W15892  24.912  25.645  11.514
47675W        W15893  27.882  44.219  11.187
47676W        W15894  40.831  19.628  13.859
47677W        W15895  28.439  41.812   4.185
47678W        W15896  32.553  17.784   3.435
47679W        W15897   6.323  25.487  11.632
47680W        W15898  22.770  35.946  11.575
47681W        W15899  43.882  12.288   0.589
47682W        W15900   1.767   8.852  12.606
47683W        W15901  41.748  15.029  11.915
47684W        W15902  14.406  27.591   1.979
47685W        W15903  22.176  11.320   4.177
47686W        W15904   1.974  15.531   2.300
47687W        W15905  20.059  16.540  11.089
47688W        W15906  12.573  13.678  11.657
47689W        W15907  29.510  16.339  11.969
47690W        W15908  34.898  22.020  14.687
47691W        W15909  12.561   1.291   2.841
47692W        W15910  43.481  32.871  10.712
47693W        W15911  25.688  34.519  13.994
47694W        W15912  26.204  27.219   0.275
47695W        W15913  10.264  21.053  14.738
47696W        W15914  37.367   0.716  11.160
47697W        W15915  36.505   1.251  13.981
47698W        W15916  41.382  19.646  11.101
47699W        W15917  27.056  43.419  10.696
47700W        W15918   7.454   8.321   0.924
47701W        W15919  38.949   6.013   0.865
47702W        W15920  24.790   9.836   2.782
47703W        W15921  39.536   0.494  11.578
47704W        W15922   2.738  20.776   1.869
47705W        W15923  12.516  23.154   2.773
47706W        W15924  43.354  38.100  10.442
47707W        W15925  16.976  34.432  12.588
47708W        W15926   5.769  34.528  13.878
47709W        W15927  44.296  11.176   3.577
47710W        W15928   2.881  20.489   3.634
47711W        W15929  25.266  43.009   3.726
47712W        W15930  34.922  23.406   4.260
47713W        W15931  33.215  14.016   0.396
47714W        W15932  10.406  34.051  14.087
47715W        W15933  29.087  43.388   1.705
47716W        W15934  36.453  40.781  11.609
47717W        W15935  18.255  27.454   2.040
47718W        W15936  32.666   0.506  12.873
47719W        W15937   0.480  29.429  11.963
47720W        W15938   2.461  15.550  12.348
47721W        W15939  25.176  29.990   1.799
47722W        W15940  10.550   3.048   0.620
47723W        W15941   6.535   1.499   3.098
47724W        W15942  19.813  44.792   2.300
47725W        W15943  33.534  34.106  11.185
47726W        W15944  28.442   0.290  11.892
47727W        W15945  16.060  21.999  11.208
47728W        W15946  18.803  42.495   1.843
47729W        W15947  29.189  35.245   2.906
47730W        W15948  26.980  24.488   0.201
47731W        W15949  42.035   6.656  14.234
47732W        W15950  31.982  37.872  12.537
47733W        W15951  15.827   1.828   4.592
47734W        W15952  33.505  30.791   1.863
47735W        W15953  17.627   8.138  14.487
47736W        W15954   6.812  13.597   3.262
47737W        W15955  16.273  42.536   2.794
47738W        W15956  12.761  35.910   0.386
47739W        W15957  30.793  39.015   4.851
47740W        W15958  41.770  17.111  14.342
47741W        W15959  28.993  10.149  12.150
47742W        W15960   5.975   1.412   2.589
47743W        W15961  24.972  10.173  12.604
47744W        W15962  42.267  38.035  11.160
47745W        W15963   3.548  17.299   2.325
47746W        W15964  29.435  20.362   0.713
47747W        W15965  42.539   4.345  11.513
47748W        W15966  38.781  18.712   4.657
47749W        W15967  24.153  22.301  14.828
47750W        W15968  44.336   7.819   1.679
47751W        W15969   5.437  14.709   2.621
47752W        W15970  36.419  17.236  13.841
47753W        W15971  12.867  42.373  13.244
47754W        W15972  35.835  35.785   0.353
47755W        W15973  14.781  24.061   0.855
47756W        W15974  30.034  44.493  14.022
47757W        W15975  27.347  18.709  14.797
47758W        W15976  37.258  29.586  12.147
47759W        W15977  22.124  39.344  11.112
47760W        W15978  13.772  24.946  13.313
47761W        W15979  33.879  17.606  14.865
47762W        W15980   6.417  10.407   0.673
47763W        W15981  23.506   7.669  11.587
47764W        W15982   6.767  32.148   0.172
47765W        W15983  22.010  13.864   1.514
47766W        W15984  22.194   8.792   4.651
47767W        W15985  43.100  29.979  11.585
47768W        W15986   0.437  37.585   0.415
47769W        W15987  20.754  26.747   1.661
47770W        W15988  20.021  34.116   3.183
47771W        W15989  18.283  23.437  13.964
47772W        W15990  26.504   9.632   5.031
47773W        W15991  35.377   2.904   1.457
47774W        W15992  27.664  28.440   2.911
47775W        W15993  10.971  34.929  12.093
47776W        W15994   0.702   4.673   4.207
47777W        W15995   9.151  15.400  13.972
47778W        W15996  23.095  30.119  12.552
47779W        W15997  29.814  31.527   0.930
47780W        W15998   1.567  12.137   4.535
47781W        W15999  10.222  19.651  10.368
47782W        W16000  16.730   3.985  12.541
47783W        W16001  33.186  20.550   3.923
47784W        W16002  42.326  20.814   3.597
47785W        W16003   0.758  33.061   0.133
47786W        W16004  19.736   2.160  11.434
47787W        W16005  16.173   0.998   4.039
47788W        W16006  19.332  30.930   3.296
47789W        W16007  21.580   8.258  11.655
47790W        W16008  14.502  14.190  13.497
47791W        W16009  41.633  39.166   3.658
47792W        W16010  43.100  18.809  12.214
47793W        W16011   6.851  14.023   1.179
47794W        W16012   8.877  35.803   4.277
47795W        W16013   0.089  31.265   2.089
47796W        W16014  44.147  23.182   4.540
47797W        W16015   9.536   9.794  10.551
47798W        W16016  44.133   2.621   4.251
47799W        W16017   5.908  39.378  13.603
47800W        W16018   7.302  31.438  12.120
47801W        W16019   8.262  40.237   4.611
47802W        W16020   6.858  23.786   1.784
47803W        W16021   1.369  42.399  14.871
47804W        W16022  25.126   7.740  14.970
47805W        W16023  42.489   9.119   2.802
47806W        W16024  23.642  23.970   3.260
47807W        W16025  23.538   0.750  12.860
47808W        W16026  39.506   1.796  11.193
47809W        W16027  19.973  24.177   4.567
47810W        W16028  22.017  12.184   0.824
47811W        W16029  24.080  19.929   0.362
47812W        W16030  28.593  29.967   4.073
47813W        W16031   9.385  25.893  14.867
47814W        W16032  15.229  39.347  12.504
47815W        W16033  11.137  42.834   4.031
47816W        W16034  11.422  18.251  10.794
47817W        W16035  25.136  36.130   2.836
47818W        W16036  17.772  19.637  13.347
47819W        W16037  19.860  19.288  12.191
47820W        W16038  35.554  39.304   2.364
47821W        W16039  16.102  10.228   4.909
47822W        W16040  36.519  22.501   3.253
47823W        W16041   3.298   8.261   0.274
47824W        W16042  26.935  32.790   2.571
47825W        W16043  23.287  12.744  13.103
47826W        W16044   2.838  40.744  13.633
47827W        W16045  16.294  24.359   3.807
47828W        W16046  21.667  39.443   3.777
47829W        W16047  41.871  37.890   2.102
47830W        W16048  29.420   7.750  13.958
47831W        W16049  21.553  29.418  13.761
47832W        W16050  40.549   2.939  10.486
47833W        W16051  41.228  31.647  10.875
47834W        W16052  44.334  38.280  13.683
47835W        W16053   3.923  20.681  14.728
47836W        W16054  17.810   2.818  13.498
47837W        W16055  34.572  37.816  11.188
47838W        W16056  32.853  33.028  14.873
47839W        W16057  33.433  38.389   0.410
47840W        W16058  39.028  36.481   3.221
47841W        W16059  40.800  14.120  13.788
47842W        W16060  11.796  26.211   2.424
47843W        W16061   5.472  24.924  11.593
47844W        W16062  42.248  25.818   2.578
47845W        W16063   2.851   7.372   3.022
47846W        W16064  16.247   6.769  12.951
47847W        W16065  23.589  41.071  12.798
47848W        W16066  38.325  25.654   4.207
47849W        W16067  34.707   9.606  12.433
47850W        W16068   4.909  35.077   4.625
47851W        W16069  10.659  34.024   3.694
47852W        W16070   6.076  36.888   2.798
47853W        W16071  38.561  44.915   2.106
47854W        W16072  44.861  10.614  14.450
47855W        W16073  16.643  33.352  11.330
47856W        W16074  12.272  27.727   0.804
47857W        W16075  27.405  10.105   4.457
47858W        W16076  15.508  26.610  13.502
47859W        W16077  23.742  30.090   0.867
47860W        W16078  11.059  31.525   1.172
47861W        W16079   4.741  13.219   2.354
47862W        W16080  24.846  41.451  14.297
47863W        W16081  28.203   7.931   1.008
47864W        W16082  18.236  43.953   4.432
47865W        W16083  30.074  34.645  12.847
47866W        W16084  14.236  30.026  14.458
47867W        W16085  23.293  38.857  12.050
47868W        W16086  38.881  29.384   1.328
47869W        W16087  26.790  20.774  12.465
47870W        W16088  22.604  30.785  11.503
47871W        W16089   9.428  28.975   4.378
47872W        W16090  38.141  37.457   0.974
47873W        W16091   2.375   6.382  10.799
47874W        W16092  16.746  10.329   1.361
47875W        W16093  43.961  38.015   3.418
47876W        W16094  40.621  10.156   4.213
47877W        W16095  15.566  19.393  10.893
47878W        W16096  14.537   7.346   4.730
47879W        W16097  32.325  33.539  12.030
47880W        W16098  10.319  12.810  12.409
47881W        W16099  22.504  10.511  11.057
47882W        W16100  29.325  38.113   0.850
47883W        W16101  22.830   9.288  12.522
47884W        W16102  16.818  38.894   3.894
47885W        W16103  33.347  12.938   2.704
47886W        W16104  10.169  24.705   2.427
47887W        W16105  39.549  20.593  13.048
47888W        W16106  18.117   8.925  13.000
47889W        W16107  12.104  26.766  14.352
47890W        W16108  41.384  13.533   0.441
47891W        W16109   1.825  12.610   0.489
47892W        W16110  23.584  22.528   0.516
47893W        W16111  42.227  36.141  11.978
47894W        W16112  36.813  13.220  13.535
47895W        W16113  34.405   1.957   0.385
47896W        W16114  24.025  37.295  10.973
47897W        W16115  10.324   8.873  14.815
47898W        W16116  17.828  34.555   2.933
47899W        W16117  44.867  15.836  10.742
47900W        W16118  31.107  21.438  12.532
47901W        W16119  44.189  36.773  13.888
47902W        W16120  24.555   8.603  14.915
47903W        W16121   5.411  18.238  12.909
47904W        W16122  25.858  14.542   2.442
47905W        W16123   8.188  34.937   2.930
47906W        W16124  36.790  24.257  12.872
47907W        W16125  34.416   5.723  12.850
47908W        W16126   8.709  13.601  12.065
47909W        W16127  30.019  26.143  11.169
47910W        W16128  41.507   2.496   0.260
47911W        W16129  11.392  37.325  11.047
47912W        W16130   2.021  19.682  12.542
47913W        W16131  20.613  33.560   3.525
47914W        W16132  31.502  13.346   0.613
47915W        W16133  44.964  14.349   4.786
47916W        W16134  20.620  28.539   2.963
47917W        W16135  39.113  12.937   4.319
47918W        W16136   8.801  12.408  10.932
47919W        W16137  32.671  26.035  14.221
47920W        W16138  20.179  19.688   3.086
47921W        W16139   3.893   4.331  10.879
47922W        W16140   1.011  44.434  10.163
47923W        W16141  24.658  16.576  12.708
47924W        W16142   5.267  44.064  13.798
47925W        W16143  37.138  17.796  11.966
47926W        W16144  33.039  22.305   0.960
47927W        W16145  16.378  15.223   1.858
47928W        W16146  13.192  33.723  12.401
47929W        W16147  41.025  15.871   3.126
47930W        W16148  39.879   7.904  12.610
47931W        W16149  26.154  10.407  14.410
47932W        W16150  11.843  23.551   2.760
47933W        W16151  25.905  40.475   1.382
47934W        W16152   0.385   8.888   0.999
47935W        W16153  29.449  14.147  12.358
47936W        W16154  22.470  38.309   1.130
47937W        W16155  23.054  19.107  12.926
47938W        W16156  40.356  26.975  14.001
47939W        W16157   5.950  44.479   4.044
47940W        W16158  12.258   2.762  13.811
47941W        W16159  31.969  30.987   2.553
47942W        W16160  35.833  30.790   2.406
47943W        W16161  29.659  22.552   1.652
47944W        W16162   9.437  13.031  14.278
47945W        W16163  44.277  35.338  12.484
47946W        W16164  25.710  37.458   4.069
47947W        W16165  12.687   1.873  10.431
47948W        W16166  28.750  27.019  14.107
47949W        W16167  13.507  16.316  12.330
47950W        W16168  11.421  23.686  12.136
47951W        W16169  35.790  44.831  14.235
47952W        W16170  41.890  15.228  10.581
47953W        W16171  25.467  39.862  10.591
47954W        W16172  33.059  36.689  11.630
47955W        W16173  42.048  19.197  13.381
47956W        W16174  10.856  31.922   0.451
47957W        W16175  19.102  39.492   1.518
47958W        W16176  40.391   9.839   2.834
47959W        W16177  33.074  41.844   1.183
47960W        W16178  34.270  10.955  11.308
47961W        W16179  41.769  24.205  13.439
47962W        W16180  37.038  26.534  12.786
47963W        W16181   3.980  12.768  12.005
47964W        W16182   6.296  24.592  12.010
47965W        W16183  17.335  35.326  12.054
47966W        W16184  33.758  10.177  11.033
47967W        W16185  21.308  34.519   4.467
47968W        W16186  42.536   4.330  10.615
47969W        W16187   0.442  13.703  13.828
47970W        W16188  12.582  25.152   3.306
47971W        W16189  23.741  24.035   4.094
47972W        W16190  25.044  33.161  13.066
47973W        W16191  22.937  43.213  12.027
47974W        W16192  20.783  29.005   2.680
47975W        W16193  35.021  22.488   3.822
47976W        W16194  30.542  21.148   3.615
47977W        W16195  34.889  20.040   4.131
47978W        W16196  37.952  14.859   0.103
47979W        W16197  28.147  18.363   4.094
47980W        W16198  11.919  15.665  13.608
47981W        W16199  27.442  29.127  14.542
47982W        W16200   2.520   6.810  14.875
47983W        W16201   9.711  41.219   3.664
47984W        W16202  43.529  27.577   0.669
47985W        W16203  11.250  35.557  12.036
47986W        W16204  28.742  16.261  11.014
47987W        W16205  15.655   4.485  11.139
47988W        W16206   0.351  25.857   4.308
47989W        W16207  18.573  26.451   2.349
47990W        W16208  41.954  42.666  11.179
47991W        W16209  34.605   8.122  10.763
47992W        W16210   5.723  41.253   2.362
47993W        W16211  14.094   3.683   0.453
47994W        W16212  31.658   5.203   0.328
47995W        W16213  31.478  35.927   3.688
47996W        W16214  13.728  18.089   2.824
47997W        W16215   9.094   1.274   0.918
47998W        W16216  28.540  43.542   0.789
47999W        W16217  20.711  10.302   4.214
48000W        W16218   7.766  33.772   0.587
48001W        W16219  25.778  13.722  11.137
48002W        W16220  41.022  38.850   3.223
48003W        W16221  29.482  35.574   4.399
48004W        W16222   3.989   9.326  13.236
48005W        W16223  41.241  15.756  14.776
48006W        W16224  41.404  17.683  12.690
48007W        W16225  29.858  12.641  12.380
48008W        W16226   7.798  33.402   3.006
48009W        W16227  38.900   1.392   4.086
48010W        W16228   2.515   1.953   4.129
48011W        W16229  23.743  25.225  10.697
48012W        W16230  17.098  28.576   2.553
48013W        W16231  38.623   7.708   4.243
48014W        W16232  43.468   3.887   3.234
48015W        W16233   5.814  16.212   1.858
48016W        W16234  26.337  17.159   0.466
48017W        W16235   4.430  40.953   0.206
48018W        W16236  26.658  36.550  11.960
48019W        W16237  18.178   0.953  10.684
48020W        W16238  12.274  27.245   1.777
48021W        W16239  37.507  28.606   4.916
48022W        W16240  13.830  26.662   0.757
48023W        W16241  19.962  44.755  12.514
48024W        W16242  21.132  21.047  13.891
48025W        W16243   6.284   1.665   3.557
48026W        W16244  38.854  19.129  12.004
48027W        W16245  44.845  30.573  14.216
48028W        W16246   7.012   9.454   3.833
48029W        W16247  24.010   3.792   0.096
48030W        W16248  11.483  38.577  13.915
48031W        W16249  42.212  35.956   0.243
48032W        W16250  14.296  19.324   2.301
48033W        W16251  31.583  25.508   2.495
48034W        W16252  32.655  26.661   0.385
48035W        W16253  43.541  11.866  12.385
48036W        W16254  27.083  30.088  12.488
48037W        W16255  25.776  16.033  10.313
48038W        W16256  21.780  20.570   2.794
48039W        W16257  39.462   0.317  12.046
48040W        W16258  30.042  41.220  10.680
48041W        W16259  27.767  18.202  12.098
48042W        W16260  36.548   6.961  12.937
48043W        W16261  32.537   8.719  11.649
48044W        W16262  41.917  13.462  11.173
48045W        W16263  40.830  15.105  12.974
48046W        W16264  17.035  34.183   0.286
48047W        W16265  30.448  10.660   4.461
48048W        W16266  38.158  43.857  12.921
48049W        W16267  35.943   9.873   4.777
48050W        W16268  15.294   3.125   0.190
48051W        W16269  39.325  16.280   0.901
48052W        W16270  11.797   8.856   1.456
48053W        W16271  35.816   6.662   3.548
48054W        W16272  15.755   1.300   3.583
48055W        W16273  20.117  21.319   1.435
48056W        W16274  24.214  20.243  10.685
48057W        W16275  44.338  42.282  11.641
48058W        W16276  20.905   9.798  12.488
48059W        W16277  17.812   9.965   2.815
48060W        W16278  36.399  24.475  13.952
48061W        W16279  31.388   6.241  11.920
48062W        W16280   6.892   9.794  12.355
48063W        W16281  28.588  39.026   3.210
48064W        W16282  28.078  38.428   2.904
48065W        W16283   3.886   7.216   0.577
48066W        W16284  20.160  33.008  10.512
48067W        W16285  44.463   6.828   3.285
48068W        W16286   7.890  41.421  11.635
48069W        W16287  33.623   8.508   0.997
48070W        W16288  14.707   1.087   5.450
48071W        W16289  25.136  20.697   4.750
48072W        W16290  14.509  40.892  13.092
48073W        W16291  13.932  16.278  13.809
48074W        W16292  37.585  11.286  11.094
48075W        W16293  41.939  37.130   2.828
48076W        W16294  32.601  13.948   2.320
48077W        W16295   0.768  20.452  13.394
48078W        W16296  13.852   1.985  10.647
48079W        W16297  27.976  11.867  12.794
48080W        W16298  28.975  28.541  13.872
48081W        W16299  37.904  35.367   2.919
48082W        W16300  42.107  28.070   4.980
48083W        W16301  25.733   3.351   0.350
48084W        W16302  44.961  13.515   1.950
48085W        W16303  14.851  43.391   4.225
48086W        W16304   2.493  37.713  11.496
48087W        W16305   2.275  37.113   0.269
48088W        W16306  32.573  34.955  10.709
48089W        W16307   1.640  16.325   3.992
48090W        W16308   1.491  43.276   2.741
48091W        W16309   6.191   9.048  14.778
48092W        W16310  21.301  39.460  13.579
48093W        W16311  26.097   8.174   2.960
48094W        W16312  39.130  42.347  11.044
48095W        W16313  36.506   5.952  12.883
48096W        W16314  40.821  10.220  14.907
48097W        W16315  43.264  34.003  13.492
48098W        W16316  24.095  12.147  11.244
48099W        W16317  35.466   6.165  10.528
48100W        W16318   3.227   3.734   2.829
48101W        W16319  35.321  25.947  14.258
48102W        W16320  38.815  14.264  14.102
48103W        W16321   9.505   6.546   0.483
48104W        W16322   9.594  39.633   2.258
48105W        W16323  29.572  18.212  13.369
48106W        W16324  42.909  37.830   1.461
48107W        W16325  33.325  22.979   3.187
48108W        W16326  34.490  17.412  13.006
48109W        W16327  28.795   8.786  14.361
48110W        W16328  41.733   4.251   4.600
48111W        W16329  13.064   2.956  12.090
48112W        W16330  19.586  13.158  10.714
48113W        W16331  15.123  43.207   1.244
48114W        W16332  24.184   9.152  14.168
48115W        W16333   7.213  43.314  13.886
48116W        W16334   8.552  27.646   4.175
48117W        W16335  34.446   4.712  13.031
48118W        W16336  27.429  30.572   2.374
48119W        W16337  37.963  33.152   2.396
48120W        W16338  16.663  38.865   3.406
48121W        W16339  10.413  42.032  12.118
48122W        W16340  11.799  15.013  11.462
48123W        W16341  27.896  12.749   4.124
48124W        W16342  17.709  44.203  11.595
48125W        W16343  28.074   3.039   4.983
48126W        W16344   0.894   9.987   3.899
48127W        W16345   3.226   4.567  13.021
48128W        W16346  22.985  18.786  13.813
48129W        W16347  35.859   7.709  14.729
48130W        W16348  33.846  27.886   3.665
48131W        W16349   1.633  26.314   2.216
48132W        W16350  36.357  35.379  11.567
48133W        W16351  21.390  42.229   1.724
48134W        W16352  23.138   1.997  13.298
48135W        W16353  22.561  24.604   0.556
48136W        W16354  32.310  33.622  12.650
48137W        W16355  38.955  44.457   1.907
48138W        W16356  33.053  41.400   4.329
48139W        W16357  40.921  26.545  11.209
48140W        W16358   2.491  43.974   4.511
48141W        W16359  19.806  25.732  14.906
48142W        W16360  40.327  26.589  14.437
48143W        W16361  13.756  34.885  12.910
48144W        W16362  32.524  40.790   1.651
48145W        W16363   4.244  33.389  12.029
48146W        W16364  39.770   7.383   0.795
48147W        W16365  22.481  40.839  14.260
48148W        W16366   3.653  36.175  13.867
48149W        W16367   1.192   5.381  12.335
48150W        W16368  11.577  18.345  14.457
48151W        W16369   3.134  23.730  14.355
48152W        W16370  25.470   4.495  11.750
48153W        W16371  42.766  44.138   1.090
48154W        W16372  24.565  38.255   1.153
48155W        W16373  11.514  14.866  10.999
48156W        W16374  37.539   3.952  14.395
48157W        W16375   7.368  22.115   3.552
48158W        W16376  37.100  13.355  12.537
48159W        W16377  27.768   0.864  12.966
48160W        W16378  21.730  13.442  14.341
48161W        W16379  44.988  12.040   0.882
48162W        W16380   8.838  38.253  10.762
48163W        W16381   5.565   3.539   2.289
48164W        W16382  23.172   6.124  10.784
48165W        W16383  39.172   9.713  12.974
48166W        W16384  14.913  29.544   2.640
48167W        W16385  33.831   9.691  14.206
48168W        W16386   5.539  41.968  12.772
48169W        W16387  33.995   6.926  14.787
48170W        W16388  36.760  43.679   3.361
48171W        W16389  32.704   3.295   0.324
48172W        W16390  40.136  39.138   3.711
48173W        W16391  40.581  15.132  13.596
48174W        W16392   0.318  28.823   1.781
48175W        W16393  39.631  29.131  11.614
48176W        W16394  42.467  36.014  10.709
48177W        W16395  43.240  14.049  11.653
48178W        W16396  17.647   4.600   1.795
48179W        W16397   9.654  22.273   4.812
48180W        W16398  28.163  20.707   2.273
48181W        W16399  16.377  33.609   4.383
48182W        W16400  16.518  38.960   1.764
48183W        W16401   9.263  20.055  10.568
48184W        W16402   7.780  36.169   2.579
48185W        W16403  36.754  26.419  10.118
48186W        W16404  43.712  19.649   4.908
48187W        W16405   4.705  35.574   0.192
48188W        W16406  22.432   6.752  12.609
48189W        W16407  18.545   9.905   1.748
48190W        W16408  41.987  37.553   5.041
48191W        W16409   1.243   3.400   0.901
48192W        W16410  22.496  44.422  11.225
48193W        W16411  20.356  14.552   1.813
48194W        W16412   5.788  44.026  10.562
48195W        W16413   1.887  40.540  12.101
48196W        W16414  37.738  38.233   3.599
48197W        W16415  35.734   7.189  11.296
48198W        W16416  36.364  30.709  11.178
48199W        W16417  26.465  20.855   4.014
48200W        W16418  21.558  30.189  10.707
48201W        W16419  32.396  36.855  12.793
48202W        W16420   3.236  11.590   0.614
48203W        W16421  40.033  44.152   2.582
48204W        W16422   2.933   6.903   3.206
48205W        W16423   9.197   0.979  14.319
48206W        W16424  43.379  41.185  14.055
48207W        W16425   9.755  15.562  11.693
48208W        W16426  28.174   4.102   0.781
48209W        W16427  20.571   2.194  12.500
48210W        W16428  35.957  43.736   2.359
48211W        W16429  20.274   0.876   3.654
48212W        W16430  11.009  29.071   3.062
48213W        W16431  41.082  42.570  12.551
48214W        W16432   1.961   8.645  10.632
48215W        W16433   2.981  36.089   1.298
48216W        W16434  13.311  32.324  13.430
48217W        W16435  24.440  42.902   3.362
48218W        W16436  17.644  25.190   4.618
48219W        W16437  36.500  29.004   1.254
48220W        W16438  24.517  13.381  14.950
48221W        W16439  21.673   9.139  12.013
48222W        W16440  24.686  34.859  11.482
48223W        W16441  13.149  32.703   1.866
48224W        W16442  37.511  21.178  13.497
48225W        W16443   9.629  32.188   1.861
48226W        W16444   4.315  27.955  13.897
48227W        W16445  30.221  14.225   3.771
48228W        W16446  28.860  15.981   4.311
48229W        W16447  14.012  44.102   3.242
48230W        W16448  27.572  15.217  11.159
48231W        W16449   0.743  35.724  10.818
48232W        W16450  22.105  29.440  14.886
48233W        W16451   8.627  13.259  13.461
48234W        W16452  15.236  41.658  13.916
48235W        W16453  16.568  23.854   3.233
48236W        W16454   7.407  19.510   1.473
48237W        W16455  36.518  10.840   3.157
48238W        W16456  15.773   2.949  11.230
48239W        W16457  40.932  33.959  14.932
48240W        W16458  34.663  18.062  10.689
48241W        W16459  29.353   0.690   0.142
48242W        W16460   8.306  27.732   3.703
48243W        W16461  30.850  10.877  10.640
48244W        W16462  20.663  31.540  13.826
48245W        W16463  31.794  19.096  14.363
48246W        W16464  36.478  12.359   1.031
48247W        W16465   3.752  33.098   0.351
48248W        W16466   1.281  28.105   0.977
48249W        W16467  43.524  24.548   3.860
48250W        W16468  29.469  44.486   5.121
48251W        W16469  23.466   8.794  10.583
48252W        W16470  16.716  33.563  14.128
48253W        W16471  35.834   3.380   4.063
48254W        W16472  23.084   0.348   3.658
48255W        W16473  27.543  17.054  11.994
48256W        W16474  35.503   8.684  10.542
48257W        W16475   6.536  35.420   1.783
48258W        W16476  26.512  33.113   5.039
48259W        W16477   5.954  10.729   4.581
48260W        W16478  40.383  31.088  13.759
48261W        W16479  38.446  12.278  14.975
48262W        W16480   8.182  36.028  10.746
48263W        W16481  14.592  34.593  10.780
48264W        W16482   2.541  29.109  14.355
48265W        W16483  30.407  14.893  11.542
48266W        W16484   8.353   5.923   2.799
48267W        W16485  17.056  28.251  10.219
48268W        W16486  10.400  24.458  13.948
48269W        W16487  19.188  28.486  14.457
48270W        W16488  10.406  12.144   4.598
48271W        W16489  34.059   1.536   0.923
48272W        W16490  38.486   2.445   1.428
48273W        W16491  40.047  31.753   5.033
48274W        W16492   4.409  38.559  12.962
48275W        W16493  11.129  30.727   0.628
48276W        W16494  37.396  35.806  13.778
48277W        W16495  22.830  35.047  14.011
48278W        W16496  29.795  33.955   3.172
48279W        W16497   4.961  23.148   1.003
48280W        W16498  41.392  21.104  14.161
48281W        W16499  17.149  23.863   4.503
48282W        W16500   2.992  40.306   2.182
48283W        W16501  23.181  31.885   1.274
48284W        W16502  15.475  17.072  11.080
48285W        W16503  15.561  14.133   0.297
48286W        W16504  14.210  41.278  11.146
48287W        W16505  12.620  43.497  10.315
48288W        W16506  15.805  22.229   0.353
48289W        W16507   7.410  38.140  11.532
48290W        W16508  44.980  36.461  13.004
48291W        W16509   2.171  26.531  11.940
48292W        W16510  20.619  24.889  12.798
48293W        W16511  24.698  21.631  13.059
48294W        W16512  23.722  23.749  11.571
48295W        W16513  16.591  16.800   0.341
48296W        W16514  43.325  33.293  13.975
48297W        W16515  10.385  44.877  10.628
48298W        W16516  15.498  15.587   3.684
48299W        W16517  24.195  24.208  13.464
48300W        W16518   6.050   1.278   4.863
48301W        W16519  39.543   8.405   0.476
48302W        W16520  33.250  29.489   4.191
48303W        W16521   3.394  24.678   4.440
48304W        W16522  20.143  44.988  10.762
48305W        W16523  20.991   8.274   4.599
48306W        W16524  36.419  26.169   0.402
48307W        W16525   6.229   4.415  14.359
48308W        W16526   4.408   7.561  11.154
48309W        W16527  20.074  26.120   1.745
48310W        W16528  43.746  16.090  11.979
48311W        W16529  44.879   5.358  11.904
48312W        W16530   8.227  43.973  10.557
48313W        W16531  16.712  12.350   4.285
48314W        W16532  36.587  25.166  13.892
48315W        W16533  40.991  10.437  11.409
48316W        W16534  12.833  28.620   3.339
48317W        W16535  29.000  30.126   1.889
48318W        W16536  24.586  33.659  12.531
48319W        W16537   5.786   4.363   0.958
48320W        W16538   1.990  27.722   3.769
48321W        W16539   0.060  43.742  11.005
48322W        W16540  15.917   4.282   4.356
48323W        W16541  24.192  13.611   0.337
48324W        W16542  40.578  20.816  12.993
48325W        W16543  28.258  30.110   3.248
48326W        W16544  10.284  23.056   0.257
48327W        W16545  24.847  12.202   1.232
48328W        W16546  10.807  25.196   1.337
48329W        W16547  10.197   7.743  10.656
48330W        W16548  24.238  26.952  12.790
48331W        W16549   1.995  40.027   2.705
48332W        W16550  42.413  15.673  14.335
48333W        W16551   5.553   0.788   3.575
48334W        W16552   8.380  17.645   5.360
48335W        W16553  22.092  19.172   4.274
48336W        W16554  18.307  43.218  14.438
48337W        W16555   9.065  11.848  14.101
48338W        W16556   0.466   2.968   4.699
48339W        W16557  13.408  43.501   0.312
48340W        W16558  31.072  10.765   1.435
48341W        W16559  30.938  34.130  13.042
48342W        W16560   8.257  27.966   2.893
48343W        W16561  42.320  30.831  12.931
48344W        W16562  40.300   6.994  13.760
48345W        W16563  22.273  15.781  11.509
48346W        W16564   5.293  16.911   1.748
48347W        W16565  15.051  26.148   2.559
48348W        W16566  20.360  23.780  11.993
48349W        W16567  41.918  31.523   0.809
48350W        W16568  15.365  18.725   5.012
48351W        W16569  40.358  42.105  12.707
48352W        W16570  35.602  31.730   3.293
48353W        W16571   6.448  42.640  11.657
48354W        W16572   2.628  20.088  10.970
48355W        W16573  26.490  30.252  14.091
48356W        W16574  27.435  30.747   1.883
48357W        W16575   3.529  17.248  12.719
48358W        W16576  16.204  39.260   0.969
48359W        W16577   5.319  24.532  14.224
48360W        W16578  43.897  44.549  13.059
48361W        W16579   0.296  37.123   1.868
48362W        W16580  34.080   3.208   4.206
48363W        W16581  29.382  17.083  14.613
48364W        W16582   1.292  12.271  11.882
48365W        W16583  32.559  22.279  10.076
48366W        W16584  37.352  44.161   5.144
48367W        W16585   6.799   4.640  14.516
48368W        W16586   3.182  18.912  12.740
48369W        W16587   1.407  41.806  13.053
48370W        W16588  10.400  15.120  14.225
48371W        W16589  38.284   9.776   0.367
48372W        W16590   6.776   9.803  14.738
48373W        W16591  24.224   4.349   3.188
48374W        W16592   6.942  36.199   0.093
48375W        W16593  32.977   2.314  14.971
48376W        W16594   7.410  17.607  14.890
48377W        W16595  18.065  23.304   2.830
48378W        W16596  13.132  28.467   3.708
48379W        W16597  15.976  26.650  14.491
48380W        W16598  40.008   5.832   0.051
48381W        W16599  12.593  36.556   2.372
48382W        W16600  32.040  18.184   3.846
48383W        W16601  39.671  36.952  12.918
48384W        W16602  38.180   5.655   4.927
48385W        W16603  22.668  22.497   4.182
48386W        W16604  34.232  39.258   1.776
48387W        W16605  21.163  29.260   1.911
48388W        W16606  15.510  12.822   1.693
48389W        W16607   9.627  14.544  12.867
48390W        W16608  18.508  19.123  14.554
48391W        W16609  12.822   6.789  13.519
48392W        W16610  25.979  17.382   5.117
48393W        W16611   7.101  43.273  12.463
48394W        W16612  22.713  22.744   0.902
48395W        W16613   2.609   6.733  10.458
48396W        W16614  16.668  39.246   2.193
48397W        W16615  38.838  17.782   4.765
48398W        W16616  36.315  19.319   3.368
48399W        W16617  32.612   0.949  13.132
48400W        W16618  11.465   8.729  12.073
48401W        W16619  20.789  40.847   2.315
48402W        W16620  23.610  31.448   4.204
48403W        W16621  14.020  11.449   1.874
48404W        W16622   4.799  36.897   0.928
48405W        W16623   8.245  24.716  11.111
48406W        W16624  43.352  23.199  12.100
48407W        W16625  38.355  28.937   1.898
48408W        W16626  17.678  41.328   4.205
48409W        W16627  22.719  36.922   0.276
48410W        W16628  34.121  15.325   3.800
48411W        W16629  42.722   9.285  13.339
48412W        W16630   5.435  29.101   0.054
48413W        W16631  11.256  31.538   4.331
48414W        W16632  15.055  41.981   2.943
48415W        W16633  26.833  33.284   2.638
48416W        W16634   3.446   7.660  11.479
48417W        W16635   4.996  27.559  14.406
48418W        W16636  21.266   9.550   4.380
48419W        W16637  21.308  41.441  10.360
48420W        W16638  19.491  36.371  14.698
48421W        W16639  37.882  33.167   1.853
48422W        W16640  31.914  40.057   4.076
48423W        W16641  27.996  15.080   0.671
48424W        W16642   0.285  38.348   4.258
48425W        W16643  36.465  13.561  13.068
48426W        W16644  33.431  23.327  13.613
48427W        W16645  14.160  28.573  13.039
48428W        W16646  43.432  29.476  10.742
48429W        W16647  17.571  35.938   1.841
48430W        W16648   7.372  31.583   4.094
48431W        W16649  35.527  16.298  11.917
48432W        W16650  11.757   3.903   1.721
48433W        W16651  38.239  15.625  13.820
48434W        W16652  33.637  17.212   3.224
48435W        W16653  42.054  20.978  11.271
48436W        W16654  14.150  35.555   1.043
48437W        W16655  37.124  25.606   5.001
48438W        W16656  20.621  26.471  14.057
48439W        W16657  38.896   3.227  13.738
48440W        W16658  43.481  28.946   4.779
48441W        W16659  39.879  11.161  14.529
48442W        W16660  28.378  30.901   2.860
48443W        W16661  16.457  37.667  14.545
48444W        W16662  26.352  12.740  14.431
48445W        W16663  40.433   6.701  14.746
48446W        W16664   8.311  14.928   5.408
48447W        W16665  32.741  31.288  12.432
48448W        W16666  29.247   2.989   2.407
48449W        W16667  28.611  12.097   1.313
48450W        W16668   1.773  22.655  10.983
48451W        W16669  38.347   6.700   1.985
48452W        W16670   9.376  39.868  10.036
48453W        W16671  37.655  21.054   3.585
48454W        W16672  22.256  37.216  11.943
48455W        W16673  22.257  15.238  14.950
48456W        W16674  41.866  44.804   3.295
48457W        W16675  10.725  34.638   4.507
48458W        W16676  32.588  32.403   1.368
48459W        W16677  35.586  14.317  13.503
48460W        W16678   1.294   8.397  13.274
48461W        W16679  20.306  37.113   3.117
48462W        W16680  38.330   4.556   1.412
48463W        W16681  17.721  34.837  13.105
48464W        W16682  37.277  20.009  11.085
48465W        W16683  43.914   7.790  10.700
48466W        W16684   7.038  40.209   5.446
48467W        W16685  39.084  32.630  12.375
48468W        W16686  26.721  25.611   4.616
48469W        W16687  31.046  34.892  12.588
48470W        W16688  19.634  20.231  13.395
48471W        W16689  29.409  41.866  14.411
48472W        W16690   9.287   8.234   2.154
48473W        W16691  36.431  23.176  11.573
48474W        W16692  31.121  36.971   1.343
48475W        W16693  13.388  41.956  14.864
48476W        W16694  38.845  16.796  14.398
48477W        W16695   9.294  10.608   1.859
48478W        W16696  12.702  21.070   3.246
48479W        W16697  12.192  21.541  11.390
48480W        W16698  11.300  40.455  13.382
48481W        W16699  11.306  14.824  13.785
48482W        W16700  35.858   1.159  13.547
48483W        W16701  24.131  43.968  10.587
48484W        W16702  36.451  43.200  13.835
48485W        W16703  18.510  27.901  10.246
48486W        W16704  27.090  25.607  10.234
48487W        W16705  18.514  34.465   0.277
48488W        W16706  42.753  31.279  12.526
48489W        W16707  28.593  14.309  14.962
48490W        W16708   8.620  21.704   3.156
48491W        W16709  25.695  20.305  10.674
48492W        W16710  29.149  11.268  12.866
48493W        W16711  38.153   0.451  11.677
48494W        W16712  13.587  19.604  14.540
48495W        W16713   5.190  41.334   2.167
48496W        W16714  25.230  40.196   4.778
48497W        W16715  18.017  30.647   2.277
48498W        W16716   4.407  31.222   2.260
48499W        W16717  26.714  26.204  13.359
48500W        W16718  29.655  34.555   0.956
48501W        W16719  28.449  23.930  12.111
48502W        W16720  39.479  37.472   0.264
48503W        W16721  20.634   5.947   3.269
48504W        W16722   0.097  29.555  14.739
48505W        W16723  38.486  36.979  10.615
48506W        W16724   5.986   2.956  13.569
48507W        W16725  19.117  26.378  11.232
48508W        W16726  22.012  33.318   1.349
48509W        W16727  44.740  39.036   0.830
48510W        W16728   2.076  15.756  13.328
48511W        W16729  32.645  19.316   3.951
48512W        W16730  30.208  29.034  10.778
48513W        W16731   5.817   2.335  12.974
48514W        W16732  14.900  32.204  11.652
48515W        W16733  26.727  16.389   4.202
48516W        W16734  35.976  28.477  13.079
48517W        W16735  20.040  26.239   0.885
48518W        W16736  20.295  12.681   2.293
48519W        W16737  10.224  15.606  10.623
48520W        W16738  23.083  38.395   3.271
48521W        W16739  38.525   9.147   3.213
48522W        W16740   5.719  22.704  12.138
48523W        W16741  14.808   8.169   1.966
48524W        W16742  44.366  43.509  12.360
48525W        W16743  24.947  31.870   3.313
48526W        W16744  19.158  23.736  10.670
48527W        W16745  41.249  24.195  11.154
48528W        W16746  28.492   4.421   2.777
48529W        W16747  27.318  36.124  11.455
48530W        W16748  42.281  13.893  12.577
48531W        W16749  11.066  39.286   1.313
48532W        W16750  43.346  28.450   1.692
48533W        W16751  15.116  20.279  13.990
48534W        W16752  17.476  26.472  11.052
48535W        W16753  39.253  40.560  13.019
48536W        W16754  14.803  23.636   1.243
48537W        W16755  28.580   4.263  14.491
48538W        W16756   3.921  32.048   0.860
48539W        W16757   1.887  31.566   4.546
48540W        W16758  26.998   1.297  12.677
48541W        W16759  27.997  36.329   0.751
48542W        W16760  30.342  22.484  12.271
48543W        W16761   0.278  31.605   2.446
48544W        W16762  37.069   3.781  14.266
48545W        W16763  33.617  36.084  13.073
48546W        W16764  18.230  41.969  12.968
48547W        W16765  41.053  42.117   1.514
48548W        W16766  24.443  44.410  11.181
48549W        W16767  25.968  20.983  12.075
48550W        W16768   7.077  26.457  10.569
48551W        W16769   7.353   2.371   2.670
48552W        W16770  18.440  39.023   2.806
48553W        W16771  31.687  12.267  14.368
48554W        W16772  33.469  42.241  12.924
48555W        W16773  22.678  21.686   0.857
48556W        W16774  37.073  25.040   3.292
48557W        W16775  40.920  37.385  12.463
48558W        W16776  43.289  43.308   3.285
48559W        W16777  39.833  36.463  11.173
48560W        W16778  42.439  11.834  11.846
48561W        W16779  21.623  33.654   1.455
48562W        W16780  19.584  43.851  11.408
48563W        W16781  28.028  16.527   4.556
48564W        W16782   6.700  23.180   2.796
48565W        W16783  36.791  38.378   4.553
48566W        W16784   6.245  17.938   4.516
48567W        W16785  24.484   8.148   3.732
48568W        W16786  23.096  25.556   1.723
48569W        W16787  34.356  37.568   4.543
48570W        W16788  35.481   1.301   0.522
48571W        W16789   3.573   5.759   2.663
48572W        W16790  35.750   9.327  11.683
48573W        W16791   1.798  44.899   3.395
48574W        W16792  39.059  14.933  11.870
48575W        W16793  14.291  32.637  13.376
48576W        W16794  27.899   4.674  10.114
48577W        W16795  15.011  11.093   0.960
48578W        W16796   0.742  26.243   4.485
48579W        W16797  13.294  26.516  14.855
48580W        W16798  24.205  16.167   4.789
48581W        W16799  28.801   1.886   1.875
48582W        W16800  15.262  41.262   0.076
48583W        W16801  26.902  24.206   1.883
48584W        W16802  40.458  33.082   2.278
48585W        W16803  18.298  12.833  12.993
48586W        W16804   8.144  24.459   0.282
48587W        W16805  40.520  14.279  13.365
48588W        W16806  31.660   4.267  11.314
48589W        W16807  37.533   8.663   0.761
48590W        W16808   8.092  10.511   0.545
48591W        W16809  28.141  41.448   3.223
48592W        W16810  43.345  37.644   1.838
48593W        W16811  23.464   3.736  11.427
48594W        W16812   3.834  13.244  12.646
48595W        W16813   0.965   3.560   0.156
48596W        W16814  41.706  22.482   4.358
48597W        W16815  44.397  23.672  12.483
48598W        W16816  24.245  33.949   0.101
48599W        W16817  11.158   4.418   1.751
48600W        W16818  25.664   4.321  10.760
48601W        W16819  43.463   3.275   0.834
48602W        W16820  32.950  43.740  14.058
48603W        W16821  18.710  36.116  10.564
48604W        W16822  37.963   9.134   3.937
48605W        W16823   3.943  34.921   4.957
48606W        W16824   1.525  31.012  12.639
48607W        W16825  31.563  34.174  14.284
48608W        W16826  36.264   9.153  11.118
48609W        W16827  29.107  36.972   1.478
48610W        W16828   6.807  18.825   0.015
48611W        W16829  37.074   2.386   3.110
48612W        W16830  16.016  24.102   0.381
48613W        W16831  28.954  39.181  11.389
48614W        W16832  12.607  14.752  13.310
48615W        W16833  40.969  31.028   1.355
48616W        W16834  41.999  12.688  11.607
48617W        W16835   1.265  20.234   1.301
48618W        W16836  36.535  32.156   1.621
48619W        W16837  29.835   5.420   1.385
48620W        W16838  17.888  26.030  11.071
48621W        W16839  25.307   2.175   3.654
48622W        W16840  14.754   7.371   1.283
48623W        W16841  29.849   9.746   0.123
48624W        W16842  24.986  25.823   1.795
48625W        W16843  31.503  12.514   3.388
48626W        W16844  20.605  41.358  12.385
48627W        W16845  13.790  24.463  13.986
48628W        W16846   7.723  20.388   0.970
48629W        W16847   0.429  12.209  13.777
48630W        W16848  35.976  11.703  12.576
48631W        W16849  12.527  14.810  12.801
48632W        W16850  41.887  40.366   1.303
48633W        W16851  27.682   2.650  12.484
48634W        W16852   0.397  12.890   0.159
48635W        W16853  42.650  41.560   3.395
48636W        W16854  16.355   9.371  11.647
48637W        W16855  29.252  42.533  12.076
48638W        W16856   5.365  40.384  14.881
48639W        W16857  18.133  24.923  12.231
48640W        W16858  22.953   5.144   3.979
48641W        W16859   0.808   3.155  10.385
48642W        W16860  21.874  27.320   1.339
48643W        W16861  20.512  11.679  10.454
48644W        W16862  42.922  37.813  12.041
48645W        W16863  29.733  34.476  10.683
48646W        W16864  12.054  31.931   3.841
48647W        W16865  19.621   7.684  14.975
48648W        W16866  41.836  39.278   1.286
48649W        W16867  17.038  39.006   0.887
48650W        W16868  15.004  30.058   0.721
48651W        W16869  32.539  34.913  14.075
48652W        W16870  36.600  16.793  10.312
48653W        W16871  25.949   8.603   2.686
48654W        W16872  20.843  10.296  10.596
48655W        W16873   5.701  35.889   3.201
48656W        W16874  15.779  11.207   0.379
48657W        W16875  31.876  20.261   4.272
48658W        W16876  37.055  10.121  13.095
48659W        W16877  37.249  40.944   3.937
48660W        W16878   9.986  16.575  14.694
48661W        W16879   2.041  18.265   2.033
48662W        W16880  21.806  23.610  13.558
48663W        W16881  42.735   2.847  12.678
48664W        W16882   2.006  26.517  10.187
48665W        W16883  42.737  26.283   0.048
48666W        W16884  43.246  25.027   2.719
48667W        W16885  34.247  24.972   3.448
48668W        W16886  17.750  17.702   2.113
48669W        W16887  10.150  34.368   1.337
48670W        W16888   4.954   0.795   1.188
48671W        W16889  13.793  27.996   3.611
48672W        W16890   0.964  18.579  13.897
48673W        W16891  35.001  28.402   1.340
48674W        W16892   8.175   9.449  12.472
48675W        W16893  41.560  29.039  13.253
48676W        W16894  36.359  43.462   0.906
48677W        W16895  44.336  43.516   2.331
48678W        W16896   6.906  21.950  10.679
48679W        W16897  18.033  20.093   3.805
48680W        W16898  11.759  36.565   2.651
48681W        W16899   7.247   6.177  13.853
48682W        W16900  17.541  39.473  11.114
48683W        W16901   9.200  15.375   3.853
48684W        W16902  18.778  22.089   0.832
48685W        W16903  42.765  29.078  11.416
48686W        W16904  32.887   5.498   3.942
48687W        W16905  16.880  42.239  13.774
48688W        W16906   7.242  37.045  10.597
48689W        W16907  23.544   2.326  11.682
48690W        W16908   5.020  18.395   1.810
48691W        W16909  34.556  40.437   4.395
48692W        W16910  23.059  25.086   2.942
48693W        W16911  36.432  35.418  10.699
48694W        W16912  31.032  15.329   4.917
48695W        W16913  25.589  32.849   4.586
48696W        W16914  33.547  16.711  10.893
48697W        W16915   3.706  29.490  12.217
48698W        W16916   9.218  19.775   2.647
48699W        W16917   6.767   3.279  13.346
48700W        W16918  32.433  30.512   4.212
48701W        W16919  16.224  29.968  10.744
48702W        W16920   6.009   9.204  14.065
48703W        W16921  42.841  44.770   4.247
48704W        W16922  36.572   0.845   5.264
48705W        W16923  26.958   2.656  10.735
48706W        W16924  15.086  13.959   4.174
48707W        W16925  11.314  34.601  14.903
48708W        W16926  37.473   5.317   1.326
48709W        W16927  26.802   1.191   1.533
48710W        W16928  32.764  25.983   2.342
48711W        W16929   0.999   0.934  11.539
48712W        W16930  26.640  35.578  14.517
48713W        W16931  14.813  42.346   1.407
48714W        W16932  36.895  35.118  13.437
48715W        W16933  16.762   6.907   3.932
48716W        W16934  32.096  19.163   1.320
48717W        W16935  43.790  19.828  12.988
48718W        W16936  35.515  29.040   4.577
48719W        W16937   1.863  33.726   3.273
48720W        W16938  42.370  33.451   1.285
48721W        W16939  42.553  22.606   2.229
48722W        W16940  14.093  35.716  11.103
48723W        W16941  24.041   6.455   3.229
48724W        W16942  36.103  20.597  14.959
48725W        W16943  44.096  26.417   3.295
48726W        W16944  24.732  12.108  11.842
48727W        W16945  40.892  27.161  12.421
48728W        W16946  11.865  40.020   4.647
48729W        W16947   9.712   6.312  13.143
48730W        W16948   9.358  27.153  13.944
48731W        W16949  42.922  32.245   0.383
48732W        W16950  44.553  10.501  12.400
48733W        W16951   2.874   7.522   1.710
48734W        W16952  41.707  12.433  11.966
48735W        W16953  19.022   0.284   3.430
48736W        W16954  36.024  28.142   4.590
48737W        W16955   5.648  15.216   1.938
48738W        W16956   9.151  19.947  11.907
48739W        W16957   5.858  32.934   2.639
48740W        W16958  44.788  39.147  12.943
48741W        W16959  12.998  36.263  11.166
48742W        W16960  29.543  27.885   3.875
48743W        W16961  42.037  35.629   4.550
48744W        W16962   8.866   8.487  13.489
48745W        W16963   5.089  21.002  10.469
48746W        W16964  28.108  27.524   9.937
48747W        W16965   2.231   1.904  10.776
48748W        W16966   0.901  10.001  10.713
48749W        W16967   2.418  28.905   2.682
48750W        W16968   7.143  24.358  13.572
48751W        W16969   9.720   9.662   2.780
48752W        W16970  31.416  41.283  13.283
48753W        W16971  30.737  18.457  12.337
48754W        W16972   3.486  44.829  13.264
48755W        W16973   1.521  38.485   3.602
48756W        W16974  34.941  17.631  12.822
48757W        W16975  25.457   8.945   1.206
48758W        W16976  36.369  33.555   3.782
48759W        W16977  20.143  27.122   3.062
48760W        W16978  18.126   8.941   4.089
48761W        W16979   5.356  44.374   0.454
48762W        W16980  18.743  21.974  11.527
48763W        W16981   0.650  26.701  14.460
48764W        W16982  23.722  24.047   0.247
48765W        W16983   4.897  29.231  14.159
48766W        W16984   4.418  38.481  10.020
48767W        W16985   4.955   7.019  14.864
48768W        W16986  29.817  12.934   1.223
48769W        W16987  18.277  17.240  14.921
48770W        W16988  36.946  36.304   3.881
48771W        W16989   7.910  43.285   0.490
48772W        W16990  20.637  25.023  13.291
48773W        W16991  23.561  18.605   3.888
48774W        W16992   8.688  21.685  12.726
48775W        W16993   2.335  14.708  12.824
48776W        W16994  27.219   9.714  13.244
48777W        W16995  21.227  20.525  11.040
48778W        W16996  39.539  17.216   2.338
48779W        W16997  27.204  43.099   1.287
48780W        W16998  18.515  12.477  10.190
48781W        W16999  16.292  12.166  14.298
48782W        W17000  19.553  39.564   1.233
48783W        W17001   2.239  32.817   2.798
48784W        W17002   3.903  42.278   3.721
48785W        W17003  32.659  28.595   2.142
48786W        W17004   9.183   8.846  10.772
48787W        W17005  16.731  24.575   2.837
48788W        W17006  18.543  11.659  12.497
48789W        W17007   7.711  12.395   1.848
48790W        W17008  13.998  24.031   1.348
48791W        W17009   0.405  32.233   3.841
48792W        W17010   0.262  41.452  13.040
48793W        W17011  28.861  42.271   0.455
48794W        W17012  44.562   4.546  14.480
48795W        W17013  28.578   6.304  14.533
48796W        W17014  38.412   5.469  12.408
48797W        W17015  19.557  32.301  10.696
48798W        W17016  19.150  12.388   1.311
48799W        W17017   3.827   4.830   4.858
48800W        W17018  38.901  11.192  11.229
48801W        W17019   3.416  40.228  11.626
48802W        W17020  39.537  40.983  14.294
48803W        W17021   7.313   0.232   1.873
48804W        W17022  40.060  26.754  14.872
48805W        W17023   1.024  16.164   5.125
48806W        W17024   9.425  37.370  10.763
48807W        W17025   2.371  26.190  12.897
48808W        W17026  21.880   3.641   4.210
48809W        W17027  36.396   0.816  10.352
48810W        W17028  28.925   0.020   4.520
48811W        W17029  35.898  16.943  11.502
48812W        W17030  32.187   1.862   1.411
48813W        W17031  32.533   8.570   1.878
48814W        W17032  43.209  24.584   1.203
48815W        W17033   3.988  37.499  14.061
48816W        W17034  17.773  42.225  13.939
48817W        W17035  42.800  27.489  10.002
48818W        W17036  36.422   1.153   3.271
48819W        W17037  16.141  18.985   1.297
48820W        W17038   6.400   1.377   0.416
48821W        W17039  29.228  25.059  10.644
48822W        W17040  22.196   6.820   4.595
48823W        W17041  28.416  24.417  12.000
48824W        W17042  34.854  12.978  12.634
48825W        W17043  40.409  44.378  12.522
48826W        W17044  35.023  23.227   1.009
48827W        W17045  31.538   9.348   3.124
48828W        W17046   7.000   5.769  12.927
48829W        W17047  14.292   9.867   1.637
48830W        W17048  30.090  32.358   3.183
48831W        W17049  17.183  36.848  13.399
48832W        W17050   8.131  31.817   1.640
48833W        W17051  29.411  25.012  11.156
48834W        W17052  14.811  22.115   2.253
48835W        W17053   6.897  20.518  13.810
48836W        W17054  25.265   5.410  14.798
48837W        W17055  13.031  21.616   4.143
48838W        W17056  15.347   3.178   1.889
48839W        W17057  37.008   4.497  10.605
48840W        W17058  23.685  10.666  10.737
48841W        W17059  26.820  34.749  10.548
48842W        W17060  36.237   8.058  14.900
48843W        W17061  35.767  14.760  12.632
48844W        W17062  18.631  22.070  13.320
48845W        W17063  36.121  34.006  14.358
48846W        W17064  25.689  29.960  12.494
48847W        W17065   4.474   9.118  11.508
48848W        W17066   5.324  17.608  13.404
48849W        W17067  22.921  31.135  11.944
48850W        W17068  30.374  16.124   1.862
48851W        W17069  19.295  28.902   1.883
48852W        W17070  13.247   0.698  14.921
48853W        W17071  39.315  38.536  11.172
48854W        W17072   5.338   5.055  10.843
48855W        W17073  22.455  29.053  12.136
48856W        W17074  19.359  29.901  12.931
48857W        W17075  13.384  40.159   5.213
48858W        W17076  11.759  15.376   3.044
48859W        W17077   8.569  37.323  10.685
48860W        W17078   7.657  32.479   1.499
48861W        W17079   1.004  37.403  14.244
48862W        W17080  18.769  17.292   0.028
48863W        W17081  34.388   4.061   4.265
48864W        W17082  13.065  33.209  12.428
48865W        W17083  30.965  28.377   3.658
48866W        W17084   2.247   2.894   3.644
48867W        W17085  35.827  26.971   1.205
48868W        W17086  15.090  10.157   0.793
48869W        W17087  31.366  35.078  12.190
48870W        W17088  23.973  30.103   4.214
48871W        W17089  25.282  23.686  11.102
48872W        W17090   7.252  25.137   0.879
48873W        W17091   9.311  30.146  14.888
48874W        W17092  12.765  10.865  12.995
48875W        W17093  37.848  44.396   0.819
48876W        W17094   6.256   4.148  13.911
48877W        W17095  20.242   6.791  13.665
48878W        W17096  20.894   8.086   1.431
48879W        W17097  24.780  35.002  10.762
48880W        W17098  10.260  31.199   0.271
48881W        W17099  26.805   2.847  14.418
48882W        W17100  26.810  16.871   1.359
48883W        W17101  36.859   1.139  10.366
48884W        W17102   6.360  28.572   0.253
48885W        W17103  26.278  37.873   4.543
48886W        W17104  19.632  17.130   2.128
48887W        W17105  36.755  44.685  12.566
48888W        W17106  23.150  40.021  10.532
48889W        W17107  26.773  22.698  12.028
48890W        W17108   0.257  23.961   3.866
48891W        W17109  24.111  42.056  14.753
48892W        W17110   2.807  29.597  11.244
48893W        W17111  24.168  41.317   2.017
48894W        W17112   0.290   0.489  10.371
48895W        W17113  24.829  20.072  11.277
48896W        W17114  19.519  29.412   0.798
48897W        W17115  14.913  15.345  14.175
48898W        W17116  12.056  27.005   0.729
48899W        W17117  39.420  39.388   3.152
48900W        W17118  31.563  23.987   4.803
48901W        W17119  23.928   9.888   4.141
48902W        W17120  40.076   7.604  11.595
48903W        W17121  14.371   0.890   5.024
48904W        W17122  42.814  44.343  12.477
48905W        W17123  12.778   7.117  13.908
48906W        W17124  34.626  43.925   2.313
48907W        W17125  15.147  19.543   4.650
48908W        W17126  27.396  43.284  12.697
48909W        W17127  13.501  26.866  10.789
48910W        W17128  21.087   8.823   3.263
48911W        W17129  27.671  34.225   0.915
48912W        W17130  17.211  25.097  13.802
48913W        W17131  21.669   4.665  14.941
48914W        W17132  27.346  42.399  11.993
48915W        W17133  43.481  18.765  10.715
48916W        W17134  37.486   8.205   4.806
48917W        W17135  35.459  34.885   2.665
48918W        W17136  32.640  14.438   4.933
48919W        W17137   9.257  32.633   3.200
48920W        W17138  31.450  15.275   2.624
48921W        W17139  18.663  19.170  11.060
48922W        W17140  27.659  38.472   4.878
48923W        W17141  22.460   7.797  12.936
48924W        W17142  20.072  39.772  10.626
48925W        W17143  30.650  44.484   4.430
48926W        W17144  16.727  34.645  14.772
48927W        W17145  31.596  23.545   1.668
48928W        W17146   7.160  10.993  12.002
48929W        W17147  33.265  38.918  10.706
48930W        W17148   5.874  24.157   3.471
48931W        W17149  42.227  36.886   0.193
48932W        W17150  38.903  30.855  14.714
48933W        W17151  21.054  34.441   4.902
48934W        W17152  20.510  25.079  12.059
48935W        W17153   6.381   0.382  13.982
48936W        W17154  34.104  13.665   4.130
48937W        W17155  28.337   7.123  12.100
48938W        W17156  37.910   4.326   2.661
48939W        W17157   5.683  43.439  14.750
48940W        W17158  21.295  42.579   1.272
48941W        W17159  25.134  19.162  13.781
48942W        W17160  19.952  40.507  11.198
48943W        W17161  32.860  27.676   0.942
48944W        W17162   9.586  28.614   3.186
48945W        W17163  17.622  36.834   0.785
48946W        W17164  32.837  11.710  14.519
48947W        W17165  19.328  35.814  11.592
48948W        W17166  39.081  12.154   2.839
48949W        W17167  28.154  34.195  13.882
48950W        W17168   9.165   4.250   3.990
48951W        W17169  27.878  44.470  14.903
48952W        W17170  27.227   9.425  11.228
48953W        W17171  36.805  28.887  11.126
48954W        W17172  35.303   7.422  11.143
48955W        W17173   8.901  33.895   2.728
48956W        W17174  31.407   2.892   1.575
48957W        W17175   9.468   6.855  11.209
48958W        W17176   3.700  28.705  13.349
48959W        W17177  11.335  26.488   1.219
48960W        W17178   2.989  36.335   0.232
48961W        W17179  37.408  44.997   4.636
48962W        W17180  28.421  44.364   2.089
48963W        W17181  30.993   8.201  14.527
48964W        W17182  28.388  44.633   1.658
48965W        W17183   0.312  43.771   4.207
48966W        W17184  42.899  19.004  12.653
48967W        W17185  31.338  10.869  10.760
48968W        W17186  22.568  21.775  13.887
48969W        W17187  30.414  35.516  12.838
48970W        W17188   7.528   9.812   4.524
48971W        W17189  22.933  37.625  12.510
48972W        W17190  28.472   0.855  11.138
48973W        W17191  31.570  33.908   0.183
48974W        W17192  26.963  11.848  14.892
48975W        W17193  34.132  18.195   2.855
48976W        W17194  33.030  23.427  11.075
48977W        W17195  35.247  43.894  10.674
48978W        W17196  12.818  17.699  11.395
48979W        W17197  30.413   9.884  12.886
48980W        W17198  36.375   5.479   2.862
48981W        W17199  23.496  44.767  12.659
48982W        W17200   4.312  44.024   5.463
48983W        W17201  10.028   0.755   3.878
48984W        W17202  36.077   0.982  14.016
48985W        W17203  17.983  38.467   4.568
48986W        W17204  39.632  10.136  13.738
48987W        W17205  29.725  44.729   0.374
48988W        W17206   7.833  27.220   0.458
48989W        W17207  41.019  10.790  10.669
48990W        W17208   9.800  38.357   2.880
48991W        W17209  40.487  22.559  12.792
48992W        W17210  13.835  24.722   0.718
48993W        W17211   0.298  25.520  11.824
48994W        W17212  40.736  36.556   0.407
48995W        W17213  34.868   9.772  12.893
48996W        W17214  41.677  27.080   3.273
48997W        W17215  39.868  20.281   1.316
48998W        W17216  31.526  21.583  13.766
48999W        W17217  43.436   8.761   4.649
49000W        W17218  15.359  41.353   2.345
49001W        W17219  44.789   2.555  13.729
49002W        W17220   4.421  14.820   1.881
49003W        W17221  12.389  32.896   0.383
49004W        W17222  42.470  40.338  10.628
49005W        W17223  34.141  41.987  12.246
49006W        W17224  27.183  26.194  11.442
49007W        W17225  23.367   6.266   1.717
49008W        W17226   9.449  30.118   3.092
49009W        W17227  43.598  34.876   2.383
49010W        W17228  42.669  19.422   2.812
49011W        W17229  22.550  38.396   2.716
49012W        W17230  19.311  33.243  14.024
49013W        W17231  28.701  28.000  13.876
49014W        W17232   4.709  13.873   3.920
49015W        W17233  26.528  12.539  10.105
49016W        W17234   5.994  37.944   1.717
49017W        W17235  11.635  34.479  12.638
49018W        W17236  17.287   5.758  10.249
49019W        W17237   9.279  11.297   3.231
49020W        W17238   9.699  21.220   0.386
49021W        W17239  26.414  18.431   3.832
49022W        W17240  31.592  38.854   0.856
49023W        W17241   6.687  17.868   3.199
49024W        W17242  38.632  33.363   3.369
49025W        W17243  32.223  15.634   4.143
49026W        W17244  34.318  31.418   0.866
49027W        W17245  44.579  18.144  10.334
49028W        W17246  35.569   4.708  14.788
49029W        W17247   4.704  22.784  12.651
49030W        W17248   7.820   9.904   3.669
49031W        W17249  13.230   7.669   0.835
49032W        W17250  34.655   9.138   1.619
49033W        W17251  32.068  17.737  11.587
49034W        W17252   5.427   2.416  14.889
49035W        W17253  33.838   9.309  13.404
49036W        W17254   9.114  20.996   4.811
49037W        W17255  15.240  27.918  10.554
49038W        W17256  15.045   4.468   3.377
49039W        W17257   2.352   2.962   1.832
49040W        W17258  31.194  17.724  14.004
49041W        W17259  12.964   6.593  10.707
49042W        W17260  15.690   8.097  10.235
49043W        W17261  11.575  40.562  12.072
49044W        W17262  36.536  13.011   3.590
49045W        W17263  26.955  40.279  11.780
49046W        W17264   4.382  23.457  10.709
49047W        W17265  23.742  25.163  14.002
49048W        W17266  12.164   9.622  10.329
49049W        W17267  20.352  32.106  10.572
49050W        W17268  31.999  30.532  14.100
49051W        W17269  31.685  23.033   2.261
49052W        W17270  32.102  34.511   0.660
49053W        W17271  24.592   5.359   1.623
49054W        W17272  15.769  35.061  14.789
49055W        W17273  11.175  17.100  11.340
49056W        W17274  29.043   6.300  13.804
49057W        W17275   4.070  16.493   1.352
49058W        W17276  24.638  18.743   0.474
49059W        W17277  13.216  12.560   4.914
49060W        W17278  44.268  40.802  13.438
49061W        W17279  26.521   2.325   0.526
49062W        W17280   7.381   9.121  10.618
49063W        W17281   9.186  18.665  11.066
49064W        W17282  24.248   8.577  12.572
49065W        W17283  35.515  43.638   1.039
49066W        W17284  20.190  14.514  10.982
49067W        W17285  33.120  11.057  10.895
49068W        W17286  31.133   4.407  11.151
49069W        W17287   9.317  42.361   1.491
49070W        W17288   3.884  34.804   2.690
49071W        W17289   9.812  41.457   0.306
49072W        W17290  41.004  26.091  14.621
49073W        W17291  41.985   5.859   0.463
49074W        W17292  33.605  29.316   5.016
49075W        W17293  32.673  38.529  13.453
49076W        W17294  12.741   7.087   2.833
49077W        W17295  13.355  18.088  14.899
49078W        W17296  35.705  32.580  12.679
49079W        W17297  29.377   8.204  12.147
49080W        W17298  35.096  34.484  14.902
49081W        W17299   1.455   9.558   0.658
49082W        W17300  33.587   9.054   2.556
49083W        W17301  44.590  24.280   2.258
49084W        W17302   0.027   3.263  10.454
49085W        W17303  44.363  30.646  12.671
49086W        W17304  41.959  12.226  12.937
49087W        W17305   0.196  16.583  13.326
49088W        W17306  43.070  22.701   2.277
49089W        W17307  35.584  32.861  13.478
49090W        W17308  41.295  18.961  14.775
49091W        W17309  41.868  14.591  12.169
49092W        W17310  17.350   6.862   1.267
49093W        W17311  30.228  34.101  14.421
49094W        W17312  20.944  22.909  11.077
49095W        W17313  36.029  12.167   0.853
49096W        W17314  24.082  43.315   0.383
49097W        W17315   2.701  29.481   0.782
49098W        W17316  42.045  30.657  12.500
49099W        W17317  43.670  44.983  10.948
49100W        W17318  34.062  34.962  10.986
49101W        W17319  10.615   4.512  11.784
49102W        W17320  20.275  11.293  13.615
49103W        W17321  36.594  42.223   1.761
49104W        W17322  15.197  33.162   4.571
49105W        W17323  11.411  31.683  12.402
49106W        W17324   4.487  27.483  12.354
49107W        W17325   2.501  34.677   0.271
49108W        W17326  41.140  30.857  13.375
49109W        W17327   4.380   5.941  12.330
49110W        W17328  42.488  21.103  10.421
49111W        W17329  34.058   7.618   3.638
49112W        W17330   6.965   0.752  11.109
49113W        W17331  40.478  41.425  13.388
49114W        W17332   1.474   5.713   4.339
49115W        W17333  35.273  13.381   3.619
49116W        W17334  20.329  26.154  13.285
49117W        W17335  30.627  31.977  13.286
49118W        W17336  25.511  19.489  10.236
49119W        W17337   3.556  18.371  11.991
49120W        W17338  38.841  28.712  12.069
49121W        W17339  29.120  23.129   4.941
49122W        W17340   2.357  31.156  13.562
49123W        W17341  12.261  26.789  11.172
49124W        W17342  31.644  29.103  11.627
49125W        W17343  29.619  16.769  13.842
49126W        W17344   6.407   2.645  14.827
49127W        W17345  31.040   7.375  12.525
49128W        W17346  43.016  42.346   1.512
49129W        W17347  37.465  29.159   4.149
49130W        W17348  13.157   5.084  11.515
49131W        W17349  34.590  12.600   2.206
49132W        W17350   2.320  27.520   3.307
49133W        W17351  26.571  30.102   1.760
49134W        W17352  41.944  40.097  14.450
49135W        W17353  31.614  26.088   0.743
49136W        W17354  13.797  30.881  13.555
49137W        W17355  18.484   4.846  14.438
49138W        W17356   8.806  44.432   4.639
49139W        W17357  12.303  18.171   4.059
49140W        W17358  41.768  10.094   3.583
49141W        W17359  31.828  17.767   2.306
49142W        W17360  16.858  29.725   3.343
49143W        W17361   6.912  38.972   0.347
49144W        W17362  21.950  15.576   3.175
49145W        W17363  10.578  19.938  14.378
49146W        W17364  26.462  37.768  14.506
49147W        W17365  16.479  17.467  14.775
49148W        W17366   1.971  35.723   1.382
49149W        W17367  41.472  12.508  11.533
49150W        W17368  10.557  21.711  13.053
49151W        W17369   1.814  13.001   3.871
49152W        W17370  17.804  35.806   4.180
49153W        W17371  23.411   6.846  13.172
49154W        W17372   8.105  31.815   3.370
49155W        W17373  27.137  27.713   1.202
49156W        W17374   9.937  24.949  12.517
49157W        W17375  24.971   5.411  13.432
49158W        W17376   3.704  22.343  11.106
49159W        W17377  12.795  14.673   2.390
49160W        W17378  30.038  23.225  14.406
49161W        W17379  21.169  35.556  11.138
49162W        W17380  31.169   0.735  11.962
49163W        W17381  25.149   7.486   2.179
49164W        W17382  24.753  21.504   2.326
49165W        W17383  33.633  26.670   1.685
49166W        W17384  38.839  34.590  14.697
49167W        W17385  39.780  30.697  11.924
49168W        W17386  32.387   5.106  12.344
49169W        W17387  10.158   7.830   4.601
49170W        W17388  38.096  42.618   2.612
49171W        W17389   1.497  30.521  14.791
49172W        W17390  42.479  25.422   0.511
49173W        W17391  15.021  17.601  13.444
49174W        W17392  31.182  20.874   0.769
49175W        W17393  12.327  20.657  11.487
49176W        W17394  10.759  32.972   3.175
49177W        W17395  24.976  14.263  12.169
49178W        W17396   7.308   7.911  13.377
49179W        W17397   8.905  11.771   0.096
49180W        W17398  30.254  18.218   1.442
49181W        W17399   8.937   6.461   2.794
49182W        W17400  26.836  30.924   2.640
49183W        W17401   7.277  10.607   3.148
49184W        W17402   8.777  29.558  11.160
49185W        W17403  34.462   8.507  11.267
49186W        W17404  22.725  38.719  14.488
49187W        W17405  34.202   4.436  10.025
49188W        W17406  23.675  39.587   2.715
49189W        W17407  34.092  43.802  11.161
49190W        W17408  12.003  41.567   1.824
49191W        W17409  14.314   9.979   3.545
49192W        W17410  16.159  44.541   0.796
49193W        W17411  20.171  42.096  11.046
49194W        W17412  10.267   4.920  12.048
49195W        W17413  42.665   9.727  13.610
49196W        W17414  43.760  34.130  11.343
49197W        W17415  31.205  18.496   2.361
49198W        W17416  22.656  16.535  12.066
49199W        W17417  18.952  18.071  14.888
49200W        W17418  28.159  22.056  14.948
49201W        W17419   4.837  20.770  14.575
49202W        W17420  12.307  17.094  14.501
49203W        W17421  42.613  11.346  14.380
49204W        W17422  31.507  29.918  14.393
49205W        W17423  40.319  18.215  11.646
49206W        W17424  19.614  20.646   4.894
49207W        W17425  17.057  15.891   3.764
49208W        W17426   4.356  21.008   4.425
49209W        W17427  37.492  38.263  10.695
49210W        W17428  27.628  38.951   2.243
49211W        W17429  19.623  37.722  10.543
49212W        W17430  15.520  14.798  13.015
49213W        W17431   0.320  15.681  13.868
49214W        W17432  32.095  26.460  14.309
49215W        W17433  13.079  36.980  10.717
49216W        W17434   9.340  32.017  10.751
49217W        W17435   6.363   5.025  11.522
49218W        W17436  27.640  23.101  13.518
49219W        W17437  17.134   9.913   0.274
49220W        W17438  32.036  44.092   1.828
49221W        W17439   1.340  12.506   0.732
49222W        W17440  14.743  19.789   4.444
49223W        W17441   8.175   9.619   3.233
49224W        W17442   2.940  33.787   2.323
49225W        W17443  17.040  42.548   2.302
49226W        W17444  36.646  22.802   5.027
49227W        W17445  28.893  41.265  12.476
49228W        W17446  11.183   2.268   0.924
49229W        W17447  16.042  35.296   2.014
49230W        W17448  29.749   9.703   3.698
49231W        W17449  24.278   2.888  12.782
49232W        W17450  34.827  10.701  11.983
49233W        W17451  13.762  43.923   2.223
49234W        W17452  26.030  35.427  13.840
49235W        W17453  39.409   8.277  10.691
49236W        W17454  39.321  34.797  11.719
49237W        W17455  15.797  37.185   4.278
49238W        W17456   7.621  19.206   0.934
49239W        W17457   7.439  24.654  12.493
49240W        W17458   7.799  25.045   2.161
49241W        W17459  40.126  39.922   3.310
49242W        W17460  26.570   8.249   1.665
49243W        W17461  41.776  26.910  12.453
49244W        W17462  37.487  14.731  11.335
49245W        W17463   6.470  39.627  11.679
49246W        W17464  23.161  35.391  12.858
49247W        W17465  40.379  27.385   2.876
49248W        W17466  24.744   4.384  14.271
49249W        W17467  38.565  14.403   9.937
49250W        W17468   3.000  37.967  11.699
49251W        W17469  33.110  24.870  10.645
49252W        W17470  43.953   3.573  12.066
49253W        W17471  27.397  24.195   3.747
49254W        W17472  23.650  25.915  12.607
49255W        W17473   5.955  40.842   3.119
49256W        W17474   5.719  24.392  13.338
49257W        W17475  31.946  32.595   0.268
49258W        W17476   5.706  30.030   1.156
49259W        W17477  27.700  23.814  12.638
49260W        W17478  38.872  11.614  14.257
49261W        W17479   5.288  43.013   1.161
49262W        W17480   0.812  13.919  14.793
49263W        W17481  33.116  31.170   1.846
49264W        W17482  16.961  26.341   5.084
49265W        W17483  11.239  10.136   3.067
49266W        W17484  27.475  11.416  14.448
49267W        W17485  36.985  32.643   1.683
49268W        W17486  40.791  41.016  14.808
49269W        W17487  41.604   4.181   0.053
49270W        W17488  31.933  11.054   2.316
49271W        W17489  24.126  31.030   2.185
49272W        W17490  39.622   5.191  14.480
49273W        W17491   1.347  32.521   1.338
49274W        W17492  18.919   0.881   1.239
49275W        W17493  41.549  20.697   1.668
49276W        W17494   4.731  41.645  11.133
49277W        W17495  35.105  15.720  13.737
49278W        W17496   8.860  24.747  14.715
49279W        W17497   1.691  40.933  10.511
49280W        W17498  34.050   8.756   0.047
49281W        W17499  21.828  23.485   2.806
49282W        W17500  19.827  31.097   3.302
49283W        W17501  37.630  40.287  10.773
49284W        W17502  19.161   9.885  12.617
49285W        W17503  32.585  32.995   3.343
49286W        W17504   9.881  39.392   1.841
49287W        W17505  32.313   5.454  11.946
49288W        W17506  23.279   1.185   3.630
49289W        W17507  30.332  20.728  14.872
49290W        W17508  35.965  30.759   3.388
49291W        W17509  13.697  23.507   2.432
49292W        W17510  37.535   2.053   1.435
49293W        W17511  32.492   7.631   4.209
49294W        W17512  32.436  36.917   0.381
49295W        W17513  12.674  32.120  11.671
49296W        W17514  29.892  22.097  13.972
49297W        W17515  41.842  23.431   2.161
49298W        W17516  31.495  23.722   2.703
49299W        W17517  13.082  26.701   2.628
49300W        W17518   5.233  44.486   3.614
49301W        W17519   4.533  30.979  11.174
49302W        W17520  41.806  23.548   3.079
49303W        W17521  32.637   5.849  14.785
49304W        W17522   4.005  41.536   1.336
49305W        W17523   3.025   9.962  13.304
49306W        W17524  41.569  42.519  13.441
49307W        W17525  43.857  17.532  13.775
49308W        W17526  25.962  40.890   4.997
49309W        W17527   2.544   2.681   2.321
49310W        W17528  43.394   8.688  13.090
49311W        W17529   2.967  18.633  14.260
49312W        W17530  14.818  36.468   1.480
49313W        W17531  43.305  41.310   0.851
49314W        W17532  19.444  42.271   0.617
49315W        W17533  17.520  38.789   1.794
49316W        W17534  20.317  18.746   0.521
49317W        W17535   3.391  21.413   1.721
49318W        W17536  44.961  29.723  13.863
49319W        W17537  12.155   2.740  10.635
49320W        W17538   6.805  24.255   3.260
49321W        W17539  39.600   2.685  13.937
49322W        W17540   8.159   3.344  13.234
49323W        W17541  39.927  12.074   1.336
49324W        W17542  30.759  41.031  12.557
49325W        W17543  33.153  17.863  14.186
49326W        W17544  32.640  34.167   1.728
49327W        W17545   5.023  34.020  13.834
49328W        W17546   6.233  18.607  14.393
49329W        W17547  22.687  26.445   0.226
49330W        W17548   5.456   4.351  12.596
49331W        W17549  38.247  24.714  11.572
49332W        W17550  24.410  26.438   4.143
49333W        W17551  27.026  26.909   0.849
49334W        W17552  23.455  15.547  12.854
49335W        W17553  37.348  43.549  11.160
49336W        W17554  29.919  39.445   2.371
49337W        W17555   4.814  22.978  14.950
49338W        W17556  12.127   1.104   3.977
49339W        W17557  31.153  39.381  11.088
49340W        W17558  35.396  38.135   4.455
49341W        W17559  37.141  40.858   4.466
49342W        W17560  25.583  33.504  13.888
49343W        W17561  29.503  31.672  11.524
49344W        W17562  10.165   5.486  14.432
49345W        W17563  21.022  35.664  14.244
49346W        W17564  44.237   9.092  14.313
49347W        W17565  35.930  42.926  10.445
49348W        W17566  10.706  10.201   0.320
49349W        W17567  10.070   1.478  14.784
49350W        W17568   4.905  25.917  12.957
49351W        W17569  37.064  24.521   3.338
49352W        W17570  10.384   9.647   4.312
49353W        W17571  35.646  30.510   3.035
49354W        W17572  28.617   2.685   3.227
49355W        W17573  22.018  11.208   0.732
49356W        W17574  13.867  28.519  10.752
49357W        W17575   5.745   1.837  12.140
49358W        W17576  19.023  11.826  13.630
49359W        W17577  20.697  24.614   4.545
49360W        W17578   6.671  36.534   2.268
49361W        W17579  42.505   5.484  12.876
49362W        W17580  32.555  18.025   2.566
49363W        W17581  33.822  43.786   2.701
49364W        W17582  27.968  12.039   0.072
49365W        W17583  10.909   0.474  11.742
49366W        W17584  38.912  23.023  14.608
49367W        W17585  10.386  33.765   0.560
49368W        W17586  27.554  11.143   1.284
49369W        W17587  15.189  43.478   4.613
49370W        W17588  33.075  36.567  12.948
49371W        W17589  29.763  36.704  11.850
49372W        W17590   1.267  27.372   3.690
49373W        W17591  33.377  20.720  12.613
49374W        W17592  14.644  31.768  14.306
49375W        W17593  44.423  31.334  13.379
49376W        W17594  21.263  32.882  12.015
49377W        W17595  15.672  27.973   1.341
49378W        W17596  19.168   5.015  14.581
49379W        W17597  23.662   1.463   2.223
49380W        W17598  30.582  11.200  14.280
49381W        W17599  19.341  36.383   4.506
49382W        W17600  12.520  39.859  14.153
49383W        W17601  35.979  41.003  11.647
49384W        W17602  26.436   6.425   3.431
49385W        W17603  36.873  21.260  14.813
49386W        W17604  26.405   7.021  10.197
49387W        W17605  32.503  16.903   3.694
49388W        W17606  11.656  17.569  12.512
49389W        W17607   9.864  19.353   4.159
49390W        W17608  24.011  37.301  13.931
49391W        W17609   7.923  22.250   0.534
49392W        W17610  19.773   9.265   3.695
49393W        W17611  19.008  20.781   3.180
49394W        W17612  43.050  25.063   3.262
49395W        W17613  43.521  43.255   3.733
49396W        W17614  39.338   9.222  13.042
49397W        W17615  27.690  28.148  12.821
49398W        W17616  33.853  42.075   0.554
49399W        W17617  33.935  35.115   0.993
49400W        W17618  41.327   0.469   4.597
49401W        W17619   0.150  17.609   1.340
49402W        W17620   5.595  20.753   3.936
49403W        W17621  36.461  11.687   0.305
49404W        W17622   1.532   1.367   1.687
49405W        W17623   1.870  13.875  13.771
49406W        W17624   5.361  13.857   3.261
49407W        W17625  19.733  12.176  13.899
49408W        W17626  35.955  32.136   2.830
49409W        W17627   0.186  41.339   4.089
49410W        W17628  15.674  18.770   2.321
49411W        W17629  15.115   4.948   3.180
49412W        W17630  30.083   4.695  12.485
49413W        W17631  32.557   1.953  11.581
49414W        W17632   1.812   6.802  10.642
49415W        W17633  23.962  18.310   3.714
49416W        W17634  22.283  21.523   0.545
49417W        W17635  26.653  29.197  11.492
49418W        W17636  25.838  43.327  13.854
49419W        W17637  33.120  16.309  11.074
49420W        W17638   0.841  11.111   2.219
49421W        W17639   1.446  32.975  12.488
49422W        W17640  44.786  41.483  14.529
49423W        W17641  29.205   1.972  12.873
49424W        W17642  39.770   2.327   2.190
49425W        W17643  28.955  13.174   1.644
49426W        W17644  14.739   9.712  14.159
49427W        W17645  21.512  23.268   3.685
49428W        W17646  17.000  16.285  11.082
49429W        W17647   4.812  37.641   2.151
49430W        W17648  11.655  42.748  13.305
49431W        W17649  14.227  13.340  11.098
49432W        W17650  21.436   7.947   4.529
49433W        W17651  29.636  43.571  10.729
49434W        W17652  20.457   4.655   0.249
49435W        W17653  35.537   6.623   4.136
49436W        W17654  12.730  21.738   0.441
49437W        W17655  25.519  16.745   1.414
49438W        W17656  34.834  35.812  13.632
49439W        W17657  25.464  26.286   4.098
49440W        W17658  27.058  24.970   3.972
49441W        W17659  39.229   6.290  10.692
49442W        W17660  26.509   5.214  13.418
49443W        W17661  18.826  23.366  11.064
49444W        W17662  29.084  26.125  13.607
49445W        W17663  26.245  43.966   0.460
49446W        W17664  26.704   9.686  13.357
49447W        W17665  10.680   2.331   0.780
49448W        W17666  16.348  13.078   0.159
49449W        W17667  25.504  11.686  12.939
49450W        W17668  29.217  21.512  12.424
49451W        W17669   1.223  40.265  11.126
49452W        W17670  29.625  39.943  10.435
49453W        W17671  39.948  41.272  14.389
49454W        W17672  18.620  17.090   0.456
49455W        W17673  11.734  31.889  13.255
49456W        W17674  28.225  22.536  12.128
49457W        W17675  18.259   4.025   2.409
49458W        W17676  26.434  27.965   1.932
49459W        W17677  19.516  19.256  13.591
49460W        W17678  32.593  33.157   0.616
49461W        W17679  26.775  26.850  10.639
49462W        W17680   2.916  21.512   3.655
49463W        W17681   2.979  20.619  11.136
49464W        W17682  37.805  33.266  13.905
49465W        W17683  25.621  19.116  14.069
49466W        W17684  37.334   7.687  10.816
49467W        W17685  29.124  33.084   1.427
49468W        W17686  40.548  17.835  12.091
49469W        W17687  42.233  18.286  14.127
49470W        W17688  15.725  15.370  14.953
49471W        W17689  21.356   3.260   1.667
49472W        W17690   1.516  20.446  13.840
49473W        W17691  34.712  12.863  10.121
49474W        W17692   7.549   8.761   2.156
49475W        W17693  39.270  35.381   2.776
49476W        W17694  10.322   4.448   3.313
49477W        W17695  38.555  19.286   0.240
49478W        W17696  23.311   9.570   2.684
49479W        W17697  25.891  19.537   4.112
49480W        W17698  22.725  43.742  10.704
49481W        W17699  10.630  44.223  13.362
49482W        W17700  40.504  35.400   4.653
49483W        W17701  31.881   8.187  13.317
49484W        W17702  35.358  24.535  11.052
49485W        W17703  22.052  16.035  12.991
49486W        W17704  36.116  44.923  13.831
49487W        W17705   0.237  22.137   1.834
49488W        W17706   2.764  14.766  12.083
49489W        W17707  14.060  32.628   1.732
49490W        W17708  17.684  16.265   9.748
49491W        W17709  23.142   6.270  14.774
49492W        W17710   1.006  13.419  12.473
49493W        W17711  40.861  18.261  13.417
49494W        W17712  31.992  33.175   4.684
49495W        W17713  17.637  31.599   1.872
49496W        W17714  23.734  26.700  12.815
49497W        W17715   9.482  39.059   1.650
49498W        W17716  44.659  37.242   3.760
49499W        W17717   6.034  25.628  14.508
49500W        W17718  11.358  14.305  13.796
49501W        W17719  32.100  11.441   4.515
49502W        W17720  20.134  30.369  10.685
49503W        W17721  29.642  20.790  13.353
49504W        W17722  29.684  43.976   2.464
49505W        W17723   7.996  14.222   3.083
49506W        W17724  42.383  35.272   3.695
49507W        W17725  25.144  32.848   2.634
49508W        W17726  11.629  41.090  14.658
49509W        W17727  32.079  21.368   2.128
49510W        W17728  36.419   2.908  12.353
49511W        W17729  22.539   6.052   1.823
49512W        W17730  13.173  28.033  11.310
49513W        W17731  10.359  27.063   3.664
49514W        W17732  31.603  31.519   3.123
49515W        W17733  32.079   8.855   3.786
49516W        W17734  20.118  37.987   1.811
49517W        W17735   1.277  18.970  14.020
49518W        W17736  11.118  28.625   3.684
49519W        W17737  38.845  42.295   1.390
49520W        W17738   3.287  16.118  11.137
49521W        W17739  10.261  31.609   4.084
49522W        W17740  34.061   4.381   4.534
49523W        W17741  27.072  38.528  12.910
49524W        W17742  38.814  36.908   0.458
49525W        W17743  28.499   9.574  11.694
49526W        W17744   2.317  40.968   3.331
49527W        W17745  12.424  15.302  10.734
49528W        W17746  27.548  41.969   0.656
49529W        W17747  25.859  33.591   2.821
49530W        W17748   8.381  29.327  12.077
49531W        W17749  23.760   9.574   4.575
49532W        W17750  22.241  23.648  11.252
49533W        W17751   4.392  22.181  14.734
49534W        W17752   6.612  43.284  13.851
49535W        W17753  14.183  41.777   5.438
49536W        W17754  18.233  28.972   1.364
49537W        W17755   9.293  21.223  14.266
49538W        W17756  34.648  20.284  10.628
49539W        W17757   5.818  39.306  14.105
49540W        W17758   2.749   9.360   0.175
49541W        W17759  20.727  21.190   0.777
49542W        W17760  15.596  25.178  11.598
49543W        W17761  32.479  10.369   2.365
49544W        W17762  31.350  37.566   2.390
49545W        W17763   2.793  35.991   1.839
49546W        W17764   3.232  44.006   1.795
49547W        W17765   4.901  19.417   3.090
49548W        W17766  32.951   1.008  12.715
49549W        W17767  18.740  24.047  10.674
49550W        W17768  23.212   6.162  10.250
49551W        W17769  21.560  17.517   4.184
49552W        W17770   5.456  27.688  14.213
49553W        W17771   9.910   0.196   2.802
49554W        W17772  31.138   0.435  11.508
49555W        W17773  14.862  31.299   1.242
49556W        W17774  29.124  14.238  12.855
49557W        W17775  20.710  12.638  12.483
49558W        W17776  42.837  25.977   0.981
49559W        W17777   8.941  18.288  13.951
49560W        W17778  10.203  40.920  13.091
49561W        W17779  40.942  40.400  14.763
49562W        W17780  33.905  34.895   3.282
49563W        W17781  44.823  34.315   3.668
49564W        W17782  16.570  12.684   0.878
49565W        W17783   5.215   8.310   3.234
49566W        W17784  36.131  34.877   1.853
49567W        W17785  10.547  40.512  14.745
49568W        W17786  17.572  16.266   3.308
49569W        W17787  18.117  15.623  13.722
49570W        W17788  32.067   3.888  11.918
49571W        W17789  33.042   5.218   0.233
49572W        W17790  20.325  40.771   1.274
49573W        W17791  40.588  27.760  11.648
49574W        W17792  24.220  17.949  11.173
49575W        W17793  18.681  29.576   4.820
49576W        W17794  33.965   7.939   1.357
49577W        W17795  28.421  17.789   3.280
49578W        W17796   9.142  34.404  11.117
49579W        W17797  31.448  34.482  12.796
49580W        W17798  25.668  39.046   5.344
49581W        W17799  26.991  29.755   3.350
49582W        W17800  27.654  39.614  12.412
49583W        W17801   8.740  39.405   3.856
49584W        W17802  17.278  20.117   9.995
49585W        W17803  29.088  11.179  12.023
49586W        W17804   6.961  25.738  13.761
49587W        W17805  21.975   4.772   1.318
49588W        W17806  34.163  10.649   0.910
49589W        W17807  26.927   4.795   4.732
49590W        W17808  41.401  30.948  13.805
49591W        W17809  13.869  13.066  12.067
49592W        W17810  15.881   4.685   0.797
49593W        W17811  27.144  10.376  12.898
49594W        W17812  24.102  10.150  11.593
49595W        W17813  30.893  41.554  10.242
49596W        W17814   0.266   8.914  11.212
49597W        W17815   0.603  42.701  12.769
49598W        W17816  26.221  24.404  12.566
49599W        W17817  15.089  43.899  11.399
49600W        W17818   0.852  11.966   2.742
49601W        W17819  10.153  28.146   5.036
49602W        W17820  25.765   9.420  14.560
49603W        W17821  42.008  39.029  12.046
49604W        W17822  15.340  33.207  14.520
49605W        W17823  14.147  24.968  11.202
49606W        W17824  44.161  13.542  11.513
49607W        W17825  28.835  30.601   4.680
49608W        W17826  12.691   7.931   0.951
49609W        W17827  40.989  39.014   4.777
49610W        W17828   2.192   7.722   3.051
49611W        W17829  42.924   5.816  14.976
49612W        W17830  39.388  39.372   1.575
49613W        W17831  25.401  10.362   2.248
49614W        W17832  41.742  33.337  11.215
49615W        W17833  23.024  22.214  12.148
49616W        W17834   1.311  15.716   4.482
49617W        W17835   1.079   6.710   2.892
49618W        W17836  12.225  42.365   0.456
49619W        W17837  37.309  30.727   3.250
49620W        W17838   3.987  10.485   4.883
49621W        W17839  25.968  15.929  14.501
49622W        W17840   5.741   4.450   1.940
49623W        W17841  35.548  36.868   4.188
49624W        W17842  18.083  16.168   5.420
49625W        W17843  29.181  20.547   4.864
49626W        W17844  14.528  33.359  14.836
49627W        W17845  33.973  23.089  14.663
49628W        W17846  42.313   5.693  13.346
49629W        W17847  23.561  14.667  12.930
49630W        W17848  41.295  29.985   2.044
49631W        W17849  37.780  16.206   0.257
49632W        W17850  20.576  14.305  12.988
49633W        W17851  10.661  30.924   2.410
49634W        W17852   8.777   1.504  14.919
49635W        W17853  22.618  40.081   4.121
49636W        W17854  19.142   9.477   2.709
49637W        W17855   3.832  35.240   4.547
49638W        W17856   4.322  27.228  13.024
49639W        W17857  18.681  36.637  10.580
49640W        W17858  13.789  26.024   2.937
49641W        W17859  23.632   5.293   1.885
49642W        W17860  39.341  19.203  13.369
49643W        W17861   4.955  29.223   2.359
49644W        W17862   8.473   2.212   3.633
49645W        W17863  22.225  31.812  12.597
49646W        W17864  24.787   0.527  12.953
49647W        W17865  18.065  36.942   3.687
49648W        W17866   0.425   2.901  13.420
49649W        W17867  38.653   6.312   1.210
49650W        W17868  26.970  18.166   4.770
49651W        W17869  23.973  33.345   9.886
49652W        W17870  25.990   6.383   1.345
49653W        W17871  15.031   6.381  13.172
49654W        W17872  39.449  34.995  13.127
49655W        W17873  13.645  24.778  12.858
49656W        W17874  33.966  16.841  13.488
49657W        W17875  22.563  28.729   1.995
49658W        W17876  16.119  16.703  11.512
49659W        W17877  15.773  31.100  14.058
49660W        W17878   9.875  35.944  11.620
49661W        W17879  11.770   8.253  11.002
49662W        W17880  40.226   4.392  10.287
49663W        W17881  14.845  24.830   1.861
49664W        W17882  14.095  31.599   1.145
49665W        W17883  19.178  14.358  13.782
49666W        W17884  33.111  24.800  13.665
49667W        W17885  31.067  19.663   2.122
49668W        W17886   5.206  31.414  12.293
49669W        W17887  25.160   7.209  13.343
49670W        W17888  35.919  37.516   0.702
49671W        W17889   6.876  12.131  11.607
49672W        W17890  39.902  25.308   2.153
49673W        W17891   3.456  40.473  10.409
49674W        W17892  18.717  26.228   4.200
49675W        W17893  20.263  22.687  13.089
49676W        W17894  41.057  44.491  11.515
49677W        W17895  17.549  25.102   2.545
49678W        W17896  41.396  39.896  10.902
49679W        W17897  18.524   1.005   0.327
49680W        W17898  38.057  21.255   4.393
49681W        W17899   0.031  13.673   3.265
49682W        W17900  18.585   9.824   0.194
49683W        W17901   2.389  30.170   1.816
49684W        W17902  30.994   8.775  10.567
49685W        W17903  33.024  23.530   1.179
49686W        W17904  15.693  13.264   1.898
49687W        W17905  15.769   6.328  13.485
49688W        W17906  32.554   4.816   2.653
49689W        W17907  28.033   9.309   4.658
49690W        W17908  23.166  36.309  14.292
49691W        W17909   9.215   9.214  12.428
49692W        W17910  25.460  39.472   2.264
49693W        W17911  21.256  10.273  14.863
49694W        W17912  28.957  38.448  12.857
49695W        W17913  39.206  22.832   2.903
49696W        W17914  26.666  43.741  10.513
49697W        W17915  39.802   5.606   0.471
49698W        W17916   4.468   2.384  12.238
49699W        W17917  27.720  18.167   5.500
49700W        W17918  40.824  39.479  14.642
49701W        W17919   4.909   3.799   0.354
49702W        W17920  17.590  26.151  12.335
49703W        W17921  21.228  10.974  11.082
49704W        W17922  24.087   2.819  12.313
49705W        W17923  39.017  11.977  12.515
49706W        W17924  42.894  19.857  12.917
49707W        W17925  17.650   1.735  10.654
49708W        W17926   7.170   8.789  13.851
49709W        W17927  32.724  26.433   2.844
49710W        W17928  32.934  28.097   3.582
49711W        W17929   1.010  11.897  12.052
49712W        W17930  33.670  34.471   1.734
49713W        W17931   1.255  44.863   2.714
49714W        W17932  35.639  13.793  11.898
49715W        W17933  31.263   2.038   4.108
49716W        W17934  23.452  37.126  11.110
49717W        W17935  10.427  36.531   1.723
49718W        W17936   4.879  29.200  11.240
49719W        W17937  38.124  30.152  13.466
49720W        W17938  19.583  41.060   3.164
49721W        W17939   9.497  15.042   4.139
49722W        W17940  12.603  31.968   0.832
49723W        W17941  39.364  38.813  14.195
49724W        W17942  38.796   3.752   1.901
49725W        W17943  20.457   1.239  10.469
49726W        W17944  24.138  15.602   1.178
49727W        W17945   6.542  30.391  10.177
49728W        W17946  17.499  19.783   2.675
49729W        W17947  20.600  30.534   1.450
49730W        W17948   3.423  21.203   0.749
49731W        W17949  15.088  15.104  11.991
49732W        W17950   5.840   8.162  12.519
49733W        W17951  11.783   1.911  10.980
49734W        W17952  15.175  35.316   0.489
49735W        W17953  15.799  31.768  10.474
49736W        W17954  27.746  37.334  11.093
49737W        W17955  36.817  18.673   3.642
49738W        W17956  29.084  22.052  13.533
49739W        W17957  43.371  30.603   5.062
49740W        W17958  23.118  19.134   0.050
49741W        W17959  32.570  29.903  14.865
49742W        W17960  15.914  29.148   1.453
49743W        W17961  22.011  26.218   2.059
49744W        W17962  21.309  20.476  11.928
49745W        W17963  27.981   1.019   4.684
49746W        W17964  33.676  15.202   2.900
49747W        W17965  16.570  41.280  14.575
49748W        W17966  13.036  26.067  14.922
49749W        W17967  13.743  16.975  10.995
49750W        W17968  30.991  16.197  11.782
49751W        W17969  41.976  32.025  13.489
49752W        W17970  30.197  28.195   3.264
49753W        W17971  26.091   7.532  12.251
49754W        W17972  35.834  17.692   4.971
49755W        W17973   1.835   2.522  13.407
49756W        W17974   6.376   0.716   3.209
49757W        W17975  23.589  16.585  14.461
49758W        W17976  39.127  17.066  13.113
49759W        W17977   2.659  11.714  13.404
49760W        W17978  37.004  14.263   3.583
49761W        W17979  44.811   6.435  13.507
49762W        W17980   0.686  40.847   1.824
49763W        W17981   1.485   5.702  11.030
49764W        W17982  15.969  20.542   0.889
49765W        W17983  31.625  25.687  11.386
49766W        W17984  26.923  27.557   3.709
49767W        W17985   5.133  32.054   4.298
49768W        W17986   9.358  10.355   2.337
49769W        W17987  31.932  40.043  10.902
49770W        W17988  13.179  22.915  14.956
49771W        W17989  30.649   5.215   0.966
49772W        W17990  25.037  32.371  14.387
49773W        W17991  15.768   5.704  14.042
49774W        W17992  29.643  13.390  11.057
49775W        W17993  24.651  40.530  10.727
49776W        W17994  11.355  28.659  12.881
49777W        W17995  23.431  25.075  11.112
49778W        W17996  28.176  28.185   1.692
49779W        W17997  36.145   3.498   0.379
49780W        W17998  17.668   3.738   0.457
49781W        W17999  33.865  36.937  12.088
49782W        W18000  18.018   2.491  10.739
49783W        W18001   1.258   4.707  11.106
49784W        W18002  30.842   2.712  14.391
49785W        W18003   1.166  31.046  13.003
49786W        W18004  31.860  18.993  13.298
49787W        W18005  32.575  44.257  13.455
49788W        W18006  44.833  29.676   1.334
49789W        W18007  26.193  31.538  12.220
49790W        W18008  35.912  23.271  10.749
49791W        W18009  39.682  38.137  12.022
49792W        W18010  37.421  22.806   3.323
49793W        W18011   3.110  29.585   5.061
49794W        W18012   3.323  43.822  14.965
49795W        W18013  20.180  36.939  10.734
49796W        W18014  15.104   4.503  10.767
49797W        W18015   6.296   1.647  13.978
49798W        W18016  20.652  38.295   3.745
49799W        W18017  29.943  29.167  10.353
49800W        W18018  15.475  31.863   2.401
49801W        W18019  33.101   1.847   0.177
49802W        W18020   7.213  44.138  12.608
49803W        W18021  30.669  15.318  11.429
49804W        W18022  22.953  33.055   4.163
49805W        W18023  43.450  22.720  14.837
49806W        W18024  13.139  30.186   0.735
49807W        W18025  14.776  43.965   2.568
49808W        W18026   9.698  32.583  10.739
49809W        W18027  30.895  42.422   1.225
49810W        W18028  29.011  25.154   1.078
49811W        W18029  27.389   9.523  13.963
49812W        W18030   0.396  33.598  10.807
49813W        W18031   9.659  43.072   3.146
49814W        W18032  29.184  41.396   2.342
49815W        W18033  20.735  40.002   1.907
49816W        W18034  26.864  27.365   4.228
49817W        W18035  30.291  17.171   5.214
49818W        W18036  18.766   0.272  10.796
49819W        W18037  36.927  31.281  11.630
49820W        W18038  24.259  17.460  11.058
49821W        W18039  30.036  31.972   4.136
49822W        W18040  28.721  34.992   4.746
49823W        W18041   0.066  18.557   1.183
49824W        W18042  24.065  22.664  13.792
49825W        W18043   7.422  19.573  13.162
49826W        W18044  33.100   3.316  11.192
49827W        W18045  27.976  16.636  11.404
49828W        W18046  29.600  10.236   0.231
49829W        W18047  33.965   5.962  10.644
49830W        W18048  17.253  18.168  12.797
49831W        W18049  25.288  20.541   0.371
49832W        W18050  26.971  31.216   0.525
49833W        W18051  23.435  19.414   2.224
49834W        W18052  24.373  38.886  11.064
49835W        W18053  19.963  17.699  11.088
49836W        W18054  10.302  14.766   5.015
49837W        W18055  39.843  11.027   1.543
49838W        W18056  35.551  31.412  14.435
49839W        W18057  29.439   4.667  14.583
49840W        W18058   6.394  42.941  13.517
49841W        W18059   3.715   2.938   0.626
49842W        W18060  11.588  30.096  12.990
49843W        W18061  19.298  44.214  13.032
49844W        W18062  24.614  35.821  11.876
49845W        W18063  34.056  26.449   2.780
49846W        W18064  18.015  44.782  10.963
49847W        W18065  25.184  22.519   4.492
49848W        W18066  11.341  18.799  14.306
49849W        W18067  31.191  17.797  13.207
49850W        W18068   1.387   3.474   4.626
49851W        W18069  40.041  17.089  11.176
49852W        W18070  16.133  31.037   2.408
49853W        W18071  10.105   6.199  11.498
49854W        W18072  17.504  26.709   0.020
49855W        W18073  16.643   6.390  12.639
49856W        W18074  15.868   8.245   3.668
49857W        W18075  16.557  35.278   1.933
49858W        W18076  36.272  27.417  14.787
49859W        W18077  38.239  24.135  12.577
49860W        W18078  26.557  36.097  14.517
49861W        W18079  36.889  39.469   3.661
49862W        W18080  29.168  40.968  11.090
49863W        W18081  44.066  29.883   2.288
49864W        W18082  29.468  10.620  11.656
49865W        W18083  16.313  17.051  10.582
49866W        W18084   8.228   3.451   0.538
49867W        W18085   4.295  12.068   3.645
49868W        W18086   4.317   6.749   2.371
49869W        W18087  24.989  32.906  10.576
49870W        W18088  12.708  17.524   0.317
49871W        W18089  27.262  29.433   0.048
49872W        W18090  22.753   8.304  14.490
49873W        W18091  33.666  21.541  11.603
49874W        W18092  29.919   2.207   4.283
49875W        W18093  22.234  20.996  12.770
49876W        W18094  35.393  35.371   2.905
49877W        W18095  44.940  19.050   3.805
49878W        W18096   8.752  35.702  13.080
49879W        W18097   5.318  13.844  14.957
49880W        W18098  38.363   0.314   4.536
49881W        W18099   1.239  36.932   2.945
49882W        W18100   1.485  16.377   2.434
49883W        W18101   5.429  23.710   3.403
49884W        W18102  30.686   1.979   2.902
49885W        W18103  12.844   9.847  13.765
49886W        W18104  14.734   8.131   0.337
49887W        W18105   9.733  17.018  14.053
49888W        W18106  31.818   4.398  11.783
49889W        W18107  40.968  11.620   2.097
49890W        W18108  36.364  16.452   3.330
49891W        W18109  22.015  12.809   2.981
49892W        W18110  25.970  31.934  13.535
49893W        W18111  25.224  28.667   0.308
49894W        W18112  18.122  10.380   3.104
49895W        W18113  27.732  23.427  13.951
49896W        W18114  14.715  29.547   0.170
49897W        W18115  32.904  29.785   2.622
49898W        W18116  39.748  29.535  11.316
49899W        W18117  28.527  17.156   1.225
49900W        W18118  17.191  40.078  14.487
49901W        W18119   7.274  32.608   1.177
49902W        W18120  25.198  24.254   3.206
49903W        W18121  38.014  44.852   2.843
49904W        W18122   1.265   5.954  11.440
49905W        W18123  14.724  41.263  14.327
49906W        W18124   8.248  19.598   0.676
49907W        W18125  26.925  43.484  12.590
49908W        W18126  30.813  17.670   3.274
49909W        W18127  35.439   5.983   2.316
49910W        W18128   1.330  11.343   3.344
49911W        W18129  16.163  13.992   3.184
49912W        W18130  41.730  30.564   4.140
49913W        W18131   0.720  43.698   4.972
49914W        W18132   1.825   0.784  14.373
49915W        W18133  11.385  40.663   1.408
49916W        W18134  34.924  20.771   2.860
49917W        W18135   5.722   7.191  11.622
49918W        W18136  14.690  28.062   3.252
49919W        W18137  39.412  35.658   3.237
49920W        W18138  10.280  22.259  12.632
49921W        W18139   6.651  33.538  13.448
49922W        W18140  10.897   3.948   0.786
49923W        W18141  29.549   2.685  12.525
49924W        W18142   4.246   2.339  10.728
49925W        W18143  26.910  40.634   2.863
49926W        W18144  43.982  27.661   3.483
49927W        W18145  13.496  23.611  13.807
49928W        W18146  39.862   5.104   0.611
49929W        W18147  18.282  29.689  13.557
49930W        W18148  10.110  20.291   2.753
49931W        W18149  20.610  14.297   1.433
49932W        W18150  39.905   2.561  12.980
49933W        W18151   3.503  27.063  12.374
49934W        W18152   9.248  19.192   3.355
49935W        W18153  43.348  24.074   4.268
49936W        W18154  22.510  34.557  11.655
49937W        W18155  40.013  24.075  12.458
49938W        W18156  19.647  28.680  12.192
49939W        W18157  39.597  31.987   3.106
49940W        W18158   9.520  30.664  11.136
49941W        W18159   3.256  30.112  11.414
49942W        W18160  25.369  27.623  11.571
49943W        W18161  36.273  27.923  14.698
49944W        W18162  32.871  11.673  13.390
49945W        W18163  25.475  37.911  10.815
49946W        W18164  11.262   9.302  10.908
49947W        W18165  27.957   7.433  11.257
49948W        W18166  28.610  15.578  12.657
49949W        W18167  12.212  33.822  14.320
49950W        W18168  15.534  36.803   1.863
49951W        W18169  35.117  10.220  12.824
49952W        W18170   4.741  36.665  13.415
49953W        W18171   7.400  11.247   0.939
49954W        W18172  22.592  10.077   0.402
49955W        W18173  23.909  29.985   2.913
49956W        W18174  17.304  20.001   1.828
49957W        W18175  32.862  20.011  14.578
49958W        W18176  21.240   7.822   3.261
49959W        W18177  32.511  12.341   0.280
49960W        W18178  24.746  15.549  12.453
49961W        W18179  33.221  29.137  14.523
49962W        W18180  43.366  20.350  14.768
49963W        W18181  42.995  12.875   2.847
49964W        W18182  32.631  25.655   0.204
49965W        W18183   6.296  30.640  13.621
49966W        W18184   0.955  29.224   2.273
49967W        W18185  20.746  12.659   0.833
49968W        W18186  33.415  43.313   0.574
49969W        W18187  23.784  30.634   0.716
49970W        W18188  13.735  29.890   3.327
49971W        W18189   5.075  28.955   3.780
49972W        W18190  12.769   0.966  14.900
49973W        W18191   9.329  34.826   0.829
49974W        W18192  28.901   6.846  14.010
49975W        W18193   7.145  31.114  13.006
49976W        W18194  19.878   5.180  14.368
49977W        W18195  19.084   0.291   0.072
49978W        W18196  37.519   8.875  11.516
49979W        W18197  30.147  24.417  14.897
49980W        W18198  20.836  40.867  11.629
49981W        W18199  25.464  26.879  14.127
49982W        W18200  27.943  21.284   4.722
49983W        W18201  15.834   3.890   0.097
49984W        W18202  32.363   7.404  14.708
49985W        W18203  13.692   1.633  12.135
49986W        W18204  21.473  24.674  14.076
49987W        W18205  23.128   3.163   3.636
49988W        W18206  10.912  44.317  14.598
49989W        W18207  27.427  25.708  10.632
49990W        W18208  40.355  18.721   4.633
49991W        W18209  14.187  42.071   4.176
49992W        W18210  38.463   4.261  12.017
49993W        W18211  36.023  11.827   4.447
49994W        W18212  25.279  33.996   0.910
49995W        W18213  44.463  41.514   0.770
49996W        W18214  41.384  11.745   4.886
49997W        W18215   2.864  24.669   3.726
49998W        W18216   7.178  24.317   1.225
49999W        W18217  14.286   6.788  11.702
50000W        W18218   6.633  17.558   3.651
50001W        W18219  20.737  35.852   0.397
50002W        W18220   5.446  43.683  13.395
50003W        W18221   3.365  13.327   1.984
50004W        W18222  42.785   0.735   0.527
50005W        W18223   9.793  30.038  13.987
50006W        W18224  44.919  38.493   2.603
50007W        W18225  42.259   3.238   2.721
50008W        W18226  37.294  13.419  13.497
50009W        W18227   7.998  15.647   2.738
50010W        W18228  24.980   5.839  14.900
50011W        W18229  27.968   8.283  10.715
50012W        W18230  24.620  15.345   4.127
50013W        W18231  29.676   7.119  11.624
50014W        W18232  13.129  12.213   0.999
50015W        W18233   1.594  13.138  14.462
50016W        W18234  20.737  31.082  12.545
50017W        W18235   3.003   8.711   3.375
50018W        W18236  39.532  41.456  13.080
50019W        W18237  19.294  13.600  11.198
50020W        W18238   3.191  35.938  12.945
50021W        W18239  23.562   1.046   3.225
50022W        W18240  15.280   7.558  14.901
50023W        W18241  16.227  10.343  13.139
50024W        W18242   8.453  38.808   1.718
50025W        W18243  24.492  23.098  13.011
50026W        W18244  44.287  19.363   1.497
50027W        W18245   6.559  27.059   3.972
50028W        W18246  12.879  25.201   0.428
50029W        W18247  19.867  33.269  10.840
50030W        W18248  15.100  17.853  14.440
50031W        W18249   7.153   8.472  12.226
50032W        W18250  37.123  37.960   4.567
50033W        W18251  30.893   4.316   2.357
50034W        W18252  32.944  19.672  13.781
50035W        W18253  23.540  36.690  10.780
50036W        W18254  44.089   5.794  11.254
50037W        W18255  20.532  32.470  12.903
50038W        W18256  21.643   3.481   2.838
50039W        W18257  23.388  34.551  11.191
50040W        W18258  36.680   5.634   3.257
50041W        W18259  14.510   9.818   0.265
50042W        W18260  24.542  20.164   4.145
50043W        W18261  35.267  44.512   2.218
50044W        W18262  11.341  44.233  14.891
50045W        W18263  40.300   7.877  13.943
50046W        W18264  34.278  15.273   4.798
50047W        W18265  11.405   4.424  14.096
50048W        W18266  25.161  26.038   2.235
50049W        W18267   5.218  16.129   3.907
50050W        W18268  27.729  40.137  13.910
50051W        W18269  36.428   9.960  10.886
50052W        W18270   0.062  36.168  11.179
50053W        W18271  37.892  32.527  11.680
50054W        W18272  42.423   6.215   3.811
50055W        W18273  19.073  10.972   4.674
50056W        W18274  11.280  10.608  12.615
50057W        W18275   7.287  18.763   0.285
50058W        W18276  30.755  11.195  12.901
50059W        W18277  34.470  38.805   0.902
50060W        W18278  40.798  43.303   3.869
50061W        W18279   1.788   4.205  12.497
50062W        W18280  42.316   3.550   2.213
50063W        W18281  25.131  33.951   4.063
50064W        W18282  14.568  25.072  14.600
50065W        W18283   5.188  26.147   0.170
50066W        W18284  26.717  44.839   1.245
50067W        W18285   4.828  18.159  14.403
50068W        W18286  24.398  26.928   4.279
50069W        W18287   8.904  40.945  14.397
50070W        W18288  32.876   7.434  11.150
50071W        W18289  41.195   6.364  10.693
50072W        W18290  31.142   7.901  11.658
50073W        W18291  33.670   2.206   1.370
50074W        W18292  24.655  12.837  13.483
50075W        W18293  11.554   4.252  14.547
50076W        W18294  23.115   5.393   4.495
50077W        W18295  14.563  22.243   1.800
50078W        W18296  38.186  37.023   4.580
50079W        W18297   4.821   3.235   3.777
50080W        W18298  10.360  44.215   1.936
50081W        W18299  39.911   6.818   4.860
50082W        W18300  40.376  38.145   3.698
50083W        W18301  20.281  38.398  10.339
50084W        W18302  40.992  41.684   1.168
50085W        W18303   5.621  39.965   3.648
50086W        W18304  28.680  15.322  11.310
50087W        W18305  22.794   7.426  14.385
50088W        W18306  11.131  27.832  12.472
50089W        W18307   5.410  36.871   3.107
50090W        W18308  32.704  17.245   1.391
50091W        W18309   0.304  36.823   0.922
50092W        W18310  12.333  39.339  14.805
50093W        W18311  11.921   7.528  13.920
50094W        W18312  10.550   2.704  14.796
50095W        W18313  42.490   0.772  13.335
50096W        W18314  40.164  10.500   4.227
50097W        W18315  29.624  15.042   3.660
50098W        W18316  35.354  19.103  11.142
50099W        W18317  24.639   3.659  12.516
50100W        W18318  22.719  26.189   2.236
50101W        W18319  38.473  27.894  12.081
50102W        W18320   1.307   4.460  11.545
50103W        W18321   8.244  22.324  13.075
50104W        W18322  22.365  29.943  11.850
50105W        W18323  18.752   2.428   4.526
50106W        W18324  29.845  13.560   3.660
50107W        W18325  44.157  18.026   4.573
50108W        W18326  23.709  22.987   3.242
50109W        W18327  15.814  12.714   1.268
50110W        W18328  30.043  10.228  14.982
50111W        W18329  38.852  18.012  14.842
50112W        W18330  25.591  42.124  11.672
50113W        W18331  28.074  38.416  14.270
50114W        W18332  17.219  16.591  10.737
50115W        W18333  32.386   3.477   1.801
50116W        W18334  34.123  23.212  14.188
50117W        W18335  42.524  29.659   3.791
50118W        W18336  13.766  14.696   4.200
50119W        W18337  17.981   2.824  13.982
50120W        W18338   1.119   9.919   0.861
50121W        W18339  11.126   5.833   0.742
50122W        W18340  43.726   6.288   3.282
50123W        W18341  26.206  32.030   2.249
50124W        W18342  41.260   9.908   1.454
50125W        W18343  24.065  19.708  14.877
50126W        W18344  12.196  17.088   0.913
50127W        W18345   0.952  10.664  13.814
50128W        W18346  10.092  23.805   2.333
50129W        W18347  21.064  35.330  12.132
50130W        W18348  39.930  38.771   3.995
50131W        W18349  18.284  30.160   4.305
50132W        W18350  19.845  38.650  14.237
50133W        W18351  22.683  44.027  14.731
50134W        W18352  18.448  17.353   5.020
50135W        W18353  30.707  31.553   1.220
50136W        W18354  12.573  16.108  12.052
50137W        W18355   3.942  16.122   0.940
50138W        W18356  39.765   6.315  13.105
50139W        W18357  14.665  37.761  12.835
50140W        W18358  29.958   3.458   0.961
50141W        W18359   0.941  44.933   3.520
50142W        W18360  40.106  24.274   3.770
50143W        W18361  22.118   9.635  12.370
50144W        W18362  26.508  41.962   5.089
50145W        W18363  10.442  26.063  12.062
50146W        W18364  35.348   6.987   4.572
50147W        W18365  40.213  34.108   2.610
50148W        W18366  24.234  35.013  10.408
50149W        W18367   5.133  13.648   3.727
50150W        W18368  31.474  29.478   4.590
50151W        W18369   5.249   9.005  13.018
50152W        W18370  29.476   9.927  12.972
50153W        W18371  35.576   8.190  11.823
50154W        W18372  31.942  31.689  12.127
50155W        W18373  41.689  11.197  11.573
50156W        W18374  44.105  10.276  11.945
50157W        W18375  44.222   8.149  11.970
50158W        W18376  23.727  24.648   0.758
50159W        W18377   3.227   8.159   0.798
50160W        W18378   5.459  23.545   4.705
50161W        W18379  22.499   0.058   3.171
50162W        W18380  29.430  13.234   1.889
50163W        W18381   6.289   8.610  13.397
50164W        W18382  44.457  24.983   2.712
50165W        W18383  20.083  29.045   1.481
50166W        W18384   4.409  37.948   1.637
50167W        W18385   7.748  17.822  13.551
50168W        W18386  30.482  34.663   4.101
50169W        W18387  42.345  29.590   5.110
50170W        W18388  38.896  40.034  14.726
50171W        W18389  41.496  28.572  11.045
50172W        W18390  31.635  39.042   1.373
50173W        W18391  13.902  11.262  10.838
50174W        W18392  38.471  25.213   3.921
50175W        W18393  40.083   7.615  10.747
50176W        W18394   5.419  30.113  14.840
50177W        W18395   9.792  24.914   3.684
50178W        W18396  20.689  16.614  12.621
50179W        W18397  11.857  34.938  12.503
50180W        W18398   1.744  10.681   2.209
50181W        W18399  31.019  22.114   1.765
50182W        W18400  12.792   9.118  14.984
50183W        W18401  23.186  43.493  11.248
50184W        W18402   0.932  25.720  13.127
50185W        W18403   4.740  23.363  12.649
50186W        W18404  22.321  26.386  14.805
50187W        W18405  15.682   1.951  14.848
50188W        W18406  13.139  36.466   3.315
50189W        W18407  43.982  25.980   0.444
50190W        W18408  12.577  22.208   3.680
50191W        W18409  24.663   9.370   3.311
50192W        W18410  16.613  22.599  12.824
50193W        W18411  35.474  12.531   0.200
50194W        W18412  22.432  13.877   4.875
50195W        W18413  23.335  11.184  10.597
50196W        W18414   1.534  17.644   0.337
50197W        W18415  25.603  32.662   2.740
50198W        W18416  14.111  44.777   2.420
50199W        W18417  44.087  17.602  11.873
50200W        W18418  36.718  39.785  11.634
50201W        W18419   9.212  30.256   2.666
50202W        W18420  19.040  42.970   1.302
50203W        W18421  26.278  10.192  10.691
50204W        W18422   2.444  34.847   2.198
50205W        W18423  16.366   0.937   2.286
50206W        W18424  21.119  28.946  10.833
50207W        W18425  38.481   3.997  14.301
50208W        W18426  10.898  26.670   2.169
50209W        W18427   9.107  28.432   3.068
50210W        W18428  14.792  41.061  12.611
50211W        W18429   3.330  18.303  12.461
50212W        W18430   2.482  16.867  14.213
50213W        W18431  20.590  13.898   3.316
50214W        W18432  42.440  17.253  13.140
50215W        W18433  14.173  43.879  10.936
50216W        W18434  38.492   6.006  13.368
50217W        W18435  30.438  31.660  11.446
50218W        W18436  42.307  44.217  14.749
50219W        W18437   8.594  43.874  11.497
50220W        W18438  11.112   8.229   2.448
50221W        W18439  33.519  11.106  14.616
50222W        W18440  31.971  24.544  14.728
50223W        W18441  44.698  33.440  12.542
50224W        W18442  36.597  16.365  13.756
50225W        W18443  18.254   5.077   3.321
50226W        W18444  44.258  31.988  12.154
50227W        W18445   4.767   1.878  10.648
50228W        W18446  11.266  23.637  11.652
50229W        W18447  36.594  37.935  12.109
50230W        W18448  13.899  29.991   4.495
50231W        W18449   0.893  29.216   0.926
50232W        W18450  26.323  41.768   0.500
50233W        W18451  22.570  29.203   4.146
50234W        W18452  25.133  32.816   1.439
50235W        W18453  37.860   2.852   2.767
50236W        W18454  39.677  37.921  11.493
50237W        W18455   7.712  19.404  14.710
50238W        W18456  43.854  35.800  13.400
50239W        W18457  38.111  17.267   0.737
50240W        W18458  26.416   2.015  12.402
50241W        W18459  41.748  34.537  13.086
50242W        W18460  27.663  22.058  11.025
50243W        W18461  20.188  23.402   4.345
50244W        W18462  16.169  28.772   0.445
50245W        W18463  28.383  30.961  13.077
50246W        W18464  16.853  34.376  14.355
50247W        W18465  24.481   0.903  11.522
50248W        W18466  23.632  28.895  14.270
50249W        W18467  23.743  23.488   3.151
50250W        W18468  26.153  11.553  13.562
50251W        W18469   4.988  44.441   1.932
50252W        W18470   1.832  39.468   3.379
50253W        W18471   6.546  24.200   4.187
50254W        W18472  31.350  38.057   0.782
50255W        W18473  31.593  14.953   0.771
50256W        W18474  32.912  20.108  11.280
50257W        W18475  29.338  18.772  14.088
50258W        W18476  13.651   7.371   0.751
50259W        W18477  17.681  30.362  10.642
50260W        W18478   8.275  41.815   1.527
50261W        W18479   8.739  41.593  13.321
50262W        W18480  16.698  34.273   1.625
50263W        W18481  17.345  31.006   3.221
50264W        W18482  20.717  20.270  13.980
50265W        W18483  14.455   6.041   1.720
50266W        W18484  29.104   2.232   0.448
50267W        W18485  17.273  29.609  11.642
50268W        W18486  24.495  36.922   4.376
50269W        W18487   0.723  35.392  11.213
50270W        W18488  11.187  41.928   3.193
50271W        W18489  44.982  39.398  13.553
50272W        W18490  37.479   1.721   2.332
50273W        W18491  38.666  20.787  13.895
50274W        W18492  40.032   7.425  13.835
50275W        W18493  40.392  34.899   4.648
50276W        W18494   2.222  39.513  12.031
50277W        W18495  15.744  29.434   2.696
50278W        W18496  37.704  15.989   2.325
50279W        W18497  20.568  22.020  11.140
50280W        W18498  25.150  35.110   1.898
50281W        W18499  28.099  23.049   0.792
50282W        W18500  27.059  35.970   2.341
50283W        W18501   2.289  18.768  14.836
50284W        W18502  17.401   4.574   4.154
50285W        W18503  31.130  18.196   1.386
50286W        W18504  24.017  44.728   4.584
50287W        W18505  33.150  44.995   4.263
50288W        W18506  11.796  36.818   0.884
50289W        W18507  30.532  21.065   2.369
50290W        W18508   8.860   5.112   4.505
50291W        W18509  34.853  11.448   1.441
50292W        W18510  29.487  36.461  11.498
50293W        W18511  28.764  26.643  10.616
50294W        W18512  18.726   4.637  10.652
50295W        W18513  19.823   6.952  12.255
50296W        W18514  27.984  27.930   4.613
50297W        W18515  33.705  37.448   2.779
50298W        W18516  21.507  44.764   1.763
50299W        W18517   0.625  12.118   0.421
50300W        W18518  40.814  20.630   4.663
50301W        W18519  40.217  21.081  11.024
50302W        W18520   6.916  17.693  12.939
50303W        W18521  41.768  39.387   0.039
50304W        W18522  18.671   4.455  12.421
50305W        W18523  14.907  44.718  12.014
50306W        W18524  10.807   8.194  12.828
50307W        W18525  38.939  21.047  11.444
50308W        W18526  44.045  30.149  11.588
50309W        W18527  30.503  31.909  10.464
50310W        W18528  10.144  28.708   0.350
50311W        W18529   7.321  37.039  12.883
50312W        W18530  31.797  39.886   3.622
50313W        W18531  44.977  12.378  14.753
50314W        W18532   6.187  35.015   4.103
50315W        W18533   7.267  39.736   2.822
50316W        W18534  12.818  36.306   4.078
50317W        W18535  23.198  31.548   0.280
50318W        W18536  37.613   9.429   2.748
50319W        W18537  15.338   6.792   3.646
50320W        W18538  19.023  13.601   3.079
50321W        W18539  17.833  26.169   3.711
50322W        W18540  16.245  24.691   2.632
50323W        W18541   0.802   7.228  12.914
50324W        W18542   0.670  19.560   1.375
50325W        W18543  17.093   7.240   3.655
50326W        W18544   2.962   4.462  14.883
50327W        W18545  27.056  12.801  11.081
50328W        W18546  33.399   5.340   2.088
50329W        W18547   6.725  34.136  12.888
50330W        W18548  28.595  25.216  11.485
50331W        W18549  34.994  21.226   2.384
50332W        W18550  21.328  43.486   0.323
50333W        W18551  34.851  15.314  12.368
50334W        W18552  27.704  41.314  11.174
50335W        W18553  33.013  39.935   1.931
50336W        W18554  11.256   4.411   2.699
50337W        W18555  20.557  26.178   0.891
50338W        W18556  15.614  12.787  11.127
50339W        W18557  22.834   0.874   4.923
50340W        W18558  17.102   3.949  11.046
50341W        W18559  43.566   3.188  13.991
50342W        W18560  29.407  23.784   5.113
50343W        W18561  32.884  20.046  10.771
50344W        W18562   4.991  21.472   2.776
50345W        W18563  13.128   0.339  13.365
50346W        W18564  37.572   2.735   3.302
50347W        W18565  14.244   2.652   3.750
50348W        W18566  25.988  16.016   3.543
50349W        W18567  13.656  11.795  10.871
50350W        W18568   5.185  28.055  14.453
50351W        W18569  14.969  42.516  12.237
50352W        W18570   4.726  43.243   0.007
50353W        W18571  28.373  27.651  10.603
50354W        W18572   5.511   2.857   1.868
50355W        W18573  20.430   3.844   0.412
50356W        W18574  30.330  12.448   3.067
50357W        W18575  30.717   1.815   3.379
50358W        W18576  44.715  30.918  12.960
50359W        W18577   0.034   0.358   4.150
50360W        W18578  39.719  38.968   3.231
50361W        W18579   3.997  41.857   1.731
50362W        W18580   6.109  44.899   0.017
50363W        W18581  20.994  19.517  11.053
50364W        W18582  14.243  12.391  13.827
50365W        W18583  19.349   9.626   2.259
50366W        W18584  14.788  15.850  14.900
50367W        W18585  30.903  30.640  12.899
50368W        W18586  11.639   6.930  12.855
50369W        W18587  28.564   1.435  11.046
50370W        W18588  42.867  16.005  11.095
50371W        W18589  29.427  39.094  14.282
50372W        W18590   9.091   2.891  11.636
50373W        W18591  24.229  33.994  14.123
50374W        W18592   0.404  27.623   2.919
50375W        W18593   2.895  24.447   3.278
50376W        W18594  10.725  44.973   1.454
50377W        W18595  38.604  15.231  11.268
50378W        W18596  10.701  17.586   0.968
50379W        W18597  36.852  24.525   0.292
50380W        W18598  28.030  12.666   0.960
50381W        W18599  19.837   4.502   0.808
50382W        W18600  14.811   4.639  11.218
50383W        W18601  43.860  37.664   4.689
50384W        W18602   8.857   8.217  12.603
50385W        W18603  40.064  19.158   3.632
50386W        W18604   3.777  14.780   4.116
50387W        W18605   8.945  17.094   1.310
50388W        W18606  32.647  11.356   4.860
50389W        W18607  26.026   9.187  12.762
50390W        W18608   4.857  31.092  11.581
50391W        W18609  10.898   7.326   4.496
50392W        W18610   4.764  30.579   3.135
50393W        W18611  18.776  40.146   2.074
50394W        W18612   7.405  28.127  14.940
50395W        W18613  29.104  23.195  12.147
50396W        W18614  14.683  37.886   4.244
50397W        W18615   7.949  36.575  11.550
50398W        W18616   4.020   9.813  14.830
50399W        W18617  21.770  36.562   9.856
50400W        W18618  19.148  29.354  14.076
50401W        W18619  42.973  32.808  12.416
50402W        W18620  20.446   6.836  13.169
50403W        W18621  19.646  10.570  14.985
50404W        W18622  40.237   5.638  11.622
50405W        W18623  36.802  19.877   2.302
50406W        W18624  13.239  29.695  13.517
50407W        W18625  25.592  35.923   1.738
50408W        W18626  22.493  24.700  12.912
50409W        W18627  36.073  21.205   2.657
50410W        W18628  15.870  32.405   2.311
50411W        W18629   0.245  13.250   3.068
50412W        W18630  43.371  22.598  14.333
50413W        W18631  12.813  22.432   2.367
50414W        W18632  23.595   3.699   4.101
50415W        W18633   5.130  32.278   0.347
50416W        W18634  20.822  11.404   2.300
50417W        W18635  11.520  31.467  11.923
50418W        W18636  28.020  28.440   3.355
50419W        W18637  43.911   7.681  11.242
50420W        W18638  15.350  24.329  13.882
50421W        W18639  26.953  22.721  12.535
50422W        W18640  24.842  18.887   0.919
50423W        W18641  10.713   6.712   0.325
50424W        W18642  20.042   2.397   4.105
50425W        W18643  10.134  25.741   2.316
50426W        W18644  26.327   2.890   4.165
50427W        W18645   3.659  37.431  12.718
50428W        W18646  17.713  23.532   3.378
50429W        W18647   8.647  42.857  12.839
50430W        W18648  19.666  14.404   1.122
50431W        W18649   9.322  27.452   2.397
50432W        W18650   8.363  12.763   1.058
50433W        W18651  16.237   6.734   2.136
50434W        W18652  11.524  19.049  14.764
50435W        W18653  44.714  15.198  14.369
50436W        W18654   6.125  41.877   3.720
50437W        W18655   0.854   0.242  11.238
50438W        W18656   7.468  15.595   1.177
50439W        W18657  43.883  35.848   2.799
50440W        W18658   5.001  25.440  11.222
50441W        W18659  23.663  11.294  10.975
50442W        W18660   8.895  21.259  12.480
50443W        W18661   5.443  21.556  12.481
50444W        W18662  41.452  40.071  14.254
50445W        W18663  15.068  35.921   2.711
50446W        W18664  21.100   9.898  12.023
50447W        W18665  14.421  23.680  14.937
50448W        W18666  26.992  29.725   3.875
50449W        W18667  35.414  29.384  13.266
50450W        W18668  38.179  20.123  11.082
50451W        W18669   4.754  14.922  11.475
50452W        W18670  16.957  42.503  13.333
50453W        W18671  32.514   1.683  14.286
50454W        W18672  34.461  22.635  13.361
50455W        W18673  37.398  34.629   0.387
50456W        W18674  38.540   7.086   4.994
50457W        W18675  41.526  35.950  13.335
50458W        W18676  18.864   9.893  11.444
50459W        W18677  24.504  25.114   0.288
50460W        W18678  10.721  10.005   1.459
50461W        W18679   7.610  34.901   2.635
50462W        W18680  42.527  23.991  11.197
50463W        W18681  11.259  27.933  11.173
50464W        W18682   9.798  13.910  11.469
50465W        W18683  13.616   6.779  12.901
50466W        W18684  17.430  22.487   4.575
50467W        W18685  25.467  19.574  11.115
50468W        W18686  17.814  23.085   0.839
50469W        W18687  43.482  24.067  14.455
50470W        W18688  33.854  20.604  12.482
50471W        W18689  18.890  25.311  13.252
50472W        W18690  12.903  30.972  13.767
50473W        W18691  25.256  44.237   3.409
50474W        W18692  28.209   3.498  10.168
50475W        W18693  10.746  18.120  13.305
50476W        W18694  42.794  42.009   5.171
50477W        W18695  26.640   3.296   1.652
50478W        W18696  29.542  18.387   0.976
50479W        W18697  25.556  14.579  12.827
50480W        W18698   5.942  37.361  13.305
50481W        W18699  23.327  16.277   1.796
50482W        W18700  34.504  18.219   0.876
50483W        W18701   5.264  34.414   0.271
50484W        W18702  26.461  11.689  13.970
50485W        W18703   4.491  37.961  12.400
50486W        W18704   0.848  13.072  12.822
50487W        W18705  35.978  25.156  11.515
50488W        W18706  42.223   7.366   1.720
50489W        W18707  22.473   3.416  10.326
50490W        W18708  41.285   0.905   4.050
50491W        W18709  10.261  36.636  10.938
50492W        W18710  13.095  16.434   2.729
50493W        W18711   5.814  18.156  12.499
50494W        W18712  43.629  38.976  11.992
50495W        W18713  21.830  14.629  12.731
50496W        W18714  21.232   9.149   5.040
50497W        W18715  13.369  39.596  11.198
50498W        W18716   6.792   0.373  12.273
50499W        W18717  33.799  27.436  10.889
50500W        W18718  10.658  43.935  12.932
50501W        W18719  12.338  22.217   2.270
50502W        W18720  10.213  44.525  13.373
50503W        W18721  10.770   1.063  11.097
50504W        W18722  24.560  20.566   0.870
50505W        W18723  17.144  12.888   1.756
50506W        W18724  18.313   7.949  12.177
50507W        W18725   4.904   5.878  12.179
50508W        W18726  40.877  18.975   4.172
50509W        W18727  32.985  20.483   3.439
50510W        W18728  24.300  35.823  13.538
50511W        W18729  37.434  31.293   4.714
50512W        W18730   7.929  43.397   1.268
50513W        W18731   8.625  17.020  14.374
50514W        W18732  12.526   9.882  13.355
50515W        W18733  13.331  11.917  12.499
50516W        W18734  19.600  24.996   0.986
50517W        W18735  13.857  19.650   2.161
50518W        W18736   9.625   3.973   4.213
50519W        W18737  19.639  16.180  14.605
50520W        W18738  37.259  40.766   0.402
50521W        W18739  38.904  35.603  14.001
50522W        W18740  10.311   1.292   0.210
50523W        W18741  43.227  35.208   0.292
50524W        W18742  38.983  31.041  11.201
50525W        W18743  28.332   4.184   5.027
50526W        W18744  42.222  20.105   3.372
50527W        W18745  16.575  21.154  10.649
50528W        W18746  28.649  42.236  14.944
50529W        W18747  32.920  15.643  13.077
50530W        W18748  33.332  15.643  13.372
50531W        W18749  13.036  27.747  13.499
50532W        W18750  36.987   0.308   4.638
50533W        W18751  28.957  23.110   0.396
50534W        W18752  21.035  25.572  13.797
50535W        W18753  33.432  23.573   3.619
50536W        W18754  43.921   9.371  10.762
50537W        W18755  22.950  34.877   9.914
50538W        W18756  35.865  41.644   3.664
50539W        W18757  19.242  38.981   1.338
50540W        W18758  30.428   0.220  14.270
50541W        W18759   4.793  35.976  14.877
50542W        W18760  16.343   6.722   3.699
50543W        W18761  37.970  22.771   1.786
50544W        W18762  32.749  15.618  10.678
50545W        W18763  36.104   3.022   3.262
50546W        W18764   6.837  42.297  12.082
50547W        W18765  20.458  43.484  13.354
50548W        W18766  34.170  16.295  14.317
50549W        W18767  26.091   1.855  10.937
50550W        W18768  17.123  37.042   3.850
50551W        W18769  10.177  20.677   4.559
50552W        W18770  31.710  13.300   1.122
50553W        W18771  41.929  16.223  11.442
50554W        W18772  14.330  35.973   4.314
50555W        W18773   1.454  12.260   2.238
50556W        W18774  18.941   8.303   0.965
50557W        W18775   4.763  39.855  13.506
50558W        W18776  31.201   7.616   2.224
50559W        W18777  42.446  42.077  13.774
50560W        W18778   6.800  37.556  12.609
50561W        W18779   3.130  33.162   3.540
50562W        W18780  44.823  26.633  12.054
50563W        W18781  28.986  12.102   3.215
50564W        W18782  27.520   0.954  14.909
50565W        W18783  27.008  23.952  12.922
50566W        W18784  26.503   3.133   1.182
50567W        W18785  10.830  36.144  14.297
50568W        W18786  30.709   6.927   2.753
50569W        W18787   0.249  26.407   2.247
50570W        W18788  41.078  38.933  11.198
50571W        W18789  27.659  14.705  14.762
50572W        W18790  13.618  19.209   0.342
50573W        W18791  16.261   0.348  11.548
50574W        W18792  11.181  18.617  12.903
50575W        W18793   9.449  39.510  14.861
50576W        W18794  44.938   2.436   1.671
50577W        W18795  24.080  38.965  12.704
50578W        W18796  16.839  27.144   1.384
50579W        W18797  32.012  36.865  10.592
50580W        W18798   7.935  16.661   0.376
50581W        W18799  31.919   5.514  13.861
50582W        W18800  25.414  20.203  13.326
50583W        W18801  40.889  29.211  10.711
50584W        W18802  28.596  20.886  10.197
50585W        W18803  11.895  25.569   0.685
50586W        W18804   1.896  25.535   2.376
50587W        W18805  41.799  44.970  14.043
50588W        W18806   9.875  23.162  13.889
50589W        W18807   8.265  12.349  13.900
50590W        W18808  26.910  24.962   0.931
50591W        W18809   5.775  30.070  13.955
50592W        W18810  21.228  23.630  10.992
50593W        W18811  24.747   5.371  14.764
50594W        W18812  16.059  35.795   1.819
50595W        W18813  17.840  12.296  11.199
50596W        W18814   9.935  43.734  11.128
50597W        W18815   0.532  16.584  11.830
50598W        W18816  32.658   5.934  11.975
50599W        W18817   4.806  13.759   0.759
50600W        W18818  28.251  41.304   1.868
50601W        W18819   0.169  19.608   4.535
50602W        W18820  25.206   1.818   0.945
50603W        W18821   6.847  35.827   3.379
50604W        W18822   1.196  19.587  11.211
50605W        W18823  18.301  26.637  10.742
50606W        W18824  25.141  20.607   3.130
50607W        W18825   0.490  25.971  13.020
50608W        W18826   4.440   7.698   1.364
50609W        W18827  43.963  32.971   3.338
50610W        W18828  25.743  41.684  13.144
50611W        W18829  37.464   2.088   1.950
50612W        W18830  16.119   2.932   2.218
50613W        W18831  44.574  13.847   3.364
50614W        W18832  24.466  32.960  14.957
50615W        W18833  22.506  11.152  12.999
50616W        W18834  37.616  18.548  14.346
50617W        W18835   3.780  42.059  11.498
50618W        W18836   0.415  11.892  14.529
50619W        W18837  27.333   5.838  11.732
50620W        W18838  34.577  43.972   0.950
50621W        W18839  25.540   5.867  14.924
50622W        W18840   7.353  26.482   0.500
50623W        W18841  32.875   5.275  10.214
50624W        W18842  19.964  20.273  12.969
50625W        W18843  34.501  15.040  14.941
50626W        W18844  17.789  40.501   1.997
50627W        W18845  15.351   5.127   4.480
50628W        W18846  12.217  11.058   4.657
50629W        W18847  32.205  36.459   3.716
50630W        W18848  34.691  32.522  14.948
50631W        W18849  19.976  24.107  14.004
50632W        W18850  22.035  17.124  11.530
50633W        W18851  19.950   1.893   4.049
50634W        W18852  29.622  13.212  14.973
50635W        W18853  10.623  29.885  14.225
50636W        W18854  11.595  32.291   4.135
50637W        W18855  25.370  33.494   4.187
50638W        W18856  21.075   5.304   2.383
50639W        W18857  21.795  27.962  10.770
50640W        W18858  14.543  29.462  13.830
50641W        W18859  36.922  27.937  13.931
50642W        W18860   5.239  27.578   3.724
50643W        W18861  32.625  26.241   4.175
50644W        W18862  24.949  15.116   4.442
50645W        W18863  43.478  26.127  12.077
50646W        W18864   6.902  32.009   1.147
50647W        W18865  12.829  22.575  13.754
50648W        W18866  40.296  27.571   0.893
50649W        W18867  11.104  20.981   3.782
50650W        W18868   7.883   8.756   1.226
50651W        W18869  28.903  11.825   1.656
50652W        W18870  10.051  37.348   4.508
50653W        W18871  10.611  40.468   3.367
50654W        W18872  43.317   0.947   1.318
50655W        W18873  11.637   1.116  13.305
50656W        W18874  26.141   9.090  11.742
50657W        W18875   8.008  25.209  12.584
50658W        W18876  26.274   8.356   3.531
50659W        W18877  26.921   2.228  11.531
50660W        W18878  43.398   1.988   2.297
50661W        W18879  21.687  39.467  11.794
50662W        W18880  34.293  33.111   0.252
50663W        W18881  41.987  30.406  10.133
50664W        W18882   2.983  11.788  12.418
50665W        W18883  35.496  11.835   4.283
50666W        W18884  19.100   8.117   1.548
50667W        W18885  43.529  20.339  13.462
50668W        W18886  22.912  44.580   1.039
50669W        W18887  32.134   5.730   1.250
50670W        W18888   3.259  23.924  13.081
50671W        W18889  19.094   6.623   3.185
50672W        W18890  28.716  23.003   3.075
50673W        W18891  30.335  32.408   4.200
50674W        W18892  43.978  10.100  12.971
50675W        W18893  39.624  44.872   1.767
50676W        W18894  21.741  37.808   0.450
50677W        W18895  11.337  12.993   1.886
50678W        W18896  23.603  26.272   3.596
50679W        W18897  17.030  32.292   1.000
50680W        W18898  16.575  19.031   1.916
50681W        W18899  29.076  37.067   0.473
50682W        W18900  26.651  34.047   4.700
50683W        W18901  32.277  41.924   5.198
50684W        W18902  26.996   2.918   0.920
50685W        W18903  40.363  35.892   4.802
50686W        W18904   6.105  25.342  13.465
50687W        W18905   5.240  10.647  14.761
50688W        W18906   8.081  39.071   2.633
50689W        W18907  28.903   4.021   2.908
50690W        W18908  17.187  23.627   2.626
50691W        W18909  35.312   0.082   1.319
50692W        W18910  19.929  29.040   4.312
50693W        W18911  13.405  37.321   1.438
50694W        W18912  12.551  44.494  11.165
50695W        W18913   6.718  17.130  11.613
50696W        W18914  42.218  42.925  10.443
50697W        W18915  12.117  16.602  14.579
50698W        W18916  29.600  38.850  13.866
50699W        W18917  11.374   0.870  14.700
50700W        W18918  25.768   9.746   4.582
50701W        W18919  41.377  41.712   2.319
50702W        W18920  19.712  22.446  11.506
50703W        W18921   3.467  27.783   0.772
50704W        W18922  21.966   5.326   1.868
50705W        W18923  12.365  13.810  11.214
50706W        W18924  22.152  38.000   0.087
50707W        W18925  13.378  35.536   1.698
50708W        W18926  34.312  44.791   0.422
50709W        W18927   5.979  42.674   3.671
50710W        W18928   2.475  13.629  11.613
50711W        W18929  31.914  23.154  13.031
50712W        W18930  18.087  19.841   0.694
50713W        W18931  15.626   0.359   3.614
50714W        W18932  37.997   2.492   3.144
50715W        W18933  27.552  36.216  12.373
50716W        W18934  43.855  11.159   4.109
50717W        W18935  38.468  41.319  10.515
50718W        W18936  38.986  35.374  12.526
50719W        W18937  31.149   8.604   2.878
50720W        W18938  37.895  39.485   4.472
50721W        W18939  13.360  34.019   3.722
50722W        W18940   4.944  12.216   2.294
50723W        W18941  15.660  42.272   4.650
50724W        W18942  15.144  30.649  10.496
50725W        W18943  31.092   8.431   3.768
50726W        W18944  22.512  28.474   0.119
50727W        W18945  45.000  24.246  11.131
50728W        W18946  42.962  26.608  14.720
50729W        W18947  25.250  37.792  13.884
50730W        W18948  15.935   5.165  14.977
50731W        W18949  35.992  21.120  14.865
50732W        W18950  24.036  44.568  13.468
50733W        W18951  18.708  12.432  14.286
50734W        W18952  44.600   5.401  10.440
50735W        W18953  37.943   6.776   1.176
50736W        W18954  40.832  33.998   4.153
50737W        W18955  31.164  41.810  13.824
50738W        W18956  38.808  24.571   2.843
50739W        W18957   9.754  35.511   4.256
50740W        W18958  27.698   0.939  11.673
50741W        W18959   2.495  43.393  14.542
50742W        W18960  31.143  24.081   2.802
50743W        W18961   5.855  22.019   4.320
50744W        W18962  33.145  26.938  11.612
50745W        W18963  21.467  43.884  12.940
50746W        W18964  19.753  17.539  14.857
50747W        W18965  12.273  44.962   2.700
50748W        W18966  17.162  38.877  11.816
50749W        W18967  36.488  15.316  14.352
50750W        W18968   8.835  40.996   3.637
50751W        W18969  33.562   4.087   4.236
50752W        W18970  11.612   9.858   2.811
50753W        W18971  31.364  25.540  14.051
50754W        W18972  21.304  44.871  11.559
50755W        W18973  16.211   1.633  12.388
50756W        W18974  35.127  16.307  11.063
50757W        W18975  32.561  21.265   4.660
50758W        W18976  33.060  40.039   1.168
50759W        W18977   8.094  27.485   2.722
50760W        W18978  22.631  18.237   0.986
50761W        W18979  35.373  44.071   1.360
50762W        W18980   1.726  18.718   3.445
50763W        W18981  24.726  34.949  12.958
50764W        W18982  20.058  14.592   1.405
50765W        W18983  30.946  31.610   4.201
50766W        W18984   0.200  40.770   0.594
50767W        W18985  22.195  21.682  13.553
50768W        W18986  39.858  34.290  13.799
50769W        W18987  17.772  17.046   4.913
50770W        W18988  24.682  43.983  12.946
50771W        W18989  30.620   6.211   4.748
50772W        W18990   5.889  42.996   4.063
50773W        W18991  14.429  20.842   2.324
50774W        W18992  16.695  10.164   3.693
50775W        W18993  19.358  27.934   4.782
50776W        W18994  39.247  37.921   2.777
50777W        W18995  32.143  10.140  13.117
50778W        W18996  26.872  39.655   2.406
50779W        W18997  11.848  24.585  14.851
50780W        W18998  42.096  29.080   2.906
50781W        W18999   3.896  14.126  12.619
50782W        W19000  22.021  43.011   4.118
50783W        W19001   7.187  10.351  14.028
50784W        W19002  11.294  35.530  10.687
50785W        W19003   4.217  35.572  10.852
50786W        W19004  26.929  28.106  11.171
50787W        W19005  17.674  39.082  13.079
50788W        W19006  18.568  35.353  11.106
50789W        W19007   8.403  40.944  14.523
50790W        W19008  41.072   2.490  11.528
50791W        W19009  12.218  43.301   1.347
50792W        W19010  41.254  11.153   0.421
50793W        W19011   7.756  18.494  10.808
50794W        W19012  14.324  20.261   1.406
50795W        W19013  18.480   6.810  11.017
50796W        W19014  26.454  29.172  11.953
50797W        W19015  39.915  28.722   4.402
50798W        W19016  28.600  36.336   0.005
50799W        W19017   1.426  37.854   2.564
50800W        W19018  31.401  17.187   4.398
50801W        W19019  30.670  13.411   4.089
50802W        W19020   2.844  38.375  14.021
50803W        W19021  10.731   3.086  13.586
50804W        W19022  22.621   1.773   1.908
50805W        W19023  28.365  12.818  14.622
50806W        W19024  30.970   7.745  14.975
50807W        W19025  12.107   6.954  12.519
50808W        W19026   3.191  19.766   4.606
50809W        W19027  14.746  38.329  10.635
50810W        W19028  33.410  35.964   2.676
50811W        W19029  37.103  33.878   2.533
50812W        W19030  29.920  24.971  11.207
50813W        W19031   8.453   0.654  13.059
50814W        W19032   1.991  37.131   1.230
50815W        W19033  32.147  22.775   2.082
50816W        W19034   9.934  36.341   1.701
50817W        W19035  42.772  28.127   2.829
50818W        W19036   1.494  23.971   3.086
50819W        W19037  30.830  27.722   4.982
50820W        W19038  41.097  41.026   3.145
50821W        W19039  38.006  27.665   4.176
50822W        W19040   1.323   5.259   1.732
50823W        W19041  28.474  15.512   2.339
50824W        W19042  19.953  43.229   4.516
50825W        W19043  32.471  41.658  14.538
50826W        W19044  19.694  12.092   2.698
50827W        W19045  39.985   3.270   1.369
50828W        W19046   8.542  25.217  11.750
50829W        W19047  10.703  19.748  12.497
50830W        W19048  32.804  10.178   4.143
50831W        W19049   1.407   9.835  10.677
50832W        W19050   6.777   8.155   2.761
50833W        W19051  44.417  36.357  12.459
50834W        W19052  31.789   8.887   4.301
50835W        W19053  36.975  38.960  13.069
50836W        W19054  14.387  32.570  12.416
50837W        W19055  40.359  15.735   4.525
50838W        W19056  11.807  17.854  14.468
50839W        W19057  36.076   9.276  12.988
50840W        W19058   5.411  25.647  12.935
50841W        W19059  27.180  43.517   0.302
50842W        W19060  22.520  33.100  12.530
50843W        W19061  15.650  16.204  14.453
50844W        W19062  44.962  44.240  11.093
50845W        W19063  20.927   5.917   0.934
50846W        W19064  34.575   0.780   4.496
50847W        W19065  25.714  36.603  13.916
50848W        W19066  42.366  39.964   2.072
50849W        W19067   7.923  36.661   4.570
50850W        W19068  16.599   7.453   2.713
50851W        W19069  40.718   0.468  13.337
50852W        W19070  19.543  20.863  11.650
50853W        W19071   9.078   6.741   0.209
50854W        W19072  33.735  16.076   2.813
50855W        W19073  40.467  42.363  10.673
50856W        W19074   1.950  36.613   1.279
50857W        W19075  37.863  35.584  11.499
50858W        W19076  17.057  21.705  12.074
50859W        W19077   5.244  15.705  12.403
50860W        W19078  30.038   3.220   0.489
50861W        W19079  16.615  21.508   2.978
50862W        W19080   6.860  41.339  11.098
50863W        W19081  29.931  17.128   3.921
50864W        W19082  32.958  10.921  11.627
50865W        W19083  35.041  34.208   2.647
50866W        W19084   5.952  25.939   3.834
50867W        W19085  19.018  29.146  11.331
50868W        W19086  26.195  30.020  14.479
50869W        W19087  31.461  32.905   4.558
50870W        W19088  26.691  31.064   3.800
50871W        W19089   3.523  38.075   2.006
50872W        W19090  18.155   3.167  12.935
50873W        W19091  38.377  34.421  14.887
50874W        W19092  39.000  32.223   3.642
50875W        W19093  31.013   8.194  11.236
50876W        W19094  25.614  26.373  10.092
50877W        W19095  31.568  29.017   4.814
50878W        W19096  36.409  26.141   9.813
50879W        W19097  29.386  14.541   2.308
50880W        W19098   9.145   8.327  12.003
50881W        W19099  37.364  19.124  13.543
50882W        W19100  43.820  33.592   0.471
50883W        W19101  23.439  13.234  12.850
50884W        W19102  34.335  30.998  10.656
50885W        W19103  42.786  42.762  14.746
50886W        W19104  37.547  25.517   0.030
50887W        W19105  19.060  30.039   3.681
50888W        W19106  35.420  25.268   0.341
50889W        W19107  33.049  12.647  12.509
50890W        W19108  33.026  11.844   2.764
50891W        W19109  35.808  10.676  12.893
50892W        W19110  17.704   6.496   1.202
50893W        W19111   5.325  43.004  14.856
50894W        W19112  28.912  39.224  10.882
50895W        W19113  44.050  15.326  13.587
50896W        W19114  14.963  27.579   0.001
50897W        W19115  32.601   1.843  12.450
50898W        W19116  42.427  41.748   2.965
50899W        W19117  21.582  12.209  10.900
50900W        W19118  30.192  28.979   2.263
50901W        W19119  27.618  37.783   0.240
50902W        W19120  44.519  14.232   4.562
50903W        W19121  18.821  32.611   1.254
50904W        W19122  24.209  29.390   0.313
50905W        W19123  24.161  25.236  13.514
50906W        W19124  32.569  12.787   4.534
50907W        W19125  17.046  16.028  13.307
50908W        W19126  21.149   9.005  10.377
50909W        W19127  35.813  40.899  12.520
50910W        W19128  17.709  30.939  13.466
50911W        W19129  18.296  23.937  11.507
50912W        W19130  21.654  27.136  14.544
50913W        W19131   5.960  15.280   1.530
50914W        W19132  42.815  30.880   0.116
50915W        W19133  37.918  39.004   3.586
50916W        W19134  44.061  38.623  14.238
50917W        W19135  27.196  29.080   3.190
50918W        W19136  40.781  22.134  12.869
50919W        W19137  37.647  19.269  10.690
50920W        W19138  40.373  14.946  14.194
50921W        W19139  19.031   0.919  12.981
50922W        W19140  26.500  17.349  11.608
50923W        W19141  37.604  15.408  11.919
50924W        W19142  43.261  26.510  10.798
50925W        W19143  41.376  25.657   1.443
50926W        W19144  17.801   6.962   1.480
50927W        W19145   6.790  13.633   0.257
50928W        W19146   3.903   0.215  14.903
50929W        W19147  39.735  17.577  13.403
50930W        W19148  32.994  10.089  11.453
50931W        W19149  28.578   6.684  12.317
50932W        W19150  12.001   6.592  13.825
50933W        W19151  19.590  40.905   1.056
50934W        W19152  26.504  31.603   2.261
50935W        W19153  39.474  39.804  10.885
50936W        W19154   3.733  30.320  12.539
50937W        W19155  21.657  32.157   0.225
50938W        W19156   1.296  32.658   3.638
50939W        W19157  15.014   6.904  14.336
50940W        W19158  16.662  28.889   4.622
50941W        W19159  34.457  20.280   2.658
50942W        W19160  20.628  25.753   1.683
50943W        W19161  17.843  12.522  13.792
50944W        W19162  13.936  13.606   2.839
50945W        W19163  37.707  11.762  10.886
50946W        W19164  24.571  17.499   1.002
50947W        W19165  18.158  23.118  13.294
50948W        W19166   4.640  29.568   0.195
50949W        W19167  33.344  14.323   3.060
50950W        W19168   6.287   2.775  12.814
50951W        W19169  32.974  16.524  14.622
50952W        W19170  20.323   9.384  13.035
50953W        W19171  33.474  31.910  11.188
50954W        W19172  13.741  31.976   1.841
50955W        W19173  22.074   1.439  12.856
50956W        W19174   2.511  22.149  10.780
50957W        W19175  44.320  42.460   0.397
50958W        W19176  34.239  20.371  12.860
50959W        W19177  39.458  36.211   0.948
50960W        W19178  25.232   0.199  13.044
50961W        W19179   4.583  22.204   3.659
50962W        W19180  25.489  10.176   3.620
50963W        W19181  15.613   0.955  12.666
50964W        W19182  10.405  12.690  14.423
50965W        W19183  44.907   5.946  12.608
50966W        W19184  18.911  44.971  11.187
50967W        W19185  39.034  31.100  14.284
50968W        W19186  13.452   9.888   3.785
50969W        W19187   7.436  41.085   2.307
50970W        W19188  24.185  34.172   2.372
50971W        W19189  25.616  22.545  11.295
50972W        W19190  31.726  22.127  12.375
50973W        W19191   3.894  36.129   0.728
50974W        W19192   1.820  41.783   4.471
50975W        W19193  26.925  15.742   2.243
50976W        W19194  22.607  21.279   1.216
50977W        W19195  15.550  26.101   2.433
50978W        W19196   3.714  35.007   3.199
50979W        W19197  12.787  41.932  10.516
50980W        W19198  43.791  11.658   0.765
50981W        W19199   7.232  22.765  12.402
50982W        W19200  43.198  44.304  10.756
50983W        W19201  37.224  15.364   4.193
50984W        W19202  27.049  35.910  14.439
50985W        W19203   1.731  43.942  13.917
50986W        W19204  34.673  29.112  10.492
50987W        W19205  12.782  31.353  14.149
50988W        W19206  37.406  43.045  12.018
50989W        W19207   0.376  31.859  14.598
50990W        W19208  27.469  28.583  13.293
50991W        W19209  44.561   7.106  13.060
50992W        W19210  25.129  15.589  13.494
50993W        W19211  33.613  31.071  11.847
50994W        W19212  39.688  43.841  11.198
50995W        W19213  25.696  44.620  10.567
50996W        W19214  40.861  15.360  10.697
50997W        W19215  15.330  14.245   0.734
50998W        W19216   0.008  12.984   3.782
50999W        W19217   7.865  12.279   0.468
51000W        W19218   3.266  30.088  12.602
51001W        W19219  18.532  39.487   1.759
51002W        W19220   3.826   6.320   1.015
51003W        W19221  23.666  42.897  10.709
51004W        W19222  28.234  33.489   4.045
51005W        W19223   6.416  24.621   4.592
51006W        W19224   7.114  29.507  10.951
51007W        W19225  38.250  35.456  13.467
51008W        W19226  17.645  44.389  10.189
51009W        W19227  34.046  13.658   1.817
51010W        W19228  40.951  27.772   0.377
51011W        W19229  12.347  31.061  11.146
51012W        W19230  32.292  25.677  13.071
51013W        W19231  10.303  25.653  11.301
51014W        W19232   5.170  43.292   0.274
51015W        W19233   8.645  38.562   1.280
51016W        W19234  19.991  19.052  11.696
51017W        W19235  11.340  15.374  12.931
51018W        W19236  41.322  33.430  12.876
51019W        W19237   0.734  29.585   4.094
51020W        W19238  41.393  42.977   0.787
51021W        W19239   1.773  37.964   3.290
51022W        W19240  30.243   9.288   1.885
51023W        W19241  32.072   5.229   2.292
51024W        W19242  33.303  39.250  11.095
51025W        W19243  24.254  23.861  11.581
51026W        W19244  42.066  28.940  11.907
51027W        W19245  41.001  22.977   0.074
51028W        W19246  25.622  44.429   2.453
51029W        W19247   5.473  10.641  11.113
51030W        W19248  18.314  17.084   0.866
51031W        W19249  15.307  35.865  14.830
51032W        W19250  31.277  16.077   3.284
51033W        W19251   0.288  35.964  11.600
51034W        W19252  44.314  34.104  13.417
51035W        W19253  22.670  19.215   4.115
51036W        W19254   3.035  10.883   3.177
51037W        W19255  15.731  36.458  14.270
51038W        W19256  24.269  11.557   1.577
51039W        W19257   4.913   6.598  11.700
51040W        W19258  24.605  32.793   1.449
51041W        W19259  11.145  31.951   0.886
51042W        W19260   9.272  16.091  12.099
51043W        W19261   7.759  16.851   3.340
51044W        W19262   6.642   3.709   3.643
51045W        W19263  32.083  15.664   0.741
51046W        W19264   9.397  41.475   1.404
51047W        W19265   1.483   2.409   1.192
51048W        W19266  40.228   2.016   5.100
51049W        W19267  27.862  12.666  11.581
51050W        W19268  25.799  31.678  10.809
51051W        W19269  22.982  14.624  14.966
51052W        W19270  38.037  15.153   3.628
51053W        W19271  43.002  23.016   1.778
51054W        W19272  18.522  43.027   3.134
51055W        W19273  21.780  37.419   3.854
51056W        W19274  22.467   4.275   3.697
51057W        W19275  42.283   8.744   0.240
51058W        W19276  17.854  39.120   0.262
51059W        W19277  42.714  42.027  12.328
51060W        W19278  22.611   7.166   4.537
51061W        W19279   0.498  20.514   0.978
51062W        W19280  41.373   7.320  14.063
51063W        W19281  35.475  15.212   3.308
51064W        W19282  40.305  31.166  12.328
51065W        W19283   3.882  40.056   2.792
51066W        W19284  26.750  10.822  10.393
51067W        W19285   5.762  12.145  13.779
51068W        W19286  20.933  16.120   0.385
51069W        W19287  26.502  21.015  12.100
51070W        W19288  43.013  23.266   0.838
51071W        W19289  41.563   9.334   4.115
51072W        W19290   3.017  22.584  12.440
51073W        W19291   6.367  38.796   3.724
51074W        W19292   0.403  33.659  13.833
51075W        W19293  35.252  34.892   1.250
51076W        W19294  23.690  10.835  13.940
51077W        W19295  24.109  33.865   2.779
51078W        W19296   2.183  24.990  14.368
51079W        W19297  29.963  37.609   0.226
51080W        W19298  30.863  30.891  11.579
51081W        W19299  27.359  11.599   1.823
51082W        W19300  14.230  28.193   3.412
51083W        W19301  29.390  33.098   0.969
51084W        W19302  15.863  42.838  11.992
51085W        W19303  18.386  28.180   0.418
51086W        W19304   0.682  41.918  13.759
51087W        W19305  24.665   2.269  14.472
51088W        W19306  22.398  13.844  10.858
51089W        W19307  33.601  33.651  11.396
51090W        W19308  12.701  37.813  13.179
51091W        W19309  11.202  37.435   4.939
51092W        W19310  29.359  37.507  11.900
51093W        W19311  26.228  18.578   4.280
51094W        W19312   7.938   2.641   4.863
51095W        W19313  41.038  29.564   0.784
51096W        W19314   8.922  25.747   4.162
51097W        W19315  27.993   5.087   3.036
51098W        W19316  29.614  36.111  14.750
51099W        W19317  39.995  17.276   4.033
51100W        W19318  25.455  14.169  11.615
51101W        W19319  30.851  30.982  12.462
51102W        W19320  33.670  40.907  14.993
51103W        W19321  19.182  39.573   0.280
51104W        W19322   3.718  11.118  10.578
51105W        W19323   1.066  39.829   1.202
51106W        W19324  43.550  14.731  12.590
51107W        W19325  34.532  36.963  12.890
51108W        W19326  20.978  28.406  12.445
51109W        W19327  18.558  40.725  10.771
51110W        W19328   1.233  37.076   3.461
51111W        W19329  27.168  18.879   2.265
51112W        W19330  17.467  29.084   2.375
51113W        W19331  31.390  27.580  14.264
51114W        W19332  41.577  19.716  11.594
51115W        W19333  31.744   0.286  13.018
51116W        W19334  13.450   2.857   4.357
51117W        W19335   4.068   4.263  13.457
51118W        W19336   9.783   2.447   0.803
51119W        W19337  15.254  18.013  10.707
51120W        W19338   3.734   6.881   4.716
51121W        W19339  20.346  36.577  12.147
51122W        W19340  24.220  34.644  11.468
51123W        W19341  30.924  34.931   0.870
51124W        W19342  29.296   1.031  13.263
51125W        W19343  28.435  19.537   1.856
51126W        W19344   1.080  38.047  11.418
51127W        W19345  12.945  37.553   0.724
51128W        W19346  44.789   4.893  11.630
51129W        W19347  35.584  16.499  12.765
51130W        W19348  17.685   4.571   0.430
51131W        W19349   8.719  34.846   1.277
51132W        W19350  14.016   9.286  12.621
51133W        W19351  39.413   3.160  14.057
51134W        W19352  29.630  28.699   0.955
51135W        W19353  41.543  22.755   3.036
51136W        W19354  25.894   1.205   4.731
51137W        W19355  27.596  26.506   3.646
51138W        W19356  16.287   7.644   0.972
51139W        W19357  16.839  26.551   1.741
51140W        W19358  15.170  30.490   0.443
51141W        W19359   6.417  37.773   3.700
51142W        W19360  35.389  35.048  14.982
51143W        W19361  30.846  15.717   0.538
51144W        W19362  42.056  25.437  11.025
51145W        W19363  41.019   1.261   4.374
51146W        W19364  10.782   9.407   1.880
51147W        W19365  14.208  43.937   3.867
51148W        W19366  15.199  12.328   3.716
51149W        W19367  28.072  24.205   5.172
51150W        W19368   7.108  38.086  12.929
51151W        W19369  33.729  35.999   4.969
51152W        W19370  24.936  20.735  13.031
51153W        W19371  25.546   3.305  12.298
51154W        W19372  24.248   1.011  13.387
51155W        W19373  30.103  34.823  11.497
51156W        W19374   5.384  21.440   1.935
51157W        W19375  39.523  12.255   4.149
51158W        W19376  24.724  21.755  10.958
51159W        W19377   8.891  27.990  13.069
51160W        W19378   0.814  16.160   4.641
51161W        W19379   1.095  18.993  10.014
51162W        W19380  33.069  29.485   2.211
51163W        W19381  35.116  22.436   0.387
51164W        W19382   6.662   4.103  11.446
51165W        W19383  43.836  19.101  14.758
51166W        W19384  17.565  24.163  11.941
51167W        W19385  29.010  15.634   1.836
51168W        W19386  12.803  21.050  13.479
51169W        W19387  33.208  23.727   4.096
51170W        W19388   6.116  15.163   1.057
51171W        W19389  23.722  24.208  12.830
51172W        W19390  24.528  14.859  13.974
51173W        W19391   6.336  42.791  10.661
51174W        W19392  41.770   2.452   4.145
51175W        W19393   6.330  39.437   5.088
51176W        W19394   2.740  29.917  12.934
51177W        W19395  15.794   5.864   0.420
51178W        W19396  36.594   2.523   1.856
51179W        W19397  43.275   7.150   3.691
51180W        W19398  41.841  24.925   0.064
51181W        W19399  34.992  43.369  14.086
51182W        W19400  18.481  13.493   0.185
51183W        W19401  29.072  44.210   0.342
51184W        W19402  11.272  18.786  12.418
51185W        W19403  25.948  40.410  11.060
51186W        W19404  43.799  26.182  11.226
51187W        W19405   7.376  43.950   4.523
51188W        W19406  29.515  36.965   4.440
51189W        W19407  15.172  28.927  14.258
51190W        W19408  11.326  31.929   4.985
51191W        W19409  15.649   1.625  10.647
51192W        W19410  17.803  15.674   4.801
51193W        W19411  11.240   9.241  11.933
51194W        W19412  18.648  37.480  11.953
51195W        W19413  21.161  15.669   0.254
51196W        W19414  27.287  22.057  14.796
51197W        W19415  42.274   8.840  14.729
51198W        W19416   9.305  25.534  14.274
51199W        W19417  13.652   7.244   3.692
51200W        W19418  43.050  31.403   2.457
51201W        W19419   0.159  30.427  11.036
51202W        W19420  36.070   2.271   5.068
51203W        W19421  12.845   9.635   3.208
51204W        W19422   1.841  28.977   4.127
51205W        W19423  28.833  39.890  11.617
51206W        W19424  27.988   9.834  14.885
51207W        W19425  44.327  16.583  12.847
51208W        W19426  21.528  39.368  14.908
51209W        W19427   9.411  40.410  10.743
51210W        W19428   1.549  16.383  10.865
51211W        W19429  17.846  17.998  14.429
51212W        W19430  16.820  15.608  11.470
51213W        W19431  23.484   4.274   2.828
51214W        W19432  35.043   5.319  13.364
51215W        W19433  39.846  28.485  14.327
51216W        W19434  29.979   3.353  12.482
51217W        W19435  23.538  13.073  11.523
51218W        W19436  41.185  11.275  10.555
51219W        W19437  21.498  34.409  14.353
51220W        W19438   2.481  41.306   2.696
51221W        W19439   6.897  40.047   3.640
51222W        W19440  23.285  34.400  14.262
51223W        W19441  13.180  25.600  13.421
51224W        W19442  28.092  33.069  13.097
51225W        W19443  32.811   9.255   0.445
51226W        W19444  11.548  20.173   1.196
51227W        W19445  22.667   1.037  10.659
51228W        W19446  18.185   6.414  11.144
51229W        W19447  19.578  17.259   2.635
51230W        W19448   4.937  11.135  13.574
51231W        W19449  32.402  43.832   3.710
51232W        W19450  34.082  38.844   2.536
51233W        W19451   2.711  34.188  12.884
51234W        W19452  15.052   4.710   4.653
51235W        W19453  35.625  19.099   0.382
51236W        W19454   3.974  31.969   3.425
51237W        W19455  43.847   4.183  12.784
51238W        W19456  17.342  34.492   1.137
51239W        W19457   5.387  27.398   0.744
51240W        W19458  32.066   3.389  13.946
51241W        W19459  41.963  14.330  10.879
51242W        W19460  16.267  31.186  11.522
51243W        W19461  34.515  39.400   2.625
51244W        W19462  18.009  35.422   2.697
51245W        W19463  27.262  10.765   4.008
51246W        W19464  40.362  15.282   2.832
51247W        W19465  16.771  38.091  12.321
51248W        W19466   6.376  22.186  13.354
51249W        W19467  28.507  10.340  11.054
51250W        W19468  26.219  38.605  12.599
51251W        W19469   5.364   6.486  12.106
51252W        W19470  29.217  18.284   1.431
51253W        W19471  42.347   2.265  13.420
51254W        W19472   1.744  29.491   4.122
51255W        W19473  36.574  19.656  11.269
51256W        W19474   1.772  13.527   2.496
51257W        W19475  33.532  28.481  12.052
51258W        W19476   3.526  22.962  11.610
51259W        W19477  24.245  30.231   2.293
51260W        W19478  21.456  31.521   3.121
51261W        W19479  26.456  12.599   0.317
51262W        W19480  29.051  40.583  13.794
51263W        W19481  27.552  44.996   1.154
51264W        W19482   0.825  38.479   1.664
51265W        W19483   9.469  44.753   0.813
51266W        W19484  11.882  24.664  10.728
51267W        W19485  32.384  40.953   4.644
51268W        W19486  18.573   5.393   1.462
51269W        W19487  40.530  37.445  12.808
51270W        W19488  11.688   3.523  14.909
51271W        W19489   8.753   6.175   1.665
51272W        W19490  34.379  26.755  12.310
51273W        W19491   9.029  19.302   2.070
51274W        W19492  25.073  30.446   0.852
51275W        W19493   5.431  37.454  13.425
51276W        W19494   0.725  17.321   1.248
51277W        W19495  36.123  13.418  12.651
51278W        W19496  13.843  12.067   3.635
51279W        W19497   7.765  14.309   4.009
51280W        W19498  30.099  18.652  12.845
51281W        W19499  18.436  19.155   1.128
51282W        W19500   4.194  24.193  13.960
51283W        W19501   4.364  36.391  11.959
51284W        W19502  35.427  26.910   0.761
51285W        W19503  26.934   8.293   0.767
51286W        W19504  28.075  34.600  14.695
51287W        W19505  36.931   7.659   1.328
51288W        W19506   0.446  36.275   0.878
51289W        W19507  39.485  28.617   1.671
51290W        W19508   5.562  33.094   2.033
51291W        W19509  42.890  33.658   2.160
51292W        W19510  18.500  27.129  10.645
51293W        W19511   8.199   2.466  13.587
51294W        W19512  35.943  33.737   5.040
51295W        W19513  37.885  33.387   4.236
51296W        W19514  21.547   7.944   3.805
51297W        W19515   9.250  38.046   2.811
51298W        W19516  30.999  23.238  11.309
51299W        W19517   2.392  40.301  14.630
51300W        W19518   1.257   4.465  10.667
51301W        W19519  17.549  17.686   3.669
51302W        W19520  37.877  16.777   1.929
51303W        W19521  11.132  33.234  14.455
51304W        W19522   0.224  37.899  10.799
51305W        W19523   2.500  41.606   0.375
51306W        W19524  24.153  39.894  10.400
51307W        W19525  28.660   8.171   0.398
51308W        W19526   0.340  18.262  13.955
51309W        W19527   8.716  22.928   3.549
51310W        W19528  34.275   1.317  10.777
51311W        W19529  41.317   2.769  11.091
51312W        W19530  32.737  10.188   2.775
51313W        W19531  25.329   3.082   5.019
51314W        W19532  31.218  39.324  14.385
51315W        W19533  13.375   9.329  14.752
51316W        W19534  25.998  18.961   0.392
51317W        W19535  24.871  12.306   0.312
51318W        W19536  34.333   0.890  14.413
51319W        W19537   7.523   3.941   4.386
51320W        W19538  30.170  27.021  12.438
51321W        W19539   7.744  23.025  11.555
51322W        W19540  10.335  35.932   4.390
51323W        W19541  19.640  15.918  12.803
51324W        W19542  14.793  10.035   1.834
51325W        W19543   5.474  32.767  13.644
51326W        W19544  14.691   1.279  12.102
51327W        W19545   3.004  22.772   1.447
51328W        W19546  21.801   0.359   0.357
51329W        W19547   5.317  26.995   3.602
51330W        W19548  18.175   8.435  10.890
51331W        W19549  22.232  25.173   3.647
51332W        W19550  38.380  39.099   1.338
51333W        W19551  31.101  24.996  11.537
51334W        W19552  11.289  11.870  11.778
51335W        W19553  44.645  20.366  12.426
51336W        W19554  25.154  11.333   1.977
51337W        W19555  33.441  23.749  14.422
51338W        W19556   7.497  19.195  11.016
51339W        W19557  18.133  14.699   3.338
51340W        W19558  44.465  42.068   2.944
51341W        W19559  41.249  34.418  12.178
51342W        W19560   2.928  38.230  14.915
51343W        W19561  12.678  42.494   2.886
51344W        W19562  36.869  13.847  11.068
51345W        W19563   9.590   5.806  12.168
51346W        W19564  38.852  32.784   2.763
51347W        W19565   9.782   9.135   2.755
51348W        W19566  42.061  44.956  11.348
51349W        W19567  18.756  31.204   4.358
51350W        W19568  21.047   3.201  11.981
51351W        W19569   2.199  39.685  11.543
51352W        W19570  31.670  22.651  12.972
51353W        W19571  26.544   8.821   3.378
51354W        W19572  42.323   3.862  10.543
51355W        W19573  35.484   8.394  12.848
51356W        W19574  31.563  43.377   2.834
51357W        W19575  25.438  32.360   0.269
51358W        W19576  26.035  18.276   2.627
51359W        W19577  25.159  11.843   4.765
51360W        W19578  31.526   8.220   4.581
51361W        W19579  11.637  20.607  12.033
51362W        W19580  35.820  25.993  14.974
51363W        W19581   3.514   4.430   3.091
51364W        W19582  13.564  21.459   3.194
51365W        W19583   7.603  20.689   0.211
51366W        W19584  39.981  17.079  14.907
51367W        W19585  40.992   9.816   2.251
51368W        W19586  25.762  28.221   4.049
51369W        W19587   0.336   7.380   1.230
51370W        W19588  39.246  39.867  13.310
51371W        W19589   5.183   2.940   4.734
51372W        W19590  12.330  13.848   4.345
51373W        W19591  27.409  26.630  11.645
51374W        W19592  33.448   2.896   2.081
51375W        W19593   8.389  28.441  13.842
51376W        W19594  32.486   9.415   0.819
51377W        W19595  36.700  34.257  13.276
51378W        W19596  34.951  43.512   2.347
51379W        W19597  32.043  14.433  14.993
51380W        W19598  42.290   3.628  12.526
51381W        W19599   4.836  43.780  10.605
51382W        W19600  42.358  29.250   2.227
51383W        W19601  27.470  22.659  12.646
51384W        W19602  35.867  11.932   3.947
51385W        W19603  16.182  24.056  14.301
51386W        W19604   0.710  12.587   3.247
51387W        W19605   1.814   6.765   1.154
51388W        W19606  12.305   7.644  12.928
51389W        W19607  11.656  30.126   4.913
51390W        W19608  41.138  20.096  11.181
51391W        W19609  33.596  43.817   3.161
51392W        W19610   2.451  16.095  13.002
51393W        W19611  42.056  39.766  14.836
51394W        W19612   4.545  23.037  13.414
51395W        W19613   3.502  39.690   2.720
51396W        W19614  17.773  18.552  11.509
51397W        W19615  40.784  11.288  14.015
51398W        W19616  28.021  39.020  14.986
51399W        W19617  24.755  25.883  13.560
51400W        W19618  22.466  34.405  11.165
51401W        W19619   1.824  29.034   0.515
51402W        W19620  37.408  20.364   0.319
51403W        W19621  29.718  10.741   2.781
51404W        W19622  29.768  29.656  12.089
51405W        W19623   0.408  28.689   3.793
51406W        W19624  32.042  25.419   2.239
51407W        W19625   3.225  34.178  12.670
51408W        W19626  12.283  21.812   2.593
51409W        W19627   7.750   0.690   0.344
51410W        W19628  39.824  37.372   1.690
51411W        W19629  37.125  17.179   4.729
51412W        W19630   4.763  36.824  11.487
51413W        W19631  28.462  41.035  11.597
51414W        W19632  30.123  10.676  14.739
51415W        W19633  21.652  42.901  13.675
51416W        W19634  33.082   8.753  12.506
51417W        W19635  38.210  29.720  11.738
51418W        W19636  39.622  16.279  13.063
51419W        W19637  41.982  32.593  10.455
51420W        W19638  20.629  25.062  13.879
51421W        W19639  27.234  20.179   4.359
51422W        W19640   4.698  27.025  12.137
51423W        W19641   7.339  34.198  10.965
51424W        W19642  37.861  31.898  10.292
51425W        W19643  24.096   4.801   0.969
51426W        W19644   7.387   3.861  13.495
51427W        W19645   8.159  41.657   2.399
51428W        W19646   6.771  14.130   3.319
51429W        W19647  17.798  26.596  10.660
51430W        W19648  14.610  32.043   3.384
51431W        W19649   9.401  30.127   1.243
51432W        W19650  35.567  43.680  12.941
51433W        W19651  16.682   0.981   0.248
51434W        W19652  33.193  17.284   1.270
51435W        W19653  13.117  22.100   4.383
51436W        W19654  43.799  29.610  11.950
51437W        W19655   3.665  43.617  11.518
51438W        W19656  31.496  30.327   5.271
51439W        W19657  42.972  11.360  10.354
51440W        W19658   8.655  44.561  10.936
51441W        W19659  18.100  28.219   3.497
51442W        W19660  43.826  43.626   3.945
51443W        W19661  16.980  24.210   3.209
51444W        W19662  18.906  12.197  13.275
51445W        W19663  22.421  28.148  11.952
51446W        W19664  27.996  42.062   1.422
51447W        W19665  29.978  24.330   4.996
51448W        W19666  42.201   2.704  10.662
51449W        W19667  33.915  22.026   1.373
51450W        W19668  36.335  39.475  11.455
51451W        W19669  40.104  36.521   2.254
51452W        W19670  14.879  41.291   4.091
51453W        W19671  11.712   1.980   4.024
51454W        W19672  31.352  33.008   2.026
51455W        W19673  16.120  32.059   4.031
51456W        W19674  22.002  35.308   0.652
51457W        W19675  17.144   2.885   4.839
51458W        W19676  44.252   9.572   1.676
51459W        W19677  19.109   8.248   4.247
51460W        W19678   4.544  26.282  13.178
51461W        W19679  40.255  25.479  11.509
51462W        W19680   3.282  17.388   4.203
51463W        W19681  39.522   4.472  11.128
51464W        W19682  22.013  24.573  12.792
51465W        W19683   4.951  31.807   0.220
51466W        W19684  30.351  36.977   4.550
51467W        W19685   9.881   5.790   3.816
51468W        W19686  28.532  32.175   3.185
51469W        W19687  30.698  38.658  12.629
51470W        W19688  23.227   9.214   3.243
51471W        W19689  23.246  15.825  13.374
51472W        W19690   9.419  41.682  11.440
51473W        W19691  35.676  30.671  13.200
51474W        W19692  31.871  14.358  14.506
51475W        W19693  32.344  17.702  14.826
51476W        W19694  36.381   6.146   2.425
51477W        W19695  11.976  37.424   4.141
51478W        W19696  31.597  19.246   3.202
51479W        W19697  28.535  22.927  11.949
51480W        W19698  41.676  32.116   4.677
51481W        W19699  26.611  41.268   4.282
51482W        W19700  17.779  10.317  14.784
51483W        W19701  26.321   3.641   1.886
51484W        W19702  12.041  25.007  12.019
51485W        W19703  35.533  13.700   1.693
51486W        W19704  38.795  16.218  12.111
51487W        W19705  12.951  24.588  10.599
51488W        W19706  33.183  20.089  12.225
51489W        W19707  16.690   5.274   2.655
51490W        W19708  20.786  35.869   2.623
51491W        W19709  41.307  22.879   0.882
51492W        W19710  13.848  12.809   2.508
51493W        W19711  34.312  42.873   2.025
51494W        W19712   1.840  41.739  10.536
51495W        W19713  17.542  17.516   4.986
51496W        W19714  41.374  12.683   0.799
51497W        W19715  37.000  30.958  14.698
51498W        W19716  40.144   3.773  10.345
51499W        W19717  20.031  23.030  13.387
51500W        W19718   9.133   1.822   4.498
51501W        W19719  36.513  35.227  13.046
51502W        W19720  33.874   6.394  11.581
51503W        W19721   5.952   4.936  14.119
51504W        W19722   6.281  39.534   3.068
51505W        W19723  29.788  35.850  13.909
51506W        W19724  35.389   3.345   3.799
51507W        W19725  33.345  42.417  14.920
51508W        W19726  11.272  28.027   3.700
51509W        W19727  34.127   1.451   2.737
51510W        W19728  42.230   4.729  10.703
51511W        W19729  10.186   4.747  12.550
51512W        W19730   3.641  31.358  13.311
51513W        W19731  44.869  11.324   4.396
51514W        W19732   0.705  25.446   1.802
51515W        W19733  26.183  11.050   4.273
51516W        W19734  14.993  12.685   1.764
51517W        W19735  35.487  25.454  10.546
51518W        W19736  24.502  22.116  13.084
51519W        W19737  43.002  24.717  10.710
51520W        W19738  27.186  13.114  12.368
51521W        W19739  26.622  22.394   1.012
51522W        W19740   3.804  28.151  13.411
51523W        W19741  39.570  30.616   2.324
51524W        W19742   9.185  25.271   4.267
51525W        W19743  23.663  16.569  10.586
51526W        W19744   5.712  25.716  13.820
51527W        W19745  24.539  20.063  14.134
51528W        W19746   7.165  30.996   2.002
51529W        W19747  43.093  34.103   4.801
51530W        W19748  36.885  35.795   3.771
51531W        W19749  19.183  37.332  11.860
51532W        W19750   0.677  20.906   4.057
51533W        W19751   7.511  44.882   2.186
51534W        W19752  26.095  34.615   2.751
51535W        W19753  44.846  18.105  13.767
51536W        W19754  37.227   8.699   1.816
51537W        W19755  38.983   9.649   2.756
51538W        W19756  41.313   8.382   0.954
51539W        W19757  17.321   0.430  10.658
51540W        W19758  34.996  24.170   3.089
51541W        W19759  24.415  15.664  11.116
51542W        W19760  34.212   1.181  12.142
51543W        W19761   4.918  10.901   1.712
51544W        W19762  20.315  11.388  11.235
51545W        W19763   3.979   4.779   0.808
51546W        W19764  30.019  20.691  12.371
51547W        W19765   4.323  25.443  13.381
51548W        W19766  37.415  38.843  13.325
51549W        W19767   6.130  12.174  10.760
51550W        W19768   2.581  23.189  10.694
51551W        W19769  14.274  24.827  13.359
51552W        W19770  42.779  14.818  10.550
51553W        W19771  32.830  27.277  11.971
51554W        W19772  43.084   4.024   1.784
51555W        W19773  35.045  37.059   2.872
51556W        W19774  19.266   8.109  14.909
51557W        W19775  40.796  38.569   3.680
51558W        W19776  44.747  26.885  14.367
51559W        W19777  18.832  25.482   3.104
51560W        W19778  40.507   4.261   3.151
51561W        W19779  25.238  24.880  12.477
51562W        W19780  38.241  11.699  13.408
51563W        W19781  19.019  29.424   4.304
51564W        W19782  23.582  35.326   2.403
51565W        W19783   6.226   1.873   0.456
51566W        W19784  10.307   8.141  12.572
51567W        W19785  39.426  28.155   0.378
51568W        W19786   3.212  37.404  12.979
51569W        W19787  20.271  21.694   3.288
51570W        W19788   6.013  35.339   1.570
51571W        W19789  37.785  12.833   0.509
51572W        W19790  30.538  34.063  11.540
51573W        W19791  33.398  25.585  13.884
51574W        W19792  43.426  13.220   4.449
51575W        W19793   8.571   4.914  10.655
51576W        W19794   8.698  35.258   5.212
51577W        W19795  31.034  28.688  10.669
51578W        W19796  28.614   9.477   1.633
51579W        W19797  13.857  37.891  12.496
51580W        W19798  29.594  41.493  10.798
51581W        W19799   3.861  25.973   2.521
51582W        W19800  36.122  42.402  11.176
51583W        W19801  22.490  14.781   0.747
51584W        W19802  38.079   4.807   0.927
51585W        W19803  25.099  31.349  11.609
51586W        W19804  12.340  36.498   0.050
51587W        W19805   6.754  35.552  14.454
51588W        W19806  10.739  37.079  11.560
51589W        W19807  25.776  38.884   3.888
51590W        W19808  35.863  38.314  11.088
51591W        W19809  16.325   8.959  12.524
51592W        W19810   4.250  39.708   2.626
51593W        W19811  28.937  22.597   1.013
51594W        W19812  13.300  15.552   5.050
51595W        W19813   2.363  33.625  12.666
51596W        W19814   1.476  13.238   4.213
51597W        W19815  25.820  38.951   1.008
51598W        W19816  37.748  43.960   3.559
51599W        W19817  25.808  13.012  13.412
51600W        W19818  25.215  34.978   4.884
51601W        W19819   3.945  14.474   3.726
51602W        W19820  25.923  24.006   2.861
51603W        W19821  23.933  43.684   3.722
51604W        W19822  41.472  16.298   0.870
51605W        W19823  30.032  27.509  12.765
51606W        W19824  26.260  38.396  10.626
51607W        W19825   4.571  26.169  11.187
51608W        W19826  30.509  39.973  11.685
51609W        W19827  16.720  39.158   1.300
51610W        W19828   8.052   2.776   2.933
51611W        W19829  16.095  25.970  12.489
51612W        W19830  21.125  19.786  11.472
51613W        W19831  11.734   5.418   2.447
51614W        W19832  13.110  38.362   2.263
51615W        W19833  12.339   1.053  12.162
51616W        W19834  40.249   0.764   3.306
51617W        W19835   4.775   4.283   4.661
51618W        W19836  22.168   1.281  10.533
51619W        W19837   6.959   8.904  12.002
51620W        W19838  38.653  26.232   4.964
51621W        W19839  17.499  12.121   4.885
51622W        W19840  38.280  15.178  14.301
51623W        W19841  26.708   4.780  14.019
51624W        W19842  43.953  21.002  13.748
51625W        W19843  14.056  43.981  13.379
51626W        W19844  29.443  18.744   1.387
51627W        W19845   5.866  17.287  14.937
51628W        W19846  39.470  33.197   2.265
51629W        W19847  44.449  33.786  13.004
51630W        W19848   4.693  34.026   0.773
51631W        W19849  36.581   1.028   4.611
51632W        W19850  39.426   7.474   0.027
51633W        W19851   4.884  33.787  12.845
51634W        W19852  35.373  25.441   1.939
51635W        W19853   5.486   7.291  11.154
51636W        W19854  37.552  14.628  14.149
51637W        W19855  34.124  16.554  13.078
51638W        W19856  33.933  18.004  11.547
51639W        W19857   4.254  40.856  12.064
51640W        W19858   9.832  37.821   0.382
51641W        W19859  22.970  23.090  10.731
51642W        W19860  22.453  16.677   4.571
51643W        W19861   3.442  35.888   3.775
51644W        W19862   7.221  40.989   3.884
51645W        W19863  27.972  37.311  10.578
51646W        W19864  33.535  12.513   4.544
51647W        W19865  38.437  25.119  11.125
51648W        W19866  23.589  28.114  12.839
51649W        W19867   5.091  18.714   1.002
51650W        W19868  16.717   3.775  10.697
51651W        W19869  22.759  34.554   2.467
51652W        W19870  31.041   3.114  10.673
51653W        W19871   2.294  21.605   4.361
51654W        W19872  15.195  38.002   4.754
51655W        W19873  40.504   9.889   3.764
51656W        W19874  26.630  38.094  12.028
51657W        W19875  28.440   7.420   2.590
51658W        W19876  33.984  14.893   1.154
51659W        W19877  32.491  30.027   1.871
51660W        W19878  42.377  13.695   0.868
51661W        W19879  35.038  36.296   0.371
51662W        W19880  16.257   0.104  14.051
51663W        W19881  26.003  13.263  10.380
51664W        W19882  12.541  27.043   3.325
51665W        W19883  29.371  22.702   9.641
51666W        W19884   1.444   1.009  14.861
51667W        W19885  23.705   0.376  11.371
51668W        W19886  39.054  25.577  14.856
51669W        W19887  38.505   5.784  11.974
51670W        W19888   4.189  15.212  11.569
51671W        W19889   6.953  35.302   2.070
51672W        W19890  19.488  37.320   4.619
51673W        W19891  14.645  40.352  13.782
51674W        W19892   7.702  17.223   1.813
51675W        W19893  33.986  26.638  12.635
51676W        W19894  44.550  22.102  10.722
51677W        W19895   2.146   3.637  11.191
51678W        W19896  11.565  41.256   1.813
51679W        W19897  10.646  35.539   4.559
51680W        W19898  28.712  24.260   4.484
51681W        W19899  26.699  22.320   4.956
51682W        W19900   0.136   8.875  13.529
51683W        W19901   9.238  20.967   1.407
51684W        W19902  10.537  13.853   3.886
51685W        W19903  31.708   8.934   3.405
51686W        W19904  18.061  36.972  11.600
51687W        W19905  11.036  44.415  13.595
51688W        W19906  24.057  12.356   2.304
51689W        W19907  10.076  40.457   3.391
51690W        W19908  13.222   4.709   4.577
51691W        W19909  20.511  16.123  12.533
51692W        W19910  11.616  11.521   1.293
51693W        W19911  29.595   5.116   4.971
51694W        W19912  43.048   8.413  10.655
51695W        W19913  38.601   2.698  12.109
51696W        W19914   5.687   8.475   4.797
51697W        W19915  40.213  42.338   0.426
51698W        W19916   9.289   5.038   0.397
51699W        W19917  12.683  26.964  10.907
51700W        W19918   1.529  20.552  12.511
51701W        W19919  18.099  43.285  13.185
51702W        W19920   6.314  26.482   2.954
51703W        W19921   5.275  15.919  11.370
51704W        W19922  23.421  22.691  13.588
51705W        W19923  18.018  38.161  13.987
51706W        W19924  14.052   7.322   2.039
51707W        W19925  34.018   0.894  10.415
51708W        W19926  36.861  38.864  14.930
51709W        W19927  39.979  23.761   1.381
51710W        W19928  22.072  28.506  14.813
51711W        W19929  26.896  43.542   1.216
51712W        W19930   1.844  19.792   2.759
51713W        W19931  15.150  28.709   2.617
51714W        W19932  30.029  21.127   3.548
51715W        W19933  38.083  10.623  14.739
51716W        W19934   2.382  13.100  11.628
51717W        W19935  13.593  33.423  12.556
51718W        W19936  39.103  32.863   2.320
51719W        W19937  28.451  18.305   0.431
51720W        W19938  25.694  29.005  13.519
51721W        W19939  15.981  38.511   2.114
51722W        W19940  14.179  15.051   3.600
51723W        W19941   3.818   4.614   1.691
51724W        W19942  38.433   5.732  11.459
51725W        W19943  33.570  26.094  13.855
51726W        W19944   0.013  32.049   3.223
51727W        W19945  12.699  29.898   0.639
51728W        W19946  19.065  39.026  10.451
51729W        W19947  24.866  38.768  11.010
51730W        W19948   0.366  32.380  14.457
51731W        W19949   2.204  25.657   0.844
51732W        W19950  21.968  17.217   4.034
51733W        W19951  37.795  11.452   3.071
51734W        W19952  18.844  35.913  11.593
51735W        W19953  42.413  14.248   2.860
51736W        W19954  13.529  38.946   1.707
51737W        W19955  11.400  29.980   1.221
51738W        W19956  15.832  30.894  11.607
51739W        W19957   5.297  26.065   4.596
51740W        W19958  24.047  14.021   4.087
51741W        W19959  30.950  11.924   9.896
51742W        W19960  29.155  28.097  14.119
51743W        W19961  19.036  30.525  13.492
51744W        W19962   7.182  23.300   1.299
51745W        W19963  38.292  35.630   2.721
51746W        W19964   1.536   4.834  14.498
51747W        W19965  11.592   3.186   1.750
51748W        W19966   9.800  34.540  14.776
51749W        W19967  18.612  37.629  10.375
51750W        W19968  24.156  16.733  11.997
51751W        W19969  30.082  17.255  13.248
51752W        W19970   9.186  38.668  10.962
51753W        W19971  13.580  13.769  12.451
51754W        W19972  33.419   1.383  11.541
51755W        W19973  12.735  35.686   3.691
51756W        W19974  18.763  30.662   3.388
51757W        W19975   1.242  18.028  14.075
51758W        W19976   6.866  34.530   2.057
51759W        W19977  21.608  17.277  11.788
51760W        W19978  44.935  32.630  14.899
51761W        W19979  43.420   0.262   4.786
51762W        W19980  43.126  12.592   3.677
51763W        W19981  15.657  12.706   3.643
51764W        W19982  12.508   5.911  14.185
51765W        W19983  18.038  33.373  10.640
51766W        W19984  15.478  18.927  12.825
51767W        W19985  42.525  29.954  12.806
51768W        W19986  17.087   4.956  13.940
51769W        W19987  19.027  10.613   2.184
51770W        W19988  38.017  28.721  13.510
51771W        W19989   3.816   3.428   4.206
51772W        W19990  10.717  34.985   2.498
51773W        W19991  25.259  21.515   3.169
51774W        W19992  35.126  25.044   3.725
51775W        W19993   4.696  30.234   3.666
51776W        W19994  32.843  21.512   4.304
51777W        W19995   3.842   2.908   4.062
51778W        W19996   3.331  12.878   4.785
51779W        W19997  27.341  30.427  12.997
51780W        W19998   7.154  41.483  14.532
51781W        W19999  17.648  30.704   1.254
51782W        W20000  40.016  31.417  14.448
51783W        W20001  18.029  18.290  11.977
51784W        W20002  35.604   3.342  12.401
51785W        W20003  26.525  16.282  12.488
51786W        W20004  44.910  26.672  14.851
51787W        W20005  15.655  31.912  14.366
51788W        W20006  26.141  27.184  11.482
51789W        W20007  22.039  10.651   0.858
51790W        W20008  31.613  44.225  11.198
51791W        W20009  22.046  32.011   1.060
51792W        W20010  30.222  22.954  14.807
51793W        W20011  14.976   1.004   2.660
51794W        W20012  19.555  37.879   0.525
51795W        W20013  16.773  18.094  12.598
51796W        W20014  21.864  43.942   1.450
51797W        W20015  41.458   8.079   0.203
51798W        W20016  41.687  12.404  14.440
51799W        W20017  43.114  43.885  12.072
51800W        W20018  44.705   5.530  12.889
51801W        W20019  14.082   7.330  13.426
51802W        W20020   7.289  10.311  14.522
51803W        W20021  25.259   4.302   2.281
51804W        W20022  23.008  38.305  12.805
51805W        W20023  33.193  36.060   3.117
51806W        W20024  17.713  38.691  13.477
51807W        W20025   4.719  19.064  12.840
51808W        W20026   2.473   1.844  11.225
51809W        W20027  14.060   8.891   3.564
51810W        W20028  37.313  22.588   4.859
51811W        W20029  24.150  42.669  12.443
51812W        W20030  14.279  11.602   0.237
51813W        W20031  39.587  32.671   3.607
51814W        W20032  20.745   5.765   2.285
51815W        W20033  13.758  34.344  11.056
51816W        W20034  19.160   3.748  13.438
51817W        W20035   3.736  43.505  12.883
51818W        W20036  31.119  36.105  13.030
51819W        W20037  29.674  39.772  10.913
51820W        W20038   0.000  26.680   1.351
51821W        W20039  19.630  18.880   4.164
51822W        W20040  37.971  36.594  11.230
51823W        W20041  26.643  17.591   4.062
51824W        W20042  29.169   2.792   0.937
51825W        W20043  17.306  40.127   3.661
51826W        W20044   9.331   0.170   3.685
51827W        W20045  33.424  25.189   5.055
51828W        W20046  15.293  25.968   1.530
51829W        W20047   3.774  36.493  12.617
51830W        W20048  26.413  21.702   9.521
51831W        W20049  14.425  36.320   1.174
51832W        W20050  26.394  28.209   1.346
51833W        W20051  40.746  35.083   4.275
51834W        W20052  36.497   7.359   1.267
51835W        W20053  24.475  44.419   0.896
51836W        W20054   8.852   2.732  11.062
51837W        W20055  24.972  15.809   2.197
51838W        W20056  22.955  13.050  12.882
51839W        W20057  44.965  40.358   0.363
51840W        W20058  11.820  23.984  12.024
51841W        W20059  34.042  38.448  14.739
51842W        W20060  32.507  34.891   4.554
51843W        W20061  33.257  42.131  12.440
51844W        W20062   6.108  35.964   3.646
51845W        W20063  31.401  27.936   2.666
51846W        W20064   6.797  30.411   4.494
51847W        W20065  25.385  23.556   2.384
51848W        W20066  19.864   4.297  13.902
51849W        W20067  41.422  34.612   4.620
51850W        W20068   5.115   9.951   2.393
51851W        W20069   7.392  19.523  12.624
51852W        W20070   3.480  35.913   1.223
51853W        W20071   7.846  28.496   0.921
51854W        W20072   3.438  33.986   4.479
51855W        W20073  39.534  13.590   1.319
51856W        W20074   5.888  33.095   3.197
51857W        W20075  10.286  27.278   2.224
51858W        W20076  19.789   6.645   2.750
51859W        W20077  29.670  16.765   1.290
51860W        W20078  27.991  10.351   0.199
51861W        W20079  33.171  18.929   1.602
51862W        W20080  36.641  12.187  11.635
51863W        W20081  37.368  28.543  14.679
51864W        W20082  29.518  11.580   2.253
51865W        W20083  28.040  26.279   2.460
51866W        W20084  13.927   7.695  11.442
51867W        W20085  19.044   9.740  14.001
51868W        W20086   1.524   0.041   0.698
51869W        W20087  13.731  14.623  14.804
51870W        W20088  35.232  27.869   0.863
51871W        W20089  10.799  11.809   4.477
51872W        W20090  15.729  26.550  11.484
51873W        W20091   0.762  35.940  14.813
51874W        W20092   3.813  15.110   1.332
51875W        W20093  34.444   6.893   2.729
51876W        W20094   0.743   5.323   4.440
51877W        W20095  38.285  18.937  12.621
51878W        W20096  19.057   7.892  10.929
51879W        W20097  44.537  40.531  13.869
51880W        W20098  35.098  14.477   0.512
51881W        W20099   7.417  39.421   0.827
51882W        W20100  10.140  26.618   3.762
51883W        W20101   8.731  32.507   3.782
51884W        W20102  43.822  41.148   2.426
51885W        W20103  26.700  33.966  11.181
51886W        W20104  12.872   0.938  10.757
51887W        W20105  36.037  25.898   3.940
51888W        W20106   6.822  25.078  11.321
51889W        W20107   5.845   3.290  14.770
51890W        W20108  17.109  29.979   1.482
51891W        W20109  37.578  29.470   3.715
51892W        W20110  15.538   5.795   2.854
51893W        W20111   3.062  44.737   4.465
51894W        W20112  36.071  19.609  13.087
51895W        W20113   9.941  15.576   4.518
51896W        W20114  17.265  28.696   0.804
51897W        W20115  39.576  17.756  10.798
51898W        W20116  40.965  21.502   3.753
51899W        W20117   0.594  36.876  13.844
51900W        W20118  12.769   4.871   3.744
51901W        W20119  13.147  17.088   4.036
51902W        W20120  31.012  22.087  14.319
51903W        W20121  32.849   4.389   1.839
51904W        W20122  34.864  29.179   4.162
51905W        W20123   4.777  24.356   5.011
51906W        W20124  37.962  20.621   4.150
51907W        W20125  15.573  17.631  14.437
51908W        W20126  19.523  24.249  13.173
51909W        W20127  26.653  21.296  12.517
51910W        W20128   7.811  21.125   1.671
51911W        W20129   3.228   6.164   4.412
51912W        W20130  22.271  35.430  12.782
51913W        W20131   2.337  41.437  10.766
51914W        W20132  10.675  35.161  14.585
51915W        W20133  29.614  12.158   3.720
51916W        W20134  37.136  30.499   2.054
51917W        W20135  13.109   2.390   4.334
51918W        W20136   7.415  14.644  11.153
51919W        W20137  30.057  21.670   2.355
51920W        W20138  20.500   9.750  13.835
51921W        W20139  17.751  25.569   1.097
51922W        W20140   0.918   1.382   3.844
51923W        W20141  42.987  22.474  10.785
51924W        W20142  38.043   3.311   2.482
51925W        W20143  29.360   1.835  10.775
51926W        W20144  13.619  34.351   4.015
51927W        W20145  18.136  11.186   9.978
51928W        W20146  22.459   1.736  13.086
51929W        W20147  20.685   8.736   2.935
51930W        W20148  26.557  25.082   1.608
51931W        W20149  13.784  14.751  10.419
51932W        W20150   3.428  18.663   2.362
51933W        W20151   6.440  16.626   4.425
51934W        W20152  19.088  33.854   4.609
51935W        W20153  22.235   2.018  12.025
51936W        W20154  26.503  10.256   1.243
51937W        W20155  43.981  33.852  13.758
51938W        W20156  14.342  42.950  14.889
51939W        W20157   1.481   0.027   4.670
51940W        W20158  28.959  14.782   0.436
51941W        W20159  33.029  11.621  12.457
51942W        W20160  27.971  27.698  11.022
51943W        W20161   7.788   4.668  14.577
51944W        W20162  42.481  29.007  10.956
51945W        W20163  43.876  22.532  11.880
51946W        W20164   9.591   8.957  12.678
51947W        W20165   8.132  18.842  12.369
51948W        W20166  43.492  32.984  14.364
51949W        W20167  22.564  34.569   1.195
51950W        W20168  41.326  44.771   2.246
51951W        W20169  43.933  19.206   4.198
51952W        W20170  22.544  19.771   0.602
51953W        W20171  19.556   7.216   1.822
51954W        W20172  13.416  22.698   0.367
51955W        W20173   3.665  19.891  11.036
51956W        W20174   4.086  30.905   3.242
51957W        W20175   2.723  29.354  12.115
51958W        W20176  33.966  18.185   2.387
51959W        W20177  36.580  34.086   3.837
51960W        W20178  33.851  14.563   4.425
51961W        W20179  14.233  10.583  11.561
51962W        W20180  36.563  25.157   4.499
51963W        W20181  23.528  18.312  11.513
51964W        W20182  14.543  39.457   4.223
51965W        W20183   5.149  11.355  10.674
51966W        W20184  38.064  16.770  12.086
51967W        W20185  39.683  16.566   1.801
51968W        W20186  28.722  32.123  11.183
51969W        W20187   7.169  19.585   4.572
51970W        W20188  29.358  43.727  13.962
51971W        W20189  27.421  39.163  12.334
51972W        W20190  39.915  35.864   0.710
51973W        W20191  25.861  12.289   2.379
51974W        W20192  19.373  13.013   1.807
51975W        W20193  23.618  14.135  11.745
51976W        W20194  34.900   6.636   2.716
51977W        W20195  41.439  37.016  10.764
51978W        W20196   6.104  21.775   0.283
51979W        W20197  11.772  43.327   3.221
51980W        W20198   7.069  11.519  14.922
51981W        W20199  24.046  20.755  11.044
51982W        W20200  31.538   8.662  10.523
51983W        W20201  11.640  30.126  11.005
51984W        W20202   4.155  31.906   9.981
51985W        W20203  41.781   4.348  11.981
51986W        W20204  11.435  13.634   0.622
51987W        W20205  34.943  35.227   0.346
51988W        W20206   8.659   6.684  12.339
51989W        W20207  24.731  27.231  14.463
51990W        W20208  30.747  27.314  13.797
51991W        W20209   9.464   5.951   3.535
51992W        W20210   1.744  10.209  13.524
51993W        W20211  33.232  39.434   1.867
51994W        W20212  41.911  41.879   1.559
51995W        W20213  35.329  29.397  14.624
51996W        W20214  14.800   7.839  13.392
51997W        W20215  35.916  39.426   2.733
51998W        W20216   8.782  27.367   3.232
51999W        W20217  23.966  37.733  11.225
52000W        W20218  42.822  10.758  12.993
52001W        W20219   3.713   8.024   3.747
52002W        W20220  31.990  35.123  13.050
52003W        W20221  11.726  16.164  12.057
52004W        W20222  40.741   8.261  11.202
52005W        W20223  22.994   4.392  10.459
52006W        W20224  34.683   6.639  11.941
52007W        W20225  38.864   8.600   2.708
52008W        W20226   2.858  43.510   2.791
52009W        W20227  10.786  26.202  12.417
52010W        W20228  32.150  20.326  13.857
52011W        W20229  16.467  26.268  11.603
52012W        W20230   0.197  14.813   2.576
52013W        W20231  33.450  37.564  12.772
52014W        W20232  29.876  31.469   4.103
52015W        W20233  27.043  43.862  13.013
52016W        W20234  19.463   0.228   3.130
52017W        W20235  31.652   5.431   5.000
52018W        W20236  22.606  15.567  12.453
52019W        W20237  43.944  43.529   1.154
52020W        W20238   6.650  34.456  12.083
52021W        W20239  10.325  19.112   4.174
52022W        W20240  18.166  12.327   1.198
52023W        W20241   5.204  27.989   1.859
52024W        W20242  30.875  10.664   4.102
52025W        W20243  13.335  17.482  14.052
52026W        W20244   5.482  22.703   3.571
52027W        W20245  18.742  36.971  14.689
52028W        W20246  13.138  33.372   3.682
52029W        W20247  37.881  16.676   2.959
52030W        W20248  30.659  37.535   1.919
52031W        W20249  31.373   0.702  13.466
52032W        W20250  43.960   9.722   1.262
52033W        W20251  19.150  36.816   3.609
52034W        W20252  35.685  27.093  14.795
52035W        W20253  28.408  33.590   4.522
52036W        W20254  15.623  28.512   1.237
52037W        W20255  29.363   9.322  11.503
52038W        W20256  35.495  17.877  14.972
52039W        W20257  36.915   0.278  11.521
52040W        W20258  44.826  20.217  14.868
52041W        W20259  27.674  27.658  12.992
52042W        W20260   7.707   7.587  13.426
52043W        W20261  20.619   3.348   0.353
52044W        W20262   7.174  34.977  12.583
52045W        W20263  35.438  20.677   0.818
52046W        W20264   3.316  33.520   0.277
52047W        W20265  29.878  23.119   3.802
52048W        W20266  21.177  33.120   9.764
52049W        W20267  27.250   1.466   2.763
52050W        W20268  39.855   4.968  10.653
52051W        W20269  28.703  23.023   0.860
52052W        W20270  25.255  25.229   4.491
52053W        W20271  43.016  30.020  12.933
52054W        W20272  21.190  12.749  11.515
52055W        W20273  12.581   6.775   3.241
52056W        W20274   4.140  41.546   2.245
52057W        W20275  17.373  17.439   1.819
52058W        W20276  29.415  37.727   4.375
52059W        W20277  22.267  42.246  13.450
52060W        W20278  18.587  36.873  13.782
52061W        W20279   7.321  34.047  10.475
52062W        W20280  25.788  37.975  12.104
52063W        W20281   6.397  37.456   4.619
52064W        W20282  17.632  30.525   3.224
52065W        W20283   2.862   8.497   4.812
52066W        W20284  33.518  11.347  12.314
52067W        W20285  12.273  12.308  11.363
52068W        W20286  40.322  23.931  13.938
52069W        W20287  22.738  20.116  12.900
52070W        W20288   1.848  37.538   3.819
52071W        W20289  34.592  42.828  12.367
52072W        W20290  13.016   8.159  13.441
52073W        W20291  11.958  20.362  12.424
52074W        W20292   1.010  24.530  14.664
52075W        W20293  17.085  19.015   1.868
52076W        W20294   3.392  37.835   4.626
52077W        W20295   6.641  31.154  12.981
52078W        W20296   6.365  30.535  14.466
52079W        W20297  42.863  33.394   4.547
52080W        W20298   3.640  23.146   4.510
52081W        W20299   5.105  23.171  10.521
52082W        W20300  42.315  34.321  11.365
52083W        W20301   6.410   5.268  11.059
52084W        W20302  24.572  28.154  10.587
52085W        W20303  11.979   3.342  12.588
52086W        W20304   7.340  33.137   1.223
52087W        W20305  18.592  41.088   4.153
52088W        W20306  43.045  13.385   0.318
52089W        W20307  36.522  29.639   4.597
52090W        W20308  36.848  25.457   1.958
52091W        W20309  10.346  17.114  11.911
52092W        W20310  19.224   8.302   2.000
52093W        W20311  17.467  36.932  14.574
52094W        W20312  39.863  20.230  10.566
52095W        W20313  10.707  42.275  11.502
52096W        W20314  43.838   5.734  13.135
52097W        W20315  39.643  32.658   1.465
52098W        W20316  35.616  22.462   0.310
52099W        W20317   6.353  36.917   3.267
52100W        W20318  29.734  40.416   2.329
52101W        W20319   1.354   6.035  13.969
52102W        W20320   2.459   4.325   3.111
52103W        W20321  40.044  31.854  11.598
52104W        W20322  34.802  29.973   2.122
52105W        W20323   0.738  20.674  14.307
52106W        W20324  38.561  22.472   1.216
52107W        W20325   0.934  33.338  13.753
52108W        W20326  17.774  20.209   0.943
52109W        W20327  33.916   4.981   0.374
52110W        W20328  15.889  30.601   3.201
52111W        W20329  12.179  22.741  13.120
52112W        W20330  35.722   5.970   3.205
52113W        W20331  16.815  36.087   2.729
52114W        W20332  31.383  38.064  14.868
52115W        W20333  14.293  28.226  14.961
52116W        W20334  12.105  16.008   4.518
52117W        W20335  32.418  15.149   4.124
52118W        W20336   1.056  25.630  14.874
52119W        W20337  43.678  40.636  11.105
52120W        W20338   9.154  19.004  10.450
52121W        W20339  21.594  38.431  14.558
52122W        W20340  32.621   3.678   1.374
52123W        W20341  43.825  31.305  11.542
52124W        W20342   9.780  44.680   2.962
52125W        W20343   8.653  18.850  14.773
52126W        W20344  37.284  44.207  13.008
52127W        W20345  14.593  39.846   4.911
52128W        W20346   3.053   7.865   2.828
52129W        W20347  28.227   0.491  10.856
52130W        W20348   4.378  10.387  12.038
52131W        W20349  33.787  27.992  14.541
52132W        W20350  26.616  44.912   2.255
52133W        W20351  38.821   0.522   4.623
52134W        W20352  16.021  39.737   1.837
52135W        W20353   0.929  30.931  13.467
52136W        W20354  12.933  11.390   3.273
52137W        W20355   8.487  15.641   2.871
52138W        W20356   2.487   5.945  12.484
52139W        W20357   0.045  29.214   0.152
52140W        W20358  39.426  31.628   1.327
52141W        W20359  10.654  37.387   2.387
52142W        W20360  23.179  14.581   2.337
52143W        W20361  18.040  27.543   1.055
52144W        W20362  13.871   2.864   0.911
52145W        W20363  13.411   1.563   0.839
52146W        W20364   0.653  19.953  13.280
52147W        W20365  28.596  22.723   4.645
52148W        W20366  29.300   5.516  10.487
52149W        W20367  17.527  16.585   0.514
52150W        W20368  18.660   9.703  11.884
52151W        W20369  11.171   2.747   4.686
52152W        W20370  33.576  33.217   2.561
52153W        W20371   7.888   8.069   4.131
52154W        W20372  39.082  43.570   0.808
52155W        W20373  37.640  34.066  12.834
52156W        W20374   7.972   1.519   4.850
52157W        W20375  26.059  16.028  12.540
52158W        W20376   8.767  15.136  10.219
52159W        W20377  18.040  21.680  12.863
52160W        W20378  27.703  35.969  13.075
52161W        W20379  10.273   5.192   4.313
52162W        W20380  33.536  22.725  12.085
52163W        W20381  29.045  22.204  11.054
52164W        W20382  28.907   9.657  12.022
52165W        W20383  18.236  16.234  10.457
52166W        W20384   2.379  23.732  11.417
52167W        W20385  43.265  30.744  14.881
52168W        W20386  28.394  15.990  12.455
52169W        W20387   9.078  36.566   3.192
52170W        W20388  44.497  23.612   1.375
52171W        W20389  10.346   8.468   1.290
52172W        W20390  31.222  30.215  12.932
52173W        W20391  12.210  42.873   3.823
52174W        W20392   1.747  26.782   2.036
52175W        W20393  19.300  38.408   2.000
52176W        W20394  16.343  23.032   0.623
52177W        W20395  23.075  11.115  11.465
52178W        W20396   8.643   6.659   3.184
52179W        W20397  12.108  32.860   3.474
52180W        W20398  18.528  23.801   2.196
52181W        W20399  33.186  25.019   2.332
52182W        W20400  15.642  30.533  13.782
52183W        W20401   0.515  16.228   2.683
52184W        W20402   6.262  20.149  12.622
52185W        W20403  18.527  43.267  10.642
52186W        W20404   9.646   2.338  12.911
52187W        W20405   6.851  18.761   1.030
52188W        W20406  11.582   6.929   4.065
52189W        W20407   7.194  29.928  14.476
52190W        W20408  37.820  23.053  11.946
52191W        W20409  39.787  36.442   1.835
52192W        W20410   0.818  28.105   0.436
52193W        W20411   5.897  20.087  11.402
52194W        W20412  32.144  25.924  14.322
52195W        W20413   6.793  20.123   0.535
52196W        W20414  43.789  32.626   1.800
52197W        W20415  30.427   9.717   3.077
52198W        W20416   1.188  31.166  13.867
52199W        W20417  30.539  23.909  12.411
52200W        W20418  23.594  33.627  13.853
52201W        W20419  29.208  22.078   2.832
52202W        W20420  30.200  40.586   2.427
52203W        W20421  20.773   7.772  12.782
52204W        W20422   2.413  36.883  14.809
52205W        W20423  15.903  27.512   1.405
52206W        W20424  22.331  22.974  11.970
52207W        W20425  10.556  38.926  10.109
52208W        W20426  34.617   1.496   2.894
52209W        W20427  21.651   2.914  11.251
52210W        W20428  37.959  28.527   4.629
52211W        W20429  22.304  13.626   1.885
52212W        W20430  28.974   4.739  14.840
52213W        W20431  34.143  30.499   0.479
52214W        W20432   2.411  14.726  11.728
52215W        W20433  37.077  10.943   1.164
52216W        W20434   7.423  16.051   3.657
52217W        W20435  30.362  28.511   4.331
52218W        W20436  33.560   7.657  12.107
52219W        W20437   5.301   7.769  11.232
52220W        W20438  23.995   5.527  13.524
52221W        W20439  40.731  19.705   0.605
52222W        W20440  41.613  25.137   4.207
52223W        W20441  39.907  24.007   0.935
52224W        W20442  37.084  36.464  10.632
52225W        W20443  23.230   1.073  12.131
52226W        W20444  17.110   7.293   1.766
52227W        W20445   2.842  36.867  14.026
52228W        W20446  12.410   6.013  12.396
52229W        W20447   7.769  32.031  13.830
52230W        W20448  14.570   4.285  12.874
52231W        W20449  38.580  18.046  14.387
52232W        W20450  14.782  18.554   5.064
52233W        W20451  28.918  38.274   0.328
52234W        W20452   2.497  30.421   1.312
52235W        W20453  20.261  24.583   2.621
52236W        W20454   2.774  30.110  11.201
52237W        W20455  42.260  26.508   2.201
52238W        W20456  30.542   9.228   0.498
52239W        W20457   5.510  37.065  14.278
52240W        W20458   2.529  39.893  11.192
52241W        W20459  17.631  36.626  12.471
52242W        W20460   9.959  16.106   4.670
52243W        W20461  26.984  29.731   4.722
52244W        W20462  23.594   1.237  12.556
52245W        W20463   6.780  33.334  12.606
52246W        W20464  24.061  26.575  11.117
52247W        W20465  30.028  22.147  11.950
52248W        W20466  11.667   2.160  13.231
52249W        W20467   0.266  36.659  12.062
52250W        W20468  13.622  29.659  13.954
52251W        W20469   1.407   3.451  11.672
52252W        W20470  12.803  32.885  13.839
52253W        W20471  22.477  32.531  10.740
52254W        W20472   1.205   0.373   2.838
52255W        W20473   8.178  19.279  10.470
52256W        W20474  28.271   6.271  12.359
52257W        W20475   0.477  39.106   4.438
52258W        W20476   0.095  43.033   4.546
52259W        W20477   4.797  41.888   0.459
52260W        W20478  18.130  33.756  10.274
52261W        W20479  34.326  26.626  11.793
52262W        W20480  34.837  30.698   1.864
52263W        W20481  19.565   2.158   1.317
52264W        W20482  20.322   4.140  14.995
52265W        W20483  37.381  26.129  11.586
52266W        W20484  11.284  17.361  10.407
52267W        W20485   0.995  18.266   3.876
52268W        W20486  28.097  23.692  14.846
52269W        W20487  24.124   9.464   0.745
52270W        W20488  27.377   1.470   2.251
52271W        W20489  37.986  43.045  11.559
52272W        W20490  28.112  25.116   4.657
52273W        W20491  15.787   5.339   2.739
52274W        W20492  20.304   7.256  13.471
52275W        W20493  21.619   7.401   1.177
52276W        W20494  17.306  44.985  13.851
52277W        W20495  29.405  29.908  11.113
52278W        W20496   5.871  18.446  12.973
52279W        W20497  38.998  13.408  13.327
52280W        W20498  26.265  23.879   4.106
52281W        W20499  38.152  40.329  12.547
52282W        W20500  24.058  29.491   3.724
52283W        W20501  38.983  40.294   4.805
52284W        W20502  10.461   0.802   5.095
52285W        W20503  14.704   6.497   4.076
52286W        W20504  29.867  10.902  10.420
52287W        W20505  39.411  41.259   3.171
52288W        W20506  27.908   2.862  13.639
52289W        W20507  20.660  29.465   2.377
52290W        W20508   2.332  44.241  14.842
52291W        W20509   4.346  31.098   0.335
52292W        W20510  17.127  40.931   1.690
52293W        W20511   3.762  40.904   2.360
52294W        W20512  32.626  13.805  14.500
52295W        W20513  25.477  37.439   0.665
52296W        W20514  28.132  10.323  11.549
52297W        W20515   2.123  23.130  13.112
52298W        W20516   6.831  31.786  10.505
52299W        W20517  42.825   1.076  12.114
52300W        W20518  40.769   5.924   3.178
52301W        W20519  19.289  44.724  12.401
52302W        W20520  24.035  11.441  12.740
52303W        W20521  34.402  43.015  13.239
52304W        W20522  20.617  26.309   4.194
52305W        W20523  13.486  18.676   3.727
52306W        W20524   6.154  11.872  13.477
52307W        W20525  18.116  44.353  13.618
52308W        W20526  33.893   5.997   0.850
52309W        W20527  19.027  44.783  14.979
52310W        W20528  43.228  18.130   1.363
52311W        W20529  21.533  11.931  14.523
52312W        W20530   6.063  41.462   0.380
52313W        W20531   3.601  11.701   3.167
52314W        W20532  37.886  13.496  12.724
52315W        W20533  39.307   5.711   5.058
52316W        W20534  12.428  18.609  14.292
52317W        W20535  39.947  21.229   1.777
52318W        W20536  44.291   8.677  12.004
52319W        W20537   7.273   5.334   4.129
52320W        W20538  24.997  40.576   1.326
52321W        W20539   6.492  30.383  11.933
52322W        W20540  18.519  11.207   1.933
52323W        W20541  22.770  21.156  14.831
52324W        W20542  10.800  21.818   4.405
52325W        W20543  25.917  27.893  13.875
52326W        W20544  41.381  33.394  14.806
52327W        W20545  28.813  33.886   3.293
52328W        W20546  10.998  25.329  10.786
52329W        W20547  33.099  15.250  12.112
52330W        W20548  31.027  42.068   0.850
52331W        W20549  23.813   2.399  11.257
52332W        W20550   8.896  23.741  13.440
52333W        W20551  24.782  36.874  14.317
52334W        W20552  10.240  11.326  11.987
52335W        W20553  23.508  14.098   3.259
52336W        W20554  44.844  13.533   3.738
52337W        W20555   8.415  27.413  12.575
52338W        W20556  10.795  15.666   1.340
52339W        W20557   8.250  26.708   3.690
52340W        W20558  25.186  36.088  14.717
52341W        W20559  18.658  40.058  12.133
52342W        W20560  41.854  36.049   1.180
52343W        W20561   4.685   5.150  11.182
52344W        W20562  13.115   4.248   0.792
52345W        W20563   1.929  31.194   2.827
52346W        W20564  27.683  24.331   5.519
52347W        W20565  30.414  44.444  11.774
52348W        W20566  42.328  14.027   3.328
52349W        W20567  21.463  37.104  14.402
52350W        W20568  37.981   2.524   0.214
52351W        W20569  33.449  38.089   3.007
52352W        W20570  13.813  31.686   2.888
52353W        W20571   9.116  38.326  13.852
52354W        W20572   7.794  44.148  14.384
52355W        W20573  16.895   5.735   1.829
52356W        W20574  16.929  29.003  12.744
52357W        W20575  20.547  31.713   3.330
52358W        W20576  12.823  26.305   2.822
52359W        W20577  19.286  39.931  12.398
52360W        W20578   8.546  39.640  11.910
52361W        W20579  22.495  25.347  10.891
52362W        W20580  36.270  35.355  12.587
52363W        W20581  37.126  25.149  13.864
52364W        W20582  40.983  29.543  14.922
52365W        W20583  23.030  26.518   1.643
52366W        W20584  28.140  40.499   2.310
52367W        W20585  29.354  26.303   4.172
52368W        W20586  32.371  18.750  10.716
52369W        W20587  34.852  18.054  14.072
52370W        W20588  43.366  33.189  14.910
52371W        W20589  35.824  35.418   1.889
52372W        W20590  34.818  32.187   1.889
52373W        W20591  10.673  43.966   3.767
52374W        W20592   1.331  24.736  12.454
52375W        W20593   7.827  43.521   2.154
52376W        W20594   2.702  23.997   2.769
52377W        W20595  40.465  10.374   2.783
52378W        W20596  42.776   8.386   3.961
52379W        W20597  17.359  11.507  11.922
52380W        W20598  21.425  29.220   0.823
52381W        W20599  27.230  38.580   1.379
52382W        W20600  11.726   0.981   3.126
52383W        W20601  15.580   4.060   1.785
52384W        W20602   8.668  39.401  13.418
52385W        W20603  19.415  31.527  11.939
52386W        W20604  36.033   3.397  14.140
52387W        W20605   0.832  18.977  11.729
52388W        W20606  12.381  11.478  11.041
52389W        W20607   7.863  37.467   3.690
52390W        W20608  26.230  11.612   1.391
52391W        W20609  10.666  37.770  13.406
52392W        W20610  32.870   0.098   0.162
52393W        W20611   6.393  43.245   0.921
52394W        W20612  34.180  19.183  12.646
52395W        W20613  17.281  29.550  10.641
52396W        W20614  14.304  44.198  13.789
52397W        W20615  37.952  14.811   1.466
52398W        W20616  25.958  43.524   2.383
52399W        W20617  14.661  27.594   0.976
52400W        W20618  14.838  10.890   4.746
52401W        W20619  17.554  39.972   1.305
52402W        W20620  12.009  34.061  11.940
52403W        W20621   8.175  14.739  12.454
52404W        W20622  40.752  42.350  14.416
52405W        W20623  31.677   5.908  11.647
52406W        W20624  36.573   6.752  13.873
52407W        W20625   6.948  29.083   4.182
52408W        W20626  11.639  39.380   2.212
52409W        W20627  26.480  34.811  14.977
52410W        W20628  27.542  39.310   2.814
52411W        W20629  25.970  13.644   2.351
52412W        W20630  31.906  35.701   4.818
52413W        W20631  40.984  24.034   1.969
52414W        W20632  24.548  28.167   1.906
52415W        W20633  43.873  25.457  11.498
52416W        W20634  10.497  28.917   5.105
52417W        W20635  14.845  27.385  11.501
52418W        W20636  44.430  27.563   2.840
52419W        W20637  21.610   0.422   1.848
52420W        W20638  44.112  34.546   0.242
52421W        W20639  34.186  40.822   0.079
52422W        W20640  38.528  26.805  14.355
52423W        W20641  36.656   4.974   3.702
52424W        W20642  41.389   6.307   1.032
52425W        W20643  39.331  12.733  10.660
52426W        W20644  32.850  11.412  11.853
52427W        W20645  42.382  38.415  11.961
52428W        W20646  37.243  43.852   3.373
52429W        W20647  40.895  32.040   0.438
52430W        W20648  15.074  41.168  13.957
52431W        W20649  37.566  23.616   2.350
52432W        W20650  24.470  22.086   0.867
52433W        W20651   3.772  43.113  11.472
52434W        W20652  38.344  31.539  13.855
52435W        W20653  41.251   4.859  14.380
52436W        W20654   4.470   0.089  10.275
52437W        W20655  14.131  40.855   3.174
52438W        W20656   9.015   4.222   3.184
52439W        W20657  29.279  14.844   0.892
52440W        W20658  12.660   4.794  11.175
52441W        W20659   0.103  32.135  10.765
52442W        W20660  39.026  13.614   1.438
52443W        W20661   6.918  15.076   4.884
52444W        W20662   5.587  37.884   4.973
52445W        W20663  16.330  44.753   0.342
52446W        W20664   1.371  21.916  12.025
52447W        W20665  25.020  24.700  11.171
52448W        W20666  25.171  17.159  12.549
52449W        W20667   4.665   3.698   1.949
52450W        W20668  21.836  14.135  11.499
52451W        W20669  19.750  30.871   5.022
52452W        W20670  13.075   4.378  14.849
52453W        W20671  29.284  17.604   0.419
52454W        W20672  13.164  10.587   3.369
52455W        W20673   8.733  40.867  10.754
52456W        W20674   6.663  31.378  14.780
52457W        W20675   2.114  30.356  12.442
52458W        W20676  14.733  35.634  11.622
52459W        W20677  36.063  19.562  13.588
52460W        W20678  41.877  11.370  12.434
52461W        W20679   9.583   9.879   4.051
52462W        W20680  44.244  34.396  12.436
52463W        W20681   2.010   1.233  14.054
52464W        W20682  41.548   8.109   4.950
52465W        W20683  28.674  28.933  10.663
52466W        W20684  32.514   1.380   2.200
52467W        W20685  31.669  25.267  12.230
52468W        W20686  14.397   7.743  11.667
52469W        W20687  33.408   8.231  10.797
52470W        W20688  28.361  20.197  14.341
52471W        W20689   4.084  25.566  11.640
52472W        W20690  35.015  37.369  14.365
52473W        W20691   8.399   1.948  14.317
52474W        W20692  11.596  37.300  13.458
52475W        W20693   9.362  42.527   3.708
52476W        W20694  21.734  26.501  10.632
52477W        W20695  11.153  14.761   4.855
52478W        W20696  18.123  44.750   3.470
52479W        W20697  34.053  17.113  13.024
52480W        W20698  40.482  25.248  14.417
52481W        W20699   3.670   4.479  12.731
52482W        W20700   1.080  39.099   4.162
52483W        W20701   5.743  28.671  14.516
52484W        W20702  22.827  37.322  14.301
52485W        W20703  13.129   6.765  12.680
52486W        W20704   1.296  12.787  14.222
52487W        W20705  20.512  14.158  10.615
52488W        W20706   5.821   8.342   1.830
52489W        W20707  25.963  10.420   0.564
52490W        W20708  39.880  21.501   0.752
52491W        W20709  33.903  11.771  13.994
52492W        W20710   9.775   6.886   2.283
52493W        W20711  29.727  24.958   2.309
52494W        W20712  37.974   0.833   0.823
52495W        W20713  20.774  12.084  11.336
52496W        W20714  30.993  18.194  14.010
52497W        W20715   9.633  19.233  12.987
52498W        W20716   8.186  12.595  14.489
52499W        W20717  41.983  29.452   3.848
52500W        W20718   1.816  24.988   2.260
52501W        W20719  15.335  12.201  12.447
52502W        W20720  25.571  35.973   3.118
52503W        W20721  11.755  40.021  13.980
52504W        W20722  39.063   0.528   1.639
52505W        W20723  38.397   1.006  12.107
52506W        W20724   7.449  28.151  10.567
52507W        W20725  16.087  25.688   1.207
52508W        W20726  34.900  38.515  14.377
52509W        W20727  40.286  44.288   3.000
52510W        W20728   7.251  30.316   0.413
52511W        W20729  15.287  12.651  13.269
52512W        W20730  15.697   4.697   3.554
52513W        W20731  14.876  36.891  11.966
52514W        W20732  28.858  34.654   3.633
52515W        W20733  28.494  23.060  11.014
52516W        W20734   8.422  42.889   1.622
52517W        W20735   3.077  13.135  14.417
52518W        W20736  35.809  42.770  13.149
52519W        W20737  40.360  15.135  10.780
52520W        W20738  43.955  44.034   1.170
52521W        W20739   9.961  26.773   9.788
52522W        W20740  18.455   1.005  12.175
52523W        W20741   4.668   5.997   0.298
52524W        W20742  18.954  27.542   0.988
52525W        W20743  31.966  44.880  11.136
52526W        W20744  23.990   8.142   4.378
52527W        W20745   4.177   0.035  11.609
52528W        W20746  10.113  26.987  12.413
52529W        W20747  16.864  25.464  12.437
52530W        W20748  29.206   4.407  12.913
52531W        W20749   4.217  39.823   5.014
52532W        W20750  13.097  29.670  14.000
52533W        W20751  39.385  28.501  12.322
52534W        W20752  38.047  37.382   0.376
52535W        W20753  35.326  26.254   2.094
52536W        W20754  32.524  41.541  14.050
52537W        W20755  17.155  36.391  12.468
52538W        W20756   5.378   9.302   4.641
52539W        W20757  28.736   6.806   3.843
52540W        W20758   5.826  26.940  13.413
52541W        W20759  21.352  34.982  12.963
52542W        W20760  17.115  44.853   2.069
52543W        W20761  42.282  21.127   0.311
52544W        W20762  10.346  25.606  11.840
52545W        W20763   9.165  33.574  13.982
52546W        W20764   7.357  22.526   3.237
52547W        W20765   1.667  29.915   1.265
52548W        W20766  14.844  26.117   1.306
52549W        W20767  37.100   5.710   4.193
52550W        W20768  23.179   3.368   4.146
52551W        W20769  41.947   5.297   4.093
52552W        W20770  16.478   3.312  10.750
52553W        W20771  13.438   1.967   2.157
52554W        W20772   4.793   8.617  10.610
52555W        W20773  42.076  22.447   0.498
52556W        W20774  12.242  37.032  13.791
52557W        W20775  42.807   2.311  13.177
52558W        W20776  18.117  29.564  12.575
52559W        W20777   4.872   2.085   0.755
52560W        W20778  27.477  27.486  11.416
52561W        W20779  31.585  26.154  13.394
52562W        W20780  43.797  17.326  12.859
52563W        W20781  22.545  21.936   3.303
52564W        W20782  19.952  42.727  14.356
52565W        W20783  15.739   5.887  11.189
52566W        W20784  36.136   2.519   2.693
52567W        W20785  43.397  41.902  13.742
52568W        W20786  43.374  31.058   4.364
52569W        W20787  14.182   8.798  12.041
52570W        W20788  11.419  43.506  11.522
52571W        W20789  30.684  43.902  12.536
52572W        W20790  33.549  36.517   1.580
52573W        W20791  16.495  14.717   2.683
52574W        W20792   8.310  19.360   9.967
52575W        W20793  14.909  43.342  12.528
52576W        W20794  17.516  19.420   2.242
52577W        W20795   9.089   9.815   4.131
52578W        W20796  32.143  11.320   3.618
52579W        W20797   3.760  34.445  11.661
52580W        W20798  26.975  11.687  13.837
52581W        W20799  25.822  18.717   2.810
52582W        W20800   0.886  27.448   2.904
52583W        W20801  25.438  35.427   4.959
52584W        W20802  19.238  39.410   2.340
52585W        W20803   8.889   0.530   2.455
52586W        W20804   5.202  22.626   2.230
52587W        W20805  20.856  38.893   2.872
52588W        W20806  20.037  14.792  11.489
52589W        W20807  33.962  25.056   1.294
52590W        W20808  16.232  40.705   4.478
52591W        W20809  44.520  26.419   2.988
52592W        W20810  23.058   1.705  14.830
52593W        W20811  33.858  42.312  14.846
52594W        W20812  28.062  39.888  14.236
52595W        W20813   1.686   9.689  14.892
52596W        W20814  44.809   4.364   4.835
52597W        W20815   3.197   0.739   1.799
52598W        W20816  10.379  23.085   3.081
52599W        W20817  24.183  16.262  11.819
52600W        W20818  14.801  38.010  11.467
52601W        W20819  29.665  39.380   3.653
52602W        W20820   3.429  25.370  12.904
52603W        W20821  28.517  12.268   4.395
52604W        W20822  26.494  17.507   0.083
52605W        W20823   3.446   4.756  14.821
52606W        W20824  27.207  22.016   3.169
52607W        W20825  23.440  14.588   0.755
52608W        W20826   5.750  13.036  12.149
52609W        W20827  28.484  35.648   4.067
52610W        W20828  20.139  40.478   4.077
52611W        W20829  26.273  11.191  13.919
52612W        W20830   3.498  25.151   0.766
52613W        W20831  42.544   0.020  14.505
52614W        W20832  11.691  42.797  10.595
52615W        W20833  22.462  39.535  10.774
52616W        W20834  21.716  24.669   4.646
52617W        W20835   7.438  18.123   4.228
52618W        W20836   1.406   2.903   1.039
52619W        W20837  10.266  13.053   4.072
52620W        W20838   2.217  44.309  13.469
52621W        W20839   5.704  38.844  14.900
52622W        W20840   8.458  16.616   1.861
52623W        W20841  24.073  43.607   2.344
52624W        W20842   7.342   3.230   0.908
52625W        W20843  25.549  32.974   2.288
52626W        W20844  10.903  29.145   4.869
52627W        W20845  28.597  20.189   4.534
52628W        W20846   2.825  20.021   2.252
52629W        W20847  25.003  31.358   2.251
52630W        W20848   3.445  27.653   2.207
52631W        W20849   1.509  39.830  11.087
52632W        W20850  22.697  32.507   4.061
52633W        W20851  40.836  32.408   1.356
52634W        W20852   0.338  21.826   3.142
52635W        W20853   7.193  32.347   1.714
52636W        W20854   1.547  41.237   3.791
52637W        W20855  44.958  30.250   2.248
52638W        W20856  43.277  21.195   2.470
52639W        W20857  33.715  27.574   1.507
52640W        W20858  29.716   5.988   1.830
52641W        W20859  25.092   6.491  11.172
52642W        W20860  36.381  25.101  14.378
52643W        W20861  33.533  41.423   0.009
52644W        W20862  10.390   1.913   4.201
52645W        W20863  21.572  33.108   3.089
52646W        W20864  26.544   8.477  14.390
52647W        W20865  37.219  34.444  11.066
52648W        W20866   9.195   8.809   4.939
52649W        W20867  33.630  21.874  12.004
52650W        W20868  40.003  21.646  12.924
52651W        W20869  30.984  33.879   1.430
52652W        W20870   6.275   8.522   1.655
52653W        W20871  16.605   7.200  10.382
52654W        W20872  36.341  29.661  12.014
52655W        W20873   3.318  39.183   2.629
52656W        W20874  35.359  24.041   4.767
52657W        W20875   8.401  10.090   3.407
52658W        W20876  37.049  12.051   1.522
52659W        W20877   7.376   4.810  13.345
52660W        W20878   9.122  26.143  12.440
52661W        W20879   4.826  16.026  14.019
52662W        W20880  33.919   2.391  13.840
52663W        W20881  11.844  44.931  13.956
52664W        W20882  28.623  17.521   0.778
52665W        W20883   5.933  38.778   4.054
52666W        W20884  40.299   9.349  14.887
52667W        W20885  10.799   7.246  11.137
52668W        W20886  44.522   1.480  11.063
52669W        W20887   2.953   8.462   1.116
52670W        W20888  25.584  21.729  11.424
52671W        W20889   4.406  28.513  14.380
52672W        W20890  29.999   4.484   1.975
52673W        W20891  17.414   1.854  10.216
52674W        W20892  26.766  35.109   1.245
52675W        W20893  25.951  44.212  11.642
52676W        W20894  25.797   4.465  13.040
52677W        W20895   1.844   0.859  10.896
52678W        W20896  16.117  43.008  13.837
52679W        W20897  19.782  25.119   0.453
52680W        W20898  28.229   3.249  10.611
52681W        W20899  39.491  35.898  13.101
52682W        W20900  31.859   6.224   3.162
52683W        W20901   2.745  31.207  10.922
52684W        W20902   9.380  23.099  10.587
52685W        W20903  15.366   2.296  11.487
52686W        W20904  14.732  19.573   1.813
52687W        W20905  14.809  42.857   2.180
52688W        W20906  19.544  27.092  11.440
52689W        W20907   4.312  38.608  13.504
52690W        W20908  33.599  21.327  13.421
52691W        W20909  28.379  19.837  11.033
52692W        W20910  39.760   0.816   4.194
52693W        W20911  37.878  43.267  12.000
52694W        W20912  14.746  39.041  14.525
52695W        W20913  31.070  40.686   4.866
52696W        W20914  20.255  23.928   0.546
52697W        W20915  30.327   2.099   4.583
52698W        W20916  18.458  43.892  12.832
52699W        W20917  17.645  10.169  13.767
52700W        W20918  34.624  29.520   4.850
52701W        W20919  40.918  44.541   4.633
52702W        W20920  42.300  11.408  13.908
52703W        W20921   6.093   2.456  11.048
52704W        W20922  30.982  17.353   3.817
52705W        W20923  11.966   6.655   0.474
52706W        W20924  10.806  33.597  13.373
52707W        W20925   2.007  30.876  12.468
52708W        W20926  27.424  22.506  11.228
52709W        W20927  12.157  13.310  11.213
52710W        W20928   7.978  21.726  13.470
52711W        W20929  25.176  28.143  14.282
52712W        W20930  10.112  30.122  13.531
52713W        W20931  29.632   0.820   4.089
52714W        W20932  24.582  43.464   3.089
52715W        W20933   8.743   5.320   3.770
52716W        W20934  42.019   9.053   4.195
52717W        W20935  43.316  12.547  10.408
52718W        W20936   9.582   0.717  11.601
52719W        W20937  32.422   0.058   1.369
52720W        W20938  40.798  17.967  12.979
52721W        W20939  22.687  12.751  13.758
52722W        W20940  40.843  25.202   0.757
52723W        W20941   4.299   6.194   3.226
52724W        W20942  37.176   2.353   3.605
52725W        W20943   2.381  24.521   3.772
52726W        W20944  39.999  21.991  11.401
52727W        W20945  12.836  27.003  12.317
52728W        W20946  11.066  12.579   1.989
52729W        W20947  15.094  38.502  13.852
52730W        W20948  44.390  36.742  10.571
52731W        W20949  16.862  37.310  11.260
52732W        W20950  34.894  21.349  10.380
52733W        W20951  11.398  41.212   0.494
52734W        W20952  23.015  41.115   2.997
52735W        W20953  40.004  20.475   0.830
52736W        W20954  27.996  14.120  14.529
52737W        W20955  12.839  35.939   2.308
52738W        W20956  30.957  43.755  11.133
52739W        W20957  15.908  40.409  12.007
52740W        W20958  25.426  18.775   4.994
52741W        W20959  30.382  43.053   0.281
52742W        W20960  18.586  25.215  11.438
52743W        W20961  35.556   5.407  11.279
52744W        W20962  36.953  23.420  11.652
52745W        W20963   4.766  16.498   3.746
52746W        W20964  14.286   3.120   2.726
52747W        W20965  39.312   0.714   4.527
52748W        W20966  40.370  10.148  13.368
52749W        W20967   6.157   8.131  11.166
52750W        W20968   7.899   1.236  11.390
52751W        W20969  10.851  22.974  12.376
52752W        W20970  22.569   5.970   0.053
52753W        W20971  12.389  31.886   0.355
52754W        W20972  22.080  30.626  14.033
52755W        W20973  15.611  42.874   2.903
52756W        W20974  18.305  30.402  10.997
52757W        W20975  29.872  44.387   2.163
52758W        W20976  35.945  21.464  13.576
52759W        W20977   8.682  40.536  13.484
52760W        W20978  18.662  28.698   1.375
52761W        W20979  21.719   6.426   0.257
52762W        W20980   5.351  38.441  10.729
52763W        W20981   3.330  21.867  10.777
52764W        W20982  38.623  18.555  14.430
52765W        W20983  21.014  21.108  13.398
52766W        W20984  22.517   0.422   1.502
52767W        W20985  43.353   4.276   3.647
52768W        W20986  34.647  19.178   1.320
52769W        W20987  43.215  38.131   1.729
52770W        W20988  31.461   0.196  13.438
52771W        W20989  44.430   2.300   3.636
52772W        W20990  37.398   1.727  13.997
52773W        W20991   6.908  33.138   3.285
52774W        W20992  31.575  37.783  14.473
52775W        W20993  18.687  10.880  12.034
52776W        W20994  34.222  27.099   4.084
52777W        W20995  40.994  16.214  14.643
52778W        W20996   5.170   2.749   4.175
52779W        W20997  15.202  24.125  12.482
52780W        W20998  14.928  20.782  11.057
52781W        W20999  33.547   2.874  13.719
52782W        W21000  17.182  20.761   2.295
52783W        W21001  12.412   9.777   3.821
52784W        W21002  26.110   1.335  13.761
52785W        W21003  20.090  30.011   2.117
52786W        W21004   6.694   2.466  11.533
52787W        W21005  38.948  21.723  14.070
52788W        W21006  11.060   3.947  10.532
52789W        W21007  24.585  34.305  13.184
52790W        W21008  11.483  36.005  10.692
52791W        W21009  43.721  33.427  14.601
52792W        W21010   7.322  43.958  10.667
52793W        W21011  26.317  40.735   1.188
52794W        W21012  37.478  21.987   0.729
52795W        W21013  24.090  44.410   0.283
52796W        W21014  33.565  16.751   3.741
52797W        W21015  10.806  30.099   2.799
52798W        W21016  19.580  38.244   4.290
52799W        W21017  32.998  44.334  11.509
52800W        W21018  30.594   2.874  10.584
52801W        W21019  11.109   3.808   3.113
52802W        W21020  38.980  32.937  12.782
52803W        W21021   1.589  27.489  12.435
52804W        W21022  36.332  12.417   1.878
52805W        W21023  39.140  41.078  13.041
52806W        W21024  32.987  20.011  11.766
52807W        W21025  19.202   2.699  13.414
52808W        W21026  26.060  42.358  11.716
52809W        W21027   3.918   6.750   4.246
52810W        W21028  32.412  33.866   3.771
52811W        W21029  28.629  19.743  14.418
52812W        W21030  21.749  23.074   0.746
52813W        W21031   6.431   0.249   0.957
52814W        W21032  10.211  18.376  11.183
52815W        W21033  19.826  33.214   2.004
52816W        W21034   3.684   1.629   1.010
52817W        W21035  19.531  20.341  10.788
52818W        W21036   8.255   1.857   2.020
52819W        W21037  25.633  17.742   1.037
52820W        W21038  35.689   3.331   3.344
52821W        W21039  44.715  39.863   0.379
52822W        W21040  39.947   4.556  12.856
52823W        W21041  20.697  31.008   3.518
52824W        W21042  31.971  18.709   2.748
52825W        W21043  42.456  33.259   3.255
52826W        W21044  34.999  44.043   0.242
52827W        W21045  29.550  19.243  11.056
52828W        W21046  27.550  20.503   1.967
52829W        W21047   6.619  15.442  13.095
52830W        W21048  10.547  36.060   0.990
52831W        W21049   8.395   0.693   4.579
52832W        W21050  30.621  30.185   3.667
52833W        W21051  28.069  42.928  12.426
52834W        W21052  35.710  43.444  14.549
52835W        W21053  13.085  31.014   4.054
52836W        W21054  23.852  34.946   2.777
52837W        W21055  33.122   6.189  12.649
52838W        W21056   4.342  43.323  12.624
52839W        W21057  22.567   0.590   2.029
52840W        W21058  44.928   1.388   3.807
52841W        W21059  26.763  30.468   0.937
52842W        W21060  19.048  28.621  12.528
52843W        W21061  42.397  10.366   0.031
52844W        W21062   7.765  31.697  14.371
52845W        W21063  10.788  23.150   0.757
52846W        W21064  28.025  41.373  13.837
52847W        W21065  29.665  29.743  11.535
52848W        W21066  34.086   6.362  13.066
52849W        W21067  41.080  20.201   4.527
52850W        W21068  31.474   8.781  13.757
52851W        W21069  42.373  38.800  12.353
52852W        W21070  20.050  19.563  11.514
52853W        W21071  19.109  16.845   0.460
52854W        W21072  41.485   8.639  12.913
52855W        W21073  10.575  25.230  12.113
52856W        W21074  16.050  44.578   3.406
52857W        W21075  35.886  27.133  10.582
52858W        W21076  15.444  25.487  13.483
52859W        W21077  17.226  17.951   1.893
52860W        W21078  13.091  20.065  11.597
52861W        W21079   5.918  39.570   4.568
52862W        W21080  17.599  14.417  14.399
52863W        W21081  10.421  37.603   2.842
52864W        W21082  19.112  23.223  10.659
52865W        W21083  37.303   5.814  13.428
52866W        W21084  18.663  32.223   4.542
52867W        W21085   6.911  28.146  11.413
52868W        W21086   8.736  14.234  12.861
52869W        W21087  37.125  14.587   3.162
52870W        W21088  19.999  28.932  13.403
52871W        W21089   3.322  42.799  14.754
52872W        W21090  24.430  37.155  14.584
52873W        W21091  43.975   8.347   0.923
52874W        W21092  10.893   5.406   2.183
52875W        W21093   7.225  29.071   2.813
52876W        W21094   9.417  27.270   0.151
52877W        W21095  14.326  43.052   2.224
52878W        W21096  41.887  35.651  10.227
52879W        W21097   9.984   8.827   0.485
52880W        W21098  38.874   5.697  12.441
52881W        W21099  16.749  37.327  12.113
52882W        W21100  16.954   4.966  13.436
52883W        W21101   5.661  38.245   4.590
52884W        W21102  12.465  18.378  12.078
52885W        W21103  21.798  17.039   2.086
52886W        W21104   6.407  41.017  14.299
52887W        W21105  24.586  12.160   3.042
52888W        W21106   4.398   8.339   4.645
52889W        W21107   1.697   1.360   1.178
52890W        W21108  23.612  13.610  13.986
52891W        W21109  31.176  22.197   4.663
52892W        W21110  11.086  12.716   0.271
52893W        W21111  11.126  39.291  14.422
52894W        W21112  25.542  11.869  11.249
52895W        W21113  10.406  34.702   2.844
52896W        W21114  14.150  16.007  14.359
52897W        W21115  43.419  31.841   2.874
52898W        W21116  16.720  36.636  13.415
52899W        W21117  41.860  26.033  13.554
52900W        W21118  44.005   3.815  13.478
52901W        W21119  10.825  12.583  10.598
52902W        W21120  29.141  20.079   3.781
52903W        W21121  43.858  13.101  14.727
52904W        W21122  15.769  44.381   2.766
52905W        W21123  41.666   3.680   0.889
52906W        W21124  24.052   6.602  14.341
52907W        W21125  36.879   2.791   1.512
52908W        W21126  32.425  43.595  11.975
52909W        W21127  40.286  20.711  13.528
52910W        W21128   0.954  30.822  11.312
52911W        W21129  22.027  28.949   1.253
52912W        W21130   1.807   8.313  13.162
52913W        W21131   8.697  10.894  14.589
52914W        W21132  35.110  21.531   1.722
52915W        W21133  34.425  39.269  13.274
52916W        W21134  14.161  23.233   0.697
52917W        W21135   5.899  43.981   3.104
52918W        W21136  22.009  20.972  11.064
52919W        W21137  30.489  23.108  11.702
52920W        W21138  25.861  25.733  14.334
52921W        W21139  17.872  23.729   1.979
52922W        W21140  25.086  14.748  13.021
52923W        W21141   7.595  39.521   2.144
52924W        W21142  19.856  29.318  14.944
52925W        W21143   4.246  28.192  12.033
52926W        W21144  42.652  26.439  13.362
52927W        W21145  17.585  22.259  13.965
52928W        W21146  28.415   6.516  14.979
52929W        W21147  43.500  21.638   2.253
52930W        W21148  25.172   2.927   0.888
52931W        W21149  32.512  43.461  13.867
52932W        W21150  44.304   5.989   5.003
52933W        W21151  34.800   9.235  14.891
52934W        W21152  41.995   2.244  12.595
52935W        W21153  38.899  27.507   3.260
52936W        W21154   9.233  37.856   4.675
52937W        W21155  18.603  30.938   2.680
52938W        W21156  20.890   4.957   3.408
52939W        W21157  34.086  31.379   2.610
52940W        W21158   4.843  15.558  12.684
52941W        W21159  21.101  15.900  10.227
52942W        W21160  34.923  39.715   2.737
52943W        W21161   9.945   8.905   1.381
52944W        W21162  30.219  14.376   4.267
52945W        W21163  25.139  35.331   3.232
52946W        W21164  43.390  25.058  12.323
52947W        W21165  15.326  29.079   3.580
52948W        W21166  14.698  29.908   2.342
52949W        W21167  11.263  10.665  12.107
52950W        W21168  43.644  14.159  11.986
52951W        W21169  24.068  21.280   1.889
52952W        W21170   1.406  42.795   1.406
52953W        W21171  43.558  41.035   0.463
52954W        W21172   9.105  39.902  14.828
52955W        W21173  26.042  31.529  14.776
52956W        W21174  41.301   2.271   1.220
52957W        W21175  39.960  20.915   3.166
52958W        W21176  16.426  37.143   1.315
52959W        W21177   1.436  38.324  12.889
52960W        W21178  21.112  44.418   3.769
52961W        W21179   0.547   7.182   1.654
52962W        W21180  12.726   1.515  12.428
52963W        W21181  15.240  22.664   0.222
52964W        W21182  33.370  43.300   1.971
52965W        W21183  42.940  40.900  11.757
52966W        W21184  14.467  12.536   1.921
52967W        W21185  30.682  38.905   2.464
52968W        W21186   9.593  44.256   4.317
52969W        W21187   2.055   3.221  11.903
52970W        W21188  31.381  39.512   1.381
52971W        W21189  18.483  26.664  13.520
52972W        W21190  42.338  22.078  14.374
52973W        W21191   9.835  21.260  12.021
52974W        W21192  14.644  12.776   4.581
52975W        W21193  35.619   7.240  14.837
52976W        W21194  19.551  33.080  12.479
52977W        W21195  37.325   0.261   3.197
52978W        W21196  17.548  11.854   1.416
52979W        W21197  41.592  24.103   2.373
52980W        W21198  13.380   5.026  14.148
52981W        W21199  11.275   7.819   1.800
52982W        W21200  40.744  34.850   1.027
52983W        W21201   7.267   0.546   4.436
52984W        W21202   1.382   0.851   1.756
52985W        W21203   6.838   1.815  14.247
52986W        W21204  36.382  34.608   3.625
52987W        W21205  31.714   0.839  13.088
52988W        W21206  28.528  11.712  12.543
52989W        W21207  11.825   5.556   1.287
52990W        W21208  15.286  44.134  12.312
52991W        W21209   3.669  11.316  11.442
52992W        W21210  29.405  28.936   0.476
52993W        W21211  16.498  21.147  14.401
52994W        W21212   5.142   3.821   2.210
52995W        W21213  42.050  10.456  14.246
52996W        W21214  21.229  26.859   4.984
52997W        W21215  33.049  21.995   2.217
52998W        W21216  44.667  10.867  14.853
52999W        W21217   6.404  37.445  11.881
53000W        W21218  27.372   4.284  14.087
53001W        W21219  26.171  27.125   0.804
53002W        W21220  30.731  14.408   1.162
53003W        W21221  34.923  20.350   0.968
53004W        W21222  23.941  17.148  10.778
53005W        W21223  24.260  32.248   0.725
53006W        W21224  31.911  35.924  12.430
53007W        W21225  42.776  11.373  13.446
53008W        W21226   8.970  27.399   0.470
53009W        W21227  44.774   0.927   0.046
53010W        W21228  21.191  38.109  10.062
53011W        W21229  25.184   5.891   4.106
53012W        W21230  34.202  42.997   0.957
53013W        W21231  15.800  17.400   1.046
53014W        W21232  16.773   5.666   0.273
53015W        W21233   5.752   3.693   3.667
53016W        W21234   2.447  43.953  14.422
53017W        W21235  41.337   6.802  12.888
53018W        W21236  15.992   4.210   3.153
53019W        W21237  10.753  28.972  13.906
53020W        W21238   1.827   4.733  14.021
53021W        W21239   4.205  37.894   0.541
53022W        W21240  42.025   6.768  13.325
53023W        W21241  20.453  28.027   1.205
53024W        W21242  34.459  18.246   0.365
53025W        W21243  35.553  25.050   4.683
53026W        W21244  29.615  19.194  14.424
53027W        W21245  37.432  30.638  12.107
53028W        W21246  29.958  25.197  12.571
53029W        W21247   9.287   8.741  11.736
53030W        W21248   6.647  43.206  10.634
53031W        W21249  22.700  11.618  13.728
53032W        W21250  14.788   2.066   4.653
53033W        W21251   5.323   0.381  11.942
53034W        W21252  17.177   5.411   2.772
53035W        W21253  41.399  34.629  11.712
53036W        W21254  43.074   3.873   4.077
53037W        W21255   1.790   1.967  13.429
53038W        W21256  21.845  12.763  12.780
53039W        W21257  20.023  44.568   1.856
53040W        W21258  11.287   4.892  10.970
53041W        W21259  38.793  26.450   0.270
53042W        W21260  20.389  44.442   0.851
53043W        W21261   4.265  42.895  11.489
53044W        W21262  22.733  21.489   0.240
53045W        W21263  22.519   5.836  13.528
53046W        W21264   1.429   0.359   1.479
53047W        W21265  35.621  10.368  10.746
53048W        W21266  41.805  27.694   1.820
53049W        W21267   4.282  11.860  12.099
53050W        W21268  38.697  36.787   1.384
53051W        W21269   8.371  10.262   3.896
53052W        W21270  36.341  32.303   0.409
53053W        W21271   8.783  43.081  13.576
53054W        W21272  34.365  29.608   0.044
53055W        W21273  33.920  10.841   1.311
53056W        W21274  29.404  18.131   2.349
53057W        W21275   3.457  20.231   4.084
53058W        W21276  34.791   8.781   3.660
53059W        W21277  43.898  37.579   1.701
53060W        W21278   6.461  25.994  11.713
53061W        W21279  33.117  39.517  12.181
53062W        W21280  19.624  12.655  13.343
53063W        W21281  33.349  23.577   2.578
53064W        W21282  37.273  31.703   2.929
53065W        W21283  16.588  34.817  10.918
53066W        W21284  41.542  40.749   1.260
53067W        W21285  44.441  31.536  14.857
53068W        W21286  28.660  22.210  11.385
53069W        W21287   4.321  10.778  13.652
53070W        W21288  32.622   7.843  13.031
53071W        W21289  42.348   7.811   1.442
53072W        W21290   2.468  37.555   0.461
53073W        W21291   3.665  25.252  14.394
53074W        W21292  16.351  29.157   4.283
53075W        W21293  31.845  34.183   4.535
53076W        W21294   1.803  28.474  12.067
53077W        W21295  29.152   6.257   3.288
53078W        W21296  14.744  21.112  12.455
53079W        W21297   5.631  19.135   1.914
53080W        W21298   6.726  13.414  12.865
53081W        W21299  43.771  40.893  10.675
53082W        W21300  44.174  15.499   2.913
53083W        W21301  41.327   7.449   3.238
53084W        W21302  13.700  21.156  10.670
53085W        W21303  17.305  18.732  12.952
53086W        W21304   9.652   2.056  11.591
53087W        W21305   5.903  10.070  14.948
53088W        W21306   8.123  31.417   0.318
53089W        W21307  16.834  38.749  14.524
53090W        W21308  15.476  18.297   2.298
53091W        W21309  13.786   0.449   2.070
53092W        W21310  40.499  41.766   4.546
53093W        W21311  40.610  39.035   3.529
53094W        W21312  33.981  44.190  13.387
53095W        W21313  36.692  25.635  14.992
53096W        W21314  44.896  41.950  14.019
53097W        W21315  19.086  28.062  14.763
53098W        W21316  28.032  37.097  12.496
53099W        W21317  43.847  24.978   4.187
53100W        W21318   0.473  21.549   0.885
53101W        W21319   5.761   0.412   4.829
53102W        W21320  14.866   2.431  10.667
53103W        W21321   5.743  27.067  12.383
53104W        W21322  17.496  16.835   2.600
53105W        W21323  11.371  35.953   2.399
53106W        W21324  17.313   7.932  12.135
53107W        W21325  36.079  39.849   1.862
53108W        W21326   8.291   4.822  11.521
53109W        W21327  29.572  36.636  14.559
53110W        W21328  36.959  43.217  14.546
53111W        W21329   6.275  43.821  13.612
53112W        W21330   3.921  11.619   4.558
53113W        W21331  36.270  28.107   3.321
53114W        W21332  32.536   9.377  12.983
53115W        W21333  38.833  39.010   1.635
53116W        W21334   3.874   6.888  11.586
53117W        W21335  29.357  24.613   4.643
53118W        W21336  23.772  26.605   0.868
53119W        W21337   5.326  17.037  12.135
53120W        W21338  15.165   8.063  14.976
53121W        W21339  17.505  25.701  11.170
53122W        W21340   4.334   1.206  12.886
53123W        W21341  36.587  26.672  13.113
53124W        W21342  25.643  10.890  13.960
53125W        W21343  23.801  40.772  11.091
53126W        W21344   2.839  30.154   4.459
53127W        W21345  16.776   7.270  13.809
53128W        W21346  18.683  23.360   4.074
53129W        W21347  33.166  43.686   0.879
53130W        W21348  34.189  19.479   3.125
53131W        W21349  42.910  20.836  12.939
53132W        W21350  27.166  32.429   4.474
53133W        W21351   2.746   4.497  12.802
53134W        W21352  40.478  11.787   3.432
53135W        W21353   5.376  12.992  11.589
53136W        W21354  30.609  21.070  13.596
53137W        W21355   2.711  14.350   3.258
53138W        W21356   2.486   7.444  14.121
53139W        W21357  17.109   2.706   2.344
53140W        W21358   6.394  20.165  11.547
53141W        W21359  34.961  26.002   4.577
53142W        W21360  15.219  13.409   2.251
53143W        W21361  31.243  41.948   4.553
53144W        W21362   2.319  15.630  13.879
53145W        W21363  25.860  13.665   4.192
53146W        W21364  36.171   5.756   3.307
53147W        W21365   5.639  23.173   3.776
53148W        W21366   2.915  18.616  12.426
53149W        W21367  19.020   6.100  12.423
53150W        W21368  23.454  22.269  11.047
53151W        W21369  11.246  30.104  11.972
53152W        W21370  42.816   4.299   1.001
53153W        W21371   4.325  28.544   4.600
53154W        W21372  33.485  15.810   3.733
53155W        W21373  24.639   6.359  12.539
53156W        W21374   8.685  29.276  13.997
53157W        W21375  43.790  44.328   3.039
53158W        W21376   9.313   2.713   0.658
53159W        W21377   1.003  30.591   1.295
53160W        W21378  20.170  32.614  12.391
53161W        W21379  30.638  37.381   1.374
53162W        W21380  13.726  34.104  13.495
53163W        W21381  34.583  14.378   4.600
53164W        W21382   2.973  34.643   2.931
53165W        W21383  43.500   8.834   0.945
53166W        W21384   0.358  32.609  10.702
53167W        W21385  21.898  16.690   4.557
53168W        W21386  21.089   6.737   4.344
53169W        W21387  20.029  27.398  13.463
53170W        W21388  31.342  13.510  12.500
53171W        W21389  16.980   3.758   4.646
53172W        W21390   5.507   8.932  11.605
53173W        W21391   8.513   5.194  13.442
53174W        W21392   7.072  27.341  10.804
53175W        W21393  16.198  25.536   3.689
53176W        W21394  23.545  18.840   1.330
53177W        W21395  10.733  37.884   0.704
53178W        W21396  30.996  30.037   9.948
53179W        W21397  13.907  35.884   0.381
53180W        W21398  32.099  11.633  13.836
53181W        W21399  43.414  43.458  12.052
53182W        W21400  34.520   6.339   3.770
53183W        W21401  36.397  24.946   2.796
53184W        W21402  13.839   5.204   1.253
53185W        W21403  35.643  24.976  12.090
53186W        W21404  19.199   8.328  11.149
53187W        W21405   6.710  10.308   4.774
53188W        W21406  19.093  43.163   0.784
53189W        W21407  14.229  21.607  12.985
53190W        W21408   4.847   8.173  12.701
53191W        W21409  42.776  20.762  11.943
53192W        W21410   7.882  34.587  11.720
53193W        W21411  10.442   4.776   2.626
53194W        W21412  11.498  39.069  10.721
53195W        W21413  20.151   3.724  11.982
53196W        W21414  43.479  40.740  13.115
53197W        W21415  20.597  13.035   3.711
53198W        W21416  35.509   9.634   0.780
53199W        W21417  16.069  22.617   1.791
53200W        W21418   8.209  15.411   3.243
53201W        W21419  27.628   4.733  10.560
53202W        W21420   0.758  26.111  13.942
53203W        W21421  12.256  19.505   4.699
53204W        W21422  27.459  28.148  11.085
53205W        W21423  29.719  22.215   0.825
53206W        W21424   5.439  38.659   1.793
53207W        W21425   4.465  16.090   0.873
53208W        W21426  13.233  17.954   2.816
53209W        W21427  40.657  26.848   4.103
53210W        W21428  16.612   0.835   0.763
53211W        W21429  36.487  38.048   2.896
53212W        W21430  39.344  16.517  11.408
53213W        W21431  38.545  22.021  14.095
53214W        W21432  14.752  29.467   4.638
53215W        W21433  30.919  25.606   3.332
53216W        W21434  32.752   0.314   1.685
53217W        W21435  10.595  13.969   1.955
53218W        W21436  17.118  23.210   1.458
53219W        W21437   8.366   0.709   1.560
53220W        W21438  43.148  27.418   3.268
53221W        W21439  40.362  28.111  11.332
53222W        W21440  25.992  33.161  14.317
53223W        W21441  10.699  37.364   0.540
53224W        W21442   0.428   9.563   3.179
53225W        W21443  20.997  40.408   3.589
53226W        W21444  11.046  12.450  13.047
53227W        W21445  32.966   3.955   1.075
53228W        W21446  17.886  40.779  10.466
53229W        W21447  13.388  19.608   3.217
53230W        W21448  32.350  23.442   2.809
53231W        W21449  22.304  27.047  13.903
53232W        W21450  28.893  24.468   0.769
53233W        W21451  19.477  44.882  12.864
53234W        W21452  30.853  37.581   3.298
53235W        W21453  29.133  12.370   3.669
53236W        W21454   8.615  43.962  13.508
53237W        W21455  24.639  31.305  11.833
53238W        W21456  42.529  27.177  10.444
53239W        W21457   3.757  39.625   0.466
53240W        W21458  37.632   3.233  14.748
53241W        W21459  21.156  38.584   2.596
53242W        W21460  37.634  11.294  12.071
53243W        W21461   2.475  11.292   4.903
53244W        W21462  13.467  36.245   0.883
53245W        W21463  23.336  25.464   2.226
53246W        W21464  41.055  28.003  14.913
53247W        W21465   0.351  37.368   2.895
53248W        W21466  37.070  16.026  12.905
53249W        W21467  28.373   7.797   1.885
53250W        W21468  21.951  14.943   1.966
53251W        W21469   5.921  22.416  13.575
53252W        W21470  28.548  23.585  14.614
53253W        W21471   9.168  18.836   2.423
53254W        W21472  17.150  24.989  11.618
53255W        W21473  17.312  12.203   5.365
53256W        W21474  26.186  29.025   2.333
53257W        W21475  43.354   0.001   3.010
53258W        W21476  17.500  15.566  12.913
53259W        W21477  15.362  25.813   2.841
53260W        W21478  32.339  35.378  13.870
53261W        W21479   9.541  13.772   0.771
53262W        W21480   6.236  37.379   2.762
53263W        W21481  16.687  11.856  14.368
53264W        W21482   3.281  25.157  11.600
53265W        W21483   6.622  43.481   9.765
53266W        W21484  21.591   8.608   3.129
53267W        W21485  20.273   1.334   1.372
53268W        W21486   9.686  10.035  10.969
53269W        W21487  41.793   6.269   0.013
53270W        W21488   5.227  33.942   2.522
53271W        W21489  28.504  14.643  12.401
53272W        W21490   8.417  23.733   3.717
53273W        W21491  25.388  19.263  11.521
53274W        W21492  36.039  27.680  11.417
53275W        W21493  10.791  25.811  10.713
53276W        W21494  24.139   1.144  14.845
53277W        W21495  15.825  14.392  14.358
53278W        W21496  25.673  41.012   1.833
53279W        W21497   9.345   3.815   0.736
53280W        W21498  19.293  31.217   1.960
53281W        W21499  40.995  23.493   0.161
53282W        W21500   4.133   6.265   0.263
53283W        W21501  13.327   5.696  14.761
53284W        W21502  22.715  19.494   2.747
53285W        W21503  21.992  44.360   2.763
53286W        W21504   4.785  29.602   1.198
53287W        W21505  21.557   3.002  14.483
53288W        W21506  33.329  10.307  14.506
53289W        W21507  36.643   6.158   3.348
53290W        W21508  30.516   4.375  13.178
53291W        W21509  42.789  30.118   2.504
53292W        W21510  27.251  30.013  14.393
53293W        W21511   4.957  19.669   0.438
53294W        W21512   2.767   8.434   0.061
53295W        W21513   8.299  35.447   3.126
53296W        W21514  18.651   9.368  11.473
53297W        W21515  23.716  11.733   0.815
53298W        W21516   1.770  25.986  13.244
53299W        W21517   9.449  20.212   2.400
53300W        W21518   6.298  14.852   0.408
53301W        W21519  15.879  15.104   0.896
53302W        W21520   0.731  11.793   1.403
53303W        W21521  22.223  42.539  12.524
53304W        W21522  22.150  12.344   2.731
53305W        W21523   1.289  18.636   2.680
53306W        W21524  24.991   2.352  11.608
53307W        W21525  28.979  32.402   4.079
53308W        W21526  12.193  41.329  11.681
53309W        W21527  44.036  25.257   2.868
53310W        W21528  24.986   1.082   0.241
53311W        W21529  17.639  40.349   4.969
53312W        W21530  35.888   8.276   4.502
53313W        W21531  40.165  20.508  14.860
53314W        W21532  39.252  30.424  14.904
53315W        W21533  37.903   3.068  12.523
53316W        W21534  11.887   9.955   3.244
53317W        W21535  31.627   0.928  12.067
53318W        W21536  37.301  13.901   2.868
53319W        W21537  14.900   4.539  12.561
53320W        W21538  40.812  26.274   0.080
53321W        W21539  27.850  28.914  10.008
53322W        W21540   4.988  40.724   1.381
53323W        W21541   9.527  11.586   2.832
53324W        W21542  24.894  21.360  13.903
53325W        W21543  29.118   5.332  13.039
53326W        W21544  25.985  18.751  13.554
53327W        W21545  34.015   9.916   4.123
53328W        W21546  36.260   7.150  12.541
53329W        W21547   8.274  15.581   3.711
53330W        W21548  36.577  44.719   3.183
53331W        W21549  23.712  33.941  11.519
53332W        W21550  32.027  20.752  11.685
53333W        W21551  25.510   4.223   1.825
53334W        W21552  11.333  29.304  11.503
53335W        W21553  11.205  15.333   4.863
53336W        W21554  26.258   3.287   3.308
53337W        W21555  40.351   4.371   2.112
53338W        W21556  34.490   4.214  13.017
53339W        W21557  18.501   0.710   1.486
53340W        W21558  25.743  19.015   3.433
53341W        W21559  24.163  22.729   3.253
53342W        W21560  10.678  10.731   2.204
53343W        W21561  25.974  16.580  11.095
53344W        W21562  10.175  12.609  11.473
53345W        W21563   8.872  13.255  14.031
53346W        W21564  12.525  10.653   3.669
53347W        W21565  42.203   0.974   0.817
53348W        W21566  33.004  36.648   1.364
53349W        W21567  38.121  29.895   3.936
53350W        W21568  21.679  11.396  11.628
53351W        W21569  32.003   5.564  10.884
53352W        W21570  44.469  32.951   2.719
53353W        W21571   2.191  42.307  14.581
53354W        W21572   7.467  31.595  13.940
53355W        W21573  32.505  37.399   1.106
53356W        W21574  22.979   9.176   2.782
53357W        W21575  37.029  23.028   4.754
53358W        W21576   0.729  15.180   0.211
53359W        W21577  36.817  12.609   0.339
53360W        W21578  44.768  24.997   4.581
53361W        W21579   9.172  18.550  11.558
53362W        W21580  29.626  27.697   3.230
53363W        W21581  44.941  21.168  12.589
53364W        W21582  18.991  35.416   1.722
53365W        W21583  36.197  34.133   1.583
53366W        W21584  43.527  28.861   0.544
53367W        W21585  10.211   1.040  11.151
53368W        W21586  33.050  40.459   4.823
53369W        W21587   6.861  23.265   1.808
53370W        W21588  34.261  43.004   1.537
53371W        W21589  29.711  16.109   0.683
53372W        W21590  12.664  13.525   4.565
53373W        W21591  44.807  15.286   1.757
53374W        W21592  39.804  41.483   1.424
53375W        W21593   2.544   0.857   1.601
53376W        W21594  18.153  29.564   0.095
53377W        W21595  10.184  17.117  12.891
53378W        W21596  16.795   0.300   3.246
53379W        W21597  16.181  11.646   1.300
53380W        W21598  35.609  15.094   2.840
53381W        W21599  21.231  37.078  12.162
53382W        W21600  22.005  25.819   2.395
53383W        W21601   6.028  17.530   2.085
53384W        W21602  36.380  38.781   4.849
53385W        W21603  37.939  19.193   0.889
53386W        W21604  38.534  39.808  10.818
53387W        W21605  16.155  11.088   3.862
53388W        W21606   7.941  31.042  14.732
53389W        W21607  34.139  13.153  13.929
53390W        W21608  44.200  15.271   0.403
53391W        W21609   0.405   9.281   1.414
53392W        W21610  10.751  43.394   0.355
53393W        W21611  31.397  42.569  11.604
53394W        W21612  41.322  14.628   0.453
53395W        W21613   5.142   3.450   2.660
53396W        W21614  20.072  20.396   4.920
53397W        W21615   3.295  25.682   0.329
53398W        W21616  28.983  25.966   3.259
53399W        W21617  19.340   1.061  11.503
53400W        W21618  28.003  13.304  13.156
53401W        W21619  12.769  11.389  11.960
53402W        W21620  21.114  24.564  14.993
53403W        W21621  24.023   9.357  12.024
53404W        W21622   0.322  37.816   2.627
53405W        W21623  16.146   0.419   1.316
53406W        W21624  30.374  27.456   5.075
53407W        W21625  20.257   9.169  14.876
53408W        W21626  24.618  33.506  13.719
53409W        W21627  17.606  15.219  11.692
53410W        W21628  27.053  31.986   0.760
53411W        W21629  19.179  43.245   2.629
53412W        W21630   1.199  12.812   4.450
53413W        W21631  13.296  38.840  13.799
53414W        W21632  42.905  24.718  13.243
53415W        W21633   8.041  34.161  12.062
53416W        W21634  33.213   7.986  11.223
53417W        W21635  30.427  22.990  13.644
53418W        W21636  10.793  13.437   3.107
53419W        W21637  44.023  24.041   3.247
53420W        W21638  11.990   0.328   2.277
53421W        W21639  17.973  42.356   4.212
53422W        W21640   4.425   9.350   4.636
53423W        W21641  38.800  15.593  10.520
53424W        W21642  30.162  32.874   3.232
53425W        W21643  26.584  18.825   0.488
53426W        W21644  12.191  12.424   3.828
53427W        W21645  13.637   7.273  14.359
53428W        W21646  26.975  37.319   3.318
53429W        W21647  16.974  18.754   3.089
53430W        W21648  30.896  31.075   1.300
53431W        W21649  34.832  33.503  10.977
53432W        W21650  36.636  34.913   1.725
53433W        W21651  32.414  41.134  14.349
53434W        W21652   6.490  27.761  13.253
53435W        W21653  36.292  12.085   2.760
53436W        W21654  25.600  28.594   1.012
53437W        W21655  23.265  30.872  14.577
53438W        W21656  39.863  28.518  10.635
53439W        W21657  13.594  35.819   3.640
53440W        W21658  12.139  18.702  12.319
53441W        W21659  28.457  35.546  13.749
53442W        W21660  24.713  40.263  11.175
53443W        W21661   9.385  23.274   2.790
53444W        W21662   2.582  11.318  13.085
53445W        W21663  33.818   6.927  11.629
53446W        W21664   5.162  43.197  12.500
53447W        W21665  18.200   6.669   3.569
53448W        W21666  21.391  16.096   0.115
53449W        W21667  40.998   6.684  14.248
53450W        W21668  36.878  21.032   4.512
53451W        W21669  25.238   4.874  14.385
53452W        W21670   0.065  39.873   2.803
53453W        W21671  21.985   2.282   2.283
53454W        W21672  21.731   1.403   4.411
53455W        W21673  36.162   6.841  12.134
53456W        W21674  12.481  10.955   4.101
53457W        W21675  22.297  11.104  13.824
53458W        W21676  22.906  20.060  11.179
53459W        W21677  40.943  29.527  13.372
53460W        W21678  12.623   1.264   1.399
53461W        W21679   9.661   2.459  11.209
53462W        W21680  11.569   0.451  10.575
53463W        W21681  44.530  39.910   1.697
53464W        W21682  35.380  32.884  12.413
53465W        W21683  35.703   7.456  13.251
53466W        W21684  25.676  31.202  10.644
53467W        W21685  35.360  28.363  14.525
53468W        W21686  42.249  11.342  13.398
53469W        W21687  27.993   2.161   3.668
53470W        W21688  24.716  41.016  10.433
53471W        W21689  30.479  16.862  12.535
53472W        W21690   1.360   7.593  14.984
53473W        W21691  30.617  31.624  14.297
53474W        W21692  19.304  24.181   1.050
53475W        W21693  10.863  33.539   0.499
53476W        W21694  18.992   1.277   4.883
53477W        W21695  41.793   9.409  11.086
53478W        W21696  26.974   2.352  14.694
53479W        W21697  15.149  30.190  12.638
53480W        W21698  38.982  27.953   0.197
53481W        W21699  27.653   6.345  10.523
53482W        W21700  38.009  42.327   1.811
53483W        W21701  23.490  25.229   2.679
53484W        W21702  10.806  28.552   0.954
53485W        W21703  38.953  14.100   0.511
53486W        W21704  22.523  39.962  13.107
53487W        W21705  36.431  11.885   4.057
53488W        W21706  10.621  44.680  14.878
53489W        W21707  14.480   9.164  13.485
53490W        W21708   3.499   8.801   3.316
53491W        W21709  16.767  23.629   3.673
53492W        W21710  35.007  18.127   1.096
53493W        W21711  29.695  41.347   2.227
53494W        W21712  18.835  26.340   0.468
53495W        W21713   6.340  39.438   2.149
53496W        W21714  10.657   4.633   4.846
53497W        W21715  32.353  18.830  14.832
53498W        W21716  36.489  21.682   3.712
53499W        W21717  20.854  26.948  13.334
53500W        W21718   7.665  23.717   4.300
53501W        W21719  38.422  21.128  12.203
53502W        W21720  32.943  22.729  13.829
53503W        W21721   2.815   5.871   2.346
53504W        W21722  39.927  44.446  12.729
53505W        W21723  14.211  22.564  12.653
53506W        W21724   6.787   8.673  11.572
53507W        W21725  33.311  42.302  10.804
53508W        W21726  18.247   3.275   2.857
53509W        W21727  26.112  39.364   0.509
53510W        W21728  43.394  37.347   3.656
53511W        W21729  32.487  26.666  13.492
53512W        W21730  31.393  40.133   2.649
53513W        W21731  40.387  21.223  14.788
53514W        W21732  30.251   6.002   1.795
53515W        W21733  14.298   6.017  14.987
53516W        W21734  35.011  25.656   3.263
53517W        W21735   6.736   9.969   3.738
53518W        W21736   5.768  19.233   2.785
53519W        W21737  20.940  32.166   2.728
53520W        W21738  33.395  33.549   1.378
53521W        W21739  38.966  20.633   0.816
53522W        W21740   0.202   0.862  12.075
53523W        W21741  35.069   3.725  11.574
53524W        W21742   1.229   6.257  12.787
53525W        W21743  12.861   4.215   0.316
53526W        W21744  11.887  34.532  12.173
53527W        W21745  17.327  32.620   3.308
53528W        W21746  31.700  19.947   0.351
53529W        W21747  32.923   4.817   1.103
53530W        W21748  14.767  27.209  12.305
53531W        W21749  30.146   3.626   2.262
53532W        W21750   5.067  11.803  14.213
53533W        W21751  35.704   9.414  14.575
53534W        W21752  16.165  20.630   3.257
53535W        W21753  15.756  40.392  14.825
53536W        W21754  24.029  16.332  14.318
53537W        W21755  13.277   4.184   4.702
53538W        W21756  12.338  24.585   1.720
53539W        W21757  29.379   6.643  13.949
53540W        W21758  29.384  16.637  11.561
53541W        W21759  16.668  24.063   2.767
53542W        W21760   1.399  25.492  13.834
53543W        W21761  27.070  30.900   0.930
53544W        W21762  20.259  43.293  11.673
53545W        W21763  22.027  31.235  12.031
53546W        W21764  16.690  11.137  12.962
53547W        W21765  15.045  30.591   1.854
53548W        W21766   1.645  23.620   4.052
53549W        W21767   0.472   4.517  10.467
53550W        W21768  33.893  32.906  12.362
53551W        W21769  19.768  24.923  13.520
53552W        W21770  13.646  14.622  14.277
53553W        W21771   8.218  26.726   9.869
53554W        W21772   5.597  30.604  14.873
53555W        W21773   1.056  34.437   1.118
53556W        W21774  24.694  36.339   0.675
53557W        W21775  21.300   0.287   0.402
53558W        W21776  23.609  24.479   3.281
53559W        W21777  29.751  11.025  14.889
53560W        W21778  29.118  11.613  11.148
53561W        W21779  36.988  36.824   3.870
53562W        W21780  25.595  41.478   1.988
53563W        W21781   1.889  30.886   2.397
53564W        W21782  10.890  20.743   1.480
53565W        W21783  39.114   9.670   4.458
53566W        W21784  28.584  22.725  10.616
53567W        W21785   6.214   2.907   0.470
53568W        W21786  36.715   1.728  12.582
53569W        W21787   6.421  20.955   5.068
53570W        W21788  42.051  29.207   0.436
53571W        W21789   2.881  28.085   1.666
53572W        W21790   1.812  35.461  14.537
53573W        W21791  27.184  33.595  14.829
53574W        W21792  12.633   6.885   1.211
53575W        W21793  32.399  14.169  11.941
53576W        W21794  26.504   1.714   1.205
53577W        W21795   8.088   1.000   3.696
53578W        W21796   3.238   9.398   4.594
53579W        W21797  16.334   1.669  13.386
53580W        W21798  15.746  40.527  12.841
53581W        W21799   8.728  21.505  11.691
53582W        W21800  14.598  20.368  11.157
53583W        W21801   7.601  39.452  12.923
53584W        W21802  33.593  15.735  11.645
53585W        W21803  24.617   9.605   0.846
53586W        W21804  18.572  14.604  11.546
53587W        W21805  29.292  33.350  14.237
53588W        W21806  18.772  15.340  14.912
53589W        W21807  21.133  22.176   1.568
53590W        W21808  15.291   6.338  12.230
53591W        W21809   7.286  31.220   4.836
53592W        W21810   2.302   4.183   4.008
53593W        W21811  11.795  40.544  10.759
53594W        W21812  36.019  42.840  12.058
53595W        W21813  19.773  44.323   3.829
53596W        W21814  13.680  13.308  14.060
53597W        W21815  31.184  14.280   3.734
53598W        W21816   4.355  17.115   4.969
53599W        W21817  31.139  39.786   2.327
53600W        W21818  31.973  12.408   1.165
53601W        W21819  39.757  10.388  11.160
53602W        W21820   4.058  16.667   4.260
53603W        W21821  11.638  44.049   5.013
53604W        W21822  37.849   0.812   5.431
53605W        W21823  33.648  29.411  14.407
53606W        W21824   5.141  10.591   4.271
53607W        W21825  13.874  21.661   2.125
53608W        W21826   3.828  13.511  11.475
53609W        W21827  22.083  39.530   2.701
53610W        W21828  29.779  12.464   2.864
53611W        W21829  38.294  44.074   4.146
53612W        W21830  39.738  31.392  10.636
53613W        W21831  37.322   6.174  10.290
53614W        W21832   3.877  42.474   1.393
53615W        W21833  17.622  25.852  13.246
53616W        W21834  34.080  30.334   1.360
53617W        W21835  38.367  32.918  11.945
53618W        W21836  32.025  19.004   4.557
53619W        W21837  16.222  20.497   2.230
53620W        W21838  29.854  10.903  14.386
53621W        W21839   2.322  10.240  12.201
53622W        W21840  33.354  13.874   3.364
53623W        W21841  13.212  38.273   0.397
53624W        W21842  19.017  21.137   2.389
53625W        W21843  12.542  23.519   4.131
53626W        W21844  10.643  10.269  13.868
53627W        W21845  15.581  22.792   1.712
53628W        W21846  30.422  21.359  14.026
53629W        W21847   2.152   6.164  12.049
53630W        W21848   2.893  40.065   4.672
53631W        W21849  28.242  31.178  14.445
53632W        W21850  30.426  17.818   2.364
53633W        W21851   1.245  37.341  10.976
53634W        W21852  21.705  21.002  12.660
53635W        W21853  37.454  43.165   0.294
53636W        W21854  13.831  15.158   3.964
53637W        W21855  12.777  12.232   0.284
53638W        W21856  25.155   7.388   3.642
53639W        W21857   7.687   9.327  10.971
53640W        W21858  29.878  12.854  13.521
53641W        W21859  14.084  31.058  12.398
53642W        W21860   7.264  36.072  11.641
53643W        W21861  17.629  36.414   3.095
53644W        W21862  30.202  43.788  14.392
53645W        W21863  34.042  37.471   2.143
53646W        W21864  28.034  17.402   1.339
53647W        W21865  43.341  12.727   4.565
53648W        W21866  39.339  11.786   2.504
53649W        W21867  33.984   4.960  12.811
53650W        W21868  28.399  44.052  11.110
53651W        W21869  42.905  34.975   3.233
53652W        W21870  40.462   1.347  12.079
53653W        W21871  16.954  20.283   0.593
53654W        W21872  31.437  26.058  12.906
53655W        W21873  10.790  13.101   0.411
53656W        W21874  16.665  30.022   0.031
53657W        W21875  10.257  10.573  10.667
53658W        W21876   5.118   5.275   2.838
53659W        W21877  43.355  44.094  11.630
53660W        W21878  28.224  33.057  12.162
53661W        W21879  26.115  23.203   3.387
53662W        W21880   4.165  22.995   4.620
53663W        W21881  36.299  43.476   3.662
53664W        W21882   2.139  12.225   0.290
53665W        W21883  37.778  13.763   3.766
53666W        W21884   6.432   6.628  12.851
53667W        W21885  17.464  15.435  14.452
53668W        W21886  37.565  31.920  10.717
53669W        W21887  20.990  26.997   3.274
53670W        W21888  18.149  28.355  11.115
53671W        W21889  34.562  13.107   4.466
53672W        W21890  36.614  38.636  13.997
53673W        W21891  12.555  32.077  10.861
53674W        W21892  22.506  23.525   2.231
53675W        W21893  22.710   8.919   0.894
53676W        W21894  30.425  39.399   2.407
53677W        W21895  24.700  24.137  11.546
53678W        W21896  11.784  24.157  13.883
53679W        W21897  14.860  22.381   0.427
53680W        W21898  15.667  29.992  11.890
53681W        W21899  44.706  37.786   4.764
53682W        W21900  27.759  29.596  11.495
53683W        W21901  41.895   1.571   4.168
53684W        W21902  10.264  37.520   0.223
53685W        W21903  14.431  38.931   3.523
53686W        W21904   8.624   9.600  11.049
53687W        W21905  13.325  42.361   2.567
53688W        W21906  20.031   8.854  12.135
53689W        W21907  17.966  42.477  11.108
53690W        W21908  23.077  14.468  12.140
53691W        W21909  36.050  27.807   4.157
53692W        W21910  12.175  40.887  14.931
53693W        W21911  44.286   6.611  10.813
53694W        W21912  25.309  24.123   4.094
53695W        W21913  11.273  43.137   4.908
53696W        W21914  31.914  40.971  14.364
53697W        W21915   3.920  11.135   4.261
53698W        W21916  35.049  11.108   4.520
53699W        W21917   2.748  41.383  12.951
53700W        W21918   0.415  23.749  14.053
53701W        W21919  41.754   4.841   0.304
53702W        W21920  19.348  26.812  14.730
53703W        W21921  14.802   1.432  11.625
53704W        W21922  19.414  11.932   1.303
53705W        W21923  32.047  41.317   3.596
53706W        W21924  26.479  10.039   0.761
53707W        W21925   1.976   7.920  11.669
53708W        W21926  15.472  13.265   4.725
53709W        W21927   3.403  21.640   3.502
53710W        W21928  21.450  17.066  12.621
53711W        W21929   5.335   3.888  14.292
53712W        W21930  35.641  16.316  11.063
53713W        W21931  28.337  43.454   2.272
53714W        W21932  30.454  14.424  10.232
53715W        W21933  41.371  18.591   1.114
53716W        W21934  40.235  16.218   3.841
53717W        W21935  20.805  28.961  14.751
53718W        W21936  23.413  15.343   0.033
53719W        W21937  35.905  26.882   1.740
53720W        W21938  40.411  16.046   0.041
53721W        W21939  24.486  33.414  14.735
53722W        W21940  35.874  16.398   4.558
53723W        W21941  44.625  31.370  11.178
53724W        W21942  31.521  44.248   1.236
53725W        W21943  42.606  35.068   5.009
53726W        W21944  10.685  42.788  11.657
53727W        W21945  13.224   9.295   2.330
53728W        W21946  24.900  12.707  14.509
53729W        W21947  24.047  30.133   4.711
53730W        W21948  43.918  16.407   0.884
53731W        W21949   0.671  42.083  11.325
53732W        W21950  23.169   7.428  10.638
53733W        W21951  15.229   5.339   3.940
53734W        W21952  38.605  21.998  11.607
53735W        W21953   4.173   0.944   1.756
53736W        W21954  15.212   9.613   4.249
53737W        W21955  11.309  38.923   1.625
53738W        W21956  20.815  32.211  13.272
53739W        W21957  34.844  32.115   3.590
53740W        W21958  29.186  44.971  14.995
53741W        W21959  28.939  30.264   2.643
53742W        W21960  24.571  28.658  12.933
53743W        W21961  18.109  22.455  13.912
53744W        W21962  31.692   1.094  13.573
53745W        W21963   3.160  39.351   4.354
53746W        W21964  26.397  21.045  14.082
53747W        W21965  11.824  25.194  11.585
53748W        W21966  41.540  41.804  12.965
53749W        W21967   0.313  40.386   0.983
53750W        W21968   6.397  24.094  12.201
53751W        W21969  24.286  44.025   1.199
53752W        W21970  29.610  32.603  14.747
53753W        W21971  19.512  43.318  12.100
53754W        W21972  39.645  11.297  12.931
53755W        W21973  39.895  23.071  10.592
53756W        W21974   9.618   2.903   1.031
53757W        W21975  13.916  43.538   0.288
53758W        W21976   3.486  16.714  14.959
53759W        W21977  40.229  20.135   0.187
53760W        W21978   1.961  44.858   0.893
53761W        W21979  29.688  44.366  13.124
53762W        W21980  44.826  34.041  13.279
53763W        W21981  31.373  16.349   1.901
53764W        W21982  26.163   7.700   2.743
53765W        W21983   8.165  13.675   2.212
53766W        W21984  24.120   0.128  14.852
53767W        W21985   2.796  24.038   4.536
53768W        W21986   2.609  16.933   3.739
53769W        W21987   6.835  17.049  14.056
53770W        W21988  42.107  11.396  14.403
53771W        W21989  31.012  37.585   3.791
53772W        W21990   2.301  40.007   0.049
53773W        W21991  38.412  35.410  14.891
53774W        W21992  30.599  33.906   4.585
53775W        W21993   6.247  17.478   0.252
53776W        W21994  19.495  18.128   4.749
53777W        W21995  30.038  11.637   4.579
53778W        W21996  20.055  31.446   0.162
53779W        W21997   3.772  26.191  10.722
53780W        W21998  23.241  19.344  14.580
53781W        W21999  31.588  29.030  12.917
53782W        W22000   5.533  17.341  14.523
53783W        W22001  42.931   3.541   1.665
53784W        W22002   2.538  28.529  12.773
53785W        W22003  33.186  21.408  14.783
53786W        W22004  28.622   6.344   0.420
53787W        W22005   8.639  26.508  10.637
53788W        W22006  27.937   2.455   2.662
53789W        W22007  16.850  27.436   0.695
53790W        W22008  11.743  37.257   1.806
53791W        W22009  19.602  32.985  14.367
53792W        W22010  42.232   2.766  14.044
53793W        W22011  23.363  28.522  12.633
53794W        W22012  19.041  43.318  11.155
53795W        W22013   4.747  28.163  13.003
53796W        W22014  23.142  32.576  13.895
53797W        W22015  42.405  43.352   0.912
53798W        W22016  11.705  27.708   3.282
53799W        W22017   0.286  36.651  11.146
53800W        W22018  24.747   7.624  12.031
53801W        W22019  36.962   7.739   1.822
53802W        W22020  38.838  33.747   2.462
53803W        W22021  14.329  14.588   2.286
53804W        W22022  21.361  31.440  12.988
53805W        W22023  12.662  40.774  12.615
53806W        W22024  39.035  26.266   4.610
53807W        W22025  37.062  12.260  10.763
53808W        W22026  34.647  36.968  13.748
53809W        W22027   4.517   9.125   0.789
53810W        W22028   1.925  21.112   0.640
53811W        W22029   3.791  39.943  13.945
53812W        W22030  16.451  13.607  11.650
53813W        W22031  24.084  36.991  13.075
53814W        W22032  30.235  32.889  11.279
53815W        W22033  39.420  12.585   4.526
53816W        W22034  41.747  36.537   3.655
53817W        W22035  18.741   9.471   3.694
53818W        W22036   8.233  20.938   3.147
53819W        W22037  26.829  24.838  14.393
53820W        W22038  29.015  33.350   0.680
53821W        W22039  32.189   3.302   1.333
53822W        W22040  26.138  41.971  12.392
53823W        W22041  36.814  38.988   1.257
53824W        W22042  33.090  22.829   4.203
53825W        W22043  13.091   7.860   1.286
53826W        W22044   1.651  14.019   2.458
53827W        W22045  17.138  36.557  10.981
53828W        W22046  26.154   8.375  10.189
53829W        W22047  25.170  10.733   1.186
53830W        W22048  41.958  17.178   4.612
53831W        W22049  42.930   6.363  11.690
53832W        W22050  16.726  22.116   3.838
53833W        W22051  13.332  41.569   4.168
53834W        W22052   1.002  35.065  14.955
53835W        W22053   6.163   5.175   0.821
53836W        W22054  31.714  27.653  13.805
53837W        W22055   2.764  18.592  12.913
53838W        W22056  22.455  24.130   3.606
53839W        W22057  36.441  21.522   1.046
53840W        W22058  42.325  18.555  13.376
53841W        W22059  16.332  19.836  10.751
53842W        W22060  32.883   1.768  13.305
53843W        W22061  20.767  42.328   0.426
53844W        W22062  27.542  10.237   2.274
53845W        W22063   6.820  43.100   4.899
53846W        W22064   0.750   7.610   3.313
53847W        W22065  37.291  28.186  13.499
53848W        W22066  18.145  37.690   4.900
53849W        W22067  30.936  26.976   4.572
53850W        W22068  20.959  12.848  11.072
53851W        W22069  16.199  28.535  13.999
53852W        W22070  39.029  31.337   3.929
53853W        W22071  16.411  35.589   0.435
53854W        W22072  32.426   2.403   0.845
53855W        W22073  34.159  42.508  12.411
53856W        W22074  25.228  21.241   4.802
53857W        W22075  37.053  35.808   2.201
53858W        W22076  29.684  31.002   4.225
53859W        W22077  26.142  10.116  13.953
53860W        W22078  18.777   1.870   3.225
53861W        W22079  34.530   0.303   4.247
53862W        W22080   6.358  40.439   2.107
53863W        W22081  21.531  40.906  12.869
53864W        W22082  16.815  27.991   3.221
53865W        W22083  13.668  38.128   2.380
53866W        W22084  17.808  20.863  12.889
53867W        W22085  32.885  14.243  14.369
53868W        W22086  33.178   0.949   0.122
53869W        W22087   9.537  24.163   1.882
53870W        W22088  32.975  24.525   4.550
53871W        W22089  19.241  30.205   0.478
53872W        W22090  26.764  39.467  12.998
53873W        W22091  34.447  19.443   0.002
53874W        W22092  37.067  17.271   3.727
53875W        W22093  31.242  28.493  11.099
53876W        W22094  21.564  38.858   0.490
53877W        W22095  30.313  40.365  13.400
53878W        W22096  30.925  11.157  13.808
53879W        W22097  27.136  23.251   0.995
53880W        W22098  18.602   5.445   1.978
53881W        W22099  37.507  18.332  13.092
53882W        W22100  16.227   4.918  13.939
53883W        W22101  16.347  33.900   3.706
53884W        W22102  35.521   8.783   1.323
53885W        W22103  32.062   4.336   1.299
53886W        W22104   6.455  39.897  13.848
53887W        W22105  16.663  24.993   3.354
53888W        W22106  20.291  21.459   0.954
53889W        W22107  18.533  32.964  14.427
53890W        W22108  42.253  23.244  10.048
53891W        W22109  10.905  38.090  13.002
53892W        W22110  12.338   7.255   3.389
53893W        W22111   7.371  28.851  13.538
53894W        W22112  37.056  44.548   2.341
53895W        W22113  25.530  18.523   3.287
53896W        W22114  16.480   5.862   4.608
53897W        W22115   1.510  26.167   2.728
53898W        W22116  23.983  23.259   0.032
53899W        W22117   3.112  34.179   3.076
53900W        W22118  10.762  21.746  13.819
53901W        W22119  12.143  36.368   2.930
53902W        W22120  43.260  31.938  11.671
53903W        W22121   7.997   3.896   4.158
53904W        W22122  38.463  39.661   0.500
53905W        W22123  28.160  21.894  12.171
53906W        W22124  10.999   1.841   1.207
53907W        W22125  36.965  30.138  13.377
53908W        W22126  24.226   7.580   1.313
53909W        W22127  22.860   4.620   5.137
53910W        W22128  12.394  10.741  13.895
53911W        W22129  18.576   5.616  12.880
53912W        W22130  23.078  39.049   1.203
53913W        W22131   0.299   8.324  14.271
53914W        W22132   3.347  40.932   0.312
53915W        W22133  18.560  18.663   1.117
53916W        W22134   1.733   3.286   2.306
53917W        W22135  17.287   8.230  10.428
53918W        W22136   4.947  42.075  10.927
53919W        W22137  30.045  25.627   4.554
53920W        W22138  37.683   5.621   3.454
53921W        W22139   1.917  27.059  14.946
53922W        W22140  15.329   2.701  11.133
53923W        W22141  32.162  36.836  12.316
53924W        W22142  30.845  39.347  11.501
53925W        W22143   6.179  37.887   2.206
53926W        W22144  12.449  20.184  13.560
53927W        W22145  22.527  27.646  13.529
53928W        W22146  21.102  22.030   3.302
53929W        W22147  30.170   4.686  12.993
53930W        W22148  28.671  27.517   4.163
53931W        W22149  25.014  35.077  14.551
53932W        W22150  34.109  12.349   2.683
53933W        W22151  10.514  40.469   1.544
53934W        W22152  27.722   0.422  14.196
53935W        W22153  21.355  33.456  11.313
53936W        W22154  39.614  44.920  12.391
53937W        W22155  38.988  36.103  13.933
53938W        W22156  18.511  13.098   1.483
53939W        W22157  30.009  17.475  14.326
53940W        W22158  29.887  36.842  14.962
53941W        W22159  20.824  17.540   3.320
53942W        W22160  12.334  37.471  12.015
53943W        W22161  11.304  31.972   2.672
53944W        W22162   2.581  33.054  10.968
53945W        W22163  17.517  23.471  11.651
53946W        W22164  28.599  32.598  14.960
53947W        W22165  26.710  42.541   4.175
53948W        W22166  34.021  29.442   3.665
53949W        W22167   4.513   6.861  12.592
53950W        W22168  11.844  22.254   4.190
53951W        W22169  27.002  29.178  13.809
53952W        W22170  20.265  33.587  13.868
53953W        W22171  26.514  14.581   0.320
53954W        W22172  44.814  17.931   2.298
53955W        W22173  12.916  43.121  11.657
53956W        W22174  12.487  20.606   4.084
53957W        W22175  21.072   9.669  11.563
53958W        W22176  36.550  24.552  11.130
53959W        W22177  44.426   2.793   3.814
53960W        W22178  42.573  32.388  13.053
53961W        W22179   5.293  18.962   5.510
53962W        W22180  15.184  42.493   3.672
53963W        W22181   3.190  21.610  12.992
53964W        W22182  39.030  25.695  12.030
53965W        W22183   7.266  30.078  12.226
53966W        W22184  36.099  21.628   0.247
53967W        W22185  39.952  25.936  11.130
53968W        W22186   4.182   1.803  11.451
53969W        W22187  24.993  11.371  13.434
53970W        W22188  31.617   3.178   2.336
53971W        W22189  12.237  29.453  12.076
53972W        W22190   5.608  24.278   2.644
53973W        W22191  13.457  13.169   1.301
53974W        W22192  10.431  13.179   1.325
53975W        W22193  20.979  12.190   0.865
53976W        W22194  13.046   3.803   3.250
53977W        W22195  44.284  30.969  11.217
53978W        W22196  25.161   8.178  13.981
53979W        W22197  32.407  18.841   4.210
53980W        W22198   4.623   3.204   2.692
53981W        W22199   7.928  15.754   4.072
53982W        W22200  15.205  14.382  13.066
53983W        W22201  18.794  16.809   5.174
53984W        W22202  18.324  21.609   4.139
53985W        W22203   5.395  13.597  12.901
53986W        W22204  23.194  10.813   1.206
53987W        W22205  37.302  39.060   1.402
53988W        W22206  32.359  18.570   3.159
53989W        W22207  38.398  43.762  14.253
53990W        W22208  30.114  11.119   2.791
53991W        W22209  23.120  39.053  13.792
53992W        W22210  12.301  28.354   4.647
53993W        W22211  32.282   9.867  13.833
53994W        W22212  26.204  25.266  13.018
53995W        W22213  38.433  32.826  14.394
53996W        W22214  15.244  37.463  12.310
53997W        W22215  22.060  44.353  11.744
53998W        W22216  36.593  16.684   1.329
53999W        W22217  25.898  27.784  10.778
54000W        W22218  31.516  26.469   5.095
54001W        W22219  11.284  12.142   0.766
54002W        W22220  39.023   9.575  13.474
54003W        W22221   4.480   6.254  14.876
54004W        W22222  42.511   8.815   4.099
54005W        W22223  15.524  40.003   1.985
54006W        W22224  38.011  11.821   0.203
54007W        W22225  16.115   4.804   2.259
54008W        W22226   3.405  16.085   1.833
54009W        W22227  32.013  19.577  12.581
54010W        W22228  16.193  44.678  11.800
54011W        W22229  28.397  27.917  12.270
54012W        W22230  14.376  14.550   3.633
54013W        W22231  21.335  34.334   3.629
54014W        W22232   5.836  33.915   3.836
54015W        W22233   5.411   5.701   2.644
54016W        W22234  23.762  26.040   1.415
54017W        W22235  32.626  34.122  11.252
54018W        W22236  12.793   0.176   0.534
54019W        W22237  25.714  29.861  14.279
54020W        W22238   5.963   4.134  12.558
54021W        W22239  19.360  16.090  12.230
54022W        W22240  12.322  34.885   1.544
54023W        W22241  18.075   7.455   2.324
54024W        W22242   8.138  26.570   2.725
54025W        W22243  38.306  42.017  14.889
54026W        W22244   9.287  15.302   1.411
54027W        W22245  26.424  23.956   1.817
54028W        W22246  26.213   0.023  11.563
54029W        W22247  40.437  40.962   4.086
54030W        W22248   1.485  43.884   2.772
54031W        W22249  31.584  36.339  11.334
54032W        W22250  21.599  35.512   0.921
54033W        W22251   6.513  16.935  11.170
54034W        W22252  32.187   0.034   4.285
54035W        W22253  43.551  37.826  12.825
54036W        W22254   8.203  21.952   3.336
54037W        W22255  40.423   0.695  12.756
54038W        W22256   0.846  12.896  14.903
54039W        W22257   7.636  37.022   1.781
54040W        W22258  15.728   3.960  11.151
54041W        W22259  19.479  40.260   3.711
54042W        W22260  38.595  40.039  12.511
54043W        W22261  39.620  29.591  12.982
54044W        W22262  11.337   2.361   1.407
54045W        W22263   5.973   2.679   3.733
54046W        W22264  43.896  30.947   4.351
54047W        W22265  33.008  13.198  11.522
54048W        W22266   9.676  29.190  12.932
54049W        W22267   4.368  29.274   1.158
54050W        W22268  40.908  25.475  13.576
54051W        W22269   8.883  38.882  14.456
54052W        W22270  24.477  39.749  13.222
54053W        W22271  30.230  20.281   2.962
54054W        W22272   5.385   8.089   4.934
54055W        W22273  24.549  40.827  14.982
54056W        W22274  12.850   1.716   0.754
54057W        W22275  24.577  35.500   1.310
54058W        W22276   2.237  34.537   4.965
54059W        W22277   0.482  42.964  11.189
54060W        W22278  29.369   3.861  10.987
54061W        W22279  35.877  11.535  13.470
54062W        W22280  19.613   7.506   4.669
54063W        W22281  38.605  10.222  13.895
54064W        W22282  42.756   8.004   1.158
54065W        W22283  42.973  20.317   4.759
54066W        W22284  24.800  28.508  13.368
54067W        W22285   4.696  43.933  11.940
54068W        W22286  34.137  19.554  13.106
54069W        W22287  22.788  16.465   0.941
54070W        W22288  11.954  37.994  13.010
54071W        W22289   5.938  29.818  11.424
54072W        W22290  18.687   8.408  13.478
54073W        W22291  41.988   1.626   1.216
54074W        W22292   0.518  32.411  13.911
54075W        W22293  11.339   6.442  12.811
54076W        W22294  10.886  13.904  12.452
54077W        W22295  32.637   5.456   0.447
54078W        W22296  34.788  34.509  12.878
54079W        W22297  41.015   2.637  12.029
54080W        W22298   8.174  32.711   2.856
54081W        W22299  20.753  12.130   2.744
54082W        W22300  12.574  44.306   1.279
54083W        W22301  28.674  10.354  13.030
54084W        W22302  38.045   5.305  10.026
54085W        W22303  16.528  41.520   4.669
54086W        W22304  16.099  42.851   1.280
54087W        W22305   7.374  35.014   1.503
54088W        W22306   6.182  31.717  11.191
54089W        W22307  31.453  25.967   1.234
54090W        W22308   9.311  17.504   1.846
54091W        W22309   4.969  17.179  13.065
54092W        W22310  26.511   1.386  10.535
54093W        W22311  21.342   3.685   3.228
54094W        W22312  42.301  21.265   3.364
54095W        W22313  10.308  35.039  14.243
54096W        W22314   5.946   0.323  10.056
54097W        W22315   8.158   2.000  13.837
54098W        W22316  18.797   7.804  12.664
54099W        W22317  24.526  41.867  14.480
54100W        W22318  17.139  36.071  11.192
54101W        W22319  16.926  13.786  11.611
54102W        W22320  12.142  34.594   3.243
54103W        W22321  32.326  27.248   2.705
54104W        W22322  42.982  21.751   1.279
54105W        W22323  28.917  28.058  12.217
54106W        W22324  20.081  32.724  12.879
54107W        W22325  23.442   8.994   0.500
54108W        W22326  43.827  19.685   1.462
54109W        W22327  40.794  37.345  13.416
54110W        W22328   7.261  32.460  12.017
54111W        W22329   2.229  40.404   4.836
54112W        W22330  13.300   9.282  14.248
54113W        W22331  23.834   6.720   1.139
54114W        W22332  24.572  37.415   1.700
54115W        W22333  16.257  14.515   3.090
54116W        W22334  37.165   9.779  13.505
54117W        W22335  24.589  24.567   3.351
54118W        W22336   4.389  25.076   0.930
54119W        W22337  39.808  33.122   0.007
54120W        W22338  40.304  29.504   2.963
54121W        W22339  33.435  34.239   0.632
54122W        W22340   6.549  27.530   2.003
54123W        W22341  24.956  15.264   1.225
54124W        W22342  15.380  15.400   3.207
54125W        W22343  34.479   6.105   2.213
54126W        W22344  44.273  41.225   4.045
54127W        W22345  19.505  31.511  11.241
54128W        W22346  16.663  31.918   0.889
54129W        W22347   1.843  37.554  13.102
54130W        W22348  39.414  27.331   1.393
54131W        W22349  42.484   7.588  14.524
54132W        W22350  36.589   3.687   1.262
54133W        W22351  25.117  20.311   1.357
54134W        W22352   1.262  40.945  11.644
54135W        W22353  24.521  22.999   3.528
54136W        W22354  43.749  14.785  13.082
54137W        W22355  22.600  43.440  11.104
54138W        W22356  27.663  29.976  11.169
54139W        W22357  26.999  21.257   0.393
54140W        W22358  26.642  44.225  10.699
54141W        W22359  42.507  25.221  10.800
54142W        W22360  43.307  15.814  11.977
54143W        W22361  36.935  39.683  12.081
54144W        W22362  43.300   1.728  12.106
54145W        W22363  17.505  29.528   0.892
54146W        W22364  21.738  24.393  12.409
54147W        W22365  28.101  36.690   4.081
54148W        W22366   1.385   6.122  14.779
54149W        W22367  28.612   2.785  14.524
54150W        W22368  11.295   9.248   3.070
54151W        W22369   2.687  34.160  14.855
54152W        W22370  23.930  42.824   9.880
54153W        W22371  24.435  40.218   3.533
54154W        W22372   6.129  26.126  12.606
54155W        W22373   6.116  40.064   4.307
54156W        W22374  27.576  43.949   4.028
54157W        W22375  19.091  22.898  14.787
54158W        W22376  25.611  24.694  12.163
54159W        W22377  14.287  19.258   3.878
54160W        W22378   4.499  12.561   1.359
54161W        W22379  19.539  25.434   1.304
54162W        W22380  40.600  15.164   1.037
54163W        W22381   5.880  44.502   3.122
54164W        W22382  44.493  21.189  10.704
54165W        W22383   9.170  11.673  12.451
54166W        W22384  42.393  19.290  14.820
54167W        W22385  14.045  36.058   4.802
54168W        W22386  31.240  21.467  11.335
54169W        W22387   9.202  31.673   1.983
54170W        W22388  15.033  25.615   1.233
54171W        W22389  31.522  35.012   2.256
54172W        W22390  42.351  19.016   0.847
54173W        W22391  36.038  33.589   4.467
54174W        W22392  33.583  12.713   0.835
54175W        W22393  23.527  43.133   0.295
54176W        W22394  21.215  30.235  13.288
54177W        W22395  20.147   8.901  12.930
54178W        W22396  29.623  34.389   1.458
54179W        W22397  33.694  19.305   3.293
54180W        W22398  15.194   4.212  14.401
54181W        W22399  34.488  34.915   2.528
54182W        W22400  37.972   4.239   1.648
54183W        W22401  40.027   4.956  14.702
54184W        W22402  36.042  31.673   4.141
54185W        W22403  21.652  15.744   2.761
54186W        W22404   9.809  31.131  13.133
54187W        W22405  15.231  17.437  12.958
54188W        W22406   8.644   4.900  13.980
54189W        W22407  33.853  22.719   2.739
54190W        W22408  22.825  30.600  14.524
54191W        W22409  42.378   9.921  14.009
54192W        W22410  32.073  20.483  11.211
54193W        W22411  42.364  26.695  10.539
54194W        W22412  27.622  39.382   4.571
54195W        W22413  39.052  32.503   4.438
54196W        W22414  15.680  40.425   2.242
54197W        W22415  43.018  19.682  13.406
54198W        W22416  15.571   1.387   1.253
54199W        W22417  27.649  25.870  11.059
54200W        W22418  37.123  14.607   4.534
54201W        W22419  36.651   9.255   3.727
54202W        W22420   9.150  37.445   2.380
54203W        W22421  23.762  14.279   3.711
54204W        W22422   1.522  12.161   3.824
54205W        W22423  30.604  19.512   4.851
54206W        W22424   8.666  24.446   0.376
54207W        W22425  20.797   2.947   2.319
54208W        W22426  36.251  17.207  13.351
54209W        W22427  20.614   0.470   0.875
54210W        W22428  18.218  13.638  14.224
54211W        W22429  39.604   7.482  13.550
54212W        W22430  26.180  34.638  11.334
54213W        W22431  43.321  18.151  12.073
54214W        W22432  39.835  35.918   4.871
54215W        W22433  24.924  24.766  10.330
54216W        W22434  34.327  30.159  10.213
54217W        W22435  39.128   3.389  13.290
54218W        W22436  14.217  27.940   3.888
54219W        W22437  39.382  25.155  14.981
54220W        W22438  20.184  44.041   3.661
54221W        W22439  18.181  29.378  11.161
54222W        W22440   0.150  12.388  11.839
54223W        W22441   8.899  28.090   4.616
54224W        W22442  10.393   8.486   2.865
54225W        W22443  31.869  36.472  13.569
54226W        W22444  17.176  30.590  11.894
54227W        W22445  26.948  27.004   1.920
54228W        W22446  35.536   0.557   3.384
54229W        W22447  31.099  30.944   3.184
54230W        W22448   7.094  28.938   1.945
54231W        W22449  13.293  27.340   3.175
54232W        W22450  41.422  12.123  11.190
54233W        W22451  19.459  34.477   2.698
54234W        W22452  11.027  22.363   3.641
54235W        W22453  32.082  39.045   2.666
54236W        W22454  38.521  12.412  10.967
54237W        W22455  26.990   2.247   2.311
54238W        W22456  16.913   8.108  10.779
54239W        W22457  38.994  31.843   4.006
54240W        W22458  23.202  20.275  12.155
54241W        W22459   4.484   3.319  14.419
54242W        W22460  35.406  32.893  10.797
54243W        W22461   2.830  39.105   4.675
54244W        W22462  44.685  41.372   0.033
54245W        W22463  38.299   9.480  10.669
54246W        W22464  36.456   0.526   1.387
54247W        W22465  39.976  20.985   0.765
54248W        W22466   6.172  19.592  10.737
54249W        W22467   8.954  29.085   2.124
54250W        W22468  15.507  24.175   1.271
54251W        W22469  37.349  25.638  12.936
54252W        W22470   0.313   2.930   2.131
54253W        W22471  41.099   0.387   4.143
54254W        W22472  14.460   9.284   4.701
54255W        W22473  35.418  41.347   3.880
54256W        W22474   0.218  11.771   2.146
54257W        W22475  28.045  42.634  14.211
54258W        W22476  23.588  36.665  12.093
54259W        W22477   8.742  43.405  11.634
54260W        W22478  18.873   2.271  11.120
54261W        W22479  35.497  30.890   0.336
54262W        W22480   7.947  42.813   1.805
54263W        W22481  15.759  29.570   0.306
54264W        W22482   2.292  34.226  13.590
54265W        W22483   0.517  19.595   2.155
54266W        W22484  34.241  41.423   4.164
54267W        W22485   6.856  23.206   3.292
54268W        W22486   1.220  29.632   0.873
54269W        W22487  34.985  21.420  13.856
54270W        W22488  27.400  34.149   1.768
54271W        W22489  22.562  18.067   0.501
54272W        W22490  30.528  17.994   4.528
54273W        W22491   9.727   2.076  12.468
54274W        W22492  41.205  37.368   2.417
54275W        W22493  25.548  15.007  13.124
54276W        W22494  27.781  33.317  11.142
54277W        W22495  27.024  43.257   0.804
54278W        W22496   2.381  19.152   4.187
54279W        W22497  34.069  27.455   1.128
54280W        W22498  40.936   2.991  14.463
54281W        W22499  14.898  27.557  13.130
54282W        W22500  33.072  18.097  10.672
54283W        W22501  25.466  39.851  13.020
54284W        W22502   9.233  36.897   1.698
54285W        W22503  16.586  41.804  11.855
54286W        W22504  29.150  30.360  11.074
54287W        W22505  12.179  40.558  10.409
54288W        W22506  25.947  38.501  13.904
54289W        W22507  36.094  29.410   1.257
54290W        W22508  25.046  27.499   0.274
54291W        W22509  14.520   8.625   5.303
54292W        W22510  24.958  32.985   0.921
54293W        W22511   0.225  38.290   3.395
54294W        W22512  30.222   3.393   2.708
54295W        W22513   5.368   4.146  11.776
54296W        W22514  27.696   6.264  11.487
54297W        W22515  26.254  26.460  12.529
54298W        W22516   4.523   3.691  12.112
54299W        W22517  35.113  31.587  10.430
54300W        W22518  23.702   7.186   0.893
54301W        W22519  16.142  17.012   1.149
54302W        W22520  10.246   8.665  10.218
54303W        W22521  44.942  41.481   4.532
54304W        W22522  25.778  12.614  12.051
54305W        W22523  24.514  10.499  13.882
54306W        W22524  40.826   7.959  11.682
54307W        W22525  44.540  22.103  11.579
54308W        W22526  13.228  22.876   1.706
54309W        W22527  12.123  16.805  13.580
54310W        W22528  13.892  16.638  13.006
54311W        W22529   7.265  37.765   5.056
54312W        W22530  22.002  24.705   4.221
54313W        W22531  16.611  35.175   2.809
54314W        W22532  17.738   8.131   2.996
54315W        W22533  16.213  28.207   4.058
54316W        W22534  22.954  31.078   0.331
54317W        W22535   8.234  12.872  14.954
54318W        W22536  18.019  36.869   1.750
54319W        W22537  31.198   4.498   2.791
54320W        W22538  16.782   3.819   0.487
54321W        W22539  40.982   9.124   2.805
54322W        W22540  33.498  34.690   4.552
54323W        W22541   2.461  22.718   3.191
54324W        W22542  44.113   4.493  10.846
54325W        W22543  30.916   1.442  14.928
54326W        W22544   6.422  24.600  14.954
54327W        W22545  38.299   9.618  11.588
54328W        W22546  26.710  41.836   1.840
54329W        W22547  36.604  12.633   3.224
54330W        W22548  17.128  16.097   3.116
54331W        W22549  30.721  10.227  12.442
54332W        W22550  10.388  19.996  10.731
54333W        W22551  27.059  23.516  12.187
54334W        W22552  12.795  15.795  12.415
54335W        W22553  34.162  32.548  14.853
54336W        W22554   0.833   5.751  11.620
54337W        W22555  27.155  19.189  10.689
54338W        W22556  40.947  12.187  13.921
54339W        W22557  23.054  43.433   4.244
54340W        W22558   0.878  30.066   1.881
54341W        W22559  34.547  16.744  10.766
54342W        W22560  35.534  21.188   2.443
54343W        W22561  33.376   0.724  12.128
54344W        W22562  10.481   1.975  12.787
54345W        W22563  18.152  27.752   0.610
54346W        W22564  21.466   0.027   2.701
54347W        W22565  20.982  28.009  11.175
54348W        W22566  23.463  30.457   1.081
54349W        W22567  26.554   0.614   3.726
54350W        W22568  33.585  10.457   2.819
54351W        W22569  42.925   0.361   3.755
54352W        W22570  44.881  32.998  12.331
54353W        W22571  14.246  37.320   1.262
54354W        W22572  29.219  17.857   5.189
54355W        W22573  15.681   8.637  14.418
54356W        W22574  26.513   4.758  12.361
54357W        W22575  44.137  24.114   1.006
54358W        W22576  23.568  30.935   2.881
54359W        W22577  41.695  24.310  12.935
54360W        W22578  30.270   8.665   3.124
54361W        W22579  26.894  23.520   2.237
54362W        W22580   2.229   6.398  12.547
54363W        W22581   2.743  41.733   2.125
54364W        W22582  41.292  28.631  12.004
54365W        W22583  38.309  33.825  11.380
54366W        W22584  41.228   6.364  13.139
54367W        W22585  12.488  34.838   2.375
54368W        W22586  42.337  12.996   3.352
54369W        W22587  42.874  36.993   3.022
54370W        W22588  31.065   1.725  13.549
54371W        W22589  31.421  27.118  10.268
54372W        W22590   7.416  42.965  13.495
54373W        W22591   6.196  15.632  11.879
54374W        W22592   2.753  37.907  13.524
54375W        W22593  15.905  23.363  14.963
54376W        W22594   6.352  24.884   1.424
54377W        W22595  43.921   8.872   2.350
54378W        W22596  17.474  10.158  11.456
54379W        W22597  33.552   4.150   3.321
54380W        W22598   9.087  17.070  11.174
54381W        W22599   3.548  39.237  14.451
54382W        W22600  39.638  20.487  14.929
54383W        W22601  40.883  41.242  11.242
54384W        W22602   9.909  17.826   2.643
54385W        W22603  11.701  32.018  10.552
54386W        W22604   8.588  24.001  12.136
54387W        W22605  25.439  13.133   4.970
54388W        W22606   9.623   4.911   3.787
54389W        W22607   9.434   4.637  13.620
54390W        W22608  17.292  39.601  14.866
54391W        W22609  40.622  18.893   1.722
54392W        W22610  16.281  23.446   3.545
54393W        W22611  39.719  25.449   4.654
54394W        W22612  29.880  25.140   2.762
54395W        W22613  23.921   6.399  13.449
54396W        W22614   1.374  24.389   3.414
54397W        W22615  26.532  41.674  12.589
54398W        W22616  32.985  30.485   3.990
54399W        W22617  33.926  17.109  11.870
54400W        W22618  34.688  22.097   4.710
54401W        W22619  24.005  37.353   2.504
54402W        W22620  41.021  44.438  13.243
54403W        W22621   6.714  43.906  13.364
54404W        W22622  10.260  31.843   3.601
54405W        W22623  25.011  41.934  14.335
54406W        W22624  20.183   9.721   1.162
54407W        W22625   2.537  44.297   3.214
54408W        W22626  23.591  21.131   1.878
54409W        W22627  30.607  36.997  11.920
54410W        W22628  12.982  14.600   0.775
54411W        W22629   3.302  23.921  10.562
54412W        W22630  11.056  18.188   4.663
54413W        W22631  25.727  11.777   2.515
54414W        W22632  38.878  11.702   3.696
54415W        W22633  18.109  33.033   0.156
54416W        W22634   3.817  44.019   4.258
54417W        W22635   3.100  11.253  10.734
54418W        W22636  10.793  31.132  13.972
54419W        W22637  24.730  18.295  13.894
54420W        W22638   6.448  21.466   2.813
54421W        W22639  20.773  15.095  12.569
54422W        W22640  43.789  35.919  11.521
54423W        W22641  11.154  20.460  11.218
54424W        W22642  27.945  19.329   4.510
54425W        W22643  32.827   4.892   4.678
54426W        W22644  33.121  21.092  12.360
54427W        W22645   7.459  16.343  13.889
54428W        W22646  44.897  43.903  14.393
54429W        W22647  41.300   6.941  11.169
54430W        W22648  29.349   1.690  12.456
54431W        W22649   1.285  22.569   1.800
54432W        W22650  21.590  29.893   0.035
54433W        W22651  28.955  43.345  11.483
54434W        W22652  24.798   2.835  12.823
54435W        W22653  42.378   6.972   1.016
54436W        W22654  34.591  19.389  12.838
54437W        W22655  22.254  15.856   0.995
54438W        W22656  39.378  38.830  11.818
54439W        W22657   0.285  15.612  11.625
54440W        W22658  12.181  41.511  12.154
54441W        W22659  17.796  41.795   2.414
54442W        W22660  29.228  39.368  12.916
54443W        W22661  30.456  28.111  11.954
54444W        W22662  33.071  17.633   1.639
54445W        W22663  37.656   1.657   0.651
54446W        W22664  36.599  42.272  13.449
54447W        W22665  44.456  35.797   3.453
54448W        W22666  33.631  22.767  11.150
54449W        W22667  11.807  10.650   1.522
54450W        W22668  18.208  29.592   4.582
54451W        W22669  24.725  30.097  11.094
54452W        W22670  22.583   9.177   2.238
54453W        W22671  27.956  43.458  10.685
54454W        W22672  29.649  15.290  13.882
54455W        W22673  23.047  14.246   1.946
54456W        W22674  40.821  13.302  12.533
54457W        W22675  29.101  30.746  14.271
54458W        W22676   5.260  16.746   0.352
54459W        W22677  23.179  28.452   1.454
54460W        W22678  27.618  36.586  12.008
54461W        W22679   8.863  23.228  14.455
54462W        W22680  39.320  19.169   2.929
54463W        W22681   1.025  28.968   2.991
54464W        W22682  29.064  30.656  10.650
54465W        W22683  33.435  42.532   3.446
54466W        W22684  27.112  21.979   4.982
54467W        W22685  11.377  23.979  11.122
54468W        W22686  23.696  28.184   4.080
54469W        W22687  39.300   8.855  11.927
54470W        W22688  11.654   6.469  14.208
54471W        W22689   6.771  26.886  14.908
54472W        W22690  11.702  24.653   4.786
54473W        W22691  10.688  40.983   0.974
54474W        W22692  10.315  30.067  11.559
54475W        W22693  34.066  18.198   3.717
54476W        W22694  26.884   1.066  12.039
54477W        W22695   2.422  33.091   3.188
54478W        W22696   0.566  10.194  12.067
54479W        W22697  22.161  22.518  14.187
54480W        W22698  24.978   6.855   2.723
54481W        W22699  25.048  38.864  12.995
54482W        W22700  30.007  10.064   0.497
54483W        W22701  20.342  33.942   2.811
54484W        W22702  39.576  10.972  13.335
54485W        W22703  11.910  35.373  11.385
54486W        W22704  37.350  40.016   1.259
54487W        W22705  24.207  34.350   4.206
54488W        W22706   3.966  34.922  11.795
54489W        W22707  28.872  23.997  11.636
54490W        W22708   2.279  43.020  13.377
54491W        W22709  42.841  11.397   4.177
54492W        W22710  22.086  38.794  13.754
54493W        W22711  44.528   4.554   0.913
54494W        W22712  36.909   3.537   4.112
54495W        W22713   7.153   0.523   2.753
54496W        W22714   5.383  41.548   2.624
54497W        W22715   7.802  30.085   4.574
54498W        W22716   8.974  44.867   0.781
54499W        W22717  11.406   2.320  12.464
54500W        W22718  33.596   6.763   0.505
54501W        W22719  32.167  35.471  12.362
54502W        W22720  40.092  41.091   1.223
54503W        W22721   7.005  10.725   4.584
54504W        W22722  44.307  29.742   1.323
54505W        W22723  15.308  36.571  12.669
54506W        W22724   7.020  41.791  11.334
54507W        W22725   3.633  33.821  14.928
54508W        W22726  20.240  31.119  11.432
54509W        W22727   4.710  12.858   3.688
54510W        W22728  17.273  39.053   4.075
54511W        W22729  19.702  37.737  13.288
54512W        W22730  35.928  18.743  10.571
54513W        W22731  42.784   1.363   2.741
54514W        W22732  32.625  32.918  11.421
54515W        W22733  26.049  15.024  10.236
54516W        W22734  42.137   2.000   1.552
54517W        W22735  19.041  40.455   3.983
54518W        W22736  10.457  27.642   4.604
54519W        W22737  13.795   3.850  13.083
54520W        W22738  19.105  27.950  14.259
54521W        W22739  19.780  43.804  10.917
54522W        W22740   1.314  39.186   1.727
54523W        W22741  15.254  16.585   0.270
54524W        W22742   3.868  20.303  11.966
54525W        W22743  37.789  44.212  12.957
54526W        W22744   2.392  31.660   4.374
54527W        W22745  37.286   1.546  14.478
54528W        W22746  28.753   6.489   1.663
54529W        W22747  43.313  18.128  11.554
54530W        W22748  44.394   1.847  13.955
54531W        W22749  19.911   1.249   0.424
54532W        W22750  25.638  21.315  12.294
54533W        W22751  25.021  11.726  14.602
54534W        W22752  34.087  28.546  13.853
54535W        W22753  31.448  28.963  14.851
54536W        W22754  40.344  19.064  13.788
54537W        W22755  30.321  43.832   1.780
54538W        W22756  41.991  26.652   1.783
54539W        W22757  27.109  31.811   2.757
54540W        W22758  28.950  16.668  12.529
54541W        W22759  16.144  43.302  12.078
54542W        W22760   5.585   6.453   3.158
54543W        W22761   2.416  19.775  10.599
54544W        W22762  21.284  22.057   0.716
54545W        W22763  13.236  20.568  12.495
54546W        W22764   4.394  43.522  13.517
54547W        W22765  26.613  25.220  12.551
54548W        W22766  41.965  10.060   0.771
54549W        W22767  34.694  33.379   0.074
54550W        W22768  28.407  14.584   3.783
54551W        W22769   5.023  26.204  10.202
54552W        W22770   0.213  20.135   2.856
54553W        W22771  11.823  11.362  14.096
54554W        W22772  38.811  10.802   1.920
54555W        W22773  34.957  43.816  11.120
54556W        W22774  44.342  37.643   3.696
54557W        W22775  23.963  39.706  13.089
54558W        W22776  29.081  33.188  10.608
54559W        W22777  12.530   7.244  13.449
54560W        W22778   3.397   8.365  13.955
54561W        W22779  44.852   8.895  13.073
54562W        W22780  15.642  11.197   3.651
54563W        W22781  26.117  29.495   4.948
54564W        W22782  35.896   0.848  14.486
54565W        W22783  31.468  44.453   1.746
54566W        W22784   4.824  37.245  11.205
54567W        W22785   5.304  21.020  12.498
54568W        W22786  22.084  42.009  11.715
54569W        W22787  27.986  31.974  11.441
54570W        W22788  19.701  30.134   3.452
54571W        W22789   9.178  14.719  14.694
54572W        W22790   9.266  44.524   1.829
54573W        W22791  16.301  23.682   4.448
54574W        W22792  11.712  41.266   4.502
54575W        W22793  25.887  39.948   0.029
54576W        W22794  37.320   5.007   1.727
54577W        W22795  38.949   4.272   3.816
54578W        W22796  18.564  18.252  13.497
54579W        W22797   9.100  23.322   3.316
54580W        W22798  23.866  44.555  11.836
54581W        W22799  15.722  31.007  13.551
54582W        W22800  16.958  37.992   3.035
54583W        W22801  27.719  42.567   1.785
54584W        W22802   7.886  17.972  14.995
54585W        W22803  38.866  26.232  13.017
54586W        W22804  13.364  28.896   0.979
54587W        W22805  44.439  13.562  13.608
54588W        W22806   0.563  30.493  14.864
54589W        W22807  39.355  26.550   1.047
54590W        W22808  12.475  17.731   4.256
54591W        W22809  30.650  17.750  14.077
54592W        W22810  35.626  20.731  11.816
54593W        W22811  38.004  27.009   2.769
54594W        W22812  14.625  25.547  11.922
54595W        W22813   2.534  26.201   2.353
54596W        W22814  14.052  15.999  10.917
54597W        W22815  33.133  30.292   5.370
54598W        W22816  11.574   2.958   3.378
54599W        W22817  20.240  39.978  14.345
54600W        W22818  29.047   5.153   4.186
54601W        W22819   7.244  36.278   1.360
54602W        W22820  44.303  27.265   0.453
54603W        W22821  16.087  30.725  12.392
54604W        W22822   7.039   0.284   2.302
54605W        W22823  28.660  43.299  11.898
54606W        W22824  20.925  28.036  12.033
54607W        W22825  20.336  31.925  13.340
54608W        W22826  28.019  27.592   2.868
54609W        W22827  13.151  35.873  13.820
54610W        W22828  43.208   9.417   2.389
54611W        W22829  13.038  38.893  13.316
54612W        W22830  43.544  20.082   1.702
54613W        W22831  17.372  13.160  14.772
54614W        W22832  18.214  25.692  12.683
54615W        W22833  39.000  38.539  11.599
54616W        W22834  22.214   4.844  10.703
54617W        W22835  38.801  40.422  13.936
54618W        W22836  27.480  40.936   4.187
54619W        W22837  17.228  29.044  13.547
54620W        W22838   4.673  36.395   3.687
54621W        W22839  24.493  43.482   2.065
54622W        W22840  43.839  35.015   3.354
54623W        W22841  41.576  14.821   0.874
54624W        W22842   0.722  37.049   3.606
54625W        W22843  38.170  40.285  10.799
54626W        W22844   5.075  34.514  10.263
54627W        W22845  29.651  19.820  12.651
54628W        W22846  23.557  24.702  12.838
54629W        W22847   5.497   2.801   2.806
54630W        W22848  14.594   7.362  13.401
54631W        W22849   7.761  34.403   4.601
54632W        W22850   5.384  12.373   4.058
54633W        W22851  30.506  29.738   3.890
54634W        W22852   9.726  39.441  14.407
54635W        W22853  11.240  29.123   4.027
54636W        W22854  27.972   1.067  10.334
54637W        W22855  34.565  41.097   0.944
54638W        W22856  33.366   1.888   2.589
54639W        W22857  17.782   0.664   1.812
54640W        W22858  10.945  18.147   1.204
54641W        W22859   9.398  41.511  10.762
54642W        W22860  42.415   4.676   1.653
54643W        W22861  31.905  23.056  11.662
54644W        W22862  35.717  27.172  12.542
54645W        W22863  39.101   1.246  12.137
54646W        W22864  41.883  23.946   0.505
54647W        W22865  10.830  22.759  13.615
54648W        W22866  18.256  31.339  11.249
54649W        W22867  28.962   5.861  10.712
54650W        W22868  17.022   3.844   3.576
54651W        W22869   7.747  17.446   2.315
54652W        W22870  20.636  15.867  12.089
54653W        W22871  17.703  34.049   3.622
54654W        W22872  42.484  32.067  13.449
54655W        W22873  34.727  37.746  11.943
54656W        W22874  32.382   2.763   1.245
54657W        W22875  37.784  40.818   0.379
54658W        W22876  43.772   6.394   2.308
54659W        W22877  39.067   6.833  14.294
54660W        W22878  17.634  44.758   0.786
54661W        W22879  32.367  10.375  10.013
54662W        W22880  17.585  25.004   3.064
54663W        W22881  21.541  25.053  13.120
54664W        W22882  15.290  20.852   2.830
54665W        W22883  39.848  20.999  11.571
54666W        W22884   6.198  36.496  12.964
54667W        W22885  17.295   1.843   5.015
54668W        W22886  22.185  27.265   0.514
54669W        W22887  25.164  41.913  12.450
54670W        W22888   2.198  26.659  12.793
54671W        W22889  12.500   8.260   1.327
54672W        W22890  13.163  28.777   4.111
54673W        W22891   6.686  22.034  14.502
54674W        W22892  22.664  39.832  14.351
54675W        W22893  27.313  31.967  13.422
54676W        W22894  28.668  11.568  11.982
54677W        W22895  18.023  19.340   0.892
54678W        W22896   6.181   0.747  13.695
54679W        W22897  30.164   0.289  13.835
54680W        W22898  30.532  27.907  14.783
54681W        W22899  42.438  30.520  13.812
54682W        W22900  11.087  10.851   1.860
54683W        W22901  17.652  38.030  10.531
54684W        W22902  10.188   9.808   1.412
54685W        W22903   8.215  30.221  11.820
54686W        W22904  38.320  44.793   3.780
54687W        W22905   6.898   6.351   4.160
54688W        W22906  21.358  16.625  10.061
54689W        W22907  35.974  16.639   4.113
54690W        W22908   4.266  39.103   1.175
54691W        W22909  10.139  17.036  11.264
54692W        W22910  25.387   6.100  14.042
54693W        W22911   3.324   9.899   3.793
54694W        W22912   1.201   0.647   2.398
54695W        W22913  34.296  23.089  11.146
54696W        W22914   9.682  19.077   1.030
54697W        W22915  39.480  13.233  10.788
54698W        W22916  37.424  31.454   2.091
54699W        W22917  35.473   1.207  12.136
54700W        W22918  40.382  30.281  13.613
54701W        W22919  30.130   8.129  11.616
54702W        W22920  26.543  34.688  10.967
54703W        W22921  18.048  24.124   1.452
54704W        W22922  27.154  10.641   0.308
54705W        W22923  13.575  40.250   0.249
54706W        W22924  14.031  35.021  13.936
54707W        W22925  24.628  32.551  14.090
54708W        W22926  31.391  33.424  14.569
54709W        W22927  33.351  30.039   0.409
54710W        W22928  35.386  25.676   0.023
54711W        W22929  43.519  42.411   2.324
54712W        W22930  21.828  15.834  11.247
54713W        W22931  10.228  17.817   0.920
54714W        W22932  41.957  21.193   2.631
54715W        W22933  29.117  12.130  13.779
54716W        W22934   3.474  39.142  11.875
54717W        W22935  36.084  10.382  11.625
54718W        W22936  25.980  14.989  11.220
54719W        W22937   6.365   5.740  10.562
54720W        W22938  20.985  15.340   3.203
54721W        W22939  38.866   3.026   2.942
54722W        W22940   1.125   2.824  11.144
54723W        W22941  19.982  24.629  13.946
54724W        W22942  13.344  37.591  14.814
54725W        W22943  36.334  40.439   3.865
54726W        W22944  22.060  36.949   3.633
54727W        W22945  21.659   7.850  11.139
54728W        W22946  32.865  15.241  14.922
54729W        W22947  39.373  30.984   2.019
54730W        W22948  10.747  42.099   0.934
54731W        W22949  27.003  28.182   2.767
54732W        W22950  22.059   1.459   0.915
54733W        W22951   7.926  29.433  12.475
54734W        W22952  30.058  30.490  14.958
54735W        W22953  19.751  15.669  14.758
54736W        W22954   7.449   0.558  11.156
54737W        W22955  21.337  15.688  10.651
54738W        W22956  11.377  29.078  11.963
54739W        W22957   8.230   5.756  13.541
54740W        W22958  26.506   9.344  14.025
54741W        W22959  11.818  27.673   5.243
54742W        W22960  13.678  37.828   2.828
54743W        W22961  32.653  39.941   4.542
54744W        W22962  33.761  25.052  11.731
54745W        W22963  12.267  15.588  11.145
54746W        W22964  10.876  23.159   4.577
54747W        W22965  26.301  25.204  13.948
54748W        W22966  12.422  13.538  13.628
54749W        W22967  30.104  13.730  11.156
54750W        W22968   5.192  39.855   1.726
54751W        W22969   3.287  34.164   2.231
54752W        W22970  13.102  11.688   2.848
54753W        W22971  31.485   1.782   0.544
54754W        W22972   7.140  19.671  11.711
54755W        W22973  37.612  25.184  13.029
54756W        W22974   6.761   4.690   0.406
54757W        W22975  35.939  16.163   0.511
54758W        W22976   4.660  24.105   0.831
54759W        W22977   5.903  27.950  11.403
54760W        W22978  43.321  10.361  14.748
54761W        W22979  17.062  44.980  10.601
54762W        W22980  31.554  37.534  14.925
54763W        W22981  28.898  39.569  10.514
54764W        W22982   1.348  40.067   2.053
54765W        W22983  15.679  28.099  11.015
54766W        W22984  16.543   9.314   4.849
54767W        W22985   2.703  26.598  12.852
54768W        W22986  37.439  12.074   4.608
54769W        W22987  27.163   9.463   2.631
54770W        W22988  44.508  38.318  14.183
54771W        W22989  30.961  11.166  12.417
54772W        W22990  39.959  41.087   1.741
54773W        W22991  17.431  41.839  13.897
54774W        W22992  39.772  41.470   2.362
54775W        W22993  40.445  30.155  13.117
54776W        W22994   4.873  25.435  12.068
54777W        W22995   7.838  30.606   3.206
54778W        W22996  34.441  28.572   0.113
54779W        W22997  27.745  25.957   2.767
54780W        W22998   9.094  25.132  12.064
54781W        W22999  44.552  28.020  12.052
54782W        W23000  34.860  32.884   3.137
54783W        W23001  22.082  39.552   0.789
54784W        W23002  23.311  42.058   1.872
54785W        W23003  24.124  34.211   0.543
54786W        W23004  14.850  41.338   2.282
54787W        W23005   0.871  20.520  11.155
54788W        W23006  32.368  40.243   3.617
54789W        W23007  35.507  22.048   5.005
54790W        W23008  38.029  24.922  13.291
54791W        W23009  15.756  22.015  11.634
54792W        W23010  18.204  19.060  10.903
54793W        W23011   8.055  18.556   9.824
54794W        W23012  10.646  31.626  11.687
54795W        W23013   2.330   7.107   0.953
54796W        W23014   9.738   0.726   4.303
54797W        W23015  37.315   7.857   3.780
54798W        W23016  30.125  10.208   2.229
54799W        W23017  19.453   7.388   2.343
54800W        W23018  41.301  42.765  13.848
54801W        W23019  39.084  15.750  12.075
54802W        W23020   7.237  29.416   4.444
54803W        W23021  30.479  44.327   0.835
54804W        W23022  16.632  14.231   3.338
54805W        W23023  37.958  43.019   2.908
54806W        W23024   4.449  41.619  14.444
54807W        W23025  37.995  20.048   2.899
54808W        W23026   6.409  39.931  10.192
54809W        W23027  16.439  29.095   1.333
54810W        W23028  27.475  36.867  11.150
54811W        W23029   3.531   6.544  12.554
54812W        W23030  22.324  44.432  14.748
54813W        W23031  13.289   5.887  14.134
54814W        W23032  17.292  31.688   0.572
54815W        W23033  21.229  12.007   0.438
54816W        W23034  20.625  10.780   0.906
54817W        W23035  10.922  21.510   0.176
54818W        W23036  23.300  43.806  13.005
54819W        W23037  37.901   2.445  14.328
54820W        W23038  28.585  36.112  12.428
54821W        W23039   8.323  44.800   0.318
54822W        W23040   4.320  18.809  12.584
54823W        W23041  29.056  24.645   1.236
54824W        W23042  29.275  32.997  11.054
54825W        W23043  35.617  37.855  13.878
54826W        W23044  25.441  31.899  12.056
54827W        W23045  13.587  15.075   3.511
54828W        W23046  32.204   7.209  11.832
54829W        W23047  11.488  40.298   5.064
54830W        W23048  23.468   6.229  13.811
54831W        W23049  42.439  38.433   3.133
54832W        W23050  22.561  13.152   2.705
54833W        W23051  37.011   1.498  10.789
54834W        W23052  29.723  36.091   2.815
54835W        W23053  10.901  24.516  13.818
54836W        W23054  28.480  23.282   1.649
54837W        W23055  22.594  40.035  10.909
54838W        W23056  30.892  36.523   3.299
54839W        W23057  14.573  25.155   5.151
54840W        W23058   0.033  35.042  13.909
54841W        W23059   0.954  25.529  10.673
54842W        W23060  15.927  42.392  13.320
54843W        W23061  25.410  26.815   4.184
54844W        W23062  44.996  25.067   0.491
54845W        W23063  27.466   1.051  13.412
54846W        W23064   4.837   3.512   4.229
54847W        W23065  22.590   9.926   0.937
54848W        W23066   5.898   4.736  14.577
54849W        W23067  21.806  32.017   3.786
54850W        W23068  26.510  36.271   2.473
54851W        W23069  29.708  13.113   4.552
54852W        W23070  35.078   5.980  10.128
54853W        W23071   0.542  44.912   2.253
54854W        W23072  17.720  23.484  14.864
54855W        W23073  20.081  11.723  10.892
54856W        W23074  32.174  29.208  10.736
54857W        W23075  14.028  44.343   1.117
54858W        W23076  17.583  30.898   2.322
54859W        W23077  21.491   2.613   4.099
54860W        W23078  28.449  21.813  12.601
54861W        W23079  32.984   7.676   4.422
54862W        W23080   4.205  33.645  10.684
54863W        W23081  30.643  10.331  12.952
54864W        W23082   5.400  30.668   1.402
54865W        W23083   9.897  41.590  14.810
54866W        W23084  36.138   7.437  13.506
54867W        W23085   0.359   7.386   2.615
54868W        W23086   0.476   9.360   1.936
54869W        W23087  32.211  21.904  10.114
54870W        W23088  39.777  25.513   1.600
54871W        W23089   2.308  15.203  14.817
54872W        W23090  44.520  14.571  12.930
54873W        W23091   5.725  25.325  14.784
54874W        W23092  27.008  14.092   2.125
54875W        W23093  41.471   7.678  10.498
54876W        W23094  30.303  22.059  12.938
54877W        W23095  22.753  34.843   0.789
54878W        W23096  12.255  37.108  12.871
54879W        W23097  38.006  27.895  11.214
54880W        W23098  32.218  25.655   4.643
54881W        W23099   2.707  24.127   3.750
54882W        W23100  41.958  43.083  13.316
54883W        W23101  15.251  19.187  11.558
54884W        W23102  10.387  23.009  13.771
54885W        W23103  32.125  19.317  14.010
54886W        W23104  35.315  40.013   4.535
54887W        W23105  17.719  18.172   1.872
54888W        W23106  31.873   7.605  10.593
54889W        W23107  43.254   8.337   1.804
54890W        W23108  37.409  18.883  12.640
54891W        W23109  28.172  34.958   0.518
54892W        W23110  20.980  24.214   3.798
54893W        W23111  13.823  38.255   3.746
54894W        W23112  10.135  22.923  12.781
54895W        W23113  28.594  36.411  14.052
54896W        W23114   6.958  24.540  10.551
54897W        W23115  12.110  42.491   1.839
54898W        W23116  36.465  40.706   1.049
54899W        W23117  42.808  35.454   0.067
54900W        W23118  21.051  20.091  14.340
54901W        W23119   8.767   1.718  13.555
54902W        W23120   6.108  44.864  13.447
54903W        W23121  17.835  14.374  11.280
54904W        W23122  28.439  44.079   4.429
54905W        W23123  20.038   9.228  14.412
54906W        W23124  30.493  10.163  11.616
54907W        W23125   4.921  24.643   3.260
54908W        W23126  27.480  13.562   3.363
54909W        W23127  20.038  13.283  11.474
54910W        W23128  18.629   3.600  10.753
54911W        W23129  31.621  19.254   1.068
54912W        W23130   9.145  10.776   1.396
54913W        W23131  14.802  22.772  13.287
54914W        W23132  21.155  16.137  11.731
54915W        W23133  34.958  40.448  12.057
54916W        W23134   5.581  16.615   4.985
54917W        W23135   2.212   3.637   2.274
54918W        W23136  33.937  30.724  14.401
54919W        W23137  17.694  13.241   3.907
54920W        W23138  23.668  12.292  11.028
54921W        W23139  43.553  38.297  13.005
54922W        W23140  13.056  38.749   0.272
54923W        W23141   1.759  32.877  13.638
54924W        W23142  34.136  10.595  14.659
54925W        W23143   5.737  13.581  14.256
54926W        W23144  43.188  37.720  12.470
54927W        W23145  43.848  15.053   3.304
54928W        W23146  16.678  28.354  13.415
54929W        W23147  38.111   2.350  11.067
54930W        W23148  26.997  24.349  14.327
54931W        W23149  34.282  36.636  12.135
54932W        W23150  15.491  20.306  12.363
54933W        W23151  22.493   9.289   1.719
54934W        W23152  11.711  44.862   4.423
54935W        W23153   0.162  11.901   0.398
54936W        W23154  44.934   5.599   4.483
54937W        W23155  25.406  39.312  14.032
54938W        W23156  23.925  10.159   3.696
54939W        W23157  43.345  36.302  11.887
54940W        W23158   9.346  41.011   2.150
54941W        W23159  40.058  21.890   2.185
54942W        W23160  22.334  43.990  10.468
54943W        W23161  28.576   8.697  10.040
54944W        W23162  27.283  16.625   3.181
54945W        W23163  16.359  29.171  11.321
54946W        W23164  32.938   8.262   3.714
54947W        W23165  39.863  24.542  11.955
54948W        W23166  33.524   5.744   2.401
54949W        W23167  12.342  38.306  12.371
54950W        W23168  16.687   2.524  11.039
54951W        W23169  44.961  19.768   2.577
54952W        W23170  28.988  35.495  13.759
54953W        W23171  19.190  35.438   1.240
54954W        W23172  20.057  39.406   2.700
54955W        W23173   6.808  18.765   0.523
54956W        W23174  34.591  15.530   2.093
54957W        W23175  41.263  32.410   4.588
54958W        W23176   2.469  29.495  13.038
54959W        W23177  10.889  14.321  14.611
54960W        W23178  29.568   0.853   1.691
54961W        W23179  22.610  38.848   1.010
54962W        W23180   5.889  13.313   4.213
54963W        W23181  29.525  36.387  13.793
54964W        W23182  25.017  44.871   0.661
54965W        W23183  32.014  10.790   0.914
54966W        W23184  27.330  35.025   0.699
54967W        W23185  25.132  30.031  13.056
54968W        W23186  16.634  22.218  14.960
54969W        W23187   5.686  16.201   4.656
54970W        W23188  21.914  38.432  12.566
54971W        W23189  36.549  29.912  11.595
54972W        W23190  43.041  30.288  11.192
54973W        W23191  17.580  19.216  13.642
54974W        W23192   5.446  38.669  12.100
54975W        W23193  17.040  12.748  14.976
54976W        W23194   2.757  30.874  14.285
54977W        W23195  24.647   0.893   4.302
54978W        W23196  24.774   1.034   2.798
54979W        W23197  34.520  12.857   0.844
54980W        W23198  40.333   5.475  13.830
54981W        W23199  30.562   2.495  10.181
54982W        W23200  25.533  41.412   3.840
54983W        W23201  35.558  35.041  11.150
54984W        W23202  10.262  27.867  14.768
54985W        W23203  11.378  39.106  13.994
54986W        W23204  43.234  36.309  13.847
54987W        W23205  12.274  24.752   3.300
54988W        W23206  19.787   4.961   1.724
54989W        W23207  30.921   4.312  12.002
54990W        W23208  34.953  34.103   1.834
54991W        W23209  12.799  30.045  13.298
54992W        W23210  32.618   4.844   0.673
54993W        W23211  42.094  21.088   4.081
54994W        W23212   7.683  31.636   1.384
54995W        W23213  43.408  21.812  11.601
54996W        W23214  27.380  43.334   1.829
54997W        W23215  41.232   2.236  14.909
54998W        W23216   5.026   1.088  11.183
54999W        W23217  12.650  19.650  14.645
55000W        W23218   2.731  17.648   2.160
55001W        W23219   2.482  19.529   3.821
55002W        W23220  15.997  22.876  14.793
55003W        W23221  25.626  36.330  14.819
55004W        W23222  36.269   4.480  11.252
55005W        W23223  26.564  26.843   0.107
55006W        W23224  34.675  40.346   0.587
55007W        W23225  43.579  19.074  12.168
55008W        W23226  31.919  31.520  13.700
55009W        W23227  35.136  40.755  10.671
55010W        W23228  11.459  23.399   0.022
55011W        W23229  30.039  35.825  12.182
55012W        W23230  42.980  38.436  10.809
55013W        W23231  21.115  36.145  14.395
55014W        W23232  30.684  17.041  11.897
55015W        W23233  16.806   9.419   1.879
55016W        W23234  38.406  34.167   4.183
55017W        W23235  18.280  24.074   0.384
55018W        W23236  42.304  27.563   1.791
55019W        W23237   7.138  36.097  10.719
55020W        W23238  25.484  11.664  14.861
55021W        W23239  29.211  23.395   5.393
55022W        W23240  29.831  40.744  14.064
55023W        W23241  20.125  11.398   4.150
55024W        W23242  16.182  17.769  12.867
55025W        W23243   4.936  19.132   4.011
55026W        W23244   9.264  17.014  13.273
55027W        W23245   2.034   5.764  14.294
55028W        W23246  17.852   4.095  12.993
55029W        W23247  30.577  38.875  13.545
55030W        W23248  22.209  15.641   0.540
55031W        W23249  37.445  18.797   2.799
55032W        W23250  37.301  30.635   1.553
55033W        W23251  31.160  18.709   1.625
55034W        W23252  13.811  27.714  14.385
55035W        W23253  14.763  26.963  14.851
55036W        W23254  39.931   5.222   4.517
55037W        W23255  26.495  37.416  13.787
55038W        W23256   3.824  18.125   2.879
55039W        W23257  10.811  11.692   3.978
55040W        W23258   6.763   8.143   3.423
55041W        W23259   0.396  18.765   3.181
55042W        W23260  24.360  43.997   2.130
55043W        W23261  26.486  31.422  11.289
55044W        W23262  25.448   2.854  12.043
55045W        W23263  13.843  41.341  12.766
55046W        W23264   7.451  13.534  12.376
55047W        W23265  21.025  23.285   2.766
55048W        W23266  38.085   8.749  13.252
55049W        W23267  19.197  36.136   4.933
55050W        W23268  41.503   5.669   4.646
55051W        W23269  29.147   4.397   3.602
55052W        W23270   3.497  31.540  10.555
55053W        W23271  29.444  39.825  13.892
55054W        W23272   9.405  30.031  11.513
55055W        W23273   3.766  13.412   2.891
55056W        W23274  20.027  43.294   1.827
55057W        W23275  43.003   9.437   1.391
55058W        W23276  27.792  44.925  14.337
55059W        W23277  29.532   5.414  12.755
55060W        W23278  27.472  32.985   4.084
55061W        W23279  37.920  34.119   3.563
55062W        W23280  22.209   9.206  14.446
55063W        W23281  14.306   2.425   0.210
55064W        W23282  39.395  34.456   0.954
55065W        W23283  31.054  16.825   4.580
55066W        W23284   1.231  44.873  10.564
55067W        W23285  28.075  27.346  12.929
55068W        W23286  29.544  27.970   0.832
55069W        W23287   9.260  10.999  13.684
55070W        W23288   9.596  34.243  13.491
55071W        W23289  24.855  27.432   3.552
55072W        W23290  22.678  22.978   2.750
55073W        W23291  31.064   4.895   3.664
55074W        W23292  38.339  19.734   0.481
55075W        W23293  28.838  26.817  11.096
55076W        W23294   4.958   1.202   3.476
55077W        W23295  31.518   1.214   1.820
55078W        W23296  43.896  15.407   0.812
55079W        W23297   5.163   6.785  13.434
55080W        W23298  17.131  28.606  11.098
55081W        W23299  36.553  39.082   3.918
55082W        W23300   0.538  12.056  13.282
55083W        W23301  30.781  16.246  14.786
55084W        W23302  15.572  28.115  12.404
55085W        W23303  29.158   0.447   3.636
55086W        W23304  16.247  18.193   4.162
55087W        W23305  22.576   8.682   5.079
55088W        W23306  16.789   2.426   4.597
55089W        W23307  35.074  21.384   1.093
55090W        W23308  16.229  43.791  10.292
55091W        W23309  20.602  15.678  13.924
55092W        W23310  30.481  21.245  11.334
55093W        W23311  42.651  42.833   1.897
55094W        W23312  33.590  28.754   2.334
55095W        W23313   6.174  32.662   0.812
55096W        W23314  25.166  24.289   0.015
55097W        W23315   9.713   2.488  14.466
55098W        W23316   8.589  20.244  14.455
55099W        W23317  19.183  44.949   3.778
55100W        W23318  27.897   8.190  12.930
55101W        W23319  31.121  37.654  13.163
55102W        W23320  30.549   6.083  10.758
55103W        W23321   0.383  40.496   3.668
55104W        W23322  30.949   1.300   1.385
55105W        W23323  21.485  15.154   1.930
55106W        W23324  30.027  29.511  10.780
55107W        W23325  23.482   3.016   3.190
55108W        W23326  16.756  21.713  14.389
55109W        W23327   8.465  36.152   2.830
55110W        W23328   1.676  12.748   0.011
55111W        W23329  40.066  29.691  12.270
55112W        W23330  28.048  18.577   2.207
55113W        W23331  43.488  29.642   3.635
55114W        W23332   1.699  23.707  14.091
55115W        W23333  10.424  39.238   0.723
55116W        W23334   7.487  14.371  10.720
55117W        W23335  11.658  33.675   0.927
55118W        W23336  33.684  20.828   4.113
55119W        W23337   8.625  35.990  13.500
55120W        W23338  23.535  17.780  14.010
55121W        W23339  23.809  37.272  11.447
55122W        W23340  20.232  12.709   0.902
55123W        W23341  28.777  38.033  13.517
55124W        W23342  14.103  11.223   4.118
55125W        W23343  36.178  28.658   4.634
55126W        W23344  27.211  11.601  10.247
55127W        W23345  21.368  38.939   2.921
55128W        W23346   5.431   1.047  10.711
55129W        W23347  41.831  15.460  12.154
55130W        W23348  40.475  32.639   1.043
55131W        W23349  15.150   0.074   3.746
55132W        W23350  28.462  17.756   2.369
55133W        W23351  42.416  15.614  11.055
55134W        W23352   5.214  42.896  11.492
55135W        W23353  21.419   5.255  14.822
55136W        W23354  10.713  15.069   0.405
55137W        W23355   3.652   5.195  11.053
55138W        W23356  28.339  44.703   0.016
55139W        W23357  26.621  31.321   4.553
55140W        W23358  19.965  37.102  12.481
55141W        W23359  38.079  40.043   2.901
55142W        W23360  11.732  40.565   4.679
55143W        W23361   7.640  28.563   3.436
55144W        W23362  17.499  32.000  13.821
55145W        W23363   4.154  12.810  12.489
55146W        W23364  13.189  19.809   2.782
55147W        W23365  18.809  25.567   2.135
55148W        W23366   9.851  39.200  14.974
55149W        W23367  25.701   8.248   3.324
55150W        W23368  13.660  33.789  14.413
55151W        W23369  18.117  40.644   4.910
55152W        W23370   8.688  15.997   4.550
55153W        W23371   3.118  26.917   2.376
55154W        W23372  19.309  23.947  13.527
55155W        W23373  11.147  40.331   2.647
55156W        W23374  28.611   4.740  11.500
55157W        W23375  21.730  41.016  11.595
55158W        W23376   3.731   1.240   1.343
55159W        W23377  42.775  39.126  12.439
55160W        W23378   7.339  37.343   2.415
55161W        W23379  22.360   8.793   0.243
55162W        W23380  40.830  37.350  14.910
55163W        W23381  34.159  16.975   1.438
55164W        W23382  26.619  44.068  11.439
55165W        W23383  13.924  42.005   4.630
55166W        W23384   8.299  14.811  10.766
55167W        W23385  41.662  11.109   2.738
55168W        W23386   3.309   8.709  12.818
55169W        W23387  12.666  29.065   4.001
55170W        W23388   2.242  13.608   0.205
55171W        W23389  29.510  36.568   4.097
55172W        W23390  44.069   2.235  11.039
55173W        W23391  43.832  42.814   2.240
55174W        W23392  27.846   0.026   3.160
55175W        W23393  27.283  36.451  12.753
55176W        W23394  22.147  17.824   0.291
55177W        W23395  23.719   2.931  14.859
55178W        W23396  28.614  11.235   4.569
55179W        W23397  24.687  15.793  13.359
55180W        W23398   0.653  35.997   2.789
55181W        W23399  18.055   1.932   4.524
55182W        W23400  10.251  41.707   0.207
55183W        W23401  10.390   5.902   3.689
55184W        W23402  23.541  19.493   3.358
55185W        W23403   3.716  40.698  12.372
55186W        W23404  34.912  24.489  13.772
55187W        W23405  19.544  19.117  10.958
55188W        W23406  36.237  33.560   2.292
55189W        W23407  12.093  43.665  14.986
55190W        W23408  35.543  38.926  13.386
55191W        W23409  22.988   1.534  12.087
55192W        W23410   9.538  22.111   2.278
55193W        W23411  20.765  26.091   0.447
55194W        W23412  27.464  17.386  11.596
55195W        W23413  28.854  27.656  10.788
55196W        W23414  22.096   9.810   4.583
55197W        W23415  25.721  15.663   0.385
55198W        W23416  18.663  37.407   1.888
55199W        W23417  33.994  15.072  12.026
55200W        W23418  35.568  35.673  14.067
55201W        W23419  20.419  13.330  14.817
55202W        W23420  34.576   5.927  11.370
55203W        W23421  11.765  25.964  14.465
55204W        W23422  14.104  32.959   0.460
55205W        W23423  23.785  35.917  12.068
55206W        W23424   7.930   6.629  12.013
55207W        W23425  38.654  11.255  13.035
55208W        W23426  15.746  34.461   4.639
55209W        W23427  19.545  43.345  14.964
55210W        W23428  27.233  20.170   3.854
55211W        W23429  38.439  15.056   2.868
55212W        W23430  29.252   8.352  11.674
55213W        W23431  31.673  13.560  13.355
55214W        W23432  22.158   3.473  13.310
55215W        W23433  28.153  19.305  14.782
55216W        W23434  40.593  13.835  11.637
55217W        W23435   5.703  32.872  14.106
55218W        W23436  28.404  20.577  11.667
55219W        W23437  35.391  37.944  11.650
55220W        W23438   3.984  16.989   4.643
55221W        W23439  40.338  28.304   1.200
55222W        W23440   1.773  39.859  14.984
55223W        W23441   5.729  13.691  13.291
55224W        W23442  19.391  34.672   1.935
55225W        W23443  10.351  15.427  11.971
55226W        W23444  18.912  31.015  13.386
55227W        W23445  14.826  36.469   0.894
55228W        W23446  24.727  34.593  13.897
55229W        W23447  42.701  15.637  13.860
55230W        W23448  39.091  35.931   9.883
55231W        W23449   7.801  40.778  11.208
55232W        W23450  39.575   9.238  13.901
55233W        W23451  21.932  18.720  11.618
55234W        W23452  36.034   4.308   3.559
55235W        W23453   8.172  29.488  11.645
55236W        W23454  37.800  42.242   0.457
55237W        W23455  18.882  33.358  13.041
55238W        W23456  36.940  34.118  11.700
55239W        W23457  18.789   6.910   4.751
55240W        W23458   9.775   3.435  13.662
55241W        W23459   4.687  22.593   2.241
55242W        W23460  12.925   5.180   1.927
55243W        W23461  17.603  20.562  12.398
55244W        W23462  22.722   9.258  11.591
55245W        W23463  32.029  25.747  11.080
55246W        W23464  23.507  34.931   1.459
55247W        W23465  36.094  13.795   3.476
55248W        W23466  20.801  41.350  14.773
55249W        W23467   3.760  21.694   4.603
55250W        W23468  31.998  37.127  13.051
55251W        W23469  21.124  37.347   4.983
55252W        W23470   9.919   7.941   2.267
55253W        W23471  13.245   9.597  11.520
55254W        W23472  14.673  29.937   2.895
55255W        W23473  23.132   3.724  14.990
55256W        W23474   0.953  24.584   1.359
55257W        W23475  24.470  30.965   3.396
55258W        W23476  13.104  30.694  10.563
55259W        W23477  29.598  36.073   3.874
55260W        W23478   9.224  24.141  13.462
55261W        W23479  34.198  22.259  13.115
55262W        W23480  29.166  43.477  11.028
55263W        W23481   5.234  10.089   3.694
55264W        W23482  43.399   4.643   2.749
55265W        W23483  14.182  19.247   4.385
55266W        W23484  35.486   5.510   3.263
55267W        W23485  29.544  38.452   4.969
55268W        W23486  12.823  40.039   3.603
55269W        W23487   8.341  21.932   4.204
55270W        W23488  10.008  28.412   1.903
55271W        W23489   2.994  43.341  14.346
55272W        W23490  35.975   1.760   3.416
55273W        W23491   3.216  34.532   4.589
55274W        W23492   3.962   0.831   0.379
55275W        W23493  28.421  40.907   3.186
55276W        W23494  15.949  15.738  11.830
55277W        W23495  26.537  33.585   0.498
55278W        W23496  17.297  16.798   0.941
55279W        W23497  32.391   0.297  13.505
55280W        W23498  17.538  32.331  13.410
55281W        W23499  44.043  31.918   3.274
55282W        W23500  29.055  23.686  13.907
55283W        W23501  16.453  31.617  11.767
55284W        W23502  20.219  40.996   3.779
55285W        W23503   4.622  23.088   2.824
55286W        W23504  34.856  31.984  13.030
55287W        W23505  20.068  27.101   3.573
55288W        W23506  16.655  44.770  13.989
55289W        W23507  42.888  10.655   0.030
55290W        W23508  39.407   4.536   2.292
55291W        W23509  26.198  36.817  12.095
55292W        W23510  34.131  29.615   3.186
55293W        W23511  13.275  39.568   0.774
55294W        W23512   4.753   9.418   1.701
55295W        W23513  17.602  15.808  12.421
55296W        W23514  10.788   1.776   3.052
55297W        W23515  16.316  37.888   4.911
55298W        W23516   7.490  29.213   4.866
55299W        W23517  10.340  34.702   1.807
55300W        W23518  12.132  12.633  14.078
55301W        W23519  31.093  40.849   2.163
55302W        W23520   9.283  32.733  13.036
55303W        W23521  16.851  16.752   3.264
55304W        W23522  35.527  17.537   4.065
55305W        W23523   0.541   7.187  11.462
55306W        W23524   4.953  24.433  13.866
55307W        W23525  43.482  35.469  11.298
55308W        W23526  15.381  27.694   4.159
55309W        W23527  15.702  17.409   2.376
55310W        W23528  28.009  36.400  10.706
55311W        W23529   8.689   2.000   0.068
55312W        W23530  19.491  34.296  12.017
55313W        W23531   6.654  14.768   4.545
55314W        W23532  39.986  41.522  14.835
55315W        W23533  26.425  33.350   0.062
55316W        W23534  13.466  33.865   2.382
55317W        W23535  30.848  26.061   2.116
55318W        W23536   8.651  26.761   2.164
55319W        W23537  37.024   2.379   2.592
55320W        W23538  42.866  10.224  13.294
55321W        W23539  17.501   0.914  12.884
55322W        W23540  23.232  44.290  13.929
55323W        W23541   6.810  29.190  13.009
55324W        W23542  32.557  17.237   4.283
55325W        W23543  29.165  41.550   1.353
55326W        W23544  25.830  44.680  11.526
55327W        W23545   2.937  16.245   0.924
55328W        W23546   2.945  36.119   2.709
55329W        W23547   9.628  24.163   0.875
55330W        W23548  15.227  15.868  12.467
55331W        W23549  38.948  36.084   4.024
55332W        W23550  11.676  10.703  14.372
55333W        W23551   7.382  27.973   1.728
55334W        W23552  10.656  23.341  14.311
55335W        W23553  11.280   5.761  13.847
55336W        W23554   4.530  18.108   1.743
55337W        W23555  24.191  12.391  14.897
55338W        W23556  41.037   6.850   4.109
55339W        W23557  33.061  43.107   2.885
55340W        W23558   7.316  44.399   1.303
55341W        W23559  21.938  20.573  12.812
55342W        W23560  31.039   7.453  10.774
55343W        W23561  14.287   6.160   3.373
55344W        W23562  38.557   0.050   2.625
55345W        W23563  10.428   0.727   4.226
55346W        W23564   5.235   2.453   3.720
55347W        W23565  12.557  43.914   5.046
55348W        W23566   5.884  31.496  12.845
55349W        W23567  30.095  36.662   0.601
55350W        W23568  39.349   2.982   3.186
55351W        W23569  43.429   8.618  14.506
55352W        W23570  16.920  35.544   5.037
55353W        W23571   0.919  39.984   1.702
55354W        W23572  25.947   8.754  14.014
55355W        W23573   4.491  25.188  12.385
55356W        W23574  15.678  21.523  14.105
55357W        W23575  24.890  26.046  11.815
55358W        W23576   8.102   6.384   0.438
55359W        W23577  14.719  18.091  12.389
55360W        W23578  25.989  21.769   4.482
55361W        W23579  24.008  15.611   5.034
55362W        W23580  21.763  35.971   0.188
55363W        W23581   1.880  15.294  12.001
55364W        W23582  17.029  44.885  12.426
55365W        W23583   4.882   7.759   1.034
55366W        W23584  35.729  38.621  14.363
55367W        W23585  32.137  39.322  11.920
55368W        W23586  20.752  42.706   2.585
55369W        W23587  12.045  20.654  12.914
55370W        W23588   9.182   7.448  12.065
55371W        W23589   5.432   9.374  11.346
55372W        W23590  35.273  24.582   4.693
55373W        W23591   8.124  20.707  12.471
55374W        W23592   8.692  38.937  10.199
55375W        W23593  27.823   3.905   0.440
55376W        W23594  12.154   3.775   0.408
55377W        W23595  25.249  38.586  13.377
55378W        W23596  41.969  14.911   3.217
55379W        W23597  41.922   8.777   4.636
55380W        W23598  30.148  30.592  13.388
55381W        W23599   2.485  37.468  14.524
55382W        W23600   5.781   5.795  11.214
55383W        W23601   9.088  37.512  12.953
55384W        W23602  28.117  32.240   3.520
55385W        W23603   9.296  22.296   2.848
55386W        W23604  10.329  41.916  13.920
55387W        W23605  42.006  30.884   2.759
55388W        W23606  34.347  41.358  12.181
55389W        W23607  15.527  38.781   3.669
55390W        W23608  11.766  33.177  14.852
55391W        W23609   6.174  16.586  14.169
55392W        W23610  16.760   0.210   1.946
55393W        W23611  20.976   3.691   1.463
55394W        W23612   8.701  25.157  10.805
55395W        W23613  22.576  28.199   1.824
55396W        W23614  18.860  21.620  13.445
55397W        W23615  34.915  30.700  14.423
55398W        W23616  44.940  41.526  13.504
55399W        W23617  34.444  20.107   0.310
55400W        W23618  10.093  30.461   3.630
55401W        W23619  39.346  10.353  14.536
55402W        W23620  22.281  15.549  10.481
55403W        W23621  28.676  12.626   1.339
55404W        W23622  19.989  10.557  14.232
55405W        W23623  40.964   1.899  10.742
55406W        W23624  38.400   9.995  10.545
55407W        W23625  18.527  42.994   4.457
55408W        W23626  12.826  20.247   4.525
55409W        W23627   0.818  30.345  11.220
55410W        W23628  14.262   9.756   1.136
55411W        W23629   0.997  42.258   2.156
55412W        W23630  27.951   0.378  11.676
55413W        W23631  12.472   9.888   1.736
55414W        W23632  42.617  43.291   1.370
55415W        W23633  10.534  11.366   1.563
55416W        W23634  42.485  12.964   2.823
55417W        W23635   3.689  36.864  10.455
55418W        W23636   0.453   2.190  12.820
55419W        W23637  42.861  26.155   3.633
55420W        W23638  33.804   3.380  11.761
55421W        W23639  30.826   2.703  12.461
55422W        W23640  26.412  41.025   4.708
55423W        W23641  28.396   9.487  14.885
55424W        W23642  40.793   1.785   5.135
55425W        W23643  35.402  15.617  11.569
55426W        W23644  37.251  13.871  11.418
55427W        W23645  17.311  39.874   3.206
55428W        W23646  17.670  27.107  11.677
55429W        W23647  43.334  12.261   0.929
55430W        W23648  17.268  17.748  10.976
55431W        W23649  12.682  41.965   3.065
55432W        W23650  38.016  41.335   3.280
55433W        W23651  12.339   8.863   3.818
55434W        W23652  29.657  31.337   0.436
55435W        W23653  29.788  33.035  11.038
55436W        W23654   2.386  43.501  13.475
55437W        W23655  21.235  29.096  11.295
55438W        W23656  33.507  26.754   1.184
55439W        W23657  32.805  16.079  11.678
55440W        W23658  25.109  30.598   4.283
55441W        W23659  25.543   6.148   4.398
55442W        W23660  29.160   2.893  12.237
55443W        W23661  24.442  14.282  12.065
55444W        W23662  37.041   5.733   4.811
55445W        W23663   2.822  13.593  12.044
55446W        W23664   4.715  15.821  14.492
55447W        W23665  26.488  40.895   2.430
55448W        W23666   3.009  19.072  12.219
55449W        W23667  42.491  43.252  11.221
55450W        W23668  34.948  29.671  14.377
55451W        W23669  14.822   8.672   2.223
55452W        W23670  10.341   1.930  14.896
55453W        W23671  18.692   5.362   3.969
55454W        W23672  25.479   6.913   2.662
55455W        W23673  25.209  16.824  12.003
55456W        W23674  37.988   9.165  11.502
55457W        W23675  42.488  30.980   1.258
55458W        W23676  19.709  30.623  13.922
55459W        W23677  42.023   9.629   3.729
55460W        W23678   1.339  33.691   4.642
55461W        W23679  26.088  44.995   1.405
55462W        W23680  29.453  20.466  11.652
55463W        W23681  23.571  43.297   1.250
55464W        W23682  17.069  41.975   0.851
55465W        W23683   6.414  23.099   4.206
55466W        W23684  20.389  12.636  14.474
55467W        W23685  17.311  18.339   4.135
55468W        W23686  29.670   9.374   0.972
55469W        W23687  13.898  30.124  13.959
55470W        W23688  11.600  17.119   2.762
55471W        W23689  28.948  10.109   0.882
55472W        W23690   5.713  22.479  11.652
55473W        W23691  15.347   8.156  12.710
55474W        W23692  41.829  11.622  14.014
55475W        W23693  20.673   3.749   1.863
55476W        W23694  25.197  38.340  10.838
55477W        W23695   3.042  35.773  12.059
55478W        W23696  23.583  26.658  10.393
55479W        W23697   4.327  44.070  10.339
55480W        W23698  36.664   1.292   0.748
55481W        W23699  19.994  40.068  13.880
55482W        W23700  25.927  26.737  11.586
55483W        W23701  20.453  25.565  13.860
55484W        W23702  21.915  19.668  13.544
55485W        W23703  24.514  44.925  11.254
55486W        W23704   2.844   6.619  10.901
55487W        W23705  31.673  41.467  12.378
55488W        W23706   7.293   3.521  12.126
55489W        W23707  15.804  34.466   3.239
55490W        W23708  37.237   6.777   0.416
55491W        W23709  33.675  37.480   1.733
55492W        W23710  14.234   6.092  10.600
55493W        W23711   5.436  29.206   3.294
55494W        W23712  41.278   5.885  10.898
55495W        W23713  32.110  13.748  13.148
55496W        W23714  30.509  39.758   1.391
55497W        W23715  22.646  37.299  11.575
55498W        W23716  19.279  14.788   2.888
55499W        W23717  29.735  17.821  10.548
55500W        W23718  37.868   6.316  11.395
55501W        W23719  15.771  18.113  11.015
55502W        W23720  42.857  16.323   4.472
55503W        W23721  40.132  21.832   3.120
55504W        W23722  43.353  15.786  11.127
55505W        W23723  34.430  31.420  11.980
55506W        W23724  33.068  34.668   0.610
55507W        W23725   7.322  25.733  13.401
55508W        W23726  42.737   3.904  12.416
55509W        W23727  14.567   9.442   4.241
55510W        W23728   0.928  15.597   1.321
55511W        W23729  38.827  14.361  10.962
55512W        W23730  20.557  27.229   3.716
55513W        W23731  12.806   1.347   0.359
55514W        W23732  33.883  26.394  10.331
55515W        W23733  25.591  39.280   1.339
55516W        W23734  38.723  36.183   3.576
55517W        W23735  11.762  30.951   3.553
55518W        W23736   8.466  18.044   0.560
55519W        W23737  24.984   4.845   2.446
55520W        W23738   1.434  25.268  14.791
55521W        W23739   1.395  26.083   3.668
55522W        W23740   8.298  33.934  12.525
55523W        W23741   6.093   6.200   3.824
55524W        W23742  26.963   0.899   1.963
55525W        W23743  42.962   7.800  14.575
55526W        W23744  28.353  35.462  11.063
55527W        W23745  17.997   5.878   0.768
55528W        W23746  30.519  38.786  11.893
55529W        W23747  20.035  27.114   4.632
55530W        W23748  13.104  32.360  12.949
55531W        W23749   8.053  34.745  13.817
55532W        W23750   6.294  11.877  14.761
55533W        W23751   6.493   2.666   3.674
55534W        W23752  11.497  13.419   4.564
55535W        W23753  39.079   1.783  12.161
55536W        W23754   1.621  33.693  13.250
55537W        W23755  13.765  11.256  11.854
55538W        W23756   5.447  22.641   2.679
55539W        W23757  36.771   7.773   4.624
55540W        W23758  34.315  43.567  11.688
55541W        W23759  40.326  32.415  12.992
55542W        W23760  31.675  26.801   2.242
55543W        W23761   6.875  28.124  14.923
55544W        W23762  30.531  40.174   0.102
55545W        W23763  20.527  37.890  14.491
55546W        W23764   1.521  31.571   1.304
55547W        W23765  30.933  43.922   0.379
55548W        W23766  21.603  29.425  13.256
55549W        W23767  25.487  20.677   1.381
55550W        W23768   5.808   3.913  14.062
55551W        W23769  41.846   8.869  12.556
55552W        W23770   3.874  36.121  14.359
55553W        W23771  13.247  33.544   0.229
55554W        W23772  22.687   1.357  11.179
55555W        W23773  42.999  41.940   4.239
55556W        W23774  11.363  38.097  11.638
55557W        W23775  16.047  10.781  10.804
55558W        W23776  29.641   4.559  12.204
55559W        W23777  12.769  15.531   3.451
55560W        W23778  41.328   1.362  13.364
55561W        W23779  13.492   8.826  10.804
55562W        W23780  14.259  18.870  11.248
55563W        W23781  32.985  17.786   4.756
55564W        W23782  36.851   1.331   4.275
55565W        W23783  15.044  21.151   0.717
55566W        W23784  32.092  36.649   1.511
55567W        W23785  36.375   4.990   0.770
55568W        W23786  20.103  44.920   0.189
55569W        W23787  41.288  35.360   2.713
55570W        W23788  14.820  26.107   0.430
55571W        W23789  35.844   4.345  10.334
55572W        W23790  42.615  31.066   2.104
55573W        W23791  40.057  10.173   0.979
55574W        W23792   7.152  42.061   0.148
55575W        W23793  22.942  26.087  14.006
55576W        W23794  35.490   7.923   4.545
55577W        W23795  44.924  43.934   1.291
55578W        W23796   0.047   7.275   3.664
55579W        W23797  14.712  20.008   3.124
55580W        W23798   8.156  26.026  13.518
55581W        W23799   1.682  18.145  14.360
55582W        W23800  37.615  36.037   0.754
55583W        W23801  31.868  18.261   2.158
55584W        W23802  12.169  31.848   1.735
55585W        W23803  39.070  15.696  13.501
55586W        W23804  12.265   5.623  12.833
55587W        W23805  13.203   2.042   2.640
55588W        W23806  27.463  14.348  10.681
55589W        W23807  42.103  24.006   3.670
55590W        W23808   6.966  31.022   3.561
55591W        W23809  13.053  29.501   2.394
55592W        W23810  36.101   3.527  12.208
55593W        W23811  43.248  31.632  14.582
55594W        W23812  15.676  26.539   4.554
55595W        W23813  20.289  25.785  14.766
55596W        W23814  19.691  11.135   4.214
55597W        W23815  36.497  20.303  12.598
55598W        W23816  40.854  24.962   3.778
55599W        W23817   9.644  44.294  14.884
55600W        W23818  17.294  40.975   3.870
55601W        W23819   9.622  25.059   3.227
55602W        W23820  35.650  28.232   0.406
55603W        W23821  30.035  20.771   4.378
55604W        W23822   9.393   9.736   4.527
55605W        W23823  27.780   4.501  11.559
55606W        W23824  26.078  43.763   3.213
55607W        W23825   2.540  43.362   3.395
55608W        W23826  34.450  36.220  14.450
55609W        W23827  31.876  16.271  14.820
55610W        W23828  27.588  14.478   4.482
55611W        W23829   6.662  12.172  10.782
55612W        W23830  29.060   9.084   4.053
55613W        W23831  12.652  20.697   2.772
55614W        W23832  28.101  31.032  11.401
55615W        W23833  44.793  41.964   1.933
55616W        W23834  27.616  21.661   0.999
55617W        W23835   8.466  16.635  10.777
55618W        W23836  11.697   2.699  11.404
55619W        W23837  10.940  14.079  14.147
55620W        W23838   6.323   2.148  10.689
55621W        W23839   5.700   6.771   2.359
55622W        W23840  32.502  41.003   0.330
55623W        W23841   0.784  35.962  13.389
55624W        W23842  31.972  10.425   1.401
55625W        W23843  14.185   1.908  12.049
55626W        W23844  44.889  42.447  10.814
55627W        W23845   9.753   8.829  11.540
55628W        W23846  20.718  32.487  14.964
55629W        W23847  29.153   5.337  10.936
55630W        W23848  32.999  25.505   2.285
55631W        W23849  32.851  41.432   1.391
55632W        W23850  12.283  36.293  12.021
55633W        W23851  25.190  13.915  10.276
55634W        W23852  44.858  26.181   0.122
55635W        W23853  27.403  32.334   3.265
55636W        W23854   8.237  42.944  11.447
55637W        W23855  11.957  19.790  11.055
55638W        W23856   5.179  15.263  10.622
55639W        W23857   3.722  30.126   4.500
55640W        W23858  36.613  35.550  14.899
55641W        W23859  10.735  25.493   3.779
55642W        W23860  33.003  30.575  12.843
55643W        W23861  17.748   8.301  10.644
55644W        W23862  25.459   4.800  10.939
55645W        W23863   1.377  31.649   0.780
55646W        W23864  43.495  41.325  10.711
55647W        W23865  20.694  43.390   3.924
55648W        W23866  11.397  29.595  12.589
55649W        W23867  32.167  16.791   1.780
55650W        W23868  39.869   0.868  11.512
55651W        W23869  31.207   1.905   2.931
55652W        W23870  20.283   4.681   2.612
55653W        W23871  22.200  31.126   3.497
55654W        W23872   9.342  34.222   4.071
55655W        W23873  24.732  44.297   5.052
55656W        W23874  26.703  31.827   3.792
55657W        W23875  38.389   4.814   4.213
55658W        W23876  27.932  31.416   1.223
55659W        W23877  14.343   6.616   3.683
55660W        W23878  37.789  31.393   2.923
55661W        W23879  17.284   0.472   3.282
55662W        W23880  39.510  24.060  10.625
55663W        W23881  34.054  33.271   3.811
55664W        W23882  37.141   4.649  11.084
55665W        W23883  20.756  39.726  14.446
55666W        W23884  27.985  27.556  14.375
55667W        W23885  38.366  38.573  10.388
55668W        W23886  41.376  34.948   1.972
55669W        W23887  44.334  10.205  13.754
55670W        W23888  24.561  33.398   0.754
55671W        W23889  11.197  21.462  11.012
55672W        W23890  30.037  43.470   3.195
55673W        W23891  25.339  22.016  13.434
55674W        W23892  36.395  40.618  12.145
55675W        W23893   6.820   4.912  14.943
55676W        W23894  13.589  25.092  10.682
55677W        W23895  33.394   2.112   3.060
55678W        W23896  33.092  34.963   1.026
55679W        W23897  41.332  34.277   2.765
55680W        W23898  22.032  26.517   4.329
55681W        W23899  36.078  42.432   4.605
55682W        W23900  11.865  11.422  14.892
55683W        W23901   7.444  34.407  14.447
55684W        W23902  17.731  10.981  14.517
55685W        W23903  18.770  16.826   0.880
55686W        W23904  30.079  31.334   1.770
55687W        W23905  11.318   1.176   3.386
55688W        W23906  14.836  11.214   3.542
55689W        W23907  30.696  35.580   4.071
55690W        W23908  39.143  43.049   0.827
55691W        W23909  31.885  41.471   4.077
55692W        W23910   5.182   4.341  13.030
55693W        W23911  21.153  26.601   1.358
55694W        W23912  37.834  30.878   1.908
55695W        W23913  35.320   0.363   4.865
55696W        W23914  11.174  38.360  11.100
55697W        W23915  37.078   0.990   0.791
55698W        W23916   8.232  36.172   1.475
55699W        W23917  25.479  38.179   0.296
55700W        W23918  40.826  19.531  10.339
55701W        W23919  30.678  22.728   4.425
55702W        W23920  20.220  34.565  12.016
55703W        W23921  43.917  30.916  10.560
55704W        W23922  34.029  30.964   1.199
55705W        W23923  37.139   1.933   1.113
55706W        W23924  21.968  42.109   3.724
55707W        W23925   7.121   7.171   4.440
55708W        W23926  12.142  38.692  11.392
55709W        W23927  42.781  31.603   2.859
55710W        W23928  33.006  32.506   1.695
55711W        W23929  10.628  30.893  12.843
55712W        W23930  29.081   2.837   1.918
55713W        W23931  36.052  33.741   1.278
55714W        W23932  19.251   4.261   2.103
55715W        W23933  25.928  18.762  14.831
55716W        W23934  38.917  34.645   0.629
55717W        W23935  29.068  21.918  11.511
55718W        W23936  15.700  14.385  10.878
55719W        W23937  44.211  13.816   4.437
55720W        W23938  29.390   3.832   2.769
55721W        W23939  12.757   7.485   4.875
55722W        W23940  25.249   5.150  12.113
55723W        W23941  29.547  23.297  14.275
55724W        W23942   6.240   3.889  14.377
55725W        W23943   1.393  44.165   2.328
55726W        W23944  14.047   0.836   0.472
55727W        W23945  21.210   1.762  10.567
55728W        W23946  43.820  34.095  11.863
55729W        W23947  44.567  15.635   4.573
55730W        W23948   4.955  27.923  13.423
55731W        W23949  39.940  43.524  10.661
55732W        W23950   4.322  36.085   3.880
55733W        W23951   8.589   5.653  11.070
55734W        W23952  32.500  36.384   1.267
55735W        W23953  14.336   6.685  10.552
55736W        W23954  43.859  30.648  11.003
55737W        W23955   4.738  12.215  10.648
55738W        W23956  25.762  37.873   4.416
55739W        W23957   7.231   5.289  11.867
55740W        W23958  24.513  25.688  10.189
55741W        W23959  39.132  20.101  13.351
55742W        W23960  12.699   8.419  12.912
55743W        W23961  39.544  16.036   0.486
55744W        W23962  22.103  42.256   4.607
55745W        W23963  16.330  39.445  10.628
55746W        W23964  19.408  26.677  10.676
55747W        W23965  25.121  30.501  14.255
55748W        W23966   0.727  15.320   4.298
55749W        W23967  15.940  12.877   4.921
55750W        W23968  24.771   5.195   3.629
55751W        W23969  20.508   7.264  10.690
55752W        W23970  25.535  15.355   4.193
55753W        W23971  27.772  40.464  12.854
55754W        W23972  12.366  12.048  12.671
55755W        W23973  32.448  26.953   1.271
55756W        W23974  13.746  15.232  10.588
55757W        W23975  41.444  24.205  12.152
55758W        W23976  10.663  30.090  11.035
55759W        W23977  23.164   4.499  14.269
55760W        W23978  17.136   1.990  10.656
55761W        W23979  40.320  10.748  14.501
55762W        W23980  27.942  34.081   1.456
55763W        W23981  16.945  15.222  10.362
55764W        W23982  27.894  33.591   1.257
55765W        W23983  12.561  44.963   1.774
55766W        W23984   1.539  30.171  10.784
55767W        W23985  10.437  10.298   1.150
55768W        W23986  22.937   7.779   2.709
55769W        W23987   4.391   2.088   4.135
55770W        W23988   3.815  43.804   3.775
55771W        W23989  30.892  17.601   2.169
55772W        W23990  19.027  35.641  11.184
55773W        W23991  32.695  22.650   0.802
55774W        W23992  12.903  43.732  12.939
55775W        W23993   4.456  44.496   1.785
55776W        W23994  28.024  29.898  13.940
55777W        W23995   2.217   1.229   4.633
55778W        W23996  29.883   2.942  14.429
55779W        W23997  11.162  38.775  14.380
55780W        W23998  34.559  11.603   2.406
55781W        W23999  44.456  35.338   3.753
55782W        W24000  18.109  38.136  10.831
55783W        W24001  40.817  11.871   0.773
55784W        W24002  11.550  17.928   3.791
55785W        W24003  34.025  11.267  12.123
55786W        W24004  41.811  35.895  11.714
55787W        W24005  30.910  26.499  11.689
55788W        W24006  14.364  21.577   0.893
55789W        W24007   8.559   9.538   0.889
55790W        W24008  10.841  40.730  11.538
55791W        W24009  32.550  44.493  13.940
55792W        W24010  31.624  20.993  10.600
55793W        W24011  13.002   0.259   1.367
55794W        W24012  19.556  42.352  14.822
55795W        W24013  19.323  12.928   4.970
55796W        W24014  35.834  10.179   2.735
55797W        W24015  31.482   2.584  10.327
55798W        W24016  35.688  25.379   0.846
55799W        W24017  16.001  33.994  14.349
55800W        W24018   3.787  24.219   0.076
55801W        W24019  36.894   0.631  13.457
55802W        W24020  39.779  41.375  13.599
55803W        W24021  20.817  40.788   1.114
55804W        W24022  31.054  44.765  11.923
55805W        W24023   0.966  20.241   0.872
55806W        W24024  42.816  36.275  11.112
55807W        W24025   6.681  14.534   2.230
55808W        W24026  19.796  14.827  12.904
55809W        W24027  13.636  12.901  14.394
55810W        W24028  20.904  43.314   3.454
55811W        W24029  41.354  21.835   1.800
55812W        W24030  44.272  18.541  12.934
55813W        W24031   5.155  11.255  14.273
55814W        W24032  33.238  23.572  14.001
55815W        W24033  19.834  25.124   3.366
55816W        W24034   6.182  22.818   4.627
55817W        W24035  15.815  34.657   1.342
55818W        W24036  20.732  41.334  13.770
55819W        W24037  20.719  39.903   1.410
55820W        W24038  39.105  12.936   3.233
55821W        W24039  10.291  27.101   4.545
55822W        W24040   5.368  12.448  11.700
55823W        W24041   7.663  42.938   1.301
55824W        W24042  36.454  20.118  13.085
55825W        W24043  21.892  38.315   0.402
55826W        W24044  24.277   5.369   3.737
55827W        W24045  19.783  39.957   1.474
55828W        W24046  20.704  13.711   0.009
55829W        W24047   0.686   9.217  11.123
55830W        W24048  11.498  22.508  14.713
55831W        W24049  25.419  16.593  14.289
55832W        W24050  17.706  29.852  10.562
55833W        W24051  29.051   2.510  14.459
55834W        W24052  19.028  41.839  12.796
55835W        W24053  24.171   7.053   2.045
55836W        W24054  38.566  11.791   4.078
55837W        W24055   9.216  12.162  10.703
55838W        W24056  38.809  36.342   1.674
55839W        W24057   5.888  43.090  10.210
55840W        W24058  39.623  31.507   2.823
55841W        W24059  15.333  33.056  12.115
55842W        W24060   8.933  20.250   0.348
55843W        W24061  43.492  15.401  14.066
55844W        W24062  32.646  21.758  12.288
55845W        W24063  37.934   7.672  12.183
55846W        W24064  14.846   6.385   1.449
55847W        W24065  17.597  43.412   4.908
55848W        W24066  21.925   9.263   0.563
55849W        W24067  38.122  43.960   0.769
55850W        W24068  40.340  12.252  11.002
55851W        W24069  39.008  30.663  13.438
55852W        W24070   8.449  27.459   0.493
55853W        W24071  40.913  20.065   0.922
55854W        W24072   7.716  29.854   4.109
55855W        W24073  11.901  28.916  14.682
55856W        W24074  37.043  12.167   2.399
55857W        W24075  28.605  43.101   0.472
55858W        W24076   7.390   6.264   1.633
55859W        W24077  26.951  17.077   2.738
55860W        W24078  40.184   6.641   2.026
55861W        W24079  28.566   1.322  12.014
55862W        W24080  16.333   4.403  11.697
55863W        W24081  25.032  19.723   1.297
55864W        W24082  10.117  14.962  12.099
55865W        W24083  33.582  23.172   4.057
55866W        W24084  10.074  32.382   4.919
55867W        W24085  39.304   8.793  13.882
55868W        W24086  43.128  26.901   3.220
55869W        W24087  41.345   2.931  11.576
55870W        W24088  40.094  26.604  12.172
55871W        W24089  23.943  25.142  11.213
55872W        W24090  26.512  19.670  11.226
55873W        W24091   7.164  14.838  11.549
55874W        W24092   6.460  25.707  13.538
55875W        W24093  44.971  26.059  12.968
55876W        W24094  38.666   1.472   2.940
55877W        W24095   5.239   9.764  14.441
55878W        W24096  30.250  10.421  12.604
55879W        W24097  31.449  33.845   4.381
55880W        W24098  33.636  14.319   3.475
55881W        W24099   7.399  35.410  12.410
55882W        W24100   6.587  30.058   2.791
55883W        W24101  11.382  24.193   0.428
55884W        W24102   0.349  27.097   3.818
55885W        W24103   0.148  40.250  14.384
55886W        W24104   3.395   9.364   1.675
55887W        W24105  17.156   1.251  11.153
55888W        W24106   9.320  21.063   3.466
55889W        W24107  18.880  27.752  13.126
55890W        W24108  43.054  25.841   4.138
55891W        W24109  25.118   9.744  13.349
55892W        W24110   3.841  33.986   4.772
55893W        W24111   4.075  40.345   4.945
55894W        W24112  19.041  21.965  11.117
55895W        W24113  22.240  43.783  14.907
55896W        W24114   4.482  32.880   1.744
55897W        W24115   7.840  41.927   3.798
55898W        W24116  19.516  15.997   0.072
55899W        W24117  31.567  43.380  12.521
55900W        W24118  10.380   5.421   2.248
55901W        W24119  37.804   6.195   4.161
55902W        W24120   1.466  26.264  12.504
55903W        W24121  42.754  41.438  12.826
55904W        W24122  43.474  16.065  11.543
55905W        W24123  10.356  20.790   1.420
55906W        W24124   4.973   4.802  14.285
55907W        W24125   3.941  26.926  12.777
55908W        W24126  40.540  43.757  11.503
55909W        W24127  31.195  43.777   3.017
55910W        W24128   1.760  15.304   1.235
55911W        W24129  12.632  36.436   3.172
55912W        W24130   4.398  13.357   3.314
55913W        W24131   6.060  41.560   2.812
55914W        W24132  25.536  11.132   0.934
55915W        W24133  13.794   6.868  11.902
55916W        W24134   6.587  39.892   5.118
55917W        W24135   7.934  38.330   0.962
55918W        W24136  26.020  12.557   1.653
55919W        W24137  24.642  41.641   2.257
55920W        W24138  17.087  43.526  13.915
55921W        W24139  29.423  15.594  14.247
55922W        W24140   1.920  17.658   2.773
55923W        W24141  16.091   8.707  12.921
55924W        W24142  37.895   9.162  13.026
55925W        W24143  25.704   6.243  10.046
55926W        W24144   9.941   5.372  14.896
55927W        W24145  18.217  23.661   1.214
55928W        W24146  41.825  42.054   4.800
55929W        W24147  10.114  25.170   4.407
55930W        W24148  18.986  43.289   3.125
55931W        W24149   3.459   6.961  12.882
55932W        W24150   4.406  15.856   3.810
55933W        W24151  33.468  27.196   1.813
55934W        W24152  30.500  20.573  13.407
55935W        W24153  39.106  15.199  13.263
55936W        W24154   0.054  10.920  13.535
55937W        W24155  44.401  37.853  12.400
55938W        W24156   4.419   2.058   1.016
55939W        W24157  34.106  13.579  12.987
55940W        W24158  22.564  12.299   0.521
55941W        W24159  14.332  24.620   0.843
55942W        W24160  21.540  35.970   0.665
55943W        W24161  25.478  38.992   2.427
55944W        W24162  21.454  35.999  11.102
55945W        W24163  10.349  30.450  12.938
55946W        W24164   2.980  19.852   1.764
55947W        W24165  26.658  21.638   2.205
55948W        W24166  30.149  31.541   0.531
55949W        W24167  38.775  29.040   4.602
55950W        W24168  40.354  19.233  14.778
55951W        W24169   6.230  19.015   2.721
55952W        W24170   1.758   3.934   2.332
55953W        W24171   8.938  20.287  14.824
55954W        W24172  24.202   1.810   0.604
55955W        W24173   2.706  44.276  12.160
55956W        W24174  21.329  26.105   1.319
55957W        W24175  24.079  40.826  12.847
55958W        W24176  26.625  13.479   0.212
55959W        W24177  22.060   9.902   3.218
55960W        W24178  40.232  40.054  14.872
55961W        W24179   0.374  22.023  12.149
55962W        W24180   8.274   4.442   4.758
55963W        W24181  10.644  22.657   0.885
55964W        W24182  31.208  25.915  14.406
55965W        W24183   7.751  36.049  13.920
55966W        W24184   6.490  18.835  13.478
55967W        W24185  16.533  39.491  13.359
55968W        W24186   3.394  42.097   2.482
55969W        W24187  44.304  31.498  12.440
55970W        W24188   7.842  25.489   1.923
55971W        W24189  34.044  39.465  12.110
55972W        W24190  38.738  18.333  10.754
55973W        W24191   6.300   9.112   9.818
55974W        W24192   2.834  34.492  12.483
55975W        W24193  44.967  30.033  11.556
55976W        W24194  11.142  18.688  10.647
55977W        W24195  24.683  26.518   4.565
55978W        W24196  22.317   7.158  12.924
55979W        W24197  25.293   3.515  13.435
55980W        W24198  27.006   8.890   2.216
55981W        W24199  29.443  40.933   3.193
55982W        W24200  32.987  44.227  13.835
55983W        W24201   9.879   4.933   1.732
55984W        W24202  40.000  37.819   0.915
55985W        W24203  22.024   9.679  10.924
55986W        W24204  39.887  24.963   4.622
55987W        W24205  11.810  41.007   1.403
55988W        W24206  19.668  41.323   4.549
55989W        W24207  14.849  14.721  12.392
55990W        W24208  42.072  21.149   4.593
55991W        W24209  28.004  25.391   0.212
55992W        W24210  43.223   6.151  12.048
55993W        W24211  29.822   2.927  11.150
55994W        W24212  38.852  29.421   5.148
55995W        W24213  11.706  15.268   0.686
55996W        W24214  35.004  44.452   2.658
55997W        W24215  35.894  44.718  13.417
55998W        W24216  23.968  28.453  12.176
55999W        W24217  16.559  12.601   1.755
56000W        W24218  19.537   5.278  13.980
56001W        W24219  20.687  42.859   3.840
56002W        W24220   9.422  44.479  14.447
56003W        W24221   5.928  35.475   3.410
56004W        W24222   3.850  26.070  12.544
56005W        W24223  25.819   6.932   0.385
56006W        W24224  42.317  20.788  11.660
56007W        W24225  17.143   0.768   4.981
56008W        W24226  38.346  41.420   0.477
56009W        W24227  37.991  29.595   2.409
56010W        W24228   7.343  12.160   2.419
56011W        W24229  44.926  31.475  12.453
56012W        W24230  28.451  42.637   4.383
56013W        W24231  43.799  26.478  10.795
56014W        W24232  21.988  28.097  11.212
56015W        W24233  44.437  19.108   3.924
56016W        W24234  22.736  33.423   1.723
56017W        W24235  11.109  15.193  11.034
56018W        W24236  18.612  12.806  11.857
56019W        W24237  38.867   6.856   2.338
56020W        W24238   9.667  42.292  12.554
56021W        W24239  11.101  20.029   3.840
56022W        W24240  43.804  28.869   4.032
56023W        W24241  35.447  15.147  12.446
56024W        W24242   7.301  17.684  13.289
56025W        W24243  25.243  13.822  11.984
56026W        W24244  24.545  23.826  12.003
56027W        W24245  11.534  10.728  10.625
56028W        W24246  18.860  38.113   1.233
56029W        W24247  42.018  28.350  12.535
56030W        W24248  17.061  23.727   3.116
56031W        W24249  41.600  24.734   0.972
56032W        W24250  10.839   6.871   1.821
56033W        W24251  38.393   4.687  14.792
56034W        W24252  43.568   2.240   2.733
56035W        W24253   8.397   3.812  14.436
56036W        W24254  18.183  15.295  12.936
56037W        W24255  14.423   5.491   1.732
56038W        W24256   6.267  16.523  12.084
56039W        W24257  10.821  10.782  11.342
56040W        W24258   4.402   4.277  11.548
56041W        W24259  36.078  21.025  11.056
56042W        W24260  27.151  23.891   3.154
56043W        W24261  11.149   9.216   4.079
56044W        W24262  17.292  19.629  13.566
56045W        W24263  11.586  23.624  14.020
56046W        W24264  12.854  15.231  14.384
56047W        W24265  14.456  16.950   3.279
56048W        W24266  35.195  21.209  14.298
56049W        W24267  43.100  39.241   1.335
56050W        W24268  41.859  43.330  10.560
56051W        W24269  22.534   0.048   1.890
56052W        W24270  41.311  13.693   4.367
56053W        W24271  24.511   1.004   0.559
56054W        W24272   9.651  32.465   1.313
56055W        W24273  29.478  37.771  10.690
56056W        W24274  19.389   2.474  14.239
56057W        W24275   8.187  42.499  14.889
56058W        W24276   1.812  28.335  12.556
56059W        W24277  44.259  35.068  12.030
56060W        W24278  35.620  16.537   0.371
56061W        W24279  32.233  11.408  12.629
56062W        W24280  20.508  33.474   2.214
56063W        W24281  41.676  20.277   4.580
56064W        W24282  32.825  25.532   0.648
56065W        W24283  39.210  26.605   2.434
56066W        W24284  39.816   9.631   2.174
56067W        W24285  30.439  32.117  14.401
56068W        W24286  16.700  19.449  12.949
56069W        W24287  37.913  35.409  10.515
56070W        W24288  34.397  42.307  11.950
56071W        W24289  39.542  29.480  13.866
56072W        W24290  39.674  15.059   4.183
56073W        W24291  21.163  11.461   3.520
56074W        W24292  13.570   8.832  14.661
56075W        W24293  20.118   4.930   0.547
56076W        W24294   1.557  17.828   3.126
56077W        W24295  26.379  17.774   9.567
56078W        W24296  10.752  26.661  14.679
56079W        W24297  24.442   4.775  14.074
56080W        W24298  14.088  14.865  11.768
56081W        W24299  29.898  38.830   2.886
56082W        W24300  39.363  32.105  13.134
56083W        W24301   7.651  15.092  11.299
56084W        W24302   7.836  11.785  14.344
56085W        W24303  13.838   3.644  12.614
56086W        W24304  41.865   4.865   1.218
56087W        W24305  43.048  36.124   2.305
56088W        W24306  31.226  40.775   3.093
56089W        W24307  25.744  18.254  14.000
56090W        W24308  23.133  26.054   3.675
56091W        W24309  15.565  44.905  14.486
56092W        W24310  36.398  19.267   4.791
56093W        W24311  11.269  33.677  11.637
56094W        W24312  18.849  12.732   4.581
56095W        W24313  19.638  25.954   0.734
56096W        W24314  17.291  33.126   0.376
56097W        W24315  17.557  24.923   4.206
56098W        W24316  39.828  33.752   0.850
56099W        W24317   1.334   5.713  11.925
56100W        W24318  24.193  24.122  14.965
56101W        W24319  38.410  39.602   1.402
56102W        W24320  24.988  33.028  14.896
56103W        W24321   7.262   6.240  14.754
56104W        W24322   2.041  41.359  11.679
56105W        W24323  21.264  41.337  13.944
56106W        W24324  34.401  33.589   0.451
56107W        W24325  10.946  28.394   2.351
56108W        W24326   3.679  22.376   2.114
56109W        W24327  39.426  19.588  12.199
56110W        W24328   0.177  20.782  12.882
56111W        W24329  17.580  16.557   4.688
56112W        W24330  44.408  44.022   0.388
56113W        W24331  42.841   6.937  13.228
56114W        W24332  20.999   1.248  13.787
56115W        W24333  26.045  30.372   2.208
56116W        W24334   8.072  17.585  10.904
56117W        W24335  12.683  35.520  13.511
56118W        W24336  37.936  17.226  12.553
56119W        W24337   7.023  10.564  11.683
56120W        W24338  33.602  22.586   0.780
56121W        W24339  41.920  31.419   1.873
56122W        W24340  10.849  30.372  10.636
56123W        W24341  33.105  31.901   4.739
56124W        W24342  10.657  14.022   4.712
56125W        W24343  12.039  22.206  12.465
56126W        W24344  36.575  10.480  12.451
56127W        W24345  18.694  39.600   1.184
56128W        W24346  39.448  25.438   3.307
56129W        W24347  34.670   2.138  13.062
56130W        W24348   0.902   5.991  13.556
56131W        W24349   9.603  24.419   0.413
56132W        W24350  36.380  21.452  14.826
56133W        W24351   5.286   7.272  12.446
56134W        W24352  40.560  33.020  13.845
56135W        W24353  38.410  41.920  11.544
56136W        W24354  42.488   5.782  14.581
56137W        W24355  10.124  41.919   4.098
56138W        W24356  30.116  15.280   2.871
56139W        W24357  26.841  19.558   1.134
56140W        W24358  39.979  13.810   3.627
56141W        W24359  13.723  32.649   0.309
56142W        W24360  30.179  18.114   0.927
56143W        W24361   1.882  11.104  11.989
56144W        W24362  13.924  24.457  12.532
56145W        W24363  33.164  41.557  10.855
56146W        W24364  10.254   6.952   2.675
56147W        W24365  26.559  21.172  11.132
56148W        W24366   2.814  44.350   4.673
56149W        W24367  41.812   2.026   5.112
56150W        W24368   6.109   8.430   5.242
56151W        W24369  14.202  42.841  11.157
56152W        W24370  14.333   3.360   3.244
56153W        W24371  10.074  10.875  11.081
56154W        W24372  17.640   7.329   3.601
56155W        W24373  44.519   6.934   4.639
56156W        W24374  17.942  23.271   0.358
56157W        W24375  37.176   4.297   2.412
56158W        W24376  39.947  37.828   3.776
56159W        W24377   7.502  38.064  14.556
56160W        W24378   4.154  42.365   2.342
56161W        W24379   0.368  18.938  12.927
56162W        W24380  32.532  13.114   1.000
56163W        W24381  32.555  41.484  11.562
56164W        W24382  33.087  36.968   2.652
56165W        W24383  14.279  32.594   2.214
56166W        W24384  20.416  28.017  12.022
56167W        W24385   1.332   2.568   4.145
56168W        W24386  37.618   7.475  13.622
56169W        W24387   4.214  21.492  12.934
56170W        W24388  27.527  32.410  14.181
56171W        W24389  27.497  10.698   1.560
56172W        W24390  43.001  17.484  12.346
56173W        W24391  35.205  10.582  13.405
56174W        W24392  11.739   7.844   0.885
56175W        W24393  32.681  21.281  11.364
56176W        W24394  21.795  36.116  13.814
56177W        W24395  10.686   7.311   2.630
56178W        W24396  11.211  10.174   4.589
56179W        W24397   1.372  35.610   4.841
56180W        W24398  12.494  19.234   1.599
56181W        W24399  10.934  34.072   2.910
56182W        W24400   1.758  39.945  11.533
56183W        W24401  30.932   0.167   1.340
56184W        W24402  21.277  17.602  13.277
56185W        W24403  17.572   4.995  12.197
56186W        W24404  44.351  37.564  13.468
56187W        W24405  13.156  26.183  12.594
56188W        W24406  18.625  18.382  10.327
56189W        W24407   3.950  12.285  11.166
56190W        W24408  21.184  42.392   2.569
56191W        W24409   7.359  20.872   1.750
56192W        W24410   1.412  29.099   0.919
56193W        W24411   6.425  38.619  13.385
56194W        W24412  32.725  10.745  13.730
56195W        W24413  24.128  36.123   2.781
56196W        W24414  10.916  26.745  13.315
56197W        W24415  11.885  42.282  13.308
56198W        W24416   7.260  22.006   2.544
56199W        W24417  27.022  39.756   1.779
56200W        W24418  33.896  29.736   5.024
56201W        W24419   1.919   7.324   4.526
56202W        W24420  43.586  15.783   4.539
56203W        W24421  43.061  28.784  10.259
56204W        W24422  25.519  19.909   3.207
56205W        W24423   8.514  24.549   1.181
56206W        W24424  21.167  36.478   3.825
56207W        W24425  26.191  28.158  14.468
56208W        W24426   5.297  11.823   2.365
56209W        W24427   7.945  15.685  11.393
56210W        W24428   1.030  17.054   4.614
56211W        W24429   8.006   4.360   3.244
56212W        W24430  33.922  15.763   1.659
56213W        W24431  12.787   0.729  12.132
56214W        W24432  38.264  38.354   3.738
56215W        W24433  31.083  22.275   0.721
56216W        W24434  24.966  32.076  13.947
56217W        W24435   7.663  20.653   3.830
56218W        W24436  26.424  10.334  12.367
56219W        W24437  34.586  22.486  14.488
56220W        W24438  42.035  40.369  14.881
56221W        W24439   9.408   1.844   1.802
56222W        W24440  22.462  39.650  14.964
56223W        W24441  24.169  10.862  10.866
56224W        W24442  21.521  17.684  10.691
56225W        W24443  37.015  40.508  11.468
56226W        W24444  32.005  17.703   3.627
56227W        W24445  34.822  33.864   0.275
56228W        W24446  40.491  37.740   0.044
56229W        W24447   7.101  36.371   4.203
56230W        W24448   6.665   2.047   4.840
56231W        W24449   1.520   7.941   4.154
56232W        W24450   7.202  32.046  13.910
56233W        W24451  21.388  38.841   4.755
56234W        W24452  14.792  28.615   0.793
56235W        W24453  33.327   5.563  10.154
56236W        W24454  31.627  29.920  12.052
56237W        W24455   9.366  30.677   1.756
56238W        W24456   5.877  16.323   0.875
56239W        W24457  21.192  11.544  14.520
56240W        W24458  18.431   7.774  14.191
56241W        W24459   5.150  31.794  13.548
56242W        W24460  14.709  26.060  14.487
56243W        W24461  37.543  23.675  12.129
56244W        W24462   2.476  29.886   3.744
56245W        W24463   5.372  15.301  13.243
56246W        W24464   7.611  42.868  14.286
56247W        W24465  26.509  25.563   1.809
56248W        W24466  28.601  22.343   1.331
56249W        W24467  27.731   4.635   3.703
56250W        W24468   1.346  36.944   0.003
56251W        W24469   6.291   8.745  10.586
56252W        W24470  43.579  43.229   4.691
56253W        W24471  38.887  18.267   1.885
56254W        W24472  21.551  31.601   3.623
56255W        W24473  14.706  43.225   4.678
56256W        W24474  12.603  18.157  11.646
56257W        W24475  16.250  14.647  14.544
56258W        W24476  34.718  11.286   0.961
56259W        W24477  33.750  27.580  13.992
56260W        W24478  40.743  16.674   4.224
56261W        W24479  10.885  31.086   1.481
56262W        W24480  21.312   2.211   0.201
56263W        W24481  21.258   4.974   3.779
56264W        W24482  19.027  25.298   1.755
56265W        W24483  33.386   2.260  11.198
56266W        W24484  20.062   6.262   1.364
56267W        W24485  15.774  37.705  14.867
56268W        W24486  17.055  29.739   0.199
56269W        W24487  22.148  34.349   1.388
56270W        W24488  42.211  40.534   2.132
56271W        W24489  36.670   3.378   4.559
56272W        W24490   0.402  44.762   2.787
56273W        W24491  18.582   5.793   4.551
56274W        W24492   6.727  44.090   3.800
56275W        W24493  31.014   2.478  13.927
56276W        W24494  30.583  36.025   3.881
56277W        W24495  15.817  28.842  13.752
56278W        W24496  19.414  29.712   0.390
56279W        W24497   6.431  20.167   4.858
56280W        W24498   0.397  31.878   2.891
56281W        W24499  18.236  37.501  13.931
56282W        W24500  15.533  23.452   2.263
56283W        W24501  35.943  34.471  14.549
56284W        W24502  19.113  33.922  14.528
56285W        W24503  43.758  28.503  13.430
56286W        W24504  39.396   1.863   2.845
56287W        W24505  14.671  28.192   3.755
56288W        W24506   3.635  20.130  13.603
56289W        W24507   7.922  35.422  11.499
56290W        W24508   4.229  18.101   0.859
56291W        W24509  41.636  30.703   0.445
56292W        W24510  32.691   4.247   2.881
56293W        W24511  17.052  24.721   1.821
56294W        W24512  14.814   5.929  13.301
56295W        W24513  22.090   1.201  12.400
56296W        W24514  37.668  42.985   0.753
56297W        W24515  26.120   3.319   0.850
56298W        W24516  13.569  28.681   0.303
56299W        W24517  30.701   2.488   3.672
56300W        W24518  23.430   1.665   0.933
56301W        W24519  38.047  28.750   0.245
56302W        W24520   2.269  27.626  12.909
56303W        W24521  15.189  38.433  14.953
56304W        W24522   6.398  27.489   3.277
56305W        W24523   2.643  13.911  11.203
56306W        W24524   6.357  12.943   5.076
56307W        W24525  18.367  34.668  14.354
56308W        W24526  10.393  42.768  10.987
56309W        W24527  18.670  26.752   5.052
56310W        W24528  10.132  23.516   0.035
56311W        W24529  27.558  25.601  14.013
56312W        W24530   1.499  36.513  13.127
56313W        W24531  33.359  13.825   4.883
56314W        W24532  44.814  13.024   2.368
56315W        W24533  42.067  17.621  12.054
56316W        W24534  18.535   0.854  13.043
56317W        W24535  35.466  22.948   0.441
56318W        W24536   4.960  31.374  13.789
56319W        W24537  17.674   2.429  13.844
56320W        W24538   3.877  41.760  13.409
56321W        W24539   4.242  18.301  11.437
56322W        W24540  21.241  17.327   1.649
56323W        W24541   5.185  34.520  11.772
56324W        W24542   7.407  29.441  12.410
56325W        W24543  37.116  41.790   2.928
56326W        W24544  40.445  36.296   3.368
56327W        W24545   3.377  40.559  12.018
56328W        W24546   0.400  41.121  13.897
56329W        W24547  16.062   5.923  14.558
56330W        W24548  18.602  40.415   0.901
56331W        W24549  35.120  41.496   3.216
56332W        W24550  38.731   6.001   3.335
56333W        W24551   9.867   7.415   2.240
56334W        W24552   3.658  37.886  13.964
56335W        W24553  29.111  40.764   1.901
56336W        W24554   7.426  32.966  11.203
56337W        W24555  30.449   9.228   3.271
56338W        W24556  14.283  43.682  13.724
56339W        W24557  26.406  20.280   2.331
56340W        W24558  13.299  18.865   4.606
56341W        W24559  38.908  42.906   2.373
56342W        W24560   0.468  24.617   4.755
56343W        W24561  21.848   0.782  12.611
56344W        W24562   3.177   0.391   1.325
56345W        W24563  27.835  38.868   2.756
56346W        W24564  16.415   3.518  12.905
56347W        W24565  18.851  13.018  12.288
56348W        W24566  24.752   2.846  14.922
56349W        W24567  44.810  35.689   1.694
56350W        W24568  22.153  31.684   2.174
56351W        W24569  40.996   6.721  14.772
56352W        W24570   1.937  33.883   3.778
56353W        W24571  12.429   2.519  13.331
56354W        W24572  32.104  10.631  14.888
56355W        W24573  11.760  16.494  12.516
56356W        W24574  21.317  22.277  10.644
56357W        W24575  25.674   5.480  12.982
56358W        W24576  17.652  17.588   1.134
56359W        W24577  28.123  11.888   1.383
56360W        W24578   9.355  14.186   2.919
56361W        W24579  20.247  13.223   1.133
56362W        W24580  15.040  14.927  13.904
56363W        W24581  38.348  10.716   3.166
56364W        W24582  29.471  26.924   0.821
56365W        W24583   5.253   5.167   4.874
56366W        W24584  16.815   5.218  11.515
56367W        W24585  12.303   5.162  13.774
56368W        W24586   8.566  27.600  13.028
56369W        W24587   4.677  30.094   1.379
56370W        W24588   8.164  44.486   0.746
56371W        W24589  31.171   5.933   4.513
56372W        W24590  26.575  37.572   0.849
56373W        W24591  17.125  34.558   1.807
56374W        W24592  26.498  40.972   2.948
56375W        W24593  42.854   2.684   2.940
56376W        W24594  22.775   0.513   3.202
56377W        W24595  24.627  37.409   2.264
56378W        W24596  14.640  10.404  10.253
56379W        W24597   7.829  12.212   1.355
56380W        W24598  41.040   8.637  13.908
56381W        W24599  28.593  34.479   2.140
56382W        W24600  31.843  27.264   2.408
56383W        W24601  32.552  22.542   1.296
56384W        W24602  17.736  13.722  14.821
56385W        W24603  35.092  43.719   4.877
56386W        W24604   0.170  30.197   1.250
56387W        W24605   7.212  31.659   0.746
56388W        W24606  34.371  15.653  12.569
56389W        W24607  33.933  21.523  11.136
56390W        W24608  36.564  44.059  14.746
56391W        W24609  23.483  32.829  10.563
56392W        W24610   7.992  13.649  11.200
56393W        W24611  40.901  21.055   1.983
56394W        W24612  39.866  40.571  13.474
56395W        W24613  41.222  42.121  13.438
56396W        W24614  30.436   9.381   2.564
56397W        W24615  43.103   5.537  11.135
56398W        W24616  15.745  14.384  11.907
56399W        W24617  21.736   1.492  14.938
56400W        W24618  22.984   6.690  10.754
56401W        W24619  24.180  40.456   2.655
56402W        W24620  14.416  25.772   3.291
56403W        W24621  20.027  18.629   3.946
56404W        W24622  20.985  11.810   3.118
56405W        W24623  34.379  31.904  12.830
56406W        W24624  31.497  33.541  11.435
56407W        W24625  25.882  28.602   2.392
56408W        W24626  33.144  14.329   3.602
56409W        W24627  37.367  24.072  14.629
56410W        W24628  42.410  21.188   2.880
56411W        W24629  20.825  31.168  13.506
56412W        W24630  37.399   8.836  13.843
56413W        W24631  14.689   6.185  12.829
56414W        W24632  37.885  25.760  13.000
56415W        W24633   9.161  28.423  12.979
56416W        W24634  35.267  36.131  14.739
56417W        W24635  28.533  24.152   1.755
56418W        W24636  27.061  15.343  14.484
56419W        W24637  43.399  28.494  12.666
56420W        W24638  43.950  29.231   1.802
56421W        W24639  41.181  38.939   1.828
56422W        W24640  17.164  33.432   5.267
56423W        W24641  24.633  15.818   3.933
56424W        W24642  32.423  29.532   3.552
56425W        W24643  36.026  34.240   1.092
56426W        W24644  24.474   9.877   4.118
56427W        W24645  28.087  15.811   3.615
56428W        W24646  35.032  42.518   4.354
56429W        W24647  44.929   6.229   0.209
56430W        W24648   6.052  31.389   2.739
56431W        W24649   3.521   1.851   0.577
56432W        W24650   5.815  18.211  11.950
56433W        W24651   2.079  23.569   1.219
56434W        W24652  16.310  40.515  14.160
56435W        W24653   0.251  18.090   4.187
56436W        W24654  31.970  24.671   2.825
56437W        W24655  30.515  18.914  14.217
56438W        W24656  37.499  18.561  13.565
56439W        W24657  10.151  35.086   0.845
56440W        W24658   4.473  26.201  14.913
56441W        W24659  40.407  24.991  12.416
56442W        W24660  20.101  35.901   0.862
56443W        W24661  37.485  27.149   3.329
56444W        W24662  28.074  30.120   1.502
56445W        W24663  37.105  37.391  12.505
56446W        W24664  35.126  15.984  11.884
56447W        W24665   3.715  20.067   3.673
56448W        W24666  34.958  44.742  13.291
56449W        W24667  12.024  30.442   0.930
56450W        W24668  40.337   4.919  12.976
56451W        W24669  34.530  30.135  11.221
56452W        W24670  43.662  32.726   2.948
56453W        W24671   6.974   4.848   4.012
56454W        W24672  16.501  31.634   4.106
56455W        W24673  34.880   4.964  13.015
56456W        W24674  18.855  38.015  12.511
56457W        W24675  14.273   6.009  14.029
56458W        W24676  31.016  24.440  12.789
56459W        W24677  24.653  15.700   0.383
56460W        W24678  29.495  44.101   1.520
56461W        W24679  37.656  24.519  13.225
56462W        W24680  26.048  42.231   1.387
56463W        W24681  31.871  32.868  11.147
56464W        W24682  39.911  27.680   1.860
56465W        W24683  13.090   1.610   2.224
56466W        W24684  29.017  25.848  13.078
56467W        W24685  20.004  43.763   1.444
56468W        W24686  12.350  44.194  13.952
56469W        W24687   4.568   6.448   0.537
56470W        W24688  33.166   1.497   1.418
56471W        W24689  29.995  27.172  11.135
56472W        W24690  30.045  16.381  12.019
56473W        W24691   8.398  32.951   2.303
56474W        W24692   2.691  36.993   3.494
56475W        W24693  42.483  27.263   2.837
56476W        W24694  19.549  36.666  14.212
56477W        W24695  30.368  13.671   2.549
56478W        W24696  37.321  35.018  12.090
56479W        W24697  42.777  37.938  14.372
56480W        W24698  18.295  25.541  14.980
56481W        W24699  33.450  21.012  10.153
56482W        W24700  14.250  30.099  12.237
56483W        W24701  41.394  33.980  11.920
56484W        W24702  28.622  23.570  11.138
56485W        W24703  31.201  10.347   2.843
56486W        W24704  41.499  15.483  12.580
56487W        W24705  12.683  34.867  12.872
56488W        W24706  27.976  41.531   1.455
56489W        W24707  23.520  28.884  13.743
56490W        W24708  22.624  20.634  12.878
56491W        W24709  29.951  14.439  12.481
56492W        W24710  33.491  22.906   4.527
56493W        W24711   5.181  12.561   2.688
56494W        W24712  10.418   2.356  11.705
56495W        W24713  36.158  10.653  11.102
56496W        W24714  19.470  24.089   4.548
56497W        W24715  44.019  20.035  14.291
56498W        W24716   1.344  33.374  11.531
56499W        W24717  40.477  20.889   3.187
56500W        W24718  14.013  12.835  12.542
56501W        W24719  43.477  23.007  13.382
56502W        W24720  38.371  41.329  12.046
56503W        W24721  11.616  19.990   3.709
56504W        W24722   0.792   6.139  12.515
56505W        W24723  44.955  18.863   2.562
56506W        W24724   4.423  37.862   4.215
56507W        W24725  32.915  21.537  14.375
56508W        W24726  28.749   0.788   3.565
56509W        W24727  23.156  27.536   2.449
56510W        W24728  43.485  28.019   1.434
56511W        W24729  23.651  10.884  14.462
56512W        W24730   7.179   7.478  12.459
56513W        W24731  34.784   3.700  12.379
56514W        W24732   3.762  19.775   3.241
56515W        W24733  35.826  25.126   1.325
56516W        W24734   5.952  39.923   3.214
56517W        W24735  28.795  23.462  13.516
56518W        W24736   0.523  18.797  14.087
56519W        W24737  26.674  32.053   1.446
56520W        W24738  20.849  30.594  12.400
56521W        W24739  43.131  37.080   4.720
56522W        W24740  27.457  17.123  14.842
56523W        W24741  26.056  34.109  14.599
56524W        W24742  42.482  11.274   3.138
56525W        W24743  41.558  31.425  11.950
56526W        W24744  20.114  44.419   0.410
56527W        W24745  17.005  11.097   3.306
56528W        W24746   4.924   7.594   1.507
56529W        W24747   8.628  43.918  12.533
56530W        W24748   1.393  29.166  13.818
56531W        W24749  24.661  37.629   3.268
56532W        W24750  12.239  33.362  10.637
56533W        W24751  31.585  36.413  13.070
56534W        W24752  19.250  25.788  10.803
56535W        W24753   0.709  29.693   0.951
56536W        W24754  29.374  43.822  11.975
56537W        W24755  43.857  44.305   2.040
56538W        W24756  17.684   7.862  10.925
56539W        W24757   4.094  44.791  11.128
56540W        W24758  43.047  37.056   1.312
56541W        W24759   0.953  27.026  10.773
56542W        W24760  21.926  26.557   4.847
56543W        W24761  16.652   0.373   1.459
56544W        W24762   7.937   7.629   1.223
56545W        W24763   4.255   0.485  13.502
56546W        W24764  17.778  22.577   3.197
56547W        W24765  30.490  15.587   3.683
56548W        W24766  31.925  44.031   0.391
56549W        W24767  43.039  34.911  14.349
56550W        W24768  30.463   2.314  14.432
56551W        W24769   3.452   1.363  12.387
56552W        W24770   4.452   2.628   0.041
56553W        W24771  16.083  11.797  13.343
56554W        W24772  35.604  27.508   2.171
56555W        W24773   9.848  26.186  14.805
56556W        W24774  15.150  38.970  10.566
56557W        W24775  20.885  12.558  14.410
56558W        W24776  15.908   2.375   1.343
56559W        W24777   5.869  44.504   2.180
56560W        W24778  24.716  20.732  12.482
56561W        W24779   5.606  29.577   4.058
56562W        W24780  33.886  30.063   3.147
56563W        W24781  20.554  43.628  11.930
56564W        W24782  18.501  10.706   2.101
56565W        W24783  24.046  36.873  10.639
56566W        W24784   3.209  39.346  11.476
56567W        W24785  27.160  21.437   3.707
56568W        W24786  36.956  43.299  12.042
56569W        W24787   0.769   7.935  12.535
56570W        W24788   8.127  28.524  11.590
56571W        W24789   9.162  40.741  10.467
56572W        W24790  21.199   5.225   4.665
56573W        W24791   1.905  31.386  14.257
56574W        W24792  42.620  31.898   1.181
56575W        W24793   6.479  25.431  13.093
56576W        W24794  39.589  29.570   0.772
56577W        W24795  42.880  44.987  11.208
56578W        W24796   6.420   4.346  11.048
56579W        W24797  32.015  36.647   0.534
56580W        W24798  36.850   1.922  14.589
56581W        W24799  22.127   3.385   1.222
56582W        W24800   7.713  14.604   1.366
56583W        W24801  20.069  27.744   0.926
56584W        W24802  37.918   4.318   4.434
56585W        W24803  20.679  30.725   4.438
56586W        W24804   3.887  15.279  13.352
56587W        W24805   2.801  15.884   3.397
56588W        W24806  44.501  11.248   0.200
56589W        W24807  29.735  27.544  14.988
56590W        W24808  26.441  43.574   0.076
56591W        W24809   1.496  21.120  11.889
56592W        W24810  35.641   4.652   4.495
56593W        W24811  19.306  19.338   1.202
56594W        W24812  21.698   1.843   2.609
56595W        W24813   4.050  37.252  12.997
56596W        W24814  25.582  40.578   0.045
56597W        W24815  43.231  18.166   2.299
56598W        W24816  33.287  14.925   3.623
56599W        W24817  21.533  29.674  10.712
56600W        W24818  11.062  25.152   4.702
56601W        W24819   4.962  27.420  14.909
56602W        W24820  32.308  20.636   4.240
56603W        W24821  27.944  31.180  12.823
56604W        W24822  39.941  44.492   4.297
56605W        W24823  28.894  26.454   3.382
56606W        W24824   3.196  37.867  10.516
56607W        W24825  13.783  24.966   1.529
56608W        W24826  31.162   5.925   2.762
56609W        W24827  18.489  25.882   3.184
56610W        W24828  12.586  24.799   3.715
56611W        W24829  18.877  28.934   4.254
56612W        W24830   3.436   2.896   2.209
56613W        W24831  34.569  28.606   2.140
56614W        W24832  34.137  10.800  12.331
56615W        W24833  39.660  43.930  14.364
56616W        W24834  41.984   4.013  10.154
56617W        W24835  28.678   3.577   3.023
56618W        W24836  36.612  40.368   0.280
56619W        W24837  30.311  16.372  12.489
56620W        W24838  20.106   5.304  12.291
56621W        W24839  18.632  43.710   4.209
56622W        W24840  21.672  23.760   4.551
56623W        W24841  19.851  24.406   1.695
56624W        W24842  43.407  18.243  12.596
56625W        W24843  26.155  23.726  14.637
56626W        W24844  41.011  27.548   4.761
56627W        W24845   3.473  31.924   1.765
56628W        W24846  16.856  35.040   0.082
56629W        W24847  42.514  11.710   4.399
56630W        W24848   0.462  23.448  14.483
56631W        W24849  11.889  40.486   1.398
56632W        W24850   3.607   6.911  14.101
56633W        W24851  15.394  42.390  13.425
56634W        W24852  44.742  14.277  13.547
56635W        W24853   6.303  37.015  13.867
56636W        W24854   3.521   3.021  10.414
56637W        W24855  43.279  18.210  14.049
56638W        W24856  39.421   5.235   0.386
56639W        W24857  43.974  16.795   4.615
56640W        W24858   9.450  39.944  10.995
56641W        W24859  24.403  27.446   0.837
56642W        W24860  39.009  44.916   1.205
56643W        W24861   0.494   4.128   1.589
56644W        W24862  13.677  39.976   1.623
56645W        W24863  10.162  17.799  13.792
56646W        W24864  12.024  37.362  14.998
56647W        W24865  26.204  24.956   0.231
56648W        W24866   1.699  20.522   4.076
56649W        W24867   5.202  28.010  10.585
56650W        W24868  22.244  44.805  11.485
56651W        W24869  36.512   9.162   2.275
56652W        W24870  21.708  22.173  12.162
56653W        W24871  23.789  30.584  14.369
56654W        W24872  36.111   8.089  11.077
56655W        W24873  29.080   0.323   0.399
56656W        W24874  29.956   3.941  14.397
56657W        W24875  33.919  32.101  12.963
56658W        W24876  18.126   5.873  12.915
56659W        W24877   0.884  22.190  10.437
56660W        W24878  27.922   8.629   3.604
56661W        W24879  19.908  12.631   9.930
56662W        W24880  22.458  10.845   4.127
56663W        W24881   2.935   8.681  10.986
56664W        W24882   3.304  12.823  14.989
56665W        W24883   8.087  44.161  12.144
56666W        W24884  25.220  19.130  11.031
56667W        W24885   7.178  18.212   5.105
56668W        W24886   2.842   0.409   2.712
56669W        W24887  11.172  25.481  14.955
56670W        W24888  21.995   6.329   4.615
56671W        W24889  24.484   4.139   0.823
56672W        W24890  14.426   5.584   0.838
56673W        W24891  37.129  19.813   1.056
56674W        W24892   9.335  22.591  12.780
56675W        W24893   8.117  24.563   1.512
56676W        W24894  29.226   8.828  12.415
56677W        W24895  14.709   6.655  11.075
56678W        W24896  18.113   8.419   3.253
56679W        W24897  33.562  41.145  11.462
56680W        W24898   7.803  10.635   1.319
56681W        W24899  38.917  21.748   1.837
56682W        W24900  11.871  22.592   5.225
56683W        W24901  10.481  36.396   0.271
56684W        W24902  42.883  32.108  10.766
56685W        W24903  30.935  19.817  13.451
56686W        W24904  43.258  35.929   4.243
56687W        W24905  31.377  23.563   0.551
56688W        W24906   0.946   3.894   3.240
56689W        W24907  39.188  43.040  14.908
56690W        W24908  21.534  40.434   1.323
56691W        W24909  38.052   9.237   1.522
56692W        W24910  43.642  28.856  14.328
56693W        W24911  14.274  15.766  12.544
56694W        W24912  39.298  43.515  14.452
56695W        W24913   6.887  43.289  14.760
56696W        W24914  39.501  24.921   3.270
56697W        W24915  12.530  24.334   4.569
56698W        W24916   1.797   6.924  13.337
56699W        W24917  35.061  41.245   2.752
56700W        W24918  33.993  17.234  12.366
56701W        W24919  38.021  18.116   0.234
56702W        W24920  13.592  25.598   4.617
56703W        W24921  41.533  38.784   3.208
56704W        W24922  13.852  24.701   4.502
56705W        W24923  10.637  14.693   4.573
56706W        W24924  19.288  21.373  13.841
56707W        W24925   2.880   1.242   3.388
56708W        W24926  22.871  34.961  13.087
56709W        W24927  42.528   4.708   0.760
56710W        W24928  12.848   8.365  12.018
56711W        W24929  14.319  25.978  12.059
56712W        W24930  17.248  23.049  14.809
56713W        W24931  44.035  28.113  12.020
56714W        W24932  40.849  33.339   1.000
56715W        W24933  38.533  34.742   2.426
56716W        W24934   6.300   1.194  12.458
56717W        W24935  22.700  27.682   1.713
56718W        W24936  43.876   1.847   2.551
56719W        W24937  16.645  26.615   4.257
56720W        W24938  12.340  37.966   3.561
56721W        W24939  43.752  26.884   4.578
56722W        W24940  35.411  35.385   1.445
56723W        W24941   3.814   3.771   2.247
56724W        W24942  41.854  15.925   1.820
56725W        W24943   2.232   8.689   4.196
56726W        W24944  39.867  17.718  14.787
56727W        W24945  27.702  12.194   1.433
56728W        W24946  37.824  44.575   0.321
56729W        W24947  22.469  28.846   0.615
56730W        W24948  18.068   5.811   4.597
56731W        W24949  14.160  13.824   4.110
56732W        W24950   9.638  12.099  11.010
56733W        W24951  36.305  33.917  13.866
56734W        W24952  28.636  15.274   0.022
56735W        W24953   2.414  23.487   0.815
56736W        W24954  36.619  31.809  11.576
56737W        W24955  43.840   5.097  12.881
56738W        W24956   5.895  12.736  12.969
56739W        W24957   0.346   6.715  11.486
56740W        W24958   6.405  44.826   4.625
56741W        W24959  10.703  38.886   0.433
56742W        W24960  31.571  34.824  14.924
56743W        W24961  17.934  11.660   4.219
56744W        W24962  14.572  31.918  10.793
56745W        W24963  32.549  33.099   1.687
56746W        W24964  37.806   0.622   0.368
56747W        W24965  38.363  19.199  12.155
56748W        W24966  17.257  30.204  14.281
56749W        W24967  44.917  26.888   3.595
56750W        W24968  44.316  35.855  12.473
56751W        W24969  23.577  27.612  10.345
56752W        W24970  29.740  23.040   0.811
56753W        W24971  36.857  42.979  14.055
56754W        W24972   7.659  39.936   1.857
56755W        W24973   1.334  16.615  12.473
56756W        W24974   7.779   1.220   0.321
56757W        W24975  14.339  17.468  12.968
56758W        W24976   7.015  43.940   1.304
56759W        W24977  22.658  20.563   4.046
56760W        W24978  19.799  21.322  12.028
56761W        W24979  40.380  26.016  11.419
56762W        W24980   5.403   8.674   1.922
56763W        W24981  18.760  21.605   1.443
56764W        W24982  16.605  21.957  13.973
56765W        W24983   1.407  42.859   1.946
56766W        W24984  23.563  39.022  11.347
56767W        W24985   1.893  25.724   0.394
56768W        W24986   3.829   9.221  14.213
56769W        W24987  24.071  37.975   0.206
56770W        W24988  26.401  22.607   3.156
56771W        W24989   0.266   3.999   0.054
56772W        W24990   5.476  25.515   4.687
56773W        W24991  37.873  15.973  11.446
56774W        W24992  44.400   1.482  10.562
56775W        W24993  30.964  11.683  10.968
56776W        W24994  31.710  35.036  13.594
56777W        W24995  42.339  17.098  12.139
56778W        W24996  24.565   0.254  13.950
56779W        W24997   2.337   0.818  11.588
56780W        W24998  28.890  10.402  13.501
56781W        W24999  27.183  28.029   3.679
56782W        W25000  32.040  40.340  13.547
56783W        W25001  11.245  32.077  13.937
56784W        W25002  30.492  44.736  14.062
56785W        W25003  30.711  22.578   1.509
56786W        W25004  11.319  25.268  11.582
56787W        W25005  26.934  33.453   1.285
56788W        W25006  41.241   4.989  13.121
56789W        W25007   0.862   9.741  12.138
56790W        W25008  35.687  39.390   0.372
56791W        W25009  21.170  39.879  13.307
56792W        W25010  40.868  30.447  13.178
56793W        W25011  13.278  21.584  11.798
56794W        W25012   6.894   8.241  14.517
56795W        W25013  12.850  41.382  14.365
56796W        W25014   2.427  36.426   1.238
56797W        W25015  39.375  25.034   4.613
56798W        W25016  44.822   5.529   3.919
56799W        W25017  15.791  23.240   1.879
56800W        W25018   4.531   3.189  14.972
56801W        W25019   0.261  17.237  13.930
56802W        W25020  40.962   1.339   3.353
56803W        W25021  34.591  38.719   2.394
56804W        W25022  31.749  26.679  12.139
56805W        W25023  29.915  29.837   0.228
56806W        W25024  14.575  28.723  11.206
56807W        W25025  42.974  35.903  13.674
56808W        W25026  32.123  11.328   0.966
56809W        W25027   6.410  17.966   1.074
56810W        W25028  22.231   7.100  11.097
56811W        W25029  24.366  20.184   4.621
56812W        W25030   5.940  40.601  14.200
56813W        W25031  40.729  20.191   1.970
56814W        W25032  16.983  34.928  11.886
56815W        W25033   0.045  21.484   2.815
56816W        W25034  34.406  13.154   0.418
56817W        W25035  37.902   7.308   0.997
56818W        W25036  31.357  20.001   4.280
56819W        W25037   9.198  41.535   0.885
56820W        W25038  17.223  10.580  11.129
56821W        W25039  20.245  29.489   4.571
56822W        W25040  39.326  40.953   2.742
56823W        W25041  15.365  39.503   3.344
56824W        W25042  12.650   8.449   0.871
56825W        W25043   3.274  26.618   2.765
56826W        W25044  16.422  22.757  11.937
56827W        W25045   5.215  30.039  11.664
56828W        W25046  20.289  34.849  11.571
56829W        W25047  12.341  39.448   3.064
56830W        W25048  37.922  22.438  13.818
56831W        W25049  37.588   4.633   2.370
56832W        W25050  10.339  43.404   1.386
56833W        W25051  44.790  23.349   2.303
56834W        W25052  30.409   2.374   5.010
56835W        W25053  35.554  32.193   1.329
56836W        W25054  20.072  31.011  11.901
56837W        W25055  33.881  28.909   5.172
56838W        W25056  17.087  40.292  12.895
56839W        W25057  26.982  35.638   2.821
56840W        W25058   5.155  21.806  13.875
56841W        W25059  11.200  16.726  14.849
56842W        W25060  40.853  32.840  10.980
56843W        W25061  42.588  35.956   3.167
56844W        W25062  41.261  22.240   4.204
56845W        W25063  18.047   8.944   3.261
56846W        W25064  11.136   4.314   4.386
56847W        W25065  39.941  14.671  14.415
56848W        W25066  13.951  34.807   3.392
56849W        W25067  22.699  17.061   0.714
56850W        W25068  14.812  37.318  12.647
56851W        W25069  21.473  37.708   3.542
56852W        W25070   7.927  16.514  13.573
56853W        W25071  15.042  26.357  13.565
56854W        W25072  10.421   1.467  13.913
56855W        W25073  11.442  38.451   1.841
56856W        W25074  20.042  15.191  13.248
56857W        W25075  40.574  16.125  10.766
56858W        W25076  40.049  14.871  12.983
56859W        W25077  40.784  13.348  11.575
56860W        W25078  35.851   4.397   4.058
56861W        W25079  16.099  34.179   1.438
56862W        W25080  14.061  10.594  14.451
56863W        W25081  14.405   3.868   1.992
56864W        W25082  22.758  25.037  12.611
56865W        W25083  15.743  34.921  12.937
56866W        W25084  16.892  34.855  13.111
56867W        W25085  24.955   4.782   3.348
56868W        W25086  15.582  19.991  11.480
56869W        W25087  19.116  33.453  13.548
56870W        W25088  15.885  24.568  10.610
56871W        W25089  30.513  18.541   3.164
56872W        W25090  39.968  17.350   1.310
56873W        W25091   3.879  30.371  13.589
56874W        W25092  15.125  40.120   3.707
56875W        W25093  27.663  19.140  14.891
56876W        W25094  30.698   7.675   2.319
56877W        W25095  16.006   1.977  12.083
56878W        W25096  34.496  23.077   4.275
56879W        W25097   8.224  26.334  11.914
56880W        W25098  23.105  29.012   4.767
56881W        W25099  17.628  18.146  13.581
56882W        W25100  28.392  26.512  12.856
56883W        W25101  22.624  17.990  13.745
56884W        W25102  29.390  17.523   4.673
56885W        W25103  30.123   5.710   4.310
56886W        W25104  16.086  34.529  12.991
56887W        W25105  14.912  17.635  11.581
56888W        W25106  15.038   5.755   2.826
56889W        W25107  38.747  24.567   4.180
56890W        W25108  24.647   6.709  11.134
56891W        W25109  42.114  38.505  10.533
56892W        W25110   1.200  26.777   0.700
56893W        W25111  24.174   2.474   4.128
56894W        W25112  40.742  39.413  11.049
56895W        W25113  26.016  14.557   5.046
56896W        W25114   5.128  34.061  10.510
56897W        W25115  10.713  10.823   4.171
56898W        W25116  39.820  35.286  13.965
56899W        W25117  42.855  25.177   1.975
56900W        W25118  38.729  37.914   2.748
56901W        W25119  15.096   8.760  11.554
56902W        W25120  17.136  39.055  10.358
56903W        W25121  10.406  20.964   2.268
56904W        W25122  20.499  19.602  13.373
56905W        W25123  17.288   1.700   4.116
56906W        W25124  37.627  22.727  14.208
56907W        W25125  19.475  42.603   4.054
56908W        W25126  35.395   3.861   5.104
56909W        W25127  16.379  36.005  13.841
56910W        W25128   9.579  36.901  12.943
56911W        W25129   1.885  40.122   4.556
56912W        W25130   9.116  20.667  13.521
56913W        W25131  36.500  23.911  14.818
56914W        W25132  28.731  42.887  11.607
56915W        W25133   9.035  39.859  11.982
56916W        W25134   0.983  24.521   4.854
56917W        W25135  37.760  16.496  11.322
56918W        W25136   1.798  22.749   2.984
56919W        W25137   7.171   5.477   0.252
56920W        W25138  37.359  15.535  10.665
56921W        W25139  42.430   1.042  11.482
56922W        W25140  18.969   8.157  14.169
56923W        W25141  35.929   8.886  10.795
56924W        W25142  37.993  38.573   2.665
56925W        W25143  18.634  18.265  12.581
56926W        W25144  43.375  20.619  13.068
56927W        W25145  37.281  38.614   4.651
56928W        W25146   3.899  42.867   2.314
56929W        W25147  17.648  43.808  12.524
56930W        W25148   9.267  24.708  13.437
56931W        W25149  35.967  41.461  12.618
56932W        W25150  41.881  19.654  13.099
56933W        W25151  43.329  25.885   3.695
56934W        W25152   6.796  17.965  13.379
56935W        W25153   9.832  38.752  13.065
56936W        W25154   9.935  21.352  11.505
56937W        W25155  21.568   0.384  12.462
56938W        W25156   0.909  30.081  12.987
56939W        W25157  37.895  18.797  10.673
56940W        W25158  26.208  23.238  13.937
56941W        W25159  38.236  27.404  13.384
56942W        W25160  38.881  31.932  13.035
56943W        W25161  20.018  29.497   4.089
56944W        W25162  28.181  11.708  10.289
56945W        W25163  43.755   4.889   0.227
56946W        W25164  34.329  24.274   0.025
56947W        W25165   2.128   1.614  12.138
56948W        W25166  40.283  39.015   0.712
56949W        W25167   7.523  28.792   0.696
56950W        W25168  33.065  24.702   0.956
56951W        W25169  20.489  36.946  11.157
56952W        W25170  24.140  23.728  13.281
56953W        W25171  17.839   7.916   0.397
56954W        W25172   2.321  44.876  10.659
56955W        W25173  25.032  28.877  13.053
56956W        W25174   1.422  36.542   3.317
56957W        W25175  25.641  21.819  10.636
56958W        W25176  26.816  13.399   2.115
56959W        W25177   2.058  39.802   0.430
56960W        W25178  40.956  23.567  14.275
56961W        W25179  24.305  22.599   0.780
56962W        W25180  35.421  18.860  10.664
56963W        W25181   6.321  28.984   3.802
56964W        W25182  23.836  24.543   0.265
56965W        W25183  32.461   2.100   3.174
56966W        W25184  34.486  21.328  10.704
56967W        W25185  33.394  24.077   3.731
56968W        W25186  21.601  44.073  13.391
56969W        W25187  31.927  27.471  13.341
56970W        W25188   6.108  18.485   4.464
56971W        W25189  10.367   5.773  11.600
56972W        W25190  22.590  44.879   0.750
56973W        W25191  42.352  35.814  12.374
56974W        W25192  34.913   7.694  13.363
56975W        W25193  14.801  24.540  14.482
56976W        W25194  38.079  27.951   3.739
56977W        W25195  44.411   3.507   3.224
56978W        W25196  40.056  40.270  14.451
56979W        W25197   1.988   4.871   4.496
56980W        W25198  23.450  32.931   0.043
56981W        W25199  28.429  25.038   0.212
56982W        W25200   7.463  22.297  12.444
56983W        W25201  31.068  31.149  12.012
56984W        W25202  38.092   0.819   2.369
56985W        W25203  33.764  19.797   3.114
56986W        W25204  26.933   8.138  11.582
56987W        W25205  20.130  26.693   4.943
56988W        W25206   6.463  27.216   0.713
56989W        W25207   3.252  40.530   0.718
56990W        W25208  30.880  22.857  13.414
56991W        W25209   1.921  31.573  14.756
56992W        W25210  10.559  23.474   0.369
56993W        W25211   5.925  35.782  11.885
56994W        W25212   7.973   8.234   4.633
56995W        W25213  39.354  20.067  11.886
56996W        W25214  23.482  34.400  12.035
56997W        W25215  28.495  28.669   3.314
56998W        W25216  26.670   8.774  13.364
56999W        W25217  29.110  19.705  14.681
57000W        W25218   9.580  25.454   4.905
57001W        W25219   0.460  39.546   3.036
57002W        W25220  22.427  37.479  12.519
57003W        W25221  13.094  35.422  12.880
57004W        W25222  41.490  20.752   0.742
57005W        W25223  33.608  35.799   3.762
57006W        W25224   9.657   9.867  12.846
57007W        W25225  14.465  43.507  11.615
57008W        W25226  19.219  32.348   0.972
57009W        W25227  19.245  29.322   4.741
57010W        W25228  27.567   9.034  13.919
57011W        W25229  26.989   6.758  14.482
57012W        W25230  21.546   9.634   1.467
57013W        W25231  33.725  27.883  11.230
57014W        W25232  15.287  41.035  13.510
57015W        W25233  37.222   9.461  12.469
57016W        W25234   4.666  14.277  12.049
57017W        W25235  44.005  32.443  13.568
57018W        W25236  28.188   0.605  10.343
57019W        W25237  38.083  13.888  13.476
57020W        W25238   7.708  36.156  11.351
57021W        W25239  30.159   8.425  14.962
57022W        W25240  28.829  25.241  11.933
57023W        W25241  33.497   9.977   3.726
57024W        W25242   9.926  16.109   3.297
57025W        W25243  29.108   7.946  10.513
57026W        W25244   0.378  14.102   4.620
57027W        W25245  35.784  37.313  12.029
57028W        W25246  32.455  28.900  13.473
57029W        W25247  30.711  16.652  11.080
57030W        W25248  18.502  26.060   0.789
57031W        W25249   6.629  21.137  14.364
57032W        W25250   6.725  30.082   0.386
57033W        W25251  33.650   4.339  13.500
57034W        W25252   6.803  24.159  12.516
57035W        W25253  34.314  17.281  13.510
57036W        W25254  39.351  19.313   0.767
57037W        W25255  14.901   9.926   5.081
57038W        W25256  16.987   6.018  14.942
57039W        W25257  33.528  28.036   2.832
57040W        W25258   7.215  24.716  13.924
57041W        W25259  37.927   2.192  13.383
57042W        W25260  27.543  42.742  11.084
57043W        W25261  17.492  44.974  12.117
57044W        W25262   2.002  33.348   2.941
57045W        W25263  27.219  28.973   2.258
57046W        W25264  44.070  37.894   0.430
57047W        W25265  10.133  17.840   9.877
57048W        W25266  38.259  15.655   1.810
57049W        W25267  14.321   4.327  12.410
57050W        W25268  34.440   9.640   3.311
57051W        W25269  24.078  42.762  12.937
57052W        W25270  24.173  18.475   0.514
57053W        W25271   9.689  40.105  12.757
57054W        W25272  28.099  31.150  10.912
57055W        W25273  29.918  27.485  11.537
57056W        W25274  13.365   5.703  11.643
57057W        W25275  37.719  44.156   4.561
57058W        W25276  21.282  20.748  10.584
57059W        W25277   5.464  25.000  12.481
57060W        W25278  33.038   9.536   3.254
57061W        W25279  39.938  13.990   2.772
57062W        W25280  40.233  30.390   0.956
57063W        W25281  44.383  42.464   2.631
57064W        W25282  10.751   9.094  13.972
57065W        W25283   8.462  29.739  10.797
57066W        W25284   6.670  15.060  14.070
57067W        W25285  38.878  28.433  12.516
57068W        W25286   5.469  36.363   3.205
57069W        W25287   6.296  20.668  10.553
57070W        W25288  38.490  22.209   2.969
57071W        W25289  16.975  30.567  13.331
57072W        W25290   2.756  19.789   3.192
57073W        W25291  19.781   7.184   2.760
57074W        W25292  25.931  21.223   0.254
57075W        W25293  20.681  27.102  10.516
57076W        W25294  29.155  21.941   1.279
57077W        W25295  30.974  31.106   4.810
57078W        W25296  27.980  28.407   0.471
57079W        W25297  34.523  15.427   0.780
57080W        W25298  20.413  38.761   3.684
57081W        W25299  21.054  43.276  14.874
57082W        W25300  42.989  34.341  13.209
57083W        W25301  38.934  44.746   3.412
57084W        W25302  36.045  32.578   3.606
57085W        W25303  31.185  27.597  12.877
57086W        W25304  20.273  38.593   4.550
57087W        W25305  43.171   0.996  10.703
57088W        W25306  38.567  41.234  14.823
57089W        W25307   7.307  37.841   1.344
57090W        W25308  31.672   3.330   1.376
57091W        W25309   0.779  34.454   4.095
57092W        W25310   5.391  37.123  12.926
57093W        W25311  44.745  25.182  10.629
57094W        W25312  20.528  35.037   4.103
57095W        W25313  44.604  34.144   5.091
57096W        W25314   4.752   4.898   3.681
57097W        W25315  28.572   9.863  13.363
57098W        W25316  10.295  41.868  11.644
57099W        W25317  33.175   2.730  13.409
57100W        W25318  24.735  13.430  11.046
57101W        W25319   5.707  38.882  14.379
57102W        W25320   7.905  37.244  12.157
57103W        W25321   2.833  10.188  11.613
57104W        W25322  38.085   4.453  12.581
57105W        W25323  27.668   0.216  13.715
57106W        W25324  41.509  32.613  11.619
57107W        W25325  12.182   7.295  12.091
57108W        W25326   5.736   8.662  12.636
57109W        W25327  25.452  27.279   2.480
57110W        W25328  25.964  39.996  12.992
57111W        W25329   7.112  28.634  14.335
57112W        W25330  16.868  16.301  13.715
57113W        W25331  26.708  36.456   4.659
57114W        W25332  43.842  24.268   2.804
57115W        W25333  25.679  13.758  13.842
57116W        W25334  11.781   5.408  13.062
57117W        W25335  25.827  14.533  14.396
57118W        W25336   4.423   6.830  13.921
57119W        W25337  37.915  36.970   4.114
57120W        W25338  11.662  26.451   3.852
57121W        W25339   7.849  14.704  10.020
57122W        W25340   2.508   3.332   3.670
57123W        W25341  10.774  25.983   3.929
57124W        W25342  11.893   6.981   4.490
57125W        W25343  31.959  35.679   3.200
57126W        W25344   9.787  18.011  12.435
57127W        W25345  18.517   3.220   2.345
57128W        W25346  35.308  35.625  11.071
57129W        W25347  20.095  28.656   2.283
57130W        W25348  30.293   3.282   4.100
57131W        W25349  30.748  20.478   2.980
57132W        W25350  18.652   7.788   4.142
57133W        W25351   3.497   7.827  10.540
57134W        W25352  18.899  42.376  14.624
57135W        W25353   7.374   2.434  11.167
57136W        W25354  21.512   0.492  14.938
57137W        W25355  30.003   5.188  11.626
57138W        W25356   7.397  30.176   3.862
57139W        W25357  38.125   3.845  12.140
57140W        W25358   8.302  12.920   1.912
57141W        W25359  24.928  35.870   2.368
57142W        W25360  41.279  10.922  14.429
57143W        W25361  32.293   5.790  12.323
57144W        W25362  21.316   0.878   3.710
57145W        W25363  33.377  44.394   3.120
57146W        W25364   8.887   3.659  14.473
57147W        W25365   5.090   4.238  13.532
57148W        W25366   5.414  25.973  11.451
57149W        W25367  32.136  34.778   3.619
57150W        W25368  16.201  31.964  13.498
57151W        W25369  29.974  20.754   3.074
57152W        W25370  40.338  22.022  12.639
57153W        W25371   8.346   9.311  10.712
57154W        W25372  44.552  19.548   0.406
57155W        W25373  26.111  35.514   2.468
57156W        W25374  32.704  35.810  14.610
57157W        W25375  42.858  32.180  11.485
57158W        W25376  44.318  27.599   0.020
57159W        W25377  33.997  38.944   4.584
57160W        W25378  23.957   4.566  12.608
57161W        W25379  10.794  19.779   1.445
57162W        W25380  29.999   9.347   0.429
57163W        W25381  20.173  40.969  11.099
57164W        W25382  25.967   2.289  12.467
57165W        W25383   4.931  26.970  10.724
57166W        W25384  32.144   2.090   3.704
57167W        W25385  24.610   5.627   2.362
57168W        W25386   5.112   9.079   2.850
57169W        W25387   8.381  32.973   1.379
57170W        W25388   7.356  37.808   2.177
57171W        W25389  14.356  26.011  11.218
57172W        W25390  22.554   9.564   4.570
57173W        W25391  16.171   9.699   4.201
57174W        W25392  39.510  26.066   0.307
57175W        W25393  31.773  41.023   1.346
57176W        W25394  34.537  15.818  11.202
57177W        W25395  37.845   8.861  11.914
57178W        W25396  31.663  43.875  12.582
57179W        W25397  39.029  10.944   0.017
57180W        W25398  42.814  34.396  12.678
57181W        W25399  39.913  18.101  12.852
57182W        W25400   5.221  12.992  13.526
57183W        W25401  35.791   4.804  14.330
57184W        W25402   0.834  16.530  10.207
57185W        W25403  36.359  25.966  10.703
57186W        W25404   3.699  19.114  14.856
57187W        W25405  14.252  23.803   3.807
57188W        W25406   5.685  28.116   1.260
57189W        W25407  15.469  14.300   5.014
57190W        W25408   0.163  26.012   2.560
57191W        W25409   2.210  38.838  14.470
57192W        W25410  19.359  10.272   0.759
57193W        W25411  22.214  41.280  12.669
57194W        W25412  26.746  32.857  14.272
57195W        W25413  13.777   9.686  14.336
57196W        W25414  43.763  32.858  14.804
57197W        W25415  17.083  15.319   2.352
57198W        W25416   3.767   5.627   1.834
57199W        W25417  37.074   4.803  13.398
57200W        W25418  33.339  43.664  12.858
57201W        W25419   6.903  20.363  14.740
57202W        W25420  27.925  34.125  14.548
57203W        W25421  20.858  32.419  10.324
57204W        W25422  35.133   4.806   4.373
57205W        W25423   9.014  26.903   3.290
57206W        W25424  43.701  16.283  12.732
57207W        W25425  35.128   5.602   0.352
57208W        W25426  23.944  38.160   2.904
57209W        W25427  41.330   2.840   9.840
57210W        W25428  28.080  15.581   0.839
57211W        W25429   8.483  40.418   0.238
57212W        W25430  21.303  28.138  10.734
57213W        W25431  40.806   1.923  14.992
57214W        W25432  26.945   2.249  13.481
57215W        W25433  36.157   1.343   3.710
57216W        W25434   5.690  26.400   4.506
57217W        W25435  17.669   4.903   0.044
57218W        W25436  20.672   9.767   0.873
57219W        W25437  32.701  33.669   0.753
57220W        W25438  39.104  30.538  11.493
57221W        W25439  18.199  33.865  14.885
57222W        W25440  19.129  18.335   3.169
57223W        W25441  15.085  18.441  13.422
57224W        W25442   6.854  23.003  14.455
57225W        W25443  42.979  19.153  13.500
57226W        W25444  40.262  11.824  12.480
57227W        W25445  25.018  24.813  13.277
57228W        W25446  32.918  25.920   5.524
57229W        W25447   3.956   9.958   0.325
57230W        W25448  17.752  14.635   4.157
57231W        W25449  42.098  25.985   4.496
57232W        W25450   6.681  14.738  11.629
57233W        W25451  27.565  29.822  14.811
57234W        W25452  13.810  25.269  12.914
57235W        W25453   1.463   5.677   4.857
57236W        W25454   6.520   4.677  13.363
57237W        W25455  25.073  11.043   0.195
57238W        W25456  14.244  19.094  13.565
57239W        W25457  35.322  17.852  12.517
57240W        W25458   5.638  29.746  11.841
57241W        W25459  33.513  12.109  13.938
57242W        W25460  31.056  17.102   2.356
57243W        W25461  11.610   3.215   0.828
57244W        W25462  29.963   0.877   0.869
57245W        W25463  20.504   5.015   4.283
57246W        W25464  35.329   4.812   0.656
57247W        W25465  36.093  25.927  13.949
57248W        W25466  44.649  26.389  14.480
57249W        W25467  27.493  40.513   0.889
57250W        W25468  21.078  33.809  11.074
57251W        W25469  23.151   7.824   0.686
57252W        W25470   8.271   4.701   3.859
57253W        W25471  38.345  29.932  10.745
57254W        W25472   8.757   4.841  14.490
57255W        W25473  27.544  14.134  11.948
57256W        W25474   8.266  22.624   4.809
57257W        W25475  12.691  27.008   1.993
57258W        W25476  39.770  11.102  11.604
57259W        W25477   6.762  27.175   3.519
57260W        W25478  32.108  27.720   3.336
57261W        W25479   2.881  32.079  10.812
57262W        W25480   1.713  29.846  13.014
57263W        W25481  11.187  43.944  14.298
57264W        W25482  29.413  17.006   1.721
57265W        W25483  20.320  34.209  11.179
57266W        W25484  16.597  12.381  11.018
57267W        W25485  36.920  43.807   0.027
57268W        W25486   4.699  39.553   0.410
57269W        W25487  26.350  40.465   0.747
57270W        W25488   5.213  11.487  13.808
57271W        W25489  26.066  23.751   3.361
57272W        W25490  31.726  27.596   1.994
57273W        W25491  43.083   0.430   2.869
57274W        W25492   3.255  33.078  13.578
57275W        W25493  34.019   2.790  13.504
57276W        W25494  11.787  26.656  13.852
57277W        W25495  17.840   3.411  11.417
57278W        W25496  19.160  12.711   3.249
57279W        W25497  39.480  15.772   0.935
57280W        W25498  26.336   0.954   3.396
57281W        W25499   2.213  39.070  13.932
57282W        W25500   2.939  24.144   1.244
57283W        W25501  39.244  14.178  11.548
57284W        W25502  23.908   2.821   0.478
57285W        W25503  33.071  15.162   3.221
57286W        W25504  20.386  23.754  11.180
57287W        W25505  16.409  17.868  11.468
57288W        W25506   1.481  31.413  11.681
57289W        W25507  22.997   0.223   0.823
57290W        W25508  31.359  21.451   4.830
57291W        W25509  36.995   7.452   0.874
57292W        W25510  10.260  40.511  14.328
57293W        W25511  18.039  11.403   3.312
57294W        W25512   0.270   9.307   4.078
57295W        W25513   5.813  12.732   1.830
57296W        W25514  31.976  10.133   4.491
57297W        W25515  36.833   1.460   3.326
57298W        W25516  10.776  39.746  13.439
57299W        W25517  29.778  19.533  11.994
57300W        W25518  37.011  35.117   0.107
57301W        W25519  33.857   0.040   3.709
57302W        W25520   1.354  35.694  12.969
57303W        W25521  21.199  41.983   3.293
57304W        W25522  38.600  15.800  11.867
57305W        W25523  35.943   8.590   3.147
57306W        W25524  21.582  11.192   2.601
57307W        W25525  33.899  34.419   2.189
57308W        W25526   0.835  30.134   2.492
57309W        W25527  24.448  21.055  12.108
57310W        W25528  15.410  22.110  13.513
57311W        W25529  11.879  21.939   2.255
57312W        W25530  22.887  19.011  11.722
57313W        W25531  39.296   2.719  14.903
57314W        W25532  43.700  41.354   1.942
57315W        W25533  39.305  10.960   1.750
57316W        W25534  19.642  40.520  13.890
57317W        W25535  17.829  22.266  13.524
57318W        W25536  25.180  37.083  11.508
57319W        W25537  18.953  40.954  10.550
57320W        W25538  34.085  42.515   0.747
57321W        W25539   7.401  29.826   2.899
57322W        W25540   3.660  32.591   0.408
57323W        W25541   2.547  29.908  10.784
57324W        W25542  14.297  31.030  10.875
57325W        W25543  26.859  43.043  13.463
57326W        W25544  30.101   4.613   2.908
57327W        W25545  40.025  35.327  12.433
57328W        W25546   7.849  26.946   1.800
57329W        W25547  30.241  24.006   2.407
57330W        W25548   0.362  12.528  13.398
57331W        W25549  25.682  38.825  13.604
57332W        W25550  14.928   4.304   1.254
57333W        W25551  24.525  25.323  14.435
57334W        W25552  28.077  39.079   0.999
57335W        W25553  39.243  13.568   3.682
57336W        W25554  29.359  27.019  12.896
57337W        W25555  42.024   2.435   3.683
57338W        W25556  18.193  25.507   0.817
57339W        W25557  21.009  10.112  11.097
57340W        W25558  33.619  34.621  11.105
57341W        W25559  26.759   8.536  11.153
57342W        W25560  38.667   4.335  11.523
57343W        W25561  17.388  39.767  11.512
57344W        W25562  31.496   8.170   1.352
57345W        W25563   7.907  30.925  12.599
57346W        W25564  13.615  33.571   4.577
57347W        W25565  15.155  43.066  12.113
57348W        W25566  19.692  36.646  11.620
57349W        W25567  25.671  17.370  12.560
57350W        W25568  41.613  26.970  11.230
57351W        W25569  26.114  10.732  14.844
57352W        W25570  35.650  14.945  14.792
57353W        W25571   1.573  25.885   4.209
57354W        W25572  33.574   3.304   4.075
57355W        W25573  34.064  14.270   2.208
57356W        W25574  27.140  41.034  10.753
57357W        W25575  13.087   8.186   4.113
57358W        W25576  14.904  11.270   2.165
57359W        W25577  41.895   9.849  12.497
57360W        W25578  12.054   1.864   1.185
57361W        W25579  42.521  13.721   2.961
57362W        W25580  11.232  16.205  11.392
57363W        W25581  39.983  42.234   2.724
57364W        W25582  40.356  14.621   3.758
57365W        W25583  25.239   1.819  10.901
57366W        W25584  23.119   8.478  11.514
57367W        W25585  19.868   1.730   2.166
57368W        W25586   5.169  30.909   2.809
57369W        W25587  42.788  39.387  14.110
57370W        W25588  14.595  27.098   3.267
57371W        W25589   5.795  35.911  10.470
57372W        W25590  27.653  28.436   0.062
57373W        W25591   0.638  43.099   0.762
57374W        W25592  35.369  36.285   2.898
57375W        W25593  14.680  20.734  12.106
57376W        W25594  11.594  11.052   3.495
57377W        W25595  27.584  32.895   4.588
57378W        W25596   4.436  20.584   1.301
57379W        W25597  40.372  16.601  14.417
57380W        W25598  36.908  26.972   0.825
57381W        W25599  33.463  26.672  10.471
57382W        W25600   6.289  27.499  14.760
57383W        W25601  11.402  17.551  12.064
57384W        W25602   8.377   8.635   0.991
57385W        W25603   0.636  14.189  12.127
57386W        W25604  37.049  33.146   2.050
57387W        W25605  17.054  19.771   0.309
57388W        W25606  39.045   8.423  12.763
57389W        W25607  43.484  11.754   3.617
57390W        W25608  41.824   9.126   3.716
57391W        W25609  32.015  19.582  12.066
57392W        W25610  13.830  39.423  11.022
57393W        W25611  38.628   0.254   1.748
57394W        W25612  28.691  16.398   2.785
57395W        W25613  23.657  24.007  13.293
57396W        W25614  15.708  22.008  14.897
57397W        W25615  21.556  19.086  12.493
57398W        W25616  28.839   4.441   3.192
57399W        W25617  11.575  31.140  14.364
57400W        W25618   4.925   7.345   1.940
57401W        W25619   4.633  41.411   0.331
57402W        W25620  13.332  38.120  12.616
57403W        W25621  19.797  32.567  14.584
57404W        W25622   2.162  28.451   3.717
57405W        W25623  36.189  20.985   5.091
57406W        W25624  33.598  21.628  13.844
57407W        W25625  35.719  19.085  13.828
57408W        W25626  27.204  20.969   5.403
57409W        W25627  35.428  14.864   1.834
57410W        W25628   2.789  33.714   1.436
57411W        W25629  22.974  41.908   2.893
57412W        W25630   2.302  28.077   0.899
57413W        W25631  33.403  30.434   0.736
57414W        W25632   8.973  36.394  11.612
57415W        W25633  34.387  43.809  14.313
57416W        W25634  10.683  13.654  13.795
57417W        W25635  37.320  34.520   2.258
57418W        W25636   4.975  17.192  10.738
57419W        W25637  19.642  17.326  13.074
57420W        W25638  35.349  27.197   1.793
57421W        W25639   4.432  16.579  11.235
57422W        W25640  14.538  33.861   1.382
57423W        W25641  44.927  25.518   4.457
57424W        W25642   1.897  27.360  14.512
57425W        W25643  43.707  20.446  14.383
57426W        W25644  22.417  26.212  11.083
57427W        W25645   6.817  43.488   2.295
57428W        W25646  10.134  17.800  10.731
57429W        W25647  20.152  27.568   3.375
57430W        W25648  16.318   3.679  12.419
57431W        W25649   6.653  20.606  11.558
57432W        W25650  25.250  16.341   4.589
57433W        W25651  14.230   5.767   2.113
57434W        W25652  40.531  38.806  13.458
57435W        W25653   7.450   5.780   1.442
57436W        W25654  27.584  36.728   4.106
57437W        W25655  36.811  28.911  11.646
57438W        W25656  17.133  15.022   1.467
57439W        W25657  16.769  38.290  14.788
57440W        W25658  19.088  40.854   0.908
57441W        W25659  40.115   6.300   1.275
57442W        W25660  17.849  35.653  13.809
57443W        W25661  18.033   2.842   1.903
57444W        W25662  43.256  38.324   0.373
57445W        W25663  39.840  20.501   3.457
57446W        W25664  22.837  24.149   1.247
57447W        W25665  19.043   9.347  14.335
57448W        W25666  40.415  21.920  12.159
57449W        W25667  40.793  14.707   0.439
57450W        W25668  17.130  19.605   3.402
57451W        W25669  42.371  42.760   2.697
57452W        W25670  23.619  15.477   4.230
57453W        W25671   7.485  32.206  11.592
57454W        W25672  16.065  38.421   0.315
57455W        W25673  42.288  17.112  14.435
57456W        W25674  10.228   9.849   3.338
57457W        W25675  20.992  32.195   0.932
57458W        W25676  32.610  36.063  12.225
57459W        W25677  41.946   5.886   2.282
57460W        W25678  15.202  21.777  14.896
57461W        W25679   2.554   9.845  14.336
57462W        W25680  13.184  34.676   3.173
57463W        W25681  32.501  15.267   1.142
57464W        W25682  11.142   2.784  13.498
57465W        W25683  21.698   5.846   3.881
57466W        W25684  28.205  13.285   0.542
57467W        W25685  41.292  40.028  11.401
57468W        W25686  41.014  40.078  10.603
57469W        W25687  44.669  25.066   0.894
57470W        W25688  14.360  39.414   2.675
57471W        W25689  24.366   9.772  12.024
57472W        W25690  14.787  26.444  14.849
57473W        W25691  42.547  13.039  12.435
57474W        W25692  22.607  24.985  14.363
57475W        W25693  23.235  32.058   3.565
57476W        W25694  39.953  19.588  12.100
57477W        W25695   3.386   8.155  11.564
57478W        W25696  19.696  24.107   2.163
57479W        W25697  23.285  30.657   0.482
57480W        W25698  40.456   8.090   3.177
57481W        W25699  11.588   5.299   2.937
57482W        W25700  13.382  43.963  12.086
57483W        W25701   3.338  24.219  14.282
57484W        W25702  14.789   1.926  10.835
57485W        W25703  20.004   3.260   3.110
57486W        W25704  39.066  25.648  10.625
57487W        W25705  18.925  22.260  13.768
57488W        W25706  35.806   6.901   0.195
57489W        W25707  10.575  18.382   4.802
57490W        W25708   0.330  28.830   4.294
57491W        W25709  24.012   2.601   3.635
57492W        W25710  17.769  18.678   0.902
57493W        W25711   0.820  25.878   0.777
57494W        W25712  37.607  12.273  10.740
57495W        W25713   8.622   5.535   4.232
57496W        W25714  31.909  21.166   1.268
57497W        W25715  44.723   5.245   0.280
57498W        W25716  10.612  18.565   0.895
57499W        W25717  20.091  22.973  11.652
57500W        W25718  31.424  43.972   4.831
57501W        W25719  24.149  42.894  10.879
57502W        W25720  44.730  11.711   1.867
57503W        W25721  39.133  20.794   4.154
57504W        W25722  16.817   5.008  11.046
57505W        W25723  14.275  41.847  12.004
57506W        W25724  19.296  39.926   1.730
57507W        W25725  43.827  39.059   0.520
57508W        W25726  36.524  37.525   3.414
57509W        W25727   7.232  31.952  12.099
57510W        W25728  15.291  10.291   0.302
57511W        W25729  22.466  44.029  13.081
57512W        W25730  17.702  27.930   1.729
57513W        W25731  38.446  29.716   2.617
57514W        W25732  42.387  28.453  13.557
57515W        W25733  23.103  34.002   1.222
57516W        W25734   3.827   4.281   4.964
57517W        W25735  20.579  42.514  12.539
57518W        W25736  32.923  18.203   0.276
57519W        W25737   5.235   5.492  11.994
57520W        W25738  37.652  33.086  12.612
57521W        W25739  19.754  11.889   3.644
57522W        W25740  19.530  28.605  12.674
57523W        W25741  36.799  27.056  13.410
57524W        W25742  16.641   2.908   1.464
57525W        W25743   6.727  40.267  14.807
57526W        W25744  40.778  27.541  12.087
57527W        W25745  29.923  34.898  12.436
57528W        W25746  24.430  27.723   4.080
57529W        W25747   2.709   9.929  12.023
57530W        W25748  37.833   9.690   3.240
57531W        W25749  44.440   7.171   0.369
57532W        W25750  32.059  14.541  11.977
57533W        W25751  13.309  27.461  12.934
57534W        W25752   3.631   5.176  11.969
57535W        W25753  38.882  19.594   0.783
57536W        W25754   9.135  27.219  13.490
57537W        W25755  29.884  39.910   1.033
57538W        W25756  38.707  44.029   1.718
57539W        W25757  30.566  12.728   0.216
57540W        W25758   5.900  17.029   4.986
57541W        W25759  41.333  43.945   4.147
57542W        W25760  28.555  38.645   4.193
57543W        W25761  11.735  12.122  11.588
57544W        W25762   4.386  42.075   3.790
57545W        W25763  36.798  29.924  12.046
57546W        W25764   2.768  28.957   3.656
57547W        W25765  15.986  20.504   4.295
57548W        W25766  34.926  18.547  14.730
57549W        W25767  34.989  15.094   3.206
57550W        W25768  40.859  36.461  12.427
57551W        W25769  33.553  38.007   4.391
57552W        W25770   6.580   1.188   0.863
57553W        W25771  37.439  26.719   0.006
57554W        W25772  16.105  22.829  11.522
57555W        W25773  32.536  26.943   3.578
57556W        W25774   8.402  41.792   0.384
57557W        W25775  24.572   3.612   0.916
57558W        W25776  19.106  13.791   1.350
57559W        W25777   0.104   9.764   0.790
57560W        W25778  38.995  16.638  10.927
57561W        W25779   3.702  15.503  13.784
57562W        W25780  32.796   7.009  13.297
57563W        W25781   3.959  32.543   1.309
57564W        W25782  26.371  19.676   0.946
57565W        W25783  38.934   5.756  13.464
57566W        W25784  44.861   9.137   0.778
57567W        W25785  16.824  36.628   2.675
57568W        W25786   4.231  19.191  14.891
57569W        W25787  35.871  30.544   1.069
57570W        W25788   2.481   6.955   0.422
57571W        W25789  41.317   4.194   3.634
57572W        W25790   3.367  31.175   2.219
57573W        W25791  44.132  20.767   4.137
57574W        W25792  26.098   6.784  14.359
57575W        W25793  22.781   5.820   4.598
57576W        W25794  30.675  19.298  11.165
57577W        W25795  23.455  43.299  12.625
57578W        W25796   0.256  21.355   2.276
57579W        W25797  20.755  13.826  12.888
57580W        W25798  39.669  14.302  11.314
57581W        W25799  10.280  14.280   3.333
57582W        W25800  39.152  35.397   4.201
57583W        W25801  41.413  17.141  12.879
57584W        W25802  15.815  39.315  10.724
57585W        W25803  34.832  33.659   4.287
57586W        W25804   8.693  30.583  13.319
57587W        W25805  22.086   7.381   2.301
57588W        W25806  14.624   1.205  11.192
57589W        W25807   5.635  17.651   3.762
57590W        W25808  30.838  44.693  13.668
57591W        W25809  10.768  26.936   2.900
57592W        W25810   1.903  23.456  12.075
57593W        W25811  32.468  13.628   2.794
57594W        W25812  35.105   6.304  13.371
57595W        W25813   8.036   3.370   4.186
57596W        W25814  33.633  33.550   1.853
57597W        W25815  40.436  30.064   3.694
57598W        W25816  20.691   5.331  14.490
57599W        W25817  25.080  19.235   2.810
57600W        W25818  37.348  13.207   3.211
57601W        W25819  18.661  32.415   2.649
57602W        W25820  22.217  42.756   2.696
57603W        W25821  32.911  31.884   0.976
57604W        W25822   9.271   1.244   4.512
57605W        W25823  42.346  21.745  10.941
57606W        W25824  10.915  41.317  12.433
57607W        W25825  21.820  10.148   3.683
57608W        W25826  20.847   8.824   5.063
57609W        W25827  11.619  37.575   0.274
57610W        W25828  44.918   0.762   4.462
57611W        W25829   0.506  44.893  14.581
57612W        W25830  36.327  18.065  12.490
57613W        W25831  34.800  41.423   1.389
57614W        W25832   4.086  12.451  13.164
57615W        W25833  15.611  20.140  14.947
57616W        W25834  26.601  15.603  14.785
57617W        W25835  12.351  18.252   0.043
57618W        W25836  15.273  44.990  14.919
57619W        W25837  14.759  22.935  11.593
57620W        W25838  37.871  13.667   2.400
57621W        W25839  21.141  32.612  14.700
57622W        W25840  27.980  12.009   4.413
57623W        W25841  26.956  19.091   1.409
57624W        W25842  39.858  20.910  12.073
57625W        W25843   5.793   5.265  14.502
57626W        W25844  15.252  13.883  13.060
57627W        W25845  15.546   7.313   2.898
57628W        W25846  43.703  21.240   1.294
57629W        W25847  24.304  12.848  10.717
57630W        W25848  22.672   3.910  10.323
57631W        W25849   3.162  15.375  10.688
57632W        W25850  42.864  18.760  13.125
57633W        W25851  33.429  17.054   4.891
57634W        W25852  19.806  17.335  12.076
57635W        W25853  11.381  17.631  13.060
57636W        W25854  25.010  24.701  13.788
57637W        W25855  15.372  11.851   0.640
57638W        W25856   5.244  17.867   2.855
57639W        W25857  19.163  34.901  11.484
57640W        W25858  28.983   1.441   1.622
57641W        W25859  21.127  11.237   3.991
57642W        W25860   6.723  20.646  14.303
57643W        W25861   6.349   9.444   0.396
57644W        W25862  28.947  11.334  11.549
57645W        W25863   6.111   2.102  11.443
57646W        W25864  10.438   6.253   1.426
57647W        W25865   5.044  13.649   1.199
57648W        W25866  32.928  38.996   1.855
57649W        W25867  16.647  34.431   4.572
57650W        W25868  33.460  26.292   0.946
57651W        W25869  28.944  32.968  11.450
57652W        W25870  39.044  29.016  13.554
57653W        W25871  25.529  22.742   3.709
57654W        W25872   2.195  36.890   2.146
57655W        W25873  26.963  36.478   1.663
57656W        W25874  42.243  22.269  12.628
57657W        W25875   3.565  18.614  12.985
57658W        W25876   6.706   4.395  11.906
57659W        W25877  42.835  31.461   1.386
57660W        W25878  11.912   6.643   2.834
57661W        W25879  12.626  17.353   0.808
57662W        W25880  24.419  34.525  14.861
57663W        W25881  39.937  16.241  10.695
57664W        W25882  16.601  12.079   1.704
57665W        W25883  37.356   2.935   1.407
57666W        W25884   0.190  42.902   2.338
57667W        W25885  32.416  28.365  12.292
57668W        W25886  31.477  21.029   0.336
57669W        W25887   5.821  31.959  11.965
57670W        W25888  44.620   9.613   0.698
57671W        W25889  44.897  32.617   4.670
57672W        W25890  44.360  12.239  12.662
57673W        W25891  27.509  15.624   0.238
57674W        W25892  26.450  44.375  13.836
57675W        W25893  25.077   2.820  10.695
57676W        W25894   7.012  34.058  11.936
57677W        W25895   3.914  28.478   1.472
57678W        W25896  30.856   2.964  13.929
57679W        W25897   9.695   7.666   2.662
57680W        W25898  22.661  15.699   0.264
57681W        W25899  44.875  42.171   3.308
57682W        W25900  37.400   1.494   1.266
57683W        W25901  24.979  22.637  14.332
57684W        W25902  19.523  16.316   4.799
57685W        W25903  37.736  14.143   0.741
57686W        W25904  32.424  24.813  12.010
57687W        W25905  39.986   3.888  11.504
57688W        W25906  30.945  39.505   4.802
57689W        W25907  10.860   0.800   0.705
57690W        W25908   0.021   0.433  13.124
57691W        W25909  21.957  41.227  11.191
57692W        W25910  34.917  11.787  14.022
57693W        W25911   9.681  22.025   0.843
57694W        W25912  25.192  25.162   0.448
57695W        W25913   3.028  34.047  10.650
57696W        W25914  27.038  33.134   3.115
57697W        W25915  17.035  41.417   4.600
57698W        W25916  28.111  30.669  14.304
57699W        W25917  24.280  19.840   3.836
57700W        W25918   9.879   7.882  11.901
57701W        W25919   7.616  40.585   1.809
57702W        W25920  37.520  13.608   0.793
57703W        W25921  29.904  25.054  14.061
57704W        W25922  33.049   1.735  10.158
57705W        W25923  29.930  22.966   4.299
57706W        W25924  24.975  21.687  12.626
57707W        W25925   0.584  23.051   1.760
57708W        W25926  33.208  37.013   2.156
57709W        W25927  44.590  30.390  11.586
57710W        W25928  13.740   4.912   4.489
57711W        W25929   3.272  14.740   4.095
57712W        W25930  39.936  24.818  13.493
57713W        W25931  15.174   4.217   2.920
57714W        W25932   8.429   2.497   2.707
57715W        W25933  44.223  21.045   2.695
57716W        W25934   8.136   5.391   1.785
57717W        W25935  42.591  19.601   2.308
57718W        W25936  11.304  34.074  12.430
57719W        W25937   5.918  25.425   3.730
57720W        W25938  18.240  19.082   4.450
57721W        W25939  14.624   0.978   0.903
57722W        W25940   5.784   4.279   1.458
57723W        W25941  42.966  36.338  13.372
57724W        W25942  36.487  32.790   1.746
57725W        W25943  16.344  25.311  11.144
57726W        W25944  18.444   6.416  10.689
57727W        W25945  11.892  37.587   1.416
57728W        W25946  41.032  35.997  10.613
57729W        W25947   0.530  12.117   3.099
57730W        W25948  44.956  28.624  11.112
57731W        W25949  27.474  30.588   3.351
57732W        W25950  31.494  38.020  12.534
57733W        W25951  33.601   1.798  11.284
57734W        W25952  30.591   7.937  11.065
57735W        W25953   4.347  18.367   3.595
57736W        W25954  22.725  24.694   1.867
57737W        W25955  32.957  16.849  12.521
57738W        W25956  35.618  12.972   3.593
57739W        W25957  21.489  24.051  11.129
57740W        W25958   9.260  32.502  11.023
57741W        W25959  29.202  10.360  13.036
57742W        W25960   9.581  24.909   0.259
57743W        W25961  16.075   4.773   1.742
57744W        W25962  24.425  16.714  13.532
57745W        W25963   4.278  44.195   2.596
57746W        W25964  25.112  14.600   3.814
57747W        W25965  40.880  33.235  13.041
57748W        W25966  32.473  42.344   0.924
57749W        W25967  24.163  15.181   3.293
57750W        W25968   2.452  24.364   1.133
57751W        W25969   3.490   8.826   2.445
57752W        W25970  22.726   3.801  14.036
57753W        W25971  17.608  15.265  12.489
57754W        W25972  40.753  21.277  12.807
57755W        W25973  20.700  33.671  14.797
57756W        W25974  43.937  31.367   4.033
57757W        W25975  38.433   5.239  14.744
57758W        W25976  18.306   4.307  12.077
57759W        W25977  13.062  42.266  11.583
57760W        W25978  11.109  29.171  12.409
57761W        W25979   9.632  26.219   1.279
57762W        W25980  15.104  23.114  13.525
57763W        W25981   8.147  36.907   1.736
57764W        W25982  44.668  23.280  11.195
57765W        W25983  24.980   0.953  14.331
57766W        W25984   7.244   8.241   3.596
57767W        W25985  44.524  13.149  14.912
57768W        W25986  17.703   0.042  13.111
57769W        W25987  31.482  18.784   2.897
57770W        W25988  42.493  12.998  10.557
57771W        W25989  29.110  33.417   4.177
57772W        W25990  21.407   8.465  13.839
57773W        W25991   7.700   6.477  14.938
57774W        W25992  39.639   1.342  11.501
57775W        W25993  13.561  15.114   2.268
57776W        W25994   2.006  17.531  14.351
57777W        W25995  33.440   7.941   4.998
57778W        W25996  11.847  34.473   2.789
57779W        W25997  30.657  32.015   4.335
57780W        W25998   4.807  44.872  12.330
57781W        W25999  27.175  28.937  12.884
57782W        W26000  42.050   0.019   0.453
57783W        W26001  26.484  34.099   1.262
57784W        W26002  29.040  39.702  12.542
57785W        W26003   7.311  17.057  14.961
57786W        W26004  38.948  35.430   3.211
57787W        W26005  34.463   2.826   3.082
57788W        W26006  28.518  44.823   3.730
57789W        W26007   3.248  34.559  14.922
57790W        W26008  32.903   7.157  12.454
57791W        W26009  29.113   4.834   1.357
57792W        W26010  21.815  17.701   3.356
57793W        W26011  24.003  32.107   4.627
57794W        W26012  11.262   1.873   1.656
57795W        W26013  22.029  17.035  11.027
57796W        W26014  44.908  35.107  14.402
57797W        W26015  32.659  15.877  10.211
57798W        W26016  31.497   9.170  10.625
57799W        W26017   6.982  35.236   4.386
57800W        W26018  38.134  38.904  14.501
57801W        W26019   3.941  32.043   2.935
57802W        W26020  41.841  35.971  14.263
57803W        W26021   6.442  43.503   0.463
57804W        W26022   7.802  24.098  10.898
57805W        W26023  28.374  42.680  14.972
57806W        W26024   4.173   6.702   1.448
57807W        W26025  15.215  19.246  13.102
57808W        W26026  31.410   4.669   3.249
57809W        W26027  43.753  18.786  13.108
57810W        W26028  24.660  18.524   1.239
57811W        W26029  42.382  43.607   0.475
57812W        W26030  25.115  15.125   3.949
57813W        W26031  12.584  35.146   4.594
57814W        W26032  25.207  38.088  13.466
57815W        W26033  25.634   7.754  11.485
57816W        W26034  10.303  17.319  12.384
57817W        W26035  18.306   9.140   2.803
57818W        W26036  24.699  33.876   3.796
57819W        W26037  15.896   6.769   5.020
57820W        W26038  11.754  41.112   3.846
57821W        W26039  44.490   2.647   2.654
57822W        W26040  15.123   1.476   4.236
57823W        W26041  36.780   9.888   1.669
57824W        W26042   6.813   9.136  14.020
57825W        W26043  19.067  14.327  11.618
57826W        W26044  29.445  28.547  14.096
57827W        W26045   7.353  36.859  11.059
57828W        W26046  27.560  26.127  14.781
57829W        W26047  36.393  26.256   3.161
57830W        W26048  28.676  32.799   2.257
57831W        W26049  40.629  41.882  11.952
57832W        W26050  19.661  23.691   3.449
57833W        W26051  27.097  19.108   0.903
57834W        W26052  11.315  28.448  13.874
57835W        W26053  15.432  11.416   0.897
57836W        W26054  14.853  15.769  10.195
57837W        W26055   8.314  26.542  11.405
57838W        W26056   3.132  11.110   2.719
57839W        W26057  18.890   6.916   4.243
57840W        W26058  36.300   7.550   4.644
57841W        W26059  44.720  14.768  13.365
57842W        W26060  18.209  22.574   4.149
57843W        W26061  27.839   0.535  14.938
57844W        W26062  26.024   3.300  12.104
57845W        W26063  17.991  40.015  14.241
57846W        W26064  41.043  28.602   0.734
57847W        W26065  19.320  23.120  11.923
57848W        W26066   9.733   6.588   2.741
57849W        W26067   2.246  28.775   0.309
57850W        W26068  35.440  39.646   2.752
57851W        W26069  13.774  24.255   3.211
57852W        W26070  18.291  23.231   0.939
57853W        W26071  40.641  33.594   1.487
57854W        W26072  41.048  27.070  13.880
57855W        W26073   0.311  42.800   3.252
57856W        W26074   2.352  42.759  11.117
57857W        W26075  37.477  15.331  12.414
57858W        W26076  34.091  22.540   0.333
57859W        W26077   7.652  44.367  10.727
57860W        W26078  13.810  27.097   3.941
57861W        W26079  31.490   7.281   0.958
57862W        W26080  38.075  26.111   4.234
57863W        W26081  32.447  15.847   1.910
57864W        W26082  44.588   0.082   0.337
57865W        W26083  42.354  18.647   4.074
57866W        W26084  34.534  28.267  12.896
57867W        W26085  41.041  18.426   4.145
57868W        W26086  12.242   5.860   1.478
57869W        W26087   7.820  44.639   0.289
57870W        W26088  39.466   6.641  13.977
57871W        W26089  39.798  14.507   2.405
57872W        W26090  22.082   9.650  14.680
57873W        W26091  39.206  31.348   4.950
57874W        W26092  12.478  32.581  14.767
57875W        W26093  15.644  28.529   4.527
57876W        W26094   4.255  20.671   0.774
57877W        W26095  25.700  19.096  11.136
57878W        W26096  11.316   8.129   3.445
57879W        W26097  41.019  32.436  11.611
57880W        W26098  22.064  41.690   1.118
57881W        W26099  20.410  10.128   2.683
57882W        W26100  31.605  36.014  10.360
57883W        W26101  15.783  24.084  10.814
57884W        W26102  27.438   8.166  11.592
57885W        W26103  19.266   8.845  12.444
57886W        W26104  32.302   3.318  14.388
57887W        W26105  31.536  35.385  12.951
57888W        W26106   2.408  22.566   4.727
57889W        W26107  34.364  44.903  12.466
57890W        W26108   2.439  31.897  13.982
57891W        W26109   7.338  43.889  14.437
57892W        W26110  39.762  28.635  11.534
57893W        W26111  15.300  22.141   0.248
57894W        W26112   2.524  10.244  13.971
57895W        W26113  14.352  25.246  12.407
57896W        W26114  39.901  32.882  13.027
57897W        W26115   1.870  34.879   0.386
57898W        W26116  13.876   3.300   2.999
57899W        W26117  33.483  19.563  12.880
57900W        W26118  25.073  27.406  13.030
57901W        W26119  34.327  38.154  10.704
57902W        W26120  17.841  16.983  14.337
57903W        W26121  23.157  42.775  13.011
57904W        W26122  22.994  27.611  13.808
57905W        W26123  40.308  39.810   1.851
57906W        W26124  31.386  36.811  14.302
57907W        W26125  19.615  19.771  13.629
57908W        W26126  41.536  14.189   4.271
57909W        W26127  25.632   1.680   4.180
57910W        W26128  40.535  41.409   2.747
57911W        W26129  37.677  41.899  13.883
57912W        W26130  32.367   6.759  11.589
57913W        W26131  14.397   4.972  11.235
57914W        W26132  23.299  30.428  14.336
57915W        W26133  27.632  37.617   4.647
57916W        W26134  40.365  27.092   1.851
57917W        W26135  31.038  10.372  14.814
57918W        W26136  41.897  24.524  14.249
57919W        W26137  16.064  42.468  14.416
57920W        W26138  28.097  19.022  14.347
57921W        W26139   1.391  15.046  13.555
57922W        W26140   0.373  27.695   0.515
57923W        W26141  40.082  26.127  14.357
57924W        W26142   8.720  14.716  10.477
57925W        W26143  42.889  28.472  13.496
57926W        W26144  40.279  43.013   3.033
57927W        W26145  33.621   2.693   1.602
57928W        W26146  14.652  31.669  12.317
57929W        W26147  38.146  28.036   4.579
57930W        W26148  43.999  14.760  11.626
57931W        W26149  34.288  29.690  10.993
57932W        W26150   1.884  14.870  14.031
57933W        W26151  30.926   2.233   1.326
57934W        W26152   6.774  39.950  11.983
57935W        W26153   8.951  21.750  14.314
57936W        W26154  21.969  41.906   3.232
57937W        W26155  15.525  43.253  11.176
57938W        W26156  31.427  33.980  12.952
57939W        W26157  43.663  19.274  10.469
57940W        W26158  11.633  29.549  13.980
57941W        W26159   7.763  13.217  14.979
57942W        W26160   4.278  11.740  14.916
57943W        W26161  17.845  29.716   3.671
57944W        W26162  24.967  20.774   1.139
57945W        W26163  24.479   5.265   4.238
57946W        W26164   9.091  18.311   2.426
57947W        W26165   8.349  29.005  14.799
57948W        W26166   9.297  34.620   1.973
57949W        W26167  24.266  20.995   5.061
57950W        W26168  23.849  30.518   4.992
57951W        W26169   8.181  19.965   4.247
57952W        W26170  30.920  37.575   4.314
57953W        W26171  43.700  41.853   2.135
57954W        W26172  39.191  32.517  13.395
57955W        W26173  40.433  15.811   0.489
57956W        W26174  21.796  25.910   1.280
57957W        W26175  38.839   2.987  12.472
57958W        W26176  19.521  10.869  13.509
57959W        W26177  17.616  31.216  13.035
57960W        W26178  27.907   9.882   1.375
57961W        W26179  28.085   7.523  11.926
57962W        W26180  41.450  32.556   4.144
57963W        W26181  42.955  32.056  12.910
57964W        W26182  30.355  13.665   3.737
57965W        W26183  36.790  29.658  14.289
57966W        W26184  37.034  20.272  14.292
57967W        W26185  33.421  15.656   2.873
57968W        W26186   8.149   0.282  12.848
57969W        W26187  27.388  32.379  13.082
57970W        W26188  19.532  34.275  13.985
57971W        W26189   1.275  16.574   0.602
57972W        W26190   2.628  21.185  12.635
57973W        W26191  37.892  36.913  12.998
57974W        W26192  43.128   3.191  11.137
57975W        W26193  31.293   4.971  10.706
57976W        W26194  15.346  19.044   4.543
57977W        W26195  20.536  41.795  11.325
57978W        W26196   5.917  26.940   1.681
57979W        W26197  39.353  14.570   1.313
57980W        W26198  11.086  38.411   2.323
57981W        W26199  27.632   2.306  12.047
57982W        W26200  41.354  30.519   2.041
57983W        W26201   2.856  21.262  12.188
57984W        W26202   8.103  38.803  11.803
57985W        W26203  17.543  30.502   4.078
57986W        W26204  10.558  24.218   3.631
57987W        W26205  19.832  14.535  13.353
57988W        W26206  43.424  36.595  13.453
57989W        W26207  24.022   3.469   1.574
57990W        W26208   0.413  38.982   2.129
57991W        W26209  44.082   4.461   3.129
57992W        W26210  37.787  30.672  12.532
57993W        W26211  27.656  32.520  12.136
57994W        W26212  14.889  29.141   1.010
57995W        W26213  30.960  12.387   4.076
57996W        W26214  39.870  42.037  12.504
57997W        W26215  38.487  29.728   3.154
57998W        W26216  32.044  44.011  10.548
57999W        W26217  35.972  37.619  11.653
58000W        W26218  36.387  21.461   1.550
58001W        W26219   9.374  42.541   4.966
58002W        W26220  42.581  20.477   0.248
58003W        W26221  17.759  26.945   4.106
58004W        W26222  28.424  18.684  14.069
58005W        W26223   6.294  38.743   4.585
58006W        W26224  35.018  16.280   2.098
58007W        W26225  33.364  26.169  13.398
58008W        W26226   1.910  22.675   4.881
58009W        W26227  15.666  10.886   4.340
58010W        W26228  14.280   2.347   3.274
58011W        W26229  20.622   9.914  13.342
58012W        W26230  19.663  23.075   2.843
58013W        W26231   7.780  14.152   4.507
58014W        W26232  11.179  16.158  13.390
58015W        W26233  12.906  19.351  14.299
58016W        W26234  28.899  17.134   1.795
58017W        W26235  40.406   3.386   3.595
58018W        W26236  10.776   0.691  12.750
58019W        W26237   2.218   7.273   2.313
58020W        W26238  43.687  24.992  14.864
58021W        W26239  39.945  21.209  12.494
58022W        W26240  33.139  10.883   0.917
58023W        W26241   3.402   9.510  12.444
58024W        W26242  23.312  34.488   9.891
58025W        W26243  14.898  18.229  10.374
58026W        W26244  31.197  18.231  10.545
58027W        W26245  27.701  16.831   1.896
58028W        W26246   1.471   8.124   4.637
58029W        W26247  34.015  23.763   4.588
58030W        W26248  32.995  18.299   4.801
58031W        W26249  31.102   6.573  12.932
58032W        W26250   1.110  12.242   1.825
58033W        W26251  22.230   3.746  14.949
58034W        W26252   1.767   4.722  11.797
58035W        W26253  40.169  30.410  11.757
58036W        W26254  39.377  43.158  10.761
58037W        W26255   4.966  26.483  14.691
58038W        W26256  17.797  36.876  12.937
58039W        W26257  13.161   1.198  12.406
58040W        W26258   4.374  14.194  13.360
58041W        W26259  43.213  15.711  13.779
58042W        W26260  21.691   8.387   0.162
58043W        W26261   3.912  24.877   0.930
58044W        W26262  24.313  28.737   4.209
58045W        W26263  35.379  38.830   1.018
58046W        W26264  44.771  23.054   3.687
58047W        W26265  13.037  34.573  13.418
58048W        W26266  33.495  11.433  12.840
58049W        W26267  13.733  37.551   4.406
58050W        W26268  41.706   1.489   0.303
58051W        W26269  37.788  42.809  11.155
58052W        W26270   4.279  35.412   4.213
58053W        W26271  13.644  34.407   3.480
58054W        W26272  34.661  43.784   4.184
58055W        W26273   0.297  33.404  10.338
58056W        W26274  21.068  38.965   4.351
58057W        W26275   3.842  27.897  11.236
58058W        W26276  15.889   6.649  11.688
58059W        W26277  19.293  38.926   2.172
58060W        W26278  28.135  39.325   4.444
58061W        W26279  32.210   7.746  14.292
58062W        W26280  25.181  29.557  14.905
58063W        W26281  43.958  31.376   0.012
58064W        W26282   7.375   4.893   1.333
58065W        W26283   3.865  24.376   0.993
58066W        W26284  21.660  31.866  14.774
58067W        W26285   3.783  25.908   4.685
58068W        W26286  38.305  26.721   0.403
58069W        W26287  39.762  29.504   0.263
58070W        W26288  22.810  32.949   0.861
58071W        W26289   0.167  37.656  14.004
58072W        W26290  23.730  26.062  11.987
58073W        W26291  18.527  44.836  11.920
58074W        W26292  26.378  24.700   4.545
58075W        W26293   8.320  13.364  14.239
58076W        W26294  24.664  33.041  11.866
58077W        W26295  11.117  24.542  11.716
58078W        W26296  38.342  26.311  13.455
58079W        W26297  44.157  20.687  12.075
58080W        W26298   2.472   8.116  12.007
58081W        W26299  23.633  35.437   1.353
58082W        W26300  18.738  22.501   1.498
58083W        W26301  28.923  13.052   1.142
58084W        W26302  31.396   4.993   4.909
58085W        W26303  11.821  31.634   1.415
58086W        W26304   2.745   0.938  11.309
58087W        W26305  24.004   7.479   1.783
58088W        W26306  14.561   9.530   3.532
58089W        W26307   3.325   4.422  14.053
58090W        W26308  14.744  18.356   4.559
58091W        W26309  39.779  10.121   2.385
58092W        W26310  11.586  33.545  14.000
58093W        W26311  16.670  16.314   2.366
58094W        W26312  27.004  39.791  11.592
58095W        W26313  12.706  33.643  11.542
58096W        W26314  14.073  25.210   1.893
58097W        W26315  12.555  15.776  14.291
58098W        W26316  39.649  29.104  13.217
58099W        W26317   8.800   1.049   2.279
58100W        W26318  37.240   0.264  10.477
58101W        W26319  18.606  12.710   4.114
58102W        W26320   8.412  32.692   1.813
58103W        W26321  13.997   1.795   3.522
58104W        W26322  26.564  22.911   0.898
58105W        W26323   8.491   7.676  13.862
58106W        W26324  26.077   0.476   1.191
58107W        W26325  25.430  41.206  10.016
58108W        W26326  10.211  24.951  13.060
58109W        W26327   4.279  34.613   4.608
58110W        W26328  19.864  23.977   2.660
58111W        W26329   5.682  14.891   1.221
58112W        W26330   9.733  27.996  14.316
58113W        W26331  16.899  15.190   1.885
58114W        W26332   8.583  34.145  14.463
58115W        W26333   5.192  12.619   3.636
58116W        W26334   7.179  24.476   3.599
58117W        W26335  38.502   8.199   2.576
58118W        W26336  24.151  36.509   1.382
58119W        W26337   2.679  41.085  14.026
58120W        W26338  14.775  40.782   3.203
58121W        W26339   5.427   0.375  11.452
58122W        W26340  10.709   3.101  12.266
58123W        W26341  32.091   1.343  12.016
58124W        W26342   2.350  27.401  12.442
58125W        W26343  42.877  19.581  14.781
58126W        W26344  34.419   1.371   3.889
58127W        W26345  15.768  19.307  12.098
58128W        W26346   4.083  19.744  12.044
58129W        W26347   4.131  32.864   4.190
58130W        W26348  26.554  22.663  13.943
58131W        W26349   8.559  41.865   1.968
58132W        W26350  21.511  34.589   1.839
58133W        W26351  15.811   1.894   2.127
58134W        W26352  15.522  25.269  10.731
58135W        W26353  10.233  34.093  13.090
58136W        W26354   7.625  36.815   0.440
58137W        W26355  22.375  12.469  10.763
58138W        W26356  24.236  10.286  12.069
58139W        W26357  17.768  44.789   4.665
58140W        W26358  40.311  41.755   0.666
58141W        W26359   6.513  41.564   4.513
58142W        W26360   9.595  23.547   0.021
58143W        W26361  36.938  38.106   1.189
58144W        W26362  22.153  16.844   0.679
58145W        W26363  17.949  25.310  13.487
58146W        W26364  13.647  38.903   2.912
58147W        W26365  18.847  25.718  11.661
58148W        W26366  16.609  27.956   0.777
58149W        W26367   9.397  29.767   2.735
58150W        W26368   9.789   7.100  10.794
58151W        W26369  34.701  22.205  13.171
58152W        W26370  22.713  21.076   1.770
58153W        W26371  31.920  23.992  10.796
58154W        W26372  36.651   3.520   0.552
58155W        W26373  19.148  29.504  12.534
58156W        W26374  21.686  35.931   9.965
58157W        W26375   5.553  31.561   2.699
58158W        W26376  25.722  12.591  12.951
58159W        W26377  23.060  39.101  14.742
58160W        W26378  13.314  14.188   4.661
58161W        W26379   6.802  17.816   4.489
58162W        W26380  18.806  18.639   4.785
58163W        W26381  31.399   3.365   1.863
58164W        W26382  32.183  27.014  14.839
58165W        W26383  22.146  39.578  11.582
58166W        W26384  43.696   4.031  11.975
58167W        W26385   3.260  31.424   3.826
58168W        W26386  25.212   0.054   1.118
58169W        W26387  13.647  14.306   2.860
58170W        W26388  18.797   7.135  11.296
58171W        W26389  37.970  40.566   2.826
58172W        W26390  20.322   9.629   2.588
58173W        W26391  20.733  13.031   4.468
58174W        W26392  23.270   7.747   4.691
58175W        W26393  33.581   9.635   4.091
58176W        W26394  42.452   7.916  13.595
58177W        W26395  33.955   3.974   3.603
58178W        W26396  37.827  42.002   1.000
58179W        W26397  28.894  25.732  14.926
58180W        W26398  13.089  17.126   0.771
58181W        W26399  21.561  38.341   4.344
58182W        W26400  42.494  22.679  10.858
58183W        W26401  33.444  16.103   0.878
58184W        W26402   7.720  14.131  12.043
58185W        W26403  28.262  30.396  10.532
58186W        W26404   2.108   3.384   4.957
58187W        W26405  29.157  32.883   0.462
58188W        W26406  34.934   1.717  11.533
58189W        W26407  31.122  33.596   0.786
58190W        W26408  31.332  32.044   4.906
58191W        W26409  27.107  27.248   0.373
58192W        W26410  44.313  18.074  13.882
58193W        W26411  19.462   2.413  12.152
58194W        W26412  20.098   4.878   4.010
58195W        W26413  43.806   5.290   4.454
58196W        W26414   4.184  34.479   2.254
58197W        W26415  39.946  39.393   0.892
58198W        W26416  11.895   7.672   0.354
58199W        W26417  38.362   0.863  13.673
58200W        W26418  42.065  16.706   2.772
58201W        W26419   8.344   7.397   3.105
58202W        W26420   4.452   6.932   4.196
58203W        W26421  37.132  13.675  10.667
58204W        W26422  23.767  35.612   4.334
58205W        W26423  17.551  20.055  12.948
58206W        W26424  28.915  34.153   3.716
58207W        W26425   9.173  35.544   1.503
58208W        W26426  41.043  35.493  14.281
58209W        W26427  22.433  42.421  12.028
58210W        W26428  34.050   3.748  13.632
58211W        W26429  12.340   6.905   0.230
58212W        W26430  18.575  19.208  12.582
58213W        W26431   9.301  35.166   2.901
58214W        W26432   6.013  43.242   3.633
58215W        W26433   0.274  30.540   2.686
58216W        W26434  15.133  12.279  14.016
58217W        W26435   0.488  27.551  14.156
58218W        W26436  25.414  15.053  12.142
58219W        W26437  16.178  19.991   4.397
58220W        W26438   1.758  30.099   3.694
58221W        W26439  15.389  40.822   2.942
58222W        W26440  11.833   7.221   1.854
58223W        W26441  37.482  38.405  13.587
58224W        W26442   2.044  29.880  13.454
58225W        W26443  33.324   1.804  14.601
58226W        W26444   5.497  12.781   1.349
58227W        W26445   2.783  40.314   0.576
58228W        W26446  23.099   4.720  14.783
58229W        W26447  36.360  12.931   2.398
58230W        W26448  34.299   3.929  11.209
58231W        W26449   8.594  26.746  14.663
58232W        W26450  27.137  11.763  13.362
58233W        W26451  41.436  24.670  13.480
58234W        W26452   1.543  21.155   0.222
58235W        W26453  29.436  43.399  11.680
58236W        W26454   5.923  36.597   3.218
58237W        W26455  12.633   3.403  11.113
58238W        W26456  14.736  40.273  12.457
58239W        W26457  42.279   7.170  14.267
58240W        W26458  36.701  29.444   5.034
58241W        W26459  14.709  43.825   3.963
58242W        W26460  19.707  23.478   0.230
58243W        W26461  38.173   0.337  12.577
58244W        W26462  15.579  35.284  14.222
58245W        W26463  24.567  27.176  11.035
58246W        W26464  34.370  12.399  12.491
58247W        W26465  37.520  33.601   1.239
58248W        W26466  31.759  37.525  10.796
58249W        W26467  15.295  14.902   3.236
58250W        W26468  30.700  18.613  11.505
58251W        W26469  28.110  16.849   9.998
58252W        W26470   4.778  43.838   4.418
58253W        W26471  39.884   5.402  14.105
58254W        W26472   8.631  35.975  11.581
58255W        W26473  16.560  17.300   4.053
58256W        W26474   9.901  15.675  14.115
58257W        W26475  32.012  44.018  10.017
58258W        W26476  12.793  11.371   1.779
58259W        W26477  15.101  16.749  13.726
58260W        W26478  36.339   1.899   1.397
58261W        W26479   5.947  37.839   3.940
58262W        W26480   7.622  24.225  13.476
58263W        W26481  10.365  23.290   3.555
58264W        W26482  28.016   8.708   3.120
58265W        W26483  21.958   5.280  12.963
58266W        W26484  41.997  30.463   3.718
58267W        W26485  25.876  16.140   4.022
58268W        W26486  41.043   5.917   4.618
58269W        W26487   1.750  17.471  12.846
58270W        W26488   1.497  44.679   2.290
58271W        W26489   6.584  27.734  11.573
58272W        W26490  36.089   2.915   0.322
58273W        W26491  18.134  30.812   2.876
58274W        W26492   4.362  40.092  10.657
58275W        W26493   6.758   9.391  12.031
58276W        W26494   5.238   6.664   3.706
58277W        W26495   9.212  14.648   2.703
58278W        W26496  38.037  23.283   1.813
58279W        W26497  29.938  20.622  11.545
58280W        W26498  44.951   8.724  14.344
58281W        W26499  35.831  28.151  14.529
58282W        W26500  36.555  18.217   3.470
58283W        W26501  34.877  24.686  12.847
58284W        W26502  17.807  35.593   1.402
58285W        W26503  13.124  36.036   4.593
58286W        W26504  28.547  29.586   3.120
58287W        W26505  25.555  34.598   3.550
58288W        W26506  13.785  25.933  11.486
58289W        W26507  26.795  36.956   4.231
58290W        W26508   5.160   2.595  10.710
58291W        W26509  18.206  13.631  12.364
58292W        W26510  43.443  38.025   3.291
58293W        W26511  40.790  32.892  14.818
58294W        W26512   4.082   6.848  10.707
58295W        W26513  15.734   9.454   4.122
58296W        W26514   8.659  41.116  11.215
58297W        W26515  11.014  16.128  10.947
58298W        W26516  16.974  29.544  13.536
58299W        W26517  25.267  16.157  10.224
58300W        W26518  35.471  41.117  10.488
58301W        W26519  37.868  18.908   1.893
58302W        W26520  22.136   3.014   0.817
58303W        W26521  31.440  16.273  10.586
58304W        W26522  27.125  39.303  11.624
58305W        W26523  34.152  18.999   3.266
58306W        W26524  29.906  18.223  12.570
58307W        W26525   1.883  11.764  10.719
58308W        W26526  17.875   4.266  14.779
58309W        W26527  37.008  40.387  10.971
58310W        W26528   4.460  37.574  12.774
58311W        W26529  33.376  16.847  13.507
58312W        W26530  36.468  34.868   0.930
58313W        W26531  35.480   9.570   2.162
58314W        W26532   4.433  19.736   0.604
58315W        W26533   2.963  25.027  12.480
58316W        W26534  39.790  19.542   0.992
58317W        W26535  21.111  26.952   0.947
58318W        W26536  35.851  37.899  10.750
58319W        W26537  26.585  13.722  12.779
58320W        W26538  43.916  41.174  12.205
58321W        W26539  31.819  38.453   3.248
58322W        W26540  30.108   0.823   2.410
58323W        W26541  20.211   6.402  10.650
58324W        W26542  29.469  41.551  11.663
58325W        W26543   3.286  42.796   3.147
58326W        W26544  37.049  19.619  14.376
58327W        W26545  12.311   8.893   0.019
58328W        W26546  39.780   9.415  14.936
58329W        W26547  22.425  10.745  11.829
58330W        W26548   9.586   0.222   4.224
58331W        W26549  10.434   1.517  13.002
58332W        W26550  18.648  32.450   3.585
58333W        W26551  37.207  13.444  11.130
58334W        W26552   6.150  36.070  14.531
58335W        W26553  17.106  25.480   2.445
58336W        W26554   6.550  29.034   4.868
58337W        W26555   1.342  34.409  12.877
58338W        W26556   5.144  44.914  12.834
58339W        W26557  11.667   3.786  11.618
58340W        W26558  38.443   2.659   3.375
58341W        W26559   5.439  32.433  14.062
58342W        W26560  31.471  39.729   4.030
58343W        W26561  39.044  24.170   1.488
58344W        W26562   6.887  36.450   4.695
58345W        W26563   6.645   1.739   0.127
58346W        W26564  36.457  19.701  14.840
58347W        W26565  21.742  10.631  13.059
58348W        W26566  13.600  44.302  14.807
58349W        W26567  30.709  37.531  13.912
58350W        W26568   3.685  21.666  12.071
58351W        W26569  10.334  40.594   1.077
58352W        W26570  22.232  40.607  13.861
58353W        W26571  27.834  39.828  11.959
58354W        W26572  16.512  33.610   2.434
58355W        W26573  34.856  43.235  11.750
58356W        W26574  22.756  17.840  11.088
58357W        W26575  18.023  33.010  12.029
58358W        W26576  38.117  40.778   4.146
58359W        W26577  24.306  44.397   3.261
58360W        W26578  15.939   9.497   2.105
58361W        W26579  36.505  24.085  11.689
58362W        W26580   2.160  36.973   0.760
58363W        W26581   6.777  14.144   0.191
58364W        W26582  32.457  28.389   0.656
58365W        W26583   8.313   9.318  14.214
58366W        W26584  15.701  42.583   3.347
58367W        W26585  40.974   5.174  11.936
58368W        W26586  35.594  27.466  10.972
58369W        W26587  38.184   7.212   2.010
58370W        W26588  19.821   4.103   4.771
58371W        W26589  37.470  28.333   2.700
58372W        W26590  24.850  41.425   0.239
58373W        W26591  32.662  24.942  11.549
58374W        W26592  22.012  37.340   1.383
58375W        W26593  22.816   6.754   1.328
58376W        W26594  19.264  17.325  13.419
58377W        W26595   5.270  12.332  12.357
58378W        W26596   6.880  33.608   2.203
58379W        W26597  34.827  10.778   2.274
58380W        W26598  37.002  38.349  13.790
58381W        W26599  16.565  34.094   4.175
58382W        W26600  43.810  23.101  14.707
58383W        W26601  24.668  44.193  11.606
58384W        W26602  23.016   2.932  13.297
58385W        W26603  18.329  11.201  13.357
58386W        W26604  30.741  41.857  13.262
58387W        W26605  27.869  35.819   0.968
58388W        W26606   1.482  35.570   4.330
58389W        W26607  38.024  31.614  13.452
58390W        W26608   0.518  22.098   2.714
58391W        W26609   6.957  29.039  12.137
58392W        W26610  23.152  21.906   1.742
58393W        W26611   2.215  27.113   2.241
58394W        W26612  21.258  41.163   2.772
58395W        W26613  16.618  44.239  14.918
58396W        W26614   0.351   3.190  11.601
58397W        W26615  30.387  30.104  12.604
58398W        W26616  28.456  29.720  12.069
58399W        W26617   0.780  36.916  10.391
58400W        W26618  18.805   1.632   4.052
58401W        W26619  27.672  30.524  12.454
58402W        W26620   3.733   0.634  13.404
58403W        W26621   4.129  28.314  11.135
58404W        W26622  17.552  24.159   4.657
58405W        W26623  14.060  14.429   3.228
58406W        W26624  17.257  39.872  13.130
58407W        W26625  13.093  24.921   4.117
58408W        W26626  11.300  14.585   2.820
58409W        W26627  33.541   1.728   1.106
58410W        W26628  21.111  44.248   1.902
58411W        W26629   0.370  29.997  14.808
58412W        W26630  11.949  38.803  10.722
58413W        W26631  27.869  21.605  10.771
58414W        W26632  39.888  18.694   0.105
58415W        W26633  38.101   9.865  10.962
58416W        W26634  27.477  13.352   1.798
58417W        W26635  16.170   2.465  13.845
58418W        W26636  22.051  10.129   0.839
58419W        W26637  28.289  11.618   4.522
58420W        W26638   2.051  24.468  14.867
58421W        W26639   4.465  15.798   4.750
58422W        W26640  34.079  35.487  12.334
58423W        W26641  23.274  28.184  11.575
58424W        W26642   1.829  41.583   2.119
58425W        W26643   0.236  28.098   2.777
58426W        W26644  10.528  29.147  10.127
58427W        W26645   4.781  23.407   3.662
58428W        W26646  28.688  19.654   4.509
58429W        W26647  10.791  39.346  10.980
58430W        W26648  42.062  42.188   1.933
58431W        W26649  24.083  13.647   1.353
58432W        W26650   2.167   1.248   1.392
58433W        W26651  25.446  29.132   0.980
58434W        W26652  34.902  32.710   1.363
58435W        W26653  24.705  30.067   3.310
58436W        W26654   1.971  25.553   3.309
58437W        W26655   0.948  34.921   3.819
58438W        W26656  40.189  17.719   2.725
58439W        W26657  34.767   1.013   3.784
58440W        W26658  13.219  16.471  13.626
58441W        W26659  36.531  27.984   0.260
58442W        W26660  25.619  38.700   0.191
58443W        W26661  38.649  26.623   4.611
58444W        W26662  41.706  28.621   0.363
58445W        W26663   8.263  37.814   1.700
58446W        W26664  37.967  23.552  11.863
58447W        W26665  36.916  41.134   0.642
58448W        W26666   3.553  24.235  13.418
58449W        W26667   8.982  22.208  12.699
58450W        W26668  26.910   3.116  10.958
58451W        W26669  34.197   0.755   0.466
58452W        W26670  30.009  35.508   2.872
58453W        W26671  11.952  16.719   9.889
58454W        W26672  18.114  31.188  12.906
58455W        W26673  18.202  35.528   4.017
58456W        W26674  34.114  19.637  14.470
58457W        W26675  31.683   1.931   1.410
58458W        W26676  33.380  39.147   2.299
58459W        W26677  25.161  38.989   3.945
58460W        W26678   6.845  14.442  12.886
58461W        W26679   0.399  17.929  13.525
58462W        W26680  36.678  30.454   2.316
58463W        W26681  30.712   7.858   2.816
58464W        W26682  34.478  36.317   4.171
58465W        W26683  43.430   7.208   2.603
58466W        W26684  23.152  31.888  12.509
58467W        W26685  24.238  18.026   2.827
58468W        W26686  38.876  24.222   3.411
58469W        W26687  44.244  29.677   4.152
58470W        W26688  11.411   1.352   0.522
58471W        W26689  16.229   4.385  13.938
58472W        W26690  18.782  35.384  12.510
58473W        W26691  13.430  13.187  14.851
58474W        W26692   3.035   4.093  13.011
58475W        W26693  20.122  35.425   4.148
58476W        W26694  27.982  44.516   2.351
58477W        W26695  14.800   5.351   3.116
58478W        W26696  36.350   1.962  13.492
58479W        W26697  24.314  18.713   0.067
58480W        W26698   5.776  42.978   1.008
58481W        W26699  30.891  40.879   4.430
58482W        W26700  16.345  15.673  12.163
58483W        W26701  16.806  30.386  11.555
58484W        W26702  31.388  21.066   4.139
58485W        W26703   0.869   8.459  11.575
58486W        W26704   9.482  29.636  13.863
58487W        W26705  19.552  32.608   3.732
58488W        W26706  26.858   9.636   3.709
58489W        W26707  22.240  43.429   0.766
58490W        W26708  18.877   6.880  10.709
58491W        W26709  44.149  19.167   2.788
58492W        W26710  31.225  24.687   1.188
58493W        W26711  39.088  11.910   3.293
58494W        W26712  17.520  40.259  13.470
58495W        W26713  26.786  38.302   5.111
58496W        W26714  33.769  19.052   4.624
58497W        W26715   5.891  40.991   0.521
58498W        W26716  24.432  18.589   3.827
58499W        W26717  35.510  20.079  11.217
58500W        W26718  27.979  44.330  12.948
58501W        W26719  33.892  22.103  10.613
58502W        W26720  42.481  12.093   2.927
58503W        W26721  36.044  17.515   2.396
58504W        W26722   5.966  33.599   3.254
58505W        W26723   8.111  30.134   2.280
58506W        W26724   4.277   3.770  11.257
58507W        W26725  38.542  18.253   0.249
58508W        W26726   9.709  10.923   0.721
58509W        W26727  30.200   8.421   3.723
58510W        W26728  17.494  23.981  14.931
58511W        W26729  18.553   0.394   3.660
58512W        W26730  28.056   4.198  10.283
58513W        W26731  22.194  24.955   1.313
58514W        W26732  16.218  44.508  13.189
58515W        W26733  42.031  16.321   3.139
58516W        W26734  27.671  18.641   0.183
58517W        W26735  15.403   1.008   4.228
58518W        W26736  22.701  11.584  13.216
58519W        W26737  44.908   3.720   3.272
58520W        W26738   1.045  19.874   0.442
58521W        W26739  31.513  29.162   1.301
58522W        W26740  16.846  13.805  14.563
58523W        W26741  32.218  14.100  10.228
58524W        W26742  17.056  27.890  10.617
58525W        W26743  11.232  26.176   3.694
58526W        W26744  32.935  11.117   0.509
58527W        W26745  23.476  18.083  13.572
58528W        W26746  40.506  23.202   0.042
58529W        W26747  23.160  37.900   0.305
58530W        W26748  41.803  40.405   2.925
58531W        W26749  23.023  11.841  12.162
58532W        W26750  13.372  29.168   1.457
58533W        W26751  33.898   3.439   2.750
58534W        W26752  10.341   9.200  10.910
58535W        W26753   1.513  42.945   3.728
58536W        W26754  13.753  36.657   4.192
58537W        W26755  33.212  39.692   2.356
58538W        W26756  13.685  41.060   1.308
58539W        W26757  28.529  17.173   5.053
58540W        W26758  14.736  10.309  12.935
58541W        W26759  25.195  20.512  12.639
58542W        W26760  21.795  22.369   3.483
58543W        W26761  19.101  27.189   3.753
58544W        W26762  20.552  41.345   0.247
58545W        W26763  31.595  37.418  13.864
58546W        W26764  37.098   9.312  11.775
58547W        W26765  24.252   1.966   3.999
58548W        W26766  36.471   0.023   4.165
58549W        W26767  28.625  18.519   3.603
58550W        W26768  27.014   9.138  11.618
58551W        W26769  33.359  26.640  13.933
58552W        W26770  38.979  18.190  13.432
58553W        W26771  13.735  41.475   9.806
58554W        W26772   8.225  29.139   3.631
58555W        W26773   4.551  41.069  12.954
58556W        W26774  41.913  15.599  14.911
58557W        W26775  31.539  33.092  13.142
58558W        W26776  33.515  31.099  13.899
58559W        W26777  30.127  29.452   2.070
58560W        W26778  14.193  18.556   1.234
58561W        W26779  25.131  10.803   3.240
58562W        W26780  44.165  11.988   0.937
58563W        W26781  38.422  29.040  12.177
58564W        W26782  40.980  33.851  13.925
58565W        W26783  44.903  35.948  13.145
58566W        W26784  22.560  26.736   1.548
58567W        W26785  15.723  33.941   4.537
58568W        W26786  43.789  21.666  10.335
58569W        W26787  28.589  43.097   1.982
58570W        W26788  12.699  43.334   5.024
58571W        W26789  22.391  19.991  11.086
58572W        W26790   4.394  34.159  11.024
58573W        W26791  15.122  28.714   1.188
58574W        W26792  26.412  24.068   2.750
58575W        W26793   8.553  42.423   5.056
58576W        W26794  10.349  34.277  11.257
58577W        W26795  18.587  28.138  12.953
58578W        W26796  16.104  17.249  13.278
58579W        W26797  19.664  38.937  11.208
58580W        W26798  33.072   4.814   2.473
58581W        W26799  44.217  42.411   4.557
58582W        W26800  35.671  23.716  10.664
58583W        W26801  14.258  30.860   3.832
58584W        W26802   3.023  38.434  12.163
58585W        W26803  25.164   1.168   2.165
58586W        W26804  20.110   1.279   0.887
58587W        W26805  22.400  38.830  10.589
58588W        W26806  14.363  10.337   3.922
58589W        W26807  34.440  39.916   2.718
58590W        W26808  24.002  35.102   4.235
58591W        W26809  40.180  38.153  12.160
58592W        W26810  15.516  18.688   0.306
58593W        W26811   6.187   9.915  11.600
58594W        W26812  25.107   3.442  12.560
58595W        W26813  34.154  25.946   2.831
58596W        W26814  44.075  38.917   2.446
58597W        W26815  33.476  41.419  12.567
58598W        W26816  28.256  22.712  13.441
58599W        W26817  30.923  28.400  12.433
58600W        W26818   4.783  10.709   3.098
58601W        W26819  26.612  26.008   5.023
58602W        W26820   9.215   0.750   4.278
58603W        W26821  23.669  24.090  12.013
58604W        W26822   2.269  14.549   4.103
58605W        W26823  26.421  11.076   0.817
58606W        W26824  17.038  12.380   1.840
58607W        W26825  10.825  31.159   3.745
58608W        W26826  23.086  41.739  13.101
58609W        W26827  20.045  42.322  11.510
58610W        W26828   5.814  14.815   4.023
58611W        W26829  33.534  29.692  11.504
58612W        W26830  38.315  11.328   1.333
58613W        W26831  34.342  38.304   0.165
58614W        W26832   9.348  23.606   3.673
58615W        W26833  44.717   6.390   3.180
58616W        W26834   5.827  33.351   3.693
58617W        W26835  30.125   1.408  10.725
58618W        W26836  29.876  19.562  10.803
58619W        W26837  29.283  30.434  12.071
58620W        W26838  29.629  28.533  12.914
58621W        W26839  32.167  31.101  14.850
58622W        W26840  26.203  25.493   0.309
58623W        W26841  44.326  13.707   3.794
58624W        W26842  34.056  10.374   3.050
58625W        W26843  21.444  41.619   2.560
58626W        W26844  22.109   6.697  14.876
58627W        W26845   6.624   4.445   0.836
58628W        W26846  26.185  41.008   0.744
58629W        W26847  24.063  26.324  10.058
58630W        W26848  36.910  32.529   4.573
58631W        W26849   6.850   1.804   2.789
58632W        W26850  13.794  23.546  13.391
58633W        W26851  38.893  22.982  13.414
58634W        W26852   5.283  26.960  13.507
58635W        W26853   4.650   4.982   1.779
58636W        W26854  29.531   2.315  14.385
58637W        W26855  15.069  20.056   3.715
58638W        W26856  41.631  35.581   2.352
58639W        W26857  39.442  21.067  12.371
58640W        W26858  19.609  29.082   1.223
58641W        W26859  41.367   8.903   2.122
58642W        W26860  31.226  15.383   1.767
58643W        W26861  10.119  13.328   0.923
58644W        W26862  15.721  20.952   0.358
58645W        W26863  13.715  24.220  14.868
58646W        W26864   6.143  19.673  13.786
58647W        W26865  44.828  13.254   4.188
58648W        W26866  19.605   6.617  13.056
58649W        W26867  22.205  30.414   2.159
58650W        W26868  30.935  15.846   4.598
58651W        W26869  13.312  20.251   1.237
58652W        W26870  26.498  35.329  14.981
58653W        W26871  25.651  31.761   0.849
58654W        W26872  23.291  25.106  12.095
58655W        W26873  31.542  15.357  12.933
58656W        W26874  18.288   3.688  12.926
58657W        W26875  13.624   5.210   0.767
58658W        W26876  42.872  27.945  13.376
58659W        W26877  41.498  25.535  13.447
58660W        W26878  15.631  27.180   1.703
58661W        W26879   3.832  16.380   2.713
58662W        W26880  31.331  41.962  14.345
58663W        W26881  32.840   3.830   3.182
58664W        W26882  36.543  42.431  12.591
58665W        W26883  40.880  33.407  14.930
58666W        W26884  24.003   5.661  14.036
58667W        W26885  43.511  21.656   3.727
58668W        W26886   0.264  11.236   0.957
58669W        W26887  43.413   7.140  10.986
58670W        W26888  40.981  38.354   2.140
58671W        W26889  40.371  14.876  12.175
58672W        W26890  19.443   8.484  10.727
58673W        W26891  23.851  27.443  11.527
58674W        W26892  21.294  29.181  12.905
58675W        W26893  34.630  21.829  10.779
58676W        W26894  16.230  33.626  11.164
58677W        W26895   6.981  30.086   0.845
58678W        W26896   4.216  10.313   3.682
58679W        W26897  18.768  21.470  11.623
58680W        W26898  44.930  29.786  12.944
58681W        W26899  17.889  21.344  10.129
58682W        W26900  25.939  23.517  13.548
58683W        W26901  17.262  21.485  14.843
58684W        W26902   4.735  19.339   1.746
58685W        W26903  28.524  11.022   2.247
58686W        W26904   4.382  16.284   3.479
58687W        W26905  21.191  30.907   3.328
58688W        W26906  15.320  17.325   3.198
58689W        W26907   9.928  25.565  10.932
58690W        W26908   5.035  21.138  12.940
58691W        W26909   5.824  33.174   4.576
58692W        W26910  37.885  32.181   5.017
58693W        W26911   8.172  18.177   0.965
58694W        W26912  12.131  19.066  13.981
58695W        W26913  44.493  29.426   3.623
58696W        W26914  21.600  19.621   0.908
58697W        W26915  33.868  38.996   9.740
58698W        W26916  34.089  43.507   1.900
58699W        W26917  29.969   3.009  14.937
58700W        W26918   5.545  39.167   1.706
58701W        W26919  39.986  39.821   3.807
58702W        W26920  36.002  16.687   2.205
58703W        W26921  42.929  37.362   1.716
58704W        W26922  13.667  13.541   3.276
58705W        W26923  36.843  18.748  10.526
58706W        W26924  25.560  18.258  10.691
58707W        W26925  20.439  25.564  11.567
58708W        W26926  30.539  40.237  12.967
58709W        W26927   4.257  24.902  10.784
58710W        W26928  14.037   2.267   2.654
58711W        W26929  21.557  33.996   0.779
58712W        W26930  19.683  24.557   4.360
58713W        W26931  41.355  42.565  10.877
58714W        W26932  39.437  14.680  12.123
58715W        W26933  37.606  27.757   3.812
58716W        W26934  17.821  19.033   3.140
58717W        W26935  36.605  19.680  12.863
58718W        W26936  37.550  29.477   0.776
58719W        W26937  18.611  31.133   1.191
58720W        W26938   7.963   7.747  13.872
58721W        W26939   1.746  13.365  14.923
58722W        W26940   2.029  41.791  11.023
58723W        W26941   3.126  33.545  14.812
58724W        W26942  43.843  27.024  10.940
58725W        W26943  14.684   4.251   4.549
58726W        W26944  11.292  25.947   1.245
58727W        W26945  38.876   9.901   4.058
58728W        W26946   2.346  42.806  14.766
58729W        W26947  16.503  11.294   1.028
58730W        W26948  37.560  29.208  11.122
58731W        W26949  39.982  23.245   1.415
58732W        W26950  10.207   3.812   4.437
58733W        W26951  15.366  34.675   3.941
58734W        W26952  12.761   7.012   4.680
58735W        W26953  19.858  22.183   2.290
58736W        W26954  40.318  19.498   0.940
58737W        W26955  44.907  18.229   0.808
58738W        W26956  27.212  37.532   0.486
58739W        W26957  16.803  12.901  14.540
58740W        W26958  16.652  44.255   9.899
58741W        W26959  36.319  38.983   1.398
58742W        W26960  12.627  38.641  13.130
58743W        W26961  23.663  34.622  13.610
58744W        W26962   4.719  12.823   0.883
58745W        W26963  25.595  34.515  11.999
58746W        W26964  13.821  30.155  13.060
58747W        W26965   6.923  43.109   3.600
58748W        W26966  23.221   0.485   4.847
58749W        W26967  28.807  41.771  10.546
58750W        W26968  42.694  12.782   0.939
58751W        W26969  16.784  42.400   0.855
58752W        W26970  24.461  10.169   1.286
58753W        W26971  12.107  13.176   4.517
58754W        W26972   0.833  23.651  13.516
58755W        W26973  16.178  26.659   0.958
58756W        W26974  40.509   6.857   0.220
58757W        W26975  22.182   8.262  14.481
58758W        W26976   2.939  30.501  12.666
58759W        W26977   7.209   0.928   2.444
58760W        W26978   1.498  41.007   0.892
58761W        W26979  26.382  44.108   1.834
58762W        W26980   9.779  26.991   4.623
58763W        W26981  35.056  42.722   9.897
58764W        W26982  36.782   1.039   2.075
58765W        W26983  31.873  33.697  12.921
58766W        W26984  11.048   5.328   0.884
58767W        W26985  37.273   0.313   1.885
58768W        W26986  18.514  40.516   2.796
58769W        W26987  15.140  39.067  13.959
58770W        W26988  21.659  20.162   1.767
58771W        W26989  40.042  31.492   3.117
58772W        W26990  21.341  42.557  14.428
58773W        W26991  13.826  13.677  11.143
58774W        W26992  28.671  40.048  12.964
58775W        W26993   1.942  13.289   1.351
58776W        W26994  10.712   2.696  12.593
58777W        W26995  17.323  28.623   2.092
58778W        W26996   8.444  33.102  13.531
58779W        W26997  25.568  37.707  12.949
58780W        W26998   2.300  34.065   4.761
58781W        W26999  14.126  33.478   3.769
58782W        W27000   0.582   6.945   0.460
58783W        W27001  24.921  39.136   3.108
58784W        W27002  24.929  14.595  10.541
58785W        W27003   1.348  11.199   2.834
58786W        W27004  20.550  34.956  14.084
58787W        W27005  25.143  41.498   2.341
58788W        W27006  35.526   2.204  13.983
58789W        W27007   6.236  37.439  14.570
58790W        W27008  25.083  41.602  11.114
58791W        W27009  22.986   9.851  14.822
58792W        W27010  38.592  10.189   0.244
58793W        W27011  44.812   3.450   2.832
58794W        W27012  21.466  38.283   1.378
58795W        W27013  22.121   5.117   4.940
58796W        W27014  18.058  39.011  10.320
58797W        W27015   0.879   5.329   1.460
58798W        W27016  39.366  28.753   3.003
58799W        W27017  17.642   0.362   2.374
58800W        W27018  23.457  15.883   3.377
58801W        W27019   1.538  33.082  11.117
58802W        W27020   7.734   9.190  11.891
58803W        W27021  37.039  43.356  13.610
58804W        W27022  26.117  32.073  12.501
58805W        W27023  30.654  43.818   0.833
58806W        W27024  34.899  29.651  12.397
58807W        W27025  34.427   7.847   4.354
58808W        W27026   8.693  15.243   3.161
58809W        W27027   4.074  10.177  12.584
58810W        W27028  17.465  25.446  11.666
58811W        W27029  30.255  29.801   1.698
58812W        W27030  29.522  30.730  11.194
58813W        W27031  18.382   7.155   2.691
58814W        W27032  11.854  27.641  13.938
58815W        W27033  30.649   4.070  14.000
58816W        W27034  10.043  43.935  10.675
58817W        W27035  13.116  32.734  11.574
58818W        W27036  36.195  43.446   2.796
58819W        W27037  12.256  30.748  10.724
58820W        W27038  29.747  35.546  13.229
58821W        W27039  16.149  15.605  14.567
58822W        W27040   3.462  31.293   1.213
58823W        W27041  11.487   2.498  14.959
58824W        W27042  21.658  37.812   1.488
58825W        W27043  39.461  28.598  14.751
58826W        W27044  15.222   9.704   2.516
58827W        W27045   6.280  34.562   3.301
58828W        W27046  39.740  38.360  14.713
58829W        W27047   5.914  23.040   2.182
58830W        W27048  24.093  23.047   2.014
58831W        W27049   0.802  35.837   1.166
58832W        W27050   1.982   9.471  11.644
58833W        W27051  13.113   2.797   1.655
58834W        W27052  32.673  28.607  13.071
58835W        W27053  17.235  15.936   1.135
58836W        W27054  13.776  36.317   0.086
58837W        W27055  14.561  12.571  14.945
58838W        W27056   1.824  34.423   4.099
58839W        W27057  14.622  41.859   0.665
58840W        W27058  18.759  30.674   1.384
58841W        W27059  35.433   3.125  10.159
58842W        W27060  19.007   5.172   2.170
58843W        W27061  18.899   8.633  12.719
58844W        W27062  44.505  20.949  11.144
58845W        W27063  44.880  41.228  11.044
58846W        W27064   7.650  21.136   2.193
58847W        W27065  10.704  27.126  11.168
58848W        W27066   4.881   8.309  13.709
58849W        W27067  40.361  12.554   3.604
58850W        W27068  35.643  37.823   4.135
58851W        W27069  36.196  21.942  14.818
58852W        W27070  43.223  16.415   1.881
58853W        W27071  40.740  43.405   1.652
58854W        W27072  17.237  43.386   1.608
58855W        W27073  32.667  30.482   2.117
58856W        W27074  27.429  40.839  11.146
58857W        W27075   4.226  43.822   0.831
58858W        W27076   7.120  38.333   1.382
58859W        W27077  41.279  38.452  13.838
58860W        W27078  12.255   6.475  11.198
58861W        W27079  34.792  44.548  11.074
58862W        W27080   8.026   8.270  13.113
58863W        W27081  13.165  17.766  12.520
58864W        W27082  37.695   3.947   5.000
58865W        W27083  40.921  32.928  13.487
58866W        W27084  15.806   8.257   1.788
58867W        W27085   7.855   2.499  14.822
58868W        W27086  34.998   5.789   2.106
58869W        W27087  42.421  42.528   3.153
58870W        W27088  25.117  32.906  12.629
58871W        W27089  34.370  31.443   4.662
58872W        W27090  32.210  43.083  12.012
58873W        W27091  29.632  18.323  10.635
58874W        W27092  42.264  36.429   3.634
58875W        W27093  25.048  41.120  11.248
58876W        W27094  11.371  20.189   0.297
58877W        W27095   0.882   1.932  11.397
58878W        W27096  17.127  25.725   3.305
58879W        W27097  34.380  30.601   1.008
58880W        W27098  27.961  40.802  11.141
58881W        W27099  24.034   6.274   0.946
58882W        W27100  33.789   2.164  11.650
58883W        W27101  23.784   5.893   2.358
58884W        W27102  18.253   9.644   2.726
58885W        W27103  28.384  31.053  12.507
58886W        W27104  30.158  28.425   1.352
58887W        W27105  21.200  24.275  14.301
58888W        W27106  30.243  10.198   3.115
58889W        W27107  22.605  41.940   2.545
58890W        W27108  30.551  19.204  14.749
58891W        W27109  22.959   6.734  14.906
58892W        W27110   9.274  33.685   3.177
58893W        W27111  17.792   0.586   3.237
58894W        W27112   9.260  34.440   4.546
58895W        W27113  22.813  24.487  11.181
58896W        W27114  29.525  30.616  14.917
58897W        W27115   3.314  37.601  11.966
58898W        W27116  20.760  42.346  13.562
58899W        W27117  24.973  30.050  11.608
58900W        W27118  10.726  30.448   0.507
58901W        W27119  24.511   6.117   1.287
58902W        W27120   7.370  24.665  10.910
58903W        W27121   0.442  23.196  11.529
58904W        W27122   3.928  37.668   1.758
58905W        W27123  14.137  18.837  12.689
58906W        W27124  23.348  20.267  11.036
58907W        W27125  40.360  42.180   0.944
58908W        W27126   8.175  19.991   0.180
58909W        W27127  10.911  17.466   3.684
58910W        W27128  41.955  22.785  12.747
58911W        W27129  34.096  16.591   2.922
58912W        W27130  29.237  44.485   4.622
58913W        W27131  26.258  25.629   0.807
58914W        W27132  37.296  36.905  12.483
58915W        W27133   9.184   5.440  10.493
58916W        W27134  36.684  28.408  10.934
58917W        W27135   4.327  35.832  14.301
58918W        W27136   7.744   0.297  13.159
58919W        W27137  32.345   6.967   3.525
58920W        W27138  33.544  14.729  13.348
58921W        W27139   6.789  39.414   4.256
58922W        W27140  21.538  18.663   3.176
58923W        W27141   5.317  25.632  14.845
58924W        W27142  22.597  22.237  12.472
58925W        W27143   1.297  15.385  13.148
58926W        W27144  30.458  25.798  13.847
58927W        W27145  44.733  43.454  11.624
58928W        W27146  23.660  36.453  10.231
58929W        W27147   7.142  12.746  12.572
58930W        W27148  31.817   9.119   2.239
58931W        W27149  35.437  10.176  13.604
58932W        W27150  32.149  19.380   5.094
58933W        W27151  16.741  16.679  13.377
58934W        W27152  10.290  42.124  11.198
58935W        W27153   5.889   8.635  11.293
58936W        W27154   2.857  33.191  13.908
58937W        W27155  41.318  28.579   2.823
58938W        W27156  16.686   7.988  13.320
58939W        W27157  34.284  42.254   0.293
58940W        W27158  22.019  32.495  10.962
58941W        W27159  12.538  31.497  10.978
58942W        W27160  38.078  13.088  12.991
58943W        W27161  33.717  15.918  12.108
58944W        W27162  12.372  35.513   4.892
58945W        W27163  38.847  41.516  10.230
58946W        W27164  10.244   5.467   0.494
58947W        W27165  27.920   5.856   0.383
58948W        W27166  20.757  24.143  11.582
58949W        W27167  14.168   6.671  14.247
58950W        W27168  38.631  37.687  14.716
58951W        W27169  27.411   0.673   1.760
58952W        W27170   3.520  22.476  12.527
58953W        W27171   2.476  19.777   1.938
58954W        W27172  15.121   6.608  14.742
58955W        W27173   9.688  31.502  13.513
58956W        W27174   2.001  32.948  12.096
58957W        W27175   7.677  43.762   0.200
58958W        W27176  30.081  16.582  10.748
58959W        W27177  36.391  27.652   0.779
58960W        W27178  15.123  34.971  14.709
58961W        W27179  21.013  39.930  10.722
58962W        W27180  14.589   4.626   0.452
58963W        W27181  27.153  10.375  14.865
58964W        W27182  44.238  20.299   2.420
58965W        W27183  12.749  24.676   0.519
58966W        W27184  12.416  11.652  14.467
58967W        W27185   1.827  24.316  13.017
58968W        W27186  12.509   8.988   5.139
58969W        W27187  26.232   2.815  14.347
58970W        W27188   3.767  12.332   2.785
58971W        W27189  40.368  23.109  11.539
58972W        W27190  21.287  43.223  13.911
58973W        W27191  34.339  34.989  12.902
58974W        W27192  43.961  16.760   2.386
58975W        W27193  33.587  10.097   2.303
58976W        W27194  28.009  29.416  14.392
58977W        W27195   0.387  33.050   0.517
58978W        W27196  18.634   8.202  10.971
58979W        W27197   5.670   2.229   2.446
58980W        W27198  19.716  15.308   4.615
58981W        W27199  22.264  13.239  13.484
58982W        W27200  35.316  37.601  12.964
58983W        W27201  11.730  16.636   4.894
58984W        W27202  32.704  31.058  12.928
58985W        W27203  31.613  18.624   1.883
58986W        W27204  39.579  36.555   2.291
58987W        W27205  38.041  12.874   0.029
58988W        W27206  35.313  26.135  11.239
58989W        W27207  15.830  10.312   0.409
58990W        W27208   9.175  28.497  10.655
58991W        W27209  31.932  19.972   0.854
58992W        W27210  43.768  16.681  13.625
58993W        W27211   9.834  16.647  13.648
58994W        W27212  16.228  25.567   4.594
58995W        W27213   6.800  15.283   1.729
58996W        W27214   1.668  22.727  11.487
58997W        W27215  19.158  17.034   2.895
58998W        W27216  25.593  18.740   4.520
58999W        W27217  31.393  43.212   2.378
59000W        W27218   1.477  30.087   0.798
59001W        W27219   1.690   5.427   3.582
59002W        W27220  25.140  26.560   2.132
59003W        W27221  15.957  36.538  12.957
59004W        W27222  40.014   7.723   4.624
59005W        W27223  13.581  43.968   1.644
59006W        W27224   2.952  19.366  12.630
59007W        W27225   5.481  22.188  10.749
59008W        W27226  18.718  29.209   1.104
59009W        W27227   4.280   8.870   3.803
59010W        W27228   8.161  34.779  10.772
59011W        W27229  17.268  19.510   4.851
59012W        W27230  25.675   2.703   2.812
59013W        W27231  25.614  14.169   2.700
59014W        W27232  24.646  12.081   0.751
59015W        W27233  12.694  36.664  10.876
59016W        W27234   1.277   3.483  13.848
59017W        W27235   6.862  40.909  13.972
59018W        W27236   6.691  18.345  14.814
59019W        W27237  31.594  24.425  12.047
59020W        W27238  28.025   4.947   4.484
59021W        W27239  29.953  44.804   4.697
59022W        W27240  18.327  32.093   1.376
59023W        W27241  29.173  13.542  10.945
59024W        W27242  13.911  24.498   2.759
59025W        W27243   9.176   6.241   1.337
59026W        W27244  37.059  30.640  14.269
59027W        W27245  44.216  44.437  14.028
59028W        W27246  12.185  24.035  14.778
59029W        W27247  43.964   3.871  10.679
59030W        W27248   4.905  14.548   1.826
59031W        W27249  19.675  44.937   4.475
59032W        W27250   9.824  26.589   0.462
59033W        W27251  14.641  43.175  11.169
59034W        W27252  43.451   1.755   0.888
59035W        W27253  12.904  42.478  11.150
59036W        W27254  17.831  41.618   2.884
59037W        W27255  36.463  32.001  12.601
59038W        W27256   7.275  16.516   3.888
59039W        W27257  16.606  32.476   0.054
59040W        W27258  12.170  35.403  14.510
59041W        W27259  35.469   4.471  10.850
59042W        W27260  21.486   9.334   0.302
59043W        W27261  36.911  17.795   3.629
59044W        W27262  32.375  14.151   2.756
59045W        W27263   7.705  20.792  13.449
59046W        W27264  10.966  21.247  11.489
59047W        W27265  26.255  41.013  13.395
59048W        W27266  36.483  14.624  13.849
59049W        W27267  19.015   0.179   2.883
59050W        W27268  29.197  32.353   1.854
59051W        W27269  15.555   4.743  10.669
59052W        W27270   6.437  20.258  13.660
59053W        W27271  12.782   7.413  12.982
59054W        W27272  17.226  33.601   9.995
59055W        W27273  25.737  27.945   2.736
59056W        W27274  43.309  16.304  11.108
59057W        W27275  16.784  41.767   4.277
59058W        W27276  17.746  40.066   3.398
59059W        W27277   8.729  35.385   1.252
59060W        W27278  36.765  42.264  11.870
59061W        W27279  16.320   1.451   0.036
59062W        W27280  11.234   7.243   2.554
59063W        W27281  36.198  16.819   3.674
59064W        W27282  27.128  26.535   1.758
59065W        W27283  24.605  21.132  13.010
59066W        W27284  41.426  30.956  12.958
59067W        W27285  39.385  22.473  13.866
59068W        W27286  33.888   4.396   0.930
59069W        W27287   1.853  38.350  10.809
59070W        W27288  30.539  10.157  13.421
59071W        W27289  28.469   7.475   0.983
59072W        W27290  43.927  32.899  13.331
59073W        W27291  39.864  33.255   0.991
59074W        W27292  10.917  15.571   0.378
59075W        W27293  43.783  26.655   0.720
59076W        W27294  29.926  44.357   0.833
59077W        W27295  11.221  11.917   3.754
59078W        W27296   2.694  38.257  12.541
59079W        W27297   3.394   0.325  14.096
59080W        W27298  34.064  18.524   1.681
59081W        W27299  16.105  14.676  10.722
59082W        W27300  35.970  14.790  13.103
59083W        W27301   9.199  27.870  14.528
59084W        W27302  42.202  15.036  14.399
59085W        W27303   1.490  39.514  13.969
59086W        W27304   5.751   7.133  10.743
59087W        W27305   9.781  12.869  11.663
59088W        W27306  42.462   2.729  13.120
59089W        W27307  25.170  35.047   1.009
59090W        W27308  26.372  10.545   0.834
59091W        W27309  11.111  18.048   3.031
59092W        W27310  32.028  20.061  14.581
59093W        W27311  25.539  38.535   2.696
59094W        W27312  27.843  31.448   0.665
59095W        W27313  31.388  34.127  13.780
59096W        W27314  13.851   3.427   2.000
59097W        W27315  31.574   1.019  12.579
59098W        W27316  19.707  44.402  13.598
59099W        W27317   7.719  15.215  13.136
59100W        W27318  38.417  21.163  14.870
59101W        W27319  12.794   6.531   4.815
59102W        W27320  35.512  14.535  13.047
59103W        W27321   7.107  21.602  14.003
59104W        W27322   1.692  20.150  11.026
59105W        W27323  25.367  16.344  11.578
59106W        W27324  26.633   7.818  13.327
59107W        W27325  43.741  34.501  14.829
59108W        W27326  13.823  41.477   4.012
59109W        W27327   6.936  32.396  14.767
59110W        W27328  14.765  30.242  12.213
59111W        W27329  35.004  38.944   4.677
59112W        W27330   5.195  39.020   3.663
59113W        W27331  13.552  17.247   0.533
59114W        W27332  17.859   0.140   1.760
59115W        W27333  13.979  17.605   2.143
59116W        W27334  25.792   5.754  13.420
59117W        W27335  28.245  39.186   3.603
59118W        W27336  11.220  19.998   1.687
59119W        W27337   5.265  13.623  14.490
59120W        W27338  43.996  18.831  10.608
59121W        W27339  11.362  19.105   4.841
59122W        W27340   3.675  21.284   3.256
59123W        W27341  32.485  40.243  12.567
59124W        W27342  42.459   1.787   2.635
59125W        W27343  37.430  34.639   1.364
59126W        W27344  18.344  41.594   0.937
59127W        W27345  16.883   9.872  13.429
59128W        W27346  25.116  34.071   3.571
59129W        W27347  32.935  18.087   4.304
59130W        W27348  26.658  29.822   0.319
59131W        W27349  12.070  31.810   0.782
59132W        W27350  36.377   5.132   2.170
59133W        W27351   6.324  42.443   0.392
59134W        W27352  39.568  43.360   0.826
59135W        W27353  10.736  35.506  11.019
59136W        W27354  17.123  31.076   4.572
59137W        W27355  23.964  27.513   0.374
59138W        W27356  41.540  34.185   1.359
59139W        W27357  39.848  42.303  11.676
59140W        W27358  37.094  30.036   2.833
59141W        W27359  36.985  10.258  13.599
59142W        W27360   1.375  23.423  12.796
59143W        W27361  22.978  15.965  12.958
59144W        W27362  38.303  41.736   4.115
59145W        W27363  42.548  39.055  13.685
59146W        W27364  16.112  39.733   4.658
59147W        W27365  36.367  33.417  11.506
59148W        W27366  19.471   9.560  14.924
59149W        W27367   8.303  31.130  11.461
59150W        W27368  30.918   8.657  13.064
59151W        W27369  31.948  43.070   4.569
59152W        W27370  21.767  34.343   0.044
59153W        W27371  27.099  37.887   4.358
59154W        W27372  13.796  27.079  13.921
59155W        W27373   7.748   6.308  13.853
59156W        W27374  18.781  21.704   3.242
59157W        W27375  43.411  32.944  12.191
59158W        W27376  27.056  19.033  14.515
59159W        W27377  19.747  17.844  12.060
59160W        W27378   4.556  13.780  12.464
59161W        W27379  14.186  24.125   0.221
59162W        W27380  38.609  42.766   1.293
59163W        W27381  14.753  37.995   0.905
59164W        W27382  35.387  29.570  14.106
59165W        W27383   0.213  43.265  10.818
59166W        W27384  19.207  21.629   1.195
59167W        W27385   4.521  16.455  11.863
59168W        W27386  32.183  19.757   4.185
59169W        W27387   1.856   3.775   1.424
59170W        W27388  22.169   8.375  10.605
59171W        W27389  12.237  16.565   0.952
59172W        W27390  23.620   7.865  14.732
59173W        W27391  32.536   9.937  10.215
59174W        W27392  42.847  13.068  12.861
59175W        W27393  33.997  11.601  13.076
59176W        W27394  33.604  10.230   3.281
59177W        W27395  11.910  11.319  11.228
59178W        W27396   1.159  24.027   2.662
59179W        W27397   5.691   3.843  11.408
59180W        W27398  40.562  25.695  12.367
59181W        W27399  28.064  22.986   4.065
59182W        W27400  36.469   7.990  12.764
59183W        W27401  44.200  40.333   1.844
59184W        W27402  43.402  29.309   0.307
59185W        W27403  20.112  22.725  12.111
59186W        W27404  16.228  23.627   0.292
59187W        W27405   9.632   4.469   1.726
59188W        W27406  23.372  34.712   5.065
59189W        W27407  17.997  24.460  13.831
59190W        W27408  44.859  16.854   4.195
59191W        W27409  14.559  12.244  12.004
59192W        W27410  41.305  19.332  13.932
59193W        W27411  39.360  12.603   2.411
59194W        W27412   8.933  12.758  14.239
59195W        W27413  31.600  12.793   0.076
59196W        W27414  27.507  32.103   0.481
59197W        W27415  26.843  42.454   0.293
59198W        W27416  44.710  40.382   2.765
59199W        W27417  37.173  26.087   1.725
59200W        W27418  25.363  21.080   1.722
59201W        W27419   3.000  24.641  14.447
59202W        W27420  39.414  39.223   2.635
59203W        W27421  43.054  15.830   4.556
59204W        W27422  13.267  16.127   0.921
59205W        W27423  18.144  12.289   9.859
59206W        W27424  34.441   0.526  11.398
59207W        W27425  34.415  25.301  13.410
59208W        W27426  37.950  40.336  11.258
59209W        W27427  30.470  21.594   3.894
59210W        W27428  40.373  13.574  11.231
59211W        W27429  20.333  38.876   2.887
59212W        W27430   0.246   7.755   3.376
59213W        W27431  36.540  44.087  12.057
59214W        W27432  40.331  43.508   0.384
59215W        W27433  14.078   8.693  10.736
59216W        W27434  31.618   7.809  14.133
59217W        W27435  17.350  17.045   4.602
59218W        W27436  31.546   8.317   2.696
59219W        W27437  32.404  15.157  10.804
59220W        W27438  38.829  25.863   4.133
59221W        W27439   4.583   5.893   4.666
59222W        W27440  28.894  31.527  12.816
59223W        W27441   8.640  33.281   3.626
59224W        W27442  32.014  18.822   0.230
59225W        W27443  31.109  30.345   1.770
59226W        W27444  26.609  29.889  12.593
59227W        W27445  27.516  16.152  12.538
59228W        W27446  35.082  12.199  13.757
59229W        W27447  21.739  42.821  10.998
59230W        W27448  13.816   0.681  12.992
59231W        W27449  27.041   6.440   1.784
59232W        W27450   4.203   1.572   0.923
59233W        W27451  14.244  33.958  14.320
59234W        W27452  23.384  12.826   0.440
59235W        W27453  38.882  32.411  10.536
59236W        W27454   6.688   3.937   3.147
59237W        W27455   1.904  21.572   3.261
59238W        W27456  13.746   4.586  12.488
59239W        W27457  23.113  31.878   4.693
59240W        W27458  10.816   1.533   1.925
59241W        W27459  14.464   6.728   0.912
59242W        W27460  11.328  11.160   1.011
59243W        W27461   3.755  12.072  13.061
59244W        W27462  39.307  35.532   0.429
59245W        W27463  12.985  23.125  14.534
59246W        W27464  17.368  17.961  11.446
59247W        W27465  30.220  13.392   3.322
59248W        W27466  29.309  31.588   1.010
59249W        W27467  34.506  35.362   0.825
59250W        W27468   9.839  42.422   2.435
59251W        W27469   5.310  19.265   1.439
59252W        W27470  43.888  10.163   3.367
59253W        W27471  11.396  29.181  10.532
59254W        W27472  23.026  15.304   0.426
59255W        W27473  31.508  19.537  12.677
59256W        W27474   2.768  31.507  12.750
59257W        W27475  38.472  39.036  13.300
59258W        W27476  22.738  36.009   4.762
59259W        W27477  32.392  22.426   3.079
59260W        W27478  20.262  38.019   0.833
59261W        W27479   7.295  10.350   2.677
59262W        W27480  33.664   1.950  13.115
59263W        W27481  20.065  11.769   1.851
59264W        W27482  17.097  31.576   1.887
59265W        W27483   9.121   0.969   1.900
59266W        W27484  29.586  40.414   0.927
59267W        W27485  15.327  10.691  14.765
59268W        W27486   5.517   0.403  14.254
59269W        W27487  28.442  14.706   0.280
59270W        W27488   3.088  17.220   2.622
59271W        W27489   5.805  22.089  13.966
59272W        W27490  13.393  29.519  14.408
59273W        W27491  28.639   5.279  11.054
59274W        W27492  33.463  35.313   0.892
59275W        W27493  20.022  39.152  14.720
59276W        W27494   3.685   5.368   4.080
59277W        W27495  28.168   5.016  14.270
59278W        W27496  31.877   3.650  14.359
59279W        W27497  23.276  43.067   4.552
59280W        W27498   1.727  36.584  14.457
59281W        W27499  17.217  29.497   2.157
59282W        W27500  11.183  18.277  13.579
59283W        W27501  16.562  37.163  11.670
59284W        W27502  25.126   9.728  12.406
59285W        W27503  31.538  41.573  11.481
59286W        W27504   7.126   4.143   4.122
59287W        W27505  10.722  27.434   3.627
59288W        W27506  10.784  14.382  10.623
59289W        W27507   5.393  37.867   2.798
59290W        W27508  11.353  40.476   3.138
59291W        W27509  26.682  19.758   3.811
59292W        W27510  21.148  35.976  10.127
59293W        W27511  10.785  10.337   3.895
59294W        W27512  28.468  20.671  14.535
59295W        W27513  23.979  15.557  12.848
59296W        W27514  32.646  17.659   2.021
59297W        W27515  34.472   1.501  14.829
59298W        W27516  27.781   3.216  10.310
59299W        W27517  39.844  36.135  12.473
59300W        W27518   2.304   8.256  14.826
59301W        W27519  28.800  29.139  12.808
59302W        W27520  10.400  38.374   0.971
59303W        W27521  41.758   2.700  10.396
59304W        W27522   1.236  26.856  12.112
59305W        W27523  29.125  23.118  14.885
59306W        W27524  25.433  24.603   0.350
59307W        W27525  14.543  43.056  14.019
59308W        W27526  10.365  21.096   4.941
59309W        W27527  28.986  32.152  12.152
59310W        W27528  16.182  30.785   0.554
59311W        W27529  19.880  17.171  13.508
59312W        W27530   1.433  12.468  12.354
59313W        W27531  11.383   5.303  14.059
59314W        W27532  17.033  18.563  12.537
59315W        W27533  22.754  35.289  14.482
59316W        W27534  33.375  19.504   0.781
59317W        W27535  15.693  32.444   0.023
59318W        W27536  32.625   6.781  10.728
59319W        W27537   1.326  20.971  10.381
59320W        W27538  41.239  38.057   1.288
59321W        W27539   8.634  43.769   0.321
59322W        W27540  41.766  26.990   2.398
59323W        W27541  26.197  18.224  14.867
59324W        W27542  21.757  35.445   1.937
59325W        W27543  21.666   3.207   2.095
59326W        W27544  17.249  42.515  13.988
59327W        W27545  38.485  16.380   1.012
59328W        W27546  13.809  13.312  12.560
59329W        W27547  23.050  20.538   1.357
59330W        W27548  16.732  11.569  14.822
59331W        W27549  27.063  36.901  10.836
59332W        W27550  39.958  35.034  13.474
59333W        W27551  18.861  12.309  11.043
59334W        W27552  32.155  17.629  13.493
59335W        W27553  42.472   8.223   0.272
59336W        W27554  27.630   9.683  12.676
59337W        W27555  36.460   4.585  12.225
59338W        W27556  20.381   9.335   0.855
59339W        W27557   5.900  15.013  14.375
59340W        W27558   0.654  26.898  12.515
59341W        W27559   8.196  15.957   2.246
59342W        W27560  15.676  41.505  14.759
59343W        W27561  40.287  22.527  10.308
59344W        W27562   4.257  23.291   4.218
59345W        W27563  37.872   6.304  14.029
59346W        W27564  16.766  14.566  13.495
59347W        W27565  42.497  35.104   0.784
59348W        W27566  33.103   5.952   4.081
59349W        W27567  24.458  25.978   1.937
59350W        W27568  14.288  25.053   4.726
59351W        W27569  19.065  21.042  10.287
59352W        W27570  28.076   2.691   2.228
59353W        W27571  43.895  12.511   2.289
59354W        W27572   0.447  19.134  12.420
59355W        W27573  26.826  41.447   3.845
59356W        W27574  36.086  20.472   4.654
59357W        W27575  30.939   2.909  12.965
59358W        W27576  27.807   6.134   0.861
59359W        W27577   3.779  30.569  14.878
59360W        W27578  25.702   1.762   0.713
59361W        W27579  42.414   2.958   4.349
59362W        W27580   4.364  13.912   2.250
59363W        W27581  14.739   6.334   4.570
59364W        W27582   3.430  19.189  13.502
59365W        W27583  40.072  19.973   0.930
59366W        W27584  33.997  14.875  10.685
59367W        W27585  41.028   3.164  12.081
59368W        W27586   0.625  27.179  13.375
59369W        W27587  15.111  35.004   1.615
59370W        W27588  19.660   1.671  14.026
59371W        W27589  26.267  37.587   1.261
59372W        W27590  22.154  20.687   4.148
59373W        W27591  15.764  26.188   4.948
59374W        W27592  35.196  25.502   0.933
59375W        W27593  16.029  12.395   0.913
59376W        W27594  21.558   7.496  13.974
59377W        W27595  14.058  24.750  14.328
59378W        W27596  31.719  27.032  11.610
59379W        W27597   2.044  18.807   0.299
59380W        W27598   0.761  42.721   0.372
59381W        W27599   6.340  14.521   4.229
59382W        W27600  34.015  21.148  10.767
59383W        W27601   8.880  22.473   3.766
59384W        W27602  17.740  44.006  13.389
59385W        W27603  41.486  22.255   3.734
59386W        W27604  31.976   5.627  10.344
59387W        W27605  24.688  37.416   4.239
59388W        W27606  26.605  19.259   0.779
59389W        W27607  39.514  31.468  13.062
59390W        W27608  31.098  26.361   1.257
59391W        W27609   2.699  22.183  11.274
59392W        W27610  43.567  41.475   1.323
59393W        W27611  41.578  26.644  11.894
59394W        W27612  33.935   8.376   4.805
59395W        W27613  11.427   2.274  11.572
59396W        W27614  36.161  44.862   0.857
59397W        W27615   9.683  29.308  11.121
59398W        W27616  15.537  39.215  11.620
59399W        W27617  44.269  22.967  12.568
59400W        W27618  39.125  41.879   0.316
59401W        W27619  33.902   8.435  10.733
59402W        W27620  26.019  38.744   4.362
59403W        W27621  41.527  29.705   2.396
59404W        W27622   9.732   9.718   3.544
59405W        W27623  33.851  30.362   2.719
59406W        W27624  12.368  33.111  14.915
59407W        W27625  34.167  43.365  14.434
59408W        W27626   8.619  19.119  13.015
59409W        W27627  23.595  23.636  14.958
59410W        W27628  14.818  15.234  11.472
59411W        W27629   4.149  29.929  14.363
59412W        W27630  14.157  14.205   1.335
59413W        W27631  24.651  42.784  13.506
59414W        W27632  41.218  30.145  14.131
59415W        W27633   8.087  20.203  10.972
59416W        W27634   0.931   0.439   4.302
59417W        W27635  44.194  44.909  12.665
59418W        W27636  41.562  37.130   0.744
59419W        W27637  10.370  18.353  13.564
59420W        W27638  17.161  25.322  11.238
59421W        W27639  23.969  15.162   1.402
59422W        W27640   5.908  37.972  10.867
59423W        W27641  12.330  28.149  11.461
59424W        W27642  18.616  42.950  14.753
59425W        W27643  21.549  22.766  13.377
59426W        W27644  38.785  40.983  10.250
59427W        W27645  44.363  35.926   1.858
59428W        W27646  31.416   5.692   2.377
59429W        W27647  39.184   1.265   3.678
59430W        W27648  35.339  11.332   3.637
59431W        W27649  31.624  26.454   1.299
59432W        W27650   6.428  39.807   3.492
59433W        W27651  21.600  40.396  11.231
59434W        W27652  12.527  43.291   4.169
59435W        W27653  15.065  13.230  10.720
59436W        W27654  14.339   5.938  13.511
59437W        W27655  35.971  44.033  12.867
59438W        W27656  13.759  10.238  13.928
59439W        W27657   9.371   3.356  10.397
59440W        W27658  10.349  20.547  13.042
59441W        W27659   6.426  15.482  10.536
59442W        W27660   5.395  39.824  14.197
59443W        W27661  36.344  35.509   2.710
59444W        W27662  40.479  20.006  14.162
59445W        W27663  36.448  25.336  13.130
59446W        W27664  41.428  29.468  13.586
59447W        W27665  35.609  38.791  11.924
59448W        W27666  33.904  16.057   1.200
59449W        W27667   9.101  42.752   5.769
59450W        W27668  28.883  36.812   3.106
59451W        W27669   8.453  12.670  12.052
59452W        W27670  14.772  37.763   1.816
59453W        W27671   1.503   7.221   3.707
59454W        W27672  13.126  15.747  11.618
59455W        W27673  36.779   8.088   2.843
59456W        W27674  31.378  32.271  12.037
59457W        W27675  38.609  21.717   0.062
59458W        W27676  15.308  32.693   4.801
59459W        W27677  39.536  25.994   1.742
59460W        W27678  44.444  37.492   1.741
59461W        W27679  20.584  16.367   1.308
59462W        W27680  29.666  35.455   4.884
59463W        W27681   5.052   5.709  14.296
59464W        W27682  35.823   0.913   0.406
59465W        W27683  24.060  25.250   4.276
59466W        W27684  10.570  44.029   0.796
59467W        W27685  16.698  34.864   3.613
59468W        W27686  19.274   7.335   2.829
59469W        W27687  29.057  34.200  13.298
59470W        W27688  23.028  26.100  14.992
59471W        W27689   4.445  32.328  12.105
59472W        W27690  17.579  35.573  14.856
59473W        W27691   5.190  12.091   3.633
59474W        W27692   3.745  26.413   2.845
59475W        W27693   8.707  34.659  11.973
59476W        W27694   7.810  37.101   2.273
59477W        W27695   4.194  42.829  12.359
59478W        W27696  18.548  33.905   5.401
59479W        W27697  25.873   3.768   0.961
59480W        W27698  40.910  30.943   3.804
59481W        W27699   7.661   1.490   1.669
59482W        W27700  37.119  13.957  14.069
59483W        W27701  40.264   9.906   2.335
59484W        W27702  12.276  44.030   3.719
59485W        W27703  18.950  38.957  11.679
59486W        W27704  39.491  40.946   4.509
59487W        W27705  19.825  13.640  11.156
59488W        W27706  13.630  15.093   0.569
59489W        W27707   8.251   0.355  10.923
59490W        W27708  44.753  42.461  11.315
59491W        W27709  16.829  11.736  12.793
59492W        W27710  31.128  21.822  13.475
59493W        W27711  30.509  40.826  12.972
59494W        W27712   1.520   3.509  10.724
59495W        W27713  29.930  41.282  11.583
59496W        W27714  44.304  20.942  10.249
59497W        W27715  11.417  17.433   3.650
59498W        W27716  32.361  28.290  14.195
59499W        W27717  26.543  38.418  11.617
59500W        W27718   7.371  44.787   3.758
59501W        W27719  10.124   4.043   2.287
59502W        W27720  29.381  39.495   3.226
59503W        W27721  41.069   1.469  12.929
59504W        W27722  38.230  25.537  10.878
59505W        W27723   3.464  29.173  12.974
59506W        W27724   2.460  34.017   2.440
59507W        W27725  20.538  32.562   0.851
59508W        W27726  28.568  19.228  14.456
59509W        W27727  39.929  23.917   2.739
59510W        W27728  14.530   5.231  10.789
59511W        W27729  33.570  31.441   0.395
59512W        W27730  16.324   1.471  14.021
59513W        W27731  16.135  18.339  14.952
59514W        W27732  33.487  28.534  10.751
59515W        W27733  28.086  41.817   0.982
59516W        W27734  21.780  17.492  11.141
59517W        W27735  25.662   1.934   5.135
59518W        W27736  15.510  31.945   0.177
59519W        W27737  29.052  19.278  11.633
59520W        W27738   9.370   8.950   3.663
59521W        W27739  17.208   5.055   4.138
59522W        W27740  29.946  15.540  13.509
59523W        W27741   2.922   0.523  14.847
59524W        W27742  25.047  16.299   1.463
59525W        W27743  27.569  23.237   1.553
59526W        W27744  42.994  17.827   0.368
59527W        W27745   5.635  19.431   1.036
59528W        W27746   7.498  11.046   4.012
59529W        W27747  27.657  13.301  12.252
59530W        W27748  26.661  14.800   0.844
59531W        W27749  36.080   1.863   4.217
59532W        W27750   0.897  28.713  11.142
59533W        W27751  39.014  41.334  12.593
59534W        W27752  18.532  35.509  11.578
59535W        W27753  18.759  32.856   2.299
59536W        W27754  36.698   4.286  12.571
59537W        W27755  10.019  29.508  10.782
59538W        W27756  24.614   4.667   0.950
59539W        W27757  22.076   5.629   3.592
59540W        W27758  43.112   7.289  12.907
59541W        W27759   2.801  43.496  10.985
59542W        W27760   1.949  12.194   2.039
59543W        W27761   3.419  34.988  13.411
59544W        W27762  17.570   3.522  12.183
59545W        W27763   8.407  23.794   0.778
59546W        W27764  33.898   2.071   0.890
59547W        W27765  33.101  39.989  13.846
59548W        W27766  10.969   3.232  12.694
59549W        W27767   5.253  10.810  12.421
59550W        W27768  28.325   1.951   1.438
59551W        W27769  33.579  16.568   2.789
59552W        W27770  11.677  24.120  14.712
59553W        W27771  34.540   3.781   0.953
59554W        W27772  30.066  37.137  12.730
59555W        W27773  36.069  16.760   1.310
59556W        W27774   4.261  35.469  11.825
59557W        W27775  37.095  40.989  13.844
59558W        W27776  32.973  10.662   2.041
59559W        W27777  33.808  32.996  13.974
59560W        W27778  22.585  29.185  11.199
59561W        W27779   0.245  24.024  10.732
59562W        W27780  11.826   7.376   3.202
59563W        W27781   7.643  17.340  13.107
59564W        W27782  12.634  34.116  14.306
59565W        W27783  28.957  28.142  10.966
59566W        W27784  30.606  34.457   4.574
59567W        W27785  30.382  16.384   3.351
59568W        W27786  12.109   9.114  13.116
59569W        W27787   1.017  32.704   2.156
59570W        W27788  30.930  26.876   1.247
59571W        W27789   0.890  11.225   3.594
59572W        W27790   6.740  36.005   4.872
59573W        W27791  42.546  28.582  14.031
59574W        W27792  27.796   2.432  13.917
59575W        W27793   1.354  21.511   1.008
59576W        W27794   6.077  36.780   4.821
59577W        W27795  23.201  41.846   0.958
59578W        W27796  32.918  13.624   3.180
59579W        W27797  23.595  20.750   3.631
59580W        W27798  18.901  40.831   2.691
59581W        W27799   3.868  18.565   1.430
59582W        W27800  37.905   1.302   2.482
59583W        W27801  43.269  29.734  13.537
59584W        W27802  33.302  37.950  12.423
59585W        W27803  28.398  23.178   2.700
59586W        W27804  33.613   9.681  13.729
59587W        W27805  33.885   0.399  10.647
59588W        W27806  14.258   1.961   0.917
59589W        W27807  16.337   7.138  12.454
59590W        W27808  11.665  16.166   4.688
59591W        W27809  10.790   1.843  10.685
59592W        W27810  24.499  14.847  10.880
59593W        W27811  12.842  33.870  11.096
59594W        W27812  29.180  27.565  12.128
59595W        W27813  33.780  28.174   4.116
59596W        W27814  22.294   3.395  11.050
59597W        W27815  20.614  16.846   4.079
59598W        W27816  21.042   0.911   4.151
59599W        W27817  15.841  17.036  13.804
59600W        W27818  25.081  30.216   1.331
59601W        W27819   5.305  27.960  14.951
59602W        W27820  21.222  15.107  14.158
59603W        W27821   2.017  16.483  14.359
59604W        W27822   0.484  26.510   1.233
59605W        W27823  44.834   7.624  13.362
59606W        W27824  43.918  27.882  10.659
59607W        W27825  39.734  31.564  11.880
59608W        W27826   4.151  40.519   4.439
59609W        W27827   1.762   1.343  11.173
59610W        W27828  20.661  16.756  10.553
59611W        W27829  13.876  15.522  11.844
59612W        W27830   6.427  17.189   2.204
59613W        W27831  34.713  20.646   4.293
59614W        W27832  31.682   3.623   4.479
59615W        W27833   4.859  31.381  11.128
59616W        W27834  16.387  21.471   0.932
59617W        W27835  33.086  44.947  12.226
59618W        W27836  18.681  16.015  13.103
59619W        W27837  41.028   2.147  12.229
59620W        W27838  24.043   5.035  13.388
59621W        W27839  44.875  30.228   2.773
59622W        W27840   8.126   2.401   0.277
59623W        W27841  21.259  40.004   4.214
59624W        W27842  42.048   2.452  14.421
59625W        W27843  42.776  15.243   2.822
59626W        W27844  12.584  18.226  13.952
59627W        W27845  10.676   3.170   0.012
59628W        W27846  38.209  37.810  10.698
59629W        W27847  27.945  20.746   1.270
59630W        W27848  42.409  29.397   1.212
59631W        W27849  27.888  16.602   2.351
59632W        W27850   2.689  25.164   3.736
59633W        W27851  43.959  39.399   2.873
59634W        W27852  21.525  44.090   3.688
59635W        W27853  41.988  32.045   0.583
59636W        W27854  21.594  16.287  13.878
59637W        W27855  39.730   1.590   3.133
59638W        W27856   9.178  28.096   1.479
59639W        W27857  39.926  38.904  12.633
59640W        W27858   3.307  40.726   2.565
59641W        W27859  12.075  30.472   4.861
59642W        W27860  42.317   0.042   3.244
59643W        W27861   8.351  35.529  13.474
59644W        W27862  40.789  33.565  10.120
59645W        W27863   0.007  40.443   2.272
59646W        W27864  14.377  27.440  13.795
59647W        W27865  23.454  25.676  10.589
59648W        W27866  24.426  37.418   2.855
59649W        W27867  39.840  28.191   1.124
59650W        W27868  20.732  24.049   2.359
59651W        W27869  18.872   9.848   3.311
59652W        W27870  33.890  43.481  12.178
59653W        W27871  31.547  19.616   2.339
59654W        W27872   9.279  18.162  12.370
59655W        W27873   8.745   0.938  14.582
59656W        W27874   4.364  10.112   4.926
59657W        W27875   3.734  40.820   4.510
59658W        W27876   8.275  10.498  14.334
59659W        W27877  20.313  44.680   2.266
59660W        W27878  13.607  11.749   2.749
59661W        W27879  34.768  27.493  11.905
59662W        W27880  21.019  39.567   1.697
59663W        W27881  36.721  20.895   5.023
59664W        W27882  40.997  18.036  13.908
59665W        W27883  28.571  44.885  13.339
59666W        W27884  20.141  44.435  11.525
59667W        W27885  39.480  30.873   3.654
59668W        W27886  24.118  33.872   3.291
59669W        W27887  44.721  25.056  14.944
59670W        W27888  24.606  38.929  10.593
59671W        W27889  35.842  12.921   2.958
59672W        W27890  11.779   9.394   3.176
59673W        W27891  31.115   7.417   0.355
59674W        W27892   3.172   7.655   3.314
59675W        W27893  15.505  36.919   2.787
59676W        W27894  23.669  35.829  11.572
59677W        W27895  18.115  33.199  11.490
59678W        W27896  28.495  31.353   1.335
59679W        W27897  42.859  27.730   3.720
59680W        W27898  27.691   4.946   4.120
59681W        W27899  39.282  44.397   0.460
59682W        W27900  33.154  30.499   0.273
59683W        W27901  12.097   5.551  11.163
59684W        W27902  14.035  28.448   0.372
59685W        W27903  25.084  30.427  14.765
59686W        W27904  11.293  16.357   5.006
59687W        W27905   5.641  17.508   5.070
59688W        W27906  36.019  41.543  11.024
59689W        W27907   0.197  19.759  13.296
59690W        W27908   6.951  18.803  12.203
59691W        W27909  37.831  31.823   4.191
59692W        W27910  29.143  17.617   1.863
59693W        W27911  21.520  17.771  13.907
59694W        W27912  17.382  37.589  11.473
59695W        W27913  23.472  41.969  11.649
59696W        W27914  11.386  33.473   0.465
59697W        W27915  34.867  21.687   4.439
59698W        W27916  16.457  28.037   2.787
59699W        W27917   3.736  10.687   4.489
59700W        W27918  28.395  28.291   1.238
59701W        W27919  19.212   2.950  12.936
59702W        W27920   0.712  17.688  13.121
59703W        W27921   4.269  24.803   4.241
59704W        W27922  10.644  35.084   1.462
59705W        W27923  14.280   2.939  11.080
59706W        W27924  24.547  26.181  11.444
59707W        W27925  25.612  36.319   2.682
59708W        W27926  42.932   5.482   3.615
59709W        W27927  23.292  33.165  13.948
59710W        W27928  24.677  17.172   3.332
59711W        W27929  24.214  18.944  13.482
59712W        W27930  32.959  36.247  12.558
59713W        W27931   5.595  13.545  12.400
59714W        W27932  11.639  18.789   0.484
59715W        W27933   9.641  14.076  12.333
59716W        W27934   6.355  26.238  13.507
59717W        W27935   9.924  35.977   4.095
59718W        W27936  12.293  10.405   2.242
59719W        W27937  32.544  26.542  11.679
59720W        W27938  32.559  28.848  10.823
59721W        W27939  20.240  15.847   5.025
59722W        W27940  13.505  24.139   1.324
59723W        W27941  40.317  14.736  11.210
59724W        W27942  13.145  29.127  11.663
59725W        W27943   4.825  43.546  14.270
59726W        W27944   4.294   8.065  11.195
59727W        W27945   3.458  19.764  14.596
59728W        W27946  20.155  28.108  13.836
59729W        W27947  30.180  34.640   0.907
59730W        W27948  27.013  34.192  14.543
59731W        W27949  38.279   5.309   1.649
59732W        W27950  21.203  24.701   4.706
59733W        W27951  22.701  30.516   4.580
59734W        W27952  11.787  40.476   0.302
59735W        W27953  11.822   8.418  12.871
59736W        W27954  29.516  29.039   4.027
59737W        W27955  35.577  40.151  10.748
59738W        W27956  20.197   8.888  14.060
59739W        W27957  35.438   0.304  14.801
59740W        W27958   9.239  26.490   0.726
59741W        W27959   4.796  23.599   4.135
59742W        W27960  33.133  18.097   3.251
59743W        W27961  37.792  32.510   3.258
59744W        W27962  16.719  44.737   1.710
59745W        W27963  16.853  34.573   1.227
59746W        W27964  10.816   0.417   4.956
59747W        W27965  43.261  38.999   2.303
59748W        W27966  38.916  12.993  14.210
59749W        W27967   9.047  44.364  11.954
59750W        W27968  29.163  37.785  11.127
59751W        W27969  26.483  27.085  12.834
59752W        W27970   4.522  30.021  12.466
59753W        W27971  15.628   9.314   0.956
59754W        W27972  27.585  29.506  10.985
59755W        W27973   7.235   0.403  11.987
59756W        W27974  33.676   8.912  10.462
59757W        W27975  38.969  26.936  11.130
59758W        W27976  39.949  23.644   3.189
59759W        W27977  40.576   4.787   0.763
59760W        W27978  20.278   9.608   0.169
59761W        W27979  27.384  16.643   2.275
59762W        W27980  30.733   0.793   0.643
59763W        W27981   5.439  15.269  14.461
59764W        W27982  21.079  44.321  13.455
59765W        W27983  14.376  39.008  12.433
59766W        W27984  31.444  44.537  13.661
59767W        W27985  34.037  36.546   1.773
59768W        W27986  13.654  32.905   0.790
59769W        W27987  23.183  29.470   1.339
59770W        W27988  23.263  22.207   2.708
59771W        W27989  40.199  14.335   1.030
59772W        W27990  24.525  37.329   4.728
59773W        W27991  13.832  39.787   3.759
59774W        W27992   0.182   5.303  12.352
59775W        W27993  23.195  13.325   4.555
59776W        W27994  27.164  13.765   3.817
59777W        W27995  38.872  17.124  10.732
59778W        W27996   1.873  34.401   4.610
59779W        W27997  13.720  23.715  12.171
59780W        W27998  43.406   0.290  12.551
59781W        W27999   5.876   3.478  11.803
59782W        W28000  22.332  19.603  10.643
59783W        W28001  40.946  32.135  14.320
59784W        W28002   8.334  27.018   3.208
59785W        W28003  30.401  17.292  14.024
59786W        W28004  27.940  12.136   2.351
59787W        W28005  18.772  13.384   2.688
59788W        W28006  23.080   0.002   4.586
59789W        W28007  44.561  30.567  14.636
59790W        W28008  15.821   6.220   4.977
59791W        W28009  44.803  21.644  10.678
59792W        W28010   8.095  21.973   2.168
59793W        W28011   1.072  27.099   0.324
59794W        W28012  13.370   4.746  10.112
59795W        W28013  34.562  13.667  11.970
59796W        W28014  29.972  39.970  13.506
59797W        W28015  27.660  44.259   0.335
59798W        W28016  39.859  20.035  14.815
59799W        W28017  11.084  32.602  13.817
59800W        W28018  18.658   1.750  13.102
59801W        W28019  24.730   1.744   1.270
59802W        W28020  10.864  16.717   0.576
59803W        W28021  24.196  37.613   4.195
59804W        W28022   8.860  26.113   0.749
59805W        W28023  23.060  29.179   2.733
59806W        W28024  21.228  21.569   4.231
59807W        W28025  16.384  20.400   4.689
59808W        W28026  19.211  37.412   2.754
59809W        W28027   0.867   6.854   0.907
59810W        W28028  11.282  39.067  11.706
59811W        W28029   7.219  17.151   4.001
59812W        W28030  11.409  12.202   0.281
59813W        W28031  27.913  28.490   1.366
59814W        W28032  39.608   0.318   2.823
59815W        W28033   7.964  32.407   3.289
59816W        W28034  41.362   9.651  14.388
59817W        W28035  40.025  38.042   3.287
59818W        W28036  20.807  29.671   3.719
59819W        W28037  41.499   5.448  13.050
59820W        W28038   9.155  26.147  13.520
59821W        W28039  19.388  21.227   1.962
59822W        W28040  10.772  11.306  11.995
59823W        W28041  40.425  27.904   0.275
59824W        W28042  20.631  24.316   0.030
59825W        W28043  43.921   3.431  11.583
59826W        W28044  33.888  13.773  11.491
59827W        W28045  16.837   2.946  11.965
59828W        W28046  18.476  38.833  11.554
59829W        W28047  32.943   2.733   0.632
59830W        W28048  20.253  31.663  11.583
59831W        W28049   4.342  31.455  14.443
59832W        W28050   6.770  43.873   0.638
59833W        W28051  15.855  25.775  13.321
59834W        W28052  44.136   3.273   1.810
59835W        W28053   3.208  16.809   0.566
59836W        W28054  10.772  34.023   1.416
59837W        W28055  12.691  23.030  13.572
59838W        W28056  10.150  15.300  13.824
59839W        W28057   6.267  44.217  12.600
59840W        W28058  16.339   8.247  13.715
59841W        W28059  15.079  11.301  11.650
59842W        W28060   0.812   1.413  11.607
59843W        W28061  30.548   4.730   3.626
59844W        W28062  38.618  25.365  10.566
59845W        W28063   6.148  24.605  14.489
59846W        W28064  13.287   7.706  13.664
59847W        W28065  31.581  44.389  12.654
59848W        W28066  19.993  19.155  11.193
59849W        W28067  44.043   6.867  11.170
59850W        W28068  15.590   8.429  13.642
59851W        W28069  23.559   0.287  12.604
59852W        W28070  12.584  38.573   0.452
59853W        W28071  18.622  40.213   3.755
59854W        W28072   6.876  32.650   0.237
59855W        W28073   0.866  39.473   1.810
59856W        W28074  25.273   5.255   2.306
59857W        W28075   4.297  35.622  10.332
59858W        W28076  44.387  10.259   4.103
59859W        W28077   4.369  13.634   4.658
59860W        W28078  33.323  21.556   2.823
59861W        W28079   9.836  16.013   4.187
59862W        W28080   5.186  22.612   3.155
59863W        W28081  15.443  25.507  14.403
59864W        W28082  34.168  34.137   3.670
59865W        W28083   9.947  27.194   3.386
59866W        W28084  20.699  13.991  13.378
59867W        W28085  25.105  17.018   5.131
59868W        W28086  31.302  38.536   3.194
59869W        W28087  18.645  36.075   3.667
59870W        W28088  19.594  30.809   4.179
59871W        W28089  13.173  34.830  12.160
59872W        W28090  42.463   1.566   3.106
59873W        W28091  29.909  35.094  11.094
59874W        W28092  16.651  32.998   0.902
59875W        W28093  26.925  19.118   4.130
59876W        W28094  28.344   7.015  14.817
59877W        W28095   4.106  29.703   1.277
59878W        W28096  33.769  22.128  13.900
59879W        W28097   5.622  33.576  12.038
59880W        W28098  41.602  16.256  13.011
59881W        W28099  21.067   3.612  14.093
59882W        W28100   7.992  22.352   1.046
59883W        W28101  10.156  43.297  11.949
59884W        W28102  20.519  10.694   3.877
59885W        W28103  41.548  34.153   2.300
59886W        W28104   8.852   9.158   4.728
59887W        W28105  12.665  22.071  10.890
59888W        W28106  33.881  30.097   2.242
59889W        W28107  32.589  33.859  11.702
59890W        W28108   3.154  26.028  13.544
59891W        W28109  22.081  22.217   1.348
59892W        W28110  35.816  22.047  14.464
59893W        W28111   2.752  16.708   2.849
59894W        W28112  32.253  33.254  10.312
59895W        W28113  35.891  36.517  13.758
59896W        W28114  28.773   0.878  12.520
59897W        W28115  43.769  34.453  12.984
59898W        W28116  34.448  37.820  13.374
59899W        W28117  35.044  22.284  12.796
59900W        W28118  39.890  39.507  12.320
59901W        W28119  42.181  41.027  12.463
59902W        W28120  38.337  18.541  12.987
59903W        W28121  42.922  28.209   0.770
59904W        W28122  25.953  27.428   4.619
59905W        W28123  23.153   0.844  10.734
59906W        W28124   5.309  30.506   0.285
59907W        W28125  30.947  19.113   2.759
59908W        W28126  32.192  10.285  12.101
59909W        W28127  14.103  16.290   1.132
59910W        W28128  26.500  33.876   3.669
59911W        W28129  13.428  21.967   3.257
59912W        W28130  26.081  14.896  11.741
59913W        W28131  23.657  44.731  14.497
59914W        W28132  29.286  17.105  14.066
59915W        W28133  18.703  28.921  11.676
59916W        W28134  17.391  37.477   2.559
59917W        W28135  36.437  23.683  14.314
59918W        W28136  42.268  17.095   2.442
59919W        W28137  12.383  40.393  13.150
59920W        W28138  16.237  20.850  14.756
59921W        W28139   6.874  28.642   1.593
59922W        W28140  40.135  39.063  12.159
59923W        W28141  39.134  23.162   1.244
59924W        W28142  40.019  36.618  14.300
59925W        W28143  17.531  19.460   1.379
59926W        W28144   2.770  29.977   1.452
59927W        W28145  41.309  44.279   2.899
59928W        W28146  16.220   2.213  11.673
59929W        W28147  36.846   7.688  13.576
59930W        W28148  44.380  24.466   2.703
59931W        W28149  39.452  24.079  13.473
59932W        W28150  41.926   9.750   3.240
59933W        W28151  21.047  15.914  14.772
59934W        W28152  10.162   4.838   3.029
59935W        W28153   6.910  23.212   4.167
59936W        W28154   1.973   9.868   1.734
59937W        W28155   2.489  38.770   4.326
59938W        W28156  40.270  13.011  10.442
59939W        W28157  14.904  16.732   1.382
59940W        W28158  18.902  17.219   4.839
59941W        W28159  33.838  28.519  12.465
59942W        W28160  19.219  20.625  11.972
59943W        W28161  43.870  12.853   0.677
59944W        W28162  33.012  27.458   1.776
59945W        W28163  17.164  19.496   0.794
59946W        W28164   9.513   3.343  14.091
59947W        W28165  20.586  15.646  14.513
59948W        W28166   9.331  39.043  11.495
59949W        W28167  16.848   0.537   2.358
59950W        W28168   5.692  18.290  13.906
59951W        W28169   3.103  11.232  13.123
59952W        W28170   5.779  19.486   2.317
59953W        W28171   7.479  35.279   3.402
59954W        W28172  10.923  14.614  12.475
59955W        W28173  44.453   5.630   4.677
59956W        W28174  37.750  39.802  13.410
59957W        W28175  22.183  26.719   1.971
59958W        W28176  16.774  40.427  12.183
59959W        W28177  33.811  36.983  14.896
59960W        W28178  18.428  13.069   2.349
59961W        W28179  33.912  39.753   2.960
59962W        W28180  29.028  33.058   2.525
59963W        W28181   6.746  21.693  12.880
59964W        W28182  21.603   2.922  13.894
59965W        W28183   6.980  35.066  14.380
59966W        W28184  41.567  41.905   3.263
59967W        W28185  24.995   0.377   0.802
59968W        W28186  15.700  23.871   4.125
59969W        W28187  25.572  19.756  11.611
59970W        W28188   6.604  26.814  12.120
59971W        W28189  30.324  17.479   9.785
59972W        W28190  23.135  21.361   1.795
59973W        W28191  38.121  32.097  11.528
59974W        W28192  22.422  23.534  12.071
59975W        W28193   7.565  23.609   4.857
59976W        W28194  11.637   8.931  12.972
59977W        W28195  15.769   3.810   2.499
59978W        W28196  15.605   5.698  14.533
59979W        W28197   5.403   7.180   3.668
59980W        W28198   7.812   0.538   4.565
59981W        W28199  27.694  38.859  11.205
59982W        W28200   5.458  27.420   3.307
59983W        W28201   8.889  38.421  13.366
59984W        W28202  12.180  21.697  10.548
59985W        W28203  17.978  30.247   1.943
59986W        W28204  20.015  40.976   4.284
59987W        W28205  22.117  43.104   3.625
59988W        W28206  35.057   5.861  10.646
59989W        W28207  40.968  17.549  11.981
59990W        W28208  26.520   2.326  13.201
59991W        W28209  17.536  29.000  14.664
59992W        W28210  19.582  37.818   1.880
59993W        W28211   2.057  29.487   1.969
59994W        W28212   0.960   9.376  11.523
59995W        W28213   9.686  26.472  11.684
59996W        W28214   6.259  10.364   1.162
59997W        W28215  32.161  19.643   2.410
59998W        W28216  25.181  21.797  13.940
59999W        W28217  25.271  22.304  11.581
60000W        W28218   7.327  38.814   3.758
60001W        W28219  35.435  21.038  12.970
60002W        W28220  38.347  20.780   2.848
60003W        W28221  34.012   9.728  11.216
60004W        W28222  27.474  19.014   2.681
60005W        W28223   7.245  31.694   4.611
60006W        W28224   7.091   8.921   1.734
60007W        W28225   9.677  32.225  11.962
60008W        W28226  39.300  30.670   1.311
60009W        W28227   0.339  25.500   0.489
60010W        W28228   8.203  25.404   2.267
60011W        W28229   4.831   3.770   3.724
60012W        W28230  34.615   2.862  11.871
60013W        W28231  27.117  40.412  11.156
60014W        W28232  14.291  38.527  14.249
60015W        W28233  37.760  28.999   1.879
60016W        W28234   3.883  39.385   2.498
60017W        W28235  41.408  14.778  11.269
60018W        W28236  23.233  16.813  12.450
60019W        W28237  39.122  26.829   4.592
60020W        W28238  41.319   4.722   3.585
60021W        W28239  36.857   3.896  10.339
60022W        W28240  26.591  14.429   3.078
60023W        W28241  33.608  12.358  12.586
60024W        W28242   9.914  14.582   0.336
60025W        W28243   0.691  43.029   2.376
60026W        W28244   5.371  11.605  11.909
60027W        W28245  10.123   2.353  13.122
60028W        W28246  15.451   4.302   1.260
60029W        W28247  44.185   3.064  12.120
60030W        W28248  43.348  22.638  12.964
60031W        W28249   6.669  17.306   1.754
60032W        W28250  43.499  12.808   2.155
60033W        W28251  39.957   1.412   0.690
60034W        W28252  35.378  42.118   1.363
60035W        W28253   9.263  44.236  12.407
60036W        W28254  23.182  15.808  10.474
60037W        W28255   0.538  23.698  11.028
60038W        W28256  35.136  17.479  12.016
60039W        W28257  30.442   9.907  11.149
60040W        W28258  44.558  31.778   3.200
60041W        W28259  37.522  36.457   0.434
60042W        W28260  11.977  39.494   1.177
60043W        W28261   8.151  39.073   1.358
60044W        W28262  18.776  44.855  10.483
60045W        W28263   7.181  19.359   2.348
60046W        W28264  29.439  10.602   2.310
60047W        W28265  30.449  23.331   1.258
60048W        W28266  22.805  31.676   0.979
60049W        W28267  33.484  22.197  14.339
60050W        W28268  12.120  33.607   2.208
60051W        W28269  34.690  18.819  14.355
60052W        W28270  26.950  36.425  12.372
60053W        W28271  41.745  29.231  14.527
60054W        W28272  42.252  10.059   2.547
60055W        W28273   3.531   4.980  12.922
60056W        W28274   8.694   7.900  14.832
60057W        W28275   1.357  18.208  10.690
60058W        W28276  18.260  36.100  12.942
60059W        W28277  44.869  32.526  10.439
60060W        W28278   6.935  29.842   4.472
60061W        W28279   4.940  18.998   2.666
60062W        W28280   0.357  26.962  14.817
60063W        W28281  25.223  13.773   0.366
60064W        W28282   1.700  29.015  11.442
60065W        W28283  28.359  25.740  10.827
60066W        W28284  10.441  30.684   4.648
60067W        W28285  41.303  16.549   2.300
60068W        W28286  39.850  43.686   2.487
60069W        W28287   1.826   9.762   4.206
60070W        W28288  29.698  22.801   2.116
60071W        W28289   4.773  33.555   0.562
60072W        W28290  43.559  35.080   4.667
60073W        W28291  33.505  10.736   3.257
60074W        W28292   6.762  31.488   3.416
60075W        W28293  30.213  23.453  13.572
60076W        W28294  33.156  23.506  10.580
60077W        W28295  31.520  20.362   1.995
60078W        W28296  41.557  11.597  10.385
60079W        W28297  20.488   2.815  10.798
60080W        W28298   6.933  15.262   0.018
60081W        W28299  35.530  25.854  10.885
60082W        W28300   7.404  20.076   4.656
60083W        W28301  14.843  37.338   3.285
60084W        W28302  18.881  17.822   1.651
60085W        W28303  28.768  24.655  14.849
60086W        W28304  41.550  30.569   2.875
60087W        W28305  23.933   3.314  10.289
60088W        W28306  33.077  27.110  13.846
60089W        W28307  13.197  23.282   2.460
60090W        W28308  32.642  39.565   3.138
60091W        W28309  34.595  44.791   4.188
60092W        W28310  43.932  15.273   3.767
60093W        W28311  14.011   1.521  13.377
60094W        W28312  31.031  29.671   4.817
60095W        W28313  38.844  39.836   4.652
60096W        W28314   4.714  10.681  11.300
60097W        W28315  31.716  25.075   4.089
60098W        W28316  11.838   1.189   0.745
60099W        W28317  40.537  33.129  14.359
60100W        W28318   2.073  41.238   3.756
60101W        W28319  37.504  15.028   1.251
60102W        W28320  13.212  44.883   4.073
60103W        W28321   9.231  23.360   1.851
60104W        W28322   7.206  42.909   0.527
60105W        W28323  36.828   2.151  12.876
60106W        W28324  17.360  15.382  13.915
60107W        W28325  37.003  41.342  12.418
60108W        W28326   1.995  12.544  12.214
60109W        W28327  39.276  21.748   4.196
60110W        W28328  42.747  43.448   1.838
60111W        W28329  29.081  24.646   3.949
60112W        W28330  31.058  13.130   4.951
60113W        W28331  39.392   6.693   4.932
60114W        W28332  10.394  30.962   5.091
60115W        W28333  10.764  22.331  14.699
60116W        W28334  33.784  23.594  13.970
60117W        W28335  27.583  21.149   3.102
60118W        W28336   6.755  32.854   3.681
60119W        W28337   8.309  14.653   4.546
60120W        W28338  20.202  11.461   1.431
60121W        W28339  43.337  38.019  10.953
60122W        W28340  24.597   2.778  14.398
60123W        W28341   5.587  21.440  11.885
60124W        W28342  26.091  17.695  14.847
60125W        W28343  42.532  44.238   4.809
60126W        W28344  16.854  22.702   1.466
60127W        W28345  26.763  37.059   3.721
60128W        W28346  21.289   5.593  14.010
60129W        W28347   0.753  34.062  12.822
60130W        W28348  34.550  15.937   0.856
60131W        W28349  19.393  31.068  13.525
60132W        W28350  37.464  11.650   3.422
60133W        W28351  30.348  26.473   0.409
60134W        W28352   3.962  14.737   1.022
60135W        W28353  41.549  20.598   3.040
60136W        W28354  30.428  37.871  14.903
60137W        W28355  33.577  27.993  13.656
60138W        W28356  27.045   4.782  13.099
60139W        W28357  30.408   2.275  13.320
60140W        W28358  20.756  28.087  10.716
60141W        W28359  44.939  44.972   1.325
60142W        W28360  22.194  34.536  12.462
60143W        W28361  32.697  41.341   2.245
60144W        W28362  16.536  26.107   2.149
60145W        W28363  21.056   2.195  13.066
60146W        W28364  19.567   1.783   4.390
60147W        W28365  38.414  42.453   4.718
60148W        W28366  13.171  11.813   0.525
60149W        W28367  22.033   7.154   3.684
60150W        W28368  17.240  42.947  13.073
60151W        W28369  24.833  23.390  12.022
60152W        W28370   1.620   1.250   0.662
60153W        W28371  23.146  39.417   3.671
60154W        W28372   8.629  20.775  14.515
60155W        W28373  14.269  39.929   4.271
60156W        W28374  15.665   6.221  14.477
60157W        W28375  39.252  27.933   2.367
60158W        W28376  21.059  29.143  12.263
60159W        W28377  14.854  19.908  11.163
60160W        W28378  33.986  34.872   2.419
60161W        W28379  38.589  14.268  12.180
60162W        W28380  18.633  11.641  13.326
60163W        W28381  32.656  28.580  14.764
60164W        W28382   4.774  21.273  10.169
60165W        W28383  24.053  18.582   3.191
60166W        W28384  20.048  40.951  14.745
60167W        W28385  36.356  24.472  13.081
60168W        W28386   0.518  33.935   4.191
60169W        W28387  37.995  29.445   4.650
60170W        W28388  23.532  31.539   1.455
60171W        W28389  38.116  30.290   1.767
60172W        W28390  34.464  15.260  11.897
60173W        W28391   4.436  32.509  13.082
60174W        W28392  16.825  13.223  14.985
60175W        W28393  35.248   4.674   2.895
60176W        W28394  43.231  43.969  13.893
60177W        W28395   5.195  12.020  13.755
60178W        W28396  18.636  27.191  12.185
60179W        W28397   4.154  38.942   2.370
60180W        W28398   8.849  17.546  11.013
60181W        W28399  34.388  23.213  12.474
60182W        W28400  35.826  30.445  11.976
60183W        W28401  14.079   9.947  11.256
60184W        W28402  19.323   6.205   0.974
60185W        W28403  44.527  21.248   3.119
60186W        W28404  44.434  15.555  10.736
60187W        W28405   4.596  22.763   0.950
60188W        W28406   6.453  43.945   4.613
60189W        W28407  14.989  10.059  11.169
60190W        W28408  18.632   0.262   1.276
60191W        W28409  43.011  30.665  14.425
60192W        W28410   6.178  16.978   0.295
60193W        W28411  34.710  38.392   3.032
60194W        W28412  24.412  12.585  14.424
60195W        W28413  27.714  15.219  13.939
60196W        W28414  30.886  39.309   2.219
60197W        W28415  43.918  38.888  11.588
60198W        W28416   0.438  37.171  12.110
60199W        W28417  43.059  12.063  13.887
60200W        W28418  11.700  10.955   4.711
60201W        W28419  44.753   8.705   0.208
60202W        W28420  30.018  40.979  11.156
60203W        W28421  35.288  23.276  13.366
60204W        W28422  10.299  13.582  10.651
60205W        W28423   7.269  18.124  13.559
60206W        W28424   9.075   0.415  13.087
60207W        W28425  21.602   9.912   1.027
60208W        W28426  38.695  26.074  14.868
60209W        W28427  41.235  21.295  14.646
60210W        W28428  12.681  25.190   1.737
60211W        W28429  34.436  23.493   2.900
60212W        W28430  16.477  42.000  13.958
60213W        W28431  31.561  25.130  13.759
60214W        W28432  35.044  33.227   4.103
60215W        W28433  38.977  18.529  11.586
60216W        W28434   6.116  16.682  12.555
60217W        W28435  17.563  41.517  14.827
60218W        W28436  18.646  17.075  12.949
60219W        W28437  44.498  20.146  11.573
60220W        W28438  29.140   0.644   2.302
60221W        W28439  34.086  21.689   0.199
60222W        W28440  35.613  28.655   3.163
60223W        W28441  12.175   3.637  11.188
60224W        W28442  37.747  22.776   0.928
60225W        W28443  12.133   5.290  14.619
60226W        W28444  38.979  35.968   3.119
60227W        W28445  43.726  40.934   3.476
60228W        W28446   5.397   9.721   4.019
60229W        W28447  11.054  17.736  14.904
60230W        W28448   1.517  27.452  13.336
60231W        W28449  20.248  39.442   0.366
60232W        W28450  37.044  14.548  14.975
60233W        W28451   2.826  27.211  14.933
60234W        W28452   5.268  44.440   5.079
60235W        W28453  32.810  31.734  12.142
60236W        W28454  34.286   6.730  11.559
60237W        W28455  40.722  24.554   1.318
60238W        W28456   1.045  43.445   0.667
60239W        W28457  10.265   2.329   3.208
60240W        W28458  37.002  37.386   0.733
60241W        W28459  25.907   3.920  10.504
60242W        W28460  27.642   3.799  14.373
60243W        W28461  32.368   1.777  13.307
60244W        W28462   4.262  43.465   0.077
60245W        W28463  21.380   2.626   1.665
60246W        W28464  11.223  44.038  10.242
60247W        W28465  30.460  27.118   2.156
60248W        W28466  23.913  28.978   3.014
60249W        W28467  38.069  10.967  13.817
60250W        W28468  40.912  21.256   1.491
60251W        W28469  18.393  37.953   3.638
60252W        W28470  28.953  37.518   4.259
60253W        W28471  18.091   0.618   2.299
60254W        W28472  43.925  26.397  12.552
60255W        W28473  37.430   4.072   2.822
60256W        W28474   6.272  25.981   1.872
60257W        W28475  25.936  29.118  12.073
60258W        W28476  31.050  42.847   2.452
60259W        W28477  31.927  24.723   0.207
60260W        W28478  40.388   8.312  14.951
60261W        W28479  38.525   3.684   5.386
60262W        W28480  35.413  30.046   3.436
60263W        W28481  22.197  43.844  12.509
60264W        W28482  37.875  34.524  13.434
60265W        W28483  37.263   5.573   2.569
60266W        W28484   2.223   7.406  12.915
60267W        W28485   7.567  18.558   3.158
60268W        W28486  30.195  35.323  11.507
60269W        W28487  14.282  20.722   0.379
60270W        W28488   5.316  24.203   1.546
60271W        W28489  19.799   7.670  12.522
60272W        W28490   4.519  28.614  14.893
60273W        W28491  14.473  33.945   0.543
60274W        W28492  17.553  11.726  11.481
60275W        W28493  33.091  22.590   1.475
60276W        W28494  13.350  18.819  12.226
60277W        W28495  43.515  12.311  13.945
60278W        W28496  27.467  25.058   2.857
60279W        W28497  17.477   0.065  12.631
60280W        W28498  13.884  24.725  14.841
60281W        W28499   8.042   5.602   2.231
60282W        W28500   1.281  30.596   0.798
60283W        W28501   2.965   9.703   2.882
60284W        W28502  33.856  17.184   1.839
60285W        W28503   6.842  22.007  11.192
60286W        W28504  31.575   6.448   5.081
60287W        W28505  32.959  10.265  12.768
60288W        W28506  42.357   5.282  12.370
60289W        W28507   1.944  16.770  10.695
60290W        W28508  26.595   4.298   2.687
60291W        W28509  40.290   0.367  13.617
60292W        W28510   7.159  10.654   4.096
60293W        W28511  32.519  41.389   2.747
60294W        W28512  19.133  20.645   2.218
60295W        W28513   7.374  14.917   3.177
60296W        W28514  36.512  26.692  13.628
60297W        W28515  32.626  40.675  12.871
60298W        W28516   2.416   4.303   0.790
60299W        W28517  38.265  23.708  14.979
60300W        W28518  36.879  12.913  13.972
60301W        W28519  18.258   7.651   2.785
60302W        W28520  21.243  42.858  10.856
60303W        W28521  41.066  27.139   2.629
60304W        W28522   9.178  31.422  13.484
60305W        W28523  42.682  15.221  14.316
60306W        W28524  21.228  27.110  14.870
60307W        W28525  30.158  12.145   2.680
60308W        W28526   9.215  25.140   0.550
60309W        W28527  43.902  28.791  13.842
60310W        W28528   1.446  10.764  12.021
60311W        W28529  25.306  33.412  11.081
60312W        W28530  18.153   3.051   4.950
60313W        W28531  18.769  39.890  13.437
60314W        W28532   5.337   3.568  10.473
60315W        W28533  14.134  35.402  10.679
60316W        W28534  28.695  26.507   2.178
60317W        W28535  13.121  17.760   4.864
60318W        W28536  13.775  21.243  14.919
60319W        W28537   8.827   3.889   0.843
60320W        W28538  14.928   7.938  11.517
60321W        W28539  20.984  42.379  10.780
60322W        W28540  24.529  30.486   3.569
60323W        W28541  22.016  37.243  13.045
60324W        W28542  26.153  11.729  11.164
60325W        W28543  33.547  31.513  11.506
60326W        W28544  19.253  26.551   4.403
60327W        W28545  43.484   6.327  12.453
60328W        W28546  18.734  27.266  13.018
60329W        W28547  40.067  44.804  14.403
60330W        W28548  13.833  22.544   3.768
60331W        W28549  15.664  19.732   3.203
60332W        W28550  32.133   9.764   0.701
60333W        W28551   7.307  43.644  12.765
60334W        W28552  17.749  26.684   2.766
60335W        W28553  29.167   2.336  10.484
60336W        W28554  28.638  29.224   4.838
60337W        W28555  31.956  20.494  12.664
60338W        W28556  20.191  25.674   2.841
60339W        W28557  15.298  30.996   0.463
60340W        W28558  26.438  18.494  13.354
60341W        W28559  15.599   1.768   0.388
60342W        W28560   4.735  40.990   1.015
60343W        W28561   4.248   5.848   1.880
60344W        W28562  31.884  41.769   3.318
60345W        W28563  42.046  44.496   2.631
60346W        W28564  12.728  33.599  12.591
60347W        W28565  40.936  10.274   4.640
60348W        W28566  32.057   7.028  13.923
60349W        W28567  40.964  39.387   0.689
60350W        W28568   4.816   8.640   2.382
60351W        W28569  30.742  26.534   2.322
60352W        W28570  26.689  33.651   5.051
60353W        W28571  21.963  15.069   3.248
60354W        W28572  34.833   3.514  13.107
60355W        W28573  39.898   4.385   2.394
60356W        W28574  31.010   3.463   0.496
60357W        W28575  20.203  25.583  11.111
60358W        W28576  22.717  32.816  14.771
60359W        W28577  20.672  31.679  12.424
60360W        W28578  43.331  43.363   2.453
60361W        W28579   6.715  33.369   3.707
60362W        W28580  37.262  15.382   0.390
60363W        W28581  31.063  19.818   0.732
60364W        W28582  31.631  10.670  12.185
60365W        W28583  30.393  26.280  12.979
60366W        W28584  24.307  31.614  12.655
60367W        W28585  25.925   8.829   4.852
60368W        W28586  36.933  33.571   4.927
60369W        W28587   9.821  28.910   1.707
60370W        W28588  25.306  31.389   0.257
60371W        W28589   9.842   1.446  13.955
60372W        W28590  30.908  36.470  11.652
60373W        W28591  33.381   0.837   3.199
60374W        W28592  34.004  33.537  13.883
60375W        W28593  26.780  40.487   1.088
60376W        W28594  10.882  28.709  12.475
60377W        W28595  42.485  27.671   0.390
60378W        W28596  44.296  23.612  14.977
60379W        W28597  13.145  12.397  12.474
60380W        W28598  38.917  13.348   1.888
60381W        W28599   0.313   1.385   0.406
60382W        W28600  35.903  18.725   2.055
60383W        W28601   9.117  18.106  11.854
60384W        W28602  37.479   6.834  10.672
60385W        W28603  13.975  10.316   1.889
60386W        W28604  13.697  43.569  12.013
60387W        W28605  39.568  32.538   4.413
60388W        W28606  26.528  35.031  11.348
60389W        W28607  38.838  28.985  14.955
60390W        W28608  29.481  44.952   4.598
60391W        W28609  39.251  10.497  11.847
60392W        W28610  14.335  19.782  13.818
60393W        W28611  35.458  40.777  12.954
60394W        W28612  16.249  21.588  10.852
60395W        W28613  14.592  33.061  11.680
60396W        W28614   4.656  10.068   5.378
60397W        W28615  13.795  43.719  13.013
60398W        W28616  28.638  31.356   2.718
60399W        W28617   8.176   6.314   4.575
60400W        W28618  44.209   7.923   0.790
60401W        W28619  14.335   5.247   2.867
60402W        W28620  21.726  22.062   1.762
60403W        W28621  17.732  34.053   1.717
60404W        W28622  36.897  41.404   2.663
60405W        W28623  27.156  41.854   3.884
60406W        W28624  22.927  18.154   0.128
60407W        W28625   4.026  34.373  13.206
60408W        W28626  11.043   7.572   0.092
60409W        W28627  12.528  21.493   4.181
60410W        W28628  32.368  38.229  12.655
60411W        W28629  36.546  13.528   3.650
60412W        W28630  34.408  18.744   1.195
60413W        W28631  25.629   1.962  10.588
60414W        W28632  31.235   4.776   2.340
60415W        W28633  13.171  10.306   2.924
60416W        W28634  17.119   8.307  13.273
60417W        W28635  43.418  40.456  13.563
60418W        W28636  13.369  20.993   4.611
60419W        W28637  16.048  14.815   1.788
60420W        W28638  16.704  10.171   0.051
60421W        W28639  20.060  17.574  12.944
60422W        W28640  16.786  22.274   2.164
60423W        W28641  36.502  22.940   2.977
60424W        W28642   7.782  30.406  11.632
60425W        W28643  36.997  15.592   3.342
60426W        W28644  44.155  36.231  14.730
60427W        W28645  44.190  32.800   1.426
60428W        W28646   4.280   7.363   0.896
60429W        W28647  44.144  43.928   1.649
60430W        W28648  44.880  12.918   1.519
60431W        W28649   7.864   1.257  13.345
60432W        W28650  25.541   7.319  10.659
60433W        W28651  13.597   5.466   2.684
60434W        W28652  16.224  38.915   4.582
60435W        W28653  44.956  34.585  14.421
60436W        W28654  36.244  18.373   4.828
60437W        W28655  15.738   2.346  11.847
60438W        W28656  22.453   6.278  12.410
60439W        W28657   6.403  23.005   1.879
60440W        W28658  13.615  21.638  12.202
60441W        W28659   8.742   1.761  10.631
60442W        W28660  14.099  43.094  12.437
60443W        W28661  42.319   8.227   3.822
60444W        W28662   2.274  28.842  14.715
60445W        W28663  20.072  35.505  13.035
60446W        W28664  27.095  44.358  12.838
60447W        W28665  38.546  20.716   0.245
60448W        W28666   3.980   1.920   1.319
60449W        W28667   9.916  33.971   1.794
60450W        W28668  22.831  31.085  14.785
60451W        W28669   6.436  41.796  10.496
60452W        W28670  43.451  22.088  14.277
60453W        W28671  27.678  43.762   0.137
60454W        W28672  28.373  32.086  13.533
60455W        W28673  12.268  40.351   0.467
60456W        W28674   0.521  43.229   2.821
60457W        W28675  30.464  27.205   3.141
60458W        W28676   1.134   7.298  14.205
60459W        W28677  27.972   5.869  14.426
60460W        W28678  18.668  35.074  13.549
60461W        W28679  39.316  44.273   4.674
60462W        W28680  24.320  31.075   1.183
60463W        W28681   8.821  38.104   2.428
60464W        W28682   9.580  43.796   0.659
60465W        W28683   6.021  36.983  14.327
60466W        W28684  21.568  24.602   3.243
60467W        W28685  26.126  22.413   3.904
60468W        W28686  29.987  13.254   1.867
60469W        W28687  33.438  24.584   3.835
60470W        W28688  44.534   0.443  11.075
60471W        W28689  12.232  30.232  10.630
60472W        W28690   3.689  31.422  11.939
60473W        W28691   3.269  43.442   3.941
60474W        W28692  19.287  24.285   1.859
60475W        W28693  13.099  35.327  14.293
60476W        W28694  16.697   2.209  11.476
60477W        W28695   1.426   6.570   4.880
60478W        W28696   6.710  41.512   0.967
60479W        W28697   4.762  26.649  10.297
60480W        W28698  15.528  12.788   3.145
60481W        W28699  42.117  41.308  14.028
60482W        W28700  30.944  29.786   0.917
60483W        W28701  35.310  12.798  12.529
60484W        W28702  38.394  23.134  13.285
60485W        W28703  39.975  28.558   1.491
60486W        W28704   9.227  17.532  13.391
60487W        W28705  28.110  21.096  10.076
60488W        W28706  29.150  26.925   0.404
60489W        W28707  30.883  16.665  10.210
60490W        W28708   9.703  25.936   1.720
60491W        W28709  43.304  10.901  14.776
60492W        W28710  26.690  16.582   0.899
60493W        W28711   1.273  43.370   0.203
60494W        W28712  31.880  26.073   4.602
60495W        W28713  17.621  28.045   4.133
60496W        W28714  19.157  11.106   1.764
60497W        W28715  12.866  40.861  14.099
60498W        W28716   8.289   0.886  10.469
60499W        W28717  36.689  26.561   9.611
60500W        W28718  18.078  35.692  14.281
60501W        W28719  20.318  35.368   2.299
60502W        W28720   9.275  13.139   2.764
60503W        W28721  38.828  40.487   3.266
60504W        W28722  19.936  44.795  11.212
60505W        W28723  37.310  42.605   2.388
60506W        W28724  30.003   2.511  14.791
60507W        W28725  19.478   0.241  13.811
60508W        W28726   3.691  30.151  11.671
60509W        W28727  22.550  14.729   0.229
60510W        W28728   5.921  40.762   2.211
60511W        W28729  20.446  30.378   2.839
60512W        W28730  32.040  13.614   3.072
60513W        W28731   9.597  37.990   3.233
60514W        W28732   6.721   9.685  13.385
60515W        W28733  44.439  17.731   3.280
60516W        W28734   3.891   3.626  13.774
60517W        W28735  21.201   9.747   2.061
60518W        W28736  36.057  32.015   1.467
60519W        W28737  12.603  26.374   4.152
60520W        W28738  28.433  44.935  11.150
60521W        W28739  40.904   0.774   0.740
60522W        W28740  17.378  41.402   1.646
60523W        W28741  21.224  33.391  13.040
60524W        W28742  33.219  27.208   3.088
60525W        W28743  20.136   8.712   0.505
60526W        W28744  26.255  39.044  14.198
60527W        W28745   8.896   8.929   1.474
60528W        W28746  43.425   6.439  11.649
60529W        W28747   2.860  43.108  13.893
60530W        W28748  22.627  28.882   2.841
60531W        W28749  28.388  14.708   1.232
60532W        W28750  16.100  43.963   2.297
60533W        W28751   8.015  32.456  13.988
60534W        W28752  31.960  26.032   1.159
60535W        W28753  18.546  20.505  12.491
60536W        W28754  37.183  41.920  13.950
60537W        W28755  19.705  31.450  13.673
60538W        W28756  27.535   6.649   4.504
60539W        W28757  25.667   6.440   1.757
60540W        W28758  17.976  12.688   0.855
60541W        W28759  18.477  28.570  13.359
60542W        W28760  22.503  15.753  12.924
60543W        W28761  28.480  37.486   3.587
60544W        W28762   6.841  16.684   0.460
60545W        W28763  34.897  12.742  14.071
60546W        W28764  43.844  27.969  14.172
60547W        W28765   3.871  10.659   0.810
60548W        W28766   9.755  32.562   2.206
60549W        W28767  15.761  44.876   2.671
60550W        W28768  35.744  44.635   2.281
60551W        W28769  30.428  43.933  12.082
60552W        W28770  15.114   7.180  10.260
60553W        W28771   1.096  37.444   3.102
60554W        W28772   9.150   1.851   3.142
60555W        W28773  37.082  15.377   2.773
60556W        W28774  14.374  43.018  11.591
60557W        W28775  18.786  39.542  14.285
60558W        W28776  38.984  39.883  11.057
60559W        W28777   3.856  44.322   3.762
60560W        W28778  30.787  41.303   2.242
60561W        W28779   9.071  39.608  13.651
60562W        W28780  37.353  21.792   3.219
60563W        W28781  14.234  20.750   1.430
60564W        W28782  19.974  24.135  11.162
60565W        W28783  21.278  24.182  12.509
60566W        W28784  12.144  31.496   3.245
60567W        W28785  42.647  20.343   4.292
60568W        W28786  27.044  32.267  11.577
60569W        W28787   3.232   7.832   3.803
60570W        W28788   8.817  40.015   3.765
60571W        W28789  34.114   3.894  14.125
60572W        W28790  28.979  33.132   4.638
60573W        W28791   3.890  36.528  12.130
60574W        W28792  13.980  32.198  12.953
60575W        W28793  13.672  11.578  13.413
60576W        W28794  35.061  28.384  14.962
60577W        W28795  21.000  43.362   2.130
60578W        W28796  28.753   4.042  12.052
60579W        W28797  44.002  10.873   4.587
60580W        W28798  12.158  18.820  14.718
60581W        W28799  20.968  15.230   1.897
60582W        W28800  20.141  23.782   1.097
60583W        W28801   9.789   5.226  11.082
60584W        W28802  27.101   0.150   2.426
60585W        W28803  43.301  42.338   3.389
60586W        W28804   9.382  36.446   0.927
60587W        W28805  30.685  25.267   2.334
60588W        W28806  38.096   8.855   0.141
60589W        W28807  18.613   6.299   2.196
60590W        W28808   3.765  29.983  13.952
60591W        W28809  29.998   5.457  14.418
60592W        W28810  44.689  16.626  11.118
60593W        W28811  37.321  31.925  11.184
60594W        W28812  36.544  29.593   1.872
60595W        W28813   9.194   2.468  14.490
60596W        W28814  33.728   2.324  14.326
60597W        W28815  13.700  31.314  11.516
60598W        W28816  34.259  29.242   4.081
60599W        W28817   7.355  17.685  13.826
60600W        W28818   6.722  21.077   4.507
60601W        W28819  32.924  18.075   2.200
60602W        W28820   6.900  21.699  12.369
60603W        W28821  17.570  40.089  12.757
60604W        W28822   6.801  43.594   5.108
60605W        W28823  31.041  12.362   1.130
60606W        W28824  22.514   8.833  10.661
60607W        W28825  11.570   8.946   3.403
60608W        W28826   6.660   7.684  10.669
60609W        W28827  34.197  30.956   4.509
60610W        W28828  28.177  12.806   3.225
60611W        W28829   9.848  30.418   0.345
60612W        W28830  33.320  31.026  11.033
60613W        W28831  22.969  24.008  12.480
60614W        W28832   2.527   1.534   0.531
60615W        W28833  25.479  14.125   5.127
60616W        W28834   8.636  18.707  12.398
60617W        W28835  15.658   4.847   1.254
60618W        W28836  18.286  17.254  14.366
60619W        W28837  18.209  18.525   3.885
60620W        W28838  43.342   1.724  11.180
60621W        W28839  14.012  19.009   0.997
60622W        W28840  31.971   6.506   0.708
60623W        W28841  17.042  14.321  13.877
60624W        W28842  39.750   0.268  14.506
60625W        W28843  14.601  27.426  14.663
60626W        W28844  40.663  27.886  12.917
60627W        W28845   3.393  29.438  13.410
60628W        W28846  34.427  13.032  13.423
60629W        W28847  39.542  19.097   0.300
60630W        W28848   0.825  13.782   2.445
60631W        W28849  28.952  27.427  11.669
60632W        W28850   7.848   6.425  12.918
60633W        W28851   8.691  43.395   4.539
60634W        W28852  43.408  25.099   1.728
60635W        W28853  34.451   3.268   3.806
60636W        W28854   4.646   7.799  13.000
60637W        W28855  21.760   1.080  13.594
60638W        W28856  22.711  35.674  12.604
60639W        W28857  24.469   0.625   2.762
60640W        W28858  27.181  37.934  10.678
60641W        W28859  17.312  20.788  10.585
60642W        W28860  28.053  13.281   1.023
60643W        W28861  35.328   8.785   0.437
60644W        W28862   0.825  35.382  12.214
60645W        W28863  10.163  40.780   1.811
60646W        W28864  43.593   5.682  11.199
60647W        W28865  37.866   9.755  14.228
60648W        W28866   4.344  19.199   0.540
60649W        W28867  18.852  30.073  13.023
60650W        W28868  25.472  28.362   3.356
60651W        W28869  44.496  26.727  10.348
60652W        W28870  20.475  36.993  14.518
60653W        W28871   0.395  19.153  10.552
60654W        W28872   8.579  26.963  11.131
60655W        W28873   1.616  35.532  13.419
60656W        W28874  24.267  29.401   2.164
60657W        W28875  31.165   9.375  13.261
60658W        W28876  40.350  32.529   1.545
60659W        W28877  22.567  41.493   0.452
60660W        W28878  14.712   6.746   0.014
60661W        W28879  27.044   8.757  10.781
60662W        W28880  32.365  28.153   2.213
60663W        W28881  13.155   7.165   0.772
60664W        W28882  13.234  28.444  13.043
60665W        W28883   1.300  11.135  14.537
60666W        W28884  37.973  35.199  13.875
60667W        W28885  18.453  25.885   2.374
60668W        W28886  29.119   5.644   4.143
60669W        W28887  36.510  16.593  12.500
60670W        W28888  44.776   6.322   0.703
60671W        W28889  14.643  18.035   1.856
60672W        W28890  31.794  23.788   1.263
60673W        W28891  15.049  43.050  13.941
60674W        W28892  17.347  26.982   3.715
60675W        W28893   7.338  24.043   1.783
60676W        W28894  38.113  17.171   3.152
60677W        W28895  30.344   6.357   1.334
60678W        W28896  28.858  28.950   0.511
60679W        W28897   6.552  32.646  10.576
60680W        W28898  14.286  35.341  11.536
60681W        W28899   6.924  11.091   2.299
60682W        W28900  12.616   9.151  12.440
60683W        W28901   7.882   9.254   1.417
60684W        W28902   4.945  26.408   1.367
60685W        W28903  22.139  17.822  14.501
60686W        W28904  28.657  23.257   4.681
60687W        W28905  39.345  26.098  12.852
60688W        W28906  43.473  17.981   3.972
60689W        W28907  23.742  21.606   3.229
60690W        W28908  31.367  32.843  11.232
60691W        W28909  37.092  21.665  10.431
60692W        W28910  32.921  14.070  11.036
60693W        W28911  36.801  18.211  12.383
60694W        W28912  17.722  10.702   3.581
60695W        W28913  31.645  22.994   4.796
60696W        W28914  20.216  24.799   1.699
60697W        W28915  33.003  19.648   3.719
60698W        W28916  11.713  39.765   1.852
60699W        W28917  15.469  32.813  14.228
60700W        W28918  44.166  39.878  12.589
60701W        W28919  16.062   9.052   0.684
60702W        W28920  34.353  20.590  12.418
60703W        W28921  19.115  16.998   1.420
60704W        W28922   4.305  16.077  13.479
60705W        W28923  41.363  44.247  14.029
60706W        W28924   3.426  29.416   2.640
60707W        W28925  13.279   7.718   4.265
60708W        W28926  13.051  18.243  14.480
60709W        W28927  36.339  38.000   0.443
60710W        W28928  33.792  32.800  13.457
60711W        W28929  25.752   0.970  12.928
60712W        W28930  10.139   9.956  13.080
60713W        W28931  24.638  27.891   3.593
60714W        W28932  20.755   6.733  11.625
60715W        W28933  12.414   2.285   2.321
60716W        W28934  42.303  39.169  12.707
60717W        W28935  39.580  13.779  11.605
60718W        W28936  42.504  10.280  14.368
60719W        W28937   1.355  37.365  12.881
60720W        W28938   9.801  17.455  11.213
60721W        W28939  28.975  37.181  11.978
60722W        W28940  38.272   0.372   0.360
60723W        W28941   7.213   9.853   4.111
60724W        W28942  41.953   9.141  13.899
60725W        W28943   9.872   9.394   2.317
60726W        W28944  27.146  40.471   1.899
60727W        W28945  14.850  16.238  13.130
60728W        W28946   7.900  12.317  12.492
60729W        W28947  31.933  12.282  10.689
60730W        W28948  37.957  27.630   1.402
60731W        W28949  25.103   5.288   1.341
60732W        W28950   3.340  44.511   2.000
60733W        W28951  44.310  28.583   2.699
60734W        W28952  22.314  13.219   2.242
60735W        W28953  21.215  13.404   0.379
60736W        W28954  32.075  22.244   3.842
60737W        W28955   1.982  44.755  13.482
60738W        W28956  40.836  21.179   5.103
60739W        W28957  29.453  25.123  14.321
60740W        W28958   4.272   7.712  14.844
60741W        W28959  10.817  43.899   0.360
60742W        W28960  13.738  18.978  12.977
60743W        W28961  26.663  18.105  13.003
60744W        W28962  13.510  19.299   1.367
60745W        W28963  11.181  35.001  10.779
60746W        W28964  19.503   7.881   2.214
60747W        W28965   3.213  39.387   3.842
60748W        W28966  36.538  12.670  14.875
60749W        W28967  25.166  10.212  13.069
60750W        W28968  41.048  20.537   1.028
60751W        W28969  14.365  22.089  12.229
60752W        W28970   7.917  15.737   0.276
60753W        W28971   3.164  37.332   2.306
60754W        W28972  14.275  43.853  12.901
60755W        W28973   0.374  42.194   2.631
60756W        W28974  35.506  26.585  14.886
60757W        W28975  34.495  26.941   3.664
60758W        W28976   8.289  35.120   1.156
60759W        W28977  29.980  12.638   4.539
60760W        W28978  38.854  30.529  13.907
60761W        W28979   9.825  41.588   1.715
60762W        W28980  39.875  13.372  11.366
60763W        W28981  35.546   2.421   4.989
60764W        W28982  44.361   9.136  11.534
60765W        W28983  15.118  21.622   2.194
60766W        W28984  44.201   3.768  12.492
60767W        W28985  27.610  19.697  12.875
60768W        W28986  41.346  20.721  12.230
60769W        W28987   1.869  31.090  11.511
60770W        W28988  17.586  24.941  13.474
60771W        W28989  10.014  13.666   2.613
60772W        W28990  19.739  17.899   0.256
60773W        W28991  26.037  12.237  12.385
60774W        W28992  17.975  44.777  11.472
60775W        W28993  15.324  14.846  12.516
60776W        W28994  39.387  14.286   1.775
60777W        W28995  20.197  33.570  12.811
60778W        W28996  16.131  16.304   3.283
60779W        W28997  12.884  25.288  11.738
60780W        W28998  31.229  20.803  12.863
60781W        W28999   0.762  21.055  13.971
60782W        W29000  26.105  40.026  14.428
60783W        W29001  41.356   0.264  11.033
60784W        W29002  10.913  21.999   0.711
60785W        W29003  30.439  19.219  11.604
60786W        W29004  38.087  27.261   3.220
60787W        W29005  25.666  21.174   0.707
60788W        W29006  43.974   3.971   1.628
60789W        W29007  29.692  39.200  12.962
60790W        W29008  33.069  28.968   2.132
60791W        W29009  42.621   6.460  12.081
60792W        W29010  30.435  14.300  14.301
60793W        W29011   4.212  32.379   4.294
60794W        W29012   5.300  19.579  14.475
60795W        W29013  24.562  28.662   1.819
60796W        W29014  25.666  44.873  12.147
60797W        W29015  18.266  16.794   1.926
60798W        W29016  40.775  28.645  11.401
60799W        W29017  26.655  37.971  14.951
60800W        W29018  15.861  27.487   0.443
60801W        W29019   0.503  23.427  12.749
60802W        W29020  23.274  20.199   1.014
60803W        W29021  28.685  27.027   2.228
60804W        W29022  12.638   2.062   4.569
60805W        W29023  30.934  32.925   2.387
60806W        W29024  20.551  28.529   4.646
60807W        W29025  26.177  10.685   3.282
60808W        W29026  23.217  40.346   0.430
60809W        W29027   6.931  41.925   0.747
60810W        W29028  42.018  15.790   4.507
60811W        W29029  43.666   3.328  12.961
60812W        W29030  18.536  22.085  14.075
60813W        W29031  33.415  26.212  10.203
60814W        W29032  27.256  43.135   3.554
60815W        W29033  37.854  19.568   0.518
60816W        W29034  44.725  11.152   0.664
60817W        W29035  23.504  44.409   2.823
60818W        W29036  28.175  41.906  12.064
60819W        W29037  36.983  15.156   1.374
60820W        W29038  21.337  10.277  10.710
60821W        W29039   9.813  20.137   2.053
60822W        W29040  22.055  30.985   4.539
60823W        W29041   1.733   3.346   3.682
60824W        W29042  44.531   9.998  12.290
60825W        W29043  13.848  24.139  14.372
60826W        W29044  30.185  27.918  13.042
60827W        W29045  32.413  27.635  13.491
60828W        W29046   1.760  25.056  12.569
60829W        W29047  16.129  28.838  14.407
60830W        W29048   5.345  41.233   3.924
60831W        W29049  33.387  33.852  13.805
60832W        W29050   1.854   4.261  13.795
60833W        W29051  43.607  42.282  13.465
60834W        W29052  11.397  37.948   3.802
60835W        W29053  22.063  20.081   2.366
60836W        W29054  37.428  14.539   0.975
60837W        W29055  40.096  31.927  14.313
60838W        W29056   0.813  14.332   3.223
60839W        W29057  43.718   0.811   4.125
60840W        W29058   8.207   7.487  13.449
60841W        W29059   8.852   3.763   1.901
60842W        W29060  10.782  32.833  13.082
60843W        W29061  17.564  12.649   5.397
60844W        W29062  24.992  19.980   2.212
60845W        W29063   0.868  33.487  10.587
60846W        W29064   1.892  35.624   0.037
60847W        W29065  23.069  15.600  14.720
60848W        W29066  20.120  18.601  13.849
60849W        W29067   7.897  31.351   4.094
60850W        W29068  40.004  37.529  12.888
60851W        W29069   8.204   5.306  11.688
60852W        W29070  30.993  40.419  11.154
60853W        W29071   0.476  32.290   1.017
60854W        W29072  23.545  16.818   2.389
60855W        W29073  15.286  27.874   0.751
60856W        W29074  13.602   8.935   2.415
60857W        W29075  23.711  19.838  13.064
60858W        W29076   6.110  42.428   1.793
60859W        W29077  43.022  35.368  11.026
60860W        W29078  28.887  35.893  13.420
60861W        W29079   2.843  29.940   2.468
60862W        W29080   0.469  41.401   3.629
60863W        W29081   1.905  29.039  13.123
60864W        W29082   6.487  10.737   4.571
60865W        W29083   8.698  11.332  11.969
60866W        W29084  29.047  19.026   3.758
60867W        W29085  15.358   7.301  13.052
60868W        W29086  17.142  23.399   4.842
60869W        W29087  40.467   6.364  11.160
60870W        W29088   6.948   7.723   2.208
60871W        W29089   6.168  14.097  10.778
60872W        W29090  22.035  32.685  14.837
60873W        W29091  29.547  33.118   4.133
60874W        W29092  18.169  30.247  11.459
60875W        W29093  34.067  40.305   1.191
60876W        W29094  41.499  44.421   3.403
60877W        W29095  38.598  24.597  14.895
60878W        W29096  16.347  37.453   3.628
60879W        W29097   2.201  36.371  12.514
60880W        W29098   8.687  38.441  12.536
60881W        W29099   8.410  15.600  11.126
60882W        W29100  19.239   9.347  12.607
60883W        W29101  41.133  28.049   2.155
60884W        W29102  19.505  36.088  12.492
60885W        W29103  25.091  32.335  11.622
60886W        W29104   0.293  18.836   0.801
60887W        W29105   6.778  38.417  10.888
60888W        W29106  13.618  35.888   2.784
60889W        W29107  12.812  27.658  13.013
60890W        W29108  12.092  40.435  14.006
60891W        W29109  26.163  40.382  14.838
60892W        W29110  16.661  13.854   2.306
60893W        W29111  13.172  20.054   4.171
60894W        W29112  37.588  13.304   0.347
60895W        W29113   5.953   8.398   3.582
60896W        W29114  19.987  35.958  13.315
60897W        W29115  38.729  44.584  13.149
60898W        W29116   8.322  18.183   5.369
60899W        W29117  36.153   0.844  14.961
60900W        W29118  32.882   6.765  13.748
60901W        W29119  19.869  32.804  10.141
60902W        W29120  41.862  41.010   4.584
60903W        W29121  30.563  37.255  12.905
60904W        W29122  37.799  26.903   1.889
60905W        W29123  13.686   4.002  13.552
60906W        W29124  16.195  21.877  12.987
60907W        W29125  41.915  14.250   3.102
60908W        W29126  33.493   5.125   1.608
60909W        W29127  25.112   7.231  11.925
60910W        W29128   5.798   2.961  11.693
60911W        W29129  42.798  17.207   2.674
60912W        W29130  42.876  17.270  10.665
60913W        W29131  44.974  13.155   0.273
60914W        W29132  25.878  28.585  14.488
60915W        W29133  25.163  13.112   1.383
60916W        W29134  13.549  22.045   4.658
60917W        W29135  10.217   4.180  13.574
60918W        W29136  31.302  20.712   3.386
60919W        W29137   0.902  37.594  13.007
60920W        W29138   2.861  26.605  14.862
60921W        W29139   4.371  37.458   1.918
60922W        W29140  18.191   3.726   0.352
60923W        W29141  19.262  30.920  14.767
60924W        W29142   8.933  36.939   4.332
60925W        W29143  14.702   6.500  14.231
60926W        W29144   9.305  11.608  11.552
60927W        W29145   1.341  14.779  12.605
60928W        W29146  21.824  26.985  13.658
60929W        W29147  11.828   3.934  12.094
60930W        W29148  10.627  10.814  11.848
60931W        W29149  43.508   6.911   4.452
60932W        W29150   6.262  33.872  14.105
60933W        W29151  26.333  35.090   4.526
60934W        W29152  41.091  13.152   3.746
60935W        W29153   4.645  20.275  13.452
60936W        W29154   5.461  35.049   4.687
60937W        W29155  21.761  39.942   0.756
60938W        W29156  39.536  43.061  13.542
60939W        W29157   4.452   5.799   2.383
60940W        W29158  12.364   7.724   4.240
60941W        W29159  10.448  35.883  12.194
60942W        W29160  35.052  14.955   1.345
60943W        W29161  25.684  23.775   2.030
60944W        W29162  28.718   0.001   0.211
60945W        W29163  30.355  37.072   0.863
60946W        W29164  15.354  27.918  14.914
60947W        W29165  21.939  24.089   3.617
60948W        W29166   2.821   0.399   1.678
60949W        W29167  24.494  13.338   1.636
60950W        W29168  14.378  38.590   9.916
60951W        W29169  21.303  25.977  12.856
60952W        W29170  34.129  17.174  14.473
60953W        W29171  39.936  33.900  13.472
60954W        W29172  13.110  44.782   3.216
60955W        W29173  41.831  25.510   2.720
60956W        W29174  13.323  19.542   4.170
60957W        W29175  13.467   3.061  14.700
60958W        W29176   9.003   4.186  11.832
60959W        W29177  25.732  36.944  12.335
60960W        W29178  31.960   0.271  11.729
60961W        W29179  39.269  32.922   4.670
60962W        W29180  37.538  21.045   2.181
60963W        W29181  28.102  29.673  13.447
60964W        W29182   1.391  43.720  10.692
60965W        W29183  26.040  30.672  11.944
60966W        W29184  37.579  31.000   3.578
60967W        W29185   1.629  12.899  12.119
60968W        W29186  44.176  11.191   2.721
60969W        W29187  28.967  13.801  14.264
60970W        W29188   9.433  19.580  10.680
60971W        W29189  29.174  11.868   3.657
60972W        W29190  26.575  34.317  13.922
60973W        W29191  24.916  31.469  10.687
60974W        W29192  29.975  24.031   3.724
60975W        W29193  36.802  21.203  13.000
60976W        W29194  40.329  20.031  12.811
60977W        W29195  42.874  29.250   2.196
60978W        W29196   4.079  27.191   4.072
60979W        W29197  42.464  23.348  13.514
60980W        W29198  16.605  14.167  14.834
60981W        W29199  13.103  24.614   3.707
60982W        W29200  23.892  39.827  14.004
60983W        W29201   2.765   1.140   3.898
60984W        W29202  16.609  37.973   1.694
60985W        W29203  34.643  21.210   1.382
60986W        W29204  20.059   9.857   1.699
60987W        W29205  16.111  21.471   3.847
60988W        W29206  41.755  24.175  11.348
60989W        W29207   7.696  11.918  11.172
60990W        W29208  22.592  15.125  10.676
60991W        W29209   4.872  35.436  11.110
60992W        W29210  29.537  31.553  14.022
60993W        W29211  12.192  15.500   2.344
60994W        W29212  36.004  18.480  12.365
60995W        W29213  24.292  40.973   0.832
60996W        W29214   3.220   0.282  11.330
60997W        W29215   2.986   4.819   3.748
60998W        W29216  17.400  21.026  12.279
60999W        W29217  19.629   2.976  13.582
61000W        W29218  42.983   1.993   1.916
61001W        W29219  14.857  34.904   2.733
61002W        W29220   7.706  23.936  13.908
61003W        W29221  25.868  11.717   4.863
61004W        W29222  37.110   2.662  11.118
61005W        W29223  30.872  15.397  13.436
61006W        W29224  20.897   3.705  10.988
61007W        W29225  18.233  37.687   3.207
61008W        W29226  35.653  25.675  14.584
61009W        W29227  44.751   4.572  12.954
61010W        W29228  41.016   8.446  10.784
61011W        W29229  30.102   9.114   2.904
61012W        W29230  29.462  26.043  12.920
61013W        W29231   4.108  40.394   3.349
61014W        W29232  20.085   4.106  14.354
61015W        W29233   9.737  35.854   2.623
61016W        W29234  33.625  14.901  12.890
61017W        W29235  30.642  25.605   0.773
61018W        W29236  12.907  14.907  12.466
61019W        W29237  38.618  40.906   1.734
61020W        W29238  23.273  24.723  13.283
61021W        W29239  17.562  12.738   4.341
61022W        W29240  29.337   8.164  13.323
61023W        W29241  20.845  36.532   1.478
61024W        W29242  25.238  40.085   3.208
61025W        W29243  20.132   5.536  13.222
61026W        W29244  30.087   2.351   1.765
61027W        W29245  30.305  40.580   1.279
61028W        W29246   6.762  41.923   2.243
61029W        W29247  25.537  24.831   3.647
61030W        W29248  15.277  10.277   3.688
61031W        W29249  39.523   4.919  14.940
61032W        W29250  19.164  26.439  12.980
61033W        W29251  27.597   1.232  13.933
61034W        W29252  41.432  17.746  12.162
61035W        W29253  19.304  15.877   4.384
61036W        W29254  32.505   9.297   4.382
61037W        W29255  15.149   7.844   2.133
61038W        W29256  34.827  20.688  11.534
61039W        W29257  10.156  23.150  11.913
61040W        W29258  12.290  42.805   1.475
61041W        W29259  32.565   2.762   4.942
61042W        W29260  17.099  22.382  10.711
61043W        W29261  24.244  15.594   3.632
61044W        W29262  20.684  26.996  12.072
61045W        W29263  18.804  31.727   0.738
61046W        W29264   2.892  19.523   2.160
61047W        W29265  34.622  25.629  14.561
61048W        W29266  42.303  22.328   1.828
61049W        W29267   0.509   9.477   2.679
61050W        W29268   5.825  10.891   0.371
61051W        W29269  41.876  15.464  11.614
61052W        W29270  34.661  15.270   3.886
61053W        W29271  44.979  14.192  13.080
61054W        W29272   2.936  17.085  14.364
61055W        W29273   9.158  30.189   4.037
61056W        W29274  10.314  20.052   3.187
61057W        W29275  24.452  16.430  14.561
61058W        W29276  22.646  16.777   2.088
61059W        W29277  24.896  19.651  14.000
61060W        W29278   0.732  28.095   0.949
61061W        W29279   7.346  40.598   3.057
61062W        W29280  35.348  40.935   3.156
61063W        W29281   8.033   7.815  11.536
61064W        W29282  38.056  14.229   4.173
61065W        W29283  27.078  16.730   4.496
61066W        W29284   8.181  17.675   0.345
61067W        W29285  19.981  17.964  11.606
61068W        W29286  14.889  24.521  10.619
61069W        W29287  20.419   0.762  13.458
61070W        W29288  42.830  12.848   4.393
61071W        W29289  27.708  35.025   4.111
61072W        W29290   4.578   6.023   0.837
61073W        W29291  10.896  27.912  12.937
61074W        W29292   1.707  27.678   2.015
61075W        W29293   8.868  16.714  11.526
61076W        W29294  23.998  40.902   3.155
61077W        W29295  35.062  29.521   2.168
61078W        W29296   0.989  22.137  14.387
61079W        W29297  16.655  29.452   0.454
61080W        W29298  34.339  32.598   0.374
61081W        W29299  36.813  37.898  12.983
61082W        W29300   5.816   5.918   4.598
61083W        W29301  29.395  28.566   4.890
61084W        W29302  32.867  38.014  10.363
61085W        W29303  23.744  22.772  10.276
61086W        W29304  13.730  20.508  14.333
61087W        W29305  17.500  20.083   3.657
61088W        W29306  15.108  13.559   4.517
61089W        W29307   6.881  16.980   2.336
61090W        W29308   2.367  41.331  14.964
61091W        W29309  24.272  17.314  14.086
61092W        W29310  18.338   4.764   2.900
61093W        W29311  43.975   3.783   3.076
61094W        W29312   8.385  19.134  13.956
61095W        W29313   3.965  31.609  12.997
61096W        W29314   9.738  17.759   3.255
61097W        W29315   6.905  16.122  14.802
61098W        W29316   1.508  44.003  14.378
61099W        W29317  26.180  29.116   1.451
61100W        W29318  26.046   0.945  14.310
61101W        W29319  26.054  41.748  10.546
61102W        W29320  10.674  22.217  11.223
61103W        W29321  13.799  10.368  11.988
61104W        W29322  38.871  33.076   1.901
61105W        W29323   1.781  42.052  14.788
61106W        W29324  19.998  16.409   3.685
61107W        W29325  38.989  24.994  11.196
61108W        W29326  39.000  12.506   1.407
61109W        W29327  38.151  41.515  14.914
61110W        W29328   0.740  43.022  10.762
61111W        W29329  24.905  26.199  13.155
61112W        W29330  14.754  40.972  13.560
61113W        W29331  31.461  13.853  14.323
61114W        W29332   5.781   3.786  14.583
61115W        W29333  32.486  16.255  13.464
61116W        W29334  36.614  41.437  11.102
61117W        W29335  11.348   1.092   3.890
61118W        W29336  13.055  43.455   3.672
61119W        W29337  19.444  18.030  11.709
61120W        W29338  17.137  29.983  14.747
61121W        W29339  26.602  37.888   2.206
61122W        W29340  35.391  34.478   1.682
61123W        W29341  44.892  38.423   1.660
61124W        W29342  30.774  43.595  12.989
61125W        W29343   2.813   7.329  14.532
61126W        W29344  20.445  31.410  14.760
61127W        W29345  37.507  40.706  13.599
61128W        W29346   0.681  31.949   2.416
61129W        W29347  10.820  18.614   1.400
61130W        W29348  39.668  31.593   0.739
61131W        W29349  38.003   1.817   3.822
61132W        W29350  29.428  27.146  11.921
61133W        W29351   0.394  21.977   1.356
61134W        W29352  26.111   1.948   0.967
61135W        W29353   0.283  36.156  13.419
61136W        W29354  43.882  12.013   2.178
61137W        W29355  38.009   3.793   2.236
61138W        W29356  29.635  32.641   1.835
61139W        W29357  42.474   9.851  14.992
61140W        W29358  38.095  43.041   3.905
61141W        W29359   8.150  19.628   3.592
61142W        W29360  24.088  40.304  13.002
61143W        W29361   0.156  42.715  11.533
61144W        W29362  39.577  40.493  14.463
61145W        W29363  42.445  19.362   1.467
61146W        W29364  28.657   9.359   1.141
61147W        W29365   8.760   4.096  10.657
61148W        W29366  22.483   4.340   2.606
61149W        W29367  20.614  25.614   1.180
61150W        W29368  36.748  31.630  13.877
61151W        W29369   7.214  30.439  13.347
61152W        W29370  33.993  40.866  13.579
61153W        W29371  23.645  18.762   4.899
61154W        W29372   4.049  38.712   0.292
61155W        W29373  21.523  31.235  10.803
61156W        W29374  26.778  40.847  13.472
61157W        W29375  24.367  26.710   0.056
61158W        W29376  31.315  13.901  10.330
61159W        W29377  20.666   3.944  14.094
61160W        W29378   3.835  38.342  14.824
61161W        W29379  39.708   6.874   1.980
61162W        W29380  38.426   4.416   3.728
61163W        W29381  12.445  25.044   2.445
61164W        W29382  13.004  25.587   2.507
61165W        W29383   2.287  43.884  10.703
61166W        W29384  15.758   9.658  14.251
61167W        W29385   4.974   3.277   0.243
61168W        W29386  20.389  25.694   4.746
61169W        W29387  12.611  15.373   2.035
61170W        W29388  19.249  37.390   0.513
61171W        W29389  15.209  43.728   2.785
61172W        W29390  12.165  38.739   0.180
61173W        W29391  40.714  32.969   2.731
61174W        W29392   0.132  20.106   3.742
61175W        W29393   1.657  11.657   3.743
61176W        W29394  35.140  26.610  11.170
61177W        W29395   3.966  15.976   4.744
61178W        W29396  12.656  29.966   3.886
61179W        W29397  38.458  22.123   3.491
61180W        W29398  20.702  27.653   0.403
61181W        W29399  21.640  27.578  12.959
61182W        W29400  26.328   9.783   3.732
61183W        W29401  16.957  40.679  11.371
61184W        W29402   7.236  13.952   3.196
61185W        W29403  28.207  12.339  13.547
61186W        W29404  26.464  43.363   3.274
61187W        W29405  26.801   0.263   0.252
61188W        W29406   5.349  17.752  11.361
61189W        W29407  39.138  41.844  12.021
61190W        W29408  38.927  38.843  13.537
61191W        W29409  23.741   1.531  14.848
61192W        W29410  28.550   5.990  13.524
61193W        W29411  16.208   0.785   0.343
61194W        W29412  10.329  42.312   3.836
61195W        W29413  21.240  23.710  10.487
61196W        W29414   0.715  23.240  11.981
61197W        W29415   1.375  25.007  13.932
61198W        W29416  14.191  44.441   1.582
61199W        W29417  17.681  15.698  11.538
61200W        W29418  21.036  37.271   0.688
61201W        W29419  32.164   5.925  11.784
61202W        W29420   1.962   5.938  12.452
61203W        W29421  15.295   8.338  12.229
61204W        W29422  13.917  44.265  12.968
61205W        W29423  44.791  33.189  11.008
61206W        W29424  21.134  35.889  12.500
61207W        W29425  14.579  42.920  12.412
61208W        W29426   2.684  29.407  13.934
61209W        W29427  11.920  41.040  12.058
61210W        W29428  23.657  23.824   1.152
61211W        W29429  12.294  28.986   4.389
61212W        W29430  34.388  38.747   1.422
61213W        W29431  23.109  28.885  14.361
61214W        W29432   2.927   0.021  10.604
61215W        W29433  38.926  29.911   3.927
61216W        W29434  24.626  17.758   4.680
61217W        W29435  17.366  25.910   3.751
61218W        W29436   1.863  32.889  14.570
61219W        W29437  33.006  23.932   3.420
61220W        W29438  33.903  19.094  13.061
61221W        W29439  10.212  30.125   2.136
61222W        W29440  12.961  33.023   1.230
61223W        W29441  39.795  25.786  13.536
61224W        W29442  43.871  29.986   4.047
61225W        W29443  20.655  40.839   0.195
61226W        W29444  38.966  41.840   5.051
61227W        W29445  11.037   3.041  13.994
61228W        W29446  32.892  27.975   2.875
61229W        W29447   1.727  28.800  14.043
61230W        W29448  12.679  15.718  11.400
61231W        W29449  12.973  21.215  12.697
61232W        W29450  43.398  30.161   0.704
61233W        W29451  26.426   2.000   3.651
61234W        W29452  33.340  32.937   2.894
61235W        W29453  34.316  44.476  11.263
61236W        W29454   4.867  20.346   3.589
61237W        W29455  42.960  18.106   0.888
61238W        W29456   2.911  10.889  11.061
61239W        W29457  21.551  37.005   2.653
61240W        W29458  42.870  27.218  11.502
61241W        W29459  31.582  20.462   0.426
61242W        W29460  11.562  34.904  13.943
61243W        W29461  34.647  32.346  10.719
61244W        W29462   5.581  33.923   3.335
61245W        W29463  12.801  33.862   3.272
61246W        W29464   2.931  34.973   4.601
61247W        W29465   8.862  33.098  10.421
61248W        W29466  16.282  34.130  11.965
61249W        W29467  16.668  32.204   1.393
61250W        W29468   6.907  17.476  13.593
61251W        W29469  40.424  41.925   1.870
61252W        W29470  13.196   2.485  12.969
61253W        W29471  12.625   1.783   2.057
61254W        W29472  24.346  34.382  11.025
61255W        W29473  35.120  43.448  12.152
61256W        W29474  10.941   7.601  13.979
61257W        W29475  24.228  38.501   3.222
61258W        W29476   9.736  33.032  14.918
61259W        W29477  43.266  13.813   2.238
61260W        W29478  34.358  31.016  12.953
61261W        W29479  42.874   2.697  14.975
61262W        W29480  25.036  31.061   4.036
61263W        W29481  11.890  36.941   3.333
61264W        W29482  14.500   6.230   2.210
61265W        W29483  24.686   8.560  11.231
61266W        W29484  38.012   9.939   4.568
61267W        W29485   8.955  10.245   1.751
61268W        W29486  32.398  35.853  12.626
61269W        W29487  21.427  23.447  14.580
61270W        W29488  28.728   3.797   1.929
61271W        W29489  15.202   3.155  13.463
61272W        W29490   5.582   8.843  12.100
61273W        W29491  29.505   7.653   4.647
61274W        W29492  19.556  17.616   1.344
61275W        W29493  37.806  13.878   2.876
61276W        W29494   3.932  16.539  14.002
61277W        W29495   0.959   3.037  13.707
61278W        W29496  21.661   8.413  12.571
61279W        W29497  35.308  21.749  14.830
61280W        W29498  24.526  27.612  10.681
61281W        W29499  25.565  10.685  12.185
61282W        W29500  26.168   0.954   3.876
61283W        W29501  19.526   6.128  12.485
61284W        W29502  35.901  10.856   2.339
61285W        W29503  36.080  33.948  10.656
61286W        W29504  19.847  43.416  13.208
61287W        W29505  18.759  31.196   0.691
61288W        W29506  12.881  12.149  13.332
61289W        W29507  23.650  40.027  10.385
61290W        W29508  43.341  43.594  11.553
61291W        W29509   3.969  39.510  13.659
61292W        W29510   4.873  26.608  13.433
61293W        W29511   4.256   5.752   3.866
61294W        W29512  14.137   7.885   1.164
61295W        W29513   9.713  42.482   3.339
61296W        W29514  41.848  41.188   5.061
61297W        W29515  25.736  35.401   0.392
61298W        W29516   8.380  10.181   0.233
61299W        W29517   0.336  36.628   3.694
61300W        W29518  37.379  33.013  12.181
61301W        W29519  11.261  31.988  10.239
61302W        W29520  16.212  22.382  13.061
61303W        W29521  29.621  33.409   3.689
61304W        W29522   8.074  13.202   0.988
61305W        W29523  24.879  37.453  11.296
61306W        W29524  28.999  25.481   1.921
61307W        W29525   0.836   5.768   1.222
61308W        W29526   0.033  22.636  14.688
61309W        W29527  15.730  12.363   4.872
61310W        W29528  15.555  28.177  14.514
61311W        W29529  31.874  15.687  11.107
61312W        W29530  24.543  26.692  11.338
61313W        W29531  31.928   6.997   1.182
61314W        W29532  15.580  33.202   0.676
61315W        W29533  19.481  38.908   3.133
61316W        W29534  36.238   2.291  10.663
61317W        W29535  28.897  44.331   0.797
61318W        W29536  14.712  33.977   4.224
61319W        W29537  28.063  25.053   0.614
61320W        W29538  35.757   0.616   4.092
61321W        W29539  14.513  11.417   0.973
61322W        W29540  19.128  10.709  14.393
61323W        W29541  43.270   1.237  12.365
61324W        W29542   7.859   0.174  14.481
61325W        W29543  14.636   1.310   4.121
61326W        W29544   5.242  37.632   3.738
61327W        W29545  26.655  19.145  10.983
61328W        W29546   4.952   8.819  10.142
61329W        W29547  14.010  41.047  11.573
61330W        W29548  22.035  27.232   2.822
61331W        W29549   0.957  28.201  11.145
61332W        W29550   5.585   1.251  14.305
61333W        W29551  36.227  39.911  11.736
61334W        W29552   0.393  37.451  13.026
61335W        W29553   8.735  42.044  13.031
61336W        W29554  40.241   8.356   3.661
61337W        W29555   8.315  31.718  11.976
61338W        W29556   5.946  37.855  14.946
61339W        W29557  15.803  26.160  13.757
61340W        W29558  39.168  39.790  14.355
61341W        W29559  40.438  35.584  14.803
61342W        W29560   7.475   1.058  13.057
61343W        W29561  27.728  21.145  14.743
61344W        W29562  25.660   0.771  13.396
61345W        W29563  13.495   5.159  11.122
61346W        W29564   6.235  14.042  12.937
61347W        W29565  39.976  14.546  12.119
61348W        W29566  36.505   5.718  14.847
61349W        W29567  43.969   6.955   0.414
61350W        W29568  24.071  13.347  12.358
61351W        W29569  22.104   4.990  12.498
61352W        W29570  17.313  19.955  11.149
61353W        W29571  29.389  36.800  10.718
61354W        W29572   7.640  40.287   2.247
61355W        W29573  25.181   9.100  13.939
61356W        W29574  18.670  34.307  12.995
61357W        W29575  12.861   7.510   2.461
61358W        W29576  14.140  12.077  12.878
61359W        W29577  39.725   0.290   4.530
61360W        W29578  10.855   1.789   4.027
61361W        W29579   6.200   8.389   2.172
61362W        W29580   9.699  33.120  10.939
61363W        W29581  22.701  27.289   4.603
61364W        W29582  14.948  31.233  12.438
61365W        W29583  37.247  33.449   0.792
61366W        W29584   1.693   1.482   2.200
61367W        W29585  37.472  18.226   4.520
61368W        W29586   2.795  24.640   1.403
61369W        W29587  18.817   5.474  12.439
61370W        W29588   2.466   6.175   1.301
61371W        W29589  10.070  12.682   0.256
61372W        W29590  41.404   9.128  14.373
61373W        W29591  17.541   9.159  10.588
61374W        W29592  23.657  22.262   0.061
61375W        W29593  41.931   3.863  13.465
61376W        W29594  22.123  42.963  14.436
61377W        W29595  17.130  20.741  14.300
61378W        W29596  33.974  42.811  11.434
61379W        W29597   2.845  44.760  12.024
61380W        W29598  29.910  25.483  11.255
61381W        W29599  38.806  10.151  10.828
61382W        W29600  17.226  11.733   2.779
61383W        W29601  43.019  41.949  11.935
61384W        W29602  25.126   6.996   1.195
61385W        W29603  43.447   7.295   0.254
61386W        W29604  34.059  29.709  14.322
61387W        W29605  30.654  31.508   0.707
61388W        W29606   7.477  37.483   4.681
61389W        W29607  19.151   9.043   1.306
61390W        W29608  35.524  31.503  10.733
61391W        W29609  39.649  33.956  12.587
61392W        W29610  39.484   6.500   1.668
61393W        W29611  11.335  31.334  13.927
61394W        W29612  10.144  43.980   5.121
61395W        W29613  40.790  28.422  12.888
61396W        W29614  14.071  19.703  12.448
61397W        W29615  35.110  42.772   0.794
61398W        W29616   8.273  44.929  14.329
61399W        W29617  16.585   2.725  11.535
61400W        W29618  16.227  35.296  12.529
61401W        W29619  42.529   1.784  13.305
61402W        W29620  21.030  42.264  12.541
61403W        W29621  43.374  33.768  10.609
61404W        W29622  21.321  14.550   2.318
61405W        W29623  44.421  13.331   2.474
61406W        W29624  21.237   9.201  13.391
61407W        W29625  24.032  35.476  11.782
61408W        W29626  43.268  21.616   3.278
61409W        W29627  42.855  27.131  14.748
61410W        W29628  41.826  22.688  14.086
61411W        W29629  17.640  10.061   0.214
61412W        W29630  36.767   6.817  13.376
61413W        W29631  15.074  28.960  14.786
61414W        W29632  20.711  10.745  11.825
61415W        W29633  20.742  29.022  13.900
61416W        W29634  35.977  33.462  11.995
61417W        W29635  29.408  27.460  11.473
61418W        W29636  43.467   2.977   1.253
61419W        W29637  31.375  18.019   2.254
61420W        W29638  32.655  16.709  14.992
61421W        W29639  22.493  17.727   1.016
61422W        W29640  37.103  11.880  11.571
61423W        W29641   9.362  21.828  11.092
61424W        W29642  32.365   5.238  13.939
61425W        W29643  28.805  28.015   4.373
61426W        W29644  22.191  28.719  13.453
61427W        W29645   6.099   8.290  12.947
61428W        W29646  28.523  43.012  11.141
61429W        W29647  34.203  44.034  13.858
61430W        W29648   1.050  29.317  14.517
61431W        W29649  43.384   6.465   4.667
61432W        W29650  25.091  37.498  10.813
61433W        W29651  11.885   5.110  14.133
61434W        W29652   3.108   7.135   2.223
61435W        W29653  38.258  20.293  13.459
61436W        W29654  17.641  34.214   2.581
61437W        W29655  16.778  31.544   3.667
61438W        W29656   3.963  38.326  13.822
61439W        W29657  22.473  31.644  10.637
61440W        W29658  17.841  10.777  14.984
61441W        W29659  32.048  24.875  13.495
61442W        W29660   1.488  37.894  11.721
61443W        W29661  27.410  17.978   5.110
61444W        W29662  17.675  12.205  11.688
61445W        W29663  34.175  41.853   1.925
61446W        W29664  38.871  44.358   1.293
61447W        W29665   0.842  44.590   2.558
61448W        W29666  35.096  18.468   4.140
61449W        W29667  39.009  19.194  10.427
61450W        W29668  34.393  15.699   0.378
61451W        W29669  42.370  42.346  14.973
61452W        W29670  13.416  18.533  13.102
61453W        W29671   1.415  32.391   0.266
61454W        W29672  32.576  17.799   0.287
61455W        W29673  19.809  28.302   0.599
61456W        W29674  29.668  21.083   4.152
61457W        W29675  43.775  26.891  12.545
61458W        W29676   5.130  32.830  14.060
61459W        W29677  38.881   5.512   3.208
61460W        W29678  32.500  38.416  14.448
61461W        W29679  42.296   5.716  12.043
61462W        W29680   1.340   2.703   1.900
61463W        W29681  40.965  38.857   2.333
61464W        W29682  12.095  24.520   3.723
61465W        W29683  14.745  39.999   4.045
61466W        W29684  25.028  31.711   1.220
61467W        W29685  32.877  42.936  13.370
61468W        W29686  28.888  37.874   4.631
61469W        W29687  25.477  40.505  13.673
61470W        W29688  16.093  19.010   2.121
61471W        W29689  38.227   6.129   3.300
61472W        W29690  18.775  12.932  12.787
61473W        W29691  15.517   1.862  12.157
61474W        W29692  17.473  34.810  10.711
61475W        W29693  31.406  38.878  11.986
61476W        W29694  19.720  16.129   2.376
61477W        W29695  34.958  21.739  11.984
61478W        W29696  12.787  30.655   4.287
61479W        W29697  27.006  31.328   2.964
61480W        W29698  31.475  43.037   1.698
61481W        W29699  44.311  10.286   2.598
61482W        W29700  22.700  19.719   4.070
61483W        W29701  37.010  13.226  11.543
61484W        W29702  42.994  11.187  12.127
61485W        W29703   9.127  39.412   2.243
61486W        W29704  40.396  11.238   0.275
61487W        W29705  43.278   9.293   0.960
61488W        W29706  17.486   2.227   3.232
61489W        W29707  27.702   1.435   4.903
61490W        W29708   1.420  10.142  14.814
61491W        W29709  43.236  33.551  12.386
61492W        W29710  13.830  43.415   4.237
61493W        W29711  44.900  29.126   2.225
61494W        W29712  36.265   2.817  14.838
61495W        W29713  15.600  21.931  12.525
61496W        W29714  33.748  18.135  13.088
61497W        W29715  28.410  24.940   2.892
61498W        W29716   2.202  18.041  13.591
61499W        W29717  40.426  33.885  14.800
61500W        W29718  37.456  38.379   0.060
61501W        W29719  20.324  13.841  10.243
61502W        W29720  40.389  15.582  10.526
61503W        W29721   4.951  12.376  14.058
61504W        W29722  18.819  30.908  12.515
61505W        W29723  40.153   8.713  12.783
61506W        W29724  21.575  37.864   4.501
61507W        W29725  30.226  26.579  10.911
61508W        W29726   9.234  38.773  14.848
61509W        W29727   8.070  22.155  11.276
61510W        W29728  28.015  28.031   0.039
61511W        W29729  18.070  20.047  13.501
61512W        W29730  20.505  32.660  10.674
61513W        W29731  39.403  22.639   3.723
61514W        W29732  41.846  29.906  12.248
61515W        W29733  27.058  32.929   4.578
61516W        W29734  38.977  43.832   0.354
61517W        W29735   3.382  32.029  10.646
61518W        W29736   0.943  22.282   0.652
61519W        W29737  30.076  24.129   1.931
61520W        W29738   7.183   7.843  11.046
61521W        W29739   4.884  18.396   3.952
61522W        W29740   8.244  30.403   4.618
61523W        W29741  29.847  26.677   1.092
61524W        W29742  22.207   1.760   2.762
61525W        W29743  24.856  31.483   4.630
61526W        W29744  21.177  40.416  13.971
61527W        W29745  22.561  31.529   1.423
61528W        W29746  35.516   5.291   3.726
61529W        W29747   2.900   2.722  13.777
61530W        W29748   3.582  10.799   1.222
61531W        W29749   0.747  17.489  10.763
61532W        W29750  40.714  11.547   1.193
61533W        W29751  13.315  29.586   0.282
61534W        W29752  42.836  22.012   0.361
61535W        W29753  42.277  14.917   3.668
61536W        W29754  30.076   0.091   0.493
61537W        W29755  23.884  30.083   1.926
61538W        W29756  30.436  29.238  12.990
61539W        W29757  27.980  32.597   3.887
61540W        W29758  13.596  10.120  11.082
61541W        W29759  37.539  31.242  12.903
61542W        W29760  44.884   0.342   2.276
61543W        W29761  31.538  27.166  14.551
61544W        W29762   2.658   1.684   1.756
61545W        W29763  14.900  36.352  13.429
61546W        W29764  37.140  28.652   2.963
61547W        W29765  18.394  30.190  13.404
61548W        W29766  13.756  33.733   1.202
61549W        W29767  19.732  26.090   0.260
61550W        W29768   4.898  23.018   3.296
61551W        W29769  40.503  24.200   3.454
61552W        W29770  19.845  25.610  12.909
61553W        W29771  32.583  19.050  13.987
61554W        W29772  15.036  18.104   3.672
61555W        W29773  19.559  38.446  11.178
61556W        W29774  17.169  37.546   9.979
61557W        W29775  18.065  34.701  11.618
61558W        W29776   7.379  34.613  11.698
61559W        W29777  18.291  19.577  13.207
61560W        W29778  27.451   6.603   1.485
61561W        W29779  10.284  44.196  12.419
61562W        W29780   1.308  30.544  11.065
61563W        W29781  31.138  28.008   4.649
61564W        W29782  17.121   2.067  14.954
61565W        W29783  24.925   8.651  14.003
61566W        W29784  22.944  32.086  13.893
61567W        W29785  33.717   3.196  12.374
61568W        W29786  32.985  26.504  10.275
61569W        W29787   4.783  13.184   0.471
61570W        W29788   8.306  25.710   3.841
61571W        W29789  39.477  26.584  12.565
61572W        W29790   3.014  43.827   0.405
61573W        W29791  41.860  39.807  14.024
61574W        W29792   2.094   1.859  12.989
61575W        W29793  14.034  36.904  14.382
61576W        W29794  32.116   9.848  10.491
61577W        W29795   2.800  38.421  13.501
61578W        W29796  28.488  10.755   2.702
61579W        W29797  41.418  22.713   3.519
61580W        W29798  34.117  30.516   3.203
61581W        W29799  35.845  44.993  12.573
61582W        W29800  39.965   1.271   5.205
61583W        W29801  42.149  41.467  10.204
61584W        W29802  28.020  31.004   1.987
61585W        W29803  20.669   9.089  12.832
61586W        W29804  37.550  30.193   1.421
61587W        W29805  29.191  23.432   2.675
61588W        W29806  36.431  26.661   3.516
61589W        W29807   0.951  15.315  13.531
61590W        W29808  24.227  38.552  10.705
61591W        W29809  44.395   2.673  14.046
61592W        W29810   3.575  34.632  13.057
61593W        W29811  18.504  19.167  13.565
61594W        W29812  15.603  27.725   3.710
61595W        W29813  36.408  11.249   5.045
61596W        W29814  25.149  12.224  10.627
61597W        W29815   5.687  15.242  13.969
61598W        W29816  34.942  31.717  14.480
61599W        W29817   4.719   6.035   2.010
61600W        W29818  32.105  10.496   4.851
61601W        W29819  34.647   2.859   4.099
61602W        W29820  35.412  31.035   2.191
61603W        W29821  25.787  13.303   0.427
61604W        W29822   6.686  39.088  13.985
61605W        W29823  30.037  13.664   2.925
61606W        W29824  17.086  33.536  11.085
61607W        W29825  26.943  35.888  11.188
61608W        W29826  33.096  38.532   1.705
61609W        W29827  18.063   1.792  11.018
61610W        W29828  41.300  31.645   2.777
61611W        W29829  14.731  42.864  13.016
61612W        W29830  34.594  17.220   0.390
61613W        W29831   6.698  23.789  11.211
61614W        W29832   7.921  17.292   3.145
61615W        W29833  23.497  18.750  13.822
61616W        W29834  36.843  23.539   1.889
61617W        W29835  18.852  28.647  14.832
61618W        W29836  14.535   6.592   1.833
61619W        W29837  16.086  12.648   2.729
61620W        W29838   7.696  31.863   0.854
61621W        W29839  31.145  40.321   2.240
61622W        W29840   7.985  44.413  13.979
61623W        W29841   6.749   2.333   1.418
61624W        W29842   2.314  31.633  14.433
61625W        W29843  26.665  37.842  10.673
61626W        W29844  29.422  43.821   2.912
61627W        W29845  34.545   2.912   2.598
61628W        W29846   0.789  24.059  10.717
61629W        W29847   4.689  30.044  10.727
61630W        W29848   4.661  11.192  10.620
61631W        W29849   8.260   2.371   2.245
61632W        W29850   7.275  34.745  14.800
61633W        W29851  22.092  19.052   1.435
61634W        W29852  42.899   6.374   3.619
61635W        W29853   0.788  24.114  11.671
61636W        W29854  29.784  39.141  10.947
61637W        W29855  29.630   5.725   3.552
61638W        W29856  25.459  41.509  12.423
61639W        W29857   1.771  10.822  12.929
61640W        W29858  24.177  26.047   4.631
61641W        W29859  36.689   9.482  12.454
61642W        W29860   1.358  44.309  13.100
61643W        W29861  33.902   0.409   2.376
61644W        W29862   3.973  21.454   1.141
61645W        W29863  28.967  13.364  12.517
61646W        W29864  29.215  31.592  14.683
61647W        W29865  38.260  32.005   2.778
61648W        W29866  40.589  44.819  14.473
61649W        W29867  28.788  31.981   2.335
61650W        W29868  40.374  23.265  10.698
61651W        W29869  18.837  29.603   3.865
61652W        W29870   4.166   5.864   4.362
61653W        W29871   3.452  18.233   0.264
61654W        W29872  41.427  38.874   4.053
61655W        W29873  43.013  38.952  12.873
61656W        W29874   8.753  37.922  11.148
61657W        W29875  39.158   0.948  13.144
61658W        W29876  29.223   7.954   0.812
61659W        W29877  32.674   0.984   5.010
61660W        W29878  17.286  18.534   2.614
61661W        W29879  11.726  26.599   0.878
61662W        W29880   5.827  41.562   1.864
61663W        W29881  24.565  37.266   0.662
61664W        W29882  30.176  30.646   4.719
61665W        W29883   3.281  22.312   4.230
61666W        W29884  35.185  24.054  12.142
61667W        W29885  42.913  26.676   3.631
61668W        W29886  29.277  26.515  10.630
61669W        W29887  11.991  22.168   3.669
61670W        W29888  29.573  42.909  10.390
61671W        W29889  11.915  16.771  10.936
61672W        W29890  19.517   0.400   3.613
61673W        W29891  36.385  43.989  13.328
61674W        W29892  16.589  17.252   0.601
61675W        W29893   9.747  14.750  10.563
61676W        W29894  32.095   8.754  12.474
61677W        W29895  25.870   7.386  14.043
61678W        W29896  30.583  17.752   0.758
61679W        W29897   6.851  11.740  14.476
61680W        W29898  16.695  20.097   4.405
61681W        W29899  10.877   1.321   0.501
61682W        W29900  24.010  26.099   0.243
61683W        W29901  33.860   7.431  12.520
61684W        W29902  13.208  28.250   4.193
61685W        W29903   0.300  25.772   0.924
61686W        W29904  16.367   6.318  10.647
61687W        W29905  13.764  33.249  14.401
61688W        W29906  36.452  41.231   1.929
61689W        W29907  38.020  16.245   1.206
61690W        W29908  14.328   3.360   1.776
61691W        W29909  37.660  40.310   1.593
61692W        W29910  20.778   8.787  12.431
61693W        W29911  17.868   1.197   4.570
61694W        W29912  19.340  10.615   1.765
61695W        W29913  32.101  16.580   3.727
61696W        W29914   8.807  38.415   1.760
61697W        W29915  27.900  40.495   0.563
61698W        W29916   0.757  38.887  13.262
61699W        W29917  26.555  12.078  12.096
61700W        W29918   7.277  33.693  14.890
61701W        W29919  14.145  22.708  14.981
61702W        W29920  16.297  33.873   0.740
61703W        W29921  35.124  28.034   4.107
61704W        W29922   7.766   8.592  13.661
61705W        W29923  10.932  36.837   4.230
61706W        W29924  22.494   3.759  12.543
61707W        W29925  37.165  22.722  14.469
61708W        W29926   2.899  40.825   4.265
61709W        W29927   2.714  28.625  14.483
61710W        W29928  12.792  27.685   0.714
61711W        W29929  41.092  17.875   2.319
61712W        W29930  38.388  41.134  10.977
61713W        W29931  17.005  24.191  11.110
61714W        W29932  18.399  19.590  14.920
61715W        W29933  11.629  23.574   2.116
61716W        W29934  17.204  40.054  11.924
61717W        W29935  38.606   4.435  12.559
61718W        W29936   4.682  14.624   0.032
61719W        W29937   8.899  35.111  12.829
61720W        W29938  28.477  28.597  14.007
61721W        W29939   6.359  44.743   3.213
61722W        W29940  16.600  30.559   4.367
61723W        W29941  18.672  10.239   2.290
61724W        W29942  17.690  14.887   3.166
61725W        W29943  10.179  24.032  14.537
61726W        W29944   9.287   3.905  12.560
61727W        W29945  25.959  15.545  11.120
61728W        W29946  28.764  18.366  11.879
61729W        W29947  31.562  19.637   0.729
61730W        W29948  21.736  12.667   3.994
61731W        W29949  44.533  32.180  14.046
61732W        W29950  36.023  11.369  10.619
61733W        W29951  38.213  28.132   3.252
61734W        W29952   8.099  18.695  13.791
61735W        W29953  10.344  15.185   3.860
61736W        W29954  39.322   2.242  12.384
61737W        W29955   4.397  38.448  10.699
61738W        W29956   1.996   5.935   0.331
61739W        W29957  33.046  14.600  13.397
61740W        W29958  15.496  24.758   0.695
61741W        W29959  31.078   5.455  10.822
61742W        W29960  36.518  23.972   4.747
61743W        W29961  39.494  36.384  14.999
61744W        W29962  22.637  11.160   1.491
61745W        W29963  15.054   6.433  11.800
61746W        W29964   9.945  37.919   4.981
61747W        W29965  18.024  35.649   3.154
61748W        W29966  30.617  18.321   0.671
61749W        W29967  34.399  19.317   3.653
61750W        W29968  28.052  35.434   1.781
61751W        W29969   7.186   5.717  10.710
61752W        W29970   0.114  13.035  10.789
61753W        W29971  37.485  44.695   4.233
61754W        W29972  33.723  20.488  13.005
61755W        W29973  24.635  41.869  11.060
61756W        W29974   5.833  36.850  12.951
61757W        W29975  41.539  14.606  11.737
61758W        W29976  41.604   8.036  12.055
61759W        W29977  16.126  29.745  13.399
61760W        W29978  43.054  35.850   1.874
61761W        W29979  33.776  44.183   4.040
61762W        W29980  13.657  42.038   2.149
61763W        W29981  21.531  39.247   3.320
61764W        W29982  23.397  26.750  12.322
61765W        W29983  27.668   5.851  12.159
61766W        W29984  33.666  35.954   3.285
61767W        W29985  21.450  26.711   3.212
61768W        W29986  37.105  20.589   4.287
61769W        W29987   0.282  15.095   1.654
61770W        W29988  14.059   7.810  14.015
61771W        W29989   9.801  41.965  13.877
61772W        W29990  42.425  37.060  10.862
61773W        W29991  37.071   9.835   4.892
61774W        W29992  10.628  23.069  12.816
61775W        W29993  11.184  39.475  12.874
61776W        W29994  35.351   3.966  11.169
61777W        W29995  34.350   9.697  12.900
61778W        W29996   7.783  11.550   4.836
61779W        W29997  26.495  25.738  13.335
61780W        W29998  10.404  41.240  12.407
61781W        W29999  21.214  11.247  13.366
61782W        W30000   2.816  22.492  11.670
61783W        W30001  10.073   5.833   2.320
61784W        W30002  17.827  41.602  11.065
61785W        W30003  31.317   9.227   2.208
61786W        W30004  31.185   7.631  12.081
61787W        W30005  41.437  27.603   3.767
61788W        W30006  18.539   4.109   0.242
61789W        W30007   1.700   6.110   2.815
61790W        W30008   8.126   4.347   0.503
61791W        W30009  21.191  32.050  10.521
61792W        W30010  26.105  34.391  13.720
61793W        W30011   4.429  25.619  11.159
61794W        W30012  26.066  33.014   2.864
61795W        W30013  12.996   9.283  12.769
61796W        W30014  40.068  13.201   4.729
61797W        W30015  17.466  13.529  12.972
61798W        W30016  14.513  38.087   0.048
61799W        W30017  27.540  33.491  10.687
61800W        W30018  43.472   2.452  10.629
61801W        W30019   1.825  35.358   1.861
61802W        W30020  40.837  35.819   4.583
61803W        W30021  29.952  38.984   4.750
61804W        W30022  41.511  30.035   2.852
61805W        W30023  30.923  17.282  13.977
61806W        W30024  38.042  25.655  11.792
61807W        W30025  43.445  16.210   0.989
61808W        W30026  37.866   9.470   4.320
61809W        W30027  10.880  33.130   0.164
61810W        W30028  25.659  30.989   0.016
61811W        W30029   8.224  24.190  11.166
61812W        W30030  20.357  37.580  12.953
61813W        W30031  36.877  24.448   4.276
61814W        W30032  41.228  12.033  11.668
61815W        W30033   0.256   2.348  12.000
61816W        W30034  16.152  21.694  13.896
61817W        W30035   3.769  25.509   0.423
61818W        W30036   0.333  21.319   3.212
61819W        W30037  13.574  10.181  14.411
61820W        W30038  42.841  40.786   4.600
61821W        W30039  24.229   5.985   3.146
61822W        W30040  38.063  40.406   2.155
61823W        W30041   7.764   8.409   2.457
61824W        W30042  31.658  18.068   3.487
61825W        W30043   0.333  19.796   0.825
61826W        W30044  39.409  39.027  13.688
61827W        W30045  30.849  21.449  11.650
61828W        W30046   9.419   8.757   2.756
61829W        W30047  27.474  19.579  11.982
61830W        W30048  31.936   4.987  14.901
61831W        W30049  12.468  11.125   0.387
61832W        W30050  15.229  25.980  14.415
61833W        W30051  36.585  43.882  11.109
61834W        W30052  20.539  23.956   3.748
61835W        W30053  10.619  33.454  13.832
61836W        W30054  42.957  10.168  11.149
61837W        W30055   0.216  39.397   0.431
61838W        W30056  29.139  42.369   1.874
61839W        W30057  19.698  39.416  11.398
61840W        W30058   0.831   7.932  14.819
61841W        W30059  40.242  34.459   3.746
61842W        W30060   0.880   3.429  14.661
61843W        W30061  21.991  20.990  10.176
61844W        W30062  15.224  19.311  14.504
61845W        W30063  28.495  30.249   0.193
61846W        W30064  19.188  43.047   3.926
61847W        W30065  41.370   3.465  12.401
61848W        W30066  40.006  23.204   3.752
61849W        W30067  32.581  40.853   2.745
61850W        W30068  21.912  31.510   1.247
61851W        W30069  23.336  42.556   0.257
61852W        W30070  26.266  30.453   0.767
61853W        W30071   5.130  23.302  14.676
61854W        W30072  27.188  24.118   1.434
61855W        W30073  10.586   5.773   3.210
61856W        W30074  35.894  13.367   0.279
61857W        W30075  41.342  21.521   4.649
61858W        W30076  26.744  19.747   0.597
61859W        W30077  18.561  29.529   2.377
61860W        W30078  21.711  26.187  12.017
61861W        W30079  42.291   4.155  13.263
61862W        W30080  21.482  37.288   9.903
61863W        W30081  26.987  21.439   5.180
61864W        W30082  42.956  12.800  11.210
61865W        W30083  37.836  20.224  12.005
61866W        W30084   9.143  31.978  14.588
61867W        W30085  39.359  23.230  12.816
61868W        W30086   7.894  41.046  12.535
61869W        W30087  31.454  13.781  12.948
61870W        W30088  25.988  26.316   1.380
61871W        W30089  26.958  39.113   0.035
61872W        W30090   6.885  39.017   4.871
61873W        W30091  11.410  21.318  11.795
61874W        W30092  14.293  25.466   2.886
61875W        W30093  18.069  14.252   1.266
61876W        W30094  24.350  36.976   2.584
61877W        W30095  12.113   0.425   1.080
61878W        W30096  29.465  30.914   1.430
61879W        W30097  32.427  12.167  13.791
61880W        W30098  27.341  19.462   1.193
61881W        W30099  36.064  14.308   3.541
61882W        W30100  37.400   1.624   0.221
61883W        W30101   7.403  42.303  14.295
61884W        W30102  11.372  10.182  11.954
61885W        W30103  25.935   6.126   4.046
61886W        W30104  17.670   9.235  11.606
61887W        W30105  38.823  39.387  10.034
61888W        W30106  38.987  34.952  13.472
61889W        W30107   8.702  36.585   2.299
61890W        W30108  21.124  19.369  12.438
61891W        W30109   4.944  13.795  13.876
61892W        W30110  11.663  31.674   4.666
61893W        W30111  26.718  21.924   4.088
61894W        W30112  20.842  32.265   4.140
61895W        W30113  13.366  35.188  12.496
61896W        W30114  38.934  22.001   2.702
61897W        W30115  23.965  20.404   3.742
61898W        W30116   3.698  42.228  14.570
61899W        W30117  17.280  24.449  14.886
61900W        W30118  20.862  23.075  11.591
61901W        W30119   4.969  25.169   1.792
61902W        W30120   1.255  28.527  13.293
61903W        W30121  20.212  28.448  13.408
61904W        W30122  32.529  43.980  13.883
61905W        W30123  34.834   9.755  11.566
61906W        W30124  35.307  21.851   1.351
61907W        W30125   0.965   6.728  10.958
61908W        W30126   0.128  23.598  13.647
61909W        W30127  25.480   7.207  12.651
61910W        W30128  40.267   2.353  14.859
61911W        W30129  42.885   7.403   0.945
61912W        W30130   1.849   2.784  10.660
61913W        W30131  42.349  44.009  11.603
61914W        W30132  44.916  33.940   0.836
61915W        W30133  30.012  10.775  10.904
61916W        W30134  16.323  41.331   3.892
61917W        W30135  17.623   4.413  14.362
61918W        W30136  25.489   3.042  13.317
61919W        W30137   5.728   9.375   4.255
61920W        W30138  28.048  21.947   3.878
61921W        W30139  14.732  28.210  13.358
61922W        W30140  13.967   9.079  13.545
61923W        W30141   1.544   5.348   0.750
61924W        W30142   6.749  39.444  13.137
61925W        W30143   3.882  39.403   0.935
61926W        W30144  33.008  38.474  10.606
61927W        W30145  44.033  13.003  11.443
61928W        W30146  24.524  24.021   1.647
61929W        W30147  25.244  44.656  12.990
61930W        W30148  30.985   1.798  12.336
61931W        W30149  20.765  16.631   0.369
61932W        W30150  12.362  33.427   0.374
61933W        W30151   4.259  30.019   1.732
61934W        W30152  41.754  41.438   1.758
61935W        W30153  17.008  38.366   4.427
61936W        W30154  31.939  14.550  14.006
61937W        W30155  31.261  37.546  11.578
61938W        W30156  33.355  41.910  11.172
61939W        W30157   3.832   1.937   2.757
61940W        W30158  31.461   2.789  12.960
61941W        W30159  43.731   3.947  13.898
61942W        W30160  17.227  31.703   2.364
61943W        W30161  10.798  20.520   3.893
61944W        W30162   2.836  27.329  12.292
61945W        W30163   8.642   0.200   1.697
61946W        W30164   6.337  40.002   1.354
61947W        W30165  40.738   7.710  12.125
61948W        W30166   9.144  30.319   4.549
61949W        W30167  41.559  30.887  12.074
61950W        W30168  34.663  28.817   5.472
61951W        W30169  33.646  36.945   1.245
61952W        W30170   6.166  34.101  11.534
61953W        W30171  42.474   2.352  12.777
61954W        W30172  42.115   9.213  11.425
61955W        W30173  37.050  43.769   0.938
61956W        W30174  23.302   7.465  14.408
61957W        W30175  23.274  33.865   4.627
61958W        W30176  33.215   8.406   4.207
61959W        W30177  23.783   2.216  14.054
61960W        W30178   4.364  36.935   1.220
61961W        W30179  14.835  17.021   2.080
61962W        W30180  10.382  36.300  13.945
61963W        W30181  10.143  38.477   0.519
61964W        W30182  25.986  28.283  10.720
61965W        W30183  21.292   3.736  14.995
61966W        W30184  43.979  40.785   3.937
61967W        W30185  38.416   6.689  14.992
61968W        W30186  34.442  29.472  13.563
61969W        W30187   6.137  25.029  14.775
61970W        W30188  42.828  20.465   0.887
61971W        W30189  32.080  13.421  14.987
61972W        W30190  24.161  42.827  11.651
61973W        W30191   4.181  26.050  14.507
61974W        W30192  34.392  20.061  14.302
61975W        W30193  36.817   8.668  12.499
61976W        W30194  20.602   2.689  11.656
61977W        W30195  25.491  20.167   2.744
61978W        W30196  25.080   4.478   0.784
61979W        W30197  35.629  31.198   1.700
61980W        W30198  12.304  25.618   4.980
61981W        W30199   2.138  33.658  13.176
61982W        W30200  40.776  23.321   4.157
61983W        W30201  38.026  13.064  11.457
61984W        W30202   5.634  12.346  14.993
61985W        W30203  15.536   0.417  14.769
61986W        W30204  14.672   3.941   2.688
61987W        W30205  39.923  35.645   2.566
61988W        W30206  25.490  42.440   2.256
61989W        W30207   7.772  44.401  13.519
61990W        W30208   2.059  29.923   4.084
61991W        W30209  33.156  21.084  14.357
61992W        W30210  27.071  20.164   0.513
61993W        W30211  44.978  11.096  14.348
61994W        W30212  29.193  15.655  12.880
61995W        W30213  39.366  36.273  11.380
61996W        W30214  19.911  16.787   0.880
61997W        W30215  24.546  22.324  14.415
61998W        W30216  25.500  23.709   2.852
61999W        W30217  20.500  11.002   1.377
62000W        W30218  39.556  34.041   1.238
62001W        W30219  38.331   7.275  11.480
62002W        W30220  24.626  34.013   4.296
62003W        W30221  30.101  32.173  10.650
62004W        W30222  18.140   0.214  14.028
62005W        W30223  32.717  44.817  11.467
62006W        W30224   3.429   2.465   3.369
62007W        W30225   5.392  27.685   1.174
62008W        W30226  23.592  19.752  12.561
62009W        W30227  15.332  15.393   1.831
62010W        W30228  25.539  16.157   1.604
62011W        W30229  27.009   7.302   4.653
62012W        W30230  43.520  23.294   0.886
62013W        W30231  17.787  42.433   0.674
62014W        W30232  16.516   8.815  11.192
62015W        W30233  17.275   5.180  12.630
62016W        W30234  29.903  23.497  12.152
62017W        W30235  29.853   8.267  13.317
62018W        W30236  44.490  22.788   4.079
62019W        W30237  13.587   6.812   2.999
62020W        W30238  30.821  34.667   3.667
62021W        W30239  20.647  27.887  13.011
62022W        W30240  33.996   1.173   3.184
62023W        W30241  26.674  43.921   1.471
62024W        W30242  40.334  43.519   3.248
62025W        W30243  30.090  29.996   3.711
62026W        W30244  30.043  37.706   4.087
62027W        W30245  24.574  37.246  11.901
62028W        W30246  32.590  28.295   3.915
62029W        W30247  43.267  28.939  12.435
62030W        W30248  12.076  17.317  13.467
62031W        W30249  32.671  25.394   4.666
62032W        W30250   7.416  28.954  11.461
62033W        W30251  29.519  14.273  13.804
62034W        W30252  44.026   0.282   2.715
62035W        W30253  27.942  19.586   1.956
62036W        W30254  35.880   0.289   0.748
62037W        W30255  17.069  43.441  13.108
62038W        W30256  24.919  33.592   4.363
62039W        W30257   3.226  44.445   2.505
62040W        W30258  17.004  18.082   1.031
62041W        W30259  10.848  40.085  14.823
62042W        W30260   3.473   5.289  14.601
62043W        W30261   7.921  23.798   0.024
62044W        W30262  12.711   9.651   1.340
62045W        W30263  19.216  19.813   1.404
62046W        W30264  19.248   1.403  12.919
62047W        W30265  43.767   9.782   2.663
62048W        W30266   3.419  19.877  10.588
62049W        W30267  22.813  44.449  13.039
62050W        W30268   5.731   6.229  12.415
62051W        W30269  10.793  12.918   3.207
62052W        W30270  13.147  18.223  13.543
62053W        W30271  40.141   9.714  14.169
62054W        W30272  15.761   8.329   4.552
62055W        W30273   7.409   9.121  12.905
62056W        W30274  39.307  17.820  13.570
62057W        W30275  31.291   4.421  11.632
62058W        W30276  43.834   6.718   0.872
62059W        W30277   7.184  34.319  13.582
62060W        W30278  38.828  16.174  13.530
62061W        W30279   8.715  14.158  11.107
62062W        W30280  24.723   4.912  14.490
62063W        W30281  21.877  41.210   4.176
62064W        W30282  20.568  19.688   3.794
62065W        W30283  28.612  13.576   3.794
62066W        W30284   7.247   4.445  12.923
62067W        W30285  17.841  32.446   2.263
62068W        W30286   1.160   0.438  10.502
62069W        W30287  28.685  23.606   2.681
62070W        W30288  39.463  38.643  13.355
62071W        W30289  16.184  29.999   4.987
62072W        W30290   8.878  13.913  12.466
62073W        W30291  42.736  44.252   4.288
62074W        W30292  31.603   2.097   4.510
62075W        W30293   6.518  14.735  13.438
62076W        W30294  40.281  38.480  10.983
62077W        W30295  13.633  37.036   4.543
62078W        W30296  35.490  39.091   4.839
62079W        W30297   6.336  14.113  12.112
62080W        W30298  32.214  21.733  13.977
62081W        W30299  40.892  34.653  10.431
62082W        W30300  15.263  10.146   4.251
62083W        W30301  44.454  39.228   2.750
62084W        W30302  31.354  41.270  11.088
62085W        W30303  43.995   3.847   4.475
62086W        W30304  20.840  18.449   5.040
62087W        W30305  12.230  20.127  11.664
62088W        W30306   5.786  27.085  11.343
62089W        W30307  41.154  11.602   0.100
62090W        W30308  34.966  28.708  12.956
62091W        W30309  25.018  14.091  10.726
62092W        W30310  22.622  40.826  13.336
62093W        W30311  40.381  26.268   3.642
62094W        W30312  31.528  35.028   4.716
62095W        W30313  35.279  41.968  12.992
62096W        W30314   1.936  22.751   3.960
62097W        W30315  21.239   0.732  12.132
62098W        W30316  38.902  10.164  12.054
62099W        W30317  19.259  30.655   1.972
62100W        W30318   9.176  34.962   4.554
62101W        W30319  31.559   1.625   3.234
62102W        W30320   6.398  27.417   4.301
62103W        W30321   5.960  43.699  11.516
62104W        W30322  38.871  12.670   2.206
62105W        W30323  18.138  34.201  11.654
62106W        W30324  25.729  31.343   2.392
62107W        W30325  26.686  20.613   1.447
62108W        W30326  22.770  21.495   4.137
62109W        W30327  44.780  11.728  10.460
62110W        W30328  24.733  38.413  10.639
62111W        W30329  29.648  12.303   1.778
62112W        W30330  14.386   3.946  14.181
62113W        W30331  14.841  30.735  14.399
62114W        W30332  17.136  36.483   4.566
62115W        W30333  42.904  14.463   4.264
62116W        W30334  11.338   0.413  11.416
62117W        W30335   1.251  17.580   2.751
62118W        W30336  19.029  35.140  11.057
62119W        W30337   0.403  20.739  11.337
62120W        W30338  10.858  31.555   1.699
62121W        W30339   4.457  38.178   2.765
62122W        W30340  43.980  38.506  10.657
62123W        W30341  23.929  21.809  13.953
62124W        W30342  22.773  32.368   3.218
62125W        W30343  19.718  15.346  11.935
62126W        W30344  27.337  14.211   3.652
62127W        W30345  13.766  27.186   0.957
62128W        W30346  12.712  43.941   4.531
62129W        W30347  42.856  25.124  10.425
62130W        W30348   2.920  43.775   4.265
62131W        W30349  35.878   2.932  12.663
62132W        W30350  39.552   4.357   4.132
62133W        W30351  17.282  37.085   2.208
62134W        W30352  19.733  21.831  12.144
62135W        W30353  36.788  33.501   2.354
62136W        W30354  26.420   3.890  10.644
62137W        W30355  17.725   3.807  12.586
62138W        W30356  33.680  39.390  14.919
62139W        W30357  10.693  12.318  14.818
62140W        W30358  19.806   5.736   4.069
62141W        W30359  21.133  43.869  12.550
62142W        W30360  40.901  25.269  14.952
62143W        W30361  19.560   3.178   1.305
62144W        W30362  23.429  42.396  13.816
62145W        W30363  11.562  27.684  13.486
62146W        W30364  33.825  12.524  14.545
62147W        W30365   2.002  19.581   1.834
62148W        W30366   9.679  31.494  14.456
62149W        W30367  37.996  20.768   1.182
62150W        W30368  13.407  33.406  12.055
62151W        W30369  40.340   5.150   2.263
62152W        W30370  14.613  36.606  14.909
62153W        W30371  21.086  35.039   0.363
62154W        W30372  20.001  30.522  12.043
62155W        W30373  34.736   5.133   2.244
62156W        W30374  37.647  23.882  13.814
62157W        W30375  37.713  28.575  14.292
62158W        W30376   3.822  16.839  13.590
62159W        W30377  35.031  19.856   2.247
62160W        W30378  40.733  13.553  14.447
62161W        W30379  33.921  19.469  14.930
62162W        W30380  43.669  35.965   3.921
62163W        W30381  17.086  35.806  13.410
62164W        W30382  22.836  43.683  13.187
62165W        W30383  22.003  10.429   2.138
62166W        W30384  32.307  29.621  10.464
62167W        W30385  25.620  44.315   1.392
62168W        W30386  41.883  10.360  13.378
62169W        W30387  20.517   7.670   2.236
62170W        W30388  44.968   1.252  11.117
62171W        W30389  11.688  21.020  13.051
62172W        W30390  21.703  10.915  12.557
62173W        W30391   2.717  15.565  14.606
62174W        W30392  39.881  22.134  12.823
62175W        W30393  15.800   4.258   3.855
62176W        W30394   3.171  17.310   1.232
62177W        W30395  24.229  19.731  11.882
62178W        W30396  26.987  40.551  14.291
62179W        W30397  23.669  22.851  12.395
62180W        W30398  23.298  27.923  10.689
62181W        W30399   7.832  25.631  13.353
62182W        W30400  42.467  20.566  12.938
62183W        W30401  37.976  23.800  10.599
62184W        W30402  33.905  30.551  11.034
62185W        W30403  39.796  30.658   0.835
62186W        W30404  18.477  23.717   4.479
62187W        W30405  43.719  10.767  11.271
62188W        W30406  24.912  38.048   1.645
62189W        W30407  31.125   1.552   0.858
62190W        W30408  12.982  25.411   4.195
62191W        W30409  25.016  17.562   2.458
62192W        W30410  20.251  14.255  13.394
62193W        W30411  11.719  24.893   3.618
62194W        W30412  23.601   4.849  11.444
62195W        W30413  13.879  10.096  10.199
62196W        W30414   2.209  12.833  12.588
62197W        W30415  32.585  12.043   3.669
62198W        W30416  33.558  19.594   3.743
62199W        W30417   8.734  40.690  14.864
62200W        W30418  11.367  26.197   0.798
62201W        W30419   2.933  29.665  13.529
62202W        W30420  35.748  10.345   1.339
62203W        W30421  19.640  43.767  14.384
62204W        W30422  29.656   3.421   3.673
62205W        W30423  34.718  11.269  11.213
62206W        W30424  18.277  16.808   2.442
62207W        W30425  38.004  25.232   5.059
62208W        W30426  20.579  37.378  10.224
62209W        W30427  16.829  16.347  11.979
62210W        W30428  19.574   3.938  11.028
62211W        W30429   2.732  37.033   2.450
62212W        W30430  38.411  40.960   0.710
62213W        W30431  39.410  17.026   0.313
62214W        W30432   6.068   1.297   0.877
62215W        W30433  30.486  44.920   1.474
62216W        W30434  17.234  16.521  13.368
62217W        W30435   6.894  38.131  11.944
62218W        W30436   1.523  31.480  11.169
62219W        W30437  18.199  29.725  11.557
62220W        W30438  16.559   5.654  11.597
62221W        W30439  16.719  39.812  14.478
62222W        W30440  32.563  40.539  12.137
62223W        W30441  27.996  11.583   4.102
62224W        W30442  21.545  14.850   0.387
62225W        W30443  34.887   9.250  11.480
62226W        W30444  44.445   2.198  11.665
62227W        W30445   7.848  29.143  14.683
62228W        W30446  38.706  42.010   1.820
62229W        W30447   3.218  28.511  11.703
62230W        W30448  15.773  12.282  13.379
62231W        W30449  22.273  31.469  14.446
62232W        W30450  18.845   7.759   3.149
62233W        W30451   5.752   8.605   1.382
62234W        W30452   0.793  39.935   3.282
62235W        W30453  12.956  42.827   3.314
62236W        W30454  32.936  33.054   4.267
62237W        W30455  21.617  12.052  13.037
62238W        W30456  30.728  20.602  12.933
62239W        W30457  35.067  15.842   1.800
62240W        W30458   0.515   7.188  14.788
62241W        W30459  18.445  15.307   2.740
62242W        W30460  17.163  27.654   2.964
62243W        W30461  35.867  24.462  14.006
62244W        W30462  23.614  15.505  14.567
62245W        W30463  36.239  41.473   1.342
62246W        W30464  11.750  15.116  13.677
62247W        W30465  11.470   4.968  12.869
62248W        W30466   9.876  35.333  14.313
62249W        W30467  37.150  32.217  10.802
62250W        W30468  29.393   8.391  12.831
62251W        W30469  12.451  23.394  11.071
62252W        W30470  21.596  15.435  14.346
62253W        W30471  37.389   2.155  12.210
62254W        W30472   7.886  16.720  11.597
62255W        W30473  17.326  42.151   0.427
62256W        W30474  14.629  27.950  12.909
62257W        W30475  10.937  28.902  10.332
62258W        W30476  36.554   9.590   2.891
62259W        W30477   0.024  40.096   3.707
62260W        W30478  41.656  11.210  10.730
62261W        W30479  35.060  34.524  12.401
62262W        W30480   0.200  21.552  11.469
62263W        W30481  42.856  40.492  12.640
62264W        W30482   9.688  35.097   1.091
62265W        W30483  22.199  17.335   2.292
62266W        W30484  28.521  38.983   0.694
62267W        W30485  32.046   3.724   0.724
62268W        W30486  25.448  13.323  13.609
62269W        W30487   2.333  43.509   4.283
62270W        W30488  27.172  29.320  12.537
62271W        W30489   1.197  20.762  12.863
62272W        W30490  23.154  26.956   1.408
62273W        W30491  42.040  25.188   3.089
62274W        W30492   8.262  38.525  11.013
62275W        W30493  24.979  38.753   4.384
62276W        W30494  30.673  36.549   4.558
62277W        W30495  19.105   6.825   0.613
62278W        W30496   7.001  32.792  11.701
62279W        W30497  19.714  40.872  14.310
62280W        W30498  28.220  42.727  10.323
62281W        W30499  16.493  31.969   3.688
62282W        W30500  21.117  18.849  12.382
62283W        W30501  24.207   8.283   0.419
62284W        W30502   9.580  21.765   3.097
62285W        W30503  32.016  23.296   1.278
62286W        W30504  24.328   0.303  13.094
62287W        W30505  30.157  17.135   1.790
62288W        W30506  10.217   4.994  14.600
62289W        W30507   7.448  22.817  10.646
62290W        W30508  19.403  14.087  14.194
62291W        W30509  14.896  35.885  10.950
62292W        W30510  25.248  17.309  13.978
62293W        W30511  25.197  41.245  13.887
62294W        W30512  38.381   5.276  11.268
62295W        W30513  22.445  41.983  14.744
62296W        W30514  26.162  39.891   0.497
62297W        W30515  25.562  40.038   4.441
62298W        W30516  29.701   8.161   1.366
62299W        W30517  34.399  44.842  13.478
62300W        W30518  25.069  15.367  11.510
62301W        W30519  38.304  42.975   1.705
62302W        W30520  23.352  13.660  12.107
62303W        W30521   6.763  37.617  10.203
62304W        W30522  32.232   0.903   0.293
62305W        W30523  27.561  30.962   1.418
62306W        W30524  43.265  26.914   0.007
62307W        W30525   0.343  43.907   3.168
62308W        W30526  21.163  34.117   1.194
62309W        W30527  30.722  13.626  11.929
62310W        W30528  31.511  19.864  13.071
62311W        W30529  11.814  26.700  12.369
62312W        W30530  39.582   3.414  11.141
62313W        W30531  40.481  40.598   3.702
62314W        W30532  36.232   8.830   3.704
62315W        W30533  31.059  22.739   3.172
62316W        W30534   2.514  37.380  10.741
62317W        W30535  13.839  42.864  14.899
62318W        W30536  37.971  41.713  14.470
62319W        W30537   4.918  18.119  10.332
62320W        W30538  15.072   3.794  12.119
62321W        W30539  15.084  34.041  12.426
62322W        W30540   6.420   4.039   2.633
62323W        W30541  35.892  26.201  10.720
62324W        W30542  19.721  19.621  14.605
62325W        W30543  40.991   0.742   2.738
62326W        W30544  34.523  41.455  13.554
62327W        W30545  30.633  12.109  12.119
62328W        W30546  37.795   5.130   0.345
62329W        W30547  19.196  41.891   2.271
62330W        W30548   4.298   0.751   0.772
62331W        W30549  36.443  35.991  14.195
62332W        W30550  22.526   8.168   2.283
62333W        W30551  40.913   4.349   2.862
62334W        W30552  31.889  36.089   1.804
62335W        W30553  37.375   3.021   2.925
62336W        W30554   1.014  40.792   4.010
62337W        W30555  36.564  21.957   1.331
62338W        W30556  10.380  26.767   2.224
62339W        W30557   4.257  21.761  11.291
62340W        W30558  23.759   9.196   1.830
62341W        W30559  44.309  12.873   3.358
62342W        W30560  33.104  21.309  10.411
62343W        W30561   8.179  42.814   0.344
62344W        W30562  14.311  31.871   4.623
62345W        W30563  19.634  23.458  12.476
62346W        W30564  23.933  28.815  11.628
62347W        W30565  42.543   1.706   1.759
62348W        W30566   2.177  39.081  10.283
62349W        W30567   3.809   4.840   3.078
62350W        W30568  41.425  20.765   3.991
62351W        W30569  10.594  20.607   2.687
62352W        W30570  44.959  34.225  11.201
62353W        W30571  24.576   8.496   3.205
62354W        W30572  39.998   5.925  10.341
62355W        W30573  44.383  36.963  14.342
62356W        W30574   1.724   9.338  14.336
62357W        W30575   8.061  36.395   3.354
62358W        W30576   5.315  35.941  10.663
62359W        W30577   4.609   9.724   4.018
62360W        W30578  20.502   7.863  11.797
62361W        W30579  20.216   2.584  14.327
62362W        W30580  12.311  10.617   3.187
62363W        W30581  43.754  34.004  10.845
62364W        W30582  36.349  40.845   3.306
62365W        W30583  33.413  10.304   5.163
62366W        W30584   1.020  34.013   1.770
62367W        W30585   4.901  37.674  12.487
62368W        W30586   7.890  12.804   3.670
62369W        W30587  33.867  21.922  13.379
62370W        W30588   0.908  22.635  13.584
62371W        W30589  20.141  24.268   3.803
62372W        W30590  37.087  24.008   3.362
62373W        W30591  35.454  43.604   2.279
62374W        W30592  32.947   6.612   1.879
62375W        W30593  11.664   6.848   0.094
62376W        W30594  20.659   4.913  14.836
62377W        W30595  36.095  17.820  12.071
62378W        W30596  44.907  24.423   4.650
62379W        W30597  36.208   3.877  12.905
62380W        W30598   2.068  16.143  11.573
62381W        W30599  19.205  44.615   2.669
62382W        W30600  11.682  16.326   3.282
62383W        W30601  29.139  38.332  11.118
62384W        W30602  34.896   5.835   4.338
62385W        W30603  22.577  44.100   4.627
62386W        W30604  27.076   4.834   3.206
62387W        W30605  26.746  23.802  12.502
62388W        W30606  15.821  26.023   0.237
62389W        W30607  29.570  23.735  12.463
62390W        W30608  29.446  25.752  12.041
62391W        W30609  12.531  41.203   4.962
62392W        W30610  20.180  27.557   3.883
62393W        W30611  15.682  23.978   0.792
62394W        W30612  26.998  44.904  11.035
62395W        W30613   9.476  17.382   3.635
62396W        W30614  36.550  16.046  12.870
62397W        W30615  30.005   4.258  13.984
62398W        W30616  27.490  39.544   1.849
62399W        W30617   4.710  42.554  14.405
62400W        W30618  14.134  18.600   0.218
62401W        W30619  38.675  27.628   0.987
62402W        W30620  39.043   3.107  12.003
62403W        W30621  22.615  39.178   1.414
62404W        W30622  33.875  34.903   1.471
62405W        W30623  22.153  30.716   2.706
62406W        W30624   7.872  35.307   0.305
62407W        W30625   3.860  15.611  12.904
62408W        W30626  13.717  43.291   4.765
62409W        W30627  38.738  36.382  11.899
62410W        W30628  33.443  40.246   4.073
62411W        W30629   2.642  25.421  12.516
62412W        W30630  30.968   4.013  11.549
62413W        W30631  40.924  37.568   4.176
62414W        W30632   5.885  12.445   1.354
62415W        W30633  13.816   4.256  10.589
62416W        W30634  39.271  23.490   0.368
62417W        W30635   0.964  31.720   0.029
62418W        W30636  32.205  30.858   4.543
62419W        W30637  30.484  38.774   1.282
62420W        W30638  21.412   4.451   3.846
62421W        W30639  41.967  19.243   2.777
62422W        W30640  31.215  40.379  10.678
62423W        W30641   1.506  11.973   1.642
62424W        W30642  38.612   6.632   4.178
62425W        W30643  14.945  40.034   2.674
62426W        W30644  18.255   8.445  13.162
62427W        W30645  33.054  26.440  11.700
62428W        W30646  43.366  15.657   1.901
62429W        W30647  12.681  16.750   2.810
62430W        W30648  25.537  11.810   4.430
62431W        W30649  39.318  14.193  14.236
62432W        W30650  32.921  23.571  14.422
62433W        W30651  15.017  25.608   0.310
62434W        W30652  36.427  38.551  14.993
62435W        W30653  15.754  15.360   4.980
62436W        W30654  38.818  28.879   2.244
62437W        W30655   8.250  35.916  13.134
62438W        W30656  21.925  36.361   5.095
62439W        W30657   9.215  28.211   3.726
62440W        W30658   3.142  43.891  12.966
62441W        W30659   6.328  31.449   2.261
62442W        W30660  40.532  28.602  12.433
62443W        W30661  28.426  37.859  14.778
62444W        W30662  13.195   9.361   2.890
62445W        W30663   4.513  18.568  11.116
62446W        W30664  42.033  19.764   1.451
62447W        W30665  40.239  39.471  11.016
62448W        W30666  27.912   2.966  12.122
62449W        W30667   7.324   8.487   4.042
62450W        W30668   2.975  20.020  14.005
62451W        W30669   9.378   6.197   2.847
62452W        W30670  33.137   5.742  11.888
62453W        W30671  14.773   7.153   1.831
62454W        W30672  33.467  41.395  12.002
62455W        W30673  42.641  41.507  11.113
62456W        W30674  10.661  43.713  13.402
62457W        W30675   1.252  15.155   3.226
62458W        W30676  21.157   3.253  13.685
62459W        W30677   4.254  26.763  11.989
62460W        W30678  12.833  35.304   4.134
62461W        W30679  19.130  26.178  11.703
62462W        W30680  36.548  31.852   3.209
62463W        W30681   6.800  31.858  12.449
62464W        W30682  20.264   6.420   2.778
62465W        W30683  13.571  24.578  14.442
62466W        W30684  14.867  32.154  14.031
62467W        W30685  29.537  39.168  11.551
62468W        W30686  34.963  17.144  12.954
62469W        W30687  37.370   6.348  14.038
62470W        W30688  16.279  23.681  14.772
62471W        W30689  13.904   6.846  10.885
62472W        W30690   7.640  34.618  10.858
62473W        W30691  20.073  26.818  14.450
62474W        W30692  30.155  15.263   4.427
62475W        W30693  18.159  30.880   1.314
62476W        W30694  33.533  18.566   1.790
62477W        W30695  36.950  41.382   3.200
62478W        W30696  23.618  36.463   4.679
62479W        W30697  34.955  15.152   0.838
62480W        W30698  34.521  13.597  10.675
62481W        W30699  20.629  23.832   1.888
62482W        W30700  40.271  29.127   0.918
62483W        W30701  15.280  25.560   1.858
62484W        W30702  43.294  41.224   5.102
62485W        W30703   7.389  34.115   1.471
62486W        W30704  22.703  23.748  10.688
62487W        W30705  15.441  26.068  13.408
62488W        W30706   2.762  36.512   3.668
62489W        W30707  14.086   5.868   4.637
62490W        W30708  12.962  43.620   0.538
62491W        W30709  25.668  27.956   3.610
62492W        W30710  24.729  10.290   3.131
62493W        W30711  41.832  42.824   0.507
62494W        W30712  36.646  36.328  10.945
62495W        W30713  25.353  44.376   4.299
62496W        W30714  44.408  29.521   0.362
62497W        W30715  40.402  16.250  12.192
62498W        W30716  27.085  14.294   0.453
62499W        W30717  32.938  43.449  13.167
62500W        W30718   7.681  28.633   2.917
62501W        W30719   0.930   9.384   1.625
62502W        W30720   8.619  15.815  12.640
62503W        W30721   6.139   4.819  11.122
62504W        W30722   9.253  23.830   0.789
62505W        W30723   6.183  39.026  10.680
62506W        W30724  16.633  43.728  14.857
62507W        W30725   4.210   4.416  12.850
62508W        W30726   9.815   3.917  13.302
62509W        W30727  14.258  32.907   2.954
62510W        W30728  19.220  28.142  10.587
62511W        W30729   2.350  17.985  11.654
62512W        W30730  42.765   2.787   1.440
62513W        W30731  38.157   5.377  10.525
62514W        W30732  21.783   5.013  11.056
62515W        W30733   9.367   5.596  14.475
62516W        W30734  21.399  11.393  13.815
62517W        W30735  11.842  33.601  11.756
62518W        W30736   9.602   2.496   4.405
62519W        W30737  14.176  38.032  10.669
62520W        W30738  28.593  27.043  14.590
62521W        W30739   7.104   2.772  11.612
62522W        W30740  14.400  38.648  12.070
62523W        W30741  43.484  25.551  12.405
62524W        W30742  22.658   3.664   0.299
62525W        W30743   5.376  38.151   1.864
62526W        W30744   6.655  19.502  10.574
62527W        W30745   0.832   5.362   1.976
62528W        W30746  29.459  14.665  12.402
62529W        W30747   0.510   3.639   1.418
62530W        W30748  29.581  42.460   2.633
62531W        W30749  27.664  20.152  11.644
62532W        W30750  18.932  32.089  12.684
62533W        W30751  44.711  10.931  13.935
62534W        W30752  35.810  24.511   1.771
62535W        W30753   9.229  35.468   4.080
62536W        W30754  25.690  27.373  11.104
62537W        W30755   2.742   0.905  14.446
62538W        W30756  22.089   7.649   2.740
62539W        W30757  41.075  23.251  12.542
62540W        W30758  19.709  21.536  14.087
62541W        W30759   0.529   8.754   0.037
62542W        W30760  10.633  32.998  10.629
62543W        W30761  25.455   6.925   3.704
62544W        W30762  27.550  31.467  12.464
62545W        W30763  34.913   7.918   4.621
62546W        W30764   8.172  10.652  12.855
62547W        W30765  14.002   8.030   3.693
62548W        W30766  29.976  17.349   4.399
62549W        W30767  41.979   7.715  11.220
62550W        W30768   9.721  40.798  13.312
62551W        W30769  15.059  15.324   4.578
62552W        W30770  25.040   3.904   3.108
62553W        W30771  37.583  20.038   5.097
62554W        W30772   7.117  16.886  12.503
62555W        W30773  24.116   5.890  10.848
62556W        W30774  21.129  41.284   2.254
62557W        W30775  12.607   3.792   1.426
62558W        W30776  24.879  34.506  12.784
62559W        W30777  42.786  44.246  13.952
62560W        W30778  42.354  41.233   0.819
62561W        W30779   6.671  17.569   1.292
62562W        W30780  31.929  13.783  12.676
62563W        W30781  10.372  40.982  14.038
62564W        W30782  37.003  18.687  12.396
62565W        W30783  29.199  30.386   0.276
62566W        W30784  12.691  32.555  12.089
62567W        W30785  37.015  41.732  11.013
62568W        W30786  16.795  31.926   3.275
62569W        W30787  34.890  23.661   0.734
62570W        W30788  42.745   1.915  12.857
62571W        W30789  36.097  42.109   0.196
62572W        W30790  11.866   0.284  14.366
62573W        W30791  12.620  14.829   4.180
62574W        W30792   5.024   8.788  14.409
62575W        W30793  24.216   7.128   1.032
62576W        W30794  21.634  28.618   1.834
62577W        W30795  25.129  33.845  11.679
62578W        W30796  23.865   7.245  13.977
62579W        W30797  29.524   3.629   1.703
62580W        W30798  44.820  19.831   0.744
62581W        W30799  24.319  26.167  10.937
62582W        W30800   0.877  22.471  12.534
62583W        W30801  11.095  14.268   4.636
62584W        W30802   8.357  44.736   3.861
62585W        W30803  14.006  17.316  12.289
62586W        W30804  27.449  36.280  14.262
62587W        W30805   2.449  35.137  12.914
62588W        W30806  29.738  41.841  13.499
62589W        W30807  35.136  36.569   4.117
62590W        W30808  16.996  14.294  11.767
62591W        W30809  28.629  18.721   4.519
62592W        W30810  27.984  25.630  12.308
62593W        W30811  25.677   3.988   1.394
62594W        W30812  39.515   7.704  14.407
62595W        W30813  13.280  17.028  13.748
62596W        W30814   8.438  33.335  10.695
62597W        W30815   6.471  24.710   0.899
62598W        W30816  17.012  36.545   0.822
62599W        W30817  22.500   7.137  14.029
62600W        W30818  30.871  10.368   3.683
62601W        W30819  31.894   0.742  14.857
62602W        W30820  33.496  19.846  11.862
62603W        W30821   9.236  16.214  11.599
62604W        W30822   0.036  25.912  11.494
62605W        W30823  12.871  41.403  11.050
62606W        W30824  31.284  28.749  10.216
62607W        W30825  22.458  18.372   3.673
62608W        W30826  21.536  23.349  12.751
62609W        W30827  22.959  19.580   2.296
62610W        W30828   2.855   5.762   0.333
62611W        W30829  29.340  41.922  13.154
62612W        W30830  44.334   0.839  12.400
62613W        W30831  35.994  35.923   1.854
62614W        W30832   6.944  20.058   2.042
62615W        W30833   7.663  14.804  12.381
62616W        W30834  17.727  23.606   4.960
62617W        W30835  12.579  42.314   0.035
62618W        W30836  35.525   8.668   4.282
62619W        W30837   3.247  30.687   2.018
62620W        W30838  16.106  14.612  13.987
62621W        W30839   9.833  39.274  11.022
62622W        W30840  25.274  44.253  14.468
62623W        W30841  33.404  21.082  13.882
62624W        W30842  30.248  16.502   0.454
62625W        W30843  21.009  17.129   1.208
62626W        W30844  10.356  30.270  13.981
62627W        W30845   2.508  43.266  12.989
62628W        W30846   3.621  20.773  11.928
62629W        W30847   9.194   5.446  12.112
62630W        W30848  36.902   6.132   1.284
62631W        W30849   5.915  37.315   2.279
62632W        W30850  31.090   5.340  13.532
62633W        W30851   0.702  21.023   2.264
62634W        W30852  35.355  14.854   0.899
62635W        W30853  22.987  30.228   9.879
62636W        W30854  30.474  15.040   9.981
62637W        W30855   0.395   1.553  10.938
62638W        W30856  37.865  21.842  12.501
62639W        W30857  36.601  38.119  14.054
62640W        W30858  23.258  30.723  10.729
62641W        W30859   4.241  44.017   3.553
62642W        W30860  32.929  41.150   0.565
62643W        W30861  20.689  28.125   3.881
62644W        W30862  27.865  18.521  11.294
62645W        W30863  44.474  36.405  11.609
62646W        W30864  12.549  14.484   1.004
62647W        W30865  11.815  36.996   2.288
62648W        W30866  20.080  12.782  11.695
62649W        W30867  24.714  40.379  14.812
62650W        W30868  19.285  25.611   0.865
62651W        W30869  39.022  22.512   2.511
62652W        W30870   5.001  33.355  12.574
62653W        W30871  30.218  44.485   1.267
62654W        W30872  44.186  34.016  11.103
62655W        W30873  41.457  28.026  13.335
62656W        W30874  27.214  22.917   3.245
62657W        W30875  26.501  44.546  14.753
62658W        W30876  36.676  19.215   0.506
62659W        W30877   9.630  12.330  14.918
62660W        W30878  38.971  13.602  14.275
62661W        W30879  42.378  13.685  11.220
62662W        W30880  42.765  20.631  12.462
62663W        W30881   1.812  33.007   2.122
62664W        W30882  21.971  44.874   2.648
62665W        W30883  34.448  13.548  13.369
62666W        W30884  44.832   8.995   5.152
62667W        W30885  29.090  25.459   3.292
62668W        W30886  38.583  30.883   4.679
62669W        W30887  41.418  21.765   0.900
62670W        W30888  27.286  37.059   4.364
62671W        W30889  13.578  29.713  13.054
62672W        W30890   0.517  11.591   2.870
62673W        W30891  36.395  24.060  11.164
62674W        W30892  30.464  42.094   1.314
62675W        W30893   4.719  30.659  11.844
62676W        W30894  37.093   0.037  13.867
62677W        W30895  33.340   4.777  14.490
62678W        W30896  34.887  22.388   4.317
62679W        W30897  34.930  30.507  11.152
62680W        W30898  39.997  39.394  12.814
62681W        W30899  42.070  34.864   3.841
62682W        W30900  32.065  11.133   4.095
62683W        W30901   0.856  42.601  14.570
62684W        W30902  16.121  36.309   3.238
62685W        W30903  27.249  26.116   3.644
62686W        W30904  31.358  33.273   0.452
62687W        W30905  32.475   1.855   2.404
62688W        W30906   4.396  40.107   4.600
62689W        W30907  20.058  37.555   0.853
62690W        W30908  30.536  40.443   2.797
62691W        W30909  40.078  15.182   1.359
62692W        W30910  44.891  22.762   2.333
62693W        W30911   4.967  32.598  13.635
62694W        W30912  25.749  29.374   0.360
62695W        W30913  17.381  27.282   4.168
62696W        W30914  24.649   1.241   2.258
62697W        W30915   3.277  25.178  13.362
62698W        W30916  14.650   0.557   3.135
62699W        W30917  16.108  11.588  11.356
62700W        W30918  23.229  23.528  12.493
62701W        W30919  14.760  31.768   3.824
62702W        W30920  10.528  35.321  11.508
62703W        W30921   5.921  30.278  11.186
62704W        W30922  17.823   8.625  14.456
62705W        W30923   1.010  17.868  11.469
62706W        W30924  39.543  19.655   0.051
62707W        W30925  39.291  14.053   1.333
62708W        W30926  32.869   5.021  12.477
62709W        W30927  10.318   8.386   3.691
62710W        W30928  26.746  27.624   2.450
62711W        W30929  44.237  16.454   1.730
62712W        W30930  22.928  29.679   4.718
62713W        W30931  19.246  12.943   5.489
62714W        W30932   4.690  36.499   4.226
62715W        W30933  13.220  23.464   0.777
62716W        W30934   2.349  27.557   1.360
62717W        W30935  28.956  41.836   4.053
62718W        W30936  10.406  16.650  14.378
62719W        W30937  25.580  24.577  13.135
62720W        W30938  15.333   5.843   4.148
62721W        W30939  24.192  34.436  12.415
62722W        W30940  20.199  10.392   4.338
62723W        W30941  17.742   6.174  11.025
62724W        W30942  20.286  35.917  14.753
62725W        W30943  31.891  38.331   2.395
62726W        W30944  17.553  34.377   2.085
62727W        W30945   9.144  40.061   1.790
62728W        W30946  10.356  11.561  10.453
62729W        W30947  42.619  13.707   0.399
62730W        W30948   8.214  44.830  13.125
62731W        W30949   2.680   3.511  14.858
62732W        W30950  36.101  17.146  14.254
62733W        W30951  15.799  16.996  12.309
62734W        W30952  20.319  44.331   4.465
62735W        W30953   6.048  18.787   4.870
62736W        W30954   5.271  34.623  11.283
62737W        W30955  14.081  22.768   2.175
62738W        W30956  40.375  27.482   1.432
62739W        W30957  33.379  36.176  13.949
62740W        W30958   8.748  21.164  10.957
62741W        W30959   6.334  26.771  13.408
62742W        W30960  15.162  30.072   2.135
62743W        W30961  19.966  36.071  11.044
62744W        W30962  16.434  17.621   2.872
62745W        W30963   1.238  29.225  11.561
62746W        W30964  41.864  20.163   3.008
62747W        W30965  36.139  26.929  13.913
62748W        W30966  10.361  44.559  10.156
62749W        W30967  29.589  44.533   4.241
62750W        W30968  12.714   1.764   2.579
62751W        W30969  31.533  32.411   0.551
62752W        W30970  32.485  23.514  12.406
62753W        W30971  27.253  38.932  10.932
62754W        W30972  31.374   5.451   2.863
62755W        W30973  31.956  42.797   2.223
62756W        W30974   1.442  15.188  14.038
62757W        W30975  20.544  30.178  11.533
62758W        W30976   3.664   6.145   0.536
62759W        W30977  30.399   1.444  10.295
62760W        W30978  38.182  11.585  10.752
62761W        W30979  32.522  19.268   0.967
62762W        W30980  21.596  35.628  11.474
62763W        W30981  20.765  17.694   4.667
62764W        W30982  35.821  29.903   2.131
62765W        W30983   8.387   8.696  11.984
62766W        W30984  22.060   4.862   4.505
62767W        W30985   9.348  33.822  10.570
62768W        W30986  42.425  14.434  10.641
62769W        W30987  41.854  44.513  11.512
62770W        W30988  25.678  14.519   4.494
62771W        W30989  16.645   4.720  11.970
62772W        W30990  37.997  12.110   4.487
62773W        W30991  12.351  27.474  13.918
62774W        W30992  19.476  20.999  10.643
62775W        W30993  27.923  28.295  14.598
62776W        W30994  20.106  31.862   0.994
62777W        W30995   4.695  19.767  12.901
62778W        W30996  43.641  10.585   3.209
62779W        W30997  34.900  31.736   4.691
62780W        W30998  23.603  12.258   2.734
62781W        W30999  17.538   0.315   2.871
62782W        W31000  29.883   3.367  14.112
62783W        W31001  34.983  25.051   4.638
62784W        W31002  35.294  42.286  13.886
62785W        W31003   1.922  12.152   4.168
62786W        W31004  40.091  22.716  13.618
62787W        W31005   3.270   9.374  10.600
62788W        W31006  10.632  19.680   0.427
62789W        W31007  16.764  39.278   3.056
62790W        W31008  43.486   4.439   2.277
62791W        W31009  42.350  25.726   0.062
62792W        W31010  38.119  34.516  12.140
62793W        W31011  38.186  24.638  14.515
62794W        W31012  24.737  15.750   1.326
62795W        W31013  42.971   7.900  10.699
62796W        W31014  18.617   5.587   0.586
62797W        W31015  28.409  42.116  13.030
62798W        W31016  37.729   4.355   3.143
62799W        W31017  12.439  32.109   2.353
62800W        W31018  22.214  25.613   4.858
62801W        W31019  19.636  32.826  10.688
62802W        W31020  34.587  22.142   2.468
62803W        W31021  37.094  17.179   1.993
62804W        W31022   7.673  18.053  11.515
62805W        W31023  39.932  24.311  13.530
62806W        W31024  27.927  30.707  10.763
62807W        W31025  24.408  25.424   2.695
62808W        W31026  30.755  28.997  11.678
62809W        W31027  38.025  44.329   2.730
62810W        W31028   8.894   1.392  12.959
62811W        W31029  36.854  40.579  11.953
62812W        W31030   4.226  39.744  14.877
62813W        W31031  42.988  36.653   2.230
62814W        W31032  23.168   4.901  10.280
62815W        W31033  40.472  41.584   3.671
62816W        W31034  37.557  27.223  13.858
62817W        W31035  13.739  22.888   1.290
62818W        W31036  14.827  19.087  14.751
62819W        W31037  39.807  34.649   1.822
62820W        W31038  41.427  41.788   4.591
62821W        W31039   5.269  24.742  12.057
62822W        W31040  26.453  37.897  13.998
62823W        W31041   7.347  21.944   1.705
62824W        W31042  40.774  28.702  10.652
62825W        W31043  11.328  13.662   1.132
62826W        W31044   4.727  21.543  12.959
62827W        W31045  28.895  20.568  12.123
62828W        W31046  14.022   2.698  10.678
62829W        W31047  22.998  14.799   0.484
62830W        W31048   0.836  32.904  11.826
62831W        W31049  43.484  24.596   4.897
62832W        W31050   6.762  17.828  14.433
62833W        W31051  40.413  33.678   4.176
62834W        W31052  22.329  24.461  11.070
62835W        W31053  30.466  15.190   0.044
62836W        W31054  19.003   5.743  12.007
62837W        W31055  26.171  14.318  14.733
62838W        W31056  44.398  10.715   2.876
62839W        W31057   9.310  12.033   2.701
62840W        W31058  15.159   6.253  14.373
62841W        W31059   9.107  28.711  14.320
62842W        W31060  22.534   0.464   3.672
62843W        W31061  30.338  34.298  14.889
62844W        W31062  18.583  29.551  14.824
62845W        W31063  22.723  12.888  10.726
62846W        W31064  44.373   5.059  10.790
62847W        W31065  18.264   0.833   3.796
62848W        W31066   7.833  38.997  13.024
62849W        W31067  29.248  31.954  11.175
62850W        W31068  24.745  25.186  11.633
62851W        W31069  42.523  35.444   3.215
62852W        W31070  43.004   9.991   1.354
62853W        W31071  38.517   5.264   5.047
62854W        W31072  31.933   2.743   2.233
62855W        W31073   7.668   6.356   4.582
62856W        W31074  37.593  43.909   0.654
62857W        W31075  33.635   4.232  10.793
62858W        W31076  12.720  18.643  10.642
62859W        W31077  19.567  21.460   3.763
62860W        W31078  38.333   7.086   3.303
62861W        W31079  43.830  29.540   1.219
62862W        W31080  16.653  30.200   1.471
62863W        W31081   3.049  41.074  14.419
62864W        W31082  11.123   8.244   4.448
62865W        W31083  23.668  33.344   1.376
62866W        W31084  30.160  25.107  14.506
62867W        W31085  33.947   8.109   3.556
62868W        W31086  31.643  31.173  12.963
62869W        W31087  35.952   1.976  11.525
62870W        W31088  27.924  34.535  14.196
62871W        W31089  37.274   6.413   2.166
62872W        W31090  24.584   0.713   1.475
62873W        W31091  41.895   1.894   0.070
62874W        W31092  11.873   4.152   2.162
62875W        W31093  35.894  22.058  12.140
62876W        W31094  16.724  26.947   3.104
62877W        W31095  10.130   0.522  11.165
62878W        W31096  42.815  20.441   2.850
62879W        W31097  37.105   1.908  11.714
62880W        W31098  33.088  16.364   1.393
62881W        W31099  34.174  26.389  13.029
62882W        W31100   8.139   8.648   5.035
62883W        W31101  16.307   2.929   3.408
62884W        W31102  19.018  29.743   2.198
62885W        W31103  27.552  35.538  10.622
62886W        W31104  30.406  11.318   1.430
62887W        W31105  17.652  24.184   3.678
62888W        W31106   8.959  11.965  12.864
62889W        W31107  15.049   9.315  10.747
62890W        W31108  25.168  10.203  14.893
62891W        W31109  22.232  20.464   1.798
62892W        W31110   2.372  24.733   2.275
62893W        W31111  28.595  24.547   2.624
62894W        W31112  21.254   3.406  14.538
62895W        W31113   9.823  10.456   4.662
62896W        W31114  11.214   1.985  14.377
62897W        W31115   5.430  44.237   1.439
62898W        W31116  13.419   6.334  13.925
62899W        W31117  16.370   1.607   0.978
62900W        W31118  37.423  41.367   2.706
62901W        W31119  34.020   3.844  11.673
62902W        W31120  32.662   5.851   3.661
62903W        W31121  42.293  23.637  13.901
62904W        W31122  38.409  20.659  14.323
62905W        W31123   5.749  35.893   4.335
62906W        W31124  38.800   6.052  11.596
62907W        W31125  28.425  32.587  12.007
62908W        W31126  37.539   9.923   3.631
62909W        W31127   3.684   4.714  12.260
62910W        W31128  12.413  43.841  13.014
62911W        W31129  37.900   0.149   4.707
62912W        W31130  34.950  35.052   0.837
62913W        W31131  31.411  17.405   0.958
62914W        W31132  43.525  14.985  10.739
62915W        W31133  38.407  34.481   1.973
62916W        W31134  33.520  22.710  12.597
62917W        W31135  11.710  44.868   9.686
62918W        W31136  15.111   8.460   4.140
62919W        W31137  13.789  21.473   0.376
62920W        W31138  35.333  25.908   1.701
62921W        W31139  32.472  22.984  14.993
62922W        W31140  39.894   4.839   1.078
62923W        W31141  22.721  40.360   2.246
62924W        W31142   0.877  33.058  12.783
62925W        W31143  19.011  32.470  11.899
62926W        W31144  27.420   2.267  11.572
62927W        W31145  13.642  21.945   1.440
62928W        W31146  20.256  34.326   3.640
62929W        W31147  44.460  19.231   0.815
62930W        W31148   0.671  31.132  11.600
62931W        W31149  39.012  37.661   3.895
62932W        W31150  42.587  43.463   3.743
62933W        W31151  18.138  35.920   3.609
62934W        W31152  20.738  27.121  14.673
62935W        W31153  33.366   2.932  10.540
62936W        W31154  22.282  41.495  14.746
62937W        W31155  39.914   1.339  12.424
62938W        W31156  35.884  16.542  14.927
62939W        W31157   9.910  28.146   3.175
62940W        W31158  33.548  21.419   4.136
62941W        W31159  40.510  13.717   0.665
62942W        W31160  43.767  24.582   2.367
62943W        W31161   8.262   2.902  14.469
62944W        W31162   6.868  30.891  13.400
62945W        W31163  22.709  13.157   4.644
62946W        W31164   2.800  34.680   1.705
62947W        W31165   3.255  14.220   1.440
62948W        W31166   6.130  10.407  12.838
62949W        W31167   1.684   0.447  11.144
62950W        W31168  13.902  15.371   0.914
62951W        W31169  41.645  43.408   4.028
62952W        W31170  22.983  19.552  11.738
62953W        W31171  13.380  43.071   2.452
62954W        W31172  35.827  12.650  12.524
62955W        W31173   9.638   1.763   1.335
62956W        W31174  22.457  43.341  11.907
62957W        W31175  17.485  23.503   0.788
62958W        W31176  11.927   4.367   0.347
62959W        W31177  42.215  24.117  11.576
62960W        W31178  34.556  24.891   1.958
62961W        W31179  22.993  10.465   4.778
62962W        W31180  13.327  30.119  13.267
62963W        W31181  33.816  17.285  10.659
62964W        W31182  28.426  23.260   3.809
62965W        W31183  23.164  25.685   4.147
62966W        W31184  34.571  29.583   4.331
62967W        W31185  43.964  17.049   3.587
62968W        W31186   2.454  20.113   4.213
62969W        W31187  34.825   2.769  10.574
62970W        W31188  40.332  22.172  13.127
62971W        W31189  19.717  35.226   0.161
62972W        W31190  15.904   8.160  10.697
62973W        W31191  26.689  40.963   0.914
62974W        W31192  14.337   1.939  12.561
62975W        W31193   5.208  41.720   0.232
62976W        W31194  34.957  28.548   4.043
62977W        W31195  27.694  40.564   4.524
62978W        W31196  41.348  27.468  11.125
62979W        W31197  10.849  20.634  13.060
62980W        W31198  38.005   8.841   3.345
62981W        W31199   5.452  41.922  12.211
62982W        W31200  17.769  21.638   4.158
62983W        W31201  36.366  15.934   2.211
62984W        W31202  13.746  11.779   4.743
62985W        W31203  25.892  28.159   1.190
62986W        W31204  41.079  35.420  11.667
62987W        W31205  38.038   8.844   2.234
62988W        W31206   9.164  39.319   1.325
62989W        W31207   2.432  23.511   4.593
62990W        W31208  30.151  30.622   0.964
62991W        W31209  34.768   4.455  10.064
62992W        W31210  37.923   1.361  12.573
62993W        W31211  44.371  44.289   5.110
62994W        W31212  19.858  13.982  14.480
62995W        W31213   0.994  26.411   3.755
62996W        W31214  28.648  10.046   4.957
62997W        W31215  16.882  21.817  13.549
62998W        W31216  28.801  39.508  14.748
62999W        W31217   9.405  18.418   0.081
63000W        W31218  34.979  30.183  14.493
63001W        W31219  43.525   1.233   3.891
63002W        W31220   4.256   5.750  12.865
63003W        W31221  11.239   1.371  13.113
63004W        W31222   1.613  33.429  12.323
63005W        W31223  35.396   0.959   0.908
63006W        W31224  20.376   4.287  13.091
63007W        W31225  38.612   5.754   2.849
63008W        W31226  20.489  39.227  13.908
63009W        W31227  18.760  17.583  13.021
63010W        W31228  24.092  11.628   3.682
63011W        W31229  16.216  36.082  11.190
63012W        W31230  21.291  15.080  12.545
63013W        W31231  37.403  11.819   2.917
63014W        W31232  23.069  21.592  12.222
63015W        W31233  17.254  13.350   3.645
63016W        W31234  27.947  38.620  10.105
63017W        W31235  27.092  12.086   2.816
63018W        W31236  11.843   6.156  11.121
63019W        W31237  17.529  14.307  12.187
63020W        W31238   2.496  19.099   4.697
63021W        W31239  27.156   6.206  10.649
63022W        W31240  31.898  14.057  14.086
63023W        W31241  29.398  17.778   1.385
63024W        W31242  40.928   6.437   3.789
63025W        W31243   0.443  24.007   1.291
63026W        W31244  24.081  38.195   1.920
63027W        W31245  34.902  31.156   4.040
63028W        W31246  20.988   2.223  11.110
63029W        W31247  20.820  43.737   0.290
63030W        W31248   4.933  42.757   3.850
63031W        W31249   6.749  38.915   4.387
63032W        W31250   1.759  15.353  13.349
63033W        W31251  12.816  28.076   3.898
63034W        W31252  26.616   3.849  13.855
63035W        W31253  31.088  10.998  11.542
63036W        W31254  36.902  36.620  13.557
63037W        W31255  34.382  14.689  12.573
63038W        W31256  20.329  26.207  12.191
63039W        W31257   1.857   8.835  14.852
63040W        W31258  17.824  12.995  13.531
63041W        W31259  18.555  43.452   3.434
63042W        W31260  18.749  22.475  11.560
63043W        W31261  27.638  28.126  10.601
63044W        W31262  23.747  19.935   3.182
63045W        W31263  34.689   1.307  10.440
63046W        W31264   4.769  28.205   0.753
63047W        W31265  27.686   9.841   0.529
63048W        W31266  44.424  23.175  11.644
63049W        W31267  36.529  31.407  13.441
63050W        W31268  15.915  32.057  13.964
63051W        W31269  44.010  17.293   0.902
63052W        W31270  41.254  32.588  11.169
63053W        W31271  10.456  31.152  11.597
63054W        W31272  11.743  23.764   4.457
63055W        W31273  34.939  10.622  14.240
63056W        W31274  25.990   0.978  11.610
63057W        W31275  15.189  17.086  10.648
63058W        W31276  39.974  35.197   4.699
63059W        W31277   7.147  42.795  14.471
63060W        W31278  23.125  17.334  13.426
63061W        W31279   0.361   7.829  13.346
63062W        W31280  14.796  12.132   1.900
63063W        W31281   0.774  12.507   4.545
63064W        W31282  30.026  16.239  12.935
63065W        W31283   4.367  10.160   4.141
63066W        W31284  17.710   4.148   4.151
63067W        W31285  29.201  35.523   3.801
63068W        W31286  41.045  16.380  11.541
63069W        W31287  33.894   7.626   2.680
63070W        W31288   9.637   9.458  14.552
63071W        W31289   9.324   2.070  11.193
63072W        W31290  31.563  19.938   3.817
63073W        W31291  14.306   8.416   4.861
63074W        W31292  24.527  26.969   4.773
63075W        W31293  28.972  13.777   2.191
63076W        W31294  31.998  28.194   0.830
63077W        W31295  21.899   0.561  12.109
63078W        W31296  24.028  15.373  11.929
63079W        W31297  32.822  27.323   1.305
63080W        W31298  23.272  34.370   2.394
63081W        W31299   6.292  30.132   1.929
63082W        W31300  13.776  18.275   0.445
63083W        W31301  21.870   3.470   0.725
63084W        W31302  43.249  35.523   3.857
63085W        W31303  26.033  30.423  14.817
63086W        W31304  38.603  43.536   0.094
63087W        W31305  22.241   1.314   4.560
63088W        W31306  11.652  17.241   1.309
63089W        W31307  38.970  27.131  13.799
63090W        W31308  28.386  10.274   4.572
63091W        W31309  18.686  15.018   0.296
63092W        W31310  38.707   2.246   4.686
63093W        W31311  19.021   1.375   0.484
63094W        W31312  11.178  26.388  11.475
63095W        W31313  44.366  20.784  11.618
63096W        W31314  37.074  34.941  13.905
63097W        W31315   9.401  28.077   4.203
63098W        W31316  13.844  34.838   2.870
63099W        W31317   0.049  37.992   0.392
63100W        W31318  22.280  25.942   1.375
63101W        W31319  32.577  35.412   4.565
63102W        W31320  27.208   4.380   2.310
63103W        W31321   6.676  10.410  13.924
63104W        W31322  21.618  13.662  11.521
63105W        W31323  12.572  12.153   2.158
63106W        W31324  25.306  39.957   2.283
63107W        W31325  25.621   1.866  12.624
63108W        W31326  41.793  30.462  10.681
63109W        W31327  11.647   2.387  12.014
63110W        W31328  44.943  43.021   3.545
63111W        W31329   1.282  14.068   3.380
63112W        W31330  24.537   9.343  12.922
63113W        W31331  19.595  18.224   0.660
63114W        W31332  42.030  21.597   0.289
63115W        W31333  27.244  27.952  11.537
63116W        W31334  41.572  10.697  14.810
63117W        W31335  41.334   4.394  14.086
63118W        W31336  36.082  18.648  13.436
63119W        W31337  25.504   8.740   2.864
63120W        W31338  18.976  19.998  13.094
63121W        W31339  12.793  37.933   2.489
63122W        W31340   0.364  23.678   3.441
63123W        W31341   4.845  20.109  11.560
63124W        W31342   3.327   2.775   4.308
63125W        W31343  28.914   9.779   3.369
63126W        W31344  37.096  32.906  13.284
63127W        W31345  12.757  23.778  12.031
63128W        W31346  30.755   3.637   3.112
63129W        W31347  33.049   7.757   3.914
63130W        W31348   5.899   3.393  10.965
63131W        W31349   8.109   2.408  14.379
63132W        W31350  14.285  28.120   2.891
63133W        W31351  22.739  31.578  11.081
63134W        W31352  28.666   5.318  12.827
63135W        W31353  20.752  42.029  11.707
63136W        W31354  10.302  25.107   1.474
63137W        W31355   8.405  35.690  13.981
63138W        W31356   4.876  20.253  12.977
63139W        W31357  25.704  39.451  10.357
63140W        W31358  31.782   3.000  12.524
63141W        W31359   2.840  20.243  12.328
63142W        W31360  34.000   8.482   1.377
63143W        W31361   3.676   3.864   1.021
63144W        W31362  39.949  42.969  12.802
63145W        W31363   6.889  34.993   4.852
63146W        W31364  17.122   2.294  11.166
63147W        W31365   6.677  24.461   3.768
63148W        W31366  37.376  30.986  11.622
63149W        W31367  39.759   7.830   1.056
63150W        W31368  22.125  22.771   0.240
63151W        W31369   5.774  33.501   4.174
63152W        W31370   4.407   9.416  10.605
63153W        W31371  13.367  37.443  11.602
63154W        W31372   3.753  29.994   1.525
63155W        W31373  35.136   0.799   1.967
63156W        W31374   4.876   9.629   1.247
63157W        W31375  19.152  20.954  13.042
63158W        W31376  37.022  34.080   2.070
63159W        W31377  23.972  27.797   3.879
63160W        W31378  31.730  32.659  11.906
63161W        W31379  19.881  39.525  13.200
63162W        W31380  24.675  25.546   4.029
63163W        W31381  18.676  33.216   0.974
63164W        W31382  30.353  34.567   2.683
63165W        W31383  33.190  11.419   0.970
63166W        W31384  11.367   6.678  11.418
63167W        W31385   2.757  39.584   3.689
63168W        W31386  24.082  11.266  12.262
63169W        W31387  38.594  27.834  13.401
63170W        W31388  31.889  23.596  14.880
63171W        W31389  31.494  23.825  12.423
63172W        W31390   4.942  29.340  14.677
63173W        W31391  24.174  16.359   3.395
63174W        W31392  40.999   8.711  11.224
63175W        W31393  24.715   8.448  14.452
63176W        W31394   5.196  40.877  11.063
63177W        W31395  15.816   6.005   1.698
63178W        W31396  18.791  43.763  11.108
63179W        W31397  10.209  35.349  14.799
63180W        W31398  18.757   2.307   1.949
63181W        W31399  19.111  28.671  10.576
63182W        W31400  14.696  28.928  11.673
63183W        W31401  23.761  28.100  10.933
63184W        W31402  26.917  42.308   3.757
63185W        W31403   6.115  10.778  11.822
63186W        W31404   0.404  26.535   3.156
63187W        W31405  13.543  22.108   0.885
63188W        W31406  22.575  14.880  14.705
63189W        W31407  39.289  17.564  13.111
63190W        W31408  31.343   0.402  14.520
63191W        W31409  22.740  28.980   0.191
63192W        W31410  43.207  35.477   4.527
63193W        W31411   1.260  17.422   1.309
63194W        W31412  39.859  42.963  14.090
63195W        W31413  11.556  44.039   1.276
63196W        W31414  44.472  24.179  11.133
63197W        W31415   9.739  26.631  13.169
63198W        W31416  43.785  43.857  11.443
63199W        W31417  44.796  18.136   3.210
63200W        W31418  43.488  10.090  14.285
63201W        W31419  39.848  13.607  14.450
63202W        W31420  17.095   5.110   2.341
63203W        W31421  16.162  27.932   1.946
63204W        W31422  25.015  37.566   1.470
63205W        W31423   5.168  12.109   1.827
63206W        W31424  12.071   1.718   3.366
63207W        W31425   4.117  12.195  11.734
63208W        W31426   5.858  32.362   2.563
63209W        W31427  16.398  10.712  14.819
63210W        W31428   5.804  41.813  13.477
63211W        W31429   3.246  17.354  13.991
63212W        W31430  20.133   9.381  13.900
63213W        W31431  33.526  42.887   3.087
63214W        W31432  16.123   6.665   3.157
63215W        W31433  28.103  17.242  12.635
63216W        W31434  10.203  27.368  13.678
63217W        W31435  16.588  12.917  12.069
63218W        W31436  19.575   0.465   0.901
63219W        W31437   3.853  29.117   3.258
63220W        W31438  25.698  22.223  12.464
63221W        W31439  35.044   2.542  12.845
63222W        W31440  35.727  17.637   3.250
63223W        W31441   2.429  24.658  11.883
63224W        W31442  31.449  27.133  12.051
63225W        W31443  43.573  34.595   0.309
63226W        W31444  30.196  21.995   1.337
63227W        W31445  40.779  34.457  14.785
63228W        W31446   6.313  16.611   0.618
63229W        W31447  20.357  19.480  12.446
63230W        W31448  40.015  38.077  11.151
63231W        W31449  27.017  20.304  10.611
63232W        W31450  16.546  22.387   3.423
63233W        W31451  27.099  31.814  11.843
63234W        W31452  24.695  30.209   2.012
63235W        W31453  18.518   0.195   2.774
63236W        W31454  10.891  40.539   4.162
63237W        W31455  29.111  12.173  11.119
63238W        W31456   4.342   3.709  13.531
63239W        W31457  10.440  26.599  13.362
63240W        W31458   3.487  13.827  12.424
63241W        W31459  23.686  35.055   0.988
63242W        W31460  25.527  20.279   3.884
63243W        W31461  21.024   4.237   1.489
63244W        W31462  18.086  16.052   4.545
63245W        W31463  27.168  33.849  13.471
63246W        W31464  12.317  26.228   2.637
63247W        W31465   3.456  44.938  10.495
63248W        W31466  42.743  43.686  11.459
63249W        W31467  22.439  12.102  12.417
63250W        W31468  23.650  25.970   4.526
63251W        W31469  33.433  25.957  12.558
63252W        W31470  35.053  42.275  13.370
63253W        W31471  34.056  31.445  11.148
63254W        W31472  16.366  24.619  12.618
63255W        W31473  31.665   6.652   1.516
63256W        W31474  26.117  12.729  13.812
63257W        W31475  24.068  38.942   1.497
63258W        W31476  19.893  15.283  14.447
63259W        W31477  16.902  12.199   3.224
63260W        W31478  31.910  10.928  11.572
63261W        W31479  36.597  39.960  13.953
63262W        W31480  19.098  11.689  12.514
63263W        W31481  24.008  17.565   0.384
63264W        W31482  13.937  40.102   0.646
63265W        W31483  26.552   5.467  12.529
63266W        W31484  32.091   2.272   2.344
63267W        W31485   8.415  11.728  12.049
63268W        W31486  25.813  39.231   4.325
63269W        W31487  19.207  19.616  10.908
63270W        W31488  31.399  21.770   1.888
63271W        W31489  34.519  23.051  11.985
63272W        W31490   7.190  24.605  14.434
63273W        W31491  42.187   5.411   2.103
63274W        W31492  41.437  37.021   4.655
63275W        W31493  30.359  31.484   3.129
63276W        W31494  25.906  11.795   3.619
63277W        W31495  27.546  13.069  13.249
63278W        W31496  20.255  37.765  13.963
63279W        W31497   2.494   4.301   0.028
63280W        W31498   5.773  24.921  13.352
63281W        W31499  24.447  28.150  14.881
63282W        W31500  27.909  14.145   2.772
63283W        W31501  16.188  35.834  14.302
63284W        W31502  35.088  30.146   0.742
63285W        W31503  35.445  12.189   4.656
63286W        W31504  27.584  15.521  13.377
63287W        W31505  16.489  26.445  13.301
63288W        W31506  12.980  12.520  11.548
63289W        W31507  13.137  36.757  11.159
63290W        W31508  27.029  16.248  11.785
63291W        W31509  15.298  38.986   3.254
63292W        W31510  43.847   2.716   4.683
63293W        W31511  18.614  30.075  11.238
63294W        W31512  30.216  25.681   1.076
63295W        W31513  27.494  19.218   3.170
63296W        W31514  27.207  25.308   3.250
63297W        W31515  18.083  34.447  12.094
63298W        W31516   1.370  12.410  10.556
63299W        W31517  22.816  36.984   3.263
63300W        W31518  27.417  29.679   1.239
63301W        W31519  16.196   8.574  10.834
63302W        W31520  28.636   5.565   0.761
63303W        W31521  34.859  30.083  10.495
63304W        W31522  12.311  41.803  13.792
63305W        W31523  11.735   4.589  14.886
63306W        W31524  23.935  27.517  13.900
63307W        W31525  22.553  39.809   2.748
63308W        W31526   9.732   3.724  12.831
63309W        W31527  23.216  29.181   0.304
63310W        W31528   8.133  42.864  12.825
63311W        W31529  42.506   6.680   1.445
63312W        W31530  42.001   0.463  11.264
63313W        W31531  22.456   2.506   2.242
63314W        W31532  20.299  35.601   3.185
63315W        W31533  24.698  16.192   3.102
63316W        W31534  34.246   3.510   9.833
63317W        W31535  30.124   4.791   1.590
63318W        W31536  23.466   1.954   0.074
63319W        W31537  35.812  19.590  14.613
63320W        W31538  37.582  34.560  12.983
63321W        W31539  43.057  30.665   4.615
63322W        W31540   5.078  40.390  11.237
63323W        W31541  29.315  38.998  11.068
63324W        W31542   5.997  31.940  10.716
63325W        W31543  32.152  18.109   3.321
63326W        W31544  37.771  31.463   3.433
63327W        W31545  19.127  21.660   1.805
63328W        W31546   4.310   2.959   0.881
63329W        W31547   2.593   8.588   9.938
63330W        W31548   9.065   8.369  13.971
63331W        W31549  19.108  35.080   2.109
63332W        W31550  31.977  40.792  13.887
63333W        W31551   4.431  27.728  11.895
63334W        W31552  44.237  34.465   4.394
63335W        W31553  39.455  40.354  12.092
63336W        W31554  36.365  41.304  12.954
63337W        W31555  24.140  41.872   3.143
63338W        W31556  23.246  22.183  10.592
63339W        W31557  16.649  31.869  12.605
63340W        W31558  36.921  44.293   0.873
63341W        W31559  31.441   7.434  13.765
63342W        W31560   4.214  22.028   4.528
63343W        W31561  39.135  31.607  14.322
63344W        W31562  14.192  34.562   0.579
63345W        W31563  17.337  34.090   0.714
63346W        W31564  16.702  40.108   2.639
63347W        W31565   5.324  40.075   4.980
63348W        W31566  11.300   0.460   0.500
63349W        W31567   2.901   7.169  12.691
63350W        W31568  34.817  14.220  11.499
63351W        W31569  43.557  22.608  12.278
63352W        W31570  33.657  29.632   0.345
63353W        W31571  22.886  36.791   5.102
63354W        W31572   8.123  42.872  14.221
63355W        W31573  29.094   3.904   1.579
63356W        W31574  44.414  44.016  12.430
63357W        W31575  33.959  27.021   1.904
63358W        W31576  40.783  24.044  10.422
63359W        W31577  25.205  29.147  11.522
63360W        W31578  13.257  38.593  12.408
63361W        W31579  34.125  41.776  14.145
63362W        W31580  21.448  23.247  12.234
63363W        W31581  25.620  37.864  11.631
63364W        W31582   3.452  40.876  11.126
63365W        W31583  26.990  23.625  10.264
63366W        W31584  19.531  23.195   3.329
63367W        W31585  28.982  11.104   4.125
63368W        W31586  14.108  27.470   3.703
63369W        W31587  34.614  43.517  13.058
63370W        W31588  17.019  11.084   4.059
63371W        W31589  28.025  25.607  14.217
63372W        W31590  36.487  24.529  14.832
63373W        W31591  44.827   7.363   2.727
63374W        W31592  15.544  35.958  11.760
63375W        W31593  11.630  27.149  13.565
63376W        W31594  12.682  36.158  13.830
63377W        W31595  43.546  37.038  14.842
63378W        W31596   4.484  33.397  13.513
63379W        W31597  32.085  19.839  14.070
63380W        W31598  22.992   3.343  12.927
63381W        W31599  19.861   5.304   4.779
63382W        W31600   0.224  21.626   4.691
63383W        W31601  11.225  38.421  13.388
63384W        W31602  23.202  17.285   3.304
63385W        W31603  13.381  26.093  13.969
63386W        W31604  14.120  14.663   2.756
63387W        W31605   8.901  39.364   1.770
63388W        W31606   2.484  40.358  13.896
63389W        W31607  41.803  12.277   2.283
63390W        W31608  31.570  11.649   1.247
63391W        W31609  20.237  29.946   0.397
63392W        W31610  41.332  25.439  12.265
63393W        W31611  32.639  20.755   4.667
63394W        W31612  20.301  19.066  12.123
63395W        W31613   1.427  39.442  13.439
63396W        W31614  31.634  44.193  14.985
63397W        W31615  31.903  11.428  11.692
63398W        W31616   1.438  35.573   3.337
63399W        W31617   5.448  33.117   2.879
63400W        W31618  29.484   2.016  11.263
63401W        W31619  11.299   5.878   1.765
63402W        W31620   2.834  38.267   3.324
63403W        W31621  16.165   7.903  13.360
63404W        W31622  26.374  27.486  12.475
63405W        W31623   1.990  21.743   1.837
63406W        W31624   1.715  17.216   1.895
63407W        W31625  36.298  12.324  12.040
63408W        W31626   5.625  42.482  12.681
63409W        W31627  16.903  20.251  14.344
63410W        W31628  44.282   4.828  11.651
63411W        W31629  35.540  29.884  13.119
63412W        W31630  36.420  25.707   4.322
63413W        W31631  38.024   0.522   3.373
63414W        W31632  15.558  36.949   1.356
63415W        W31633   1.379  40.173   1.553
63416W        W31634   8.684  30.187   4.842
63417W        W31635   1.017   1.398  13.944
63418W        W31636  18.166   1.048  14.971
63419W        W31637   2.946  16.084   3.859
63420W        W31638   5.434   4.066   1.815
63421W        W31639   3.824  28.596  14.520
63422W        W31640  42.541   9.285  11.732
63423W        W31641  18.796  39.356  10.839
63424W        W31642  23.936  14.294  12.109
63425W        W31643   5.151   9.292   4.149
63426W        W31644   6.432  20.260  14.538
63427W        W31645  37.757  25.159   0.874
63428W        W31646  40.015  28.748   2.414
63429W        W31647  19.975  29.230   2.863
63430W        W31648  36.930  24.751   9.784
63431W        W31649   1.045  41.266  11.962
63432W        W31650  29.939  43.419  11.747
63433W        W31651  30.536  24.771  11.214
63434W        W31652  12.041  10.100   2.610
63435W        W31653  25.225  11.228  14.741
63436W        W31654  38.019  21.011   2.470
63437W        W31655  32.456  20.796  11.407
63438W        W31656  15.193   6.405  10.781
63439W        W31657   7.150  16.589  14.742
63440W        W31658  25.033   5.828   2.671
63441W        W31659  36.843   3.240   3.687
63442W        W31660  44.973  11.854  14.801
63443W        W31661  39.590   4.398  14.513
63444W        W31662   5.757  44.954  12.562
63445W        W31663   0.006  29.234  12.025
63446W        W31664   5.268  15.678   3.652
63447W        W31665  35.112   4.278  12.481
63448W        W31666  23.134  16.610   2.141
63449W        W31667  29.610  12.390   0.360
63450W        W31668  31.616  24.669   3.733
63451W        W31669  31.951  30.034  13.520
63452W        W31670  34.842  44.466  14.973
63453W        W31671  25.413  22.113   1.268
63454W        W31672   6.096  36.807  11.606
63455W        W31673  39.049  11.993   1.559
63456W        W31674   0.077  12.240   3.293
63457W        W31675  15.974  44.054   1.284
63458W        W31676   1.070  21.414  14.883
63459W        W31677   8.218   1.888   0.302
63460W        W31678  41.689  43.559  12.606
63461W        W31679  15.681  35.791  14.145
63462W        W31680  41.375  30.930   1.714
63463W        W31681  18.556  41.099  12.077
63464W        W31682  19.101   7.969  13.166
63465W        W31683   0.931  15.729  14.496
63466W        W31684   1.720  19.209   3.594
63467W        W31685  44.307  14.771  11.166
63468W        W31686  26.078   7.388   3.245
63469W        W31687  35.421  41.801   0.897
63470W        W31688  43.266  19.237  10.796
63471W        W31689   4.654   0.026  14.354
63472W        W31690  37.307   0.177   0.975
63473W        W31691  30.569  10.432  11.160
63474W        W31692  23.734  34.203   5.389
63475W        W31693  34.866  20.693  14.731
63476W        W31694  21.724  11.706   1.011
63477W        W31695   0.181  13.356   4.563
63478W        W31696   2.846  24.983   5.236
63479W        W31697   6.194  12.810   0.718
63480W        W31698   8.950  13.869   2.695
63481W        W31699  35.672  15.255  11.169
63482W        W31700  12.429  14.262  14.826
63483W        W31701  18.856  42.835  12.866
63484W        W31702  18.671   5.335   3.460
63485W        W31703   9.209   0.612   3.388
63486W        W31704   9.700   4.094   3.727
63487W        W31705  31.661  18.238  12.268
63488W        W31706  42.055  10.858  13.374
63489W        W31707  41.299  24.641  11.913
63490W        W31708   4.061  12.824   1.594
63491W        W31709  34.296  32.234   1.914
63492W        W31710   1.471  41.418   2.473
63493W        W31711   6.303   7.624  11.158
63494W        W31712  20.283   1.817   3.638
63495W        W31713   3.008  30.177  13.602
63496W        W31714   7.753  32.621  14.432
63497W        W31715  15.226  23.686  14.429
63498W        W31716  32.053  15.051  13.972
63499W        W31717  29.664  21.316   0.012
63500W        W31718  12.143   8.166   4.470
63501W        W31719  21.657  36.871  10.246
63502W        W31720  40.614  24.070   3.937
63503W        W31721   8.244  23.017   4.408
63504W        W31722  12.748  41.064   3.618
63505W        W31723  42.298  14.105  12.084
63506W        W31724  10.489  32.109  14.299
63507W        W31725  26.680  42.038  13.029
63508W        W31726  44.798  26.869   5.079
63509W        W31727  40.216  27.946   4.474
63510W        W31728  31.439  17.807  14.472
63511W        W31729  37.380  11.616  12.408
63512W        W31730  16.600  42.684  14.691
63513W        W31731  39.804  13.175  12.272
63514W        W31732  34.624  26.933  14.798
63515W        W31733  36.880  12.822  10.273
63516W        W31734   5.726  40.023  11.898
63517W        W31735  37.350  42.789  12.456
63518W        W31736  28.414  41.908   2.339
63519W        W31737  11.868  25.220  10.378
63520W        W31738  22.511  41.863  11.970
63521W        W31739  30.064   0.348   0.939
63522W        W31740  34.939  17.556  11.528
63523W        W31741   5.452  10.326  12.345
63524W        W31742  11.544  14.448   2.354
63525W        W31743  29.158   7.729   1.308
63526W        W31744  37.486  42.525   3.379
63527W        W31745  26.053  33.757   4.525
63528W        W31746   2.427  18.551   0.945
63529W        W31747  32.500  32.145   4.219
63530W        W31748  29.187  13.033  14.099
63531W        W31749  16.058  11.454   3.473
63532W        W31750  29.084  40.285  14.227
63533W        W31751  26.592  31.827  11.658
63534W        W31752  44.285  29.915  11.161
63535W        W31753   7.275  22.461   1.655
63536W        W31754  20.883  19.881  13.601
63537W        W31755  25.710  35.917   0.475
63538W        W31756  30.933  30.962  13.453
63539W        W31757  41.815  43.048  12.414
63540W        W31758  39.640  33.381   0.520
63541W        W31759  34.906   8.473  13.842
63542W        W31760  37.830  14.149   1.669
63543W        W31761   4.519  31.501  11.560
63544W        W31762  27.699  18.542   2.613
63545W        W31763  17.971  10.800   2.198
63546W        W31764  24.705   8.815   3.982
63547W        W31765  27.960  34.828  12.458
63548W        W31766  28.391  40.469  10.718
63549W        W31767  29.012  40.837  14.248
63550W        W31768  14.721  43.233   0.367
63551W        W31769  25.211   3.263   0.482
63552W        W31770   3.450  29.460   1.835
63553W        W31771  30.128  38.981  13.831
63554W        W31772  13.311  24.547   3.220
63555W        W31773  43.765  30.076   3.564
63556W        W31774   4.254  27.161   1.306
63557W        W31775  40.667  23.036  12.872
63558W        W31776  23.641  36.940   4.431
63559W        W31777  33.552  13.589   1.234
63560W        W31778  42.944  34.866  10.884
63561W        W31779  11.144  21.142  13.080
63562W        W31780  39.481  14.259   4.616
63563W        W31781   5.889  39.714   1.402
63564W        W31782   9.530  35.916   0.891
63565W        W31783  31.335   3.390   4.181
63566W        W31784  29.699   4.662   0.319
63567W        W31785  41.767  32.515  14.267
63568W        W31786  33.602  25.693   0.372
63569W        W31787   8.373  28.210  10.653
63570W        W31788  41.009  26.659   2.829
63571W        W31789  15.737  39.364   4.725
63572W        W31790  19.021  38.231  11.025
63573W        W31791  44.732  13.860  14.898
63574W        W31792   0.629  20.625  12.064
63575W        W31793  28.201  24.522   3.693
63576W        W31794  33.000   1.286  11.196
63577W        W31795   0.061  23.089   1.747
63578W        W31796   1.726  25.605  14.531
63579W        W31797  33.959  12.154  11.824
63580W        W31798   4.751  21.555  11.493
63581W        W31799  28.502  23.428  12.017
63582W        W31800  13.174  18.038   1.880
63583W        W31801  44.503  28.168  13.369
63584W        W31802  13.838  19.758  11.005
63585W        W31803  29.911  24.478  12.984
63586W        W31804   8.319  11.198   3.395
63587W        W31805  43.031  41.056  12.270
63588W        W31806   0.128  39.573  12.848
63589W        W31807   0.764  43.404  12.387
63590W        W31808  24.744  37.553  14.700
63591W        W31809  28.891   8.192  13.585
63592W        W31810  31.286   0.183  10.998
63593W        W31811   6.914   7.799   1.236
63594W        W31812   8.906   1.357   0.416
63595W        W31813  21.646  17.979  13.234
63596W        W31814  23.964  17.756  10.747
63597W        W31815  38.597  26.685  11.441
63598W        W31816   7.802  38.398  13.623
63599W        W31817  17.721  22.748   0.459
63600W        W31818   5.636  41.109   1.878
63601W        W31819  36.303  21.170  12.920
63602W        W31820  16.841  19.843  10.883
63603W        W31821  24.069  27.483   2.910
63604W        W31822  12.657  43.013   2.920
63605W        W31823  43.893  39.035  10.704
63606W        W31824   6.130  23.584   0.455
63607W        W31825   8.730  27.578  14.762
63608W        W31826  24.764  22.327   3.670
63609W        W31827  39.043  20.006  13.847
63610W        W31828  12.728   5.391  14.021
63611W        W31829  44.802   1.224  13.390
63612W        W31830  44.575  21.242  11.545
63613W        W31831   6.868  38.851   1.699
63614W        W31832  42.863   9.892  12.732
63615W        W31833  38.278  37.922   3.420
63616W        W31834  12.653  39.618   4.381
63617W        W31835  33.457  14.883   4.288
63618W        W31836  24.479  24.146   2.829
63619W        W31837   6.261  16.626   1.614
63620W        W31838  44.000  12.664   4.371
63621W        W31839  41.309   0.480   0.907
63622W        W31840   9.696  25.081   2.350
63623W        W31841  28.226  23.023   3.185
63624W        W31842  38.303  12.620  12.410
63625W        W31843  42.530  14.117   4.729
63626W        W31844   9.909  32.067   2.313
63627W        W31845  32.562  23.533  11.834
63628W        W31846  19.439  26.425   0.536
63629W        W31847  19.714   6.130  12.961
63630W        W31848   5.879   7.479  13.661
63631W        W31849  43.007  35.597  14.084
63632W        W31850  33.803  12.307   4.962
63633W        W31851  39.323  10.118   4.224
63634W        W31852   0.552  14.789  11.467
63635W        W31853   9.257  21.243   0.739
63636W        W31854  26.012   8.603  11.588
63637W        W31855  16.954   2.168  12.438
63638W        W31856  12.388   3.533   4.063
63639W        W31857  14.753  24.498  13.948
63640W        W31858  20.317   2.916   2.139
63641W        W31859  33.571  31.457  10.993
63642W        W31860   4.209   2.524  12.710
63643W        W31861  32.907  30.688  14.393
63644W        W31862  23.228   0.964  14.347
63645W        W31863   5.886  33.475  13.886
63646W        W31864  40.856  19.315   2.377
63647W        W31865  32.356  39.522  12.917
63648W        W31866  25.445  11.791   1.814
63649W        W31867  37.661  34.406   0.942
63650W        W31868  43.071   2.844  13.634
63651W        W31869  31.374  22.046  13.962
63652W        W31870  40.778  33.334  10.993
63653W        W31871  22.524  28.319  14.585
63654W        W31872  44.875  36.386   0.912
63655W        W31873   1.936  20.254   0.680
63656W        W31874  32.046  43.290  14.185
63657W        W31875  11.696  16.819  14.324
63658W        W31876  43.154  40.889  12.755
63659W        W31877  39.304  39.413   4.115
63660W        W31878  32.941   6.261  14.926
63661W        W31879   8.900  42.154  13.506
63662W        W31880  23.585  44.532   1.908
63663W        W31881  30.624  11.334  10.654
63664W        W31882   4.890  39.196   2.371
63665W        W31883   5.681  32.226   0.256
63666W        W31884  22.226   6.139   2.642
63667W        W31885  17.648   3.637   4.125
63668W        W31886  42.113  10.256  12.080
63669W        W31887  40.453  37.109   4.595
63670W        W31888   9.976  15.758   1.804
63671W        W31889  37.444  37.086   2.644
63672W        W31890  13.144  31.409   1.900
63673W        W31891  13.338  19.085   3.314
63674W        W31892  35.301  41.602   1.426
63675W        W31893  30.650  13.231   2.430
63676W        W31894   1.024   3.364   1.852
63677W        W31895  41.887   1.179  10.774
63678W        W31896  38.273  43.884   3.672
63679W        W31897  22.479  28.036   4.143
63680W        W31898  35.262   9.207   2.804
63681W        W31899  43.727  21.563   4.192
63682W        W31900   9.974  10.163  13.631
63683W        W31901  20.037   6.191   4.141
63684W        W31902  42.976  23.161  13.543
63685W        W31903  33.424   8.313   4.660
63686W        W31904  41.297   3.951   0.401
63687W        W31905   5.650   9.803   0.829
63688W        W31906  28.415  44.470   0.868
63689W        W31907  38.206  13.966  11.949
63690W        W31908   8.632   1.001  12.671
63691W        W31909  25.262  35.240  10.829
63692W        W31910  30.542  35.310  13.280
63693W        W31911  17.860  37.077  10.376
63694W        W31912  17.143   4.207   1.145
63695W        W31913  19.599  34.068   0.838
63696W        W31914   7.245   0.047  12.956
63697W        W31915  23.729  13.280   1.240
63698W        W31916   8.986  32.969   3.835
63699W        W31917  40.108  19.568   4.163
63700W        W31918  37.788  16.147  10.968
63701W        W31919   6.227   3.666  12.484
63702W        W31920   2.756  31.897  14.436
63703W        W31921  13.919   1.846   2.332
63704W        W31922   4.586  18.895   4.799
63705W        W31923  40.366  14.153   3.565
63706W        W31924  38.279  25.691  12.638
63707W        W31925  39.956   8.245   0.761
63708W        W31926  11.283  38.800   2.669
63709W        W31927  21.816  32.683  11.481
63710W        W31928   1.735   6.353   0.538
63711W        W31929  18.037  30.991   4.732
63712W        W31930  14.863  14.226   1.956
63713W        W31931   0.075   5.829  11.080
63714W        W31932  25.688  32.272   0.752
63715W        W31933  33.321  19.889  11.054
63716W        W31934  24.522  42.749   0.031
63717W        W31935  20.764  42.343   2.950
63718W        W31936  13.591  42.430   3.908
63719W        W31937  27.160  22.265  12.489
63720W        W31938  36.840   1.446  13.456
63721W        W31939  23.101  33.587  10.528
63722W        W31940  31.452  29.518  12.964
63723W        W31941  40.746  31.562  10.708
63724W        W31942   4.450  16.927  13.193
63725W        W31943  33.345  21.777  13.405
63726W        W31944  27.397  16.605  14.928
63727W        W31945  29.479  11.622  10.784
63728W        W31946   5.307  13.303  14.926
63729W        W31947  35.068  34.303   0.383
63730W        W31948  31.464  35.984  12.164
63731W        W31949  40.921   1.713   0.449
63732W        W31950  27.365  40.328   2.848
63733W        W31951  40.399  22.748   4.604
63734W        W31952  14.553  37.017  13.460
63735W        W31953  14.083  21.087  13.558
63736W        W31954  35.310  21.239  10.682
63737W        W31955  12.759  38.088  13.607
63738W        W31956  20.256  17.280  11.080
63739W        W31957  30.730  39.577   1.812
63740W        W31958  42.353  16.589   2.331
63741W        W31959  14.513  10.135  12.508
63742W        W31960   0.223  15.644   0.926
63743W        W31961  17.783  43.303   1.482
63744W        W31962  21.719  25.989  10.594
63745W        W31963  36.331  18.883   0.207
63746W        W31964  17.464  26.018   1.089
63747W        W31965  20.789  14.363  14.248
63748W        W31966   2.308  44.491   4.732
63749W        W31967  39.624   2.613  11.233
63750W        W31968  15.400  39.699   3.826
63751W        W31969  34.106   2.513  12.425
63752W        W31970  42.711  10.651  14.043
63753W        W31971  33.035  42.574   1.769
63754W        W31972  25.138  37.346   2.362
63755W        W31973  43.777  20.715   1.806
63756W        W31974  15.801  37.943   4.815
63757W        W31975  44.851   8.406  14.772
63758W        W31976  22.334  21.408   1.653
63759W        W31977  33.952  34.086   2.787
63760W        W31978   5.357  11.403  12.835
63761W        W31979   8.116   0.813  13.435
63762W        W31980  33.924  18.895  11.164
63763W        W31981  42.045   3.860   4.775
63764W        W31982  31.407   0.784   2.662
63765W        W31983  41.021  29.527   3.726
63766W        W31984  34.178  16.188   0.374
63767W        W31985  20.068  14.751  12.378
63768W        W31986  34.709  33.964   1.332
63769W        W31987  14.734  37.811   0.428
63770W        W31988  44.985   0.733   3.219
63771W        W31989  10.262   7.395   1.355
63772W        W31990   4.528  19.162  14.475
63773W        W31991  28.072  21.704  11.689
63774W        W31992  34.811   0.740   1.574
63775W        W31993  23.661   1.691   4.411
63776W        W31994  30.485  24.749  13.866
63777W        W31995  18.411  26.170   4.619
63778W        W31996  16.695  19.557   1.962
63779W        W31997  32.478  24.915   2.925
63780W        W31998  20.248  43.308   1.352
63781W        W31999  41.308  29.870   4.276
63782W        W32000  15.301   1.503   3.746
63783W        W32001  19.114  40.322   0.878
63784W        W32002   1.730  14.379   0.739
63785W        W32003  13.421   7.296   1.233
63786W        W32004  42.266  37.962   3.404
63787W        W32005  24.875  18.377   9.701
63788W        W32006  25.751  20.575  11.114
63789W        W32007  38.075  34.004  12.509
63790W        W32008  38.576  40.477   3.710
63791W        W32009  31.303  29.929   4.381
63792W        W32010  12.327  35.437   1.774
63793W        W32011   0.148  23.425   3.858
63794W        W32012  30.166   0.193   3.649
63795W        W32013   1.004   4.351  12.701
63796W        W32014   4.995  14.561   0.453
63797W        W32015  33.005   0.472  14.373
63798W        W32016   4.643  20.672  11.678
63799W        W32017  41.402  12.993   0.360
63800W        W32018   2.389  12.033  14.427
63801W        W32019  28.841   3.989   3.469
63802W        W32020   6.188  23.962  11.365
63803W        W32021   5.803  24.249   1.804
63804W        W32022  27.074  32.101  13.880
63805W        W32023  43.941  21.204   3.898
63806W        W32024  35.663  18.778   4.801
63807W        W32025  22.731  32.001  13.359
63808W        W32026  10.446   1.771   2.687
63809W        W32027  41.551  29.177   2.225
63810W        W32028  34.509   5.764  11.893
63811W        W32029  22.187  40.732   1.345
63812W        W32030  38.362   7.458  13.798
63813W        W32031  30.030   6.735  10.949
63814W        W32032  43.300  18.597   1.743
63815W        W32033  14.879  31.309  13.570
63816W        W32034  42.341  37.589   0.869
63817W        W32035   0.790  21.633  14.436
63818W        W32036  18.075  17.327   1.232
63819W        W32037  17.335   3.201   4.158
63820W        W32038  25.919  10.444   3.712
63821W        W32039  15.575  18.663   4.118
63822W        W32040  31.846   7.178   4.861
63823W        W32041  20.700  12.570  11.471
63824W        W32042  36.247  18.045  11.122
63825W        W32043  11.610  21.790  11.133
63826W        W32044  29.618   3.278  12.898
63827W        W32045  32.121  21.421  12.529
63828W        W32046   6.677  40.084  14.282
63829W        W32047  18.846  33.477   4.312
63830W        W32048  18.289  26.686   4.669
63831W        W32049   9.726  31.703   1.911
63832W        W32050  28.614   1.725   3.414
63833W        W32051   6.800  35.375   3.700
63834W        W32052  24.750   8.910   3.492
63835W        W32053  26.941   7.238  11.718
63836W        W32054  20.310  29.060  11.061
63837W        W32055  35.038  31.660  13.437
63838W        W32056  31.056   0.874  12.517
63839W        W32057  18.020  44.674   1.898
63840W        W32058  23.448  18.182   3.603
63841W        W32059  25.925  34.682   0.662
63842W        W32060  12.596   6.747   2.271
63843W        W32061  29.173  34.835   1.452
63844W        W32062  31.185  41.074   2.608
63845W        W32063  29.896  31.805  12.568
63846W        W32064  29.421   7.889   1.753
63847W        W32065  12.380  39.466   0.836
63848W        W32066  20.227  22.341   1.233
63849W        W32067  23.424  31.566  10.659
63850W        W32068  39.014  31.548   1.832
63851W        W32069   0.556   6.471   2.868
63852W        W32070  43.459  38.330   0.892
63853W        W32071   1.192  15.215  11.573
63854W        W32072  19.088  29.480  13.049
63855W        W32073  44.436  29.382  11.238
63856W        W32074   5.159  44.865  11.930
63857W        W32075   1.863  14.271  11.524
63858W        W32076  42.008   2.983  11.978
63859W        W32077  42.502  33.119  14.382
63860W        W32078  34.481  19.163   2.726
63861W        W32079  11.335  16.202  10.549
63862W        W32080   9.710  42.464  11.620
63863W        W32081  11.671  26.395  11.373
63864W        W32082  20.963  24.317   4.989
63865W        W32083  39.057   9.822  11.180
63866W        W32084  12.172  23.712  10.773
63867W        W32085  29.924  21.780  13.285
63868W        W32086  14.117   5.496  13.320
63869W        W32087  35.147  16.787   3.742
63870W        W32088  17.782   2.074  13.477
63871W        W32089  30.590  42.222  12.547
63872W        W32090  38.569   5.178   0.657
63873W        W32091  35.956  31.140   0.354
63874W        W32092  38.912   9.958  12.526
63875W        W32093  33.823  44.300   0.906
63876W        W32094  11.885  19.554  13.973
63877W        W32095  24.623  19.393  11.875
63878W        W32096  42.697  21.634   4.151
63879W        W32097   6.237  17.274  11.518
63880W        W32098  26.223  35.277  11.014
63881W        W32099  24.114  44.825   1.764
63882W        W32100  17.593   5.914  12.176
63883W        W32101  39.813  18.940  10.996
63884W        W32102  12.168  21.154   3.297
63885W        W32103  12.030   3.863   3.170
63886W        W32104   3.806  36.485   3.207
63887W        W32105  24.105   6.801  13.791
63888W        W32106   1.462  42.303  12.922
63889W        W32107   1.160  16.259  10.546
63890W        W32108  39.508  38.385  11.612
63891W        W32109  17.625  25.951   0.591
63892W        W32110  31.433  44.796   2.985
63893W        W32111  10.676   6.623   2.824
63894W        W32112   5.423  16.821   1.229
63895W        W32113  35.898  13.744   2.452
63896W        W32114  33.953  34.887   0.519
63897W        W32115  30.684  27.618  11.986
63898W        W32116  31.486  40.649   2.487
63899W        W32117  12.780  18.651   1.350
63900W        W32118  12.264  28.158   2.743
63901W        W32119  34.632   3.285  10.630
63902W        W32120  28.081   7.915   4.868
63903W        W32121  38.021  29.597   2.931
63904W        W32122  13.621  43.815   0.671
63905W        W32123  20.262  10.885  12.080
63906W        W32124  24.067  11.711   2.710
63907W        W32125  38.843  26.910   4.138
63908W        W32126  43.003  22.862  10.434
63909W        W32127  42.466  32.426  11.738
63910W        W32128  22.175  20.528  10.361
63911W        W32129   0.211  15.331   0.185
63912W        W32130  41.833  20.039  13.971
63913W        W32131  28.072  33.694  13.880
63914W        W32132  25.996  44.116   0.887
63915W        W32133   4.443  17.640   0.849
63916W        W32134  23.502  10.575  12.607
63917W        W32135  40.530  21.183  13.394
63918W        W32136  31.996  13.786   0.971
63919W        W32137   2.859   5.226   4.635
63920W        W32138  29.581  19.970  12.160
63921W        W32139  15.553   5.696   3.700
63922W        W32140  41.852  29.741  13.424
63923W        W32141  33.199  31.436   5.011
63924W        W32142  33.459  36.124  11.016
63925W        W32143  23.005  43.302   3.319
63926W        W32144  27.785  15.058   1.679
63927W        W32145  27.671  38.129  10.725
63928W        W32146   3.742  26.426   4.583
63929W        W32147   8.309  19.681   2.069
63930W        W32148  26.269   1.781  11.944
63931W        W32149  38.333  17.266  11.593
63932W        W32150  33.312  42.930   1.140
63933W        W32151   2.822  39.903   0.915
63934W        W32152   1.315  11.202   4.896
63935W        W32153  14.229  33.166   0.918
63936W        W32154  32.965  16.169  13.977
63937W        W32155   6.911  35.949  12.028
63938W        W32156  11.285  19.074  11.979
63939W        W32157  28.730  33.409   2.829
63940W        W32158  26.245   4.755  12.880
63941W        W32159   1.492   4.470   0.260
63942W        W32160  43.744  10.171   1.405
63943W        W32161   3.177  11.914   3.365
63944W        W32162  16.699  34.564   2.084
63945W        W32163   7.928  19.424  10.923
63946W        W32164  37.265  25.000   0.960
63947W        W32165  32.958   5.796  10.895
63948W        W32166  39.520  38.908  12.303
63949W        W32167  37.053  22.484  12.520
63950W        W32168   4.937  16.815   3.356
63951W        W32169   8.370  30.285  13.042
63952W        W32170  32.633  18.612  11.630
63953W        W32171   9.855  36.021   4.600
63954W        W32172   9.226  32.319  13.635
63955W        W32173  40.116  19.071  12.788
63956W        W32174  19.264  20.491  14.351
63957W        W32175   9.393  31.552  11.021
63958W        W32176  33.850  14.960   3.532
63959W        W32177  42.476  38.131   1.699
63960W        W32178  33.823   0.847   2.003
63961W        W32179  32.074   2.400   0.431
63962W        W32180   7.745   3.754  13.844
63963W        W32181  42.548  16.273   3.173
63964W        W32182  24.364  21.550  10.025
63965W        W32183  35.517   3.325  13.355
63966W        W32184  37.374  16.214  12.523
63967W        W32185   2.036  31.870  12.126
63968W        W32186   6.833  39.259  11.174
63969W        W32187  11.863  17.727   1.228
63970W        W32188  33.959   5.180   3.151
63971W        W32189   3.193  28.512   4.795
63972W        W32190   1.574  34.066   2.622
63973W        W32191  36.812  10.145   4.542
63974W        W32192   0.711  16.190  14.439
63975W        W32193  18.263   9.276  13.857
63976W        W32194  39.709   0.409  12.486
63977W        W32195  22.459   3.811  14.480
63978W        W32196  44.228  28.955  11.595
63979W        W32197  35.782  19.169   4.142
63980W        W32198   5.760  33.803  14.284
63981W        W32199  42.639  31.879  11.154
63982W        W32200  11.341   1.419  11.621
63983W        W32201  33.564   4.340   3.781
63984W        W32202  41.362  25.801   2.672
63985W        W32203  30.794  43.727  13.761
63986W        W32204  43.376  32.835   3.664
63987W        W32205  26.449  28.247   5.133
63988W        W32206  21.382  43.884  11.610
63989W        W32207  32.908  17.632   3.065
63990W        W32208  22.027   5.399  10.741
63991W        W32209  13.965   6.511   0.949
63992W        W32210   3.338   9.993   1.945
63993W        W32211  31.666  31.519   4.164
63994W        W32212  39.874  23.172  11.421
63995W        W32213  36.328  25.038   0.747
63996W        W32214   1.813  42.248  13.406
63997W        W32215  41.984  18.287  12.752
63998W        W32216  43.808  12.887   3.205
63999W        W32217  44.336  42.051   0.073
64000W        W32218   5.817   3.895  10.499
64001W        W32219  37.043  16.784   0.677
64002W        W32220  40.556   9.960  12.923
64003W        W32221  28.699  18.089  12.316
64004W        W32222  23.748  14.969   4.226
64005W        W32223   9.170  13.315   1.856
64006W        W32224   6.018  26.125  13.887
64007W        W32225  19.347   9.779  13.582
64008W        W32226  18.558  38.904  12.645
64009W        W32227   0.882  44.522   3.809
64010W        W32228  31.641  13.211  11.037
64011W        W32229  35.398  44.848   2.639
64012W        W32230  35.140  28.066  12.637
64013W        W32231  24.271  29.240   3.326
64014W        W32232  43.812  35.040  11.385
64015W        W32233  15.905  20.019  14.531
64016W        W32234  22.023  25.309   0.328
64017W        W32235  18.519   5.685   2.842
64018W        W32236  21.565  38.006   3.960
64019W        W32237  14.114   5.943  11.093
64020W        W32238  25.233   5.223   3.329
64021W        W32239  37.101  39.965  14.067
64022W        W32240  37.468   3.434  14.298
64023W        W32241  27.895  18.094   3.735
64024W        W32242  13.128  13.686  14.209
64025W        W32243  36.942  17.332  13.865
64026W        W32244  44.488  26.725  13.876
64027W        W32245  27.669  20.668  11.133
64028W        W32246   5.836  15.557   2.508
64029W        W32247   3.936   4.847  10.796
64030W        W32248   3.801  29.099  11.914
64031W        W32249   8.936  43.018   1.432
64032W        W32250   4.707  26.553  14.024
64033W        W32251   1.623   0.861   1.318
64034W        W32252  15.086  15.769   2.382
64035W        W32253   4.733  44.691   3.351
64036W        W32254  33.596  35.197   0.316
64037W        W32255  12.188  16.297   1.374
64038W        W32256  28.350  39.474   2.308
64039W        W32257  31.990  13.252  10.649
64040W        W32258  26.239  15.871  11.650
64041W        W32259  20.156  13.836  11.511
64042W        W32260  29.211  42.772   2.280
64043W        W32261  12.678  27.029   1.466
64044W        W32262  34.107  25.368   3.171
64045W        W32263  26.030  28.979  14.798
64046W        W32264  28.405  44.930   3.223
64047W        W32265  12.333  16.127  10.346
64048W        W32266   5.445  23.075   2.402
64049W        W32267  23.612  38.764   4.807
64050W        W32268  43.057  31.986   1.455
64051W        W32269  39.730  42.952  12.339
64052W        W32270  29.628  11.663   3.564
64053W        W32271   8.054  30.822  13.898
64054W        W32272  19.744  25.709   1.702
64055W        W32273  14.290  31.777  12.938
64056W        W32274  42.817  40.943   0.012
64057W        W32275  37.772  10.557  13.740
64058W        W32276   7.802  37.621  12.527
64059W        W32277  33.864   0.919   4.580
64060W        W32278  16.345  44.991   3.224
64061W        W32279   9.580  17.511  14.938
64062W        W32280   9.764  40.424   0.225
64063W        W32281  17.246  27.538   0.378
64064W        W32282  11.229   4.309   3.219
64065W        W32283  35.824  22.020   0.474
64066W        W32284  26.078  29.582  11.171
64067W        W32285  30.705  34.985   2.664
64068W        W32286   0.451  17.697  12.677
64069W        W32287  38.025  19.469   2.762
64070W        W32288  35.479  12.424  14.697
64071W        W32289  28.988  35.424   4.265
64072W        W32290   0.184   7.851   0.542
64073W        W32291  27.974  15.262   4.439
64074W        W32292   4.233  32.977  14.399
64075W        W32293  41.502  36.395  14.236
64076W        W32294  35.583  42.316   4.291
64077W        W32295  30.888  29.266   0.870
64078W        W32296  31.497  36.324   0.447
64079W        W32297  40.473  43.341  12.647
64080W        W32298  33.947  39.773   3.487
64081W        W32299  21.390  42.739   1.760
64082W        W32300  40.393  32.974  10.730
64083W        W32301  20.223  21.605  13.983
64084W        W32302  14.539   5.648   3.967
64085W        W32303   6.717  23.536   1.332
64086W        W32304  15.787   0.442  11.721
64087W        W32305  36.296  14.631   4.232
64088W        W32306  11.578   7.032  11.825
64089W        W32307  16.686  39.372   4.085
64090W        W32308  23.709  21.250  14.930
64091W        W32309  44.096  42.226   3.746
64092W        W32310  26.915  34.020   1.949
64093W        W32311  44.679  40.844  10.760
64094W        W32312  26.945  37.428   4.114
64095W        W32313  22.166  10.131   1.742
64096W        W32314  33.290  29.335  11.022
64097W        W32315   3.679  17.201  13.242
64098W        W32316  37.025  24.036  10.891
64099W        W32317  38.575  16.100  14.034
64100W        W32318  33.823  44.516   2.189
64101W        W32319  18.291  31.888  14.938
64102W        W32320  37.409  31.454  11.424
64103W        W32321  41.608  21.071   4.795
64104W        W32322  33.932  38.214  11.698
64105W        W32323  10.733  43.186   4.042
64106W        W32324  14.424   4.339   2.278
64107W        W32325  37.357  37.515   2.336
64108W        W32326  13.767  27.781  10.937
64109W        W32327  43.182  20.504   3.203
64110W        W32328   7.906  34.071  14.942
64111W        W32329  41.855   5.385  12.092
64112W        W32330   4.807   4.213   2.377
64113W        W32331  44.817   3.416   4.647
64114W        W32332  26.682  30.007   2.299
64115W        W32333   5.832  23.672  10.610
64116W        W32334  35.537  40.466   4.401
64117W        W32335  24.566   6.380  13.489
64118W        W32336  27.220  34.336   4.106
64119W        W32337   4.468   3.571   3.010
64120W        W32338  15.150  17.159   4.007
64121W        W32339  35.066  18.375  10.563
64122W        W32340   0.411  32.938  12.510
64123W        W32341  36.892  43.279  11.170
64124W        W32342  29.235   0.352  11.116
64125W        W32343   1.008   9.317  13.815
64126W        W32344  27.920  26.039   4.547
64127W        W32345   4.105  16.833   1.794
64128W        W32346   2.535  30.629   0.352
64129W        W32347  30.477  26.118  11.522
64130W        W32348  21.700   5.516  11.113
64131W        W32349  22.697  22.322   4.673
64132W        W32350  30.860  18.004  14.478
64133W        W32351  25.629  37.769   4.946
64134W        W32352   2.731  11.675  14.979
64135W        W32353  44.857   9.322  14.867
64136W        W32354  40.295   1.817  14.954
64137W        W32355  29.503  22.264   4.851
64138W        W32356  32.759  15.107  11.759
64139W        W32357  17.497  39.072   3.148
64140W        W32358  24.842   0.421   1.904
64141W        W32359  41.784   9.538   0.670
64142W        W32360   2.785   1.687  13.379
64143W        W32361  14.936  18.849   2.797
64144W        W32362   4.671  17.643   2.257
64145W        W32363  16.897  18.132  14.517
64146W        W32364   1.781  29.857   3.241
64147W        W32365   6.910   5.449  12.504
64148W        W32366  23.290  36.894  13.966
64149W        W32367  15.112  36.977  12.437
64150W        W32368  31.247  40.725  11.613
64151W        W32369  29.412  15.035   2.457
64152W        W32370   9.678  31.345   3.401
64153W        W32371   0.512  35.104  14.768
64154W        W32372  10.623  34.309   3.255
64155W        W32373  31.421   6.750   4.234
64156W        W32374  19.496  24.909  11.175
64157W        W32375  16.829   3.263   1.888
64158W        W32376  40.738  21.681  13.944
64159W        W32377  29.592  17.297  12.540
64160W        W32378   2.261  22.175   0.368
64161W        W32379   8.221  29.484   1.027
64162W        W32380  26.550   6.524   1.564
64163W        W32381   5.706   3.683  12.421
64164W        W32382  25.111  35.641  11.740
64165W        W32383  34.929   7.744   3.600
64166W        W32384  25.119  26.569  10.078
64167W        W32385  40.292   2.742  13.326
64168W        W32386  12.168  11.668   4.522
64169W        W32387  33.997  23.160  12.884
64170W        W32388   2.591  19.456   0.922
64171W        W32389  24.949   3.256  11.597
64172W        W32390   2.299   4.703  12.048
64173W        W32391  19.094  26.477   3.323
64174W        W32392   5.317   9.857  10.477
64175W        W32393  22.647  12.899   4.192
64176W        W32394  22.680  41.443   3.340
64177W        W32395  11.443   3.720  13.411
64178W        W32396  27.260  42.292  11.122
64179W        W32397  36.910  15.472   1.776
64180W        W32398  32.946  30.187   0.740
64181W        W32399  35.880  33.070  12.445
64182W        W32400  23.519  23.166   2.797
64183W        W32401  38.840  32.634  11.917
64184W        W32402  27.568  12.494  11.193
64185W        W32403   7.615  39.103   2.417
64186W        W32404   7.646  13.229   3.888
64187W        W32405   2.375   0.042  14.367
64188W        W32406   2.904  33.999   0.681
64189W        W32407  39.915  10.424  13.410
64190W        W32408  22.049  23.923   4.919
64191W        W32409  13.072  43.443  10.568
64192W        W32410   3.179  22.499  13.974
64193W        W32411  21.449   3.962   2.768
64194W        W32412  26.649   6.258  10.658
64195W        W32413  18.618   0.978  14.427
64196W        W32414  35.032  14.273  14.995
64197W        W32415  11.877  25.162   1.384
64198W        W32416  23.658  11.452   1.356
64199W        W32417  31.538   1.411   2.300
64200W        W32418  36.033  35.160  10.475
64201W        W32419  38.550   3.190  12.858
64202W        W32420   8.080   8.259  13.912
64203W        W32421   8.713  15.786   3.309
64204W        W32422  30.589  44.964   2.913
64205W        W32423   8.796  39.646  12.933
64206W        W32424  36.482  28.460  10.478
64207W        W32425  16.269  11.161   4.861
64208W        W32426  39.196   4.396   5.096
64209W        W32427  10.733  44.751  13.317
64210W        W32428  12.430  12.959  14.931
64211W        W32429  43.647  25.577   3.029
64212W        W32430  37.093  25.360  11.535
64213W        W32431  38.418   8.934  14.310
64214W        W32432   5.952  36.265  12.074
64215W        W32433  32.115  21.938  11.016
64216W        W32434  13.053   0.908   0.359
64217W        W32435  15.376  41.384   0.922
64218W        W32436  25.191  43.801  13.556
64219W        W32437  16.972  16.707   4.487
64220W        W32438  18.484  10.251  11.660
64221W        W32439  38.959  33.330  14.566
64222W        W32440   3.195  32.498  10.746
64223W        W32441   6.206  29.955   0.450
64224W        W32442   0.478   8.413  13.795
64225W        W32443  17.301  32.686  10.545
64226W        W32444  42.817  17.827   2.388
64227W        W32445  17.656   2.425   0.670
64228W        W32446  16.251  15.553   0.080
64229W        W32447  30.517  21.216   1.869
64230W        W32448  24.673  42.493   1.821
64231W        W32449  13.223  28.711  13.991
64232W        W32450  19.548  22.928  14.316
64233W        W32451  18.523  44.045   0.871
64234W        W32452  25.170   6.687   0.185
64235W        W32453  41.948  36.444  14.480
64236W        W32454  39.043  38.345  13.368
64237W        W32455  26.513  26.565  14.132
64238W        W32456  18.846  26.617  13.934
64239W        W32457   3.930   7.737   0.740
64240W        W32458  37.770  40.761   1.844
64241W        W32459  25.198  23.133  14.358
64242W        W32460   0.524  30.183  10.778
64243W        W32461   8.663   6.903   4.083
64244W        W32462  20.289   1.522   4.119
64245W        W32463  35.387  30.982  10.673
64246W        W32464   0.355   2.311   3.897
64247W        W32465  44.528  23.783  14.552
64248W        W32466  17.681  17.184  11.401
64249W        W32467  32.592  15.066  11.283
64250W        W32468   7.810  11.783   2.553
64251W        W32469  20.252  22.627  14.629
64252W        W32470  22.839  32.044  11.407
64253W        W32471   1.356  39.356  11.115
64254W        W32472   1.878   3.209  11.427
64255W        W32473  26.524  40.922   1.904
64256W        W32474  37.073  35.599   3.334
64257W        W32475  32.129  17.069  13.440
64258W        W32476  26.917  17.870   3.523
64259W        W32477  42.560   3.812   3.541
64260W        W32478  11.814  12.699  10.745
64261W        W32479  43.998  11.034   1.861
64262W        W32480   6.150  16.104  11.102
64263W        W32481  16.526  16.152  13.352
64264W        W32482  17.833  16.711   3.389
64265W        W32483   8.162  15.038   3.733
64266W        W32484  22.626  24.776  10.793
64267W        W32485  30.886  23.917  10.682
64268W        W32486  16.673  13.174   0.934
64269W        W32487   6.448  43.534  11.386
64270W        W32488  31.582  18.827   2.378
64271W        W32489  10.034  18.738  13.455
64272W        W32490  26.763  44.172   5.007
64273W        W32491   6.974  21.000   1.222
64274W        W32492  16.664  11.919  11.956
64275W        W32493  27.988  20.202  13.425
64276W        W32494  37.833  25.411  13.467
64277W        W32495   9.726   7.838  14.285
64278W        W32496  16.511   7.499  13.398
64279W        W32497  40.366  24.759   4.628
64280W        W32498  14.674   4.167   1.674
64281W        W32499  30.753  40.587   3.281
64282W        W32500  21.604  13.675  12.427
64283W        W32501  21.250  29.757  13.493
64284W        W32502   2.003  36.289   4.183
64285W        W32503  37.842  35.719  10.950
64286W        W32504  33.099  27.437  11.561
64287W        W32505  23.740   2.873  11.015
64288W        W32506  29.252  37.437  13.386
64289W        W32507   7.457  29.012   3.257
64290W        W32508   0.949  40.313   2.275
64291W        W32509   9.134  42.348  14.787
64292W        W32510  11.303  25.402   1.329
64293W        W32511  26.618  12.559   3.696
64294W        W32512  35.471   8.842  12.452
64295W        W32513  22.945  36.200  12.000
64296W        W32514   4.779  37.937  13.782
64297W        W32515   5.634  13.575   3.669
64298W        W32516   3.824  14.608   0.553
64299W        W32517  43.990  23.712   1.327
64300W        W32518  36.570   1.399   0.268
64301W        W32519  35.053  16.564  11.628
64302W        W32520  23.985   4.675   4.822
64303W        W32521   9.251  32.993  11.206
64304W        W32522   3.022  28.536   2.706
64305W        W32523  27.595  40.638   1.689
64306W        W32524   1.680  20.201   3.638
64307W        W32525   4.082  22.344   3.087
64308W        W32526   7.716  22.192  13.580
64309W        W32527  10.751  22.113  10.731
64310W        W32528  26.248  14.288  13.098
64311W        W32529  21.945  29.621  12.414
64312W        W32530  14.850  42.326  13.577
64313W        W32531  16.212  33.200   4.680
64314W        W32532   9.785  10.782  10.669
64315W        W32533  15.165  14.699   4.648
64316W        W32534  18.289  41.710  13.414
64317W        W32535   0.950   4.418  13.546
64318W        W32536   6.294  44.853   4.138
64319W        W32537  27.645  15.113   2.191
64320W        W32538  41.372  25.178   0.794
64321W        W32539   1.518  15.615   0.205
64322W        W32540  41.606   3.769   4.423
64323W        W32541  12.731   7.706   1.954
64324W        W32542   5.822  13.802   1.891
64325W        W32543   8.920  27.137   0.021
64326W        W32544  24.501  42.463  12.137
64327W        W32545  41.401  20.242   4.124
64328W        W32546  42.925  29.874  14.924
64329W        W32547  43.773   9.956  12.176
64330W        W32548  22.684  40.524   0.410
64331W        W32549  17.684  22.282   1.771
64332W        W32550  27.839  14.294   3.665
64333W        W32551   4.259  13.383   1.439
64334W        W32552  15.145  39.907  14.419
64335W        W32553   7.352  38.811   5.019
64336W        W32554   0.434   4.871  11.173
64337W        W32555  10.207  25.013   0.951
64338W        W32556  38.018  43.733   4.464
64339W        W32557  34.526   2.795   3.589
64340W        W32558  38.146   5.749  14.628
64341W        W32559  23.086  13.666   2.407
64342W        W32560  15.782  24.620   1.398
64343W        W32561   7.292   9.419  14.064
64344W        W32562  23.607  10.445   1.316
64345W        W32563  13.499  12.280  10.711
64346W        W32564  14.761  20.488   0.156
64347W        W32565  44.366  32.529   3.736
64348W        W32566   2.921  11.943   1.924
64349W        W32567  15.519   2.249  13.425
64350W        W32568   7.862  14.554   5.356
64351W        W32569  37.730  20.121  13.632
64352W        W32570   2.371  24.011   1.934
64353W        W32571  26.941   2.930   1.432
64354W        W32572  24.481  13.901  14.967
64355W        W32573   7.127  19.091   3.292
64356W        W32574  22.231  44.712   5.053
64357W        W32575  38.716  22.635   4.173
64358W        W32576   9.644  19.496   2.832
64359W        W32577  13.893  40.223  14.301
64360W        W32578  30.434  41.840   0.042
64361W        W32579  34.921   4.723   2.510
64362W        W32580  27.672   0.211   0.300
64363W        W32581  24.508   9.815  14.625
64364W        W32582  27.707  40.520   3.270
64365W        W32583   9.853  29.622  12.618
64366W        W32584  43.750   1.706   4.277
64367W        W32585  25.860  44.708   2.848
64368W        W32586  23.646  22.572  12.849
64369W        W32587  44.414   5.799  12.556
64370W        W32588   8.157  35.583  11.940
64371W        W32589  42.343  42.846  10.931
64372W        W32590  16.731  27.568   3.831
64373W        W32591  17.089  40.707   0.200
64374W        W32592  23.282   6.175  12.063
64375W        W32593  10.132  10.977   0.292
64376W        W32594  18.174  19.552  13.717
64377W        W32595  31.867   4.935   4.113
64378W        W32596  31.381  42.209  14.786
64379W        W32597  20.238   9.058   3.778
64380W        W32598  12.131   1.422   1.516
64381W        W32599  27.984   1.895  10.498
64382W        W32600  22.553  35.550  14.085
64383W        W32601  26.534  17.743  11.021
64384W        W32602  33.108  28.885  13.001
64385W        W32603  28.764  17.726  10.263
64386W        W32604  25.143   6.319  10.703
64387W        W32605   4.067  22.590  14.767
64388W        W32606  37.897  36.261  10.858
64389W        W32607  21.252  22.757  12.256
64390W        W32608  11.098  37.340  14.725
64391W        W32609   9.425  27.672   1.920
64392W        W32610  27.908  28.510  10.344
64393W        W32611  30.113  26.592   1.528
64394W        W32612  26.922  12.242  13.357
64395W        W32613  35.100   2.007  11.964
64396W        W32614  41.285  18.003  14.390
64397W        W32615  10.047  41.637  11.200
64398W        W32616   7.584  17.566  12.271
64399W        W32617  32.369  26.286   1.867
64400W        W32618  25.578  25.897  11.534
64401W        W32619  38.802  33.129  11.066
64402W        W32620  13.336  17.506  12.957
64403W        W32621   4.419  35.004  12.090
64404W        W32622  30.700   9.202  12.473
64405W        W32623  15.778  42.394   2.855
64406W        W32624  19.679  44.602  11.685
64407W        W32625  37.421   0.298   0.501
64408W        W32626   9.439  40.495   4.078
64409W        W32627   6.325  22.219  13.859
64410W        W32628  24.301  17.093  14.953
64411W        W32629  37.072  18.579  12.921
64412W        W32630   9.842   7.834  11.378
64413W        W32631   7.579  12.230   0.912
64414W        W32632   5.613  36.961  11.541
64415W        W32633  29.851  22.506  10.952
64416W        W32634   6.694  38.772  14.379
64417W        W32635   8.750  39.123  12.991
64418W        W32636  32.568  38.689  14.888
64419W        W32637   9.156  40.773  11.836
64420W        W32638  28.103  16.518  13.711
64421W        W32639  35.401  12.674   2.600
64422W        W32640   1.926  16.610   1.270
64423W        W32641  43.042  22.740  12.204
64424W        W32642   2.003  24.135  11.192
64425W        W32643  25.561  11.383   3.736
64426W        W32644  11.569  16.433  10.096
64427W        W32645  27.577  20.773   4.988
64428W        W32646  34.548  35.670   1.274
64429W        W32647  35.438  28.468   4.192
64430W        W32648  21.411  27.305  11.117
64431W        W32649  11.135   6.100  12.481
64432W        W32650  21.173  42.090   1.276
64433W        W32651  19.606   9.611   1.804
64434W        W32652   6.711  19.610   2.278
64435W        W32653  13.768  26.902  12.597
64436W        W32654  10.696  32.775   4.485
64437W        W32655   4.975  33.380   3.655
64438W        W32656  21.618   6.256   1.220
64439W        W32657  10.371  29.642  12.579
64440W        W32658   1.626  40.303  13.122
64441W        W32659   3.249  37.219   4.444
64442W        W32660  35.125  44.879   4.916
64443W        W32661  20.229  31.601  10.705
64444W        W32662  10.313   7.854  11.147
64445W        W32663  23.451  31.538   3.714
64446W        W32664  16.837  23.918  12.379
64447W        W32665  26.094  43.679   1.882
64448W        W32666  20.209  23.531   5.211
64449W        W32667  39.295  23.651  10.374
64450W        W32668  10.090   0.343   4.256
64451W        W32669  36.588  23.514  13.810
64452W        W32670   5.138   4.772  11.243
64453W        W32671  19.303  14.155  11.184
64454W        W32672  25.570  12.828   0.505
64455W        W32673  43.741  16.600  11.973
64456W        W32674  42.321   7.098  11.573
64457W        W32675  28.459  37.115  14.497
64458W        W32676  27.716  27.116   3.690
64459W        W32677  43.331  31.366  10.663
64460W        W32678  37.201  29.336  13.403
64461W        W32679  37.452  43.377  14.801
64462W        W32680  21.275  25.969   4.635
64463W        W32681   5.386  16.490   2.106
64464W        W32682  43.356  37.392   4.171
64465W        W32683  11.662   6.423   4.210
64466W        W32684  34.436  31.646  11.486
64467W        W32685   8.001  16.559  11.114
64468W        W32686   8.769  19.591   2.890
64469W        W32687  22.351  24.217  11.519
64470W        W32688  40.649  38.416  10.619
64471W        W32689  17.186   0.884   2.657
64472W        W32690  19.701   2.174  13.115
64473W        W32691  20.148  24.301   0.894
64474W        W32692  20.741  31.170  11.622
64475W        W32693   2.081  16.000   4.215
64476W        W32694  28.967   1.813  11.098
64477W        W32695   0.833  16.631   2.405
64478W        W32696  42.347  24.546  14.498
64479W        W32697  23.623  27.664   1.689
64480W        W32698  10.271  35.182   2.763
64481W        W32699  35.944  25.678  10.631
64482W        W32700  24.175   7.261  10.650
64483W        W32701  19.198  30.039  12.465
64484W        W32702  33.105  18.530   0.840
64485W        W32703   6.787  23.257  14.905
64486W        W32704   7.213   4.443  11.963
64487W        W32705  19.767  32.263   1.259
64488W        W32706  27.550  16.763   2.744
64489W        W32707  23.625   9.741  11.516
64490W        W32708  22.676   8.303  10.711
64491W        W32709  17.672  10.175   3.325
64492W        W32710   7.293   4.390   4.596
64493W        W32711  15.877  36.372  11.547
64494W        W32712   8.883  27.725   2.349
64495W        W32713  17.054   4.534   2.402
64496W        W32714   3.326   3.009  13.690
64497W        W32715  44.009   3.730  12.968
64498W        W32716  23.476  10.203   0.878
64499W        W32717   0.241  27.329  10.951
64500W        W32718  11.263   1.194   5.048
64501W        W32719  39.475  28.525   4.614
64502W        W32720  18.206  34.904  13.921
64503W        W32721   8.242  23.444  14.874
64504W        W32722  41.288  16.650  11.057
64505W        W32723  19.425  30.449   2.641
64506W        W32724  42.910  41.301   4.565
64507W        W32725  18.505  14.639  12.436
64508W        W32726  28.357   9.770  10.194
64509W        W32727  18.609  27.522   4.872
64510W        W32728  44.761  18.272  11.850
64511W        W32729  23.648  31.656  12.488
64512W        W32730  43.209   4.802   3.201
64513W        W32731  31.899  39.944  14.793
64514W        W32732  17.056  17.280   0.871
64515W        W32733   8.199  34.820   2.006
64516W        W32734  31.714  40.785  11.859
64517W        W32735  11.060  17.818  10.306
64518W        W32736   4.541  11.224   1.007
64519W        W32737  16.773   1.701  14.269
64520W        W32738  22.829  31.435   2.751
64521W        W32739  13.234  35.560   4.400
64522W        W32740  40.276  28.631  11.494
64523W        W32741  42.213   1.371   0.381
64524W        W32742  34.570   4.313   4.683
64525W        W32743  23.206  37.771  14.321
64526W        W32744  14.902   6.643   2.839
64527W        W32745  42.955   7.532   5.258
64528W        W32746  22.671  29.260   4.638
64529W        W32747  36.336  17.928   2.271
64530W        W32748   4.667  30.502   4.094
64531W        W32749  40.823  41.932   0.732
64532W        W32750  24.705   5.612   3.924
64533W        W32751  13.889  38.844  14.449
64534W        W32752  23.572  19.112  12.176
64535W        W32753   7.990  44.932  14.903
64536W        W32754  38.539  25.505  14.805
64537W        W32755  31.081  38.964   2.957
64538W        W32756  12.586  12.765   3.147
64539W        W32757  12.408   4.179   3.827
64540W        W32758  27.658  15.105   4.047
64541W        W32759   1.761  36.631   2.325
64542W        W32760  18.401  17.304   2.564
64543W        W32761   0.338  10.213   4.994
64544W        W32762  17.503  21.218  11.257
64545W        W32763  29.052  20.193  14.791
64546W        W32764  27.635   7.102  12.619
64547W        W32765  22.625  15.344   2.432
64548W        W32766  14.741  23.641   3.919
64549W        W32767   4.426  35.874   2.363
64550W        W32768  32.459  19.474   1.801
64551W        W32769  27.597  27.506   1.279
64552W        W32770   2.531  34.779  10.446
64553W        W32771  18.024   7.013  10.808
64554W        W32772  16.123  35.975  13.413
64555W        W32773  30.483  40.617  14.804
64556W        W32774  38.528  33.987   0.658
64557W        W32775  23.685  38.339   4.050
64558W        W32776  44.005  33.002  10.577
64559W        W32777  16.223   0.907  11.031
64560W        W32778  32.123  38.502  13.438
64561W        W32779  27.219  10.830  11.294
64562W        W32780  43.706  13.139  12.159
64563W        W32781  17.567  24.078  12.929
64564W        W32782   3.832   9.756  14.362
64565W        W32783  10.542  36.434  13.456
64566W        W32784  31.353  11.118   1.125
64567W        W32785  18.225   7.908  11.117
64568W        W32786  41.448  25.986   3.158
64569W        W32787  13.080  22.544  12.060
64570W        W32788  32.971  19.154   3.561
64571W        W32789  40.628  17.865  10.817
64572W        W32790   5.158   6.145  14.010
64573W        W32791  25.013  38.936  14.755
64574W        W32792  11.109  29.940  12.915
64575W        W32793  15.606  43.424  13.509
64576W        W32794  43.989  40.052  13.041
64577W        W32795   4.208  16.777   2.710
64578W        W32796  23.685   6.909   2.358
64579W        W32797  44.466  24.158   1.428
64580W        W32798  23.405   2.915   0.283
64581W        W32799  37.139  15.403  10.214
64582W        W32800   7.483  27.964  14.154
64583W        W32801   6.624  10.812   1.968
64584W        W32802   3.184  34.055  14.798
64585W        W32803  10.190  15.066   0.233
64586W        W32804  11.715   5.296   1.916
64587W        W32805  30.426   6.383   2.650
64588W        W32806  31.969  39.820  13.760
64589W        W32807  26.530  33.643  11.545
64590W        W32808   7.270  13.066  14.919
64591W        W32809   8.662  42.605   3.141
64592W        W32810   6.988  26.888   4.691
64593W        W32811  38.309   4.819   1.886
64594W        W32812  24.666   7.673  14.706
64595W        W32813  11.832  38.453  14.882
64596W        W32814  43.301  11.673  11.973
64597W        W32815  40.822  34.948  14.589
64598W        W32816  16.701  25.975  13.327
64599W        W32817  38.635  23.157  10.953
64600W        W32818  18.592  39.745   3.463
64601W        W32819  40.615   3.956  10.354
64602W        W32820   8.121  42.695  11.896
64603W        W32821   3.582  10.786  12.175
64604W        W32822   1.654   1.793   0.224
64605W        W32823   4.027  14.965   3.695
64606W        W32824  14.243  11.591   4.567
64607W        W32825  38.931   2.376  14.599
64608W        W32826   3.757  29.748  10.757
64609W        W32827  16.543  19.616   4.283
64610W        W32828  41.976  19.151  14.362
64611W        W32829  28.712  16.827  10.245
64612W        W32830  14.994  40.625   3.691
64613W        W32831   1.781  44.605   4.611
64614W        W32832  18.208  32.197  11.504
64615W        W32833  26.646  27.065  12.347
64616W        W32834  24.101  26.771   2.160
64617W        W32835  10.839  28.134  11.381
64618W        W32836  34.831  39.520  13.037
64619W        W32837  13.217  42.357  14.511
64620W        W32838  24.293   2.306  14.867
64621W        W32839   4.690  35.881  12.530
64622W        W32840  11.626  21.036   2.386
64623W        W32841   0.948  26.631  13.548
64624W        W32842  26.922  14.072   4.914
64625W        W32843  18.547   5.908  12.449
64626W        W32844  41.065  40.051   0.838
64627W        W32845   7.870   4.835   0.478
64628W        W32846  10.533  34.451   2.246
64629W        W32847  15.344  35.076  10.439
64630W        W32848  28.442  29.075   0.807
64631W        W32849  33.917  13.315  14.932
64632W        W32850  17.132   6.394   1.865
64633W        W32851   3.802  38.941  12.217
64634W        W32852  20.580   3.678   2.756
64635W        W32853   0.431  22.006   4.418
64636W        W32854  16.934  39.011  13.739
64637W        W32855  33.271  30.634   3.552
64638W        W32856   1.843  36.321   0.282
64639W        W32857  19.258   0.312   4.956
64640W        W32858  27.671  28.071   3.564
64641W        W32859  30.434  19.163   4.493
64642W        W32860  10.912   4.896  13.396
64643W        W32861   6.348  16.716   3.115
64644W        W32862   7.401   5.824   2.789
64645W        W32863  41.410  16.087  14.305
64646W        W32864  34.435  17.828   3.042
64647W        W32865   3.796   3.202   4.670
64648W        W32866  40.955  16.920   3.770
64649W        W32867  11.213  41.265   3.688
64650W        W32868  22.155  24.945  10.960
64651W        W32869  33.669  32.177   0.810
64652W        W32870   2.396  29.980   4.688
64653W        W32871  24.648  43.552   4.209
64654W        W32872  44.367  30.945   4.590
64655W        W32873  40.805  21.484   4.651
64656W        W32874  15.227  38.049  14.059
64657W        W32875  43.055  28.921   0.275
64658W        W32876  19.489  41.611  10.653
64659W        W32877  25.447  35.575   0.777
64660W        W32878  28.827   0.530   2.687
64661W        W32879  15.711  11.384  12.004
64662W        W32880  32.782   1.380  13.943
64663W        W32881  36.818   0.725  11.141
64664W        W32882  34.342  14.207  13.935
64665W        W32883   7.165  13.618  14.367
64666W        W32884  16.611  32.747   2.772
64667W        W32885  23.061  42.599   4.608
64668W        W32886   2.845   3.856   4.310
64669W        W32887   7.960  23.315  11.186
64670W        W32888  30.954  43.553  14.708
64671W        W32889  36.327   4.647  14.422
64672W        W32890  28.718   6.025  11.512
64673W        W32891  44.364  14.711  12.012
64674W        W32892  34.954  16.336   1.593
64675W        W32893  38.598  16.952  11.131
64676W        W32894  35.389  14.825  11.167
64677W        W32895  31.081   4.933   5.330
64678W        W32896  32.594  24.898  13.689
64679W        W32897  33.468  31.716   1.663
64680W        W32898   1.320  22.977  11.156
64681W        W32899  31.488  42.703  14.747
64682W        W32900   3.478   6.303   3.632
64683W        W32901  15.064  43.379  13.525
64684W        W32902  33.120  34.922  11.694
64685W        W32903  15.722  11.219   3.161
64686W        W32904  30.201  26.199  14.281
64687W        W32905  29.452  11.065   2.086
64688W        W32906   9.776  38.605   3.923
64689W        W32907  29.034  41.518  12.949
64690W        W32908  20.369   1.413   0.238
64691W        W32909   4.931   0.406   0.040
64692W        W32910  13.292   7.294   2.160
64693W        W32911  14.699  43.508   2.790
64694W        W32912  11.317   8.689   0.712
64695W        W32913  16.734  41.119   2.303
64696W        W32914  24.904   7.739   1.803
64697W        W32915   5.910  18.181  13.447
64698W        W32916  13.928  24.466  13.504
64699W        W32917  33.914  14.607  11.104
64700W        W32918  32.860  20.646  14.353
64701W        W32919  12.844  39.892  12.448
64702W        W32920  27.188  34.074   0.011
64703W        W32921   9.222  44.014   1.878
64704W        W32922  11.479  44.684  10.955
64705W        W32923  35.893  16.643   3.287
64706W        W32924  23.849  39.191  13.113
64707W        W32925  34.895  43.576  14.966
64708W        W32926  35.042  20.500  13.735
64709W        W32927  40.955  41.520   4.618
64710W        W32928  32.135  40.577   1.379
64711W        W32929  26.410  30.815   2.949
64712W        W32930  26.399   1.354   4.758
64713W        W32931  15.829  33.843  12.853
64714W        W32932   6.713  37.146   4.104
64715W        W32933  19.805   4.324  10.507
64716W        W32934  24.422  14.487  13.553
64717W        W32935  34.537  18.329   4.798
64718W        W32936  40.908  22.278   1.410
64719W        W32937  12.390  28.007  14.942
64720W        W32938  37.347  33.958   0.893
64721W        W32939  33.340   5.267   1.139
64722W        W32940  17.746  30.186   1.094
64723W        W32941  44.832   7.068   0.025
64724W        W32942   2.979  18.285   4.271
64725W        W32943  31.025  16.400   2.930
64726W        W32944  21.213  29.567   1.139
64727W        W32945  16.931  22.806  11.897
64728W        W32946  15.691  19.083  11.283
64729W        W32947  39.506   7.981  13.500
64730W        W32948   6.899  24.141  10.876
64731W        W32949  27.880  30.548  11.423
64732W        W32950   4.268  24.691  12.692
64733W        W32951   3.385  35.932  10.295
64734W        W32952  15.667  29.930   1.779
64735W        W32953  44.041  21.176  11.570
64736W        W32954   9.434  21.153   2.225
64737W        W32955  24.931  44.685  12.569
64738W        W32956  36.637  23.607  13.288
64739W        W32957  41.462   9.650  13.031
64740W        W32958  12.162  20.546  11.981
64741W        W32959  44.963  34.797   2.754
64742W        W32960   3.845  39.926   0.897
64743W        W32961  42.303  25.690  12.171
64744W        W32962  42.516   7.756   3.717
64745W        W32963   4.435   5.060   0.687
64746W        W32964   2.905  11.981   4.662
64747W        W32965  11.193  10.339   0.684
64748W        W32966  21.241  13.959  10.317
64749W        W32967  16.473   5.085  13.356
64750W        W32968  11.983  34.627  14.814
64751W        W32969  26.901   6.686   3.249
64752W        W32970  34.233  44.516  14.080
64753W        W32971  36.650  31.114   3.802
64754W        W32972  18.261  19.793  11.666
64755W        W32973  28.963   9.306  11.188
64756W        W32974  21.246  26.383  11.884
64757W        W32975  12.697  28.338   1.896
64758W        W32976  20.600  12.831  12.951
64759W        W32977  43.265  35.554  14.854
64760W        W32978  29.885  15.274   1.226
64761W        W32979  42.744  17.600   4.354
64762W        W32980  13.735   0.305   0.284
64763W        W32981  36.375  12.941   5.010
64764W        W32982  42.536   8.560   0.657
64765W        W32983  24.201  26.308   2.339
64766W        W32984  36.340  39.279  12.837
64767W        W32985  11.922  40.280  13.528
64768W        W32986  14.799   3.025  13.766
64769W        W32987  23.468  27.124   0.018
64770W        W32988  29.520   6.786   2.300
64771W        W32989  17.229  12.242  14.332
64772W        W32990  16.017  34.078   0.262
64773W        W32991  41.907  20.092  11.713
64774W        W32992  22.787   3.298  11.158
64775W        W32993  27.940  12.448   3.546
64776W        W32994   4.194  10.896  10.620
64777W        W32995  12.778  17.058   1.285
64778W        W32996  10.921  31.461  14.828
64779W        W32997  24.976  26.943   2.439
64780W        W32998  29.911   3.816   2.719
64781W        W32999   8.277  18.850  14.384
64782W        W33000  23.110  14.068   0.866
64783W        W33001  31.328  28.702  12.599
64784W        W33002   5.636  44.906  13.632
64785W        W33003  24.737  38.339  13.451
64786W        W33004  23.256  29.045  11.730
64787W        W33005  34.257   9.232  14.907
64788W        W33006  44.494  29.876  11.608
64789W        W33007   1.354  35.091   2.651
64790W        W33008  11.086  16.612  10.766
64791W        W33009  44.073  23.554  11.715
64792W        W33010  26.092  39.987   1.026
64793W        W33011  34.452  29.026   1.818
64794W        W33012  17.770   3.277   0.742
64795W        W33013  38.120  13.708   1.705
64796W        W33014   4.819  13.255  13.836
64797W        W33015  19.913  36.439   3.342
64798W        W33016  23.538  19.355   1.315
64799W        W33017  13.424  15.613   4.546
64800W        W33018  11.265  31.197  10.642
64801W        W33019  38.977  33.932   0.414
64802W        W33020  43.004   5.603   4.925
64803W        W33021  42.003  35.158   0.730
64804W        W33022  38.544   4.809  12.935
64805W        W33023   7.399  29.796   4.743
64806W        W33024  34.067   0.888  13.960
64807W        W33025  26.884  43.373  14.850
64808W        W33026  24.188  38.983  12.061
64809W        W33027   2.342   1.919  12.522
64810W        W33028   3.175  23.669   2.278
64811W        W33029  42.458  31.333  12.966
64812W        W33030   0.253  19.269  11.040
64813W        W33031  31.259  19.205  12.035
64814W        W33032  39.488  22.204   4.459
64815W        W33033  10.906  24.378   4.479
64816W        W33034  30.714  37.840  13.480
64817W        W33035   3.489   7.903   4.251
64818W        W33036  30.956  35.888   1.862
64819W        W33037  44.832   5.729   0.043
64820W        W33038  17.122  22.519   0.689
64821W        W33039  17.157  22.667   4.183
64822W        W33040  18.391  26.855   9.868
64823W        W33041  20.566  14.948   9.874
64824W        W33042  30.725  24.057   2.534
64825W        W33043  18.454  32.561  10.978
64826W        W33044  29.028  38.595   0.705
64827W        W33045  39.771  37.849  12.441
64828W        W33046  25.761  26.464  10.957
64829W        W33047  43.721  20.379   0.355
64830W        W33048  11.331  26.072  11.098
64831W        W33049  44.971   2.456   2.878
64832W        W33050  25.482  13.663   2.640
64833W        W33051  10.420  25.104  12.601
64834W        W33052  21.851  11.255   4.584
64835W        W33053  23.862   8.831   5.044
64836W        W33054  21.328  27.096  13.554
64837W        W33055  28.150  14.691   1.717
64838W        W33056  22.873  27.120   3.221
64839W        W33057   6.726  35.095   2.783
64840W        W33058  19.523  38.796   1.733
64841W        W33059  43.537  38.030  13.864
64842W        W33060  14.855  37.572  14.962
64843W        W33061   4.623  11.992   1.921
64844W        W33062  35.139  14.614   3.264
64845W        W33063   1.784  16.741   0.736
64846W        W33064  23.566  30.008  14.502
64847W        W33065   3.476  18.885  11.795
64848W        W33066  20.858  14.685   1.887
64849W        W33067  16.684  36.343  11.200
64850W        W33068  43.330  26.728   0.979
64851W        W33069  20.824  33.563   5.555
64852W        W33070  10.061  37.987  11.988
64853W        W33071   3.052   4.803   4.371
64854W        W33072  18.049  23.009   2.327
64855W        W33073  30.530  36.303  14.454
64856W        W33074   9.998   8.410   3.203
64857W        W33075   8.292  27.102  11.528
64858W        W33076   8.676   1.204  13.439
64859W        W33077  27.517  43.926  14.364
64860W        W33078   2.344   4.164   1.304
64861W        W33079  19.034  27.456   1.860
64862W        W33080  40.463   1.943   3.005
64863W        W33081   8.888  39.432   3.174
64864W        W33082  34.717  20.288   2.190
64865W        W33083  41.032  31.608   4.387
64866W        W33084  10.978   9.625   1.015
64867W        W33085  14.674  23.958  14.536
64868W        W33086  25.823   3.687   1.786
64869W        W33087   3.671   5.730   4.476
64870W        W33088  30.451  14.154  13.792
64871W        W33089   7.756  36.586  13.857
64872W        W33090  22.188  35.098   1.903
64873W        W33091  37.031  34.436   4.370
64874W        W33092   6.926  34.753   4.253
64875W        W33093   4.148  30.118  10.751
64876W        W33094  42.431  30.004  13.835
64877W        W33095  42.510   1.835   1.236
64878W        W33096  35.722  43.942  14.723
64879W        W33097  11.630   9.888   4.471
64880W        W33098   6.981  27.935  13.229
64881W        W33099  20.082  31.216   2.811
64882W        W33100  41.566  22.235  10.752
64883W        W33101  35.550  37.291   2.236
64884W        W33102  27.114   3.753  13.133
64885W        W33103  25.108   9.340   1.311
64886W        W33104  34.906  36.638   1.193
64887W        W33105   8.213  16.077  13.538
64888W        W33106   9.802  21.493  12.576
64889W        W33107  26.095   3.047  13.910
64890W        W33108  16.644  32.467  11.854
64891W        W33109  22.515  26.934   2.856
64892W        W33110  33.087  30.169  14.399
64893W        W33111  41.284  30.414  13.660
64894W        W33112  15.267  26.936   4.606
64895W        W33113  26.532   8.751   4.282
64896W        W33114  30.908  18.686   1.162
64897W        W33115   7.883   7.450  10.375
64898W        W33116   0.353  29.702  11.566
64899W        W33117   1.682  23.120   4.678
64900W        W33118  27.416  44.384  11.706
64901W        W33119  23.693  16.797   0.858
64902W        W33120  16.547   6.157  11.586
64903W        W33121   5.879   5.885  14.724
64904W        W33122   7.925  10.200  12.893
64905W        W33123   8.070  44.456  10.397
64906W        W33124  21.797   0.469  14.466
64907W        W33125  23.854   2.499   0.965
64908W        W33126  27.666  24.414   4.127
64909W        W33127   0.336  10.091   3.245
64910W        W33128  43.833  26.512   2.822
64911W        W33129  31.473  37.835  13.564
64912W        W33130   1.723  42.970   3.261
64913W        W33131  18.979  10.111   0.385
64914W        W33132  40.334   1.020   1.361
64915W        W33133   1.253  19.028  10.710
64916W        W33134  44.017  38.880   3.317
64917W        W33135  16.533  12.653  14.943
64918W        W33136  44.246   3.784   0.591
64919W        W33137   2.268  19.051   0.789
64920W        W33138  20.141   7.661   3.527
64921W        W33139   3.698  43.899  11.074
64922W        W33140  11.131  21.030  12.118
64923W        W33141  22.347  15.132  12.194
64924W        W33142  37.410  44.379   1.930
64925W        W33143  38.102  35.963  14.414
64926W        W33144   3.460   0.774  12.955
64927W        W33145  21.702   5.853  12.144
64928W        W33146   4.706  22.221   1.851
64929W        W33147  21.808  18.146  11.551
64930W        W33148  40.068   1.535   2.701
64931W        W33149  38.203  43.987   1.849
64932W        W33150  38.732  24.295   0.298
64933W        W33151   8.887  19.210   1.590
64934W        W33152  18.229  34.453   0.733
64935W        W33153  26.629  22.453   4.122
64936W        W33154  42.020  32.875  13.979
64937W        W33155  43.344   7.862   4.298
64938W        W33156   5.178  33.314  11.942
64939W        W33157  31.413  21.154   2.689
64940W        W33158  20.031  37.764  14.444
64941W        W33159  19.009  20.403  13.903
64942W        W33160  22.720  17.538   3.617
64943W        W33161  31.528   6.203   0.705
64944W        W33162  12.234  43.630  10.627
64945W        W33163  40.431  21.599  11.259
64946W        W33164   5.740  25.191  13.802
64947W        W33165  42.511   5.598  11.556
64948W        W33166   7.807  13.083   1.418
64949W        W33167   4.204  29.548  13.982
64950W        W33168  24.283  15.103   3.807
64951W        W33169  27.671   0.974   4.265
64952W        W33170  39.727  41.969  14.841
64953W        W33171   1.043  10.290   3.222
64954W        W33172  42.909  13.787   0.844
64955W        W33173  11.606  33.075  10.592
64956W        W33174  35.881  14.758   0.972
64957W        W33175  36.856  37.496   4.648
64958W        W33176  40.486   0.100   1.808
64959W        W33177  41.360  17.747   4.308
64960W        W33178   3.742   8.245  11.056
64961W        W33179  41.912  41.443   3.762
64962W        W33180  31.405  33.207   0.968
64963W        W33181  25.775  37.251   5.077
64964W        W33182  18.384   3.875   1.566
64965W        W33183  19.602  33.427   2.490
64966W        W33184  20.288  42.298   3.194
64967W        W33185  18.749  16.826  12.503
64968W        W33186  26.451  32.943  10.929
64969W        W33187   7.441  22.887   0.412
64970W        W33188  24.018   9.672  10.696
64971W        W33189  40.087  20.722   1.659
64972W        W33190  17.992  33.419   3.414
64973W        W33191  20.546  42.783  13.785
64974W        W33192  29.717  44.372  11.208
64975W        W33193  40.119   9.212  12.077
64976W        W33194   3.986   5.367   0.800
64977W        W33195  11.091  34.510   3.226
64978W        W33196  10.683  28.921   1.913
64979W        W33197  38.954  44.108  11.835
64980W        W33198  33.448  11.582  13.835
64981W        W33199  14.984  21.253   4.012
64982W        W33200  17.344  36.604  12.915
64983W        W33201  25.558   5.280   0.219
64984W        W33202   5.896  42.289   2.333
64985W        W33203  37.684   3.823   3.222
64986W        W33204  25.411   2.488  13.347
64987W        W33205  44.823   5.934   1.942
64988W        W33206  32.472  31.810   3.805
64989W        W33207   7.892  13.147   4.775
64990W        W33208  37.566  13.762  10.990
64991W        W33209  31.583  38.671   4.904
64992W        W33210  10.914   2.094  11.126
64993W        W33211   0.511  21.508  13.986
64994W        W33212  44.536  29.699  12.624
64995W        W33213  35.579   6.424   1.336
64996W        W33214   1.538  43.580   3.179
64997W        W33215  41.533  18.834  11.385
64998W        W33216  42.877  32.683  11.531
64999W        W33217  22.602  12.814  14.972
65000W        W33218   1.740  10.305  13.022
65001W        W33219  10.050  36.369  14.340
65002W        W33220  18.944  33.155   3.150
65003W        W33221   7.699  19.474  11.412
65004W        W33222   3.648   6.331   0.050
65005W        W33223   6.805  11.307   1.802
65006W        W33224   2.830  26.681   3.538
65007W        W33225   8.176   0.846   2.004
65008W        W33226  36.412  29.617  10.270
65009W        W33227  22.177  33.441  13.070
65010W        W33228  19.696  40.286  13.431
65011W        W33229  10.197   3.955  10.675
65012W        W33230  21.269  35.857   2.438
65013W        W33231  37.499   6.615   3.312
65014W        W33232  38.152  19.189  14.276
65015W        W33233  34.522  37.875   0.953
65016W        W33234  35.428  23.966   3.298
65017W        W33235  20.050  23.168  14.343
65018W        W33236  18.161  23.401  11.120
65019W        W33237  32.657  40.684   3.697
65020W        W33238  20.941  11.538   4.398
65021W        W33239  20.064  13.746   2.299
65022W        W33240   2.684   1.320   1.409
65023W        W33241  33.611  23.265  14.343
65024W        W33242  32.909  42.305   4.584
65025W        W33243  37.857  20.632  13.483
65026W        W33244  13.843  38.431   4.579
65027W        W33245  38.982  24.106  10.527
65028W        W33246   7.765  36.571   2.209
65029W        W33247   6.208  13.594   4.875
65030W        W33248  39.594  24.539  11.491
65031W        W33249   7.099  38.780  14.001
65032W        W33250  36.246  31.696   3.632
65033W        W33251  36.846  14.422   1.812
65034W        W33252  34.117  25.658  14.489
65035W        W33253   7.309  42.071   1.038
65036W        W33254  16.302  30.992   1.487
65037W        W33255  35.870  20.007  12.024
65038W        W33256  21.012  44.971  11.977
65039W        W33257  24.556  21.055   2.529
65040W        W33258  40.245  31.572  11.997
65041W        W33259  38.385   3.721   0.852
65042W        W33260  18.666   5.214  11.472
65043W        W33261  34.980  10.930  13.740
65044W        W33262  35.507  40.440   4.924
65045W        W33263  24.280  14.261   3.676
65046W        W33264  16.115   5.935  11.990
65047W        W33265  12.454   2.261  13.756
65048W        W33266  33.802  43.650  11.569
65049W        W33267  38.926  23.111   2.599
65050W        W33268   0.735   1.801   1.804
65051W        W33269   1.982  35.063  13.093
65052W        W33270  31.448  34.951   0.810
65053W        W33271  17.751  11.285  10.304
65054W        W33272   1.430  11.768  14.443
65055W        W33273   8.502  38.535  13.039
65056W        W33274  43.925  24.534  11.492
65057W        W33275   5.753  10.695   3.220
65058W        W33276  35.183   9.254   1.777
65059W        W33277  19.263  36.358  11.619
65060W        W33278   2.450  28.312   0.450
65061W        W33279  13.215  14.517   1.763
65062W        W33280  43.846   6.493   3.744
65063W        W33281  10.241   2.386  12.613
65064W        W33282   6.237  19.048   3.611
65065W        W33283  15.693  18.113  14.772
65066W        W33284  19.758   8.751   4.607
65067W        W33285  23.683   7.704   0.701
65068W        W33286  12.167  40.033  12.065
65069W        W33287  41.327  42.024   0.959
65070W        W33288   0.453  22.209  10.751
65071W        W33289  31.251  24.035  12.010
65072W        W33290  36.510  22.673   0.304
65073W        W33291  31.939   6.017  10.664
65074W        W33292  15.220  10.649   1.164
65075W        W33293  37.145  21.029   0.691
65076W        W33294  35.520  28.204  14.049
65077W        W33295  17.735  29.960  11.554
65078W        W33296  10.887  17.962   3.892
65079W        W33297  16.349  31.319  12.193
65080W        W33298  31.539  32.936  14.635
65081W        W33299  44.540  39.048   2.251
65082W        W33300  27.470  14.641   1.493
65083W        W33301  27.174  22.136   2.252
65084W        W33302  16.610  43.864   2.532
65085W        W33303  16.722  40.327  14.468
65086W        W33304  10.181  36.270  14.849
65087W        W33305  42.638   1.245   3.627
65088W        W33306  37.407   2.761   2.440
65089W        W33307  13.189  10.386   1.576
65090W        W33308  42.435  21.095  12.948
65091W        W33309  17.745   6.825  12.982
65092W        W33310   2.939  36.289  12.080
65093W        W33311  15.155  39.541   0.817
65094W        W33312  42.614  26.633   1.808
65095W        W33313  14.447  39.561  14.214
65096W        W33314  36.208  23.865   1.101
65097W        W33315  21.974   4.942   2.215
65098W        W33316  40.986   1.644  12.109
65099W        W33317  28.010   1.205   3.418
65100W        W33318  10.358   3.349   1.362
65101W        W33319  28.455  20.675  13.560
65102W        W33320  28.672  16.840   3.352
65103W        W33321  40.824  27.121   3.076
65104W        W33322  14.273  44.932   3.678
65105W        W33323  20.169  15.318  10.576
65106W        W33324  37.183  10.395   3.648
65107W        W33325  26.142  36.038   1.813
65108W        W33326  23.571  29.155   4.571
65109W        W33327  41.266   0.471  14.488
65110W        W33328  10.730   1.371  14.439
65111W        W33329  39.403  39.761   0.251
65112W        W33330  13.274  14.741   0.362
65113W        W33331  44.955  31.698  14.890
65114W        W33332  29.562   4.951  11.546
65115W        W33333  15.371  18.235  13.829
65116W        W33334  19.349  34.510  12.462
65117W        W33335  41.467  28.186   2.532
65118W        W33336  41.794  26.251   0.353
65119W        W33337  40.317  36.642  11.284
65120W        W33338   7.479  14.696   0.745
65121W        W33339   5.475  36.314  14.920
65122W        W33340  13.823   9.802   3.367
65123W        W33341  10.633  14.561  12.930
65124W        W33342  11.775   4.511   4.991
65125W        W33343  36.207  24.941   3.641
65126W        W33344  39.112  39.026   0.776
65127W        W33345  18.699  16.511   4.221
65128W        W33346  30.629  38.352  13.454
65129W        W33347  36.932  22.241   4.686
65130W        W33348  39.377  28.141   0.901
65131W        W33349  12.774  37.966   4.320
65132W        W33350   2.700  27.611   1.757
65133W        W33351  33.898  30.092  11.947
65134W        W33352  42.781  19.928   2.660
65135W        W33353  24.488  21.513   2.782
65136W        W33354   0.444   7.433  12.037
65137W        W33355   0.976  23.431  11.114
65138W        W33356   5.992  17.328  14.002
65139W        W33357  44.040  20.373  11.661
65140W        W33358  40.323  11.598  11.527
65141W        W33359  18.301  35.840   2.746
65142W        W33360  22.738  32.908   9.985
65143W        W33361  26.332   1.406  14.214
65144W        W33362  18.278  12.669  10.985
65145W        W33363  34.837  35.668  11.341
65146W        W33364   4.131  28.715  11.995
65147W        W33365  25.523  17.231   4.906
65148W        W33366  20.563   6.874   1.100
65149W        W33367  29.196  30.594   1.755
65150W        W33368  34.788  37.848  10.722
65151W        W33369  40.847  28.646   3.780
65152W        W33370  42.395  24.942   4.477
65153W        W33371  37.856   3.578  12.511
65154W        W33372   7.232  11.924   0.216
65155W        W33373  24.770   1.741   2.236
65156W        W33374   9.611   5.853  14.859
65157W        W33375  23.199   2.824  11.013
65158W        W33376  14.332  19.842  11.190
65159W        W33377  28.942  14.449   0.936
65160W        W33378   4.962  40.827   3.954
65161W        W33379   3.316  42.058   0.558
65162W        W33380  10.587  35.124   0.106
65163W        W33381   2.369  36.879  14.273
65164W        W33382  13.716  31.006   2.287
65165W        W33383  29.134  35.456  14.818
65166W        W33384  14.630   9.810   0.764
65167W        W33385  20.664   6.185  10.773
65168W        W33386  10.704  22.534  12.099
65169W        W33387  34.053  39.908  14.423
65170W        W33388  26.526  28.140  10.426
65171W        W33389  34.912  34.020  12.343
65172W        W33390  20.529  41.441  13.303
65173W        W33391   0.581  15.885   5.129
65174W        W33392   6.158   8.536   4.033
65175W        W33393  16.592  28.037  10.396
65176W        W33394  42.631  43.778  11.958
65177W        W33395  32.176  30.534   1.259
65178W        W33396  30.131  32.591  14.915
65179W        W33397   5.968  30.865  14.461
65180W        W33398  22.329  24.686   3.806
65181W        W33399  24.489  37.839  11.229
65182W        W33400   1.037  13.172  14.503
65183W        W33401  15.715  21.685  12.044
65184W        W33402   7.864  24.703   2.880
65185W        W33403  17.142  43.550   3.711
65186W        W33404  34.567  43.773   0.377
65187W        W33405  10.641   5.917  14.693
65188W        W33406  35.125  24.654  13.326
65189W        W33407  28.619  41.809   0.438
65190W        W33408  13.590   2.602   1.761
65191W        W33409   8.831  11.216   4.172
65192W        W33410  29.467  35.442   2.153
65193W        W33411  17.729  12.226   1.774
65194W        W33412  44.468  19.244  11.507
65195W        W33413  24.504   2.926  13.242
65196W        W33414  29.807  29.182   2.781
65197W        W33415  28.506  18.180  10.205
65198W        W33416  21.150   0.813  11.609
65199W        W33417  18.194  33.692  12.543
65200W        W33418   6.353   3.476  12.007
65201W        W33419  19.974  12.820   1.387
65202W        W33420   3.703  24.104  13.906
65203W        W33421  39.604  24.988  13.834
65204W        W33422  30.125  35.810  11.631
65205W        W33423  16.440   5.562  13.535
65206W        W33424   6.977  17.517  14.109
65207W        W33425  35.093  36.844  12.145
65208W        W33426  20.382  29.716  12.213
65209W        W33427  24.596  30.172   0.799
65210W        W33428  40.516   2.142  10.935
65211W        W33429  30.809  15.663  14.527
65212W        W33430  15.583  20.323  11.853
65213W        W33431  21.208  21.046   3.165
65214W        W33432  44.901  32.637  10.925
65215W        W33433  32.680  12.734  14.986
65216W        W33434  26.081  12.769   1.165
65217W        W33435   9.226  24.495  14.358
65218W        W33436  15.864  26.302  13.160
65219W        W33437  19.071  38.930  13.509
65220W        W33438  12.704  22.982  12.386
65221W        W33439  13.638  35.564   3.187
65222W        W33440  27.157  37.022   1.287
65223W        W33441  34.957  15.568   4.258
65224W        W33442  16.494  39.991  14.933
65225W        W33443  21.999  19.843  12.417
65226W        W33444  44.312  27.628  13.293
65227W        W33445   0.765  24.698  12.272
65228W        W33446   0.856  12.679   4.055
65229W        W33447   6.259   4.365   1.211
65230W        W33448   2.712  43.961   1.765
65231W        W33449  23.238  44.807  13.904
65232W        W33450  37.265  15.557  12.939
65233W        W33451  31.426  29.832   9.742
65234W        W33452  33.379  44.490  12.448
65235W        W33453  22.703  36.430  14.509
65236W        W33454   3.341  15.383  14.984
65237W        W33455  42.713   1.258   0.470
65238W        W33456  10.828   9.425  10.635
65239W        W33457  21.928  23.429  12.087
65240W        W33458   2.297  33.924  11.964
65241W        W33459   2.417   9.415  10.737
65242W        W33460   6.632  15.328   0.906
65243W        W33461   8.664  44.873   3.111
65244W        W33462   6.029  11.214   0.807
65245W        W33463  32.362  12.374  14.781
65246W        W33464   4.943  21.771   1.905
65247W        W33465  34.962  15.768   2.320
65248W        W33466   7.646  11.661   1.167
65249W        W33467  35.917  41.270  14.077
65250W        W33468  18.579  38.621   4.829
65251W        W33469  31.626  36.447   4.523
65252W        W33470  16.019   8.436  13.358
65253W        W33471  37.892  25.916   0.196
65254W        W33472  16.670   5.322   1.607
65255W        W33473  17.039  16.995   2.833
65256W        W33474  34.906  26.956  11.527
65257W        W33475  30.519  30.541   3.311
65258W        W33476  37.894  31.873  12.905
65259W        W33477  35.068  35.893  12.672
65260W        W33478  42.356   6.803  10.367
65261W        W33479  27.315  12.564  10.706
65262W        W33480  23.897  26.641   2.658
65263W        W33481  43.904  32.306  11.480
65264W        W33482   4.311   2.258  11.757
65265W        W33483  34.634  23.028   2.769
65266W        W33484  33.351   4.920   4.654
65267W        W33485  39.351  10.561   4.538
65268W        W33486  10.174  32.403  14.999
65269W        W33487  32.840  29.592  11.139
65270W        W33488   7.929   4.390  14.106
65271W        W33489  44.212  34.691  12.867
65272W        W33490   9.470  40.310   1.372
65273W        W33491   3.930  11.319   2.321
65274W        W33492  19.290  11.419  11.297
65275W        W33493  24.023  10.608   0.055
65276W        W33494  20.958  11.891   1.332
65277W        W33495  22.029  11.821   3.220
65278W        W33496   5.737  39.009   3.634
65279W        W33497   6.446  18.854   4.537
65280W        W33498   8.080  22.418   0.008
65281W        W33499  20.970   3.847  14.549
65282W        W33500  42.502  41.225  13.526
65283W        W33501  29.457  13.834   4.044
65284W        W33502  17.552  22.610  10.702
65285W        W33503  21.576  22.739  13.882
65286W        W33504   8.203  26.924  12.696
65287W        W33505   1.380   0.774   4.216
65288W        W33506  26.593  18.610   2.029
65289W        W33507   2.496  21.259   3.972
65290W        W33508  24.007  19.095   1.262
65291W        W33509  32.084  30.117   4.051
65292W        W33510  20.591  23.569  10.736
65293W        W33511  38.153  27.669   2.898
65294W        W33512  37.782   8.926   2.716
65295W        W33513  36.809  32.209  11.842
65296W        W33514   8.833  24.553   2.777
65297W        W33515  34.642  16.829   1.202
65298W        W33516  38.425  18.384  13.500
65299W        W33517   8.159  11.683  11.164
65300W        W33518  24.534  25.054   4.220
65301W        W33519  40.537  40.698   4.516
65302W        W33520  11.279  36.100  12.133
65303W        W33521   1.412  24.363   1.457
65304W        W33522  25.876  38.876   1.520
65305W        W33523  42.551  29.986  10.580
65306W        W33524  29.876  20.343  11.988
65307W        W33525  37.698  21.130   1.431
65308W        W33526  22.711   0.448  11.492
65309W        W33527   9.931  22.196  14.736
65310W        W33528  10.267  29.569  14.427
65311W        W33529  10.323  17.725   1.871
65312W        W33530  32.675  34.902  13.597
65313W        W33531  29.337  16.175  14.714
65314W        W33532  16.267   6.294  14.275
65315W        W33533  21.709  15.743   3.598
65316W        W33534  41.376  41.507  12.491
65317W        W33535  38.836  44.439  14.467
65318W        W33536   1.866  21.311   2.808
65319W        W33537  28.361  42.915  14.507
65320W        W33538  28.465  31.279  12.032
65321W        W33539  36.696  44.001  11.587
65322W        W33540  11.740  39.771  13.511
65323W        W33541  35.473  42.826  11.226
65324W        W33542  23.864   9.104  12.461
65325W        W33543  21.535  34.429   2.728
65326W        W33544  34.629  34.047  13.368
65327W        W33545  11.363  32.190  13.449
65328W        W33546   8.751  18.855   0.688
65329W        W33547   7.225  44.466   4.130
65330W        W33548  22.243  14.322   4.662
65331W        W33549  18.767  35.112  12.010
65332W        W33550  15.108  30.100   2.647
65333W        W33551  12.715  24.254   3.693
65334W        W33552  40.788  42.942  10.458
65335W        W33553  14.768  44.338  14.487
65336W        W33554  37.594  22.454  10.933
65337W        W33555  35.300   1.489  10.212
65338W        W33556   3.566  44.906  11.045
65339W        W33557  19.627  34.969  12.479
65340W        W33558  12.337  30.156  13.800
65341W        W33559   2.220   0.784  13.387
65342W        W33560  24.688  39.508   2.738
65343W        W33561  26.625  11.285   1.248
65344W        W33562  39.312   2.558   2.291
65345W        W33563  13.547  28.144  14.515
65346W        W33564   0.024  30.391  14.887
65347W        W33565  28.707   7.941   0.862
65348W        W33566  17.191  32.099   4.704
65349W        W33567  34.324  37.548   3.623
65350W        W33568  44.737  42.781  14.521
65351W        W33569  30.739  25.388  10.351
65352W        W33570   9.405  39.348   3.132
65353W        W33571  29.943  28.629  10.586
65354W        W33572  14.381  35.957  12.625
65355W        W33573  24.489  15.705  12.881
65356W        W33574  29.763  29.929  14.364
65357W        W33575  18.731  39.906  10.070
65358W        W33576   1.733  41.258   0.501
65359W        W33577  30.244  19.334  12.069
65360W        W33578   7.935  32.034   4.615
65361W        W33579  25.790  29.350  14.295
65362W        W33580  36.050  25.896  11.987
65363W        W33581   4.550  13.770   1.251
65364W        W33582  23.693  11.235   0.867
65365W        W33583  42.051   4.954  10.266
65366W        W33584  24.000   7.311  12.595
65367W        W33585  25.636  32.159  11.652
65368W        W33586  42.294  30.470  10.562
65369W        W33587  11.307  12.904   1.196
65370W        W33588  13.120  41.873  12.677
65371W        W33589  15.484  40.388  14.031
65372W        W33590  24.004   4.640   3.608
65373W        W33591  43.963  15.796  10.719
65374W        W33592   0.759  36.693   0.739
65375W        W33593  21.464  25.089   0.921
65376W        W33594  31.211  16.613  11.088
65377W        W33595   7.855  21.399   3.825
65378W        W33596   7.743  40.879   0.465
65379W        W33597  29.561  29.617   3.160
65380W        W33598  35.998  36.478   4.164
65381W        W33599   8.486  20.172   4.608
65382W        W33600   5.856  17.525  10.192
65383W        W33601  22.690  29.135  12.593
65384W        W33602  38.253  28.989   4.616
65385W        W33603  38.341  32.369   1.939
65386W        W33604  20.564  43.327   0.057
65387W        W33605  21.895   6.445  11.608
65388W        W33606  11.212  21.611   4.638
65389W        W33607   4.431  36.023   0.745
65390W        W33608  43.981   3.225   3.206
65391W        W33609   7.381  20.151  10.515
65392W        W33610  20.613  29.637  10.661
65393W        W33611  43.790  30.108   1.904
65394W        W33612  25.406  19.582  13.923
65395W        W33613  22.246   8.678  11.066
65396W        W33614  38.828   1.841   2.469
65397W        W33615  24.186  39.859   1.408
65398W        W33616  16.368  43.733   0.302
65399W        W33617  34.897  15.253  13.818
65400W        W33618  31.795  25.642  13.029
65401W        W33619  12.832  11.910   1.767
65402W        W33620   8.192  28.365   2.538
65403W        W33621  39.328  36.352   2.710
65404W        W33622  26.973  35.341   4.116
65405W        W33623  16.093  30.991   1.021
65406W        W33624  29.949  33.863   1.414
65407W        W33625  17.897  37.842   3.615
65408W        W33626   8.828   7.188   4.726
65409W        W33627   5.823  16.270  12.034
65410W        W33628   8.633  35.046  10.725
65411W        W33629  31.166  18.566  12.618
65412W        W33630   5.813  39.068  11.052
65413W        W33631  12.672  20.901  13.013
65414W        W33632  15.098  15.277  12.892
65415W        W33633  22.450  40.991  11.103
65416W        W33634  22.061  20.723   0.292
65417W        W33635   6.689  29.115  13.993
65418W        W33636  27.129  17.383  11.981
65419W        W33637  20.693   6.170  13.835
65420W        W33638  41.900  12.711  10.689
65421W        W33639  43.309  39.342  13.975
65422W        W33640  25.966  24.553  11.229
65423W        W33641  30.792  14.804   9.600
65424W        W33642  30.140  31.502   3.635
65425W        W33643   1.043  27.149   4.249
65426W        W33644  37.080   7.574  12.024
65427W        W33645  16.556  19.213  11.048
65428W        W33646   4.484  17.187   2.493
65429W        W33647  11.632   1.527   3.164
65430W        W33648  42.777   7.354  11.557
65431W        W33649   6.179  22.648  12.539
65432W        W33650  38.174   1.350   3.679
65433W        W33651   4.277  44.246  12.010
65434W        W33652   6.240  16.852   2.613
65435W        W33653  18.527   1.743  10.659
65436W        W33654  32.390   3.270   2.689
65437W        W33655  43.414  32.529  12.506
65438W        W33656   5.613   1.343   1.170
65439W        W33657   9.756  16.964  12.677
65440W        W33658  35.892  39.154  14.947
65441W        W33659  37.496  41.073   0.763
65442W        W33660  22.538  14.806   4.616
65443W        W33661  26.044  21.867   2.608
65444W        W33662  16.688   3.032  11.112
65445W        W33663   4.149   5.240  11.945
65446W        W33664  10.901  29.715  13.396
65447W        W33665  20.765  39.847   0.242
65448W        W33666  28.221  13.967  14.962
65449W        W33667  39.913  32.339   2.708
65450W        W33668  34.855  21.776  12.927
65451W        W33669  16.059   0.526  14.787
65452W        W33670  17.155  37.624  14.050
65453W        W33671   8.189  43.512   0.853
65454W        W33672  21.604  15.260  13.864
65455W        W33673  13.426  43.465   1.750
65456W        W33674  32.560   9.320  14.463
65457W        W33675  11.225   7.808   1.220
65458W        W33676   5.321   1.748   0.990
65459W        W33677  10.187   8.359  13.033
65460W        W33678  38.537  25.971   1.573
65461W        W33679  37.959  13.037  12.479
65462W        W33680   9.545  26.389  14.402
65463W        W33681   7.733  14.763   0.306
65464W        W33682  17.138   2.504  10.712
65465W        W33683   3.442  40.098  12.918
65466W        W33684  29.647   4.555   3.163
65467W        W33685  39.762   5.178   1.812
65468W        W33686  25.782  35.758   4.670
65469W        W33687  25.228  17.021  11.202
65470W        W33688  18.773  10.828   0.154
65471W        W33689  43.321   8.262  11.801
65472W        W33690  21.956  31.867   2.867
65473W        W33691  28.576  36.620  12.274
65474W        W33692  19.770  37.235  10.600
65475W        W33693   7.429  40.308   4.052
65476W        W33694  23.394  38.582   3.664
65477W        W33695  42.363  26.024  13.451
65478W        W33696   4.457   9.379  13.008
65479W        W33697  24.700  15.526   1.828
65480W        W33698  32.026  35.481  11.128
65481W        W33699  16.393  20.749  10.935
65482W        W33700  39.941   4.887  13.301
65483W        W33701  42.359  42.563  14.484
65484W        W33702  40.454   5.026   1.386
65485W        W33703   6.372   9.314   3.178
65486W        W33704  17.580   9.788   1.014
65487W        W33705   2.744  10.353  14.411
65488W        W33706  44.443   8.754   2.240
65489W        W33707  34.740  23.396   0.298
65490W        W33708  19.620  22.965  11.477
65491W        W33709   0.287  22.412  11.780
65492W        W33710  17.239  35.206   4.211
65493W        W33711   0.695  16.964   3.307
65494W        W33712   3.911  36.067  11.848
65495W        W33713  15.279  12.208  13.514
65496W        W33714  13.716  10.908   0.393
65497W        W33715   5.657  26.230  11.819
65498W        W33716   7.717  16.153   1.592
65499W        W33717  25.124   0.303  10.767
65500W        W33718  43.805  27.181   3.522
65501W        W33719  32.938  24.993  11.114
65502W        W33720  31.717  16.930  11.991
65503W        W33721  35.013  42.377   1.691
65504W        W33722  43.959  38.567   0.621
65505W        W33723  32.404  41.895  12.800
65506W        W33724  17.133  38.301   1.259
65507W        W33725  11.282  41.581  10.771
65508W        W33726   5.680  32.363  10.737
65509W        W33727  43.134  17.061  10.202
65510W        W33728   0.289  12.318   2.193
65511W        W33729  28.677  40.476   2.329
65512W        W33730  44.944  14.594   3.631
65513W        W33731  21.725  43.525   2.847
65514W        W33732  16.161  42.745   2.292
65515W        W33733  29.628  21.180   1.813
65516W        W33734  17.074  30.519  12.400
65517W        W33735  22.486  39.719   1.332
65518W        W33736  26.061  32.443  14.453
65519W        W33737   8.138  43.739   0.398
65520W        W33738  17.109  15.953   4.284
65521W        W33739   7.166  20.004   4.201
65522W        W33740  38.411   9.618  12.527
65523W        W33741  41.769  22.242  14.380
65524W        W33742  19.227   3.413  11.652
65525W        W33743  30.958  25.991  14.887
65526W        W33744   2.726  36.503  14.379
65527W        W33745  31.486  15.930  12.062
65528W        W33746  34.298   0.824  12.536
65529W        W33747  23.002  34.577  11.896
65530W        W33748   6.983  39.909  13.911
65531W        W33749  22.926   1.626  13.600
65532W        W33750  14.237  27.427  14.285
65533W        W33751  20.857  41.760   2.243
65534W        W33752  19.491   6.902  13.477
65535W        W33753  29.841  16.138  14.764
65536W        W33754  31.427   1.532   3.726
65537W        W33755  12.386   5.771  11.534
65538W        W33756  31.638  35.687  10.797
65539W        W33757  14.388  43.490  10.645
65540W        W33758  36.909  26.734  10.475
65541W        W33759  12.926  37.538  12.402
65542W        W33760   4.733  34.008  12.376
65543W        W33761   7.340  43.375   2.408
65544W        W33762  35.083  35.955   1.925
65545W        W33763  18.908  39.550   4.378
65546W        W33764  18.760  20.710   3.617
65547W        W33765  14.180  13.707   0.110
65548W        W33766  24.077  37.639   4.724
65549W        W33767   9.607  15.271  11.288
65550W        W33768  12.387  25.906   4.539
65551W        W33769  19.350  24.572  13.542
65552W        W33770  22.946  34.420   1.500
65553W        W33771  28.198  36.957  14.069
65554W        W33772  16.163   2.962   3.887
65555W        W33773  40.833  36.444   1.737
65556W        W33774  14.876  32.316  11.116
65557W        W33775  36.516   7.484  12.811
65558W        W33776  13.116  42.788   2.810
65559W        W33777  20.251  15.067  12.759
65560W        W33778  10.226  28.210   0.195
65561W        W33779   8.891  33.026   4.386
65562W        W33780  37.203  37.471  13.847
65563W        W33781  12.753   5.822  12.780
65564W        W33782   8.201   9.151  12.060
65565W        W33783  40.785  39.774   2.131
65566W        W33784  24.334  24.599  12.377
65567W        W33785  22.929  25.673   1.252
65568W        W33786   5.497  21.311  10.576
65569W        W33787  21.531  14.760  13.736
65570W        W33788  40.140  16.153  13.146
65571W        W33789  30.382  43.568   1.320
65572W        W33790  43.415   5.448  14.603
65573W        W33791   4.786   7.183   9.933
65574W        W33792  17.219  11.797  10.659
65575W        W33793  20.914   1.810   4.413
65576W        W33794  13.621  22.509   2.165
65577W        W33795  11.860  22.444   2.321
65578W        W33796  20.609   9.879  11.479
65579W        W33797  36.768   6.331   2.121
65580W        W33798   4.735  25.674  12.503
65581W        W33799   1.798  12.520  11.281
65582W        W33800  44.349  15.269  11.998
65583W        W33801   2.913  14.357  11.260
65584W        W33802   6.129   1.685  10.564
65585W        W33803  43.791   2.499  13.974
65586W        W33804  44.387  33.550  13.978
65587W        W33805  21.220  16.805   1.814
65588W        W33806   6.626   8.204   4.722
65589W        W33807  34.960  33.736  10.453
65590W        W33808   9.598  21.304   1.266
65591W        W33809  38.135  41.370  13.037
65592W        W33810  25.474  44.734  13.458
65593W        W33811  16.369  33.893   1.798
65594W        W33812  29.882  32.183   2.725
65595W        W33813  19.690   3.729   4.471
65596W        W33814  20.700  19.624   4.734
65597W        W33815  33.178  30.428   1.200
65598W        W33816   5.770  44.189   2.643
65599W        W33817  13.130  40.038  11.228
65600W        W33818  32.942   0.005   1.302
65601W        W33819  20.576  19.723   1.972
65602W        W33820   0.736  24.280  13.064
65603W        W33821  10.172   4.418  12.047
65604W        W33822  14.327  13.411  13.801
65605W        W33823  25.031  11.277   1.050
65606W        W33824  14.353  24.322  14.252
65607W        W33825  17.744  28.717   2.794
65608W        W33826   1.002  37.512   3.617
65609W        W33827  11.220  22.771   0.493
65610W        W33828   8.400  13.718  12.483
65611W        W33829  36.399  34.564   1.357
65612W        W33830  12.361  10.720   1.450
65613W        W33831  22.764  10.327  14.900
65614W        W33832   8.615  27.086   4.550
65615W        W33833  39.404  10.004  12.053
65616W        W33834  19.972  36.781  11.204
65617W        W33835  34.071  14.941  14.235
65618W        W33836   7.676  19.047   3.217
65619W        W33837  36.945   8.639   4.267
65620W        W33838  43.353   6.287  13.485
65621W        W33839  23.682  12.668  10.659
65622W        W33840  40.162  38.327   4.130
65623W        W33841  10.044  14.994   2.904
65624W        W33842  38.823  38.497   4.512
65625W        W33843  28.512  11.905   3.202
65626W        W33844  22.926  22.879  13.485
65627W        W33845  29.717   4.296   2.728
65628W        W33846   9.932  30.524  13.881
65629W        W33847  37.540  15.562   1.322
65630W        W33848  15.976  21.775  14.460
65631W        W33849  19.234  15.345  13.782
65632W        W33850   5.599  23.414   0.521
65633W        W33851  12.688  27.023   2.520
65634W        W33852  32.228  38.507  12.242
65635W        W33853  40.823   3.903   0.731
65636W        W33854  37.589  22.138   4.154
65637W        W33855  43.644  11.148  13.005
65638W        W33856  40.616  39.481  11.943
65639W        W33857  19.096   7.602  13.514
65640W        W33858  12.717  28.307  14.163
65641W        W33859  33.870  21.789   5.052
65642W        W33860  21.220  11.766  14.978
65643W        W33861  22.794   9.462   4.130
65644W        W33862   9.108  23.223   1.352
65645W        W33863  13.741  29.512  11.478
65646W        W33864   8.875   5.256  10.883
65647W        W33865  35.821  38.042  14.308
65648W        W33866  30.670  43.209   2.337
65649W        W33867  18.512  32.325  12.534
65650W        W33868   6.634  19.325   3.305
65651W        W33869  13.724  37.074   2.391
65652W        W33870  10.236   2.078  11.294
65653W        W33871  22.801  18.732   0.949
65654W        W33872  15.228  32.125   1.451
65655W        W33873  14.772   9.803  12.823
65656W        W33874  28.378  27.587   3.742
65657W        W33875  17.295  38.096   0.808
65658W        W33876   5.861  37.113   3.283
65659W        W33877  39.381  24.036  11.611
65660W        W33878  20.239  13.847   2.834
65661W        W33879  14.038  25.989   0.020
65662W        W33880  17.297  44.232   0.328
65663W        W33881  44.844  22.563   4.384
65664W        W33882  42.990  32.146  13.404
65665W        W33883  28.690  43.092  13.044
65666W        W33884   9.698   0.329  10.695
65667W        W33885  36.026  19.727   0.148
65668W        W33886  12.369  37.891  13.967
65669W        W33887  13.095  35.076   4.534
65670W        W33888  28.429  37.355  14.986
65671W        W33889  31.849  20.756  13.887
65672W        W33890   2.281  22.071  13.594
65673W        W33891   8.408  20.019   9.962
65674W        W33892  15.060  14.224   0.266
65675W        W33893   3.701  25.146   3.997
65676W        W33894  21.248  10.120   0.717
65677W        W33895  25.968  10.010  11.513
65678W        W33896  28.609   6.908  13.270
65679W        W33897  44.501   0.657  12.877
65680W        W33898   5.633   7.685  12.425
65681W        W33899   5.177   3.897  11.332
65682W        W33900  25.243   5.175  12.997
65683W        W33901  38.025  31.874   3.234
65684W        W33902  16.129  10.674   4.667
65685W        W33903  15.027  23.399   3.214
65686W        W33904  11.441  15.056   4.516
65687W        W33905  42.897  35.185   3.691
65688W        W33906   3.187  30.904   4.535
65689W        W33907   2.522   0.355  12.459
65690W        W33908  19.834  44.088   1.810
65691W        W33909  10.814  11.596  14.127
65692W        W33910  15.591  27.496   9.980
65693W        W33911  25.898  21.012  13.932
65694W        W33912  27.196  33.616   1.746
65695W        W33913  21.857   7.780   1.450
65696W        W33914  36.915   1.603   5.023
65697W        W33915  36.082   2.694   0.817
65698W        W33916  21.394   6.964  12.838
65699W        W33917   9.801  31.012   0.998
65700W        W33918  44.065   1.251  10.908
65701W        W33919  32.437  29.406   0.742
65702W        W33920  23.499  17.969  10.619
65703W        W33921  14.852  23.646   2.778
65704W        W33922  26.542  18.337  11.495
65705W        W33923  25.995  13.055   1.756
65706W        W33924  11.527  13.632  10.308
65707W        W33925  11.690  43.479   4.789
65708W        W33926  28.083  21.532  14.835
65709W        W33927  21.554  13.598  13.850
65710W        W33928  39.388  16.265   3.156
65711W        W33929  34.571   1.361  14.322
65712W        W33930  19.592   8.267   4.521
65713W        W33931  23.091   6.899  11.563
65714W        W33932  16.691   5.880   1.296
65715W        W33933  18.840  11.300  11.099
65716W        W33934   6.871  36.150  13.787
65717W        W33935   7.920  35.975  12.188
65718W        W33936   2.241  18.342   3.701
65719W        W33937  24.973   1.439  14.503
65720W        W33938  37.822  26.593   1.488
65721W        W33939  23.925  15.265   0.467
65722W        W33940   3.461  41.450  13.751
65723W        W33941   6.079   6.761  10.586
65724W        W33942  22.787  40.032  12.665
65725W        W33943  35.867  13.634  13.498
65726W        W33944  10.232   6.684   2.149
65727W        W33945  21.643   4.906  14.467
65728W        W33946  44.952   1.413   0.776
65729W        W33947  26.137   8.642  13.550
65730W        W33948  27.598  19.404  13.336
65731W        W33949   3.703  26.082   3.563
65732W        W33950  39.365  16.003  14.488
65733W        W33951  42.222  14.071  14.928
65734W        W33952  23.302   0.476  14.477
65735W        W33953  25.077  33.410  13.522
65736W        W33954  18.134  11.429  13.829
65737W        W33955  43.117  16.306   3.166
65738W        W33956   5.796  11.615   2.426
65739W        W33957  35.355  12.801  14.350
65740W        W33958  19.617   8.081   1.735
65741W        W33959  15.077  19.403  11.121
65742W        W33960  35.530  44.726  11.863
65743W        W33961  19.710  36.358  12.931
65744W        W33962  23.236  17.079   0.815
65745W        W33963  37.776  37.847   0.963
65746W        W33964   3.638  35.022   4.114
65747W        W33965  25.019   5.972  11.120
65748W        W33966   3.514  28.461  11.272
65749W        W33967  43.283  10.425   1.460
65750W        W33968  11.594  28.872   3.662
65751W        W33969  32.075  31.390   0.290
65752W        W33970  15.273   9.098  13.044
65753W        W33971  43.542  24.100  11.323
65754W        W33972  33.956  25.991   3.788
65755W        W33973  14.300  44.703  13.856
65756W        W33974  25.671  25.439  11.116
65757W        W33975   9.912   1.630   4.238
65758W        W33976  20.739  38.034   0.997
65759W        W33977  18.987  12.665   1.756
65760W        W33978   7.385  35.594   0.258
65761W        W33979   7.891  20.637  14.801
65762W        W33980  29.970   5.482   0.428
65763W        W33981  31.320   3.897  11.199
65764W        W33982  32.934  33.944   3.985
65765W        W33983  44.462  25.053   3.606
65766W        W33984  11.176  37.956   3.315
65767W        W33985  40.430  24.240   4.608
65768W        W33986  39.784  23.621   4.011
65769W        W33987  26.368  22.029  14.615
65770W        W33988  35.311  37.459   4.307
65771W        W33989  36.790   1.485  11.655
65772W        W33990  37.632  17.300  14.916
65773W        W33991  22.598  38.585  11.017
65774W        W33992  27.613  40.799   2.851
65775W        W33993  29.210  24.934   3.111
65776W        W33994   2.350  22.201   1.364
65777W        W33995  29.628  14.373  10.729
65778W        W33996  44.730  21.286  14.030
65779W        W33997  26.115  12.654   2.689
65780W        W33998  22.105  37.852  14.610
65781W        W33999  34.545  22.630   4.015
65782W        W34000  27.971   8.576  14.772
65783W        W34001  40.757  31.932   3.619
65784W        W34002  24.414  16.162   0.381
65785W        W34003  25.028  34.939   4.329
65786W        W34004   8.684   7.680   4.872
65787W        W34005  35.853  27.540  14.505
65788W        W34006  35.899  31.022  14.446
65789W        W34007  38.452  11.258  14.992
65790W        W34008   7.908  24.677  13.067
65791W        W34009  17.321   7.454   3.198
65792W        W34010  41.400  34.688   1.420
65793W        W34011  41.810  33.448  14.525
65794W        W34012  25.153   6.371  13.199
65795W        W34013  43.226  10.873   4.746
65796W        W34014  37.523  43.305  11.575
65797W        W34015  30.729  31.553  12.978
65798W        W34016  25.794  15.246   2.615
65799W        W34017  44.473  40.428  10.548
65800W        W34018  16.775  40.466  13.943
65801W        W34019  26.463  43.728  11.815
65802W        W34020  44.932  28.463   1.767
65803W        W34021   4.420  13.877   3.315
65804W        W34022  17.587  21.262  13.616
65805W        W34023  11.111   1.374   1.508
65806W        W34024  32.113  23.285   0.267
65807W        W34025  26.189  25.218  10.629
65808W        W34026   1.746  14.206   4.535
65809W        W34027   8.732   9.038   4.178
65810W        W34028  14.722  44.463   2.740
65811W        W34029  40.352   3.188  11.475
65812W        W34030  23.236  37.090   1.855
65813W        W34031  37.931  26.071  14.306
65814W        W34032   6.781  25.307   5.020
65815W        W34033  16.085  28.539  11.972
65816W        W34034  19.712  35.614   0.527
65817W        W34035  28.734   3.255  10.718
65818W        W34036  34.058  15.719   4.562
65819W        W34037  22.934  39.399  10.978
65820W        W34038  34.016   3.985   9.876
65821W        W34039  35.580  18.755  14.528
65822W        W34040   3.486  35.525  13.004
65823W        W34041  20.739   3.943  13.012
65824W        W34042   4.705  34.050   0.232
65825W        W34043   1.914  22.240   1.687
65826W        W34044  39.600  14.755   1.760
65827W        W34045  27.220   9.177   3.059
65828W        W34046   4.231  20.232  14.892
65829W        W34047  18.097  18.373   0.234
65830W        W34048  19.210  27.754  13.766
65831W        W34049  39.119  42.871   4.449
65832W        W34050   5.643  21.602  13.842
65833W        W34051  37.802  39.529  12.940
65834W        W34052   7.825   5.663  11.754
65835W        W34053   8.191  17.040   0.082
65836W        W34054  23.747  38.092  13.457
65837W        W34055  14.541   6.363  13.299
65838W        W34056  27.737  10.113  11.308
65839W        W34057  15.451  27.312   1.230
65840W        W34058  33.076  33.912   1.546
65841W        W34059  21.656   4.077  10.712
65842W        W34060   1.408  11.689   0.338
65843W        W34061  25.770  37.625  12.471
65844W        W34062  18.484   6.171  11.576
65845W        W34063  12.029  27.265   2.611
65846W        W34064  42.072  32.696  12.920
65847W        W34065  17.533  12.843   1.167
65848W        W34066  23.961  41.971   4.166
65849W        W34067   2.238   1.859   0.221
65850W        W34068  33.021  44.392   4.490
65851W        W34069  38.182  21.914  14.809
65852W        W34070   8.852  34.617   2.315
65853W        W34071   3.582   3.188  11.116
65854W        W34072  15.734  20.020  14.006
65855W        W34073  31.159  16.809  12.023
65856W        W34074  27.392  39.581   3.223
65857W        W34075   8.403  32.182   3.554
65858W        W34076  40.010  25.506  10.873
65859W        W34077  10.718   1.051   1.707
65860W        W34078  44.775  41.900  14.855
65861W        W34079  26.450  44.217  11.990
65862W        W34080  22.204   1.803  10.507
65863W        W34081  37.033  44.422   2.862
65864W        W34082  15.752  44.613   4.108
65865W        W34083  10.815   7.187  13.076
65866W        W34084   2.750  14.351  14.095
65867W        W34085  11.337  29.534   4.685
65868W        W34086  24.258   8.199  14.488
65869W        W34087  29.372  37.061   1.899
65870W        W34088   0.891  41.542   2.825
65871W        W34089  24.039  21.340  10.372
65872W        W34090  24.551  14.556  11.330
65873W        W34091  41.666  22.420  14.843
65874W        W34092  23.202  43.802  10.471
65875W        W34093   3.508  10.204   1.482
65876W        W34094  14.264  41.507  14.204
65877W        W34095   2.940  10.683  11.557
65878W        W34096   6.649  15.633  11.579
65879W        W34097  35.558   7.153  10.793
65880W        W34098   8.919   5.591   4.677
65881W        W34099  26.280   8.398   1.275
65882W        W34100  20.193  26.714   2.751
65883W        W34101  30.947  30.577  10.767
65884W        W34102  43.599  43.482  13.064
65885W        W34103  14.886  39.304   3.319
65886W        W34104  21.545  27.942  13.339
65887W        W34105  19.127  28.610  12.021
65888W        W34106   0.266  18.275  12.016
65889W        W34107   6.408  28.997   4.329
65890W        W34108  31.461  26.950   1.123
65891W        W34109  31.627  18.623  14.263
65892W        W34110  19.982  18.129   3.110
65893W        W34111  28.177  42.446  13.738
65894W        W34112  22.702   9.817  12.507
65895W        W34113   7.183   2.331  13.433
65896W        W34114  21.533  41.863  11.000
65897W        W34115  38.808  15.092   1.990
65898W        W34116  13.191   2.087  14.880
65899W        W34117  44.832  20.749  14.790
65900W        W34118   5.375  19.454   5.271
65901W        W34119  29.860  26.452   2.082
65902W        W34120  30.422   7.429  13.608
65903W        W34121  17.250  13.162   0.275
65904W        W34122  31.984  10.288  13.957
65905W        W34123   1.882  27.217   1.815
65906W        W34124  43.971  26.707  13.870
65907W        W34125  28.626   1.710  11.530
65908W        W34126   8.530   6.129   0.628
65909W        W34127  21.621  26.015  13.491
65910W        W34128  37.375   6.257  11.255
65911W        W34129  44.376  36.980   1.968
65912W        W34130  43.376  26.732   2.773
65913W        W34131  26.858  37.499   2.450
65914W        W34132  42.572  22.243  13.923
65915W        W34133  36.593  35.077   3.370
65916W        W34134  18.489   7.427  12.522
65917W        W34135  17.524  28.428  14.507
65918W        W34136  30.199  12.598   1.149
65919W        W34137  33.952  33.121   1.951
65920W        W34138   6.977  43.671   2.743
65921W        W34139  16.469  29.391  13.555
65922W        W34140   0.041  29.762  11.992
65923W        W34141  44.250  10.777   2.382
65924W        W34142  32.121  38.130   0.301
65925W        W34143  10.148  31.100  12.748
65926W        W34144  38.362  29.031  13.072
65927W        W34145  29.191  38.788   1.512
65928W        W34146  32.624  34.914  12.587
65929W        W34147  27.980  16.599   0.760
65930W        W34148  32.556  20.478  10.628
65931W        W34149  13.846  38.433   1.095
65932W        W34150  13.167  25.928  12.147
65933W        W34151   3.969  44.665  13.457
65934W        W34152  27.178   8.056   2.616
65935W        W34153  11.405  18.834   2.791
65936W        W34154  37.812   0.608   1.266
65937W        W34155  11.200   0.499  14.991
65938W        W34156  37.323  11.409   1.838
65939W        W34157   5.408  31.344  12.743
65940W        W34158   6.090  14.237   0.714
65941W        W34159   6.377  34.543  11.662
65942W        W34160  19.273  32.433  12.824
65943W        W34161  27.402   0.871   0.890
65944W        W34162  23.703  43.501  13.083
65945W        W34163   3.241   8.997   4.921
65946W        W34164  39.881  24.451  10.842
65947W        W34165  26.662   7.686   0.877
65948W        W34166  21.424   3.736   0.638
65949W        W34167  23.093   2.521   1.671
65950W        W34168  37.812   6.347  12.880
65951W        W34169   0.261  22.672   1.982
65952W        W34170  35.066  40.732   2.739
65953W        W34171   8.687  22.009  11.790
65954W        W34172  35.996  40.833  13.519
65955W        W34173  22.524   2.039  11.594
65956W        W34174  22.001  20.785  11.529
65957W        W34175  12.176  25.906   2.233
65958W        W34176  37.763  29.688   0.216
65959W        W34177  27.461  40.078  13.440
65960W        W34178  24.675  40.816  13.488
65961W        W34179  36.451  39.240   0.947
65962W        W34180   2.752  23.755  13.110
65963W        W34181  20.015  21.554  12.458
65964W        W34182  41.436   3.666  13.428
65965W        W34183  24.693   6.133  13.984
65966W        W34184  33.232   3.154   0.299
65967W        W34185  39.032  30.882   4.377
65968W        W34186   5.786   0.345  14.850
65969W        W34187  16.694  21.606   4.899
65970W        W34188  42.428   7.270   4.618
65971W        W34189  12.103  19.061   0.607
65972W        W34190  28.205  43.845   1.948
65973W        W34191  17.244  14.854  12.900
65974W        W34192  41.862  32.637  11.982
65975W        W34193  26.509   1.100   2.839
65976W        W34194  31.992   7.965  11.561
65977W        W34195  23.048  41.681   3.806
65978W        W34196  43.360  25.388  11.458
65979W        W34197  43.853  30.742  12.872
65980W        W34198  42.482  16.039   4.234
65981W        W34199  17.803  39.881   4.357
65982W        W34200  25.174  14.999  10.152
65983W        W34201  36.506   3.527   2.830
65984W        W34202   7.341  41.900   1.508
65985W        W34203  22.210  38.545   0.764
65986W        W34204  27.030  38.527   0.496
65987W        W34205  17.678  33.959   3.090
65988W        W34206  43.530   1.807  12.583
65989W        W34207  13.404   5.729   1.829
65990W        W34208  14.841  36.873   4.239
65991W        W34209  38.882  11.249  13.810
65992W        W34210   5.575   2.336   4.548
65993W        W34211  22.100  27.171   0.015
65994W        W34212  22.949   4.846   3.109
65995W        W34213  32.624  10.540   3.778
65996W        W34214  39.809  15.798  12.993
65997W        W34215  14.310  41.042  14.548
65998W        W34216  17.566  12.748   0.062
65999W        W34217  44.661  30.184   1.391
66000W        W34218   8.253  13.717   4.225
66001W        W34219  12.785  38.341   0.048
66002W        W34220  15.566  35.620   4.067
66003W        W34221  28.090   0.072  13.411
66004W        W34222  20.975   6.227   2.240
66005W        W34223   4.918  28.988  13.677
66006W        W34224  42.830  21.896   3.280
66007W        W34225   5.181  19.235   0.918
66008W        W34226  23.604  35.437  12.086
66009W        W34227  36.128  19.131   2.552
66010W        W34228  18.345   6.295  13.107
66011W        W34229  29.380  20.347  13.503
66012W        W34230  11.689  30.634  14.261
66013W        W34231   0.862  21.110  12.063
66014W        W34232  15.997  25.675  11.192
66015W        W34233  31.954  33.296   3.289
66016W        W34234  28.192  17.796   2.802
66017W        W34235  40.035  25.535  14.519
66018W        W34236  18.775   7.666  12.159
66019W        W34237   3.871  31.551   4.731
66020W        W34238  39.896  42.997  10.757
66021W        W34239  32.490  30.998  12.086
66022W        W34240  15.886  38.922   4.973
66023W        W34241   6.646  12.444   0.036
66024W        W34242  18.530  20.543   1.314
66025W        W34243  35.605  24.850   3.115
66026W        W34244  41.171  31.623   0.119
66027W        W34245  38.511  31.072  10.990
66028W        W34246  25.197  14.222   1.865
66029W        W34247  28.710  19.996   1.885
66030W        W34248  27.364  42.861  13.615
66031W        W34249  29.384  24.548   2.258
66032W        W34250  26.857  23.546  13.439
66033W        W34251  15.261   6.193  13.582
66034W        W34252  17.877   9.689   3.250
66035W        W34253   9.909  13.349  14.894
66036W        W34254  29.118  29.054   3.664
66037W        W34255  41.871  28.622   4.161
66038W        W34256  40.429  25.956  13.833
66039W        W34257  40.367  34.068   0.772
66040W        W34258  25.631  23.741   3.737
66041W        W34259  26.416  27.554   0.716
66042W        W34260   6.897   5.807   3.707
66043W        W34261   6.854  15.660   0.357
66044W        W34262   9.151  34.693   4.105
66045W        W34263   6.375   9.895   0.657
66046W        W34264  27.448  44.702  14.674
66047W        W34265  25.545  14.830  13.837
66048W        W34266   8.219  35.077  12.552
66049W        W34267  15.867  43.573   9.997
66050W        W34268   5.669  11.819   1.425
66051W        W34269  10.257   3.761   1.878
66052W        W34270  41.489  13.789   0.926
66053W        W34271  15.315  37.609   3.149
66054W        W34272  43.096  16.595  12.346
66055W        W34273  32.318   3.838   3.261
66056W        W34274  44.769   7.125  13.531
66057W        W34275  10.861  38.992  14.028
66058W        W34276  41.503  25.259  10.557
66059W        W34277   4.492  21.947  12.767
66060W        W34278   9.342  37.678   4.203
66061W        W34279   7.627   0.844   2.728
66062W        W34280  11.269   2.963   2.785
66063W        W34281  35.557   4.586   1.892
66064W        W34282  26.246  16.772   4.097
66065W        W34283  40.108  18.531  11.107
66066W        W34284   7.872  41.239   2.526
66067W        W34285   0.411  15.110   2.966
66068W        W34286  38.149   9.802   1.796
66069W        W34287  32.421  15.545  11.140
66070W        W34288  33.909  15.215   2.432
66071W        W34289  19.179  44.557   0.428
66072W        W34290  12.578  28.672  11.040
66073W        W34291   5.313   3.039  10.469
66074W        W34292   6.680  29.490  14.833
66075W        W34293  23.962   9.047   0.497
66076W        W34294  41.195  19.166  11.208
66077W        W34295  31.986  32.134  10.485
66078W        W34296  38.425  17.472   2.862
66079W        W34297   1.448  40.444   4.835
66080W        W34298   6.373  13.008  13.843
66081W        W34299  15.226  44.241   2.749
66082W        W34300  19.604  39.847   4.818
66083W        W34301  20.640  33.098   5.434
66084W        W34302  37.070   9.587  12.998
66085W        W34303  15.709  22.334   3.972
66086W        W34304   2.233  11.285   1.683
66087W        W34305  19.077   2.463   4.129
66088W        W34306  35.067  43.883   3.402
66089W        W34307  35.860  38.051   1.886
66090W        W34308  25.555  38.929  13.093
66091W        W34309  38.829  28.755  12.963
66092W        W34310  12.699   1.409  14.020
66093W        W34311  14.710  16.066   2.236
66094W        W34312  25.606  13.221  11.296
66095W        W34313  11.172  10.745  14.437
66096W        W34314  10.595  13.881  12.022
66097W        W34315   2.537   7.868   4.032
66098W        W34316  24.229  19.380   1.746
66099W        W34317   8.736  43.800  10.596
66100W        W34318  29.701  39.881  12.096
66101W        W34319  22.177  40.114  14.471
66102W        W34320  22.198   4.317   1.205
66103W        W34321  29.495  43.097   1.439
66104W        W34322  14.137  24.969   2.827
66105W        W34323  40.274   0.819   4.164
66106W        W34324   0.933  21.637   1.289
66107W        W34325  26.622  37.355   2.903
66108W        W34326  12.297  28.652  11.505
66109W        W34327   9.087  22.639  12.339
66110W        W34328  24.637  27.115  13.135
66111W        W34329  33.799   4.044  11.259
66112W        W34330  22.440  32.399  14.579
66113W        W34331  12.779   7.859  11.651
66114W        W34332  44.776  33.728   4.851
66115W        W34333  14.315  41.651   2.857
66116W        W34334  13.534  29.902   0.943
66117W        W34335  41.572  29.889  13.862
66118W        W34336   7.724  31.544   4.543
66119W        W34337  41.580  41.669   5.064
66120W        W34338  27.058  15.599   1.755
66121W        W34339  29.703  17.011  12.956
66122W        W34340   2.302  15.030   3.340
66123W        W34341  21.725  41.439   1.446
66124W        W34342  31.150  29.178   2.586
66125W        W34343   5.842  20.304   4.068
66126W        W34344  35.828  23.450  13.359
66127W        W34345  31.209  28.107   0.443
66128W        W34346  36.946   6.927   0.836
66129W        W34347  38.933  19.522  12.342
66130W        W34348  43.420  14.692  14.469
66131W        W34349  36.042  17.663  13.335
66132W        W34350   3.723  17.632   4.519
66133W        W34351  41.877  22.087  13.482
66134W        W34352  10.869  41.257  13.365
66135W        W34353  10.809  21.634   1.674
66136W        W34354  17.607  36.995   4.087
66137W        W34355  35.901  38.853   5.015
66138W        W34356  19.084  28.047   0.907
66139W        W34357  14.144  44.421   2.824
66140W        W34358  39.860  39.342   2.880
66141W        W34359   9.231  41.318   3.931
66142W        W34360  37.120  35.919   0.742
66143W        W34361   1.563  16.712  14.321
66144W        W34362  13.368  36.088  11.523
66145W        W34363  18.813  16.591  12.038
66146W        W34364  34.872  22.961  13.379
66147W        W34365  24.121  29.015   2.514
66148W        W34366  30.936  34.397   4.152
66149W        W34367  17.848  16.611   5.189
66150W        W34368  37.661  13.702  11.975
66151W        W34369   1.814  16.367   4.484
66152W        W34370   4.902  15.058  12.621
66153W        W34371  17.542  25.759   1.539
66154W        W34372  14.531  23.070  14.802
66155W        W34373  42.489  31.840  12.982
66156W        W34374   0.537  44.549  11.911
66157W        W34375  32.172   6.879  14.728
66158W        W34376  33.470   4.059   0.243
66159W        W34377  43.010  41.402  11.882
66160W        W34378  35.471   3.821   2.486
66161W        W34379  32.767  24.485  13.928
66162W        W34380  35.969   6.675  13.113
66163W        W34381   8.960  28.900   4.103
66164W        W34382  15.258  41.778   0.006
66165W        W34383  19.135  15.371   2.263
66166W        W34384  40.414  13.292   4.312
66167W        W34385   4.201   5.357   1.677
66168W        W34386  13.142  15.692   3.777
66169W        W34387  34.361   3.989  12.552
66170W        W34388  12.319  24.083   0.827
66171W        W34389  10.858  39.628   2.092
66172W        W34390  26.016  16.207   1.905
66173W        W34391  14.139  22.132  10.933
66174W        W34392  42.234  40.631   1.619
66175W        W34393  35.099  40.273   3.206
66176W        W34394  15.031  21.980  11.288
66177W        W34395   3.794  39.953   3.315
66178W        W34396   8.394  31.160   2.849
66179W        W34397  35.804  33.860   0.779
66180W        W34398   1.849  15.938   0.467
66181W        W34399  16.268  25.982  12.995
66182W        W34400  20.446  21.077  14.707
66183W        W34401   3.424  20.689  13.474
66184W        W34402  40.478  33.205  13.367
66185W        W34403  42.358  21.626  10.445
66186W        W34404  21.824  20.320  12.130
66187W        W34405  42.719  25.180  12.995
66188W        W34406  22.334  31.123  13.335
66189W        W34407  13.241  32.202  12.471
66190W        W34408  27.103  21.741   0.181
66191W        W34409  27.606  14.455   0.995
66192W        W34410  14.859  15.104   0.955
66193W        W34411  42.955   2.715  10.842
66194W        W34412  28.469  40.703  14.795
66195W        W34413  20.916  23.566  14.815
66196W        W34414  27.050  32.852  10.611
66197W        W34415   8.800  18.284   4.148
66198W        W34416  20.616  13.011   2.009
66199W        W34417  35.891  17.535  14.951
66200W        W34418  26.544   7.156   2.373
66201W        W34419  25.539  18.277   4.910
66202W        W34420  18.230  30.518   0.406
66203W        W34421  23.889   5.786   0.898
66204W        W34422  12.570  12.259  13.908
66205W        W34423   1.314  14.605   1.328
66206W        W34424  42.905  41.781   0.018
66207W        W34425  15.799  36.963  14.208
66208W        W34426  43.804  19.502  12.577
66209W        W34427  21.309   7.264  13.263
66210W        W34428   2.841  37.487   4.227
66211W        W34429  28.661   2.335  10.545
66212W        W34430   3.683  41.597   4.211
66213W        W34431  40.005  36.909   1.891
66214W        W34432   8.576   0.469  12.587
66215W        W34433   4.112  29.737  11.120
66216W        W34434   7.375  11.984  11.574
66217W        W34435  10.120   7.663   3.197
66218W        W34436   5.023  27.461  10.592
66219W        W34437  44.861  13.495  13.906
66220W        W34438  30.985  42.569   0.702
66221W        W34439  13.919  13.881  12.849
66222W        W34440   8.605  15.695   5.050
66223W        W34441  37.614  23.972   3.294
66224W        W34442  35.089  15.765  11.144
66225W        W34443   4.167  11.379   0.360
66226W        W34444  26.375  15.602   3.335
66227W        W34445  15.902  19.281   3.087
66228W        W34446  26.204  39.477  14.494
66229W        W34447   6.906   1.987  11.442
66230W        W34448  16.767  18.951  13.027
66231W        W34449  12.903  33.501   1.039
66232W        W34450   1.212  42.451  10.500
66233W        W34451  17.260  23.215   4.353
66234W        W34452   9.125  31.488  11.489
66235W        W34453  41.462  12.356   1.750
66236W        W34454  15.852   2.239  11.319
66237W        W34455  33.522   8.207  13.810
66238W        W34456  10.136  34.326   3.076
66239W        W34457  24.214   2.395   0.383
66240W        W34458   1.800  35.072  13.580
66241W        W34459  28.306  36.424   3.664
66242W        W34460  37.520   2.767  13.957
66243W        W34461  21.691   0.067   3.758
66244W        W34462  31.553  15.143  11.129
66245W        W34463  19.474  26.127  14.814
66246W        W34464   9.278  44.235   1.378
66247W        W34465  40.430   1.868  13.056
66248W        W34466  43.251  24.516   2.396
66249W        W34467  43.928  37.145  12.201
66250W        W34468  42.575  14.249   1.693
66251W        W34469  10.292  13.313  12.539
66252W        W34470   8.839  40.037  13.514
66253W        W34471  11.927  27.579  12.170
66254W        W34472  36.441  28.203   4.308
66255W        W34473  13.141  19.376   4.617
66256W        W34474  25.968  40.736  10.666
66257W        W34475  22.002   7.036  12.479
66258W        W34476  34.052   4.862   9.761
66259W        W34477   9.919   0.797   1.568
66260W        W34478  26.599  39.272   1.624
66261W        W34479  27.143  38.163  14.886
66262W        W34480  14.245  32.093  13.534
66263W        W34481  19.784  11.354  11.240
66264W        W34482  42.115  21.319  14.848
66265W        W34483   3.485  40.240   1.438
66266W        W34484   6.404  28.639   0.766
66267W        W34485  34.510  15.069   1.574
66268W        W34486  38.501   5.496  13.371
66269W        W34487  35.007  14.107   0.938
66270W        W34488  20.281  22.564   3.325
66271W        W34489  31.174  15.855   9.835
66272W        W34490  20.171  31.704  13.820
66273W        W34491   1.645  13.019  11.136
66274W        W34492  44.235  16.814  13.829
66275W        W34493  31.408  20.617  11.954
66276W        W34494  18.269   0.896   4.390
66277W        W34495  26.187  33.825   0.033
66278W        W34496  33.467  41.052  14.279
66279W        W34497  17.562   2.038  11.065
66280W        W34498  18.104  31.150   3.756
66281W        W34499  27.471  33.902   1.313
66282W        W34500  25.180  25.252  13.020
66283W        W34501  40.326  35.699  11.096
66284W        W34502  40.067   4.203   1.493
66285W        W34503   1.274  13.213  13.507
66286W        W34504  19.563   3.737   3.626
66287W        W34505  31.966  39.478  10.790
66288W        W34506  37.605  10.218  14.245
66289W        W34507  35.461  33.964   1.919
66290W        W34508  14.084  18.120  14.460
66291W        W34509   1.360  11.245  12.196
66292W        W34510  32.820  33.533  12.591
66293W        W34511   3.982  31.923   1.848
66294W        W34512  24.540  11.808   3.429
66295W        W34513  28.901   5.253  14.821
66296W        W34514  20.780  33.546  13.971
66297W        W34515  15.719   1.813   3.608
66298W        W34516  24.418  33.481  10.068
66299W        W34517  11.595  27.887  11.555
66300W        W34518  13.862  13.286  13.575
66301W        W34519  34.129  11.434   4.504
66302W        W34520  10.900  12.223   0.364
66303W        W34521  26.499  28.894   0.079
66304W        W34522  14.064   6.428  13.415
66305W        W34523  35.710  16.758  13.944
66306W        W34524  14.672  29.461  11.682
66307W        W34525  33.032   2.102   2.258
66308W        W34526  35.850   4.596  11.583
66309W        W34527   0.876  14.137  12.967
66310W        W34528  32.515   3.265   3.899
66311W        W34529  30.846  28.424   0.218
66312W        W34530   0.400  21.098  12.330
66313W        W34531  32.993  13.689  13.552
66314W        W34532  26.020  35.182   3.305
66315W        W34533  10.138  43.942   3.795
66316W        W34534  13.739  36.480   4.686
66317W        W34535  22.648  26.461  10.684
66318W        W34536  35.407   5.795   2.813
66319W        W34537  14.867  18.516  12.101
66320W        W34538  11.327  36.241   0.556
66321W        W34539   0.891  11.644  13.437
66322W        W34540  27.200  36.970  10.303
66323W        W34541  15.769   6.594   4.559
66324W        W34542  19.986  11.158   1.082
66325W        W34543  21.828  13.592   1.003
66326W        W34544  39.402  34.881  11.223
66327W        W34545   7.779  40.376  13.057
66328W        W34546   8.481  13.273   4.105
66329W        W34547  44.774  11.194  10.559
66330W        W34548  36.506  41.820  14.388
66331W        W34549  25.856  40.668  11.497
66332W        W34550  42.639  28.267  13.062
66333W        W34551  43.831  11.241  13.483
66334W        W34552  25.925   3.485  12.601
66335W        W34553  17.099   7.312   1.233
66336W        W34554  43.346   3.257  12.349
66337W        W34555  30.208  15.101   0.859
66338W        W34556  20.599  27.197  11.590
66339W        W34557  10.639  35.565   1.804
66340W        W34558  40.340  44.708   0.804
66341W        W34559  29.871  18.877  11.241
66342W        W34560   5.772  43.802  14.376
66343W        W34561  37.117  33.224  11.803
66344W        W34562  20.966   7.689   4.573
66345W        W34563  22.327  33.574  11.623
66346W        W34564  19.099  44.916   4.287
66347W        W34565  22.975  42.243  14.010
66348W        W34566   3.314   2.699   2.902
66349W        W34567  26.510  34.397  12.467
66350W        W34568  30.402   9.839  13.801
66351W        W34569  36.985  36.253  11.718
66352W        W34570  29.753   8.189  12.530
66353W        W34571  38.407  38.831  13.766
66354W        W34572  29.598   9.699   0.567
66355W        W34573  33.989  38.441   2.252
66356W        W34574  37.833  31.971  11.136
66357W        W34575  14.905  17.559   2.473
66358W        W34576  23.555  28.943   2.589
66359W        W34577  44.903   3.262  14.520
66360W        W34578  43.286  34.560  12.860
66361W        W34579   3.998  28.557  12.465
66362W        W34580   8.891  34.032   4.721
66363W        W34581  17.790   7.032   0.288
66364W        W34582   0.874  26.737   3.073
66365W        W34583  33.081  33.583  10.704
66366W        W34584  44.056  35.695  12.915
66367W        W34585  41.231  21.542  13.937
66368W        W34586  28.080  38.919   3.203
66369W        W34587   5.643  43.749   1.722
66370W        W34588  16.924  41.203  11.304
66371W        W34589  12.061  20.950   1.527
66372W        W34590  28.485  43.588  13.591
66373W        W34591  26.482   7.007  14.751
66374W        W34592  33.392  17.736  10.886
66375W        W34593   3.391  19.549   1.978
66376W        W34594   6.963  37.057  13.470
66377W        W34595  15.243  41.338  12.690
66378W        W34596  35.861  22.180   1.885
66379W        W34597  30.021  28.904  12.914
66380W        W34598  26.675  20.483  13.065
66381W        W34599  18.532   5.775   3.720
66382W        W34600  34.419  43.330   4.052
66383W        W34601  35.908   4.839  10.183
66384W        W34602  24.908  32.286   2.410
66385W        W34603  24.126  37.724  12.589
66386W        W34604  12.275  23.178  10.641
66387W        W34605  25.095  29.586  11.880
66388W        W34606  21.432  38.972  10.618
66389W        W34607   2.267  26.186   0.870
66390W        W34608  13.218   4.991  13.117
66391W        W34609   6.396  27.951   4.118
66392W        W34610  10.389  43.502   3.792
66393W        W34611  10.115  39.111  14.343
66394W        W34612  27.876  18.969  13.413
66395W        W34613  39.320   3.242   2.707
66396W        W34614  41.549  23.270  10.707
66397W        W34615   3.714  31.049  13.969
66398W        W34616  23.050  30.671  11.732
66399W        W34617  11.719  13.155   0.046
66400W        W34618  12.659  21.697  12.643
66401W        W34619  28.105  17.757  11.943
66402W        W34620   9.168  21.533  14.747
66403W        W34621  30.350  19.162  12.979
66404W        W34622  44.697  21.704  13.575
66405W        W34623  30.079  22.119  11.421
66406W        W34624  44.559  17.028  14.519
66407W        W34625  16.221   0.781  13.441
66408W        W34626   6.852  43.181   4.145
66409W        W34627  44.455  29.488  14.005
66410W        W34628  21.109  38.462   4.570
66411W        W34629   9.369   8.292  12.509
66412W        W34630  14.242   7.992   0.626
66413W        W34631  16.705   6.200  14.548
66414W        W34632  34.982  21.090  13.444
66415W        W34633  41.440  21.254  12.940
66416W        W34634   8.698  24.947  13.928
66417W        W34635  33.760   7.332   3.095
66418W        W34636  23.971   5.956   0.065
66419W        W34637  13.869   5.300  14.762
66420W        W34638  35.729  42.153   3.751
66421W        W34639  35.780  15.502  13.213
66422W        W34640  33.586  17.159  12.672
66423W        W34641  37.013  35.644  12.553
66424W        W34642  42.055  28.100   3.353
66425W        W34643  18.446  32.752   0.897
66426W        W34644   2.046   5.510   0.684
66427W        W34645   5.350  24.366   4.190
66428W        W34646  20.066   2.952  13.315
66429W        W34647  43.322   4.867  10.729
66430W        W34648  17.801  12.290   4.475
66431W        W34649   9.811   4.216  10.894
66432W        W34650  17.812   6.248   2.696
66433W        W34651  21.500  12.162   0.888
66434W        W34652  17.609  37.869  13.889
66435W        W34653   5.695  21.770  13.037
66436W        W34654   6.693  11.157  12.494
66437W        W34655   0.818  41.450  13.907
66438W        W34656  19.631   1.270  12.596
66439W        W34657  33.440  38.323  12.049
66440W        W34658   2.215  34.788   4.085
66441W        W34659  26.358  36.415  11.502
66442W        W34660  41.855   3.527   1.338
66443W        W34661   0.186  35.163  12.836
66444W        W34662  27.903   9.248  10.585
66445W        W34663   1.937   7.688   1.192
66446W        W34664  36.790  15.679  13.240
66447W        W34665  26.373  25.496   1.307
66448W        W34666   6.363  22.112   2.018
66449W        W34667   7.832   4.472  11.034
66450W        W34668   0.949   1.307   1.766
66451W        W34669  43.508  19.671  10.172
66452W        W34670  29.739  21.287  13.447
66453W        W34671  13.731  21.630   2.685
66454W        W34672  35.923  14.930  11.585
66455W        W34673  12.750   8.644  12.456
66456W        W34674  23.134  20.611   3.848
66457W        W34675  33.594  17.833   2.334
66458W        W34676  26.201  34.313  10.944
66459W        W34677   2.763  42.912   3.140
66460W        W34678  42.435  18.073   0.919
66461W        W34679  11.737   3.774   4.952
66462W        W34680   3.909  13.326   0.997
66463W        W34681  34.492  15.755  10.683
66464W        W34682  29.912  20.743   0.759
66465W        W34683   7.878  18.172   1.431
66466W        W34684   0.916  43.646   1.114
66467W        W34685  11.829   0.027   1.369
66468W        W34686  37.996  34.055   0.114
66469W        W34687  29.801  42.772   3.870
66470W        W34688  12.606  24.821   2.893
66471W        W34689   2.085  10.326   1.953
66472W        W34690   7.693  11.405  11.154
66473W        W34691  16.923   4.266   0.257
66474W        W34692  17.149  26.720   3.315
66475W        W34693  41.855  43.723  10.944
66476W        W34694  10.606  17.684  14.094
66477W        W34695  18.629  31.855   2.685
66478W        W34696  31.954  21.916   1.921
66479W        W34697  10.842  43.429   2.230
66480W        W34698  12.795  12.695  10.656
66481W        W34699  11.363  26.673  13.556
66482W        W34700  35.929  29.399  12.549
66483W        W34701  39.604  37.105   2.882
66484W        W34702   8.764  30.439   3.271
66485W        W34703   4.693  12.853   2.807
66486W        W34704   6.225  25.589   4.135
66487W        W34705  29.534  26.478  11.497
66488W        W34706  44.271  10.215  10.779
66489W        W34707  23.500  37.065   3.956
66490W        W34708  11.833  28.289   4.894
66491W        W34709   4.422  35.518  13.336
66492W        W34710   5.382  27.061  10.514
66493W        W34711  10.885   7.672  12.933
66494W        W34712   8.947   7.177   3.763
66495W        W34713   7.316  40.621  11.877
66496W        W34714   4.304  36.909   0.183
66497W        W34715  42.366  29.602  13.501
66498W        W34716  30.145  22.543  14.512
66499W        W34717   1.110  30.673  12.604
66500W        W34718   5.669  25.942   0.891
66501W        W34719  39.516  29.503   4.841
66502W        W34720  10.288  12.807   4.950
66503W        W34721   6.769  23.277  11.247
66504W        W34722   9.908  23.706  13.143
66505W        W34723  16.834  39.492  13.941
66506W        W34724  11.865  40.307   2.107
66507W        W34725  28.147   1.415  10.686
66508W        W34726   4.417  30.935  12.180
66509W        W34727  30.166  29.410   0.414
66510W        W34728  20.354  43.892   2.725
66511W        W34729  10.084  43.314   2.920
66512W        W34730   0.617   5.495  10.764
66513W        W34731   5.687  44.227  14.670
66514W        W34732   8.134  10.602  11.988
66515W        W34733  34.417  25.923  14.941
66516W        W34734  29.602   7.838  14.865
66517W        W34735  27.106  19.992  11.034
66518W        W34736  14.188  31.368  11.975
66519W        W34737  23.390   6.342  13.313
66520W        W34738  35.019  41.005  12.797
66521W        W34739   2.011  24.236   0.886
66522W        W34740  10.655  20.281  11.147
66523W        W34741  28.180   8.784  11.468
66524W        W34742  23.055  40.326   1.831
66525W        W34743   6.938  17.607  11.588
66526W        W34744   1.657  30.130   2.840
66527W        W34745  38.520  29.489   4.716
66528W        W34746  17.877  44.302   4.528
66529W        W34747  29.527   8.217  10.729
66530W        W34748  39.757  34.462   3.618
66531W        W34749  36.161  14.461  11.923
66532W        W34750  16.230   4.953  14.445
66533W        W34751  15.441  15.120  13.644
66534W        W34752  31.616  19.959  10.349
66535W        W34753  40.483  20.489   3.734
66536W        W34754   8.504   4.146  12.059
66537W        W34755   9.758   3.725   3.359
66538W        W34756   6.012  24.043  11.854
66539W        W34757  10.572   2.438   1.910
66540W        W34758  44.677  31.368  13.882
66541W        W34759  16.016   3.687   3.189
66542W        W34760  11.706  44.915  13.440
66543W        W34761  32.083   0.922  12.299
66544W        W34762  23.871  38.815   5.251
66545W        W34763  42.274  29.534  13.011
66546W        W34764   9.613  44.423  10.689
66547W        W34765  13.683  22.157  13.631
66548W        W34766  24.730   6.090   2.999
66549W        W34767  27.983  25.534   1.843
66550W        W34768  35.788  17.333   2.816
66551W        W34769  30.583   8.666   1.263
66552W        W34770   9.730  22.249   3.172
66553W        W34771   6.482   6.707  12.338
66554W        W34772   1.365  42.414  10.977
66555W        W34773  29.689  13.339   0.912
66556W        W34774  19.491  42.683   0.279
66557W        W34775  16.836   8.854  12.525
66558W        W34776  42.452  37.933  12.145
66559W        W34777  28.209  13.127  14.141
66560W        W34778   3.420  22.289   0.217
66561W        W34779  44.786   6.704   1.489
66562W        W34780   3.757  44.028   0.850
66563W        W34781  33.583  10.589  13.873
66564W        W34782  39.316  18.158  11.646
66565W        W34783   6.944  14.401  14.785
66566W        W34784  35.481  38.763   2.435
66567W        W34785  30.112  38.072  14.308
66568W        W34786   9.660  40.359  12.320
66569W        W34787  34.641  19.223   3.204
66570W        W34788   7.762   6.132  11.956
66571W        W34789  34.386  32.149  11.457
66572W        W34790   8.659  15.245   3.697
66573W        W34791  32.558   9.923  12.886
66574W        W34792  29.493   8.692   4.796
66575W        W34793  15.383  26.532   0.297
66576W        W34794  17.920  16.596  12.163
66577W        W34795  30.402   7.674  11.459
66578W        W34796   5.329  18.016   4.076
66579W        W34797  18.599  13.090  11.305
66580W        W34798  25.954  39.481   3.868
66581W        W34799  10.722  19.831   2.300
66582W        W34800   7.317   2.016  12.083
66583W        W34801   5.401  16.535   0.785
66584W        W34802  32.021  25.945   3.663
66585W        W34803  26.925   9.213  12.449
66586W        W34804  29.947  11.736  12.877
66587W        W34805   1.539   9.827  11.670
66588W        W34806  34.985  32.049  12.510
66589W        W34807  19.260   3.777   1.892
66590W        W34808  20.275  34.985   2.900
66591W        W34809  15.029  10.729   0.184
66592W        W34810   3.003  17.755  13.773
66593W        W34811  25.074   2.946   4.542
66594W        W34812  19.232  12.061  14.062
66595W        W34813  11.798   2.378   4.631
66596W        W34814  40.118  25.709   4.457
66597W        W34815   0.869   6.253  14.029
66598W        W34816  41.534   1.521  10.700
66599W        W34817  39.819  15.298   0.913
66600W        W34818  13.237  21.641  14.288
66601W        W34819   3.801  18.018  14.296
66602W        W34820  24.805  22.238  10.820
66603W        W34821  20.013  11.299  13.128
66604W        W34822   5.520  21.548  14.742
66605W        W34823  16.342  27.238   1.401
66606W        W34824   0.923   5.733  14.010
66607W        W34825  32.957  32.495   2.735
66608W        W34826  27.506  42.416  10.665
66609W        W34827  42.395  27.174  11.704
66610W        W34828  22.662   7.355   2.049
66611W        W34829  34.453  26.426  14.797
66612W        W34830  39.761   6.276  10.690
66613W        W34831  19.093   2.690  14.982
66614W        W34832   7.623  38.805  14.735
66615W        W34833  34.241   8.396  13.014
66616W        W34834   5.501  10.251   3.274
66617W        W34835  36.117  30.524   4.954
66618W        W34836  40.891  22.788   1.387
66619W        W34837  23.158   7.854   3.710
66620W        W34838   8.744   0.882   0.926
66621W        W34839  32.470  22.129  14.491
66622W        W34840  33.547  36.644  11.066
66623W        W34841  34.368  23.774   0.776
66624W        W34842  18.392  39.407  12.817
66625W        W34843  38.601   0.846  10.759
66626W        W34844  11.801  23.130  12.593
66627W        W34845  31.632  24.535   4.748
66628W        W34846  23.298  10.221  10.721
66629W        W34847  28.443  23.528  12.914
66630W        W34848  39.501  43.924   2.822
66631W        W34849   5.796  34.429   4.077
66632W        W34850  27.487  12.372  12.251
66633W        W34851  25.639  23.460   3.278
66634W        W34852  28.882   5.581  11.715
66635W        W34853  12.269   0.930   4.429
66636W        W34854   4.362  28.214   1.398
66637W        W34855   3.451  17.223   0.796
66638W        W34856  28.759  18.159   3.163
66639W        W34857  21.571   5.777  10.693
66640W        W34858  11.378  22.955   4.567
66641W        W34859  37.988  10.630  14.214
66642W        W34860  34.956   3.667   2.717
66643W        W34861  30.910  33.310   3.326
66644W        W34862  27.202  41.571  14.305
66645W        W34863   9.905  34.014  12.400
66646W        W34864  21.260  17.458  11.065
66647W        W34865  18.657   8.087   0.452
66648W        W34866  23.279  34.439   5.497
66649W        W34867  16.129  23.012  13.505
66650W        W34868  41.910  10.166   1.792
66651W        W34869  17.753  27.195   4.566
66652W        W34870  39.301  41.776  10.240
66653W        W34871  25.642  39.299  14.507
66654W        W34872  35.850  38.352   5.029
66655W        W34873   9.647   8.924   3.211
66656W        W34874   0.093  43.458   3.815
66657W        W34875  30.033  15.926  12.509
66658W        W34876   8.838  11.567   3.779
66659W        W34877  44.507  13.137   3.776
66660W        W34878  40.480  27.267   3.859
66661W        W34879   1.563  16.194  11.583
66662W        W34880  31.607  34.979  12.630
66663W        W34881  42.992   5.497  13.432
66664W        W34882  15.528  34.810  14.400
66665W        W34883  28.608  10.681  12.186
66666W        W34884  34.764  22.687  12.937
66667W        W34885   9.287  19.087  11.454
66668W        W34886  30.631   2.412   0.914
66669W        W34887  35.122  31.033   0.917
66670W        W34888  30.230  43.041  11.956
66671W        W34889   5.713   5.966   3.212
66672W        W34890  27.621  19.880  14.394
66673W        W34891   0.290  21.581   4.161
66674W        W34892   3.011  32.019  12.094
66675W        W34893  21.633  17.561  14.387
66676W        W34894   7.125  12.207  12.047
66677W        W34895  22.523  31.363  12.161
66678W        W34896   0.499  33.112  11.500
66679W        W34897   9.302  26.419   2.224
66680W        W34898  17.511  18.724  12.463
66681W        W34899   5.145   7.293   4.524
66682W        W34900  36.883  20.719   2.885
66683W        W34901  22.599   9.662   3.707
66684W        W34902  25.651   1.404  12.319
66685W        W34903  35.248  27.028   5.078
66686W        W34904  17.394  17.364   2.736
66687W        W34905  31.533  37.474   1.910
66688W        W34906  31.666  20.466  10.484
66689W        W34907   7.675  38.788   2.838
66690W        W34908   9.086  24.144  11.988
66691W        W34909  42.556  41.705  11.928
66692W        W34910   9.165   1.492   4.074
66693W        W34911   9.622  16.664   2.129
66694W        W34912  33.078  12.297   3.744
66695W        W34913  15.873  42.935  14.281
66696W        W34914  42.058  38.253   1.272
66697W        W34915   0.432  14.994  12.235
66698W        W34916   5.644  35.371  12.090
66699W        W34917  20.802  30.628  11.583
66700W        W34918   4.906  17.881   0.747
66701W        W34919   1.971  31.597  11.516
66702W        W34920  25.965  43.826   4.575
66703W        W34921  37.057  25.310   4.579
66704W        W34922  24.904  37.047  14.806
66705W        W34923   1.035  20.509   4.089
66706W        W34924  37.454  29.664  11.317
66707W        W34925  30.505  27.710   1.746
66708W        W34926  21.085  33.358  12.087
66709W        W34927  22.255  28.032  14.882
66710W        W34928  42.969  28.816  11.032
66711W        W34929  21.587  21.698  12.332
66712W        W34930  35.145   5.754  12.652
66713W        W34931   6.941   4.863  13.086
66714W        W34932  12.581  13.080   4.320
66715W        W34933  36.131  34.864  13.090
66716W        W34934   5.630  32.562  12.796
66717W        W34935  14.357  33.814  12.031
66718W        W34936   8.807  14.277   0.659
66719W        W34937   6.954  28.226  14.050
66720W        W34938  25.263  23.765   0.925
66721W        W34939  12.130   0.502   2.727
66722W        W34940  26.456  23.639  11.077
66723W        W34941  29.866  17.737   1.175
66724W        W34942  25.271  29.017  13.922
66725W        W34943  44.816  33.397   3.722
66726W        W34944  28.613  14.092  12.180
66727W        W34945  13.657  40.428   2.402
66728W        W34946  19.540  36.636  12.508
66729W        W34947  39.269  36.417   1.886
66730W        W34948   6.341  15.978   4.916
66731W        W34949   9.449  43.369   2.198
66732W        W34950  26.537  16.204   4.720
66733W        W34951   8.890   5.769   0.471
66734W        W34952   3.322   7.719  14.510
66735W        W34953  30.936  25.976  11.768
66736W        W34954  15.036  33.140   0.456
66737W        W34955  12.343   0.466  14.457
66738W        W34956  21.591  31.006   0.765
66739W        W34957  43.925  16.353  11.550
66740W        W34958   2.403  26.255   0.012
66741W        W34959  31.122  29.826   1.694
66742W        W34960   8.945  13.826   1.771
66743W        W34961  13.046   7.934  11.155
66744W        W34962  22.022  18.183  14.910
66745W        W34963   6.275  17.813  13.330
66746W        W34964  24.793  24.073   4.056
66747W        W34965  26.666   8.180  12.569
66748W        W34966  37.582  15.152  12.889
66749W        W34967   1.001  24.253  12.145
66750W        W34968  20.676   6.316   0.370
66751W        W34969  31.642  37.274  14.366
66752W        W34970  13.814  27.159  14.426
66753W        W34971  40.780  15.417   3.730
66754W        W34972  13.897  22.988  11.478
66755W        W34973  22.516   6.328   2.255
66756W        W34974  25.588   8.968  14.809
66757W        W34975  27.435  18.128   2.424
66758W        W34976  37.698   2.536   1.233
66759W        W34977   6.717   5.802   3.220
66760W        W34978  41.608  41.478  11.880
66761W        W34979  40.427  17.500   2.245
66762W        W34980  14.196  11.617  14.326
66763W        W34981  21.859  35.169  12.997
66764W        W34982   9.840   6.496   4.352
66765W        W34983  22.494  26.429   2.892
66766W        W34984  20.219  29.252  12.012
66767W        W34985  23.931  15.881  12.025
66768W        W34986  42.031  38.944  14.871
66769W        W34987  42.857  25.408  11.546
66770W        W34988  16.797  38.007  14.337
66771W        W34989  32.729   1.228   1.302
66772W        W34990  35.367  19.735  14.313
66773W        W34991  41.809  29.760  12.915
66774W        W34992   2.826   3.163  11.583
66775W        W34993  22.696   5.963  12.063
66776W        W34994   9.217  21.595   4.257
66777W        W34995  18.780  31.781  14.871
66778W        W34996  39.990  37.405   2.718
66779W        W34997  18.650  41.041  11.157
66780W        W34998   1.130  27.175  12.500
66781W        W34999  13.375   0.640   9.759
66782W        W35000   8.397  19.925   1.614
66783W        W35001   0.652  27.605   3.362
66784W        W35002   1.770   6.709  14.717
66785W        W35003  37.677  10.363   3.853
66786W        W35004   8.957  20.121   1.123
66787W        W35005  30.028  19.552  14.511
66788W        W35006  36.860  10.644  14.792
66789W        W35007   5.286  39.951  11.055
66790W        W35008  23.969   1.334  14.395
66791W        W35009  20.358  33.974   2.297
66792W        W35010   9.660   8.362  11.975
66793W        W35011  44.253  24.773   2.285
66794W        W35012  19.796  12.608   4.625
66795W        W35013  28.013   7.462   2.924
66796W        W35014  34.441  24.332  12.527
66797W        W35015  10.902   4.855   1.759
66798W        W35016  32.395  22.184  10.609
66799W        W35017  13.136  17.246   0.236
66800W        W35018  10.851  23.776   3.658
66801W        W35019  23.399   1.837  12.880
66802W        W35020  13.576  32.685   2.734
66803W        W35021  40.039   7.688  14.352
66804W        W35022  37.928  34.577   3.323
66805W        W35023   2.373  10.322  13.063
66806W        W35024  43.001  39.634   3.676
66807W        W35025  29.645  11.366  13.724
66808W        W35026   3.981  15.364  11.110
66809W        W35027  12.569  40.220   0.882
66810W        W35028  42.304  11.633  12.293
66811W        W35029   6.691  42.766  13.893
66812W        W35030  42.477   1.033   4.418
66813W        W35031  35.332  28.512   2.736
66814W        W35032   4.435  41.248  12.363
66815W        W35033  44.430   9.171   3.717
66816W        W35034  42.019  32.415   1.847
66817W        W35035  20.172   2.392  11.561
66818W        W35036  26.799  11.324  14.837
66819W        W35037  15.391  42.616  11.963
66820W        W35038   7.875   9.731  13.626
66821W        W35039  11.770  13.307   4.096
66822W        W35040  24.235  44.333   4.267
66823W        W35041  16.132  13.493  13.885
66824W        W35042   2.539   3.266  12.040
66825W        W35043  40.470  12.203   1.217
66826W        W35044  15.057  28.522  11.155
66827W        W35045  26.288  30.172  11.835
66828W        W35046  36.422   9.174  12.109
66829W        W35047  14.034  39.443   4.161
66830W        W35048  16.361  25.590  13.406
66831W        W35049  36.577   3.656  14.323
66832W        W35050  32.927  18.653  12.172
66833W        W35051  10.710  38.818   2.305
66834W        W35052  35.551  21.563   3.289
66835W        W35053  30.039  10.271   4.086
66836W        W35054  31.417  36.282   4.091
66837W        W35055   5.386   6.962  14.560
66838W        W35056  12.725  19.509  10.687
66839W        W35057  18.419  15.646   4.565
66840W        W35058  36.901  42.753  11.127
66841W        W35059  23.950   9.830   1.839
66842W        W35060  17.132   9.882  12.980
66843W        W35061   3.459  43.516  13.964
66844W        W35062   6.398  21.791   0.922
66845W        W35063  30.665   1.409  14.440
66846W        W35064  13.893  33.114  10.543
66847W        W35065  14.074  14.218   0.399
66848W        W35066  24.111  34.608  14.428
66849W        W35067   4.792  39.455   4.132
66850W        W35068   5.088   8.860  11.970
66851W        W35069  26.275  44.847   4.108
66852W        W35070  23.893  14.817   0.731
66853W        W35071  16.724  25.968  11.302
66854W        W35072  31.015  31.192   2.739
66855W        W35073  43.897  10.664  12.990
66856W        W35074  30.540  12.482  11.303
66857W        W35075  43.287  21.905  10.217
66858W        W35076  11.316  39.020  13.097
66859W        W35077   6.854  27.684  11.134
66860W        W35078  31.362  29.539  14.970
66861W        W35079  12.888  43.845  12.113
66862W        W35080  26.087  36.065  14.800
66863W        W35081  36.348  17.889   0.915
66864W        W35082   9.801  31.019  13.998
66865W        W35083  35.727   5.442   1.003
66866W        W35084  21.249  18.635   4.356
66867W        W35085   5.115  24.136   2.752
66868W        W35086  44.853  39.041  14.887
66869W        W35087  20.785  43.176  14.044
66870W        W35088   5.473  39.082  13.500
66871W        W35089   4.842  34.956  11.318
66872W        W35090  31.182  23.247   3.076
66873W        W35091   6.967   3.721  11.286
66874W        W35092  10.297  39.638   4.008
66875W        W35093  25.765   4.974  12.964
66876W        W35094   1.438   7.657   1.028
66877W        W35095  26.364  14.487  11.518
66878W        W35096  27.997  28.156   0.934
66879W        W35097  12.547   0.928  11.706
66880W        W35098  25.066  37.468   0.964
66881W        W35099  15.239   9.346   2.906
66882W        W35100  30.681   8.287   0.333
66883W        W35101  14.128  25.590  13.771
66884W        W35102  34.054  32.042  12.418
66885W        W35103  21.557  10.753  10.748
66886W        W35104  37.984  32.756  13.922
66887W        W35105  17.056  33.536  11.610
66888W        W35106  10.357   4.286  14.094
66889W        W35107  21.807  32.338   2.703
66890W        W35108  29.214  40.461   3.159
66891W        W35109  27.632  20.385   1.470
66892W        W35110  12.894  19.469   2.490
66893W        W35111  25.119  25.657   1.299
66894W        W35112  18.714   8.248   3.890
66895W        W35113  38.548  10.268  14.730
66896W        W35114  17.067  34.773   2.837
66897W        W35115  25.929  30.674   3.219
66898W        W35116  31.026  19.722  11.994
66899W        W35117   7.270  39.532   1.312
66900W        W35118  25.802  33.676  14.341
66901W        W35119  18.154  23.715  10.646
66902W        W35120  32.985  11.802  11.547
66903W        W35121  24.250   7.717  13.355
66904W        W35122  29.164  35.756   1.157
66905W        W35123  31.600  18.414   1.323
66906W        W35124   3.952  31.162   1.359
66907W        W35125  36.950  10.046   2.779
66908W        W35126  14.636  19.061   4.207
66909W        W35127   4.526  43.430   4.223
66910W        W35128  44.798  42.960   0.812
66911W        W35129  35.028  27.872   0.031
66912W        W35130  42.769  38.568  11.629
66913W        W35131   8.941  43.446  10.222
66914W        W35132  24.242  41.377   2.519
66915W        W35133  22.603  27.420  11.617
66916W        W35134  38.023  41.878   2.447
66917W        W35135  14.037  14.153   2.246
66918W        W35136  20.500  42.828  14.333
66919W        W35137  12.787  16.744  12.849
66920W        W35138  12.068  30.972   2.754
66921W        W35139   2.227  14.237   1.378
66922W        W35140  35.451   5.868   3.643
66923W        W35141  17.019  14.871  13.828
66924W        W35142  44.064   5.355  10.462
66925W        W35143  23.674  40.141   0.582
66926W        W35144  42.233   7.857   2.379
66927W        W35145  44.385  14.778   4.724
66928W        W35146   3.279  43.217  13.584
66929W        W35147  37.589  14.713  11.906
66930W        W35148  10.888  26.257   1.372
66931W        W35149  33.755  13.523  11.059
66932W        W35150  43.139  11.357   2.881
66933W        W35151  36.967   8.119  13.852
66934W        W35152  19.711  31.536   0.862
66935W        W35153  33.938  28.590   0.285
66936W        W35154  41.636  35.742  12.876
66937W        W35155  42.554  38.910   0.726
66938W        W35156  21.516  30.374   4.277
66939W        W35157  40.981  16.123  11.095
66940W        W35158  22.911  35.483   4.581
66941W        W35159  41.170  32.251   3.805
66942W        W35160  44.560  43.650   2.792
66943W        W35161  34.316  13.236   1.787
66944W        W35162   7.716  26.596  13.326
66945W        W35163  19.426  42.670  14.405
66946W        W35164  28.445   7.423  11.098
66947W        W35165  33.006  27.612   2.265
66948W        W35166   7.833  28.977  10.693
66949W        W35167   7.239  12.745  13.492
66950W        W35168  43.715  39.997  10.975
66951W        W35169  14.687  20.421   2.194
66952W        W35170  22.628  37.942   0.627
66953W        W35171  11.364   1.973  12.847
66954W        W35172  40.817  28.280   0.339
66955W        W35173  30.234  14.847  13.907
66956W        W35174   0.928   8.303  12.919
66957W        W35175  11.607  39.012  12.155
66958W        W35176   9.313  31.900   3.756
66959W        W35177  35.515  22.347   3.720
66960W        W35178  15.791   4.654  13.942
66961W        W35179   7.742  17.979   2.380
66962W        W35180  41.539   4.418   3.211
66963W        W35181  12.663  36.531   0.971
66964W        W35182   4.742  43.274  13.786
66965W        W35183  15.034  32.018  12.181
66966W        W35184   0.610  23.785   0.845
66967W        W35185  40.726  35.504  13.242
66968W        W35186  15.574  30.380  10.418
66969W        W35187   8.156   6.870  11.620
66970W        W35188  41.865  43.352  11.929
66971W        W35189  19.530  17.328  12.550
66972W        W35190  31.511  32.389  10.462
66973W        W35191  19.668   7.772   3.791
66974W        W35192  18.010  13.373  13.832
66975W        W35193   5.879   8.426  12.096
66976W        W35194  36.835  25.165   1.179
66977W        W35195  32.427  39.959   0.503
66978W        W35196  29.889  13.936   1.314
66979W        W35197   1.073  15.812   0.406
66980W        W35198  30.038  44.388   2.658
66981W        W35199  36.954   1.882   3.648
66982W        W35200  36.064   7.220  13.995
66983W        W35201  31.145  14.150   0.439
66984W        W35202   9.161  43.353   4.294
66985W        W35203  34.879  35.279   1.323
66986W        W35204   6.504  21.571   3.786
66987W        W35205  26.226  32.099   1.201
66988W        W35206  36.044   1.748   5.026
66989W        W35207   4.157   4.749  13.633
66990W        W35208  12.098  14.353   0.240
66991W        W35209  38.938  14.052  14.556
66992W        W35210   9.677  38.807  10.185
66993W        W35211  23.062  33.655  11.036
66994W        W35212  37.436   1.449  12.407
66995W        W35213  26.403  36.089   3.786
66996W        W35214  37.992  32.236  10.699
66997W        W35215  23.619   3.196   4.391
66998W        W35216  28.558  10.957   0.047
66999W        W35217  37.072  44.014   0.474
67000W        W35218  21.649  23.823  12.574
67001W        W35219  28.686  30.975   0.782
67002W        W35220   5.949  18.659  12.497
67003W        W35221   3.839  17.721  13.467
67004W        W35222  43.402  10.339   3.602
67005W        W35223  20.279  28.554   1.366
67006W        W35224   0.801  15.942  14.951
67007W        W35225  16.369  20.225  11.741
67008W        W35226  19.506  34.178   1.776
67009W        W35227  28.821   0.607   4.818
67010W        W35228  21.498  35.165  11.258
67011W        W35229  16.509  40.779   4.058
67012W        W35230  26.355  15.137   3.717
67013W        W35231  35.998  37.099  11.619
67014W        W35232   6.429  29.162   2.359
67015W        W35233  41.893   9.961   4.551
67016W        W35234  22.544   9.192  12.975
67017W        W35235  39.365  11.363  14.288
67018W        W35236  12.375  30.065  11.096
67019W        W35237  28.774  35.363   2.118
67020W        W35238  42.092  24.935  11.809
67021W        W35239  10.840   7.767   3.323
67022W        W35240  13.386  15.046  12.628
67023W        W35241   3.212  20.097  11.654
67024W        W35242  24.777  37.152  12.471
67025W        W35243  24.938  40.967  11.718
67026W        W35244  42.389   5.419   4.309
67027W        W35245  41.048  24.757  14.058
67028W        W35246   2.874  30.132   3.951
67029W        W35247  19.677  12.430  12.456
67030W        W35248  25.642  14.821   5.447
67031W        W35249  33.455   7.882   2.775
67032W        W35250   5.721  24.413   0.425
67033W        W35251  19.006  12.557  12.095
67034W        W35252  14.830  24.128   4.139
67035W        W35253  20.759  44.519   3.203
67036W        W35254  13.769  10.348  11.488
67037W        W35255   5.961  20.126  13.475
67038W        W35256  44.805  12.976   4.638
67039W        W35257  42.683  22.197  14.885
67040W        W35258  12.830  33.337  11.096
67041W        W35259  41.518   1.982   0.434
67042W        W35260  34.364  17.336   4.554
67043W        W35261  12.910  43.158  14.816
67044W        W35262  24.761   1.457   3.557
67045W        W35263  31.447   6.279  13.242
67046W        W35264  28.996  14.888  12.201
67047W        W35265   4.780  20.989  14.103
67048W        W35266  34.366  33.656   3.701
67049W        W35267   1.223  42.464   0.374
67050W        W35268  14.910  36.084   5.144
67051W        W35269  40.073  42.979  14.552
67052W        W35270  33.685  16.290  14.496
67053W        W35271  38.968  10.972  12.445
67054W        W35272  28.447  22.453  10.091
67055W        W35273  42.387  24.707  13.420
67056W        W35274  16.630  34.785   3.115
67057W        W35275   5.351  13.819  10.937
67058W        W35276  19.368  14.321  13.309
67059W        W35277   8.589  18.032   2.253
67060W        W35278  22.954   6.038  14.295
67061W        W35279   1.966   9.604   3.709
67062W        W35280  36.032  19.726   4.146
67063W        W35281   7.473  25.992   2.848
67064W        W35282  18.361   2.840  11.570
67065W        W35283  32.680  11.835  10.677
67066W        W35284  39.480   7.276   4.203
67067W        W35285  25.474   7.678   3.942
67068W        W35286  38.513  19.030   3.642
67069W        W35287  19.779   2.628   0.441
67070W        W35288  10.796   8.357   0.091
67071W        W35289  16.971  11.371  11.521
67072W        W35290  28.564   0.143  13.778
67073W        W35291  27.073   1.863   1.935
67074W        W35292  30.144  30.080  10.673
67075W        W35293   0.040   3.532  12.918
67076W        W35294  37.479  40.142  13.114
67077W        W35295  23.146   0.506   1.238
67078W        W35296  21.597  30.550   3.342
67079W        W35297  35.609  15.936  14.541
67080W        W35298  10.345  34.017   4.496
67081W        W35299  19.506  32.403  12.000
67082W        W35300   2.342  16.836   2.454
67083W        W35301  30.172  24.077   0.406
67084W        W35302  18.847  20.584   2.707
67085W        W35303   1.133  20.063  13.371
67086W        W35304   4.385  28.535  10.724
67087W        W35305   8.721  21.283   4.591
67088W        W35306  38.269   0.793   5.123
67089W        W35307  41.458  17.323   4.600
67090W        W35308  14.339  23.920  11.211
67091W        W35309  43.975   4.029   3.993
67092W        W35310   1.965  44.070   2.858
67093W        W35311  38.388   2.313   1.902
67094W        W35312  21.994   6.500  12.456
67095W        W35313  19.268  33.581   5.029
67096W        W35314   8.357  39.580   3.169
67097W        W35315  11.099  43.764   1.384
67098W        W35316  15.279  32.862  13.443
67099W        W35317  19.756  19.931   4.122
67100W        W35318  15.507  39.298   2.892
67101W        W35319  17.865  10.380  12.917
67102W        W35320   0.331  23.578  11.917
67103W        W35321  13.658  26.786  11.255
67104W        W35322  31.646  17.393  11.513
67105W        W35323  38.968  21.456  11.099
67106W        W35324   8.205  12.780   4.067
67107W        W35325  18.888  24.954  12.872
67108W        W35326  14.771  30.014  11.733
67109W        W35327  29.052  22.514  10.645
67110W        W35328  11.483   5.724  13.368
67111W        W35329  25.287  43.907   2.546
67112W        W35330  18.654  29.402  10.418
67113W        W35331  32.145  19.549   3.272
67114W        W35332  32.917  11.518   3.152
67115W        W35333  43.304  26.209   0.934
67116W        W35334   8.548  12.351   3.972
67117W        W35335  42.446   7.443  11.171
67118W        W35336  32.068  44.917   1.718
67119W        W35337  16.714  23.054   2.841
67120W        W35338  17.145  30.157   0.499
67121W        W35339   1.993  35.907  10.766
67122W        W35340  27.566   3.263   1.838
67123W        W35341  27.504  23.770  12.178
67124W        W35342  28.664  34.076   4.488
67125W        W35343  44.941  33.108   2.910
67126W        W35344  33.223  44.923  12.723
67127W        W35345  37.855   7.827   1.274
67128W        W35346  22.277  22.854   4.105
67129W        W35347  43.455  40.502   2.206
67130W        W35348  27.008  25.617   3.651
67131W        W35349  42.954  33.090   0.221
67132W        W35350  29.122  11.380   4.537
67133W        W35351   6.799  16.293   9.979
67134W        W35352  24.183  16.079   3.834
67135W        W35353  23.800  31.567  13.909
67136W        W35354  28.690  34.900  11.621
67137W        W35355  33.515  34.707   3.620
67138W        W35356  40.032   3.466   3.228
67139W        W35357  21.514  32.335  13.086
67140W        W35358  14.224  38.870   2.224
67141W        W35359  36.901  27.989   2.075
67142W        W35360  20.995  18.146  14.909
67143W        W35361  44.507  19.868   2.348
67144W        W35362   8.745  33.776   3.748
67145W        W35363   5.165  35.458  10.674
67146W        W35364  21.215   4.599  13.735
67147W        W35365  11.183  14.567  14.245
67148W        W35366  43.623  30.406   1.114
67149W        W35367  40.457   3.666  10.764
67150W        W35368  42.991  34.982  14.869
67151W        W35369  33.844  36.585   0.330
67152W        W35370  44.416  25.157  11.039
67153W        W35371  15.188  13.383   3.223
67154W        W35372  44.276   3.377   4.570
67155W        W35373  36.113   7.382   2.869
67156W        W35374   5.919  17.482   4.625
67157W        W35375  11.390  23.097  11.154
67158W        W35376  16.581   3.452   2.311
67159W        W35377   4.334  42.614  14.003
67160W        W35378  22.641  14.259  11.074
67161W        W35379  13.840  14.198  14.505
67162W        W35380  23.639  40.913   4.258
67163W        W35381  11.342  12.206   2.769
67164W        W35382  37.391  11.414  13.482
67165W        W35383  28.326   0.822   3.267
67166W        W35384  27.092   8.443   1.288
67167W        W35385  16.897  44.397   3.717
67168W        W35386   0.907  31.503   3.305
67169W        W35387   1.468  40.780   3.111
67170W        W35388  38.826  28.108   1.988
67171W        W35389  21.785  42.066   2.403
67172W        W35390  32.140  24.376  11.956
67173W        W35391  14.112  44.313  14.788
67174W        W35392  35.829   7.350   0.485
67175W        W35393   8.173  39.315  11.730
67176W        W35394  22.786  23.170  12.128
67177W        W35395   9.395  27.693  13.307
67178W        W35396  31.963  31.582  12.822
67179W        W35397  26.528  11.402   4.188
67180W        W35398   1.416  36.626  11.516
67181W        W35399  24.262   9.690  14.200
67182W        W35400  39.577  11.432   1.735
67183W        W35401  10.368  23.205  12.394
67184W        W35402  18.737  18.265  13.983
67185W        W35403  18.466  30.515  14.931
67186W        W35404  37.901  20.788  14.335
67187W        W35405  14.271  30.034  13.278
67188W        W35406  20.509  19.212  11.188
67189W        W35407  18.637  15.325   3.289
67190W        W35408   8.705  30.507   0.328
67191W        W35409  34.831  32.196  11.167
67192W        W35410  12.138  16.087   3.146
67193W        W35411  26.839  25.681   5.511
67194W        W35412  18.484  12.651   0.735
67195W        W35413  15.625  30.004   0.804
67196W        W35414  30.478  10.341  13.905
67197W        W35415  27.969   4.867  12.911
67198W        W35416  30.064  33.480  11.885
67199W        W35417  33.675   4.935   5.121
67200W        W35418  29.401  30.869   4.626
67201W        W35419   1.218  37.786  12.149
67202W        W35420  14.181  35.983  14.915
67203W        W35421  40.428  27.547  14.501
67204W        W35422  39.771  23.296   0.439
67205W        W35423  10.215   6.698   4.017
67206W        W35424  36.971   2.325   0.813
67207W        W35425  24.007   7.908   3.059
67208W        W35426  35.963  28.319   4.086
67209W        W35427  12.892   3.787   0.977
67210W        W35428  25.620  21.309  10.529
67211W        W35429  33.067   6.674   2.883
67212W        W35430  13.176  44.415  11.946
67213W        W35431  13.187   5.429   4.094
67214W        W35432  26.047  37.164  13.845
67215W        W35433   3.753  30.819  12.435
67216W        W35434  44.032  42.943  13.885
67217W        W35435  19.438  28.181   1.362
67218W        W35436  38.104  15.151  12.929
67219W        W35437  31.881  39.414   0.006
67220W        W35438  12.311  28.994  13.890
67221W        W35439  37.300   5.455  12.885
67222W        W35440  22.987  19.020  14.257
67223W        W35441  18.180  27.832   0.089
67224W        W35442  19.490  22.239  11.980
67225W        W35443  44.340  41.306  14.317
67226W        W35444  42.330  41.569  12.474
67227W        W35445  28.344  29.611   0.948
67228W        W35446  20.587   2.920   1.069
67229W        W35447  32.703  27.234   3.979
67230W        W35448  31.541  42.498   4.640
67231W        W35449  15.181   9.143   0.747
67232W        W35450  44.477  34.586  12.005
67233W        W35451   9.361  24.451   4.122
67234W        W35452  39.192  15.051   2.349
67235W        W35453  10.822  23.718   1.789
67236W        W35454  27.746  40.307   1.312
67237W        W35455  23.764  23.068  13.729
67238W        W35456  29.804  31.488  13.249
67239W        W35457   9.227  35.982  10.693
67240W        W35458  23.025   5.012   0.256
67241W        W35459  27.192  37.455  10.980
67242W        W35460  26.262  38.843  11.757
67243W        W35461   0.276   4.180  13.031
67244W        W35462  16.117  26.463   3.626
67245W        W35463   3.887  21.571  11.595
67246W        W35464   8.912  17.315   2.351
67247W        W35465  38.657  43.596  10.173
67248W        W35466  16.843  14.633   1.308
67249W        W35467  13.285  13.244   0.826
67250W        W35468  18.233  13.468   4.560
67251W        W35469  13.268   3.451   4.195
67252W        W35470   2.474  37.364   4.971
67253W        W35471   2.921   6.393   2.457
67254W        W35472  40.505  28.035   0.768
67255W        W35473  43.687  39.260   2.454
67256W        W35474   7.833  23.219   2.221
67257W        W35475  12.352  27.926  12.868
67258W        W35476   3.086  17.719  13.084
67259W        W35477  38.520  40.835  11.946
67260W        W35478  26.466  32.643   4.776
67261W        W35479   3.842  16.570  12.634
67262W        W35480   4.796  18.974  13.899
67263W        W35481   1.963   2.141   2.982
67264W        W35482   5.961   0.050  14.008
67265W        W35483   2.073  17.231  14.785
67266W        W35484  32.686  10.894  11.141
67267W        W35485  34.148  20.273   4.917
67268W        W35486   8.798  42.660  10.193
67269W        W35487  28.608  42.617   4.877
67270W        W35488  20.047  22.146   3.164
67271W        W35489  19.930   4.025   0.393
67272W        W35490  18.251  15.105  14.954
67273W        W35491  10.832   5.124  12.928
67274W        W35492  39.872  30.136   1.958
67275W        W35493   4.290  44.958  12.530
67276W        W35494  20.442  30.898   4.866
67277W        W35495   5.272  38.849   3.145
67278W        W35496   7.776  24.088   4.684
67279W        W35497  38.496  33.101  12.847
67280W        W35498   0.874  14.259   1.303
67281W        W35499  41.007  22.526  13.105
67282W        W35500  41.750  15.628  13.933
67283W        W35501   7.703  33.544  14.089
67284W        W35502  42.079  32.185   3.043
67285W        W35503  38.314  12.638  11.512
67286W        W35504  10.813  16.676   1.090
67287W        W35505   4.279  33.878   1.440
67288W        W35506  11.022   5.368  12.504
67289W        W35507  27.424  33.566   0.308
67290W        W35508  17.119  42.085  14.239
67291W        W35509  14.304  31.536   2.138
67292W        W35510  41.631  18.311   4.992
67293W        W35511  41.938  18.734   1.429
67294W        W35512  18.299  33.438  12.070
67295W        W35513  20.569  17.673  13.735
67296W        W35514  31.858  10.221   0.797
67297W        W35515  39.042  11.001  13.363
67298W        W35516  18.727  41.994   1.985
67299W        W35517  44.836  20.092  13.392
67300W        W35518   5.024  26.592   1.892
67301W        W35519  41.059  37.247   3.790
67302W        W35520  21.456  11.789   2.124
67303W        W35521  38.598  21.702   3.196
67304W        W35522  15.930  17.670   2.840
67305W        W35523  31.941  37.066   0.229
67306W        W35524   0.200   1.719   0.006
67307W        W35525  29.250  23.525   9.823
67308W        W35526   0.876  44.086  14.862
67309W        W35527  42.465  16.633  14.544
67310W        W35528  17.126  43.297  10.991
67311W        W35529  25.161  34.816   1.457
67312W        W35530  32.203  14.142   4.080
67313W        W35531   3.023  21.633  13.517
67314W        W35532  12.152  44.966   3.696
67315W        W35533  15.408  21.662  11.446
67316W        W35534  40.818   1.380  13.384
67317W        W35535  27.001  42.944  13.975
67318W        W35536  44.252   8.849   0.162
67319W        W35537  40.297  23.495   4.079
67320W        W35538  44.248  19.689  11.787
67321W        W35539   5.817  32.472  12.033
67322W        W35540  37.963  29.569  10.943
67323W        W35541  33.040  25.849   3.995
67324W        W35542  14.657  17.222  13.515
67325W        W35543  34.945  25.252  11.620
67326W        W35544  15.025  14.770  11.587
67327W        W35545   7.675  37.777  10.273
67328W        W35546  11.728  30.593   2.597
67329W        W35547  30.612   2.174  13.803
67330W        W35548  37.458  40.474  11.214
67331W        W35549  11.255  30.378  13.814
67332W        W35550  23.594  27.458   3.202
67333W        W35551  38.520  34.000   0.145
67334W        W35552  27.744   1.791   3.942
67335W        W35553  19.983  41.996   1.892
67336W        W35554  10.701  23.418  13.786
67337W        W35555   6.396  43.302  14.985
67338W        W35556  21.109  20.336   0.421
67339W        W35557  41.976  23.650  11.576
67340W        W35558  12.883  21.165   2.771
67341W        W35559  29.888  23.723  14.485
67342W        W35560  24.084  35.952   1.859
67343W        W35561  36.238  42.285  14.524
67344W        W35562  41.311  17.519   3.321
67345W        W35563  25.183  12.250  14.507
67346W        W35564  30.211  21.764  13.737
67347W        W35565  24.772  38.528  12.569
67348W        W35566  17.865  44.764  12.453
67349W        W35567  10.042  27.009   0.710
67350W        W35568   9.598  14.127   0.306
67351W        W35569  44.762  36.502   0.289
67352W        W35570  10.658  31.997   1.851
67353W        W35571  33.025  34.107  10.709
67354W        W35572  40.993  37.405   1.743
67355W        W35573  14.061  20.674  12.854
67356W        W35574   0.458  31.356   2.870
67357W        W35575  35.378   1.773   1.932
67358W        W35576  32.589  18.839  11.164
67359W        W35577  39.339  15.580  13.945
67360W        W35578  21.448  33.430  14.749
67361W        W35579  30.136  38.532  13.515
67362W        W35580  31.767   1.330  14.037
67363W        W35581  20.737  35.113  11.649
67364W        W35582  44.805  43.629  12.589
67365W        W35583  34.002   9.733   1.841
67366W        W35584  31.627   0.383  10.602
67367W        W35585  38.615  31.426   4.660
67368W        W35586  20.009  21.167  13.381
67369W        W35587   6.228   7.880   4.554
67370W        W35588  20.235  21.001   0.722
67371W        W35589  18.156  41.474  12.014
67372W        W35590  30.950  19.180   4.658
67373W        W35591   1.428  36.682  14.022
67374W        W35592  32.444   2.292   4.144
67375W        W35593  31.993  32.323   4.184
67376W        W35594  19.649  29.562  14.481
67377W        W35595  21.032  33.927   2.112
67378W        W35596   5.706  28.471  13.486
67379W        W35597   0.354  42.823   1.440
67380W        W35598  12.587   3.759   2.329
67381W        W35599  30.981  33.432  14.298
67382W        W35600  22.520  18.004  14.816
67383W        W35601  43.513  25.024   3.633
67384W        W35602  16.051  38.055  14.487
67385W        W35603  17.174  11.225  13.875
67386W        W35604  44.872  14.604  12.006
67387W        W35605  14.190  35.454   0.544
67388W        W35606  33.609  25.442   1.222
67389W        W35607  35.466  19.346   0.874
67390W        W35608  18.252  23.108   4.207
67391W        W35609  17.237  22.789  14.345
67392W        W35610  30.949  44.683   4.029
67393W        W35611  39.325   7.280  13.167
67394W        W35612  32.164  26.498   0.418
67395W        W35613   4.818   7.876  11.081
67396W        W35614  37.993  32.424  14.918
67397W        W35615  10.282  16.500   3.171
67398W        W35616  40.464   2.007   3.672
67399W        W35617   7.137  18.317  12.024
67400W        W35618  27.500  13.856  11.491
67401W        W35619  32.529  42.807  10.576
67402W        W35620  12.232  16.769   0.482
67403W        W35621   5.423  11.502  10.024
67404W        W35622  39.284  31.562   3.200
67405W        W35623  14.927  31.137   1.768
67406W        W35624  10.106  11.916  11.156
67407W        W35625   1.672  41.081  13.817
67408W        W35626  27.783  17.256  13.865
67409W        W35627  37.905  35.246   0.839
67410W        W35628   3.135  12.583  12.782
67411W        W35629  29.483   8.364  14.955
67412W        W35630  38.394  10.317  12.146
67413W        W35631  25.015  28.202   3.128
67414W        W35632  40.434  11.872  10.171
67415W        W35633  26.691  10.114  12.865
67416W        W35634  13.170  43.540  13.310
67417W        W35635   2.228  19.077   1.737
67418W        W35636  34.971  27.441   0.967
67419W        W35637  32.066  31.474  14.200
67420W        W35638  41.937   8.021  10.711
67421W        W35639  44.502  42.996  12.155
67422W        W35640  27.654  40.643  13.955
67423W        W35641  28.317  40.904   4.581
67424W        W35642  32.160  28.585  13.117
67425W        W35643  30.349  12.902  13.321
67426W        W35644  11.306  25.746  10.683
67427W        W35645  33.393  28.478  14.376
67428W        W35646  10.447  42.099   1.768
67429W        W35647  41.882   4.851  12.055
67430W        W35648  17.740  27.425   1.880
67431W        W35649   3.055  42.210  12.479
67432W        W35650   4.665  12.670  14.573
67433W        W35651  28.987   5.744   1.171
67434W        W35652  26.873  12.852   4.289
67435W        W35653  11.591   8.867  10.143
67436W        W35654  18.618  31.385  14.417
67437W        W35655  13.304   1.869  13.988
67438W        W35656  31.140  33.867  11.220
67439W        W35657  29.419  11.688  13.095
67440W        W35658  14.719  35.989   0.779
67441W        W35659  26.425  23.674  13.728
67442W        W35660  43.461  30.901  10.805
67443W        W35661   7.338  40.984   3.391
67444W        W35662  39.927  24.278   1.395
67445W        W35663  41.409  33.912   0.846
67446W        W35664  41.233   2.294  13.286
67447W        W35665  17.826  16.092  11.998
67448W        W35666  19.509  18.124   2.792
67449W        W35667  23.168  14.131  14.847
67450W        W35668  17.154   6.357  11.097
67451W        W35669  23.277  18.055   1.548
67452W        W35670  26.081   7.896   3.390
67453W        W35671   2.907   1.249  13.106
67454W        W35672   1.499  17.666  14.331
67455W        W35673  37.270  19.517   4.556
67456W        W35674  37.161  24.659  13.426
67457W        W35675  15.826   1.302   0.379
67458W        W35676  26.294  17.082  14.016
67459W        W35677  44.205  20.279   1.088
67460W        W35678  34.108  20.556   3.819
67461W        W35679  22.094  14.207  11.939
67462W        W35680  25.769  40.256  14.025
67463W        W35681  37.572  29.100   1.370
67464W        W35682  27.708  41.341  11.954
67465W        W35683  38.040  20.296  14.454
67466W        W35684  38.181   2.793   1.807
67467W        W35685   2.227  28.511   1.796
67468W        W35686  12.329  38.595   2.881
67469W        W35687  35.851  42.977  12.614
67470W        W35688  31.085  17.084   0.344
67471W        W35689  25.064   3.426   2.831
67472W        W35690   1.382  20.681   3.716
67473W        W35691   6.741   9.193   4.238
67474W        W35692  41.629  26.633   4.176
67475W        W35693   3.029  39.003   1.432
67476W        W35694  16.343  25.181  12.042
67477W        W35695   7.273  16.649  12.929
67478W        W35696  27.448  12.611   5.041
67479W        W35697  39.273  10.327   5.304
67480W        W35698  35.281  17.792   3.645
67481W        W35699  25.506  39.288   3.670
67482W        W35700  41.015   1.725  13.748
67483W        W35701  43.758  29.452   3.186
67484W        W35702  12.105   1.093  13.058
67485W        W35703  22.599  17.099  14.269
67486W        W35704   9.177  24.705   4.543
67487W        W35705  32.799  28.493   2.763
67488W        W35706   5.276   8.806  10.666
67489W        W35707  38.343   0.180   3.067
67490W        W35708  22.532  37.921  10.450
67491W        W35709  35.721  33.773   2.379
67492W        W35710  29.449  23.762  10.633
67493W        W35711  21.088  29.422  10.673
67494W        W35712  34.003   9.170  11.404
67495W        W35713  14.696   6.834  12.047
67496W        W35714  20.312  18.647  12.442
67497W        W35715  14.817  21.731   4.403
67498W        W35716  13.555  17.168   4.833
67499W        W35717   3.252  26.922  11.104
67500W        W35718  14.873  32.505   3.234
67501W        W35719  17.752  33.561  14.016
67502W        W35720  43.099  41.979  14.192
67503W        W35721  24.654  30.886   4.410
67504W        W35722  10.250  23.381  12.976
67505W        W35723  35.676  25.635  14.078
67506W        W35724  33.656  20.330  12.044
67507W        W35725  25.819  41.168  11.569
67508W        W35726  13.412  21.961  12.564
67509W        W35727  17.807  28.027  13.868
67510W        W35728  29.624   4.737   0.845
67511W        W35729  28.439   3.850  13.217
67512W        W35730   7.041  24.975   2.629
67513W        W35731  18.498  31.314  12.535
67514W        W35732  27.205   2.776   4.393
67515W        W35733  24.177  11.852  10.573
67516W        W35734   1.543  31.683  12.119
67517W        W35735   5.972  32.796   2.153
67518W        W35736  23.250  11.255  12.386
67519W        W35737   1.399  15.198   4.539
67520W        W35738  10.114  30.100   4.761
67521W        W35739  12.605  19.560  13.380
67522W        W35740  23.201  14.882  12.385
67523W        W35741  20.171   7.271  11.091
67524W        W35742  16.736  38.559  12.508
67525W        W35743  32.655  13.074   3.679
67526W        W35744  27.618  29.261   0.402
67527W        W35745  13.533  39.801  14.473
67528W        W35746  35.824  34.863   0.349
67529W        W35747  44.287  31.055  14.741
67530W        W35748  35.757  12.169  14.341
67531W        W35749  30.383   3.502  13.422
67532W        W35750  34.114  36.911  13.961
67533W        W35751   2.960  34.382  14.434
67534W        W35752  25.027  13.115   3.528
67535W        W35753   5.480   6.474   4.171
67536W        W35754  35.053  37.836  12.588
67537W        W35755  22.023   7.593  12.768
67538W        W35756  10.419   3.923   0.992
67539W        W35757  39.933  31.945  13.402
67540W        W35758  11.048  41.439   1.770
67541W        W35759  34.562  39.794   0.473
67542W        W35760  13.030  44.469   0.319
67543W        W35761  35.140   9.334  12.987
67544W        W35762   4.249  32.042  13.434
67545W        W35763   8.298  44.365  13.519
67546W        W35764  24.075  20.940   3.746
67547W        W35765  39.069  15.358   2.804
67548W        W35766  17.246  22.537   3.152
67549W        W35767  14.029  37.876  14.882
67550W        W35768  41.367  23.676   2.168
67551W        W35769  24.660  30.110  12.584
67552W        W35770   0.568  37.364   4.946
67553W        W35771  38.152   1.263   5.409
67554W        W35772  10.522  22.689   4.836
67555W        W35773  29.986   2.725   0.366
67556W        W35774   2.938   7.700  14.882
67557W        W35775  37.534  24.015  10.758
67558W        W35776  31.231  13.545  14.796
67559W        W35777  23.819  34.139  10.409
67560W        W35778   8.468  23.601   4.627
67561W        W35779  32.935  12.914  12.077
67562W        W35780  34.154   7.184  13.483
67563W        W35781  13.040  12.352   2.020
67564W        W35782  33.929   3.491   0.736
67565W        W35783  20.266  19.381   4.584
67566W        W35784  24.848  21.283   1.152
67567W        W35785  17.783  18.683   1.793
67568W        W35786  13.606  28.412   3.902
67569W        W35787  31.419  10.395  10.974
67570W        W35788  34.014  22.008  12.360
67571W        W35789   7.661   9.101   4.030
67572W        W35790  29.682  12.891  11.165
67573W        W35791  29.912   2.239   3.344
67574W        W35792  31.539  11.821   0.446
67575W        W35793   5.694   8.413  13.716
67576W        W35794  34.658  23.749   1.211
67577W        W35795  22.574  21.658  11.531
67578W        W35796  35.654  26.584   3.553
67579W        W35797  43.806   8.314   1.805
67580W        W35798  19.253  32.533  13.312
67581W        W35799  42.850  36.532  12.458
67582W        W35800  21.673   0.008   2.216
67583W        W35801   1.037  12.058   4.581
67584W        W35802  26.694   2.829   1.889
67585W        W35803  20.562  33.344  14.403
67586W        W35804  36.765  15.603  12.721
67587W        W35805   6.196  22.007   1.478
67588W        W35806   2.476   2.178   2.290
67589W        W35807  30.538   9.380  11.127
67590W        W35808   0.822   6.753   0.048
67591W        W35809   1.730  10.252  14.406
67592W        W35810   3.599  11.866  13.512
67593W        W35811  14.200  22.213   2.824
67594W        W35812  24.549   3.747  10.810
67595W        W35813  43.871  14.001  11.097
67596W        W35814  41.163  14.578   4.137
67597W        W35815  15.276   5.291   2.823
67598W        W35816  22.643   1.535  11.668
67599W        W35817  26.115  13.157   2.576
67600W        W35818   3.320  21.002  14.847
67601W        W35819  37.440   2.526   1.704
67602W        W35820  42.242  30.691  12.047
67603W        W35821  35.493  22.437  13.026
67604W        W35822  38.972  37.066  12.935
67605W        W35823  11.757  20.588  14.844
67606W        W35824  10.788  41.307   2.351
67607W        W35825   8.624  39.483   0.463
67608W        W35826   7.620  10.780   2.765
67609W        W35827  40.827  24.726  12.109
67610W        W35828  22.106  14.814  11.205
67611W        W35829  23.627   3.291  10.732
67612W        W35830  39.434   0.817   2.827
67613W        W35831  34.480  38.280   4.757
67614W        W35832  27.574  27.463   2.624
67615W        W35833  16.628  20.955   0.070
67616W        W35834   3.792  18.573   4.515
67617W        W35835   4.894  19.140   0.443
67618W        W35836  20.105  23.734  14.375
67619W        W35837  25.843  24.517   2.717
67620W        W35838   8.311   9.118   3.256
67621W        W35839  33.500  25.086  13.843
67622W        W35840  31.551  30.920  12.093
67623W        W35841   2.904   9.266  13.731
67624W        W35842  32.620  42.573  13.021
67625W        W35843  17.431  31.137   1.901
67626W        W35844   5.358  14.841  12.908
67627W        W35845   7.721  20.298  14.377
67628W        W35846   0.472  11.292   1.428
67629W        W35847  19.670  32.250   0.361
67630W        W35848  18.556   4.910   2.120
67631W        W35849   2.541  43.539  14.041
67632W        W35850  35.803   9.761   0.367
67633W        W35851  12.057  33.476   1.329
67634W        W35852  43.379  10.165   1.024
67635W        W35853  43.497  12.549  11.436
67636W        W35854  23.241  25.819  11.039
67637W        W35855  27.481  43.829  13.558
67638W        W35856  42.419  37.068   4.819
67639W        W35857  27.838  43.517   2.160
67640W        W35858  26.320  39.109   4.547
67641W        W35859  37.811  37.727   3.681
67642W        W35860  10.776   8.899  12.575
67643W        W35861  40.073  38.763   4.889
67644W        W35862  41.493  40.142   1.571
67645W        W35863  24.631  44.397   2.378
67646W        W35864  25.659  40.319   2.432
67647W        W35865  30.317  34.855  13.800
67648W        W35866  14.604  12.053  14.965
67649W        W35867   4.261  43.890  10.815
67650W        W35868  11.554  36.096  13.995
67651W        W35869  19.935  18.796   1.366
67652W        W35870  17.463  22.158   0.573
67653W        W35871  35.453  37.424  11.592
67654W        W35872  17.038  27.762  13.437
67655W        W35873  24.061  41.916   1.251
67656W        W35874  30.540  27.579   4.168
67657W        W35875  22.269  23.075   0.862
67658W        W35876   0.314   0.321   2.014
67659W        W35877  43.399   5.454  13.128
67660W        W35878  44.250  23.581   0.890
67661W        W35879  30.068   2.485  11.375
67662W        W35880  21.772  42.507   1.444
67663W        W35881  39.988  20.503   3.962
67664W        W35882  40.903  29.938  13.072
67665W        W35883   5.172  28.128   0.445
67666W        W35884  28.627   2.834  14.014
67667W        W35885  41.270  36.409  13.267
67668W        W35886  33.582  23.790  13.406
67669W        W35887  25.012  27.034   1.932
67670W        W35888   0.774  27.459   2.392
67671W        W35889  22.061  10.564  12.464
67672W        W35890  20.731  44.901  10.710
67673W        W35891  40.044  23.817  13.163
67674W        W35892  25.593  44.378  11.992
67675W        W35893  24.174  33.924  10.113
67676W        W35894  10.051   6.200   5.033
67677W        W35895   7.747  13.606  13.851
67678W        W35896   4.883  44.332  10.178
67679W        W35897   8.550   5.743   2.354
67680W        W35898  39.661  13.528   2.771
67681W        W35899  25.641   1.332  13.303
67682W        W35900  30.631  40.636   0.311
67683W        W35901   0.080  29.109  13.335
67684W        W35902  20.552  31.804   4.170
67685W        W35903  33.423  33.901  14.664
67686W        W35904  15.127  14.144   4.657
67687W        W35905  13.393   9.897  10.257
67688W        W35906  20.418  28.061   0.216
67689W        W35907  26.539  38.888  10.735
67690W        W35908  12.971  42.929   4.544
67691W        W35909  15.511   7.737  14.408
67692W        W35910   5.196  36.119   0.912
67693W        W35911  24.175  11.953   4.730
67694W        W35912  22.777  12.129   3.399
67695W        W35913  23.582  38.257   0.375
67696W        W35914   1.983  13.307   4.253
67697W        W35915  31.367  41.716  14.935
67698W        W35916  29.050  21.429  14.873
67699W        W35917  14.366   2.857   0.823
67700W        W35918  21.492  28.935   1.328
67701W        W35919  37.856  17.700   4.471
67702W        W35920  31.005   6.445  10.664
67703W        W35921  20.748   6.013   4.260
67704W        W35922   3.689  21.541  10.610
67705W        W35923  24.715   5.845   0.352
67706W        W35924  44.996   9.517   2.162
67707W        W35925   3.857  21.112  14.405
67708W        W35926  38.263  15.872   4.762
67709W        W35927  29.577   1.483   2.792
67710W        W35928  29.034  31.975   3.270
67711W        W35929  42.742  35.003   0.342
67712W        W35930  35.975   1.456   1.388
67713W        W35931  30.765  36.696  11.188
67714W        W35932  30.559   0.327   0.789
67715W        W35933   5.564  38.903  12.663
67716W        W35934   3.806   5.685   3.127
67717W        W35935   1.317  36.040   4.507
67718W        W35936  12.802  10.210   3.729
67719W        W35937  19.014  37.438   0.987
67720W        W35938  36.702  27.227   2.866
67721W        W35939  31.150   3.564  12.426
67722W        W35940  43.045  42.773  13.767
67723W        W35941  35.559  21.717   2.767
67724W        W35942   2.172  42.064   4.087
67725W        W35943  15.884  21.523  11.581
67726W        W35944   4.380  33.579   0.932
67727W        W35945  26.535  40.415  12.028
67728W        W35946  39.302   1.234  10.118
67729W        W35947  26.491  25.654  12.792
67730W        W35948  13.512  31.305   4.169
67731W        W35949   0.535  16.712   0.262
67732W        W35950  27.368  18.908  13.470
67733W        W35951   3.137  42.074   1.963
67734W        W35952  27.709   2.805  14.533
67735W        W35953  23.131  35.148   4.979
67736W        W35954  17.745  29.430  10.902
67737W        W35955   0.823  18.719  12.159
67738W        W35956   5.629  31.134   4.967
67739W        W35957  41.557  44.835  12.688
67740W        W35958   0.322  10.072  13.138
67741W        W35959  36.661  40.348  12.500
67742W        W35960   6.324  32.572   3.766
67743W        W35961  14.913  37.433  13.155
67744W        W35962  20.760   6.642   1.951
67745W        W35963  10.875  29.822  10.661
67746W        W35964  36.757  14.805   4.127
67747W        W35965  29.478  15.795  13.735
67748W        W35966  12.905  26.985   0.951
67749W        W35967   3.210   4.630   0.303
67750W        W35968  16.178  38.949  10.816
67751W        W35969  35.573  18.653  13.570
67752W        W35970  32.200  43.847  12.576
67753W        W35971  32.466  25.213  13.303
67754W        W35972   0.881   7.774  14.314
67755W        W35973  35.854  33.045  13.895
67756W        W35974  36.994  19.156   3.683
67757W        W35975  22.453  17.795   2.340
67758W        W35976   6.996  35.708   4.167
67759W        W35977  23.997  12.653   4.056
67760W        W35978   8.350   8.889   1.443
67761W        W35979  30.593  26.469   1.339
67762W        W35980  18.138   2.180   2.795
67763W        W35981  17.683   7.812  10.414
67764W        W35982   0.346  20.844   3.386
67765W        W35983  18.130  18.066   3.174
67766W        W35984  42.428  20.552   3.180
67767W        W35985   9.397  18.190  10.907
67768W        W35986  18.222  14.747  13.795
67769W        W35987  13.114  20.272  10.605
67770W        W35988  44.757  34.456   4.172
67771W        W35989  42.940  29.379   0.049
67772W        W35990  14.034  25.311   5.288
67773W        W35991  33.042  40.938   2.212
67774W        W35992  24.323   6.606   1.253
67775W        W35993  10.596  14.201   1.484
67776W        W35994  22.345   0.928   3.703
67777W        W35995  32.294   5.226   4.065
67778W        W35996  37.791  20.257  14.933
67779W        W35997   7.193  10.595  12.320
67780W        W35998  19.420  42.972   4.979
67781W        W35999   9.979  13.027  11.180
67782W        W36000  37.832  14.824  12.559
67783W        W36001   7.780  22.041   2.674
67784W        W36002  11.793  39.078  11.161
67785W        W36003  30.998  17.686   2.680
67786W        W36004  19.935  12.189   0.882
67787W        W36005   7.929  27.932  10.635
67788W        W36006  37.502  32.259  12.938
67789W        W36007  12.161   7.688  11.622
67790W        W36008   9.781  24.257  14.252
67791W        W36009  40.703   5.421  12.602
67792W        W36010  20.148   8.128  12.430
67793W        W36011   3.284  36.891  14.284
67794W        W36012  25.105  16.792   1.724
67795W        W36013  36.321  39.908  12.495
67796W        W36014  31.559  33.224  14.133
67797W        W36015  13.660  22.785  14.852
67798W        W36016  27.818  17.825   4.613
67799W        W36017  13.751  18.150   4.538
67800W        W36018   6.251  24.526   1.797
67801W        W36019  39.887  38.591  12.151
67802W        W36020  27.047  22.449   1.442
67803W        W36021  12.237  14.561  13.992
67804W        W36022  42.437  32.366  10.713
67805W        W36023  37.147  20.363   3.145
67806W        W36024   1.904  35.705   3.146
67807W        W36025  26.501  30.178  10.724
67808W        W36026   6.401  32.477  13.993
67809W        W36027  22.752  36.682   4.574
67810W        W36028   7.336   5.197  12.374
67811W        W36029  18.585  26.698  12.117
67812W        W36030  37.945  43.680   1.519
67813W        W36031  20.759  26.625  10.670
67814W        W36032  44.857  39.322  10.769
67815W        W36033  39.526  44.264  13.007
67816W        W36034   9.315  35.466   1.004
67817W        W36035  38.919  22.092   3.234
67818W        W36036  14.058   8.643  12.877
67819W        W36037  25.666   6.207  12.628
67820W        W36038  29.332  32.567   0.857
67821W        W36039  37.936  36.603   4.830
67822W        W36040   4.055  36.314  12.991
67823W        W36041   4.247  14.128  13.870
67824W        W36042  15.882  20.195   3.328
67825W        W36043  40.071  28.570  13.379
67826W        W36044  27.680   7.867   0.997
67827W        W36045  17.721  19.671   1.816
67828W        W36046  12.566  34.661  10.676
67829W        W36047  27.438   8.235   4.253
67830W        W36048  23.446  29.098   0.765
67831W        W36049  42.630  23.677   9.853
67832W        W36050  36.612  21.612  10.904
67833W        W36051  13.834  25.194   3.793
67834W        W36052   3.407   6.441  13.043
67835W        W36053  24.927  30.152   0.421
67836W        W36054  40.086  16.580   0.688
67837W        W36055   6.289  17.002   4.017
67838W        W36056   6.589   0.684   4.564
67839W        W36057  39.879   2.232  13.890
67840W        W36058  10.954  26.970  12.864
67841W        W36059  23.339  25.474  11.434
67842W        W36060  44.596   1.769  12.578
67843W        W36061  16.233  25.283   3.250
67844W        W36062  28.012  15.887  14.503
67845W        W36063  42.765  23.136   1.289
67846W        W36064  40.327  23.588   2.704
67847W        W36065  36.483  18.104  11.571
67848W        W36066   8.012  33.171  10.435
67849W        W36067  30.354  19.184   1.902
67850W        W36068  32.426  31.093   2.817
67851W        W36069  44.758  15.037  11.161
67852W        W36070  15.383  26.451   1.257
67853W        W36071  10.333  10.095  11.450
67854W        W36072  38.428  33.080  10.618
67855W        W36073   0.886   6.227  14.951
67856W        W36074  15.857  39.714  14.015
67857W        W36075  25.231   5.907   1.229
67858W        W36076  34.395  18.521  14.875
67859W        W36077  15.534  33.669  14.936
67860W        W36078   4.960  22.152   3.289
67861W        W36079  24.056  20.262   2.916
67862W        W36080  16.241  31.654  13.919
67863W        W36081  39.509  40.842  13.799
67864W        W36082  41.419  16.199  11.838
67865W        W36083   0.894   2.348   1.884
67866W        W36084  42.514  12.775  13.995
67867W        W36085  42.351  27.735  14.882
67868W        W36086  21.026  33.417   2.257
67869W        W36087  42.482  24.986  14.257
67870W        W36088  28.938  14.674  11.199
67871W        W36089  20.859   6.492   4.906
67872W        W36090  38.707  33.496   4.720
67873W        W36091  26.543  22.168  14.154
67874W        W36092  20.190  30.646  11.116
67875W        W36093  15.415   5.784  12.553
67876W        W36094   5.154  13.128   3.718
67877W        W36095   8.464  37.437   0.260
67878W        W36096  40.004  32.159  13.866
67879W        W36097  44.151  40.385   4.249
67880W        W36098  21.620  10.126   2.347
67881W        W36099  35.573  38.962  12.843
67882W        W36100  36.810  21.981  11.224
67883W        W36101  41.394  34.626  10.642
67884W        W36102  31.359  15.710   2.900
67885W        W36103  18.962   4.636   1.355
67886W        W36104  20.802   7.199  13.383
67887W        W36105  40.406  39.464  12.430
67888W        W36106  30.951  17.066  11.212
67889W        W36107   9.381  36.813   4.100
67890W        W36108  11.703   8.812  14.353
67891W        W36109  23.745  15.126  13.102
67892W        W36110  21.235  22.962  12.999
67893W        W36111  18.758  26.043  14.387
67894W        W36112  22.335  21.620   2.185
67895W        W36113   6.011  18.006  10.237
67896W        W36114  25.247   0.189  12.139
67897W        W36115   6.592  28.939   1.916
67898W        W36116  34.921  30.951   3.185
67899W        W36117  21.774   4.487   0.919
67900W        W36118  36.943  39.938  13.575
67901W        W36119  12.354   1.473   3.706
67902W        W36120   9.187  40.175   2.704
67903W        W36121  43.515  16.747   2.123
67904W        W36122  11.691   1.292   4.199
67905W        W36123  16.526   6.992   2.927
67906W        W36124  25.819  29.375   4.546
67907W        W36125  38.838   0.795  11.237
67908W        W36126  17.649  19.802  14.337
67909W        W36127  19.531  42.279   1.148
67910W        W36128   2.990  22.711   0.879
67911W        W36129  37.543  39.032  13.811
67912W        W36130  43.433  24.897   0.321
67913W        W36131  30.458  44.344   1.722
67914W        W36132   2.815  21.397  10.621
67915W        W36133  16.571  18.553   3.372
67916W        W36134  21.338  27.440  12.555
67917W        W36135  42.746  33.587  12.583
67918W        W36136  35.573  41.330   3.392
67919W        W36137  40.012  41.814   3.582
67920W        W36138  11.504  17.655   1.614
67921W        W36139  20.035   1.322   2.842
67922W        W36140  44.801  14.545   0.911
67923W        W36141   5.988   2.707   2.796
67924W        W36142  12.000   8.801  10.919
67925W        W36143   4.148  23.227   2.617
67926W        W36144  37.803  15.346  14.341
67927W        W36145  27.703  26.498   4.499
67928W        W36146  10.331  17.800  11.193
67929W        W36147  35.423  42.993  14.411
67930W        W36148  14.257  44.138   2.408
67931W        W36149  24.975  10.204  11.236
67932W        W36150   9.713  20.496   1.703
67933W        W36151   2.530  23.864   1.115
67934W        W36152   6.244   1.732   1.779
67935W        W36153  33.146  29.514   1.245
67936W        W36154  15.261  15.348  14.621
67937W        W36155  39.383  43.323   1.339
67938W        W36156  18.799  24.833  13.460
67939W        W36157  24.689   2.139  12.615
67940W        W36158  31.625  24.253  11.123
67941W        W36159   3.433  14.365  13.563
67942W        W36160   8.733  44.413   3.729
67943W        W36161   2.983   3.900   4.825
67944W        W36162  36.517  21.569   0.536
67945W        W36163  25.444  43.319  13.496
67946W        W36164  25.184  13.674  13.018
67947W        W36165  42.322  23.115  12.131
67948W        W36166  28.917  38.413   3.227
67949W        W36167  36.378  36.040  11.936
67950W        W36168  30.968  41.542   2.671
67951W        W36169  42.290   9.253  10.824
67952W        W36170  23.454   4.239  13.925
67953W        W36171  11.020  32.241  13.059
67954W        W36172  12.335  38.044  14.448
67955W        W36173  28.448  37.861  11.623
67956W        W36174  12.301  37.396  11.180
67957W        W36175  44.678  39.837   4.104
67958W        W36176  26.977   2.830  14.897
67959W        W36177  17.256  40.026   0.853
67960W        W36178  43.472   2.716   1.710
67961W        W36179   0.271   5.345  11.091
67962W        W36180  14.279  42.910   1.283
67963W        W36181  15.335  36.748  11.127
67964W        W36182  32.678  41.943   1.508
67965W        W36183  36.884   6.180  11.111
67966W        W36184  40.731   7.737   2.741
67967W        W36185  14.276  44.787  14.689
67968W        W36186  15.061  24.854  11.788
67969W        W36187  17.624  26.609  12.564
67970W        W36188  42.513  17.210  14.892
67971W        W36189  25.634  33.076   4.126
67972W        W36190  23.432  11.805  11.043
67973W        W36191  40.755  35.490   0.328
67974W        W36192  43.576  34.357   0.759
67975W        W36193  17.072  14.729   3.138
67976W        W36194  12.224  44.173   0.408
67977W        W36195  14.213   9.343  13.931
67978W        W36196  16.801  18.574  14.819
67979W        W36197   6.240  16.701   1.105
67980W        W36198   7.247   5.174  14.813
67981W        W36199  10.576   3.935  10.331
67982W        W36200  36.227  15.460   3.723
67983W        W36201  17.647  11.899  12.158
67984W        W36202  44.868  26.042   4.434
67985W        W36203   7.771  40.534  12.571
67986W        W36204  44.195  17.668  12.778
67987W        W36205   6.142  40.932  10.637
67988W        W36206  18.238  18.603   0.699
67989W        W36207  27.085  36.602   2.929
67990W        W36208  43.268  26.962  12.512
67991W        W36209   9.320  34.317  10.643
67992W        W36210  15.008  18.315  14.219
67993W        W36211  16.788  32.594  14.049
67994W        W36212  23.878   3.303   4.857
67995W        W36213  23.133  32.442  11.503
67996W        W36214  39.059  24.497   4.595
67997W        W36215  25.540   0.187  11.262
67998W        W36216   0.302   5.360   3.644
67999W        W36217  42.712   8.549  12.555
68000W        W36218   2.239   7.462  11.648
68001W        W36219   3.188  43.036  12.105
68002W        W36220  14.148  14.624  10.760
68003W        W36221   8.470   1.012   4.959
68004W        W36222  38.997  21.035   4.590
68005W        W36223   3.293  35.334  11.973
68006W        W36224  14.162  42.548   2.106
68007W        W36225  35.090  29.638   5.058
68008W        W36226  20.568  41.009   2.789
68009W        W36227  34.877  31.625   3.789
68010W        W36228  32.503  41.165   3.769
68011W        W36229  31.386  39.372   3.160
68012W        W36230   9.121  15.698  12.784
68013W        W36231  41.030  34.353   4.877
68014W        W36232  44.298  15.950   1.567
68015W        W36233  29.491   5.662   0.443
68016W        W36234  21.581  26.537   4.056
68017W        W36235   3.878   2.254   3.217
68018W        W36236  31.906  18.589  11.999
68019W        W36237   2.732  17.598   1.275
68020W        W36238  25.556  16.026  11.939
68021W        W36239  26.340  18.677   2.901
68022W        W36240  11.643  23.118  14.646
68023W        W36241  14.713  16.747   3.700
68024W        W36242   2.011  33.116   1.657
68025W        W36243  21.982   4.313  12.047
68026W        W36244  30.335  11.816  12.487
68027W        W36245  27.471  41.612   1.554
68028W        W36246  28.551  23.878  10.699
68029W        W36247  11.680  43.020  11.544
68030W        W36248   4.417  23.252  11.678
68031W        W36249  39.258  40.553   0.732
68032W        W36250  17.979  39.345   4.482
68033W        W36251  21.919  42.485  11.742
68034W        W36252  10.233   8.917  13.898
68035W        W36253  33.458  11.841  10.683
68036W        W36254  29.031  40.510  11.256
68037W        W36255  33.580  21.076   2.800
68038W        W36256  12.857  36.372   1.979
68039W        W36257  29.142  17.327  11.153
68040W        W36258  33.951  19.198  10.727
68041W        W36259  21.777  39.483   1.871
68042W        W36260  39.452  22.029  13.498
68043W        W36261  26.244  10.714   4.655
68044W        W36262  41.000  12.829   4.661
68045W        W36263  44.439  33.568  11.164
68046W        W36264  34.055  24.587   1.080
68047W        W36265  33.887  12.390   2.214
68048W        W36266   5.656   5.434  12.923
68049W        W36267   9.071  22.964   3.952
68050W        W36268   0.988  31.896   4.588
68051W        W36269   4.856  25.780   0.798
68052W        W36270  42.713  39.052   1.694
68053W        W36271  36.530  31.872   0.209
68054W        W36272  41.465   7.648   4.699
68055W        W36273  26.461   0.099   3.206
68056W        W36274   6.026   2.563   4.327
68057W        W36275  20.037  14.392  13.862
68058W        W36276  10.179  36.130   2.442
68059W        W36277   9.253   7.866   1.696
68060W        W36278  24.063   3.244  11.980
68061W        W36279  36.430  43.852   2.587
68062W        W36280   5.285  34.416   2.258
68063W        W36281  37.011  18.111   2.670
68064W        W36282   2.615  34.836  14.408
68065W        W36283   7.414   0.318   0.095
68066W        W36284  17.072   2.857   9.918
68067W        W36285   9.719  31.730   0.413
68068W        W36286  24.933   9.682   1.880
68069W        W36287   3.212  39.506   1.638
68070W        W36288   2.829  23.740  11.700
68071W        W36289  37.476  32.825   3.879
68072W        W36290   6.262  30.150  13.778
68073W        W36291  26.011   6.892   2.203
68074W        W36292  16.994   0.856  12.819
68075W        W36293   6.501   3.227   5.038
68076W        W36294  39.019   8.664  10.610
68077W        W36295  27.157  12.707  13.315
68078W        W36296  12.244  11.540  13.540
68079W        W36297  32.041  19.459   0.835
68080W        W36298  43.378  39.590   3.296
68081W        W36299  17.190  24.426   3.629
68082W        W36300  40.431   2.284   1.833
68083W        W36301   0.288   4.365   4.052
68084W        W36302  31.281  27.188   0.317
68085W        W36303   7.744  38.675  12.163
68086W        W36304  35.624  43.038  14.893
68087W        W36305  36.114  40.720   2.205
68088W        W36306   6.807  23.362  12.134
68089W        W36307  44.359   1.262  14.560
68090W        W36308   6.197  21.296   1.748
68091W        W36309  34.020  42.325   2.724
68092W        W36310  41.402  10.702   4.469
68093W        W36311  43.244  34.691  11.561
68094W        W36312  27.657  18.699  13.927
68095W        W36313   6.473   1.151  13.882
68096W        W36314  24.149  33.163  11.979
68097W        W36315  18.275  28.559  12.878
68098W        W36316  10.165  24.447  13.201
68099W        W36317  40.515  34.416   2.913
68100W        W36318   8.658   2.950   2.812
68101W        W36319   5.727  22.610   0.485
68102W        W36320  11.663  13.003   2.289
68103W        W36321  41.793  29.623   0.294
68104W        W36322  30.723  34.251  14.495
68105W        W36323  24.595  20.427  12.070
68106W        W36324  15.729  23.509  13.579
68107W        W36325  16.793  18.270  10.727
68108W        W36326  33.573  27.070  11.853
68109W        W36327  32.219  30.125  13.074
68110W        W36328  29.077  31.628   3.643
68111W        W36329  38.076   7.319  11.041
68112W        W36330  19.326   7.369   3.703
68113W        W36331  11.715  10.789   2.526
68114W        W36332  14.344  32.112  14.034
68115W        W36333  13.310  23.483  10.715
68116W        W36334   7.408   1.298   1.245
68117W        W36335  24.121  10.795  12.050
68118W        W36336   7.399  39.423  11.861
68119W        W36337   4.592  40.445   2.379
68120W        W36338  38.510  29.049   4.152
68121W        W36339   3.600  35.918   5.086
68122W        W36340  33.273   3.684  14.329
68123W        W36341  28.649  26.255   4.642
68124W        W36342   4.738   8.448   5.064
68125W        W36343   3.536  39.742   1.295
68126W        W36344  11.837  22.292   0.944
68127W        W36345  15.697  27.671   1.861
68128W        W36346  15.515  33.797  14.431
68129W        W36347  36.892  17.417   3.249
68130W        W36348  20.602  44.817  14.429
68131W        W36349  30.451  36.885  13.588
68132W        W36350  29.635  10.259  13.338
68133W        W36351  27.721  35.516   3.559
68134W        W36352  12.695  22.236   0.542
68135W        W36353  14.315  31.994   0.029
68136W        W36354  35.874   1.647  13.383
68137W        W36355  29.082  15.709  13.409
68138W        W36356  19.067   2.010  10.288
68139W        W36357  33.009   8.369   1.393
68140W        W36358  20.843   3.252  11.221
68141W        W36359   6.489  36.899  13.089
68142W        W36360  36.932   5.989  10.610
68143W        W36361  31.910   6.939  11.480
68144W        W36362  18.082  42.218  12.551
68145W        W36363  10.311  25.651   1.454
68146W        W36364  31.901  21.352   0.356
68147W        W36365  43.378   4.412  12.848
68148W        W36366   9.928  32.900   1.286
68149W        W36367  27.211  20.601   9.693
68150W        W36368   2.919  34.216   2.609
68151W        W36369  37.339  27.684  13.751
68152W        W36370  38.428  10.162  12.645
68153W        W36371   7.709  39.804  10.993
68154W        W36372  37.982   0.914   4.269
68155W        W36373  43.866  26.258   2.377
68156W        W36374  16.739  25.405  14.206
68157W        W36375  18.500  36.505  14.784
68158W        W36376  43.504   7.623  10.392
68159W        W36377  31.063  24.606   1.738
68160W        W36378  31.529  15.199   1.242
68161W        W36379  20.198   9.616  11.716
68162W        W36380   8.766  25.467  13.981
68163W        W36381  30.061  22.569   2.589
68164W        W36382  16.683   9.871   1.648
68165W        W36383  10.465  32.450   1.691
68166W        W36384  12.667  40.944   4.527
68167W        W36385  15.321  37.613   0.941
68168W        W36386  18.035   4.317   2.786
68169W        W36387  32.509  34.032  14.432
68170W        W36388  28.596   6.502  11.401
68171W        W36389   0.996  34.924   0.904
68172W        W36390  32.540   2.559  12.870
68173W        W36391  41.524   2.414  12.845
68174W        W36392  10.049   3.403  14.150
68175W        W36393  42.480  26.035   2.161
68176W        W36394  32.845   2.172   1.738
68177W        W36395   0.366   6.282  14.914
68178W        W36396  30.001  18.482   2.246
68179W        W36397  16.629  10.299  13.587
68180W        W36398  19.234  31.837   4.232
68181W        W36399  27.480  30.565  10.531
68182W        W36400  28.040  18.612   3.647
68183W        W36401  23.419  24.569  14.950
68184W        W36402  27.456  33.859   4.085
68185W        W36403   6.800  30.618   1.229
68186W        W36404  12.174  30.918   3.250
68187W        W36405  33.463   5.142  10.917
68188W        W36406   1.909  11.717  11.228
68189W        W36407  41.570  42.271   1.435
68190W        W36408  35.074  39.735   4.148
68191W        W36409  25.657  25.970  11.044
68192W        W36410  20.402  14.574   3.619
68193W        W36411   7.922  11.343   3.995
68194W        W36412  32.896  15.623   2.008
68195W        W36413  25.566  20.969  14.317
68196W        W36414  32.389  11.816   3.173
68197W        W36415  34.907  40.810   1.859
68198W        W36416   5.721  38.025  12.889
68199W        W36417  24.709  33.963   4.821
68200W        W36418   2.074  38.567   0.883
68201W        W36419  27.231  25.598   0.518
68202W        W36420   9.361  43.772  13.824
68203W        W36421  44.799  35.801  10.905
68204W        W36422  29.714  20.803   2.206
68205W        W36423  21.747  31.544  14.375
68206W        W36424  11.582  34.424  14.475
68207W        W36425  38.685  40.511   1.415
68208W        W36426  19.778  16.695   1.761
68209W        W36427  11.824  33.583   1.777
68210W        W36428  30.588   9.895   1.350
68211W        W36429  30.636  28.799   0.953
68212W        W36430  23.175  37.089  11.575
68213W        W36431  11.306  25.633   2.911
68214W        W36432  41.574  33.192  12.487
68215W        W36433   9.412  19.134  12.517
68216W        W36434  21.163  21.573  13.067
68217W        W36435   5.053  33.110   3.208
68218W        W36436   7.469   1.136  13.956
68219W        W36437  25.551  30.634   1.917
68220W        W36438  42.551  44.871   0.286
68221W        W36439  41.619  24.639   4.288
68222W        W36440   5.814  23.059   0.880
68223W        W36441   2.821  33.356   0.383
68224W        W36442  25.619  22.747  13.993
68225W        W36443   9.905  21.494   1.715
68226W        W36444  36.195  32.995  11.984
68227W        W36445  34.554  31.081   1.175
68228W        W36446  18.602  16.117   2.260
68229W        W36447   4.353  35.563   0.955
68230W        W36448  41.846  12.721   1.728
68231W        W36449  29.467   9.104   2.368
68232W        W36450  18.416  35.349   3.024
68233W        W36451  35.950  14.374  12.364
68234W        W36452  28.063  37.277  11.916
68235W        W36453  36.340  21.735  11.340
68236W        W36454  42.412  43.371  13.153
68237W        W36455  27.908  29.097   0.792
68238W        W36456   4.496   8.074  13.434
68239W        W36457  32.366   9.835  14.744
68240W        W36458  13.606  30.426   0.842
68241W        W36459   0.413  13.999   1.353
68242W        W36460   5.486  13.149   4.554
68243W        W36461   6.973  30.174   3.565
68244W        W36462  27.407  33.019  11.468
68245W        W36463   1.736  40.754   3.661
68246W        W36464   8.183  10.935  13.406
68247W        W36465  15.098  35.660   0.880
68248W        W36466  21.724  29.895   2.826
68249W        W36467  22.625  42.525  13.699
68250W        W36468  19.620  37.290   3.290
68251W        W36469  43.679  40.274   2.751
68252W        W36470  13.334  42.722   5.086
68253W        W36471   2.918  25.422   3.333
68254W        W36472  11.460  41.929  12.118
68255W        W36473   9.631  16.407  11.904
68256W        W36474  22.691  18.567  14.345
68257W        W36475  35.811  20.023  14.314
68258W        W36476  42.895  12.824  11.716
68259W        W36477   3.246  14.812   4.933
68260W        W36478  43.330  26.365  11.631
68261W        W36479  28.203  32.938  13.617
68262W        W36480  41.731   9.599   2.799
68263W        W36481  28.264   9.185   1.872
68264W        W36482  25.474  11.384   4.720
68265W        W36483  12.785  19.084  10.958
68266W        W36484  10.440  13.875  13.394
68267W        W36485  39.433  21.063  13.569
68268W        W36486  31.369  10.646   0.321
68269W        W36487   5.421  11.337   4.120
68270W        W36488  41.430  17.698  11.194
68271W        W36489   9.785  39.793   3.177
68272W        W36490   2.381  12.183   2.353
68273W        W36491  35.986  18.717   4.088
68274W        W36492  30.866  14.764  10.115
68275W        W36493  30.264  15.839   5.228
68276W        W36494  38.890  18.331  10.256
68277W        W36495   2.211  24.018   1.455
68278W        W36496  24.616  14.709   4.558
68279W        W36497   2.690   8.097   0.836
68280W        W36498   3.793  42.979   2.796
68281W        W36499   2.502   7.200   1.515
68282W        W36500  36.019  44.562   1.834
68283W        W36501  36.454  36.746   0.749
68284W        W36502  28.832  43.907  12.920
68285W        W36503   7.674  42.533  12.085
68286W        W36504  18.748  27.974  11.595
68287W        W36505  18.383  27.206  13.409
68288W        W36506  43.333   1.083  12.847
68289W        W36507  17.036  12.384   4.947
68290W        W36508  30.399  35.644  11.141
68291W        W36509  10.207  15.159   1.267
68292W        W36510  31.071  13.461   4.419
68293W        W36511   9.823  23.045   1.878
68294W        W36512   3.704   6.457   1.504
68295W        W36513   2.630  20.695   3.201
68296W        W36514   9.930  13.778  13.366
68297W        W36515  22.301  33.135  14.875
68298W        W36516  23.508  29.426  14.942
68299W        W36517  35.500  20.226  10.726
68300W        W36518  44.281  20.651  13.049
68301W        W36519  19.782   1.764   3.401
68302W        W36520  21.503   2.933   1.243
68303W        W36521  14.536  25.265  11.004
68304W        W36522  37.693  42.537   5.106
68305W        W36523  17.568   5.989   1.196
68306W        W36524  11.887  17.831   3.180
68307W        W36525  34.495  12.087  10.665
68308W        W36526  41.032  18.794  12.544
68309W        W36527  14.881   6.865  11.551
68310W        W36528   7.740   3.128  12.983
68311W        W36529  29.390  26.691   2.901
68312W        W36530  28.904  35.646  12.913
68313W        W36531  12.725   0.217  12.157
68314W        W36532  38.262  18.301   3.234
68315W        W36533   1.396  44.009  12.594
68316W        W36534  32.947  26.369   0.972
68317W        W36535   2.059  34.633  13.397
68318W        W36536  27.642  20.631  12.660
68319W        W36537  42.009  20.785   2.940
68320W        W36538  22.708  16.848  12.491
68321W        W36539  29.545  34.127  13.474
68322W        W36540  41.690  26.413  13.023
68323W        W36541   7.764  10.215  13.500
68324W        W36542  41.331  34.285  13.990
68325W        W36543  41.953  38.808   0.394
68326W        W36544  38.855  35.075   0.994
68327W        W36545  34.835   5.376  13.826
68328W        W36546  23.477  42.406   4.892
68329W        W36547  24.702  32.534   0.770
68330W        W36548  10.237  18.604   3.014
68331W        W36549   2.047  14.168   5.037
68332W        W36550  20.575  44.698   0.398
68333W        W36551  40.403   2.798   3.165
68334W        W36552  37.833  17.538   4.980
68335W        W36553  32.907  33.484   3.664
68336W        W36554   2.261  16.494   2.875
68337W        W36555   4.757  30.929  12.571
68338W        W36556  32.526   1.194   3.218
68339W        W36557  26.589  41.966  12.166
68340W        W36558  32.877  42.221   2.672
68341W        W36559  40.772  10.923   0.457
68342W        W36560  26.553   2.221   1.027
68343W        W36561  43.468  11.210  11.214
68344W        W36562  43.029   9.316  11.599
68345W        W36563  27.670   4.211   0.833
68346W        W36564   0.908  23.744  12.023
68347W        W36565  29.480  25.833   3.318
68348W        W36566  34.910  35.455  11.852
68349W        W36567  18.951  18.760  10.926
68350W        W36568   8.861  17.165  12.486
68351W        W36569  15.360  18.030  10.194
68352W        W36570  17.790  24.776   0.358
68353W        W36571  10.145   9.293   0.703
68354W        W36572  40.830  10.428  11.887
68355W        W36573  40.966   5.475  10.623
68356W        W36574  17.204  38.888  11.309
68357W        W36575  30.942  19.723  14.389
68358W        W36576  42.966  18.153   1.809
68359W        W36577  43.756  33.457   2.413
68360W        W36578  33.138  39.558   3.701
68361W        W36579  44.379   0.754  14.771
68362W        W36580  16.795  36.332  13.842
68363W        W36581   4.667  12.297   0.941
68364W        W36582  30.118  12.927  12.723
68365W        W36583  40.827  19.381   0.982
68366W        W36584  41.430   5.343   4.226
68367W        W36585  41.076  21.654  12.973
68368W        W36586  24.441  15.820   2.177
68369W        W36587  18.668  16.271   3.769
68370W        W36588   7.417   7.501   0.440
68371W        W36589   8.913  25.261  13.514
68372W        W36590   4.157  34.148  11.486
68373W        W36591   9.406   7.655   0.321
68374W        W36592   5.614  30.376   4.555
68375W        W36593  42.748  30.162   4.686
68376W        W36594  23.772  21.106   0.914
68377W        W36595  23.277  15.565   0.775
68378W        W36596  30.738   6.223   3.942
68379W        W36597  34.536   0.649   2.749
68380W        W36598  38.918  37.578   5.011
68381W        W36599   2.419  33.447  14.051
68382W        W36600  43.731   7.737   0.010
68383W        W36601   1.476  36.492   2.782
68384W        W36602   7.927   2.902   3.988
68385W        W36603  40.269  19.268   1.802
68386W        W36604  17.286   3.744   1.379
68387W        W36605  19.599   5.507  10.962
68388W        W36606  25.159  27.222   3.923
68389W        W36607  22.744  25.173  13.884
68390W        W36608  31.781  29.140  13.816
68391W        W36609  38.798  28.546  14.412
68392W        W36610  24.708   1.960   3.719
68393W        W36611  15.485  17.824  13.508
68394W        W36612  23.720   9.915   2.717
68395W        W36613  34.400  37.498  11.642
68396W        W36614   1.835  31.943   1.551
68397W        W36615  21.234  21.948  13.926
68398W        W36616  25.586  43.651  12.752
68399W        W36617  16.768  22.655  10.418
68400W        W36618  37.211  33.129   9.986
68401W        W36619  33.746  11.867  11.117
68402W        W36620  26.950  28.407   3.425
68403W        W36621  26.044  10.601  12.039
68404W        W36622  36.619  41.052  14.120
68405W        W36623  10.600  31.431  14.400
68406W        W36624  29.397  42.766   4.207
68407W        W36625  13.615  33.847   4.136
68408W        W36626  27.548  31.279  14.905
68409W        W36627  14.742  19.402   5.364
68410W        W36628  28.577  35.489   2.735
68411W        W36629   4.445   7.341  13.884
68412W        W36630  37.376  23.472   4.623
68413W        W36631  20.625   0.974   3.246
68414W        W36632  12.269   9.328  14.061
68415W        W36633  29.236  22.567   1.976
68416W        W36634  38.758  27.858  12.526
68417W        W36635  23.613   7.600   1.214
68418W        W36636   3.241   5.707   1.213
68419W        W36637  31.131  19.156   2.293
68420W        W36638  15.368   0.852  14.999
68421W        W36639  39.354   5.415   3.414
68422W        W36640  14.624   5.543  12.494
68423W        W36641  36.124  31.002   0.950
68424W        W36642  39.177  23.676  13.032
68425W        W36643  21.274  40.771  12.445
68426W        W36644  22.726  29.474  12.009
68427W        W36645  19.746  23.060   0.643
68428W        W36646  14.442  15.719   4.519
68429W        W36647  39.350   6.808   3.342
68430W        W36648  31.992  23.087   0.780
68431W        W36649  24.981  34.610   0.746
68432W        W36650  41.804  16.652  11.069
68433W        W36651   7.809   3.262   0.294
68434W        W36652  33.009  34.806  12.910
68435W        W36653  42.565   6.587  12.558
68436W        W36654  31.855   8.346  12.136
68437W        W36655  30.521  19.664  12.846
68438W        W36656  38.423  35.467  13.948
68439W        W36657  38.001  28.446   3.617
68440W        W36658  16.555  44.340   3.295
68441W        W36659  20.624   2.145   1.870
68442W        W36660  25.794  31.580   3.385
68443W        W36661  11.718  23.073   3.703
68444W        W36662  23.375  29.756   2.404
68445W        W36663  15.204  25.691   3.750
68446W        W36664  44.635  38.024  12.816
68447W        W36665  37.653   5.254  10.665
68448W        W36666  13.933   7.358   1.223
68449W        W36667   7.384  26.172   4.851
68450W        W36668  44.416  10.166   5.154
68451W        W36669  20.366  33.124  13.587
68452W        W36670  21.087  17.647   3.752
68453W        W36671  20.045  10.893   0.200
68454W        W36672  11.407  37.523   1.235
68455W        W36673  32.091   9.956   1.182
68456W        W36674  40.629  14.549   3.321
68457W        W36675   0.215  44.402   3.105
68458W        W36676  19.796   1.729  12.804
68459W        W36677   9.335   7.243  12.519
68460W        W36678  44.691  11.287   3.904
68461W        W36679   5.291  24.621   2.904
68462W        W36680   4.625  37.745  11.286
68463W        W36681   1.756   3.377  13.555
68464W        W36682  31.827  12.075   2.304
68465W        W36683  16.116   2.045   3.289
68466W        W36684  12.728  14.343   2.776
68467W        W36685   9.272  37.319  12.465
68468W        W36686  37.729  41.408   4.721
68469W        W36687  14.879  16.234   0.734
68470W        W36688  41.625  21.741  13.050
68471W        W36689   8.823   4.867   0.522
68472W        W36690  15.125   1.733  13.987
68473W        W36691  15.086   2.466  10.209
68474W        W36692   1.782  27.326  14.014
68475W        W36693  41.811  28.694  12.894
68476W        W36694   3.354  38.296  11.507
68477W        W36695  24.515   9.234   0.502
68478W        W36696  33.661  25.745  13.444
68479W        W36697   9.779  36.518   4.747
68480W        W36698  40.566  39.045  13.907
68481W        W36699  38.424  24.966   4.940
68482W        W36700   0.331   3.912   2.390
68483W        W36701  12.332  43.771   4.206
68484W        W36702  33.610  16.117  11.098
68485W        W36703  44.990  19.248  12.207
68486W        W36704   2.461  33.131   1.939
68487W        W36705   1.450  17.277   4.838
68488W        W36706  39.380  13.343   4.164
68489W        W36707  43.020  43.781  14.382
68490W        W36708  42.579  43.212   5.022
68491W        W36709   4.334  34.667   3.819
68492W        W36710  40.991  29.929   3.420
68493W        W36711  22.086   9.602   1.802
68494W        W36712   6.484  13.274   1.494
68495W        W36713  30.607   0.477  10.751
68496W        W36714  31.555   9.215  14.591
68497W        W36715   6.118  10.417   0.264
68498W        W36716  41.288   6.102   5.136
68499W        W36717   6.876   3.778  13.540
68500W        W36718  17.297  38.124  13.123
68501W        W36719  35.031   5.342   4.465
68502W        W36720  14.402  30.522  10.995
68503W        W36721  32.114  41.029   2.659
68504W        W36722   4.127  25.123   1.396
68505W        W36723  20.231   5.230  10.939
68506W        W36724   8.118  14.922   1.368
68507W        W36725  14.624  36.117   2.545
68508W        W36726  22.664  40.582   4.181
68509W        W36727  19.452   5.331   0.969
68510W        W36728  37.932  43.040  10.718
68511W        W36729  11.716  42.319   2.148
68512W        W36730  26.189  22.653   1.729
68513W        W36731  37.780  17.232  13.530
68514W        W36732  13.622  18.130  11.574
68515W        W36733  38.953  14.521  14.930
68516W        W36734  40.111  23.133   2.830
68517W        W36735  21.245  18.297  12.527
68518W        W36736  16.397   7.703   4.225
68519W        W36737  21.654  41.527   3.018
68520W        W36738  33.368  44.328   1.286
68521W        W36739   1.148  22.968  12.605
68522W        W36740   5.401  40.423  10.252
68523W        W36741  36.088  22.191   2.977
68524W        W36742  43.072   8.785   3.804
68525W        W36743  13.319  40.299  13.578
68526W        W36744  24.659   6.941   1.457
68527W        W36745  13.099   1.466  13.728
68528W        W36746   0.441  35.381   3.210
68529W        W36747  40.342   0.839  12.150
68530W        W36748  44.388  26.164  12.675
68531W        W36749  42.693  36.637   2.682
68532W        W36750   5.841  26.381  13.404
68533W        W36751  29.048  23.715  10.293
68534W        W36752   1.968  43.327   0.957
68535W        W36753  20.825   4.939  11.133
68536W        W36754  10.413  16.503   0.396
68537W        W36755  17.758  35.755   2.307
68538W        W36756  42.948  41.979   3.288
68539W        W36757  37.473   8.432  12.110
68540W        W36758  14.423   2.443   4.630
68541W        W36759   9.879   9.265  14.125
68542W        W36760  34.537   9.181   0.360
68543W        W36761  19.806  36.243   4.668
68544W        W36762  16.159  26.157  14.467
68545W        W36763  17.632   4.893   4.472
68546W        W36764  23.005   2.851   1.144
68547W        W36765  14.438  21.060  10.060
68548W        W36766  31.004  40.258   0.363
68549W        W36767   4.756   6.445  13.978
68550W        W36768  11.390  20.289  11.643
68551W        W36769   6.975  21.995  11.678
68552W        W36770  34.909  11.336   0.435
68553W        W36771  29.754  33.518   1.953
68554W        W36772  16.542  22.158  12.583
68555W        W36773  25.969  25.030  11.058
68556W        W36774  40.898  25.912   1.468
68557W        W36775   1.220  41.831   1.192
68558W        W36776  38.128   6.434   3.701
68559W        W36777  21.833  40.742   3.862
68560W        W36778  17.221  12.169   0.381
68561W        W36779   6.159   2.983  14.504
68562W        W36780  29.140  43.221   3.249
68563W        W36781  14.329  30.862   2.936
68564W        W36782   3.286  12.040   2.871
68565W        W36783  35.016  36.822   0.361
68566W        W36784  16.102  31.050  13.200
68567W        W36785   5.240   0.453   2.854
68568W        W36786  27.572  31.079  10.714
68569W        W36787  24.635  42.425   0.987
68570W        W36788   6.043  18.967  11.144
68571W        W36789   7.318  40.690  13.753
68572W        W36790  11.500  33.533  10.822
68573W        W36791  28.092   9.449  14.451
68574W        W36792   6.266  36.040   0.047
68575W        W36793  33.483  23.199   0.342
68576W        W36794  31.165  36.554  10.749
68577W        W36795  30.099  11.235  14.037
68578W        W36796   6.927   5.815  12.169
68579W        W36797  22.962  17.744   3.201
68580W        W36798  32.062  27.956  14.460
68581W        W36799  42.238   9.437  13.458
68582W        W36800  10.179   5.395  11.899
68583W        W36801  33.358  15.651  12.368
68584W        W36802  19.984  26.440  11.259
68585W        W36803  38.990  11.635   2.872
68586W        W36804   3.354  12.586   0.931
68587W        W36805  29.114   9.834  10.375
68588W        W36806  39.388  17.434  12.621
68589W        W36807  25.235  42.976   4.624
68590W        W36808   9.710  29.682   1.319
68591W        W36809  10.660  25.750  13.401
68592W        W36810   1.009  21.094  14.460
68593W        W36811  15.274  32.458   4.104
68594W        W36812  44.844  25.535   0.723
68595W        W36813   2.990  24.742  14.968
68596W        W36814   9.474   9.599  11.162
68597W        W36815  40.337  13.192   1.406
68598W        W36816  34.504   9.573   4.145
68599W        W36817  21.980  33.346  12.057
68600W        W36818  35.537  24.205  10.717
68601W        W36819  40.070  18.299   4.424
68602W        W36820  23.582  18.670   4.396
68603W        W36821   6.979  33.882  11.132
68604W        W36822  33.560  32.290   3.365
68605W        W36823  32.450  30.931  13.388
68606W        W36824  12.508  22.197  12.773
68607W        W36825  37.119   6.269  13.589
68608W        W36826   3.471   7.758   1.045
68609W        W36827  37.815  28.058   2.948
68610W        W36828  41.743  28.801   4.640
68611W        W36829  23.170  43.932  10.957
68612W        W36830  37.441   0.218   4.137
68613W        W36831   6.074  21.444  11.737
68614W        W36832  34.614  30.765  13.345
68615W        W36833   1.382  38.564   0.666
68616W        W36834  11.652  11.657   2.277
68617W        W36835   1.307  35.868   1.292
68618W        W36836  43.546  41.145  11.200
68619W        W36837   4.485  14.935  14.480
68620W        W36838  40.018  40.773  14.398
68621W        W36839  21.971  40.445   2.683
68622W        W36840  27.270  13.705  14.851
68623W        W36841  28.854   4.808   2.815
68624W        W36842  23.804   8.708   3.671
68625W        W36843   1.188  37.653   1.655
68626W        W36844   7.738  18.278   1.937
68627W        W36845  24.094  29.754   0.704
68628W        W36846  18.560  37.093  12.486
68629W        W36847   2.370  44.472  12.533
68630W        W36848  31.166   7.930   0.415
68631W        W36849   0.317   6.660  12.543
68632W        W36850  12.964  25.072  12.702
68633W        W36851   1.249  28.597   0.817
68634W        W36852  20.454   5.279  10.474
68635W        W36853  44.724   4.774  13.534
68636W        W36854  33.645  31.767  12.613
68637W        W36855  18.446  25.045  13.098
68638W        W36856  24.440  25.969  13.983
68639W        W36857  24.978  44.373   0.797
68640W        W36858  43.286  39.293   4.253
68641W        W36859  16.645  15.129  11.416
68642W        W36860  27.644  25.222  12.871
68643W        W36861  14.603  43.700  11.159
68644W        W36862  16.381  35.056   0.262
68645W        W36863  44.845  10.383   4.890
68646W        W36864  41.227  25.564  11.605
68647W        W36865  32.634  23.511  10.719
68648W        W36866  17.539  11.169   2.245
68649W        W36867  37.978  34.615  11.660
68650W        W36868  25.806   0.205   0.307
68651W        W36869  28.619  23.930  13.795
68652W        W36870   8.314  16.100   2.722
68653W        W36871  34.666  17.415   3.248
68654W        W36872  26.003  26.642   2.375
68655W        W36873  41.343  19.957  12.944
68656W        W36874  18.328   0.409  13.187
68657W        W36875  42.466  35.444   1.194
68658W        W36876  32.627  18.717  13.418
68659W        W36877  41.527  43.706   0.305
68660W        W36878  28.539  42.214  12.551
68661W        W36879  26.744  25.493   0.937
68662W        W36880  43.469  22.797  13.860
68663W        W36881  11.758  18.841   4.171
68664W        W36882  24.147   5.424  11.055
68665W        W36883  30.938  27.149  12.932
68666W        W36884  13.835  39.776   0.264
68667W        W36885  14.873   3.791  14.242
68668W        W36886  35.014   1.895   5.042
68669W        W36887   1.163  39.157  13.090
68670W        W36888   1.255  34.169  13.408
68671W        W36889  33.879  15.133  11.189
68672W        W36890  26.440  42.598   1.278
68673W        W36891   4.504   4.437   3.149
68674W        W36892  30.679  30.432   2.831
68675W        W36893  14.085  33.149  12.512
68676W        W36894   9.576   8.291  13.920
68677W        W36895  37.259  23.303   2.660
68678W        W36896  28.111   4.655  13.900
68679W        W36897  33.049   2.020   3.756
68680W        W36898  33.388  29.738   1.849
68681W        W36899  23.542   8.242  12.877
68682W        W36900   8.427   7.453  12.704
68683W        W36901   8.466  17.883   4.054
68684W        W36902   6.642  39.325   3.365
68685W        W36903  32.461  20.736   0.659
68686W        W36904   7.942  40.515  11.618
68687W        W36905  18.107  14.137   2.601
68688W        W36906  42.991  31.119  10.956
68689W        W36907  39.349  33.932   0.786
68690W        W36908  26.400  36.067  13.321
68691W        W36909  25.844  13.545   1.754
68692W        W36910  27.163  38.467   3.684
68693W        W36911   4.833  28.245  13.801
68694W        W36912  11.914   2.166  12.432
68695W        W36913  34.515  30.377   0.127
68696W        W36914  30.896   4.597   4.043
68697W        W36915  40.956  39.518   2.933
68698W        W36916  27.507   0.984  10.648
68699W        W36917  37.595   4.119   2.152
68700W        W36918  33.826  36.830   3.296
68701W        W36919  18.659  36.627   1.287
68702W        W36920  23.048  19.319   3.606
68703W        W36921  14.529   1.735   0.506
68704W        W36922  36.368  12.870   0.347
68705W        W36923  32.749  21.806   3.868
68706W        W36924  29.663  26.035   4.500
68707W        W36925  31.187   1.287   4.650
68708W        W36926  44.542  15.798   4.090
68709W        W36927  37.376  41.302   4.339
68710W        W36928   9.086  40.844  11.341
68711W        W36929  40.821   4.723  12.904
68712W        W36930  14.931  12.534   1.243
68713W        W36931   0.656  20.034  11.125
68714W        W36932   2.317   0.591  14.390
68715W        W36933   1.886  35.281   4.039
68716W        W36934   2.971  36.090   3.874
68717W        W36935  36.335  18.283  12.019
68718W        W36936  12.600  39.409  11.698
68719W        W36937  25.212  22.428   3.447
68720W        W36938  11.917  18.131  10.700
68721W        W36939  33.063  12.206  10.604
68722W        W36940  25.754  34.174   2.374
68723W        W36941   6.293  26.617   1.435
68724W        W36942  11.022  44.889  12.390
68725W        W36943  10.723  30.564   1.030
68726W        W36944  36.102  31.482  14.370
68727W        W36945  21.257   1.820   3.999
68728W        W36946  12.306  39.015  11.013
68729W        W36947  15.571  18.400  10.620
68730W        W36948  11.720   0.522  11.052
68731W        W36949  26.726   5.757   4.090
68732W        W36950  30.920  27.423   0.979
68733W        W36951  34.659  10.776   0.933
68734W        W36952   8.113   8.945  12.565
68735W        W36953  20.936  20.167   4.765
68736W        W36954  42.886  19.525  12.528
68737W        W36955  11.580  40.594  14.823
68738W        W36956  21.629  33.299   4.458
68739W        W36957  33.034  22.118   3.570
68740W        W36958  16.818   1.887   2.191
68741W        W36959   6.404  41.524  11.311
68742W        W36960  27.689  41.428   4.159
68743W        W36961  14.196  27.940   4.644
68744W        W36962  40.942   4.300   4.438
68745W        W36963  44.216   4.799  14.942
68746W        W36964  28.985  22.035   4.023
68747W        W36965  14.691  24.460  11.429
68748W        W36966   7.825   7.308   3.908
68749W        W36967   0.960  31.110  10.543
68750W        W36968  26.696  34.240  10.246
68751W        W36969  14.187  43.371  11.123
68752W        W36970  16.285  20.276   1.555
68753W        W36971   5.953  41.500  11.590
68754W        W36972   0.910  43.079  13.058
68755W        W36973  34.855  12.217  11.697
68756W        W36974  42.135  36.529   2.413
68757W        W36975  15.477   3.340  13.910
68758W        W36976   5.490   4.771   4.505
68759W        W36977  34.510  22.720   0.756
68760W        W36978  37.098  32.159   2.272
68761W        W36979   7.905  24.920   3.678
68762W        W36980   0.299  22.790   0.825
68763W        W36981  35.520  27.432   3.087
68764W        W36982  27.883  26.483  11.586
68765W        W36983  18.047  15.976   1.697
68766W        W36984  24.501  24.106  12.448
68767W        W36985  36.489   6.628  11.185
68768W        W36986  31.999   7.100   1.707
68769W        W36987   3.388  23.296  14.480
68770W        W36988  41.250  33.138  11.123
68771W        W36989   6.325  40.940   4.059
68772W        W36990  41.855   7.583  14.127
68773W        W36991  37.553  41.987   3.760
68774W        W36992  33.349  18.604  14.753
68775W        W36993  21.180  38.290   0.968
68776W        W36994  41.334  32.027   2.391
68777W        W36995  23.704   8.180   0.455
68778W        W36996  33.238  10.093   2.705
68779W        W36997  33.572   8.316  14.313
68780W        W36998  17.070  10.175   4.605
68781W        W36999  43.994   5.748   4.247
68782W        W37000  43.055  15.654  12.405
68783W        W37001  14.639   6.973  13.969
68784W        W37002  36.957  14.756   3.645
68785W        W37003  18.270   9.341  10.678
68786W        W37004  39.343  41.164   2.284
68787W        W37005   8.775  28.639  13.285
68788W        W37006  27.995   6.861   3.293
68789W        W37007   7.245  23.563  11.968
68790W        W37008   4.539  35.896   4.971
68791W        W37009   2.827   7.435   1.200
68792W        W37010  16.160   7.285   1.970
68793W        W37011   0.424   3.302  14.381
68794W        W37012  12.361  30.890  11.632
68795W        W37013  33.096  33.121  13.528
68796W        W37014   9.349   9.667  12.166
68797W        W37015   7.857  39.686  11.986
68798W        W37016  38.391   1.165   3.251
68799W        W37017  39.759  21.395   2.239
68800W        W37018  19.704  42.002  13.097
68801W        W37019  41.634  35.629   1.392
68802W        W37020  21.582   3.484   3.803
68803W        W37021  27.175  29.528   2.925
68804W        W37022  35.559  44.967   4.610
68805W        W37023  35.421  31.464   2.490
68806W        W37024  11.317  24.713   3.352
68807W        W37025  24.108  26.441   3.735
68808W        W37026  24.398  14.368   2.343
68809W        W37027  43.356  32.369   2.690
68810W        W37028  17.362  44.408  14.226
68811W        W37029   2.910  18.101  14.356
68812W        W37030  22.397  27.164   1.309
68813W        W37031  37.521   8.399  14.892
68814W        W37032   4.013   4.779  14.417
68815W        W37033  43.863  23.950   0.315
68816W        W37034  29.795   0.265  11.271
68817W        W37035  42.193   8.438  12.593
68818W        W37036  23.626  30.277   0.373
68819W        W37037  10.399  20.143  12.396
68820W        W37038  11.836  37.124  11.197
68821W        W37039  44.355   7.798  11.459
68822W        W37040  28.659   8.734   2.321
68823W        W37041  32.585  15.583   0.682
68824W        W37042  36.511  44.173   4.688
68825W        W37043  35.496  31.465  13.546
68826W        W37044  28.912  25.095  11.100
68827W        W37045  19.073  28.919   0.333
68828W        W37046   6.648  24.496  13.509
68829W        W37047  31.492   8.227  14.420
68830W        W37048   9.440  19.064   4.285
68831W        W37049  23.349   9.416   1.303
68832W        W37050  41.506   1.456   1.184
68833W        W37051  13.327  27.445   1.808
68834W        W37052  24.680  42.343   3.965
68835W        W37053   0.531  23.051  10.527
68836W        W37054  15.302  26.025   4.166
68837W        W37055  18.672  34.781   4.200
68838W        W37056  26.875  41.647  11.647
68839W        W37057  13.697   3.133  12.544
68840W        W37058  26.525  10.765   2.801
68841W        W37059  10.082  38.121  11.001
68842W        W37060  44.967  14.244   4.273
68843W        W37061   0.294  24.256  14.029
68844W        W37062  24.523   4.388   3.657
68845W        W37063  44.990  16.141   3.439
68846W        W37064  24.008   0.432  12.239
68847W        W37065  39.461  20.624   0.938
68848W        W37066  10.856  26.989  14.021
68849W        W37067  37.390  16.175  14.331
68850W        W37068  33.103  21.183  13.465
68851W        W37069   2.190  37.330  14.110
68852W        W37070   5.171  35.524   4.632
68853W        W37071  35.058  13.514  12.008
68854W        W37072  27.836   5.332   3.687
68855W        W37073  13.028  22.598  12.583
68856W        W37074  21.868  27.563  11.094
68857W        W37075  40.933  11.942  14.770
68858W        W37076  18.739  42.968   2.669
68859W        W37077  26.996  37.118  11.311
68860W        W37078  30.214  30.912  11.043
68861W        W37079   2.925  16.924   3.323
68862W        W37080  37.417  39.596   3.588
68863W        W37081  35.470  27.417   0.791
68864W        W37082   0.105  41.874   4.180
68865W        W37083  44.224   9.357   4.136
68866W        W37084  10.103  29.529   3.274
68867W        W37085  22.144  25.715  10.712
68868W        W37086  27.983  35.127   3.141
68869W        W37087  41.464  34.447   4.116
68870W        W37088   8.380   2.193   0.690
68871W        W37089  24.512  17.188  13.300
68872W        W37090  16.096   9.327   0.219
68873W        W37091  42.344   3.038   2.260
68874W        W37092  39.451  23.076   5.034
68875W        W37093  20.794  13.104   2.990
68876W        W37094  10.312  11.172  14.768
68877W        W37095  14.649  42.409   1.938
68878W        W37096   6.112  41.064   2.655
68879W        W37097  18.035  11.792   1.247
68880W        W37098  20.771  22.561  11.441
68881W        W37099  31.656  37.030  12.362
68882W        W37100  21.464  23.284  13.319
68883W        W37101  23.736  41.551   1.849
68884W        W37102  42.469  39.430  11.635
68885W        W37103   7.400  43.362   0.374
68886W        W37104  43.790  43.938  10.543
68887W        W37105   7.428  32.047   2.819
68888W        W37106  33.977  11.428  13.583
68889W        W37107  41.991  29.898   3.107
68890W        W37108  29.968  16.567   3.628
68891W        W37109   9.102  34.658  13.902
68892W        W37110  44.795  43.325  11.142
68893W        W37111  10.146  34.298  14.474
68894W        W37112  39.893   3.962   3.674
68895W        W37113  31.843   0.956  10.422
68896W        W37114  39.503  39.611   3.683
68897W        W37115  40.427  36.617   0.001
68898W        W37116  31.010  29.402  14.032
68899W        W37117  18.952  14.100  12.066
68900W        W37118  13.300  11.259   2.506
68901W        W37119  30.937  31.652  10.622
68902W        W37120  11.599  34.609   3.225
68903W        W37121  29.320  19.948   2.489
68904W        W37122   9.137  40.428   4.531
68905W        W37123  20.214  14.819   0.054
68906W        W37124  29.199   3.760   0.432
68907W        W37125  33.453   6.450  14.434
68908W        W37126  30.904  22.636   0.216
68909W        W37127  37.467  18.457   5.022
68910W        W37128  40.933   2.470  14.561
68911W        W37129  13.024  37.057  11.569
68912W        W37130  15.064   7.252   3.791
68913W        W37131  25.563   8.596   4.129
68914W        W37132  23.051  33.252  13.473
68915W        W37133  21.266  28.572  14.272
68916W        W37134  39.863  31.689   3.557
68917W        W37135  19.329  16.584  12.102
68918W        W37136  27.134  12.804  11.944
68919W        W37137  28.960  30.633   3.870
68920W        W37138   0.249   9.201  14.413
68921W        W37139  31.400  39.883  14.407
68922W        W37140  19.760   8.049  10.723
68923W        W37141  43.965  36.673   4.421
68924W        W37142  37.654  16.949  11.146
68925W        W37143   2.425  28.935  11.936
68926W        W37144   2.762  27.698   4.721
68927W        W37145  18.048  37.887   0.258
68928W        W37146   6.906  43.449  11.124
68929W        W37147   9.244  41.224  10.329
68930W        W37148  15.014  25.809  13.532
68931W        W37149  27.556   8.210   1.384
68932W        W37150  13.587  20.931  12.771
68933W        W37151  41.747  18.014   4.565
68934W        W37152  44.967  10.821   1.636
68935W        W37153  29.174  37.437   1.263
68936W        W37154  41.614  20.789   2.559
68937W        W37155  19.425   3.034  10.889
68938W        W37156  23.911  42.665   2.278
68939W        W37157  22.900   8.289   0.692
68940W        W37158   4.192  39.102   3.722
68941W        W37159  43.273   7.442  11.418
68942W        W37160   8.702   9.053   1.005
68943W        W37161  22.325  28.977  13.918
68944W        W37162  18.587  29.359  14.335
68945W        W37163   3.311  17.601   3.733
68946W        W37164  26.621  16.135   2.091
68947W        W37165   7.794   6.075  13.311
68948W        W37166  10.766  36.151   1.862
68949W        W37167  29.135  12.471  11.953
68950W        W37168  25.390   9.301  13.464
68951W        W37169  44.339  43.850  13.449
68952W        W37170   9.106  14.699   1.337
68953W        W37171  36.294  39.915   2.346
68954W        W37172  10.804   4.877   4.119
68955W        W37173  37.726  22.634   4.081
68956W        W37174   0.570  32.467   2.345
68957W        W37175  41.288  37.353  12.080
68958W        W37176   9.747  18.650   3.208
68959W        W37177  28.864  26.655  13.706
68960W        W37178  41.623   1.884   0.930
68961W        W37179  32.509   1.208  14.483
68962W        W37180  20.240  26.695  11.998
68963W        W37181   8.882  10.596   2.202
68964W        W37182  24.070  34.927  13.576
68965W        W37183  30.115  22.060   2.675
68966W        W37184   3.804  43.388  11.039
68967W        W37185  20.619   5.408   2.657
68968W        W37186  36.485  40.125   4.241
68969W        W37187  26.596  11.862  13.500
68970W        W37188   6.186  19.256  13.399
68971W        W37189  28.654  16.739  10.791
68972W        W37190  16.039  17.747  13.418
68973W        W37191  43.739   8.910  11.618
68974W        W37192  36.214  41.786  14.800
68975W        W37193  18.271  24.346  14.260
68976W        W37194  12.362  33.078  11.082
68977W        W37195  20.470  22.018   0.313
68978W        W37196  27.668  41.226  14.544
68979W        W37197   8.876  33.611  10.567
68980W        W37198  35.516  37.024   2.668
68981W        W37199  30.062  20.152   1.321
68982W        W37200  29.485  25.541  12.992
68983W        W37201  25.015   5.360  12.533
68984W        W37202  35.740   2.778  14.932
68985W        W37203   3.066  41.412   1.872
68986W        W37204   8.906  34.586  12.916
68987W        W37205  43.399   2.271   0.853
68988W        W37206  25.954   9.247  13.278
68989W        W37207  28.160  10.631   2.324
68990W        W37208  40.325   0.823  14.534
68991W        W37209  43.220   2.009  12.957
68992W        W37210  10.206  11.754   1.378
68993W        W37211  10.531  44.091  14.853
68994W        W37212  38.984  39.086  13.983
68995W        W37213  39.090  18.345  11.122
68996W        W37214  40.654   1.610  14.617
68997W        W37215  18.069  35.440  14.739
68998W        W37216  20.243  13.638   1.838
68999W        W37217  31.476  23.420   1.065
69000W        W37218  11.439  38.760  14.829
69001W        W37219  21.544  23.712   0.941
69002W        W37220   0.699  11.505   1.860
69003W        W37221   6.454  44.325   4.175
69004W        W37222  39.899  24.250   0.468
69005W        W37223  15.910  14.684   0.453
69006W        W37224  21.926   4.628   3.097
69007W        W37225  14.751  30.447  11.406
69008W        W37226  14.731  27.020  14.323
69009W        W37227   9.486  34.175  10.165
69010W        W37228  33.926  37.398  12.820
69011W        W37229   7.504  33.063  14.273
69012W        W37230   4.870  36.220   1.307
69013W        W37231  23.533   3.877  10.950
69014W        W37232  10.858  15.221  14.485
69015W        W37233  18.477   1.175   1.247
69016W        W37234  16.221   6.701   0.740
69017W        W37235  34.785  26.155   3.245
69018W        W37236   7.553  35.135  11.140
69019W        W37237  16.311   5.903  11.196
69020W        W37238  27.388  23.029  11.040
69021W        W37239   6.664  21.096   3.116
69022W        W37240  10.655  39.569   1.077
69023W        W37241   7.275   4.930  11.471
69024W        W37242  39.593  20.307  12.317
69025W        W37243  21.249  30.063  12.805
69026W        W37244  41.035  30.660  14.074
69027W        W37245  30.084  36.932   3.139
69028W        W37246   8.423   2.193  10.723
69029W        W37247  13.850  14.321   0.926
69030W        W37248  16.499  15.156   4.610
69031W        W37249  21.307  14.389   0.393
69032W        W37250  27.500   4.603   4.569
69033W        W37251  11.874  21.066   2.868
69034W        W37252  11.588  39.623   2.849
69035W        W37253  27.524  32.984  10.413
69036W        W37254  19.726  28.330   0.046
69037W        W37255   2.007  27.972   4.217
69038W        W37256  12.490  23.492  13.721
69039W        W37257  25.232  37.581  12.552
69040W        W37258  10.327  36.351   4.717
69041W        W37259   5.177  37.878   0.920
69042W        W37260  36.877  20.007  14.722
69043W        W37261   5.187  34.867  14.993
69044W        W37262  20.572  16.221   4.930
69045W        W37263  31.877  34.449  10.257
69046W        W37264   3.274  23.644  11.015
69047W        W37265  44.443  15.312   3.900
69048W        W37266  18.696   3.582  13.973
69049W        W37267  19.619  18.521   3.175
69050W        W37268   6.358  32.861   3.284
69051W        W37269  27.097  31.114  13.913
69052W        W37270  36.220  42.324  11.693
69053W        W37271  14.354  29.974  13.776
69054W        W37272  40.103  20.207  11.012
69055W        W37273   2.498  38.970  12.045
69056W        W37274  23.944   9.265  13.722
69057W        W37275  36.088  37.094   4.334
69058W        W37276  42.161  11.179  10.721
69059W        W37277  34.130  14.209   2.711
69060W        W37278   5.353  23.295  13.121
69061W        W37279  31.526  39.214   4.136
69062W        W37280  24.267  29.871  11.172
69063W        W37281  22.885  34.094   4.187
69064W        W37282  16.307   8.289  11.602
69065W        W37283  37.143  23.554  13.416
69066W        W37284  21.289  43.990   0.190
69067W        W37285   4.223  34.042  12.476
69068W        W37286  30.594   9.150  10.666
69069W        W37287  10.752  34.709  14.826
69070W        W37288  22.526  42.895   3.850
69071W        W37289   2.880  19.257  13.490
69072W        W37290   2.243   0.807  10.588
69073W        W37291  30.703  17.179   3.397
69074W        W37292  42.368  27.949  13.505
69075W        W37293   9.185  19.767   0.655
69076W        W37294  34.913  33.021  10.737
69077W        W37295  12.742   7.396   4.358
69078W        W37296  12.384  35.349   2.315
69079W        W37297   2.146  11.199   3.372
69080W        W37298  28.920  10.919  13.457
69081W        W37299  36.731   3.774  11.160
69082W        W37300  15.101  12.114  12.017
69083W        W37301  24.197  38.894  13.398
69084W        W37302  35.358   2.237   4.071
69085W        W37303   5.184  41.823  11.326
69086W        W37304  22.679   7.998  12.069
69087W        W37305   8.497  38.457  11.695
69088W        W37306   8.731  15.285   0.659
69089W        W37307  22.761  34.839   3.794
69090W        W37308   0.801  18.457   3.351
69091W        W37309   2.676   7.816  14.452
69092W        W37310  42.037  16.900  12.514
69093W        W37311  10.817  10.575   3.291
69094W        W37312  27.560  43.745  10.827
69095W        W37313   4.163  35.877   3.190
69096W        W37314  28.649   7.697  11.785
69097W        W37315   2.625  40.879  13.081
69098W        W37316  25.600  42.552  14.739
69099W        W37317  30.883  29.568   2.973
69100W        W37318   5.521  20.457   4.423
69101W        W37319  39.899  37.694  13.356
69102W        W37320  27.166  13.771   1.714
69103W        W37321  27.079  13.873   3.333
69104W        W37322  31.900  37.116  11.045
69105W        W37323  29.869  42.816  14.335
69106W        W37324   6.460  17.709  14.842
69107W        W37325   7.794  39.531   2.659
69108W        W37326   5.761   1.632  11.182
69109W        W37327  32.002  34.981  14.052
69110W        W37328  35.317  40.381  14.033
69111W        W37329  32.674   2.662   1.658
69112W        W37330   0.530  20.270  14.559
69113W        W37331  13.740   1.439  11.123
69114W        W37332   5.409  22.170  12.961
69115W        W37333   1.836  19.234  12.377
69116W        W37334  14.778   0.872   9.906
69117W        W37335  11.666  25.051  13.513
69118W        W37336  40.528  38.528   2.311
69119W        W37337   8.249  42.402  13.309
69120W        W37338  40.109  14.839   1.752
69121W        W37339  25.336  34.077  12.126
69122W        W37340  42.833  13.888  13.203
69123W        W37341  44.925   5.502  13.922
69124W        W37342  39.681  41.884   1.869
69125W        W37343  19.530  29.167  13.308
69126W        W37344  20.083  15.131   3.305
69127W        W37345  40.305  14.365   4.201
69128W        W37346  38.570  36.840  12.074
69129W        W37347  29.581  18.242   4.495
69130W        W37348   8.383   1.313  11.218
69131W        W37349  12.723  13.840   2.649
69132W        W37350   9.563  38.844   3.062
69133W        W37351  42.852  40.785   1.488
69134W        W37352  17.752  21.797   0.847
69135W        W37353  40.955  19.187   1.436
69136W        W37354  24.141  14.295   1.878
69137W        W37355  44.687  19.300  10.638
69138W        W37356  27.484  40.089   1.769
69139W        W37357  34.360  29.155   3.169
69140W        W37358  22.931  17.482   0.929
69141W        W37359  20.037  20.286  12.060
69142W        W37360  12.934  20.285   3.653
69143W        W37361  15.076  30.901   0.927
69144W        W37362   4.809  17.907   4.077
69145W        W37363  41.408  12.890  13.970
69146W        W37364  26.556   7.069   1.518
69147W        W37365  38.589  30.689  13.029
69148W        W37366   0.937   8.631   4.263
69149W        W37367   8.767  16.882   0.678
69150W        W37368  26.227   4.711   3.349
69151W        W37369  25.064   4.767   1.263
69152W        W37370  44.496  16.207   3.551
69153W        W37371   2.752  28.924   4.179
69154W        W37372   6.406  23.609  13.488
69155W        W37373   0.226  14.387   2.267
69156W        W37374  22.817  30.708  10.478
69157W        W37375   1.899  32.191  12.932
69158W        W37376  31.625  44.909   2.520
69159W        W37377  36.806  22.233   0.274
69160W        W37378   7.603  31.717  10.352
69161W        W37379  30.089   2.541   4.630
69162W        W37380  31.496  40.238   3.355
69163W        W37381  30.089  23.567   1.546
69164W        W37382  12.782  44.196  13.096
69165W        W37383   3.405   1.980   2.239
69166W        W37384  19.701  44.903  13.347
69167W        W37385  40.951  19.226   0.500
69168W        W37386  29.905   4.713  10.190
69169W        W37387  41.088  19.816   4.128
69170W        W37388  27.793  16.314  14.746
69171W        W37389  42.208  11.130  11.564
69172W        W37390   7.892  32.561  12.514
69173W        W37391  29.986  26.201   0.709
69174W        W37392  11.725  42.045  12.879
69175W        W37393  39.471   0.463   4.954
69176W        W37394  34.399  44.523   4.597
69177W        W37395   6.348   5.189  10.520
69178W        W37396  27.743  27.942  11.466
69179W        W37397   3.071   3.481  13.589
69180W        W37398  38.357   1.240  14.972
69181W        W37399  15.277  41.439   3.702
69182W        W37400  42.231  22.834   4.149
69183W        W37401  21.718   5.252   4.624
69184W        W37402  27.517  17.505  12.563
69185W        W37403  33.595  38.114   2.361
69186W        W37404  28.958  23.638   0.436
69187W        W37405   3.193   5.239  10.638
69188W        W37406  29.911  40.241  14.787
69189W        W37407  19.584  27.940   0.905
69190W        W37408  27.927  25.743  10.553
69191W        W37409  34.568  30.927  11.988
69192W        W37410  33.219   5.440   4.315
69193W        W37411  28.693  41.487  14.401
69194W        W37412  41.568  36.077   1.652
69195W        W37413  17.088  26.063   0.744
69196W        W37414  18.762   0.239  11.677
69197W        W37415  16.792  43.984  14.400
69198W        W37416  27.209  31.018  11.586
69199W        W37417  18.522  28.020  12.059
69200W        W37418  28.622   5.012   3.928
69201W        W37419  42.582  19.166   1.924
69202W        W37420  25.173  12.893  13.541
69203W        W37421   8.891   8.811   2.760
69204W        W37422   0.083  44.952  14.294
69205W        W37423  29.737  12.055  10.778
69206W        W37424  15.755  14.666  14.962
69207W        W37425  11.414   1.251   0.027
69208W        W37426  13.828  16.802   0.480
69209W        W37427  29.330  11.877   5.045
69210W        W37428  37.668  22.069  14.846
69211W        W37429  21.760  15.593  12.432
69212W        W37430  40.331  35.491  12.865
69213W        W37431  27.235   8.935   4.111
69214W        W37432  18.194  32.389   4.342
69215W        W37433   7.919  35.462  12.397
69216W        W37434   5.290   3.431  14.019
69217W        W37435  20.098  15.113   1.380
69218W        W37436  40.290   9.635   1.438
69219W        W37437   4.305  34.549  13.616
69220W        W37438   6.828  12.150   0.443
69221W        W37439  34.468  39.171  13.781
69222W        W37440  12.850  43.755   2.349
69223W        W37441   1.770   2.360   3.926
69224W        W37442   5.210  22.795   1.306
69225W        W37443  20.422   7.404  11.530
69226W        W37444  11.186   5.325  11.272
69227W        W37445  18.595  23.174   3.599
69228W        W37446  40.853  41.306  14.350
69229W        W37447   8.915  14.684   0.339
69230W        W37448  18.226  20.572  14.407
69231W        W37449  43.942  19.578  13.468
69232W        W37450  39.897   5.383   2.282
69233W        W37451   3.618  28.947  12.415
69234W        W37452  12.961  37.500   1.244
69235W        W37453  12.756   1.739  11.961
69236W        W37454  38.883  31.375  14.710
69237W        W37455  38.410  15.310   0.860
69238W        W37456  38.528  26.118   4.473
69239W        W37457  27.990  10.871  13.404
69240W        W37458  38.470  42.739   3.134
69241W        W37459  36.927  35.971  10.691
69242W        W37460  21.926  17.309  12.591
69243W        W37461  40.345  41.759   3.193
69244W        W37462  20.227  34.616  14.791
69245W        W37463  14.840  18.084   0.575
69246W        W37464  27.577  21.008  11.939
69247W        W37465  29.493  40.813  12.948
69248W        W37466  32.697  33.896   1.208
69249W        W37467  30.053   0.767   1.885
69250W        W37468  33.757  31.700   2.829
69251W        W37469   4.840  26.434   2.387
69252W        W37470  39.418   0.051   2.198
69253W        W37471  31.914  26.916  13.361
69254W        W37472  42.513  11.279  11.963
69255W        W37473  26.020  38.990  14.665
69256W        W37474  17.872  15.160   0.856
69257W        W37475  23.176  18.998   3.998
69258W        W37476  44.275  23.264   2.323
69259W        W37477   7.361  22.792  13.284
69260W        W37478  27.722  34.025  14.088
69261W        W37479  18.324  12.469   4.458
69262W        W37480  17.120  27.883   1.381
69263W        W37481  21.303  26.108  12.334
69264W        W37482   6.037  22.108  11.445
69265W        W37483  29.234  35.500  14.207
69266W        W37484  40.988  25.744  12.042
69267W        W37485  12.000  34.968   4.207
69268W        W37486  42.386   2.001   0.236
69269W        W37487  41.022  44.257   1.320
69270W        W37488  13.683  32.983  12.791
69271W        W37489  27.368   4.450   0.445
69272W        W37490  40.609  22.957  12.378
69273W        W37491  26.434  41.407   1.720
69274W        W37492  35.485  34.188  14.569
69275W        W37493   1.975   3.813   3.170
69276W        W37494  21.039  10.801   3.638
69277W        W37495  31.309  25.530  13.056
69278W        W37496  18.393  28.804   4.090
69279W        W37497  39.996  10.986  12.577
69280W        W37498  10.346   9.595  10.593
69281W        W37499  34.757  29.394   2.843
69282W        W37500  20.763  31.703  11.611
69283W        W37501  44.410  14.145   4.069
69284W        W37502  39.353  44.818   0.776
69285W        W37503  19.890  41.880  12.627
69286W        W37504  27.032  43.378   4.511
69287W        W37505  18.212  33.396  13.811
69288W        W37506  17.062  26.152  13.928
69289W        W37507   0.841  14.057  10.300
69290W        W37508  33.453  30.245   3.841
69291W        W37509   8.379   4.358   2.268
69292W        W37510  10.161  22.350   5.068
69293W        W37511  14.145  10.697   3.249
69294W        W37512  32.096   5.180   4.892
69295W        W37513  17.628   1.094  14.277
69296W        W37514  30.668   3.520  13.907
69297W        W37515  40.601  39.337   1.864
69298W        W37516   4.177  40.450   9.709
69299W        W37517  27.120  44.544   0.450
69300W        W37518  25.120  15.371  10.575
69301W        W37519  15.053  18.715   0.059
69302W        W37520  41.569  17.580  14.311
69303W        W37521  37.538   2.170   3.250
69304W        W37522  31.113  27.212   4.158
69305W        W37523   0.698  39.194  12.821
69306W        W37524  43.042   8.929   1.255
69307W        W37525   0.566  16.956   4.869
69308W        W37526  19.040  12.028   1.664
69309W        W37527  17.314  19.842   4.068
69310W        W37528   2.743  21.105   4.793
69311W        W37529  44.260   3.199   1.259
69312W        W37530  32.126  33.392   1.824
69313W        W37531  44.952  24.364   1.343
69314W        W37532  20.754  10.752  14.023
69315W        W37533  29.302  37.611  14.207
69316W        W37534  20.734  18.217  14.464
69317W        W37535  27.028  30.524  13.385
69318W        W37536  10.855   5.864   0.261
69319W        W37537   6.841  13.159   2.337
69320W        W37538  27.165  10.858  13.977
69321W        W37539  11.654  10.357  12.352
69322W        W37540   1.537  40.578   1.857
69323W        W37541  20.640   2.718  12.554
69324W        W37542   2.319  21.573   2.941
69325W        W37543  20.168  30.750   3.116
69326W        W37544   7.800  24.970  11.072
69327W        W37545  30.672   6.205   2.230
69328W        W37546  39.874  17.439   4.511
69329W        W37547   7.837  16.235  12.548
69330W        W37548  32.487   7.824   1.528
69331W        W37549  44.440   3.485   9.944
69332W        W37550  16.176  12.339   1.439
69333W        W37551  28.900   4.652   4.180
69334W        W37552  15.308  25.049   1.750
69335W        W37553  43.011  24.226   3.201
69336W        W37554  30.192   6.340   3.089
69337W        W37555  21.798  10.654   3.742
69338W        W37556   0.954  29.125   4.078
69339W        W37557   8.954  42.521  13.129
69340W        W37558  38.342  12.942   3.710
69341W        W37559  27.409   4.434  11.913
69342W        W37560   7.620  41.781   3.367
69343W        W37561   9.392  21.064  14.763
69344W        W37562   1.441  14.256   0.313
69345W        W37563   2.760  13.029  12.065
69346W        W37564  18.083  26.752  12.715
69347W        W37565  34.148  36.979   2.431
69348W        W37566  26.933  20.719  11.933
69349W        W37567  32.384  38.508   0.580
69350W        W37568   7.356   8.716   1.277
69351W        W37569  15.261  39.529   4.641
69352W        W37570  30.551  24.809   2.783
69353W        W37571  15.576  38.771  14.870
69354W        W37572  14.228  17.235  10.729
69355W        W37573  23.543  23.553  14.449
69356W        W37574  22.773  15.263  14.985
69357W        W37575   4.988   1.389  11.590
69358W        W37576  29.768  17.182  11.665
69359W        W37577  13.989  17.362   5.099
69360W        W37578   3.782   6.226  11.162
69361W        W37579  39.988   6.274  11.153
69362W        W37580  30.498  30.543   2.146
69363W        W37581  23.471  24.511   2.298
69364W        W37582  10.753   5.381  13.394
69365W        W37583  20.081  23.528  13.329
69366W        W37584  16.922  40.485   1.849
69367W        W37585  29.967   0.348  14.993
69368W        W37586  38.433  29.419   1.656
69369W        W37587  12.155   8.969  12.639
69370W        W37588  36.501  32.587   3.833
69371W        W37589   6.514  29.374  13.498
69372W        W37590  38.036  22.827   4.949
69373W        W37591  35.395  28.353   0.836
69374W        W37592  27.522  23.983  14.903
69375W        W37593  16.491   3.946   3.195
69376W        W37594  39.393   9.462   1.823
69377W        W37595  15.331  12.913  12.834
69378W        W37596  36.574   4.697   1.280
69379W        W37597  42.840  13.654  10.957
69380W        W37598  11.116  42.363  14.002
69381W        W37599   6.124  29.119   1.943
69382W        W37600  12.303  16.603   3.136
69383W        W37601  13.302  37.686  12.056
69384W        W37602  34.308   0.728   2.277
69385W        W37603   5.435  37.921   3.333
69386W        W37604  14.239  21.676   2.684
69387W        W37605   9.663   4.300   2.638
69388W        W37606  26.756   4.216  13.351
69389W        W37607   1.453   2.991  14.508
69390W        W37608  29.795  16.396  12.463
69391W        W37609  33.785  35.452   3.384
69392W        W37610  21.542  22.619   0.990
69393W        W37611   7.668  34.535  12.167
69394W        W37612  43.025  16.939  13.997
69395W        W37613  14.885   3.348   4.139
69396W        W37614  15.585  10.454   2.197
69397W        W37615  43.201  20.621  11.660
69398W        W37616   6.891  12.655  10.847
69399W        W37617   1.868  35.882  12.580
69400W        W37618  34.465  43.274   3.212
69401W        W37619  12.531  28.059   0.456
69402W        W37620  23.017  20.754  10.352
69403W        W37621  31.989   3.397  14.793
69404W        W37622  40.275  16.135  14.559
69405W        W37623  38.970  13.045  11.503
69406W        W37624  15.754  44.426  13.394
69407W        W37625  18.418  31.172  13.412
69408W        W37626   2.327   8.156   4.417
69409W        W37627  40.410  23.325   0.817
69410W        W37628  13.420  17.471   1.020
69411W        W37629  21.197  15.265   4.087
69412W        W37630   4.544  12.349  12.991
69413W        W37631   4.537  13.688   0.305
69414W        W37632  30.131  24.513  11.037
69415W        W37633  36.974  25.624  14.348
69416W        W37634  40.918  36.838  14.967
69417W        W37635  44.217  37.064  10.943
69418W        W37636  32.555  25.655  12.639
69419W        W37637  20.107  44.312   1.393
69420W        W37638  14.278   2.518  14.701
69421W        W37639  20.243  20.823   3.600
69422W        W37640  21.085  31.691   1.930
69423W        W37641  22.656  39.534  12.676
69424W        W37642  29.700   5.844  10.518
69425W        W37643  11.569  42.395  14.873
69426W        W37644   8.057  26.016  12.852
69427W        W37645  20.714  42.596   3.388
69428W        W37646  39.486  27.257   3.426
69429W        W37647  25.208  41.998   3.170
69430W        W37648   0.439  43.053   1.902
69431W        W37649  44.256  34.226   2.374
69432W        W37650  40.879  28.159  11.477
69433W        W37651  44.730   2.780   1.333
69434W        W37652  27.187   6.967  13.467
69435W        W37653  35.401  24.192   1.180
69436W        W37654  27.658  13.182   4.231
69437W        W37655   9.462  41.077   2.665
69438W        W37656  13.344  44.018  13.055
69439W        W37657  10.311  31.135  10.732
69440W        W37658   8.379   8.073  11.233
69441W        W37659  40.253   7.722   1.206
69442W        W37660  18.139  28.701  13.825
69443W        W37661  20.542  22.998  14.287
69444W        W37662   7.323  44.652   5.057
69445W        W37663  21.008  13.822   4.785
69446W        W37664   3.204  14.301   2.353
69447W        W37665   1.430  35.079   3.550
69448W        W37666  36.825  35.978   1.194
69449W        W37667  16.132   8.131  11.150
69450W        W37668  34.385  37.425   1.184
69451W        W37669  16.797  11.193  12.412
69452W        W37670  19.160  21.167  11.752
69453W        W37671  18.315   8.840   0.348
69454W        W37672  27.684  39.267   1.456
69455W        W37673  35.757  43.413   4.648
69456W        W37674  36.266  42.780   0.213
69457W        W37675  14.140  12.886  11.335
69458W        W37676  17.250  17.460  11.405
69459W        W37677  38.864   1.549   4.946
69460W        W37678  19.361   0.543   2.683
69461W        W37679  34.818   9.337   3.603
69462W        W37680  39.040  13.157  10.487
69463W        W37681  35.950  28.903   1.264
69464W        W37682  24.054   8.361   1.781
69465W        W37683  24.639  30.149  13.116
69466W        W37684  15.801   5.159  14.120
69467W        W37685  44.406  17.552  10.944
69468W        W37686  14.515  31.008   3.401
69469W        W37687  28.148   4.704  10.581
69470W        W37688  35.516  18.058   1.282
69471W        W37689  28.297  12.504   2.154
69472W        W37690   1.855  26.277  12.825
69473W        W37691  11.250  14.584  13.332
69474W        W37692  42.057  35.488  13.061
69475W        W37693  22.979  31.108  11.059
69476W        W37694  15.048  40.969  11.435
69477W        W37695  28.112  17.091   0.897
69478W        W37696  35.753  36.575   2.688
69479W        W37697  40.803  10.340  12.376
69480W        W37698  39.572  21.474  12.707
69481W        W37699   3.128   6.716  10.488
69482W        W37700  27.873  41.374   5.091
69483W        W37701  15.870  43.558   1.405
69484W        W37702   7.327  34.580   0.298
69485W        W37703  13.077  25.119  14.963
69486W        W37704  16.830  43.982   5.074
69487W        W37705  31.877   6.389  11.789
69488W        W37706   2.878   6.370   1.042
69489W        W37707  26.357  23.555   2.233
69490W        W37708  42.312  34.371  11.884
69491W        W37709  31.934  30.082   4.600
69492W        W37710  12.134   8.325  10.652
69493W        W37711  15.643  33.776   2.498
69494W        W37712   0.274  12.858   0.665
69495W        W37713  29.298   6.968  14.352
69496W        W37714  39.227  10.584   4.043
69497W        W37715  36.867  30.405   4.613
69498W        W37716  10.938  40.244   3.746
69499W        W37717  11.296   0.905   1.322
69500W        W37718  43.658  29.984   3.078
69501W        W37719  34.891  21.412  14.758
69502W        W37720  37.589  29.563   3.196
69503W        W37721   4.149  31.104   4.689
69504W        W37722  41.284  34.885   3.377
69505W        W37723  32.418  38.810   3.819
69506W        W37724  42.593  42.395   1.205
69507W        W37725  14.910   3.591  11.660
69508W        W37726  31.898  26.291  11.811
69509W        W37727  30.026  37.156  13.391
69510W        W37728  18.771  10.756   1.158
69511W        W37729   9.699  12.534  12.598
69512W        W37730   2.901  43.478  14.885
69513W        W37731  22.711  39.875   3.664
69514W        W37732   4.688  10.872   2.187
69515W        W37733  41.046   6.367  13.601
69516W        W37734   3.403  20.517   3.645
69517W        W37735  15.644  29.901  11.359
69518W        W37736   1.961  41.859   2.778
69519W        W37737  23.234  43.767  13.954
69520W        W37738  20.761  24.145   1.473
69521W        W37739  34.942  32.472   0.507
69522W        W37740  35.232  23.284   0.090
69523W        W37741  26.730  17.062  12.027
69524W        W37742  13.010  44.707  12.365
69525W        W37743  26.988   7.778  14.314
69526W        W37744  26.098  38.051  13.679
69527W        W37745   2.434  24.975  12.695
69528W        W37746  25.040  25.213  11.214
69529W        W37747  37.942  12.705   2.364
69530W        W37748  20.279  36.800   2.140
69531W        W37749   2.998  28.455   4.261
69532W        W37750  21.282  35.992  13.902
69533W        W37751  21.702  25.664   4.650
69534W        W37752  18.072  21.307  11.754
69535W        W37753  29.660  37.293  13.045
69536W        W37754   4.425  18.614  12.092
69537W        W37755   0.405  40.313  11.624
69538W        W37756   8.756  23.904   1.945
69539W        W37757  24.819  15.328  14.035
69540W        W37758  41.949  30.669  13.836
69541W        W37759  28.557   0.410  12.401
69542W        W37760  23.256   5.484   0.100
69543W        W37761  22.243  14.323   1.362
69544W        W37762  41.832  22.601  13.583
69545W        W37763  22.279  29.563   4.495
69546W        W37764  26.213  28.129  13.045
69547W        W37765  10.964  14.477   0.563
69548W        W37766  34.543  41.559  11.476
69549W        W37767  14.230  21.768   0.403
69550W        W37768  41.740  37.290  10.430
69551W        W37769  23.524  24.578  11.904
69552W        W37770   1.105  40.097   2.710
69553W        W37771  10.864  16.184   5.204
69554W        W37772  30.892  39.502  13.305
69555W        W37773  33.192  15.182  13.111
69556W        W37774  41.862  12.166   1.283
69557W        W37775  41.904  40.838  14.003
69558W        W37776  27.564  19.014   1.902
69559W        W37777  40.580  10.006  12.042
69560W        W37778  23.747   6.251  11.474
69561W        W37779  40.350  34.183   4.199
69562W        W37780  17.898   4.894   3.654
69563W        W37781   0.963  37.406   4.131
69564W        W37782  21.137   5.828  10.130
69565W        W37783  18.074  39.506  11.094
69566W        W37784  12.461  26.012  11.643
69567W        W37785  20.082  29.531  12.587
69568W        W37786  26.463  29.142   2.749
69569W        W37787  31.102   3.503   2.720
69570W        W37788   3.750   8.508  11.504
69571W        W37789  15.344  36.525  10.665
69572W        W37790  42.562  17.689  10.619
69573W        W37791   7.290  11.437   2.011
69574W        W37792   2.641  14.839  14.624
69575W        W37793  39.113   4.610   4.188
69576W        W37794  28.235   1.154   0.936
69577W        W37795  23.071  39.947   2.196
69578W        W37796  24.493  41.473   0.631
69579W        W37797  25.988  14.041  13.533
69580W        W37798   5.635  30.739  11.102
69581W        W37799  15.702  40.390  10.695
69582W        W37800  33.306  12.231   4.908
69583W        W37801  38.843  44.486  11.110
69584W        W37802  23.276  34.079  13.007
69585W        W37803  11.890  32.822   0.492
69586W        W37804  33.886  38.550   0.204
69587W        W37805  23.067  19.922   4.412
69588W        W37806  22.522  10.053   4.752
69589W        W37807  33.414   7.379   2.722
69590W        W37808  27.183  16.363  14.044
69591W        W37809  40.493  19.216  12.414
69592W        W37810  37.791  30.406  11.241
69593W        W37811  32.199  20.982   4.931
69594W        W37812  42.086  30.025   0.168
69595W        W37813  30.394   9.384   0.021
69596W        W37814  36.134  44.555  12.593
69597W        W37815  17.838  27.341   2.384
69598W        W37816  43.959   2.240  10.542
69599W        W37817  10.273  21.515  10.478
69600W        W37818  16.182  19.494   4.625
69601W        W37819   8.406  33.982  11.213
69602W        W37820  27.456  15.062   1.193
69603W        W37821  29.617   1.353   4.705
69604W        W37822  41.026  29.072   1.267
69605W        W37823  30.513  37.082  11.424
69606W        W37824  36.416   0.343   5.517
69607W        W37825   5.190  40.717   0.891
69608W        W37826   6.157  23.901   1.218
69609W        W37827  22.573  19.277   2.180
69610W        W37828   2.780  28.883   2.297
69611W        W37829  26.404  27.664  10.659
69612W        W37830  21.033  21.290   3.767
69613W        W37831   1.871   8.146   2.278
69614W        W37832  30.234  32.039   4.621
69615W        W37833  22.615  11.401  11.117
69616W        W37834  17.190  43.788  11.655
69617W        W37835  32.494  30.464  12.096
69618W        W37836  21.907  35.502   3.179
69619W        W37837  22.205   5.732  12.982
69620W        W37838  15.901   5.362   0.455
69621W        W37839  43.506   1.760   3.832
69622W        W37840  10.122  15.340  11.428
69623W        W37841  24.096  23.954   1.378
69624W        W37842  17.310  31.997   3.341
69625W        W37843  24.159  24.416   1.589
69626W        W37844  21.533  36.818   1.334
69627W        W37845  44.427  40.999  11.167
69628W        W37846  33.382  25.512  14.749
69629W        W37847  26.087  19.108   3.061
69630W        W37848  12.077   6.803   3.298
69631W        W37849  38.537  23.106   3.955
69632W        W37850   3.696  18.833   4.053
69633W        W37851   9.079  43.335  11.249
69634W        W37852   6.919  36.301  12.428
69635W        W37853   9.788   3.460   2.792
69636W        W37854   0.017   0.834  14.606
69637W        W37855  16.677  24.997   0.549
69638W        W37856  34.042   6.825  13.893
69639W        W37857  22.569  11.725  10.719
69640W        W37858  44.944   1.738   2.436
69641W        W37859  14.832   2.792  11.958
69642W        W37860  31.225  18.972   3.860
69643W        W37861   8.645   8.294  12.126
69644W        W37862   3.232  12.803  11.514
69645W        W37863  29.524   1.153  10.099
69646W        W37864  10.470  18.827  11.185
69647W        W37865  29.906   1.304  14.845
69648W        W37866  24.383  25.454   1.999
69649W        W37867   0.290  13.209  13.809
69650W        W37868  38.598  31.010  14.013
69651W        W37869  41.744  43.431  11.396
69652W        W37870   3.278  39.477  10.617
69653W        W37871   6.951  20.632  11.151
69654W        W37872   4.255  29.657  14.831
69655W        W37873  23.045  27.465  13.303
69656W        W37874   3.195  38.268  12.636
69657W        W37875  35.969   1.646   2.379
69658W        W37876  15.694  28.920   2.586
69659W        W37877  14.075  32.503  13.837
69660W        W37878  36.483  39.289   1.906
69661W        W37879  42.558   2.397  14.414
69662W        W37880  16.061  26.929   1.738
69663W        W37881  26.612  37.824   4.162
69664W        W37882  39.533  24.845  10.531
69665W        W37883  23.380  34.992  13.128
69666W        W37884  22.269  13.251   3.186
69667W        W37885  27.966  24.679  12.004
69668W        W37886   8.836  25.005   3.639
69669W        W37887   6.121  27.487  11.515
69670W        W37888  15.525  15.114   4.557
69671W        W37889  35.942  44.710  12.144
69672W        W37890  10.318  15.093  10.647
69673W        W37891  30.469  41.732   2.314
69674W        W37892  31.949  16.553   0.267
69675W        W37893  18.592  44.934  12.979
69676W        W37894   5.852  36.176   0.322
69677W        W37895  37.607  14.109  14.057
69678W        W37896   4.363  23.555   1.878
69679W        W37897   8.860  24.032  11.521
69680W        W37898   2.756  37.021  10.421
69681W        W37899  22.848  35.542  10.744
69682W        W37900  44.009  12.848   1.896
69683W        W37901  43.940  28.446  11.029
69684W        W37902  28.004  22.721  11.686
69685W        W37903   9.646  17.606   4.100
69686W        W37904  42.824  40.571   0.958
69687W        W37905  33.330  44.872   0.181
69688W        W37906  25.214  37.308  12.987
69689W        W37907  38.492  26.352  10.457
69690W        W37908   1.413  32.384  13.006
69691W        W37909  26.654  15.359  12.520
69692W        W37910  39.748  20.503   2.916
69693W        W37911   6.116  24.119  10.554
69694W        W37912   1.906  26.639   3.435
69695W        W37913   6.372  40.707  14.752
69696W        W37914   9.210  11.376  12.003
69697W        W37915  12.065   3.956   4.151
69698W        W37916  31.629   4.061   1.820
69699W        W37917   6.718  44.858  11.519
69700W        W37918   8.571  22.571   1.659
69701W        W37919  34.612  42.292  12.499
69702W        W37920  20.014  37.942   2.574
69703W        W37921   8.368  42.180   2.339
69704W        W37922  29.893  35.148  14.916
69705W        W37923  40.368   4.640  10.744
69706W        W37924  39.342  12.309  11.905
69707W        W37925   3.482  20.557   1.514
69708W        W37926  40.301  31.105   0.276
69709W        W37927  27.885  18.080  10.228
69710W        W37928  21.395  40.298  10.752
69711W        W37929  14.121   5.654  11.937
69712W        W37930  27.697  35.625  13.484
69713W        W37931   8.879  18.267   5.468
69714W        W37932  19.730  44.199   3.329
69715W        W37933  27.433  13.381  10.740
69716W        W37934   7.744  30.538  14.861
69717W        W37935  34.833  40.893   0.268
69718W        W37936  21.519  27.621   3.545
69719W        W37937  18.649  34.814  13.094
69720W        W37938   4.206  20.123   1.348
69721W        W37939  20.094  14.339  14.843
69722W        W37940   3.341  30.614  10.643
69723W        W37941  23.092  33.926  14.242
69724W        W37942  12.336  44.548  13.395
69725W        W37943   6.723  31.450  13.454
69726W        W37944  34.609  40.980   2.777
69727W        W37945   2.959  17.176   4.625
69728W        W37946  35.010  23.675  13.086
69729W        W37947  34.007   6.286   3.629
69730W        W37948  16.992   0.508   3.721
69731W        W37949   5.719  24.513   3.841
69732W        W37950   1.203  34.336  13.935
69733W        W37951   3.919  43.975  12.443
69734W        W37952   0.311  38.215  14.994
69735W        W37953   7.651  40.951  11.653
69736W        W37954  25.308  30.925   0.873
69737W        W37955   0.402  12.481   4.192
69738W        W37956  19.078  23.512   3.724
69739W        W37957  31.598  10.486   4.526
69740W        W37958  44.444   0.258  13.444
69741W        W37959   3.417   7.355  12.064
69742W        W37960  21.743  13.397  11.976
69743W        W37961   8.860  42.968  12.395
69744W        W37962  34.709   4.181   0.476
69745W        W37963  37.041   2.784   0.499
69746W        W37964   5.267  13.977  13.246
69747W        W37965  32.077   4.761   0.401
69748W        W37966  26.871  37.382   5.064
69749W        W37967   9.828   4.085  11.875
69750W        W37968  27.969  25.077   2.681
69751W        W37969  33.455   2.807   3.680
69752W        W37970  14.143  30.459   3.231
69753W        W37971  17.739  41.722   0.383
69754W        W37972  31.410  31.020   1.282
69755W        W37973  22.003  39.011   3.385
69756W        W37974   5.959  22.753   1.769
69757W        W37975  25.446  13.086   3.247
69758W        W37976   2.230  35.942   2.692
69759W        W37977  40.571  35.330  14.350
69760W        W37978  15.625   2.469  13.915
69761W        W37979  21.226   7.289   1.803
69762W        W37980  25.194  29.149   4.100
69763W        W37981  32.336  26.166  11.033
69764W        W37982  43.694  14.324  10.727
69765W        W37983   1.228  12.343   4.201
69766W        W37984   3.193  31.096  14.493
69767W        W37985  19.876   8.537  14.859
69768W        W37986  43.908   8.510  13.093
69769W        W37987  19.514  43.206   3.018
69770W        W37988  29.438   9.265  10.979
69771W        W37989  30.464  43.515  13.433
69772W        W37990  44.810  24.897   3.156
69773W        W37991  31.028  34.619  11.864
69774W        W37992  24.756  19.142  12.339
69775W        W37993  20.227  24.073   2.288
69776W        W37994   1.225  42.892  10.809
69777W        W37995  41.820  29.008  14.999
69778W        W37996  25.008  40.402   0.824
69779W        W37997  28.656   2.976  11.130
69780W        W37998  15.831  11.604  12.916
69781W        W37999   1.407  25.916  12.882
69782W        W38000  38.010  17.351  14.518
69783W        W38001  44.378   0.425   2.327
69784W        W38002  19.460  33.084  11.644
69785W        W38003   7.641  35.032  11.635
69786W        W38004  23.264  12.107   4.090
69787W        W38005  29.573  27.716   1.685
69788W        W38006  19.046  22.585   0.883
69789W        W38007  16.184  35.142  10.855
69790W        W38008  25.177  29.990   4.675
69791W        W38009  14.418  10.565   4.753
69792W        W38010   3.199  42.355  14.521
69793W        W38011  16.733  36.841  11.141
69794W        W38012  42.413  19.361   3.535
69795W        W38013  29.796   4.760  13.321
69796W        W38014  31.547  16.442  11.920
69797W        W38015  39.884   1.707   0.267
69798W        W38016  43.408  27.577  12.555
69799W        W38017  30.905  36.519  14.773
69800W        W38018  33.504  14.583  11.636
69801W        W38019  18.315  35.060   1.717
69802W        W38020  17.253  32.071  11.456
69803W        W38021  39.921   1.200   0.218
69804W        W38022   8.112  26.505  10.396
69805W        W38023  30.259  21.399  13.373
69806W        W38024   3.184   8.444   2.223
69807W        W38025  14.964   1.725   4.980
69808W        W38026   3.005  37.536  14.500
69809W        W38027  29.405   4.283  11.611
69810W        W38028  26.026  42.444   3.256
69811W        W38029   4.044  24.166   2.362
69812W        W38030   9.973  32.202   0.418
69813W        W38031  41.350  18.388  11.549
69814W        W38032  30.902   4.665   3.230
69815W        W38033  23.943   6.710  14.861
69816W        W38034  21.723  21.267   0.748
69817W        W38035  24.200  29.525  12.917
69818W        W38036  26.335  13.890   0.866
69819W        W38037   5.940  26.415   4.058
69820W        W38038  21.694  41.756  10.521
69821W        W38039  30.416  37.444   4.337
69822W        W38040  13.571   0.303  12.413
69823W        W38041  43.090  24.650  12.225
69824W        W38042  30.018  36.335  13.971
69825W        W38043  21.147  16.041  13.768
69826W        W38044  27.666   0.705  12.469
69827W        W38045  12.356  28.626  12.541
69828W        W38046  29.575  13.086  14.465
69829W        W38047   4.717   0.960   1.644
69830W        W38048   5.441  33.740  13.714
69831W        W38049  24.044   1.728   4.931
69832W        W38050  26.191  13.630   0.446
69833W        W38051  34.826  16.894   1.885
69834W        W38052  38.096  44.856   0.808
69835W        W38053  30.013  33.896   4.113
69836W        W38054  20.252  24.791   3.831
69837W        W38055  26.912  41.513  10.771
69838W        W38056  16.942  17.561   2.867
69839W        W38057   8.930  32.999  14.678
69840W        W38058  39.294  10.652   0.385
69841W        W38059  20.148   6.985   2.258
69842W        W38060  30.204  21.246  14.901
69843W        W38061  35.896  38.540   2.089
69844W        W38062  31.979  40.028  12.774
69845W        W38063  29.068  32.457   2.370
69846W        W38064   6.842  21.219  12.099
69847W        W38065  13.709  31.921  12.418
69848W        W38066  28.052  16.889   2.753
69849W        W38067   0.974  17.636  13.566
69850W        W38068  30.758  22.016   3.783
69851W        W38069  11.301  24.335   4.112
69852W        W38070  18.338   8.349  11.869
69853W        W38071   5.853  31.004   1.341
69854W        W38072  30.126  10.879   0.854
69855W        W38073   0.373  38.308   0.917
69856W        W38074  29.445  25.180   4.050
69857W        W38075   0.973  30.936   3.641
69858W        W38076  29.434  10.209   4.572
69859W        W38077  29.528  37.830   0.043
69860W        W38078  18.624   7.846   3.593
69861W        W38079  26.013   8.650   3.198
69862W        W38080  39.052  19.708   4.211
69863W        W38081  36.286  12.604   2.797
69864W        W38082   6.482   3.455   4.106
69865W        W38083   8.044  40.099   1.071
69866W        W38084  43.901  29.933  12.440
69867W        W38085  35.450  36.040  11.880
69868W        W38086  41.416  43.786  13.836
69869W        W38087   0.752  32.561  12.639
69870W        W38088  25.520  30.350  13.359
69871W        W38089  24.322  13.803   1.798
69872W        W38090  18.679  25.008  13.948
69873W        W38091   4.933  44.243   3.159
69874W        W38092   6.291   8.999   2.764
69875W        W38093  37.891  13.356  14.919
69876W        W38094  13.252  33.207   1.927
69877W        W38095  25.631  15.015  14.326
69878W        W38096  15.114  23.952   3.730
69879W        W38097   1.942  26.740   3.935
69880W        W38098   9.740  40.488  14.256
69881W        W38099   2.463  13.303   1.086
69882W        W38100  31.415  21.511   3.814
69883W        W38101  19.616  16.280   2.884
69884W        W38102  44.566  33.987   2.715
69885W        W38103   1.429   4.433   2.543
69886W        W38104   1.917  32.565   0.059
69887W        W38105   1.334  21.812   2.299
69888W        W38106  18.080  18.162  13.335
69889W        W38107  16.206  40.925  14.499
69890W        W38108   3.350   3.523  12.424
69891W        W38109  44.227   8.851   2.785
69892W        W38110  23.463  43.723  14.431
69893W        W38111   7.656  36.801   2.669
69894W        W38112  36.646  12.105  12.887
69895W        W38113  13.721  19.694   1.650
69896W        W38114  31.093  14.220  10.742
69897W        W38115  15.667  38.621  12.632
69898W        W38116   1.726  26.720   2.543
69899W        W38117  36.101   9.324   0.421
69900W        W38118  30.868  37.122   0.932
69901W        W38119   1.284  16.024  13.812
69902W        W38120  42.040  15.066   0.839
69903W        W38121  10.922   2.213  12.636
69904W        W38122  29.359  22.607  11.063
69905W        W38123   0.662   3.291   2.222
69906W        W38124   2.345  40.945  13.539
69907W        W38125  27.960  40.185   3.615
69908W        W38126   1.328  26.681   0.149
69909W        W38127  44.242   9.712   4.781
69910W        W38128  29.236  35.787  11.169
69911W        W38129   2.950   6.655   0.160
69912W        W38130  17.628  11.616   0.961
69913W        W38131  22.356  23.733   3.956
69914W        W38132  12.451  43.392   2.245
69915W        W38133   7.238  19.188  11.528
69916W        W38134  30.714   1.014  12.937
69917W        W38135   3.475  25.366   3.584
69918W        W38136  32.452  29.854  13.489
69919W        W38137  24.020  42.426   1.455
69920W        W38138  18.462  37.135  14.244
69921W        W38139  44.334  11.263   2.201
69922W        W38140  44.254  18.071   0.310
69923W        W38141  23.672   8.940   4.135
69924W        W38142  22.391  33.276   9.843
69925W        W38143  42.681  29.672   1.914
69926W        W38144  31.128   6.924   1.121
69927W        W38145   7.274  32.993   0.218
69928W        W38146  35.372  17.405  10.706
69929W        W38147  11.092  33.218  10.723
69930W        W38148  32.076  37.699   4.173
69931W        W38149  22.057  22.228  11.215
69932W        W38150  38.492  39.302   0.871
69933W        W38151   8.831  19.107  13.556
69934W        W38152   2.904   3.731  12.642
69935W        W38153  27.675  13.771   3.786
69936W        W38154  42.771  19.223   0.540
69937W        W38155   5.152  38.646  12.535
69938W        W38156   4.257  25.385   0.515
69939W        W38157  36.497   8.787   5.039
69940W        W38158  27.259  39.599   1.340
69941W        W38159   8.584   5.210   1.678
69942W        W38160  15.267  41.268  14.485
69943W        W38161  10.165  17.564  14.334
69944W        W38162  41.470  41.087   0.717
69945W        W38163  30.977  43.029   0.423
69946W        W38164  39.950  22.396   4.609
69947W        W38165  19.099  23.430  14.754
69948W        W38166  36.266  12.933  12.495
69949W        W38167   8.367   1.474   4.061
69950W        W38168  36.352   9.267   3.256
69951W        W38169  26.990   0.017  12.006
69952W        W38170  25.057   2.277  10.717
69953W        W38171  20.697  36.452  11.214
69954W        W38172  33.836  10.627  12.825
69955W        W38173  29.909  30.146  13.451
69956W        W38174  24.042  10.343   2.633
69957W        W38175   0.019  11.445  11.957
69958W        W38176  29.594  40.105   3.632
69959W        W38177   2.044  25.921  10.924
69960W        W38178  22.026  15.612  14.573
69961W        W38179  21.539  34.072  11.974
69962W        W38180  12.196  19.819  14.894
69963W        W38181   7.910  15.919   3.601
69964W        W38182  30.561  10.200   0.433
69965W        W38183  27.703  43.400   3.935
69966W        W38184  21.593  20.102   0.485
69967W        W38185  37.466   8.837   2.285
69968W        W38186   3.938  30.963  11.973
69969W        W38187  25.239   2.961   2.638
69970W        W38188  17.335  29.403  13.901
69971W        W38189  14.270   8.354  12.493
69972W        W38190  19.307  28.857  11.014
69973W        W38191  19.875  20.472  11.619
69974W        W38192  28.909  44.788   4.066
69975W        W38193   8.796  14.184  13.371
69976W        W38194  17.820   9.389   2.785
69977W        W38195  15.041  22.130   4.109
69978W        W38196  11.748  17.090   4.572
69979W        W38197  42.610   0.744   3.547
69980W        W38198  35.918  29.935  11.930
69981W        W38199   7.437  21.445   1.828
69982W        W38200   2.910  40.830  12.033
69983W        W38201  11.314  27.899   1.745
69984W        W38202   8.792  16.131   1.647
69985W        W38203  36.377  23.971  12.954
69986W        W38204  29.557  30.669  11.707
69987W        W38205  19.735  17.170  10.995
69988W        W38206  35.051  14.311  12.354
69989W        W38207  37.892  17.602   2.916
69990W        W38208  31.651  25.475  10.815
69991W        W38209  16.767  41.611   3.771
69992W        W38210  44.413  28.510  12.061
69993W        W38211  38.356  42.244   3.318
69994W        W38212  39.736   9.415  11.174
69995W        W38213  27.379  37.972   2.704
69996W        W38214  36.351  30.195  12.012
69997W        W38215  15.587  13.305  10.668
69998W        W38216  39.481  28.636   4.111
69999W        W38217  38.073  44.683  10.758
70000W        W38218  10.148   1.723   1.428
70001W        W38219  13.312   1.766  11.510
70002W        W38220  37.083  29.227   0.716
70003W        W38221  29.744  30.089   3.332
70004W        W38222  25.117   2.479  14.345
70005W        W38223   7.838  10.596   3.239
70006W        W38224  30.760   5.943   1.765
70007W        W38225  18.349  16.812  11.242
70008W        W38226  24.491  21.359  11.171
70009W        W38227  36.485  40.830   0.540
70010W        W38228  28.205  11.732   0.421
70011W        W38229   3.355  28.644  12.952
70012W        W38230  14.812  38.808   3.198
70013W        W38231  24.778  43.319   1.168
70014W        W38232  31.047  38.909  14.083
70015W        W38233  14.650   3.064   2.341
70016W        W38234  16.800   8.726   0.413
70017W        W38235  25.025   7.679  14.026
70018W        W38236  42.058   8.395  14.362
70019W        W38237  35.558   3.984   0.783
70020W        W38238   0.328  18.080  14.456
70021W        W38239   6.571  10.757   1.027
70022W        W38240  28.357   8.306   3.187
70023W        W38241  16.803  32.008  11.736
70024W        W38242  42.928  21.811  12.743
70025W        W38243  30.952  16.394  10.688
70026W        W38244  18.803  40.787   1.340
70027W        W38245   4.205  39.374   0.283
70028W        W38246  26.214   5.297  12.909
70029W        W38247  25.372  41.425   0.378
70030W        W38248  30.187  44.958  10.671
70031W        W38249  19.725  38.468  13.725
70032W        W38250  14.824  39.355   1.210
70033W        W38251  42.951  34.147   2.285
70034W        W38252  21.236  23.032   4.089
70035W        W38253  35.643   6.924  12.170
70036W        W38254   7.327  38.598  10.650
70037W        W38255  34.608  28.694   3.236
70038W        W38256  28.193  31.028   0.967
70039W        W38257  22.102  36.925   2.740
70040W        W38258   4.601   5.493  11.988
70041W        W38259  28.349  33.975  12.161
70042W        W38260   2.416  26.051  12.003
70043W        W38261  17.750  31.027   4.139
70044W        W38262  30.663  39.298   2.863
70045W        W38263   8.882  31.575  14.796
70046W        W38264   6.290  12.738   2.726
70047W        W38265  44.327  19.886   1.459
70048W        W38266  12.696  29.054  14.763
70049W        W38267  22.483  33.235  13.450
70050W        W38268  44.806  35.762  12.349
70051W        W38269  37.313  38.997  11.997
70052W        W38270  18.011   7.883   4.977
70053W        W38271  16.607  29.610   1.475
70054W        W38272   8.476  30.987  11.002
70055W        W38273  13.618  26.304   3.326
70056W        W38274  44.019   9.834  13.427
70057W        W38275   2.918  28.729   3.202
70058W        W38276  11.907   8.587   0.275
70059W        W38277   4.068   8.366  13.334
70060W        W38278  36.034   1.443  10.719
70061W        W38279  34.404  22.198  11.589
70062W        W38280  10.776  44.279  12.546
70063W        W38281  28.140  27.424  13.891
70064W        W38282  43.434  40.858  12.055
70065W        W38283  30.723  23.354  13.425
70066W        W38284   0.512  30.102   0.727
70067W        W38285  28.690  44.370  12.342
70068W        W38286  13.110  23.666  11.493
70069W        W38287  33.728  41.954  12.576
70070W        W38288  15.816   9.163  13.017
70071W        W38289  15.715  17.766   1.421
70072W        W38290  40.834   5.498  13.498
70073W        W38291  38.442  20.243  11.639
70074W        W38292  20.767  18.589   0.006
70075W        W38293   4.788  37.606   1.643
70076W        W38294  22.428  24.463   2.236
70077W        W38295  15.713  13.327  13.604
70078W        W38296   2.721  36.824   0.270
70079W        W38297   1.698  10.605  14.931
70080W        W38298  34.319  23.311  11.593
70081W        W38299  17.750  28.485   0.814
70082W        W38300  32.554   8.784  14.489
70083W        W38301  35.542  40.459   3.376
70084W        W38302  21.151  37.554   4.524
70085W        W38303  26.138   1.162   2.380
70086W        W38304   5.862  27.014  14.419
70087W        W38305  31.952  32.995  13.855
70088W        W38306   1.191  20.113  11.110
70089W        W38307  25.576   7.290  13.622
70090W        W38308  29.627  15.095   2.906
70091W        W38309  16.755  26.669  11.479
70092W        W38310   3.106  34.585   3.705
70093W        W38311  44.023  15.145   4.665
70094W        W38312   4.884  21.261   1.867
70095W        W38313  12.046   0.942   0.340
70096W        W38314  30.391  14.587   0.761
70097W        W38315  39.837  36.529   2.736
70098W        W38316  41.999  28.714  11.069
70099W        W38317  25.611  15.226  10.431
70100W        W38318  26.783  12.066   3.711
70101W        W38319  34.463  42.522   3.593
70102W        W38320  32.653  43.320  11.609
70103W        W38321   0.781   4.204  13.116
70104W        W38322  43.105  38.340  14.453
70105W        W38323  27.069  28.614   0.719
70106W        W38324   1.385  44.141  12.019
70107W        W38325  21.206  37.567   1.726
70108W        W38326  24.485  24.543  13.876
70109W        W38327  17.526   3.732  13.457
70110W        W38328  28.860  43.790  12.010
70111W        W38329  22.763  22.510   0.349
70112W        W38330  33.901   1.338  12.564
70113W        W38331  21.679  33.391   2.673
70114W        W38332  41.479   1.859  13.449
70115W        W38333   3.120   7.834  12.771
70116W        W38334  12.267  15.953  13.323
70117W        W38335   3.033   5.499   0.740
70118W        W38336  29.497  30.989  12.109
70119W        W38337  31.952  41.306  13.350
70120W        W38338  11.109  38.956  13.569
70121W        W38339   4.878  44.337  14.049
70122W        W38340   2.239  37.846   3.599
70123W        W38341  12.781   2.016   1.603
70124W        W38342   7.421  41.884   0.553
70125W        W38343  40.171  10.979   4.035
70126W        W38344  31.109   8.924  11.750
70127W        W38345   1.691  18.818   2.929
70128W        W38346  11.647  15.645   4.911
70129W        W38347   1.407   1.306   3.167
70130W        W38348  43.985  16.867   4.065
70131W        W38349  10.187   8.184  11.610
70132W        W38350  32.066  43.100   1.368
70133W        W38351  22.579  12.622   4.641
70134W        W38352   5.199   6.117   4.429
70135W        W38353   2.502  33.922  11.487
70136W        W38354  19.287  44.723   4.736
70137W        W38355  21.495  26.678  13.312
70138W        W38356   8.151  35.965  13.642
70139W        W38357  37.536  34.353  14.945
70140W        W38358  39.332  34.462  14.926
70141W        W38359   5.642  11.344   0.171
70142W        W38360  37.154  41.905   3.426
70143W        W38361  36.884   6.005   3.813
70144W        W38362  12.586  30.637   3.404
70145W        W38363  34.152   8.098  11.030
70146W        W38364  42.819  20.885   3.244
70147W        W38365  25.068  37.064  10.534
70148W        W38366  12.624  32.071  14.870
70149W        W38367  29.592  16.004  12.761
70150W        W38368   8.496  30.633   2.835
70151W        W38369   4.109  33.814   3.329
70152W        W38370   9.180   1.244  13.431
70153W        W38371  18.728   4.793  13.261
70154W        W38372  40.643  10.690   4.129
70155W        W38373   2.839  25.238  12.958
70156W        W38374  18.466  36.619  11.975
70157W        W38375  31.253  16.400   9.795
70158W        W38376   5.885  28.616  10.795
70159W        W38377  25.282  37.049  13.474
70160W        W38378  39.597  23.696  14.973
70161W        W38379   4.219  12.602   4.555
70162W        W38380   2.763  29.168  13.491
70163W        W38381  34.371  36.949   1.911
70164W        W38382  44.107  13.162  12.484
70165W        W38383  20.274  19.267   0.264
70166W        W38384  40.536  10.324  10.518
70167W        W38385   2.123  13.879  11.296
70168W        W38386  36.698  11.577  11.637
70169W        W38387  18.976  24.929  12.059
70170W        W38388  35.145  34.667  13.870
70171W        W38389  12.940  33.608   2.835
70172W        W38390  31.474  36.520   2.382
70173W        W38391  41.327  42.318  11.677
70174W        W38392  40.318   7.610   3.319
70175W        W38393   6.282  24.388   1.283
70176W        W38394  23.215  22.227   0.329
70177W        W38395  30.443  20.727   4.035
70178W        W38396  19.207  20.204  11.606
70179W        W38397  22.156  35.896   1.314
70180W        W38398  17.536  34.022   1.212
70181W        W38399  14.604   3.693   0.265
70182W        W38400   8.146   1.488  14.367
70183W        W38401  26.817  21.316  13.971
70184W        W38402   3.723  36.510   3.879
70185W        W38403  36.796  39.952   1.341
70186W        W38404  32.429  25.600  10.810
70187W        W38405  24.210  19.871  11.087
70188W        W38406  31.828  29.283   3.334
70189W        W38407  36.993   3.230  12.285
70190W        W38408  32.886  31.005  10.262
70191W        W38409  21.089   2.827   0.942
70192W        W38410  37.708   6.126   3.309
70193W        W38411  12.694   3.898  10.420
70194W        W38412   2.360  38.310   3.135
70195W        W38413  11.147   7.717   3.739
70196W        W38414   4.343   0.257  12.102
70197W        W38415  34.214   6.336  14.059
70198W        W38416  14.596   6.423  11.554
70199W        W38417  19.352  39.019   4.597
70200W        W38418  41.621   9.241  11.572
70201W        W38419  10.697  34.858  11.663
70202W        W38420  22.643  27.642  12.969
70203W        W38421   1.304   0.281   3.333
70204W        W38422  27.887  43.479   1.253
70205W        W38423  23.583  29.693  14.082
70206W        W38424  37.934  16.256  14.291
70207W        W38425   4.235   6.702  11.196
70208W        W38426  31.626   3.498  12.572
70209W        W38427  31.171  27.477   3.331
70210W        W38428  35.484   9.710  13.839
70211W        W38429  40.367  22.108   3.809
70212W        W38430  29.042  38.215  12.392
70213W        W38431  35.648  22.068   2.349
70214W        W38432  44.444   2.975  14.459
70215W        W38433  35.973   3.677   0.855
70216W        W38434  39.988   9.837   3.651
70217W        W38435   9.591  19.617   0.345
70218W        W38436  23.965   1.320   3.104
70219W        W38437  29.980  28.700  12.426
70220W        W38438  11.446  19.096  10.606
70221W        W38439  12.689   6.395  13.140
70222W        W38440  10.693  41.322   3.681
70223W        W38441  44.783  36.239   4.420
70224W        W38442   4.381   7.223   0.395
70225W        W38443   8.190  24.755  14.028
70226W        W38444  14.868  31.529  10.545
70227W        W38445  25.590  18.092   2.425
70228W        W38446  31.633   8.633   0.231
70229W        W38447  38.495  27.508   1.454
70230W        W38448  21.037  12.449  13.879
70231W        W38449  10.897  35.136  12.555
70232W        W38450  40.849  28.417   1.195
70233W        W38451   8.849  43.788  13.973
70234W        W38452  41.489  44.801   4.668
70235W        W38453  16.098   1.200  12.108
70236W        W38454   0.089   8.868  14.816
70237W        W38455  42.533  11.709   3.875
70238W        W38456  27.354  44.900   3.058
70239W        W38457  33.209  42.792   3.826
70240W        W38458  26.584  31.372  12.549
70241W        W38459   5.512  30.222   4.084
70242W        W38460   4.161  40.276  14.856
70243W        W38461  26.116  29.850   1.959
70244W        W38462  34.563  44.366  13.687
70245W        W38463  28.731   7.087   2.862
70246W        W38464  35.374  11.744  13.763
70247W        W38465  13.605  21.273   3.800
70248W        W38466   9.866  43.770   4.216
70249W        W38467   5.250  11.567   3.695
70250W        W38468  43.561   4.803   4.590
70251W        W38469  44.284  38.123  11.957
70252W        W38470  38.965   2.702   0.310
70253W        W38471  34.097  28.476   1.893
70254W        W38472  37.396  14.077   3.841
70255W        W38473   6.730  10.496   3.776
70256W        W38474  44.839  14.934   4.020
70257W        W38475  12.661  13.822  14.025
70258W        W38476  39.370  23.727   0.849
70259W        W38477   0.098  31.656  12.929
70260W        W38478  18.553  43.579  11.552
70261W        W38479  25.061  37.824  13.013
70262W        W38480  17.374  12.366   3.577
70263W        W38481  33.163  41.377   4.821
70264W        W38482  25.753  35.612   3.456
70265W        W38483  37.743   0.293   1.676
70266W        W38484  24.238  42.889   4.673
70267W        W38485  29.359  43.279   2.140
70268W        W38486  33.571  28.663  12.915
70269W        W38487  15.989  28.737  12.856
70270W        W38488  40.875  31.087   2.381
70271W        W38489  19.007   6.370   1.341
70272W        W38490   8.136  23.091   4.939
70273W        W38491  41.384  18.344  14.017
70274W        W38492  19.300  36.618   4.058
70275W        W38493  27.612  39.867   2.246
70276W        W38494  26.556  27.004   3.334
70277W        W38495  10.111  37.880   1.730
70278W        W38496  38.360  12.664  13.276
70279W        W38497  35.526  44.529   4.860
70280W        W38498  39.504   0.795  12.786
70281W        W38499  28.651  17.615   3.736
70282W        W38500  40.415  17.539  11.176
70283W        W38501  29.965  42.490   4.870
70284W        W38502  16.735  30.991  13.566
70285W        W38503  11.483  10.281  13.415
70286W        W38504   5.835  10.096   1.242
70287W        W38505  20.674  41.924  10.851
70288W        W38506   7.387  36.465   3.755
70289W        W38507  17.349   7.418   0.754
70290W        W38508  16.640  36.092  14.274
70291W        W38509  18.566   3.263   3.265
70292W        W38510   5.354   5.013   0.679
70293W        W38511  19.648   2.178  12.587
70294W        W38512  44.018   8.855   0.890
70295W        W38513  18.220  19.832   1.767
70296W        W38514   1.355   6.936   1.377
70297W        W38515   4.603  41.806   4.297
70298W        W38516  15.534  29.663  13.153
70299W        W38517  15.725  19.300   2.345
70300W        W38518   3.440  18.789  12.301
70301W        W38519  28.105   1.266  11.222
70302W        W38520  21.155  42.058  12.079
70303W        W38521  11.924  32.122   1.263
70304W        W38522  17.332   8.761  14.500
70305W        W38523   0.738  15.604   1.836
70306W        W38524  31.839  32.422   3.722
70307W        W38525  16.593  39.598  12.453
70308W        W38526  11.780  30.980  11.899
70309W        W38527  43.720  13.331  11.684
70310W        W38528  32.383  25.656   0.898
70311W        W38529   2.200  11.584  14.124
70312W        W38530  19.440  41.010  13.775
70313W        W38531   5.000  12.638   1.328
70314W        W38532  28.598   9.976   1.745
70315W        W38533   4.292  16.744   3.239
70316W        W38534  35.283   7.727   2.740
70317W        W38535  11.243   9.302  11.434
70318W        W38536  32.095  43.029  10.771
70319W        W38537  34.422  21.304  12.791
70320W        W38538  33.065  23.033   1.854
70321W        W38539  20.090  18.109  12.975
70322W        W38540  41.252  34.447  13.180
70323W        W38541   6.452  36.511  13.958
70324W        W38542  31.007  36.969  11.594
70325W        W38543  31.122  13.467   2.400
70326W        W38544   4.718  17.642  14.337
70327W        W38545   8.274  19.621   3.089
70328W        W38546  34.621  43.224  10.779
70329W        W38547  39.982  44.612  10.745
70330W        W38548  22.723  13.436   4.186
70331W        W38549  41.023  22.999  13.811
70332W        W38550  44.873   0.420  14.991
70333W        W38551   3.028  35.498   1.937
70334W        W38552   1.073  33.977  11.600
70335W        W38553  43.978   2.531   3.774
70336W        W38554  30.473  17.732  12.612
70337W        W38555  35.123  13.220  14.110
70338W        W38556  30.357  43.778   4.012
70339W        W38557   4.832   2.331  14.817
70340W        W38558   2.493  16.612   3.310
70341W        W38559   4.388  42.487  14.948
70342W        W38560  38.068   2.742   3.723
70343W        W38561   5.730  40.353   9.806
70344W        W38562  33.297  35.596   3.332
70345W        W38563  12.827   8.664   0.230
70346W        W38564  37.329  27.319  12.320
70347W        W38565  43.371   2.930   4.592
70348W        W38566  19.267   3.333   2.672
70349W        W38567  14.825  36.581   4.736
70350W        W38568  14.727  15.332   4.180
70351W        W38569   9.297  35.825  14.720
70352W        W38570  13.596  25.788   0.289
70353W        W38571  15.985  10.708  11.838
70354W        W38572  21.936   8.348   3.696
70355W        W38573  23.768  16.117   3.012
70356W        W38574   6.665  43.062  11.490
70357W        W38575  14.267  18.513   1.741
70358W        W38576  20.676  22.101   1.196
70359W        W38577   8.796  31.972   3.804
70360W        W38578  28.569   5.166   2.194
70361W        W38579  25.978   5.988  13.855
70362W        W38580  40.873  39.824  11.604
70363W        W38581  11.841  26.052   0.935
70364W        W38582  37.583  16.270   1.811
70365W        W38583  31.584   2.329   0.643
70366W        W38584  13.668  20.129   4.831
70367W        W38585  35.231   0.295  12.409
70368W        W38586  25.313  18.743   2.860
70369W        W38587  40.865  29.594   4.222
70370W        W38588  10.919  33.951  11.247
70371W        W38589  33.958  24.172   4.947
70372W        W38590  22.301  25.397  14.446
70373W        W38591  15.355   7.448  12.562
70374W        W38592  34.483  30.557   4.163
70375W        W38593  28.766  32.143  14.788
70376W        W38594  19.989  37.623  14.977
70377W        W38595  23.776  44.545  13.021
70378W        W38596  19.234   8.363  12.242
70379W        W38597   4.525  14.847   2.390
70380W        W38598  11.830  32.698  12.129
70381W        W38599  14.631   3.286   0.928
70382W        W38600  18.531  19.718   5.065
70383W        W38601  24.087  37.393  11.862
70384W        W38602  44.208  11.816   1.729
70385W        W38603  31.486   7.647   1.384
70386W        W38604  38.857  37.121  14.776
70387W        W38605  38.004   6.658  10.641
70388W        W38606  24.320  44.384  13.958
70389W        W38607   4.616  29.148   3.871
70390W        W38608  30.463  37.088  10.927
70391W        W38609  21.984  18.648   3.504
70392W        W38610   5.489  29.686   1.493
70393W        W38611  18.819  32.158  14.016
70394W        W38612  38.782  33.421  12.559
70395W        W38613  43.538  40.348  14.424
70396W        W38614  26.579  13.042  11.107
70397W        W38615  36.381  35.399   0.956
70398W        W38616   1.358  40.563   0.131
70399W        W38617  26.698  39.800  11.175
70400W        W38618  10.746  43.212   2.668
70401W        W38619  18.055  30.607   4.169
70402W        W38620  21.349  26.856  14.022
70403W        W38621   4.477  29.416  14.413
70404W        W38622   0.022  16.184   2.872
70405W        W38623  24.676   8.696   0.796
70406W        W38624  39.014  34.571   2.198
70407W        W38625  41.088  33.859   1.341
70408W        W38626   9.214  42.167  12.339
70409W        W38627  35.765   8.222  14.782
70410W        W38628  38.382  27.552  10.942
70411W        W38629  20.494  37.961   4.108
70412W        W38630  30.138  42.527  13.899
70413W        W38631  42.136  36.061   0.747
70414W        W38632  12.623  30.208  11.968
70415W        W38633  15.743  17.587   3.328
70416W        W38634  26.756  15.367   2.957
70417W        W38635  11.256  43.710   4.634
70418W        W38636  23.251  24.036   2.257
70419W        W38637  17.187  24.860  12.548
70420W        W38638  28.631  20.151  11.388
70421W        W38639   6.429  44.426  10.055
70422W        W38640  29.240  10.562  11.166
70423W        W38641   6.669  16.165   0.364
70424W        W38642   2.945  13.672   0.276
70425W        W38643  11.678   0.868   5.084
70426W        W38644  29.870   1.266  11.147
70427W        W38645  42.765  25.212   4.703
70428W        W38646  25.615  20.468   4.851
70429W        W38647   8.115  38.561   1.408
70430W        W38648  33.867  20.340   2.966
70431W        W38649  32.473  31.475  14.527
70432W        W38650  42.056  24.047   1.389
70433W        W38651  15.195  18.828   3.316
70434W        W38652  18.195  28.558   3.123
70435W        W38653  22.203  13.547   4.090
70436W        W38654  14.050  44.687   3.273
70437W        W38655  25.470  44.230  13.555
70438W        W38656  31.103  18.793  13.441
70439W        W38657  26.545  13.209   3.950
70440W        W38658   4.600  37.934  10.797
70441W        W38659  26.377  16.583   1.321
70442W        W38660  38.195  27.077  12.445
70443W        W38661  31.436  24.698  13.417
70444W        W38662  40.512   1.787  13.589
70445W        W38663  28.216   0.805  11.715
70446W        W38664   1.955  34.692   1.319
70447W        W38665  29.724  19.389   0.828
70448W        W38666  26.719  20.349   0.917
70449W        W38667  37.498  39.512   4.117
70450W        W38668  30.880  17.184  14.866
70451W        W38669  31.951   2.371  14.263
70452W        W38670  37.312  37.859  14.547
70453W        W38671  40.420  38.556  11.459
70454W        W38672  23.267  29.262   2.259
70455W        W38673  28.357  15.854   0.464
70456W        W38674  38.113   0.021  13.808
70457W        W38675  42.225   6.366   0.301
70458W        W38676   9.583  24.613   1.252
70459W        W38677  24.039  18.778   2.296
70460W        W38678  41.056  10.605  13.569
70461W        W38679  24.906   9.751  14.948
70462W        W38680  11.629  13.276   1.025
70463W        W38681  22.378  35.659   3.224
70464W        W38682  23.926  23.878  10.760
70465W        W38683   3.425  23.219  13.373
70466W        W38684  43.058  29.382  11.127
70467W        W38685   8.378  33.876  14.853
70468W        W38686  11.184  31.275  13.403
70469W        W38687  36.033  33.519  14.060
70470W        W38688  24.150  41.045  14.749
70471W        W38689  37.787  25.854  13.842
70472W        W38690  28.537  31.173  11.159
70473W        W38691  26.978  12.541   1.920
70474W        W38692  23.450  32.588  14.292
70475W        W38693  22.996  21.781   2.929
70476W        W38694   7.179  29.532  14.866
70477W        W38695   5.303  42.737  12.378
70478W        W38696  35.104  13.303   2.750
70479W        W38697  42.210  16.437   0.354
70480W        W38698  25.112  16.629  12.482
70481W        W38699  27.125  26.098  10.442
70482W        W38700  17.096  29.511  12.649
70483W        W38701  31.040  34.040   2.822
70484W        W38702  35.655  32.338  13.493
70485W        W38703  32.055  40.835   3.123
70486W        W38704  38.933   6.279  13.452
70487W        W38705  15.212  33.357  13.525
70488W        W38706  10.167   8.358   0.715
70489W        W38707  27.306  10.159  14.419
70490W        W38708   3.322   6.156   2.241
70491W        W38709  15.178   2.896   1.231
70492W        W38710   5.934  16.571  13.538
70493W        W38711  38.849  40.754  14.566
70494W        W38712   0.802   2.579  13.560
70495W        W38713  29.370  39.766   2.781
70496W        W38714  21.558  10.208   0.320
70497W        W38715  41.048   2.656   2.206
70498W        W38716  27.455   2.958   1.417
70499W        W38717   1.462  23.477   0.505
70500W        W38718   5.219  28.831  13.304
70501W        W38719  40.796  44.569  12.815
70502W        W38720  20.748  36.292   3.594
70503W        W38721  43.825  15.546  11.158
70504W        W38722  16.317  33.557  12.732
70505W        W38723   4.758  14.412   2.665
70506W        W38724  12.242  14.012   3.312
70507W        W38725  13.276  15.243  10.350
70508W        W38726  19.637  11.718  14.101
70509W        W38727   7.327   0.568  12.973
70510W        W38728  40.646  11.289  11.873
70511W        W38729   6.395  42.389  14.063
70512W        W38730  30.839  13.136  11.558
70513W        W38731   7.278   6.400  11.575
70514W        W38732  41.382  41.608  13.450
70515W        W38733   1.441  30.361   0.296
70516W        W38734  29.477  27.693   0.402
70517W        W38735  21.051  13.688  10.707
70518W        W38736  23.396  39.498  11.149
70519W        W38737  19.781   2.353   4.571
70520W        W38738  12.588   7.303  14.353
70521W        W38739  15.355  42.213  14.668
70522W        W38740  22.951  28.372  14.334
70523W        W38741  33.978  25.145   2.675
70524W        W38742  18.609  42.582   2.333
70525W        W38743  20.272  34.009   1.431
70526W        W38744  11.142  35.685   4.513
70527W        W38745  43.478  42.930   0.837
70528W        W38746  21.133  11.834  14.079
70529W        W38747  28.489  37.121  12.173
70530W        W38748  25.020   6.401   3.631
70531W        W38749  28.396   5.419  10.223
70532W        W38750  35.035  41.886  13.735
70533W        W38751  15.522   9.098  12.069
70534W        W38752  17.105  32.901  14.843
70535W        W38753  43.301  21.227   0.440
70536W        W38754  29.105  28.965   4.664
70537W        W38755   3.379  43.809   4.520
70538W        W38756  31.885  43.887   3.833
70539W        W38757   1.744  31.119   4.295
70540W        W38758  20.021  18.919   4.696
70541W        W38759   2.200   5.372   3.659
70542W        W38760  33.681  34.492   4.118
70543W        W38761  40.455  29.916   4.198
70544W        W38762  24.515  15.943   2.680
70545W        W38763  20.319   5.757   4.029
70546W        W38764  21.525  24.847  13.585
70547W        W38765  29.008  34.543   0.153
70548W        W38766  31.439  14.814  11.497
70549W        W38767  11.389  30.091  12.502
70550W        W38768  26.445   6.498  11.091
70551W        W38769  31.725   1.220  10.841
70552W        W38770  32.176  35.560   4.272
70553W        W38771  11.296  23.465   4.498
70554W        W38772  33.664  14.205   4.742
70555W        W38773  10.588  42.590   1.862
70556W        W38774  31.367  30.161   1.324
70557W        W38775  28.194   6.985  10.361
70558W        W38776   6.386  31.597  10.728
70559W        W38777  10.357  21.789   1.888
70560W        W38778  17.804  20.869  10.377
70561W        W38779  38.707  31.898  14.548
70562W        W38780  20.108   2.422  13.310
70563W        W38781  26.127  34.477   0.238
70564W        W38782  37.866  27.710   3.336
70565W        W38783  14.119  29.645  14.085
70566W        W38784   6.742   6.811   3.066
70567W        W38785  27.618  28.903  11.660
70568W        W38786  26.000  40.651   2.637
70569W        W38787  10.417  26.769   4.171
70570W        W38788  42.059  27.458   1.303
70571W        W38789  36.750   0.377  12.473
70572W        W38790  13.125  42.880  14.356
70573W        W38791  36.719   2.774   0.090
70574W        W38792  32.490  12.839   3.248
70575W        W38793  17.828  42.830   1.709
70576W        W38794  13.935  15.581   4.644
70577W        W38795   0.631   0.409   4.756
70578W        W38796  19.619  39.905  11.174
70579W        W38797  34.169   7.445   4.583
70580W        W38798  43.291  29.015  11.445
70581W        W38799   8.005   4.194  13.622
70582W        W38800   5.170  23.457   2.169
70583W        W38801   5.483  14.367   4.148
70584W        W38802  37.431  43.908  14.807
70585W        W38803  23.554  17.074  13.564
70586W        W38804  32.361  41.902  11.073
70587W        W38805  33.916  38.481  12.131
70588W        W38806  24.122  25.244  14.854
70589W        W38807  25.512  44.811   4.572
70590W        W38808  26.059  32.518  10.722
70591W        W38809  22.237  20.792   2.765
70592W        W38810  16.568  18.736  12.464
70593W        W38811  29.454  24.610  12.124
70594W        W38812  25.012   5.403  10.766
70595W        W38813  41.018   5.921   3.682
70596W        W38814  14.797  20.002   0.498
70597W        W38815  34.768  18.062   4.181
70598W        W38816  39.042  44.509   4.302
70599W        W38817   8.508  13.693  11.152
70600W        W38818  32.442  41.987   2.488
70601W        W38819   4.444   9.917  13.847
70602W        W38820  44.190  28.486   2.200
70603W        W38821   4.676  41.563   2.270
70604W        W38822  14.562  24.035   2.247
70605W        W38823  33.416  25.170  14.346
70606W        W38824  39.341  32.851   1.849
70607W        W38825  18.435   7.313  10.975
70608W        W38826  18.383  13.198  12.137
70609W        W38827  32.682  24.053  13.560
70610W        W38828  12.174  28.993  11.130
70611W        W38829  20.385  30.894  13.563
70612W        W38830  36.825  17.173  12.452
70613W        W38831  30.505  43.480  14.956
70614W        W38832   3.361  37.100  12.129
70615W        W38833  11.023  30.207  14.225
70616W        W38834   3.872  17.285   1.816
70617W        W38835  25.444  43.266   3.332
70618W        W38836  40.540   2.787  14.744
70619W        W38837  40.603  21.026  10.675
70620W        W38838  18.159  10.508   4.734
70621W        W38839  32.471   2.085  14.984
70622W        W38840  27.692  13.136  14.152
70623W        W38841  26.555  31.726  13.017
70624W        W38842   1.500  26.739  13.418
70625W        W38843   7.852   4.854   4.103
70626W        W38844  10.606  28.027   2.384
70627W        W38845  17.529   1.994   3.755
70628W        W38846  24.501  23.072  14.927
70629W        W38847  30.249  26.027   3.648
70630W        W38848  20.194   5.621   1.404
70631W        W38849  13.257  38.859   4.360
70632W        W38850  12.257  14.929   1.067
70633W        W38851  12.789  36.075  14.388
70634W        W38852  40.594  30.627   5.040
70635W        W38853  44.776   8.383   1.379
70636W        W38854  31.493  16.181   2.791
70637W        W38855  38.571  31.915   3.179
70638W        W38856  24.685   0.363  11.031
70639W        W38857  17.260  29.914   2.439
70640W        W38858  13.031   1.006   2.810
70641W        W38859  40.326  24.747  11.976
70642W        W38860  37.563  28.439   0.689
70643W        W38861  31.316  41.852  12.395
70644W        W38862  16.661  10.863   0.731
70645W        W38863   0.432   0.768   4.388
70646W        W38864   3.740   6.739  11.097
70647W        W38865  30.651   3.802   0.738
70648W        W38866  29.016  28.037   2.156
70649W        W38867   9.751   4.794   3.313
70650W        W38868  11.209  26.686   0.754
70651W        W38869  41.742  40.626  13.551
70652W        W38870  19.596  23.456  10.629
70653W        W38871  35.914  23.959  13.443
70654W        W38872  22.014  37.391  13.992
70655W        W38873   8.292  29.405  11.171
70656W        W38874  40.382  42.229   2.290
70657W        W38875  36.384  35.806   0.292
70658W        W38876  24.037  32.136  14.697
70659W        W38877  13.742  43.605  11.130
70660W        W38878  20.294  41.458   2.767
70661W        W38879  35.410  44.170  12.888
70662W        W38880  18.532  30.477   2.944
70663W        W38881  30.249  28.739  13.763
70664W        W38882  23.928   0.526   4.137
70665W        W38883  30.670   9.746   4.064
70666W        W38884  21.616  17.687   2.880
70667W        W38885  13.557   1.801  14.449
70668W        W38886  26.133  30.950   0.730
70669W        W38887  35.386   1.937   2.816
70670W        W38888  12.609  42.531   4.632
70671W        W38889  25.614  41.014  14.114
70672W        W38890  17.179   7.825  14.006
70673W        W38891  43.902   7.388   2.018
70674W        W38892  15.690  34.997   3.381
70675W        W38893  39.626  29.540   3.795
70676W        W38894   5.108  15.784   3.172
70677W        W38895   0.354  14.595   4.472
70678W        W38896   0.157  41.139   2.303
70679W        W38897   8.694   2.328  14.475
70680W        W38898   0.991  36.261   0.924
70681W        W38899   2.222  34.633   3.443
70682W        W38900  37.962  12.180   2.286
70683W        W38901   2.419   9.841  11.550
70684W        W38902  39.406  14.298   3.162
70685W        W38903  19.834  28.833   0.013
70686W        W38904  24.665  21.501   4.812
70687W        W38905   1.183   2.524   0.751
70688W        W38906  37.139  35.512   1.397
70689W        W38907   6.414  15.129  12.161
70690W        W38908   7.636  40.047  14.695
70691W        W38909   4.842  32.459   4.801
70692W        W38910  32.224  32.776   0.709
70693W        W38911  14.259  24.220  11.628
70694W        W38912  30.387  27.652  13.947
70695W        W38913  42.217  29.404  14.342
70696W        W38914  27.124   0.406  11.109
70697W        W38915  19.617  15.595   0.396
70698W        W38916   0.471  14.352  14.878
70699W        W38917  29.988  36.466   3.802
70700W        W38918   3.601  30.796   1.217
70701W        W38919  36.929  18.548  11.483
70702W        W38920   7.104   5.482   2.221
70703W        W38921  37.547  44.824   3.296
70704W        W38922  31.152   2.313   4.560
70705W        W38923  33.612   3.853  13.952
70706W        W38924  33.484   3.618  11.359
70707W        W38925  19.629  38.128   2.293
70708W        W38926   1.949  27.481  12.072
70709W        W38927  13.154  26.947   1.774
70710W        W38928  31.303   5.920   1.902
70711W        W38929  39.845  44.896  14.872
70712W        W38930  28.709  20.464   3.146
70713W        W38931  36.343  11.377   4.187
70714W        W38932   7.560  35.903  14.377
70715W        W38933  12.956  16.617   3.960
70716W        W38934  19.858  29.008  12.858
70717W        W38935  17.312   6.428  14.937
70718W        W38936  17.571   9.294   2.320
70719W        W38937  17.952  28.985   3.229
70720W        W38938  26.510  29.578   1.737
70721W        W38939  22.718  20.812   3.539
70722W        W38940  30.085   3.740  11.720
70723W        W38941   1.813  15.456  14.786
70724W        W38942  44.736  37.830   0.806
70725W        W38943  15.269  29.504   0.985
70726W        W38944  39.908   6.010  14.551
70727W        W38945  16.391   9.038  14.286
70728W        W38946  44.426  38.839  12.468
70729W        W38947  44.844  23.086  14.944
70730W        W38948  35.493  34.243   3.868
70731W        W38949  27.787  11.569   4.641
70732W        W38950  32.323  32.420  13.325
70733W        W38951   8.977  28.998   1.500
70734W        W38952  25.472  36.381  14.316
70735W        W38953  25.037  17.000   4.622
70736W        W38954  26.001  43.105  10.279
70737W        W38955  31.711   7.740  11.945
70738W        W38956   5.550  19.837   2.651
70739W        W38957  36.044   6.982   3.199
70740W        W38958   3.165  18.114  11.160
70741W        W38959  43.927  30.358  10.602
70742W        W38960  14.011  15.153   1.400
70743W        W38961  29.550  23.943   4.099
70744W        W38962  24.154  13.109   4.276
70745W        W38963  32.358  11.732  14.299
70746W        W38964  35.597  19.727  13.496
70747W        W38965  32.973  22.190  11.547
70748W        W38966  25.972  14.902   2.074
70749W        W38967  31.254   9.692   4.264
70750W        W38968  23.608  31.155  12.476
70751W        W38969  22.970  22.123  11.153
70752W        W38970  19.292  22.117   0.966
70753W        W38971  33.616  39.378   0.450
70754W        W38972  29.115  40.317   0.720
70755W        W38973  11.333  14.308   5.077
70756W        W38974  36.533  10.895   4.093
70757W        W38975   8.105  40.913   1.323
70758W        W38976  34.506  10.267  10.724
70759W        W38977  33.544  22.802  13.541
70760W        W38978  21.992  38.283  13.812
70761W        W38979   7.970   5.762   1.481
70762W        W38980  12.983   9.584  13.318
70763W        W38981  35.959  25.181   0.396
70764W        W38982   6.050  17.864  13.921
70765W        W38983   1.541   7.963   1.431
70766W        W38984  13.575   3.686  13.969
70767W        W38985  26.221   7.306  14.414
70768W        W38986   2.375  24.714  10.618
70769W        W38987  33.012  30.968   4.195
70770W        W38988  23.363  19.225  11.725
70771W        W38989  26.733  24.310  12.643
70772W        W38990   7.202  31.242  10.825
70773W        W38991   1.983   1.922   2.250
70774W        W38992   4.292   1.578   0.065
70775W        W38993  18.179  11.210   4.175
70776W        W38994  29.544  18.455  14.995
70777W        W38995   9.370  29.901  12.018
70778W        W38996  36.986   6.830   3.272
70779W        W38997  39.023  34.102   1.384
70780W        W38998  18.285  10.613   1.204
70781W        W38999   6.496   7.907  14.509
70782W        W39000   0.790  11.698  12.462
70783W        W39001   3.923  19.342   0.272
70784W        W39002  17.066  17.582  12.350
70785W        W39003  39.010  27.258  12.957
70786W        W39004   0.382  28.090  11.507
70787W        W39005   5.206  33.574  13.236
70788W        W39006  15.061  18.726   4.200
70789W        W39007  37.983  18.173   4.743
70790W        W39008  38.421   9.666   2.279
70791W        W39009   2.971  35.940  14.267
70792W        W39010  27.476  31.983  14.473
70793W        W39011   7.273  21.516   2.368
70794W        W39012  15.516   7.540  13.907
70795W        W39013   4.936  16.229   1.686
70796W        W39014  19.179  31.402  13.867
70797W        W39015  35.769   0.936   3.681
70798W        W39016  37.358  17.489  10.718
70799W        W39017   5.491   1.453   2.820
70800W        W39018   1.276  31.839  14.418
70801W        W39019  44.751  42.059   3.831
70802W        W39020   8.197   6.921   3.262
70803W        W39021   2.450  38.440  14.830
70804W        W39022  18.112  15.316   0.406
70805W        W39023   5.896  19.234   3.981
70806W        W39024  30.572  36.041   2.347
70807W        W39025  15.221  22.956   3.495
70808W        W39026  39.815  24.516   0.950
70809W        W39027   5.715  35.446  10.688
70810W        W39028  18.554   0.277   0.773
70811W        W39029  33.161  24.069   0.324
70812W        W39030  35.655  26.383   4.632
70813W        W39031  34.864   9.628   1.600
70814W        W39032  13.902  32.550   4.498
70815W        W39033  18.540  28.597  12.436
70816W        W39034  23.104  40.318   4.159
70817W        W39035  33.256   0.153   1.675
70818W        W39036  18.772  15.811   0.835
70819W        W39037  13.317  21.825  14.909
70820W        W39038   1.744   1.349   4.862
70821W        W39039  36.964  31.906  14.241
70822W        W39040  40.453  36.539  13.982
70823W        W39041   4.392  34.458  14.977
70824W        W39042  15.566  28.632  11.195
70825W        W39043  18.487   7.777   2.304
70826W        W39044   3.349   4.269   1.026
70827W        W39045  42.217   6.121  14.291
70828W        W39046  33.507  13.274  10.289
70829W        W39047  30.002   4.307   1.397
70830W        W39048  37.384   4.582   2.834
70831W        W39049  35.105  36.139   3.360
70832W        W39050  34.684  43.840  13.864
70833W        W39051  11.108  44.057   5.014
70834W        W39052   2.014  13.083   2.439
70835W        W39053   8.853  21.037   1.032
70836W        W39054  13.413   4.985   2.771
70837W        W39055  32.087  42.049   0.320
70838W        W39056  26.960  13.855   0.224
70839W        W39057  36.489  30.475   0.274
70840W        W39058  14.173  33.804  11.507
70841W        W39059  40.353  25.520   3.167
70842W        W39060  29.970  41.017  14.477
70843W        W39061  31.480  13.585   4.689
70844W        W39062  14.483   2.858   1.797
70845W        W39063  28.355  19.871  13.639
70846W        W39064  29.141  41.055   3.638
70847W        W39065   0.837   8.975   3.861
70848W        W39066  28.738  15.862  13.059
70849W        W39067  42.273  32.813   3.025
70850W        W39068  40.505   9.314   4.650
70851W        W39069  15.224  35.016   3.134
70852W        W39070  12.691  35.818   1.337
70853W        W39071  22.169   4.701   4.041
70854W        W39072   8.100  35.924   3.804
70855W        W39073  10.658  36.064   5.168
70856W        W39074   0.460  36.381  14.991
70857W        W39075  24.215  20.376   1.708
70858W        W39076  37.804  27.095  13.304
70859W        W39077  36.764  35.619  14.360
70860W        W39078  32.504   8.265  14.401
70861W        W39079  43.803   9.678   3.186
70862W        W39080  29.048  42.943   4.566
70863W        W39081  34.137  25.027  12.166
70864W        W39082  25.989  37.938  10.660
70865W        W39083   9.624  17.749  10.790
70866W        W39084  43.460   9.261   1.947
70867W        W39085   3.225  25.623  14.453
70868W        W39086  33.517  26.452  12.494
70869W        W39087  22.529  35.510   0.368
70870W        W39088  39.061  27.182   3.737
70871W        W39089  32.878  44.998   3.820
70872W        W39090   7.275  21.524  12.895
70873W        W39091  40.539  31.624   4.201
70874W        W39092  26.177  27.448  13.961
70875W        W39093  11.282  33.531  10.357
70876W        W39094  39.340  42.299   4.429
70877W        W39095  16.382  13.779  12.501
70878W        W39096   7.746  38.239  14.121
70879W        W39097  21.293  30.623  14.323
70880W        W39098  28.675   1.416  14.334
70881W        W39099  38.085  28.599   0.762
70882W        W39100  11.954  13.659   4.651
70883W        W39101  19.138   8.789  10.421
70884W        W39102  10.516  19.485  12.083
70885W        W39103  38.705  11.710   1.885
70886W        W39104  44.352   6.244  12.309
70887W        W39105   5.734  28.223   3.561
70888W        W39106  37.904  10.124  13.485
70889W        W39107  32.477   8.334   1.407
70890W        W39108  15.997  31.564   4.149
70891W        W39109  14.318  36.376   1.686
70892W        W39110  21.523  24.903  14.929
70893W        W39111   3.633  33.483   4.791
70894W        W39112   6.214   3.892   3.389
70895W        W39113  23.519   5.708  13.888
70896W        W39114  38.498  25.073   1.376
70897W        W39115  15.656   2.741   1.070
70898W        W39116  31.654  31.037  14.879
70899W        W39117   7.690   5.970  14.891
70900W        W39118  20.077   6.426  11.453
70901W        W39119  13.676  16.934   2.717
70902W        W39120   6.399   4.685   4.595
70903W        W39121  19.934  41.480   4.124
70904W        W39122   2.993  32.583   0.889
70905W        W39123  16.064  16.747  14.591
70906W        W39124   5.397  23.582  14.317
70907W        W39125  29.509  38.311  10.660
70908W        W39126  28.760  25.602  11.185
70909W        W39127  14.771   7.906  10.636
70910W        W39128  34.995  33.435  11.600
70911W        W39129  35.139   3.197  10.578
70912W        W39130   6.930   7.733  14.282
70913W        W39131  28.418   3.185   0.832
70914W        W39132  18.067  21.542   4.575
70915W        W39133   1.184  27.654   4.115
70916W        W39134  10.108  10.865   2.437
70917W        W39135   5.960  43.306   2.659
70918W        W39136  12.102  41.860   1.298
70919W        W39137  40.095  13.763  11.635
70920W        W39138  24.118   7.024   1.528
70921W        W39139  39.158  12.240  12.940
70922W        W39140  12.712  22.468  13.249
70923W        W39141   2.527  13.238  12.475
70924W        W39142  30.434   0.492  13.440
70925W        W39143   5.827  32.780  11.643
70926W        W39144  38.562  37.375   0.129
70927W        W39145  28.595   3.126  10.257
70928W        W39146  44.448  37.301   1.249
70929W        W39147  42.086  13.212  13.333
70930W        W39148  32.604  36.598   4.668
70931W        W39149  14.657   3.882  13.207
70932W        W39150   7.195  21.008  13.465
70933W        W39151  41.474  10.783  10.933
70934W        W39152  16.672   3.274  11.580
70935W        W39153  44.390  34.563  13.748
70936W        W39154   5.167  34.557  13.869
70937W        W39155  29.192  20.746   2.167
70938W        W39156  41.055  30.053   0.024
70939W        W39157  15.346  35.086   2.616
70940W        W39158  18.663  21.914   1.835
70941W        W39159  20.617  15.843  11.053
70942W        W39160  26.706   5.610   3.200
70943W        W39161  20.768  28.995   2.157
70944W        W39162  29.116   7.263   0.357
70945W        W39163  40.906   5.769   2.677
70946W        W39164  33.175  29.268   1.710
70947W        W39165  27.381   0.483   1.277
70948W        W39166  41.700   9.303   2.355
70949W        W39167   1.361  21.396   3.261
70950W        W39168  20.534   8.676  13.746
70951W        W39169   0.254  33.010   4.597
70952W        W39170  24.083  16.797   3.091
70953W        W39171  39.001  38.101   4.214
70954W        W39172  26.979  36.633  14.854
70955W        W39173  26.128  35.780  11.063
70956W        W39174  42.234  33.548  12.535
70957W        W39175   0.786  18.130   0.403
70958W        W39176   5.615  33.343  13.434
70959W        W39177  21.465   6.183  10.351
70960W        W39178  11.211  35.370  11.153
70961W        W39179  16.531  41.953   2.591
70962W        W39180   9.928   3.193  12.687
70963W        W39181  32.698  42.870   5.059
70964W        W39182  30.934  35.881  14.327
70965W        W39183  24.914   3.712  10.459
70966W        W39184  11.841  10.400   9.914
70967W        W39185   9.774  15.525   1.366
70968W        W39186  41.395  27.049  14.761
70969W        W39187  23.037   9.765  10.756
70970W        W39188  24.259  25.053  12.682
70971W        W39189  28.186   0.720  12.617
70972W        W39190   7.634  34.909   3.735
70973W        W39191  29.282  18.959  13.106
70974W        W39192  38.432  43.747  10.658
70975W        W39193  43.275  42.323  13.015
70976W        W39194   4.363  15.804   2.319
70977W        W39195  40.411  32.176  13.510
70978W        W39196  17.084  32.507   3.738
70979W        W39197  34.612   9.374  11.913
70980W        W39198  44.828  29.914  14.980
70981W        W39199  15.950  21.056  12.464
70982W        W39200  20.813  38.261   2.872
70983W        W39201  20.009   1.494  13.690
70984W        W39202   9.792   1.713   3.757
70985W        W39203   8.839  14.761   0.868
70986W        W39204  40.453  17.485   3.241
70987W        W39205  42.990  27.945   1.377
70988W        W39206  30.931  25.075   4.602
70989W        W39207   7.788  29.513   4.514
70990W        W39208  33.540  11.395   0.042
70991W        W39209   5.843  39.201   2.146
70992W        W39210  30.516  22.000  11.939
70993W        W39211  33.357  27.497  14.996
70994W        W39212  19.082   6.748  13.735
70995W        W39213  35.961  39.260  14.441
70996W        W39214  18.514  36.144   1.296
70997W        W39215   6.950  17.909  14.898
70998W        W39216   8.125  37.051   0.488
70999W        W39217  16.190  26.341  14.959
71000W        W39218  36.594  33.694  14.715
71001W        W39219  38.270  39.543  14.075
71002W        W39220  42.489  38.018  13.836
71003W        W39221  23.630  15.102  10.548
71004W        W39222  41.987  32.099  14.539
71005W        W39223   7.729  43.510   4.681
71006W        W39224  22.500  16.257   2.803
71007W        W39225  11.634  19.699  13.521
71008W        W39226   0.414  33.507   0.260
71009W        W39227   1.185  41.065  10.720
71010W        W39228  39.336  20.206   1.235
71011W        W39229  42.229  25.046  13.792
71012W        W39230   0.409  42.067   4.613
71013W        W39231  27.712   3.717   2.080
71014W        W39232  19.506  19.345  14.989
71015W        W39233  43.074   9.660  11.214
71016W        W39234  12.183  25.533  11.730
71017W        W39235  24.066  17.972   4.567
71018W        W39236  19.643  10.893   3.772
71019W        W39237  16.357  25.498  12.462
71020W        W39238   5.856  43.499   2.185
71021W        W39239  19.335  30.511   4.987
71022W        W39240  20.769  16.542  13.530
71023W        W39241   9.082  39.414  11.768
71024W        W39242   0.554   6.750   4.706
71025W        W39243   5.397   4.672  11.715
71026W        W39244  21.826  19.152   1.899
71027W        W39245   1.294  28.029  13.946
71028W        W39246  13.411  31.761   2.183
71029W        W39247  35.393   3.309   4.339
71030W        W39248  37.087  21.067   2.531
71031W        W39249  16.103   7.360   0.450
71032W        W39250  10.305   1.266  11.605
71033W        W39251  22.694   0.980   0.432
71034W        W39252  20.632  15.147  10.348
71035W        W39253   2.617   9.895   3.220
71036W        W39254   3.506  38.328  10.606
71037W        W39255  38.899  26.415  14.495
71038W        W39256  36.521  36.901   4.102
71039W        W39257  44.779  40.546  12.884
71040W        W39258  19.471  22.546   2.175
71041W        W39259  26.617   0.784  11.705
71042W        W39260  24.945  26.871  10.738
71043W        W39261  40.204  30.857  11.023
71044W        W39262   4.062  16.571  11.620
71045W        W39263  26.697  37.594  11.138
71046W        W39264  28.207  44.455  10.827
71047W        W39265  15.110  42.963  11.068
71048W        W39266  20.282  28.157   0.710
71049W        W39267   0.463  32.348   3.337
71050W        W39268  38.914   1.460  12.571
71051W        W39269  22.780   5.159   3.471
71052W        W39270  28.213  22.004   2.240
71053W        W39271  11.214   8.281   1.434
71054W        W39272  42.767  23.175  14.477
71055W        W39273   0.874  27.947  11.596
71056W        W39274  27.627  11.756  10.512
71057W        W39275  16.675  12.672  10.235
71058W        W39276  11.686  20.744  13.893
71059W        W39277  26.453   5.228   1.334
71060W        W39278  27.102  36.530   1.176
71061W        W39279  38.933  23.650  10.753
71062W        W39280  27.518   8.355   2.865
71063W        W39281   1.379  41.121  14.929
71064W        W39282   7.955   5.218   0.839
71065W        W39283   6.293  39.566   4.216
71066W        W39284  18.018  12.663   4.097
71067W        W39285  25.096  42.502  14.951
71068W        W39286   2.778  10.450  12.074
71069W        W39287   3.800  33.918  14.438
71070W        W39288   4.806   2.254   2.234
71071W        W39289   4.275  40.023  12.580
71072W        W39290   0.229  44.521  13.455
71073W        W39291  33.145  26.200  14.118
71074W        W39292  25.969   7.429   4.632
71075W        W39293  11.156  13.340  11.531
71076W        W39294  29.548  43.621   3.371
71077W        W39295  12.273   7.457   1.958
71078W        W39296  17.141  26.277   4.167
71079W        W39297  12.049   2.870   0.206
71080W        W39298   5.903  20.007  10.849
71081W        W39299  34.000   8.723  11.150
71082W        W39300  41.828  21.983   0.661
71083W        W39301  37.416  19.295   1.821
71084W        W39302   0.967  11.642   4.888
71085W        W39303  34.784  39.046  12.513
71086W        W39304  43.513   0.010  14.535
71087W        W39305   2.194  10.913   4.597
71088W        W39306  18.386  38.473  11.922
71089W        W39307  42.824  16.061   5.011
71090W        W39308  42.449  20.777   1.130
71091W        W39309  38.543  19.680  12.069
71092W        W39310  20.253  21.645  14.555
71093W        W39311  36.935   6.387  13.116
71094W        W39312   7.668  27.542  12.992
71095W        W39313  34.393  19.043  10.951
71096W        W39314  11.653  28.990   1.818
71097W        W39315  18.937  43.808  14.898
71098W        W39316  32.110  44.006  14.901
71099W        W39317   8.606  38.905   5.007
71100W        W39318  21.961  30.013  12.775
71101W        W39319  16.121  18.928  11.057
71102W        W39320  35.163  30.489   5.080
71103W        W39321  10.334   0.373   3.267
71104W        W39322  19.193  42.407  11.241
71105W        W39323  39.382  27.677   3.144
71106W        W39324  32.187  31.355   1.724
71107W        W39325  33.114  26.334   4.282
71108W        W39326  34.540   1.094   4.900
71109W        W39327  36.911  38.787  13.545
71110W        W39328  40.486  36.632   4.390
71111W        W39329  32.101   8.337   0.297
71112W        W39330  30.080  31.739  14.541
71113W        W39331   3.959  35.150   3.717
71114W        W39332  24.048  25.559  13.899
71115W        W39333  27.178  25.074   4.454
71116W        W39334  36.136   7.500   3.383
71117W        W39335   8.791  25.180  14.405
71118W        W39336  17.138  10.193  13.729
71119W        W39337  30.445   2.956  13.171
71120W        W39338  32.441   5.852  10.704
71121W        W39339  42.014  16.695  11.642
71122W        W39340  42.453  33.418  11.388
71123W        W39341  15.734  21.281   3.574
71124W        W39342  44.955  14.277   1.349
71125W        W39343  23.857   7.863   4.802
71126W        W39344  17.724  34.139  14.736
71127W        W39345  28.083   8.617  11.925
71128W        W39346  20.784   1.139  13.335
71129W        W39347  24.912  16.579   4.893
71130W        W39348  44.892  40.583   3.812
71131W        W39349   0.688  25.360   0.878
71132W        W39350  38.572  21.169  14.339
71133W        W39351  22.222  13.739  14.665
71134W        W39352  34.537  34.481   3.763
71135W        W39353  22.818  12.773   1.932
71136W        W39354  13.834   8.078  11.112
71137W        W39355  34.522  42.466   4.538
71138W        W39356  16.783  18.446   2.705
71139W        W39357  23.103  36.040   0.759
71140W        W39358  42.549  42.038  14.280
71141W        W39359  13.050  30.656  11.082
71142W        W39360  10.750  20.985   4.609
71143W        W39361   0.454  36.938  12.552
71144W        W39362  21.532  37.062   3.575
71145W        W39363  16.537  35.746   1.257
71146W        W39364  19.476  36.709  13.342
71147W        W39365  31.157   9.789   1.018
71148W        W39366  22.519  22.526  13.437
71149W        W39367   4.430  16.403  13.091
71150W        W39368  14.247  11.475   2.824
71151W        W39369  26.270  13.680  14.534
71152W        W39370  19.168  17.264  11.013
71153W        W39371  17.487  42.233   2.334
71154W        W39372  38.268  43.538   0.492
71155W        W39373   6.083  37.722   4.973
71156W        W39374  30.466  33.688   1.305
71157W        W39375   3.382  29.448   4.586
71158W        W39376  25.077  31.016  11.227
71159W        W39377  36.716   2.653  13.003
71160W        W39378  32.051  28.838  14.864
71161W        W39379   1.006  32.989   4.173
71162W        W39380  40.795  12.843  11.652
71163W        W39381   6.019  22.300   3.421
71164W        W39382  24.655   3.983  12.116
71165W        W39383   9.617   8.409   4.040
71166W        W39384  39.403  10.657  12.291
71167W        W39385  30.998  28.725  14.229
71168W        W39386  34.828  27.070   2.440
71169W        W39387  11.202   6.261  13.988
71170W        W39388  21.070  16.626   1.331
71171W        W39389  37.038   2.417  13.765
71172W        W39390  37.555  35.349  14.520
71173W        W39391  44.379  16.235   0.707
71174W        W39392   9.894  31.554  12.811
71175W        W39393  32.608   2.755  11.161
71176W        W39394  44.418  38.624   0.893
71177W        W39395  26.323  12.149  10.358
71178W        W39396  10.587  38.730   3.182
71179W        W39397  16.628   4.887   2.306
71180W        W39398  42.997  40.309  14.467
71181W        W39399  40.910   8.726  12.195
71182W        W39400  29.205  18.074   3.430
71183W        W39401  43.275  39.769  12.828
71184W        W39402  31.961  10.044  11.465
71185W        W39403   0.039  27.208   1.661
71186W        W39404  16.219   5.469  13.086
71187W        W39405  42.582  10.329  12.839
71188W        W39406   0.776  35.789   0.665
71189W        W39407   3.939  18.093   4.345
71190W        W39408  10.319  14.099  10.654
71191W        W39409  26.136  13.798  13.063
71192W        W39410  35.875  29.074   3.261
71193W        W39411  34.001  21.788   4.158
71194W        W39412  33.076  28.976  10.716
71195W        W39413  28.079  28.618  10.820
71196W        W39414   5.944  23.281   4.726
71197W        W39415  42.956   5.912   3.898
71198W        W39416  15.163  22.974   4.016
71199W        W39417  43.988  39.856   1.739
71200W        W39418  42.286  38.449  11.462
71201W        W39419  33.951  20.634  14.455
71202W        W39420   5.344  35.611  12.430
71203W        W39421   0.784  37.259   1.641
71204W        W39422  13.890  32.115   2.335
71205W        W39423   0.771  19.276   3.821
71206W        W39424  19.786  22.541  13.336
71207W        W39425   9.557  22.155  11.428
71208W        W39426  19.309  35.485  10.769
71209W        W39427  29.180  40.805  10.594
71210W        W39428  33.584  19.183   1.384
71211W        W39429  21.057  27.420   0.721
71212W        W39430  32.550  39.128  13.903
71213W        W39431  10.219  13.111   2.612
71214W        W39432  44.715  15.296   3.075
71215W        W39433  31.616   9.604   4.958
71216W        W39434  23.720  43.340  10.990
71217W        W39435   5.228  19.745  12.944
71218W        W39436  18.835   8.304  11.943
71219W        W39437  25.158  23.359  13.888
71220W        W39438  32.359  41.568   1.350
71221W        W39439  34.303   8.336  14.909
71222W        W39440   7.080  38.895  14.724
71223W        W39441  26.789   5.977  14.031
71224W        W39442  30.398  24.060   1.537
71225W        W39443  22.060  30.132  10.892
71226W        W39444  30.543   1.319   3.272
71227W        W39445  15.746  32.045  11.502
71228W        W39446   9.427  18.219   3.240
71229W        W39447   9.810  38.392  13.424
71230W        W39448   6.192  40.873  13.831
71231W        W39449  36.418  14.463   0.457
71232W        W39450  34.357  26.137  11.631
71233W        W39451  39.322  42.825  13.944
71234W        W39452  35.510  20.325   1.224
71235W        W39453   9.296   4.306   4.490
71236W        W39454  14.842  22.286  13.885
71237W        W39455  42.486   0.466  13.757
71238W        W39456  44.524  13.902   0.372
71239W        W39457   7.671  37.894  13.742
71240W        W39458  20.313  13.169  10.590
71241W        W39459  38.454   4.306   2.767
71242W        W39460  13.848  27.163  13.061
71243W        W39461  34.999  42.017  14.236
71244W        W39462  24.057  30.470  14.868
71245W        W39463  18.112  15.816   1.210
71246W        W39464   7.693  13.904  10.650
71247W        W39465  23.892  10.300   2.143
71248W        W39466  31.664   1.653   2.742
71249W        W39467  28.887  43.587  12.500
71250W        W39468  24.076   6.552   2.290
71251W        W39469   6.605   4.466   3.273
71252W        W39470  22.072  16.573  12.100
71253W        W39471  36.443  42.408   0.537
71254W        W39472  44.134  29.624   0.801
71255W        W39473   9.904  44.446   0.327
71256W        W39474   9.330  25.890  12.829
71257W        W39475   6.307  16.197   2.275
71258W        W39476  19.110   2.874  10.502
71259W        W39477  39.905  21.407  12.013
71260W        W39478  11.255  25.415   1.858
71261W        W39479  43.501   1.250   0.915
71262W        W39480  14.240   8.959   5.011
71263W        W39481   2.163  21.712  13.175
71264W        W39482   5.913  26.441   0.811
71265W        W39483  43.694   3.108  11.994
71266W        W39484   7.341  39.040   1.474
71267W        W39485  41.173  42.908   3.194
71268W        W39486  19.133  19.314   1.667
71269W        W39487   6.738  12.583   0.934
71270W        W39488  40.280  33.578   2.418
71271W        W39489  17.686  22.660   4.098
71272W        W39490  25.004  31.007  14.084
71273W        W39491  21.164  16.626  11.872
71274W        W39492  42.313  15.531  11.995
71275W        W39493  13.045  20.085  11.079
71276W        W39494  15.407  43.257  12.538
71277W        W39495  30.493   3.875  13.015
71278W        W39496  18.473  26.102  14.891
71279W        W39497  12.749  15.578   0.278
71280W        W39498  16.257  14.195   4.065
71281W        W39499  10.672  24.293  13.341
71282W        W39500  36.442  12.368  11.206
71283W        W39501  31.613  32.933   3.069
71284W        W39502   3.207  37.436  12.458
71285W        W39503  22.086  22.751  13.724
71286W        W39504   9.139   6.612  13.389
71287W        W39505  37.413  24.964   0.041
71288W        W39506  38.355  36.201   1.019
71289W        W39507   9.818   4.287   3.267
71290W        W39508  13.176  41.793   3.040
71291W        W39509   3.241  21.792   2.313
71292W        W39510  14.009  32.080   4.233
71293W        W39511   8.883  24.031   2.854
71294W        W39512  29.049  32.557   1.335
71295W        W39513   4.761   7.276  12.475
71296W        W39514  42.908  13.023  14.942
71297W        W39515   8.820  36.033  14.817
71298W        W39516  26.070  13.794   1.367
71299W        W39517   8.220  30.466  13.519
71300W        W39518  27.070  21.679  11.384
71301W        W39519   7.824  25.701   4.273
71302W        W39520   2.185  42.886   4.954
71303W        W39521   9.830  40.346   2.932
71304W        W39522   3.127   6.197   4.916
71305W        W39523  14.830  43.519  14.902
71306W        W39524  32.612  19.561   4.899
71307W        W39525   0.798  25.657   4.063
71308W        W39526  25.630   9.391   0.094
71309W        W39527   6.861  44.151   0.213
71310W        W39528   9.164  11.821   3.190
71311W        W39529  11.245  24.492   1.882
71312W        W39530  14.831  20.524   3.725
71313W        W39531  25.863  32.514  13.025
71314W        W39532  21.665  36.676  10.722
71315W        W39533  44.263  38.840   1.340
71316W        W39534  20.780   1.474   2.374
71317W        W39535  40.398  40.805  13.780
71318W        W39536  11.834   4.236  12.564
71319W        W39537  31.880  36.827  14.105
71320W        W39538  28.679  15.022   3.964
71321W        W39539  13.998  40.859  12.989
71322W        W39540  43.410  26.468  12.530
71323W        W39541  24.954  20.310  11.702
71324W        W39542  22.483   6.591  14.025
71325W        W39543  44.011  16.397   4.243
71326W        W39544  10.898  44.880  13.830
71327W        W39545  20.110  25.281   3.814
71328W        W39546  34.894  11.860   0.480
71329W        W39547   4.950  16.647   2.422
71330W        W39548   7.417  33.089   3.197
71331W        W39549   2.286  14.357  10.519
71332W        W39550  38.509   0.345  13.959
71333W        W39551  37.129   3.335  14.756
71334W        W39552   3.912  35.282  14.785
71335W        W39553  10.768   9.445  11.675
71336W        W39554  36.335   9.987  11.416
71337W        W39555  39.088  11.004  10.572
71338W        W39556  39.942  31.174   0.832
71339W        W39557   1.410  44.975   3.747
71340W        W39558  15.563  12.330   2.876
71341W        W39559   6.352  16.525   9.808
71342W        W39560   5.353  32.116   2.706
71343W        W39561  20.543  27.625   1.899
71344W        W39562  42.413  32.427   3.343
71345W        W39563  22.648  21.770  12.968
71346W        W39564  44.401  33.924   0.961
71347W        W39565   3.230  19.111   3.662
71348W        W39566  31.697  34.549  13.828
71349W        W39567   2.696  37.770  14.883
71350W        W39568  17.239  19.998   0.960
71351W        W39569  19.633  32.057   3.592
71352W        W39570  15.342  27.506   0.379
71353W        W39571   2.966  13.595  12.557
71354W        W39572  36.286  11.704  14.787
71355W        W39573  15.234   8.029  11.091
71356W        W39574  39.226  34.214  12.479
71357W        W39575   5.693  41.292  13.476
71358W        W39576   4.467  16.886  11.631
71359W        W39577  19.061  31.185  11.796
71360W        W39578  38.092  23.349  13.682
71361W        W39579  23.247  17.815  14.844
71362W        W39580   2.993  37.920  12.227
71363W        W39581   1.143  28.360   2.380
71364W        W39582  24.837  19.207  11.376
71365W        W39583  28.924  12.628   4.143
71366W        W39584  19.971  16.129   3.242
71367W        W39585  28.480  42.443  14.482
71368W        W39586  15.507   3.476  12.084
71369W        W39587  11.252  22.115   4.486
71370W        W39588   0.833  27.581   4.485
71371W        W39589  21.526   5.178   2.131
71372W        W39590  34.034  17.656  13.842
71373W        W39591  14.137  23.103  10.647
71374W        W39592  11.204  17.734   2.557
71375W        W39593  18.773  17.344   0.879
71376W        W39594   7.223   9.187  11.134
71377W        W39595  35.907   2.141  13.265
71378W        W39596   2.047  24.283   0.358
71379W        W39597   3.704  30.876   1.886
71380W        W39598   5.720   2.522  13.442
71381W        W39599   0.716  12.655  13.061
71382W        W39600  24.334   0.534  13.563
71383W        W39601  19.585   5.964  11.173
71384W        W39602  15.599  41.976  13.112
71385W        W39603  19.877   9.840  13.819
71386W        W39604  10.649   9.370  13.520
71387W        W39605  11.176  12.237  12.153
71388W        W39606  29.626  12.774  13.967
71389W        W39607   8.578   8.281  13.118
71390W        W39608  30.370  36.356  13.569
71391W        W39609   8.434  38.610  14.480
71392W        W39610   0.893   0.913   4.115
71393W        W39611  38.548  15.478   4.934
71394W        W39612  44.841  41.598  11.396
71395W        W39613  34.905  36.586   3.651
71396W        W39614  16.107   6.221   4.379
71397W        W39615  35.761   5.907  13.519
71398W        W39616  20.695  20.769   1.929
71399W        W39617  33.515  21.754   2.368
71400W        W39618  18.812  20.314   3.310
71401W        W39619   9.818   6.679   1.799
71402W        W39620  37.479  12.629   3.985
71403W        W39621  10.841  34.558  10.957
71404W        W39622  10.668  43.302  11.961
71405W        W39623  38.888  22.201  11.991
71406W        W39624  12.638  43.944  12.555
71407W        W39625  14.701  39.012   2.040
71408W        W39626  10.849  40.290  14.340
71409W        W39627  17.199  14.198   3.145
71410W        W39628   0.976   4.243  11.198
71411W        W39629  34.961  13.096   4.858
71412W        W39630   1.298  13.114   3.231
71413W        W39631   8.777  29.266  12.908
71414W        W39632   4.428  44.702   2.736
71415W        W39633  34.090   4.028  10.756
71416W        W39634  29.227  27.982  14.625
71417W        W39635  38.520  34.182  14.402
71418W        W39636  18.167   7.026  11.800
71419W        W39637  40.791  32.430   2.857
71420W        W39638  30.329  26.218   2.141
71421W        W39639   3.068  34.878   0.758
71422W        W39640  33.000  32.026   1.486
71423W        W39641  26.273  10.638  12.797
71424W        W39642  44.536  30.804   3.227
71425W        W39643  20.304   6.302  13.539
71426W        W39644  29.332  25.702  13.473
71427W        W39645  28.726  22.144   2.160
71428W        W39646  22.121  19.338   0.352
71429W        W39647  16.753  27.075  12.112
71430W        W39648  39.455  33.155   3.720
71431W        W39649  13.802  44.147  11.217
71432W        W39650  31.175  43.331  12.181
71433W        W39651  18.992  26.519  13.454
71434W        W39652  40.566  20.062  13.632
71435W        W39653  28.754  19.127  13.181
71436W        W39654   4.455  44.555  14.247
71437W        W39655   8.779  39.243  13.922
71438W        W39656  43.188  22.246  14.714
71439W        W39657  12.522  14.199   2.315
71440W        W39658  34.362  27.854   3.551
71441W        W39659  31.622  16.156   1.442
71442W        W39660  32.683   8.460  11.233
71443W        W39661  41.931  19.518   3.692
71444W        W39662  36.383  40.379  14.799
71445W        W39663  20.136  37.900  12.622
71446W        W39664  24.959  16.274   9.706
71447W        W39665  27.951  29.442  13.002
71448W        W39666  19.254  35.618   5.008
71449W        W39667  15.229  26.908   1.508
71450W        W39668  39.006  15.674   5.116
71451W        W39669  12.948  37.284   4.296
71452W        W39670   4.336   8.206   1.249
71453W        W39671  40.134  13.812   1.881
71454W        W39672  17.217  22.357   1.298
71455W        W39673  42.868  37.374  12.682
71456W        W39674  12.394  24.650   0.893
71457W        W39675  35.936   6.899   4.002
71458W        W39676  14.341  20.191  12.969
71459W        W39677  25.976  14.508   1.068
71460W        W39678  16.111  41.433   3.419
71461W        W39679  14.249  30.968  13.327
71462W        W39680  27.859  43.953  13.915
71463W        W39681  28.611   4.401  14.986
71464W        W39682  30.679  14.832  10.986
71465W        W39683  43.527  28.107  10.939
71466W        W39684  38.353  38.783  12.890
71467W        W39685  23.233  40.184  12.470
71468W        W39686   7.702  26.931   3.597
71469W        W39687   5.780  35.333   2.453
71470W        W39688   2.733   6.569   3.543
71471W        W39689  26.292  14.690  12.170
71472W        W39690   9.297   0.941  11.987
71473W        W39691  31.026  31.902   3.412
71474W        W39692  44.764   3.226   1.082
71475W        W39693  27.031   6.559   0.359
71476W        W39694  12.841  40.545  13.658
71477W        W39695  25.830  41.391   4.857
71478W        W39696  15.063  19.731  14.255
71479W        W39697  17.646  39.792  14.539
71480W        W39698  29.516   8.671  11.997
71481W        W39699   9.128  24.867  11.208
71482W        W39700  43.367  18.885  11.199
71483W        W39701  29.037  37.954  14.957
71484W        W39702  42.889  15.904  12.818
71485W        W39703  22.969  10.851   4.118
71486W        W39704   5.410  33.663  10.695
71487W        W39705   8.696  30.284  11.673
71488W        W39706  10.225  22.751   2.681
71489W        W39707  30.843  13.687   1.127
71490W        W39708  42.836  34.948  12.355
71491W        W39709  34.056   5.308   5.500
71492W        W39710  39.397  16.268   2.623
71493W        W39711  23.160   8.613   4.354
71494W        W39712  30.313  10.292  12.102
71495W        W39713   3.763   9.805   1.754
71496W        W39714  12.894  21.966   3.296
71497W        W39715   8.757  44.776  11.947
71498W        W39716  14.730  30.495   0.800
71499W        W39717  37.041  42.035   3.906
71500W        W39718  37.525  19.011  11.928
71501W        W39719  24.003   0.125  13.477
71502W        W39720  32.139  27.398   1.545
71503W        W39721  44.878  15.954  12.482
71504W        W39722  17.354   9.428  12.857
71505W        W39723  26.349  35.875   1.326
71506W        W39724  25.001   0.346   3.768
71507W        W39725  35.901  27.549  13.383
71508W        W39726  41.726   9.387  13.423
71509W        W39727   3.841  13.741  11.928
71510W        W39728  10.826  40.748  13.420
71511W        W39729   2.395   6.982  12.568
71512W        W39730  17.455  28.957   3.313
71513W        W39731   8.683   5.833  11.589
71514W        W39732  37.683  27.411   2.935
71515W        W39733  10.080  37.136  12.893
71516W        W39734  23.490   0.816   1.490
71517W        W39735  31.173  31.786  11.953
71518W        W39736  11.950   3.361  11.724
71519W        W39737  17.748  37.418   4.370
71520W        W39738  34.912  19.185   0.859
71521W        W39739  23.253   5.778   2.375
71522W        W39740  22.522  29.484  14.024
71523W        W39741  36.389  14.359  14.416
71524W        W39742  38.917  37.555  13.029
71525W        W39743  39.603  18.370  11.235
71526W        W39744  11.155   7.696  11.540
71527W        W39745  39.988  35.813   3.965
71528W        W39746  10.845   3.705  11.121
71529W        W39747   3.414  31.572   0.364
71530W        W39748  24.910  20.843  13.876
71531W        W39749  22.504  34.896  12.034
71532W        W39750  25.741  38.914   3.362
71533W        W39751  15.319   4.453  10.299
71534W        W39752  17.342  33.843   3.929
71535W        W39753  27.511  40.637  12.431
71536W        W39754  14.145  39.470  12.490
71537W        W39755  42.966  43.867  12.575
71538W        W39756   9.597  41.464  13.845
71539W        W39757  27.868  21.234   0.229
71540W        W39758  15.811  19.090   0.041
71541W        W39759  23.146   4.366   3.195
71542W        W39760  32.159   1.643   4.056
71543W        W39761  28.753  16.454   4.160
71544W        W39762  27.015  12.542  11.523
71545W        W39763  27.065  30.342  10.810
71546W        W39764  11.832  13.142   2.762
71547W        W39765  10.570   8.637   3.312
71548W        W39766   8.182   7.785   0.749
71549W        W39767   6.861  15.699  10.687
71550W        W39768  35.866  26.568   2.646
71551W        W39769  13.062   3.969   4.280
71552W        W39770  13.130   9.883  11.101
71553W        W39771  22.644  18.210  10.373
71554W        W39772  37.937   9.402  11.048
71555W        W39773  15.814  25.000   3.304
71556W        W39774  15.442  11.102   1.322
71557W        W39775  31.381  42.785  12.241
71558W        W39776  29.016   2.972   4.006
71559W        W39777   2.866  42.012  14.707
71560W        W39778  33.397  20.161   1.814
71561W        W39779  24.165   2.912   4.433
71562W        W39780   7.631  39.833   4.122
71563W        W39781  28.614   7.798   1.353
71564W        W39782  11.633  26.194   1.520
71565W        W39783   8.736  23.767   4.173
71566W        W39784   5.942  21.285   3.649
71567W        W39785  29.570  25.634  10.462
71568W        W39786  10.671  32.387   1.225
71569W        W39787   2.803  42.393   3.307
71570W        W39788  39.526   8.833   0.199
71571W        W39789  19.840  33.279  13.019
71572W        W39790  38.297  17.558   1.934
71573W        W39791  13.135  23.215  11.204
71574W        W39792  35.102  37.883   4.048
71575W        W39793  33.955  18.115  12.044
71576W        W39794  22.521  41.254   2.882
71577W        W39795  42.403  18.719   3.571
71578W        W39796  27.569  33.522  11.578
71579W        W39797   4.420   1.685   1.377
71580W        W39798   3.404  35.830  11.679
71581W        W39799  16.290  22.471  11.166
71582W        W39800  15.336  34.600   3.437
71583W        W39801   4.412  23.595  14.781
71584W        W39802  20.438   1.673   1.995
71585W        W39803  23.154  44.997  10.961
71586W        W39804   9.469  22.546  10.042
71587W        W39805  12.873  39.015  12.843
71588W        W39806  44.013   7.800  13.645
71589W        W39807  30.115  25.722  11.655
71590W        W39808  41.536  36.921   3.099
71591W        W39809   1.264  17.652  14.819
71592W        W39810  30.629  25.058  14.279
71593W        W39811   8.407   0.233  14.960
71594W        W39812  37.857  11.932  13.685
71595W        W39813  37.504  18.879  13.972
71596W        W39814  18.219  24.118   4.174
71597W        W39815  27.886   6.675   2.407
71598W        W39816  10.854   8.756   2.877
71599W        W39817  35.466  42.630   1.292
71600W        W39818  20.817  22.110  10.673
71601W        W39819   9.326  35.195  11.168
71602W        W39820   7.898  30.325  14.013
71603W        W39821  42.867  29.414  13.525
71604W        W39822  13.741  21.208   4.298
71605W        W39823   3.592  36.950   4.733
71606W        W39824  25.269   9.699   3.669
71607W        W39825  12.928  21.288   4.550
71608W        W39826  18.519  44.685  14.943
71609W        W39827  37.524  32.047   3.245
71610W        W39828  14.678  38.848  10.739
71611W        W39829  28.420  39.635   4.115
71612W        W39830   7.174  24.232  11.770
71613W        W39831   5.284  31.759   3.101
71614W        W39832  35.515  17.199  14.149
71615W        W39833  33.513  34.840  10.634
71616W        W39834  27.635  30.960   5.110
71617W        W39835  39.624  34.235   4.823
71618W        W39836  15.970  26.527  11.015
71619W        W39837  28.397  37.942  10.847
71620W        W39838  40.323  20.541   4.874
71621W        W39839  23.929   6.232   4.191
71622W        W39840  10.624  21.562   0.616
71623W        W39841  27.442  26.049  13.797
71624W        W39842   7.131  19.454  13.599
71625W        W39843   5.883  31.007  14.951
71626W        W39844  42.073  28.592   3.194
71627W        W39845   8.660  37.910  12.566
71628W        W39846   2.006  43.973   0.297
71629W        W39847  14.051  35.571   3.517
71630W        W39848  12.283   6.146  12.867
71631W        W39849   7.384  31.002  11.228
71632W        W39850  18.767  23.047  13.015
71633W        W39851  21.615  30.166   3.787
71634W        W39852  44.005  38.015   3.912
71635W        W39853  23.244  12.563  11.537
71636W        W39854  21.933  19.217   2.828
71637W        W39855  34.846  24.597   3.795
71638W        W39856  25.232   6.106   3.143
71639W        W39857  14.134  42.419   9.844
71640W        W39858  13.122  21.572  12.353
71641W        W39859   4.673  31.852  11.202
71642W        W39860  30.772  24.019   3.184
71643W        W39861  26.416  30.989   4.219
71644W        W39862  11.694  44.766   1.834
71645W        W39863  28.421  26.322   0.854
71646W        W39864   6.718  24.528   2.797
71647W        W39865  27.556  24.224  14.416
71648W        W39866   5.173   1.420  12.872
71649W        W39867  17.301   4.222   1.633
71650W        W39868  39.509   4.739  13.071
71651W        W39869  39.393   6.794   2.385
71652W        W39870   7.323  21.045  12.075
71653W        W39871  23.049   6.357   4.903
71654W        W39872  21.169  41.902  10.648
71655W        W39873   3.761  36.977  12.431
71656W        W39874  14.565  10.903  12.090
71657W        W39875  10.892  22.054  12.105
71658W        W39876  36.799  20.137   3.509
71659W        W39877   3.893  18.597  10.471
71660W        W39878  19.997   8.828   1.979
71661W        W39879  20.716   7.494  14.184
71662W        W39880   3.674  33.138   2.134
71663W        W39881  38.980  37.620  13.872
71664W        W39882  25.712  40.764  10.080
71665W        W39883  38.473  28.431   1.768
71666W        W39884  40.797  34.367   0.825
71667W        W39885  10.737   3.855  14.196
71668W        W39886   5.944  44.877  10.830
71669W        W39887  26.420  16.861  11.074
71670W        W39888  21.168   8.112  14.835
71671W        W39889  16.697  39.416   0.847
71672W        W39890  20.278   8.247  14.713
71673W        W39891   8.154  42.767  10.138
71674W        W39892  22.263  14.843   1.588
71675W        W39893  41.482  17.121  14.810
71676W        W39894  19.040  29.571  14.537
71677W        W39895   8.228  28.119   0.295
71678W        W39896  28.165   1.932   9.904
71679W        W39897  29.635  40.583  10.447
71680W        W39898  27.493   2.154  14.295
71681W        W39899  37.938  41.923   1.497
71682W        W39900  25.602  19.562  14.421
71683W        W39901  31.661  11.034  13.228
71684W        W39902   5.863  32.112   4.502
71685W        W39903  28.908  11.849  11.554
71686W        W39904  36.654   8.272   0.983
71687W        W39905  28.971  10.935  12.477
71688W        W39906  31.975  15.081  12.032
71689W        W39907  30.192  42.481   0.300
71690W        W39908  23.938  20.009  11.519
71691W        W39909   0.968   1.912  14.615
71692W        W39910   0.770  15.918  13.784
71693W        W39911   1.201  21.992   0.300
71694W        W39912  29.172   0.096   2.831
71695W        W39913  39.993  30.396  13.239
71696W        W39914  41.462  43.885  11.240
71697W        W39915  33.461  19.053  10.612
71698W        W39916  35.950  41.019   1.780
71699W        W39917  37.769  15.777   4.674
71700W        W39918  38.364  17.011   2.677
71701W        W39919  34.845  34.213  10.961
71702W        W39920  14.943   5.245  13.825
71703W        W39921  13.901  30.423  14.419
71704W        W39922  22.323  23.241  13.801
71705W        W39923  10.780  10.397   1.796
71706W        W39924  16.250   5.400   2.954
71707W        W39925  10.668  39.259  13.474
71708W        W39926  16.269  39.947  13.801
71709W        W39927  37.831   1.499  10.269
71710W        W39928  43.986  12.677   2.770
71711W        W39929   9.771   8.439   2.225
71712W        W39930   1.202  41.226   4.209
71713W        W39931   9.592  40.057  14.876
71714W        W39932  23.562  17.078   4.248
71715W        W39933  43.027  26.135   2.742
71716W        W39934  26.430  32.074   3.411
71717W        W39935  34.507  29.570  14.065
71718W        W39936  22.469   2.256  12.954
71719W        W39937  33.711  15.574   1.189
71720W        W39938  32.051  26.574  11.002
71721W        W39939   6.288  11.724   2.299
71722W        W39940  23.450  11.307   0.245
71723W        W39941   7.270  43.735  12.219
71724W        W39942  18.749  24.523   2.839
71725W        W39943   7.518  30.668  13.953
71726W        W39944  29.144  36.020   3.593
71727W        W39945   0.538  40.027   4.451
71728W        W39946   7.577  34.506  13.853
71729W        W39947  34.404   4.795  10.939
71730W        W39948   7.362   5.768   4.642
71731W        W39949  36.615  15.263  11.112
71732W        W39950  29.090  25.573  11.621
71733W        W39951   0.370  17.458   4.825
71734W        W39952  35.635  29.695  11.569
71735W        W39953  29.494   9.822   2.809
71736W        W39954  14.706  29.742  13.411
71737W        W39955  34.530   9.160   2.395
71738W        W39956  42.896   6.028  13.272
71739W        W39957  37.591  20.485   4.481
71740W        W39958   6.172   4.309   2.250
71741W        W39959  44.963  37.545   1.930
71742W        W39960  35.420  16.733  11.293
71743W        W39961  12.831  40.375  12.877
71744W        W39962  37.834   8.824   4.328
71745W        W39963  36.096  39.906  14.039
71746W        W39964  26.535   1.001  14.484
71747W        W39965  37.411  12.958   4.609
71748W        W39966  18.743  42.798   4.027
71749W        W39967  10.397   9.517  13.098
71750W        W39968  36.857  10.135  14.970
71751W        W39969  20.053  20.142   0.406
71752W        W39970  22.257  38.913  14.915
71753W        W39971   7.265  35.091  10.695
71754W        W39972  42.510   4.655   3.702
71755W        W39973  23.590  44.883  11.212
71756W        W39974  22.398  19.541  13.392
71757W        W39975   8.784  40.629  12.150
71758W        W39976   2.519  33.853  10.570
71759W        W39977  35.842  14.620  14.427
71760W        W39978  15.376  43.086  14.347
71761W        W39979   5.331   3.985   3.521
71762W        W39980  12.861   3.293   3.903
71763W        W39981  15.709   9.286   4.967
71764W        W39982   4.252   9.459  14.427
71765W        W39983  10.098  20.493   0.474
71766W        W39984  39.847  41.556  12.678
71767W        W39985  16.376   2.963   0.802
71768W        W39986  30.828   7.217  14.950
71769W        W39987  11.748  21.984  10.677
71770W        W39988   0.861  31.846   3.704
71771W        W39989   2.794  18.965   0.724
71772W        W39990  26.105   9.117   1.905
71773W        W39991  22.936  32.905  11.536
71774W        W39992  24.483   0.009  10.716
71775W        W39993  44.474  18.204   2.640
71776W        W39994  22.677  28.613   3.327
71777W        W39995  21.972  34.862  14.324
71778W        W39996  42.601  16.691  12.458
71779W        W39997   5.673  44.286   0.847
71780W        W39998   9.467  36.018  11.983
71781W        W39999  42.810   1.422   4.645
71782W        W40000   5.977   7.919   3.373
71783W        W40001  23.535  27.717   3.648
71784W        W40002  26.441  22.556  14.509
71785W        W40003  11.708   1.614  14.802
71786W        W40004  16.559  24.357   2.360
71787W        W40005   8.918  32.594   1.788
71788W        W40006  32.628  15.687  14.775
71789W        W40007  37.375  18.736   2.282
71790W        W40008   5.127  19.042   1.877
71791W        W40009  10.611  27.675   1.323
71792W        W40010  23.103  31.179  10.559
71793W        W40011  14.077  37.512  13.975
71794W        W40012   7.677  41.133   1.812
71795W        W40013  21.290   8.871   0.486
71796W        W40014   2.971  43.439  12.766
71797W        W40015   1.209  17.051  14.188
71798W        W40016  39.132  24.108  13.879
71799W        W40017  30.344  42.679   2.789
71800W        W40018  43.290  11.196  13.546
71801W        W40019   9.610  16.247   0.424
71802W        W40020  42.424  21.319   9.937
71803W        W40021  15.551   1.795   4.136
71804W        W40022  38.965  12.184  14.957
71805W        W40023  12.208   2.676  12.911
71806W        W40024  27.708  35.034  10.698
71807W        W40025  24.662   3.411   1.388
71808W        W40026  28.154   4.529  14.403
71809W        W40027  15.564  26.140   0.862
71810W        W40028   0.738  12.602   1.904
71811W        W40029  40.822  13.251  14.040
71812W        W40030   5.405  33.657  12.741
71813W        W40031   3.060  10.439  12.518
71814W        W40032  15.821  28.986  12.039
71815W        W40033  42.997  10.066   4.842
71816W        W40034  42.461   1.059   3.165
71817W        W40035  16.505  24.037   1.387
71818W        W40036  27.444   6.811   3.260
71819W        W40037  24.171  18.279  10.786
71820W        W40038   3.550   9.550  10.198
71821W        W40039   5.795  16.283  13.981
71822W        W40040  32.206  21.741   3.685
71823W        W40041  11.327  12.390   1.210
71824W        W40042  31.646  24.518  10.695
71825W        W40043   1.317  32.883  12.975
71826W        W40044  12.066  28.546   3.642
71827W        W40045  36.053  30.120   0.786
71828W        W40046  17.636  18.418  10.699
71829W        W40047  18.701   0.213   4.127
71830W        W40048  24.287  36.605   0.876
71831W        W40049  24.431  40.330  11.597
71832W        W40050  27.246  25.749  11.680
71833W        W40051  37.968  32.665   3.743
71834W        W40052   9.292  27.461   1.026
71835W        W40053   8.380  18.288   1.429
71836W        W40054  30.053  20.772  10.602
71837W        W40055   2.261  25.493  11.164
71838W        W40056  26.222   1.852  12.897
71839W        W40057  38.882  13.651  11.177
71840W        W40058  20.719   3.381  14.430
71841W        W40059  30.480  42.628  12.198
71842W        W40060  35.518  34.461   4.756
71843W        W40061  15.128   5.713  11.916
71844W        W40062  22.091   8.147  12.829
71845W        W40063  28.442  26.547  14.000
71846W        W40064   4.333  13.296  12.542
71847W        W40065  36.794  37.017  12.381
71848W        W40066  26.453  33.500  12.694
71849W        W40067  44.165  39.386   4.365
71850W        W40068  17.810   9.172   0.905
71851W        W40069  14.029  18.182   0.902
71852W        W40070  32.292   6.047   3.374
71853W        W40071   8.271  28.478  14.906
71854W        W40072  32.998  12.115   0.386
71855W        W40073   4.448  30.552  11.440
71856W        W40074  16.696   8.500   1.734
71857W        W40075  32.664  25.403   1.581
71858W        W40076  22.489  33.897  12.057
71859W        W40077  36.103  39.039   0.463
71860W        W40078  36.486  22.495   1.299
71861W        W40079  12.154  44.906   4.716
71862W        W40080  38.428  23.537  10.674
71863W        W40081  14.383   5.226  12.120
71864W        W40082  21.039  44.874  12.729
71865W        W40083  43.877  11.548  13.910
71866W        W40084  38.502  31.052  12.025
71867W        W40085  34.280  28.965   0.443
71868W        W40086  34.589   5.176  10.546
71869W        W40087   3.946  39.297   1.989
71870W        W40088  33.488   1.868   4.049
71871W        W40089   9.279  35.955   2.336
71872W        W40090   5.282  24.205  13.539
71873W        W40091  17.937  23.029  11.458
71874W        W40092   0.987   5.301  11.884
71875W        W40093   4.563  28.982  12.097
71876W        W40094  22.160  35.084   2.411
71877W        W40095  40.652  12.650  11.204
71878W        W40096  26.074  16.320  14.828
71879W        W40097   1.529  18.737  13.592
71880W        W40098  42.737  37.913  13.399
71881W        W40099  34.381  33.968  13.894
71882W        W40100  33.895  10.909   2.373
71883W        W40101   7.167  41.899   9.876
71884W        W40102  35.368  32.309  11.080
71885W        W40103  31.107  36.109   2.357
71886W        W40104  44.023   2.970  13.848
71887W        W40105  43.343  15.109   1.784
71888W        W40106  36.201  42.932  13.454
71889W        W40107  36.946  11.211  13.285
71890W        W40108  19.374  42.991  12.923
71891W        W40109  37.038  25.212  12.934
71892W        W40110   8.139   8.371   1.461
71893W        W40111  17.468  28.668  13.273
71894W        W40112  38.396  37.447  10.379
71895W        W40113  36.770  16.251   2.381
71896W        W40114   7.902  14.130   2.233
71897W        W40115  18.330  34.961   0.757
71898W        W40116   3.993  35.177   0.834
71899W        W40117   7.289  32.174   0.770
71900W        W40118  34.985  24.329  11.319
71901W        W40119  20.276  18.555  14.535
71902W        W40120  32.161   4.287  12.704
71903W        W40121  34.001  23.637   3.726
71904W        W40122  21.768  36.632  11.617
71905W        W40123  43.000  15.668   3.708
71906W        W40124  44.869   8.500   3.374
71907W        W40125  17.678  14.094   2.854
71908W        W40126  36.474  14.458  10.491
71909W        W40127  16.658  24.169   1.878
71910W        W40128  29.055   6.587  12.512
71911W        W40129  27.850  27.631   3.831
71912W        W40130   0.237   0.811   1.257
71913W        W40131  28.700  33.005  12.366
71914W        W40132  26.643  20.759  13.534
71915W        W40133  18.970  10.218  11.823
71916W        W40134  22.283  28.727  14.387
71917W        W40135  20.596  19.989   2.431
71918W        W40136  36.003  15.621  14.636
71919W        W40137  28.655   6.029   1.424
71920W        W40138   9.515  35.054   4.182
71921W        W40139  24.666  36.999  11.471
71922W        W40140  18.213  40.874   2.130
71923W        W40141  20.147  11.240   1.905
71924W        W40142  32.155   0.343   4.972
71925W        W40143  35.017   6.455  13.863
71926W        W40144  42.101   8.868   1.902
71927W        W40145  12.183  10.620  12.286
71928W        W40146   2.775  41.041   4.764
71929W        W40147  21.996  21.994   4.449
71930W        W40148  31.124  19.527  13.942
71931W        W40149  40.410   3.153  12.550
71932W        W40150  13.192  22.703  13.076
71933W        W40151  19.507  36.388  12.062
71934W        W40152  31.712  33.869  13.388
71935W        W40153  36.515  17.655  13.532
71936W        W40154  33.234   8.807   1.269
71937W        W40155  25.510   5.382   1.781
71938W        W40156   8.633  21.730   2.222
71939W        W40157  37.906  22.996   2.745
71940W        W40158  42.521  37.156  14.258
71941W        W40159  10.117  43.215  12.837
71942W        W40160  35.766   5.929  14.766
71943W        W40161  32.673   3.170   1.452
71944W        W40162   2.466   1.191   2.019
71945W        W40163  36.351  13.044   3.052
71946W        W40164  38.628  43.044  10.158
71947W        W40165  23.667  36.195  10.689
71948W        W40166  11.751  14.797   1.009
71949W        W40167  13.571  41.470   3.008
71950W        W40168  12.393   0.444  11.458
71951W        W40169   8.082  40.396   2.534
71952W        W40170  44.978  31.598  14.320
71953W        W40171  43.028  16.859   0.212
71954W        W40172  33.811  24.527   1.940
71955W        W40173  25.237  11.132   1.512
71956W        W40174   3.498  44.386  13.514
71957W        W40175  25.746  16.460   0.634
71958W        W40176  33.584  28.643   3.206
71959W        W40177   1.772  11.096  14.756
71960W        W40178  35.267  38.107  12.994
71961W        W40179  24.714  28.166   4.027
71962W        W40180   7.685  14.148  11.148
71963W        W40181  33.643   7.367  10.809
71964W        W40182   5.906  31.816   1.844
71965W        W40183  29.922  16.597  14.479
71966W        W40184  36.071  19.607  11.159
71967W        W40185   8.224  42.296  10.686
71968W        W40186  19.692  21.894  11.634
71969W        W40187  37.817  31.019   2.401
71970W        W40188  40.485  40.084   3.645
71971W        W40189   3.653  43.279  11.956
71972W        W40190  40.037  41.842   0.241
71973W        W40191  10.276  33.917   4.002
71974W        W40192  44.442   3.231  14.012
71975W        W40193  18.812  33.240  13.920
71976W        W40194  34.664  23.750  10.755
71977W        W40195  32.119  16.981   2.633
71978W        W40196  41.267  31.556   1.397
71979W        W40197  35.589   1.931   9.903
71980W        W40198   0.354  37.850   3.624
71981W        W40199   6.060  21.625   4.059
71982ION    NA+40200   9.637  24.532   3.321
71983ION    NA+40201  20.447  17.732  10.914
71984ION    NA+40202   2.424   1.438  13.808
71985ION    NA+40203  40.865  11.177   2.449
71986ION    NA+40204   9.323  25.812   1.352
71987ION    NA+40205   5.503  22.541  11.181
71988ION    NA+40206  34.932   7.497   1.639
71989ION    NA+40207  34.888  29.211  11.180
71990ION    NA+40208  32.858  20.897   1.623
71991ION    NA+40209  16.185  23.947  11.440
71992ION    NA+40210  22.455  31.152  11.175
71993ION    NA+40211  25.733  41.502  14.012
71994ION    NA+40212   8.938   8.576   1.052
71995ION    NA+40213  20.639   5.797  14.723
71996ION    NA+40214  31.287  28.123   4.018
71997ION    NA+40215  37.927   7.239   2.500
71998ION    NA+40216  22.871   4.457  11.893
71999ION    NA+40217  22.632  42.289   2.173
72000ION    NA+40218   5.875  39.334   4.040
72001ION    NA+40219  44.749  19.019  12.907
72002ION    NA+40220   6.179  27.935  11.851
72003ION    NA+40221  14.515  23.638  13.277
72004ION    NA+40222  13.463   6.672   2.489
72005ION    NA+40223  40.903   7.869   4.323
72006ION    NA+40224   8.108  24.147  13.384
72007ION    NA+40225  24.862   6.102   1.971
72008ION    NA+40226   1.418   6.538  10.825
72009ION    NA+40227  25.989  31.135  12.499
72010ION    NA+40228  33.276  40.050  12.304
72011ION    NA+40229  35.617  32.504  11.776
72012ION    NA+40230  30.952  19.080  11.562
72013ION    NA+40231   6.333  41.069   1.303
72014ION    NA+40232  41.382  39.116  12.447
72015ION    NA+40233  26.673   5.671  13.624
72016ION    NA+40234  30.848  18.689   2.057
72017ION    NA+40235  31.174   2.717  13.426
72018ION    NA+40236   0.374   7.788  14.157
72019ION    NA+40237  35.451  21.685  13.751
72020ION    NA+40238  14.794  30.202  10.953
72021ION    NA+40239  10.703  16.134   9.949
72022ION    NA+40240  23.748  30.879  14.782
72023ION    NA+40241   5.514  43.830   1.098
72024ION    NA+40242  21.505  41.997  13.713
72025ION    NA+40243  31.979   7.854   0.101
72026ION    NA+40244   3.463   7.772   0.531
72027ION    NA+40245   9.755  28.386   0.330
72028ION    NA+40246   0.309  24.396   4.289
72029ION    NA+40247  37.538  30.962   1.221
72030ION    NA+40248  20.254  43.607  10.343
72031ION    NA+40249  34.058  23.377   4.183
72032ION    NA+40250  37.251  31.123   4.243
72033ION    NA+40251  13.543  24.935   2.699
72034ION    NA+40252  35.336   7.328   2.409
72035ION    NA+40253  35.190  17.174  14.554
72036ION    NA+40254   8.912  15.622  10.319
72037ION    NA+40255   5.552  40.378   2.220
72038ION    NA+40256   4.302  38.578  11.582
72039ION    NA+40257   9.845   2.139   1.680
72040ION    NA+40258   3.341  22.694  11.127
72041ION    NA+40259  31.441  34.360  13.316
72042ION    NA+40260  12.356  36.384   1.806
72043ION    NA+40261   4.943   1.615  13.812
72044ION    NA+40262  26.216  18.174  12.114
72045ION    NA+40263   2.789   6.465   4.577
72046ION    NA+40264  13.579  26.453  13.494
72047ION    NA+40265  40.316   6.217  14.275
72048ION    NA+40266  37.818  14.365  12.820
72049ION    NA+40267  22.771  34.366  14.255
72050ION    NA+40268  35.923   5.773  11.188
72051ION    NA+40269  12.799  23.430   1.277
72052ION    NA+40270  32.449  17.911   9.905
72053ION    NA+40271  31.323  18.906  14.596
72054ION    NA+40272  25.085  24.038   0.489
72055ION    NA+40273  22.141  43.860   4.578
72056ION    NA+40274  31.732  27.246   0.028
72057ION    NA+40275  25.964  22.146  13.423
72058ION    NA+40276   0.394   8.773   1.502
72059ION    NA+40277  22.775  20.308   3.497
72060ION    NA+40278   7.597  28.114   4.626
72061ION    NA+40279   2.775   2.762   1.493
72062ION    NA+40280  13.844  17.105   2.258
72063ION    NA+40281  17.638   7.826  12.912
72064ION    NA+40282   6.411  22.094  10.699
72065ION    NA+40283  14.264   5.511   0.009
72066ION    NA+40284  43.736  43.180  13.480
72067ION    NA+40285  31.514  31.062   2.841
72068ION    NA+40286  27.120  26.617  10.934
72069ION    NA+40287  11.151  31.670  11.581
72070ION    NA+40288  35.016  34.446  13.350
72071ION    NA+40289  13.096  19.471   0.895
72072ION    NA+40290  27.639  34.853  14.480
72073ION    NA+40291  42.816   7.433  13.355
72074ION    NA+40292  38.329  34.927  11.928
72075ION    NA+40293   9.305  31.814  13.802
72076ION    NA+40294  27.944  36.894  10.907
72077ION    NA+40295  41.545  27.094  13.758
72078ION    NA+40296  40.864   7.658  10.313
72079ION    NA+40297  19.591  15.060  14.794
72080ION    NA+40298  37.296   5.355   4.548
72081ION    NA+40299  40.273  13.904  10.835
72082ION    NA+40300  25.786  33.582  11.174
72083ION    NA+40301   6.683  39.744  14.681
72084ION    NA+40302   9.719  27.883   3.811
72085ION    NA+40303  10.529  40.640  11.130
72086ION    NA+40304  15.953  39.978   2.325
72087ION    NA+40305  27.878  41.069  12.402
72088ION    NA+40306   4.242  21.091  12.389
72089ION    NA+40307   7.418   1.392  12.676
72090ION    NA+40308  11.136  12.924  13.869
72091ION    NA+40309  42.979  38.919  13.970
72092ION    NA+40310  26.278   2.852   2.221
72093ION    NA+40311  40.407  25.269  11.966
72094ION    NA+40312  26.382  22.133   0.543
72095ION    NA+40313   5.321  17.523   4.231
72096ION    NA+40314  11.090  42.855  14.816
72097ION    NA+40315  31.377  23.948  12.979
72098ION    NA+40316  34.459   7.754  11.676
72099ION    NA+40317  44.214  27.527  10.948
72100ION    NA+40318   3.634  38.366  12.376
72101ION    NA+40319   2.096  35.342  13.926
72102ION    NA+40320  22.677  28.947   3.714
72103ION    NA+40321   5.025  31.846  11.564
72104ION    NA+40322   9.673  30.488   2.798
72105ION    NA+40323  11.920  18.001  14.961
72106ION    NA+40324  42.379   5.656   2.930
72107ION    NA+40325  20.943  29.665   1.590
72108ION    NA+40326  33.495   5.254   0.644
72109ION    NA+40327  17.106  36.139   3.818
72110ION    NA+40328  24.717  38.996  11.935
72111ION    NA+40329  25.579  27.999   0.818
72112ION    NA+40330  32.343  28.312   1.266
72113ION    NA+40331   6.161  32.188  13.638
72114ION    NA+40332   2.035  29.666   3.647
72115ION    NA+40333  11.674  38.644   0.349
72116ION    NA+40334  28.668  13.373   9.804
72117ION    NA+40335  33.199  20.424   0.588
72118ION    NA+40336  10.241  16.752   0.839
72119ION    NA+40337  25.457  27.907   1.806
72120ION    NA+40338  20.672  22.541  13.366
72121ION    NA+40339  12.762  18.004   0.518
72122ION    NA+40340  29.221  38.671   0.204
72123ION    NA+40341  31.459  17.247  10.562
72124ION    NA+40342  39.086   8.149   0.442
72125ION    NA+40343  24.008  22.009   1.158
72126ION    NA+40344  37.981  18.783   0.574
72127ION    NA+40345  26.494  44.984   4.590
72128ION    NA+40346  39.513  32.475   0.986
72129ION    NA+40347  10.627   7.833   0.812
72130ION    NA+40348   1.587  37.071  11.312
72131ION    NA+40349  33.111  29.295   4.643
72132ION    NA+40350  25.943   0.924  11.072
72133ION    NA+40351   3.903  17.738  11.028
72134ION    NA+40352  15.568  39.157   0.797
72135ION    NA+40353  13.482  27.361  10.786
72136ION    NA+40354  11.003  44.401  13.042
72137ION    NA+40355   0.418  13.423   0.084
72138ION    NA+40356  44.737  31.741  10.842
72139ION    NA+40357  24.555  21.977  12.255
72140ION    NA+40358  32.152  16.117  14.410
72141ION    NA+40359   4.521  20.340  11.201
72142ION    NA+40360  32.759  31.397  13.328
72143ION    NA+40361  41.360  43.591  14.308
72144ION    NA+40362   2.106  18.345   0.545
72145ION    NA+40363  24.659  35.805  12.429
72146ION    NA+40364   8.564  34.698  13.858
72147ION    NA+40365   4.158  26.663   3.087
72148ION    NA+40366   8.577  22.804   4.035
72149ION    NA+40367  28.223   9.941  14.306
72150ION    NA+40368   6.816  39.054   3.853
72151ION    NA+40369  35.555  32.434   4.295
72152ION    NA+40370   6.946  40.286   4.247
72153ION    NA+40371  14.673  33.136   4.399
72154ION    NA+40372  25.057  26.396  12.149
72155ION    NA+40373  33.112  14.634   3.999
72156ION    NA+40374   6.081  11.417   1.368
72157ION    NA+40375   0.820  14.766   1.147
72158ION    NA+40376   6.777   1.479   3.554
72159ION    NA+40377  43.055   0.423  10.382
72160ION    NA+40378  25.156   3.779  12.162
72161ION    NA+40379  22.638  21.206  13.010
72162ION    NA+40380  25.723  18.847  11.563
72163ION    NA+40381  29.582  17.280  13.414
72164ION    NA+40382  30.460  38.545  13.917
72165ION    NA+40383  20.591  33.964   1.844
72166ION    NA+40384   7.196   1.483   4.535
72167ION    NA+40385  17.814  15.560  12.019
72168ION    NA+40386  14.737  14.868   3.852
72169ION    NA+40387  30.831  24.782   2.220
72170ION    NA+40388  34.506   0.553   0.824
72171ION    NA+40389   9.163  41.255   4.811
72172ION    NA+40390  27.322   8.064   0.257
72173ION    NA+40391  33.660  40.880  11.893
72174ION    NA+40392  34.065  43.026  12.369
72175ION    NA+40393  33.047  28.577   4.040
72176ION    NA+40394  31.795   1.431   0.309
72177ION    NA+40395  25.252  13.043   2.196
72178ION    NA+40396  20.852  32.635   2.947
72179ION    NA+40397   5.361  20.546   3.494
72180ION    NA+40398  30.733  23.773   1.289
72181ION    NA+40399  42.356  31.338  10.759
72182ION    NA+40400  42.855   0.017  14.904
72183ION    NA+40401  15.917   0.640  13.015
72184ION    NA+40402  42.289  34.829  11.570
72185ION    NA+40403  25.959  27.501   3.507
72186ION    NA+40404   3.155  28.619   3.780
72187ION    NA+40405   2.933  18.821   0.209
72188ION    NA+40406  18.763  21.541  11.110
72189ION    NA+40407  32.376  29.505   1.689
72190ION    NA+40408   1.024  29.579   1.883
72191ION    NA+40409  25.515   1.440   3.151
72192ION    NA+40410   7.881   7.329   4.725
72193ION    NA+40411   6.190   2.063  12.250
72194ION    NA+40412  17.645  36.538   0.317
72195ION    NA+40413  21.601  12.166  12.163
72196ION    NA+40414  31.083  33.158  13.879
72197ION    NA+40415   0.781  10.225  11.574
72198ION    NA+40416  26.623  44.740  10.645
72199ION    NA+40417  30.168   6.728   4.526
72200ION    NA+40418  13.171  37.686   4.507
72201ION    NA+40419  21.546  23.074   1.224
72202ION    NA+40420  30.413  27.151  11.988
72203ION    NA+40421  18.608  27.084  13.883
72204ION    NA+40422  27.658   8.663   4.034
72205ION    NA+40423  37.443  24.513  10.376
72206ION    NA+40424   0.412  37.193  14.230
72207ION    NA+40425  38.785  17.560  11.792
72208ION    NA+40426  19.164  34.307  13.239
72209ION    NA+40427   9.579  20.050  14.070
72210ION    NA+40428  32.352  34.803  11.574
72211ION    NA+40429  36.192   2.138   3.765
72212ION    NA+40430  23.041   3.429   4.952
72213ION    NA+40431  44.260  29.933   4.622
72214ION    NA+40432  10.224  19.717   0.766
72215ION    NA+40433  28.249   4.333   1.640
72216ION    NA+40434  30.952  27.959  10.264
72217ION    NA+40435  18.733  26.957   2.332
72218ION    NA+40436  37.279  23.246  14.298
72219ION    NA+40437  44.561  41.970   2.415
72220ION    NA+40438   3.023   7.538  12.344
72221ION    NA+40439  19.030  44.740  13.279
72222ION    NA+40440  34.156  19.532   2.626
72223ION    NA+40441  32.664  39.856   2.320
72224ION    NA+40442  19.257   1.402  11.087
72225ION    NA+40443  20.891  25.651   4.566
72226ION    NA+40444  13.719  27.911   1.227
72227ION    NA+40445  12.920  36.007  13.379
72228ION    NA+40446  29.600  32.331   2.279
72229ION    NA+40447  19.767  39.471   2.248
72230ION    NA+40448  38.360  41.018  13.338
72231ION    NA+40449  36.282  31.320   4.394
72232ION    NA+40450  14.319   4.962  14.105
72233ION    NA+40451  43.597  18.976  11.648
72234ION    NA+40452  13.589  44.808  14.578
72235ION    NA+40453  13.319  25.626   2.115
72236ION    NA+40454  28.469   5.274   3.116
72237ION    NA+40455  16.476  40.847  11.500
72238ION    NA+40456  27.087  42.252   0.835
72239ION    NA+40457   7.012  16.498  11.026
72240ION    NA+40458  35.593  10.920   4.122
72241ION    NA+40459   9.697  38.975  12.151
72242ION    NA+40460  12.045  32.852   2.668
72243ION    NA+40461   2.029  44.464   3.210
72244ION    NA+40462  39.596  38.358  12.510
72245ION    NA+40463  44.771  35.189   1.811
72246ION    NA+40464  12.436  13.800  13.183
72247ION    NA+40465   8.381  40.473  10.704
72248ION    NA+40466  24.974  24.084  12.165
72249ION    NA+40467  18.321  25.865  11.747
72250ION    NA+40468  38.018  21.564  11.193
72251ION    NA+40469  40.463  39.492   3.169
72252ION    NA+40470  15.048   1.331   1.235
72253ION    NA+40471  21.106   5.749   4.663
72254ION    NA+40472  37.053  15.550  11.111
72255ION    NA+40473  32.431  22.047   0.023
72256ION    NA+40474  43.743  23.831  12.575
72257ION    NA+40475   4.532  15.577   0.955
72258ION    NA+40476  37.338  42.654   1.464
72259ION    NA+40477  13.739  31.094  11.980
72260ION    NA+40478  30.798  20.124   2.558
72261ION    NA+40479  17.826  32.059  11.849
72262ION    NA+40480   9.266  29.080   0.100
72263ION    NA+40481  10.860   8.647   1.345
72264ION    NA+40482   2.178  44.974  12.415
72265ION    NA+40483  21.834  34.144   1.761
72266ION    NA+40484  38.128   3.666  13.463
72267ION    NA+40485  35.232  38.347   2.682
72268ION    NA+40486  24.335  24.707   2.949
72269ION    NA+40487   2.198  28.529  13.703
72270ION    NA+40488  43.383  42.344  13.950
72271ION    NA+40489  20.751  26.708  11.486
72272ION    NA+40490   1.265  32.623  11.151
72273ION    NA+40491  30.465  32.489  13.467
72274ION    NA+40492   5.310  20.829  11.295
72275ION    NA+40493  13.155   4.536  12.867
72276ION    NA+40494  41.219  10.356  10.954
72277ION    NA+40495  19.480  13.366   3.013
72278ION    NA+40496  31.671  42.365  14.384
72279ION    NA+40497  44.664   6.322   4.046
72280ION    NA+40498  15.755  41.150  14.337
72281ION    NA+40499  14.327  38.909  11.648
72282ION    NA+40500  19.281   4.332   1.072
72283ION    NA+40501  31.581   2.282   2.202
72284ION    NA+40502  29.560  37.977   1.874
72285ION    NA+40503  22.844   6.740   2.289
72286ION    NA+40504  21.508  23.596  14.075
72287ION    NA+40505  39.715  41.099  12.194
72288ION    NA+40506  16.367  35.465   3.788
72289ION    NA+40507  11.214   9.649   4.668
72290ION    NA+40508  37.160  34.207   1.304
72291ION    NA+40509  11.546  32.267  12.964
72292ION    NA+40510  22.318  19.339  14.791
72293ION    NA+40511  42.117  41.689  11.075
72294ION    NA+40512  37.994  36.527   1.545
72295ION    NA+40513   1.338  21.317   1.486
72296ION    NA+40514  30.187  10.798  12.206
72297ION    NA+40515  37.725   1.035   2.074
72298ION    NA+40516  38.770   0.158  13.328
72299ION    NA+40517   1.085   0.894  14.088
72300ION    NA+40518  37.844  35.351   3.779
72301ION    NA+40519  35.191  33.140   1.257
72302ION    NA+40520  27.421  34.423  12.953
72303ION    NA+40521   3.853  16.334  13.502
72304ION    NA+40522  18.130  19.374   2.426
72305ION    NA+40523   1.998  33.911  11.521
72306ION    NA+40524  30.044  39.029   0.647
72307ION    NA+40525   0.988  22.201  11.494
72308ION    NA+40526  11.625  36.212  11.135
72309ION    NA+40527  18.758   8.945  14.531
72310ION    NA+40528  34.518  18.407   3.889
72311ION    NA+40529  29.332  25.313   0.674
72312ION    NA+40530  31.135  14.799  14.582
72313ION    NA+40531   5.623  23.854   5.128
72314ION    NA+40532  12.899  26.150   1.485
72315ION    NA+40533  19.118  39.966  11.412
72316ION    NA+40534   0.648   6.950  11.908
72317ION    NA+40535  25.873  22.315   1.436
72318ION    NA+40536  35.672  11.982   3.067
72319ION    NA+40537   9.935  33.535   0.692
72320ION    NA+40538  38.989  29.648   1.759
72321ION    NA+40539   6.149  11.183  14.095
72322ION    NA+40540  23.179  11.406  13.876
72323ION    NA+40541  39.899  32.679   1.908
72324ION    NA+40542  21.830  44.299   0.323
72325ION    NA+40543  39.461  14.037   3.618
72326ION    NA+40544  14.131  35.369   2.424
72327ION    NA+40545  12.976  26.763   4.119
72328ION    NA+40546  44.745  11.359  14.725
72329ION    NA+40547  27.674  23.288   1.029
72330ION    NA+40548  19.316   6.645   4.429
72331ION    NA+40549  30.664  13.696  13.675
72332ION    NA+40550  41.271   9.359  14.843
72333ION    NA+40551  23.644   6.004  10.517
72334ION    NA+40552  14.307   9.349   0.824
72335ION    NA+40553  36.600   2.350   2.877
72336ION    NA+40554  43.251  34.962   1.976
72337ION    NA+40555  42.276  31.554   2.912
72338ION    NA+40556  37.419  15.036   4.574
72339ION    NA+40557  18.634  34.792   2.073
72340ION    NA+40558  22.576  36.411  11.684
72341ION    NA+40559  23.853  11.599   0.328
72342ION    NA+40560  33.627  43.006  13.918
72343ION    NA+40561  34.398   7.561  13.199
72344ION    NA+40562  27.075   2.598   3.682
72345ION    NA+40563  22.784  30.953  12.410
72346ION    NA+40564  21.993  31.437  14.871
72347ION    NA+40565  25.891  18.154   0.733
72348ION    NA+40566  19.368  18.855   0.092
72349ION    NA+40567  25.699  25.074  13.000
72350ION    NA+40568  43.898  14.584  14.063
72351ION    NA+40569  37.778  11.572  10.356
72352ION    NA+40570  38.090  31.652  12.477
72353ION    NA+40571  20.601  14.847  12.155
72354ION    NA+40572  19.080  14.487  14.280
72355ION    NA+40573   7.186  40.932   1.807
72356ION    NA+40574  14.106  30.897   4.662
72357ION    NA+40575   4.900  10.408   1.852
72358ION    NA+40576  23.577  32.675  11.445
72359ION    NA+40577  14.510  14.547  11.563
72360ION    NA+40578  42.241  18.751  13.854
72361ION    NA+40579  14.883  39.853   0.465
72362ION    NA+40580   2.446  27.490  11.956
72363ION    NA+40581  28.667   5.915   3.898
72364ION    NA+40582  13.738  37.584   0.205
72365ION    NA+40583  13.683   9.953   0.552
72366ION    NA+40584  37.344  39.636  13.725
72367ION    NA+40585  35.376  38.083   4.963
72368ION    NA+40586  21.324  20.320   2.842
72369ION    NA+40587   2.129  22.660  14.840
72370ION    NA+40588  41.941  36.416  10.867
72371ION    NA+40589  29.441  23.531   3.224
72372ION    NA+40590  41.084   1.887  14.560
72373ION    NA+40591  42.087  27.209   0.420
72374ION    NA+40592  28.572  40.452   4.522
72375ION    NA+40593   3.442  13.916   2.595
72376ION    NA+40594   4.149  44.637   2.285
72377ION    NA+40595   6.061  15.714  10.795
72378ION    NA+40596   8.604   9.241   2.810
72379ION    NA+40597  13.104  32.979  10.778
72380ION    NA+40598   3.396  20.245  13.112
72381ION    NA+40599   8.787  27.499   1.899
72382ION    NA+40600   6.691  31.928   3.139
72383ION    NA+40601  42.242  13.399  10.783
72384ION    NA+40602  34.250  12.846   2.524
72385ION    NA+40603  43.701  30.474  13.294
72386ION    NA+40604   6.641  36.014  11.574
72387ION    NA+40605  16.819  23.681   1.852
72388ION    NA+40606  42.055  43.240  12.824
72389ION    NA+40607  37.447   4.146   1.657
72390ION    NA+40608  16.220  42.465  13.917
72391ION    NA+40609   6.114  30.237   3.982
72392ION    NA+40610   1.562  41.080  11.204
72393ION    NA+40611  26.301  32.178   4.607
72394ION    NA+40612  22.877   2.692   0.134
72395ION    NA+40613   5.342  14.209  12.252
72396ION    NA+40614  12.381  26.833   0.303
72397ION    NA+40615  25.502  12.832  11.681
72398ION    NA+40616  37.599  27.900  10.584
72399ION    NA+40617  16.632  19.433   0.424
72400ION    NA+40618   3.943  18.965  12.937
72401ION    NA+40619  15.552  15.693  11.477
72402ION    NA+40620  40.559   6.577  11.605
72403ION    NA+40621  16.132  26.983   0.542
72404ION    NA+40622   9.768   4.733  14.738
72405ION    NA+40623   5.688  16.116   3.103
72406ION    NA+40624  18.501  19.139   1.628
72407ION    NA+40625   6.121  32.662  10.875
72408ION    NA+40626   8.738  16.186  11.442
72409ION    NA+40627   4.513  10.338  12.805
72410ION    NA+40628  12.235  17.640   2.816
72411ION    NA+40629  40.081  15.329  14.412
72412ION    NA+40630  43.599   8.075   2.653
72413ION    NA+40631  13.081  11.517   0.989
72414ION    NA+40632  38.248  27.679  14.266
72415ION    NA+40633   9.049  24.660   1.302
72416ION    NA+40634  14.212  11.883  12.404
72417ION    NA+40635  35.015  11.794   5.435
72418ION    NA+40636   6.659   4.156  14.487
72419ION    NA+40637   7.236  23.318   4.536
72420ION    NA+40638  18.066  12.247   4.871
72421ION    NA+40639  37.809  27.421   0.459
72422ION    NA+40640   3.615   8.917   4.198
72423ION    NA+40641  15.741  32.086  10.081
72424ION    NA+40642   0.511   0.234  14.185
72425ION    NA+40643  28.554  36.882   4.600
72426ION    NA+40644   3.641   2.770   0.034
72427ION    NA+40645  15.202  38.883  11.890
72428ION    NA+40646  44.515  10.746  10.737
72429ION    NA+40647   9.326  13.381  12.021
72430ION    NA+40648  43.913  35.468  12.130
72431ION    NA+40649  22.230  32.238   3.985
72432ION    NA+40650  39.217  19.926   2.349
72433ION    NA+40651   7.188   3.788   3.049
72434ION    NA+40652  32.888  32.819  10.378
72435ION    NA+40653  15.141  41.575  10.282
72436ION    NA+40654  41.581  35.316  13.143
72437ION    NA+40655   1.928  38.637  13.778
72438ION    NA+40656  43.873  40.479  13.330
72439ION    NA+40657   7.641  38.607   2.344
72440ION    NA+40658  26.459  43.377   2.367
72441ION    NA+40659   5.004  32.139   3.792
72442ION    NA+40660  30.808  19.263   0.377
72443ION    NA+40661  26.169  26.247  13.366
72444ION    NA+40662  18.535   2.100  12.681
72445ION    NA+40663  42.443   9.280   1.859
72446ION    NA+40664  25.744  20.563   4.264
72447ION    NA+40665  15.142  37.801   3.665
72448ION    NA+40666  11.265  22.919  13.379
72449ION    NA+40667  23.191  16.121   2.302
72450ION    NA+40668  17.676  26.283  11.469
72451ION    NA+40669  20.105  13.601  13.082
72452ION    NA+40670  19.067  15.937  10.932
72453ION    NA+40671  38.865   5.762   1.311
72454ION    NA+40672  41.744  28.186  11.669
72455ION    NA+40673  12.340  24.131   2.694
72456ION    NA+40674  23.715  28.307  11.382
72457ION    NA+40675   4.667  20.406   2.225
72458ION    NA+40676  22.659   9.551   0.092
72459ION    NA+40677   9.336   2.928  11.120
72460ION    NA+40678  43.750   2.418  12.033
72461ION    NA+40679  44.431   6.026  13.500
72462ION    NA+40680  22.154  24.942  14.619
72463ION    NA+40681  21.590  28.461   3.729
72464ION    NA+40682  11.654   7.524  11.698
72465ION    NA+40683  42.235  10.941   2.824
72466ION    NA+40684  29.616  30.330  10.858
72467ION    NA+40685  23.043  28.891   1.801
72468ION    NA+40686   0.533  31.080  10.859
72469ION    NA+40687  13.709  20.695  11.066
72470ION    NA+40688  43.187  15.152  12.538
72471ION    NA+40689  29.173  27.884  11.728
72472ION    NA+40690  14.095  16.479   0.132
72473ION    NA+40691  36.923  32.283   1.307
72474ION    NA+40692  41.554  37.264  13.098
72475ION    NA+40693  36.763  20.500   4.677
72476ION    NA+40694  41.491  14.030   3.313
72477ION    NA+40695   7.766  18.233   3.675
72478ION    NA+40696  10.599  21.942   2.325
72479ION    NA+40697   0.043  21.062  11.450
72480ION    NA+40698  16.165  21.360  12.920
72481ION    NA+40699  18.623  18.743   4.239
72482ION    NA+40700  41.531  31.918  10.541
72483ION    NA+40701  13.957   7.657  14.487
72484ION    NA+40702  18.055  38.161   4.015
72485ION    NA+40703  15.633  31.928   0.694
72486ION    NA+40704  27.031  10.505   4.381
72487ION    NA+40705   4.896  11.691  11.634
72488ION    NA+40706  24.203   8.179  13.569
72489ION    NA+40707  24.094  14.212   9.491
72490ION    NA+40708  11.299  19.592   3.620
72491ION    NA+40709  15.094  13.464  14.847
72492ION    NA+40710   9.692  32.712  11.243
72493ION    NA+40711  18.384  44.839  12.523
72494ION    NA+40712  10.856  39.306  11.909
72495ION    NA+40713  18.023  31.971   4.040
72496ION    NA+40714  14.395  11.134  13.042
72497ION    NA+40715  25.978  39.057  12.749
72498ION    NA+40716  22.666  43.290  12.869
72499ION    NA+40717  22.897   8.706   3.518
72500ION    NA+40718   9.046  15.063  12.151
72501ION    NA+40719  33.060  11.578   2.161
72502ION    NA+40720  32.074  25.856   3.136
72503ION    NA+40721  17.582  33.152  14.498
72504ION    NA+40722  39.255  43.447  11.167
72505ION    NA+40723  44.429   7.248  12.542
72506ION    NA+40724  38.042  14.597   1.924
72507ION    NA+40725  16.070   3.974  12.007
72508ION    NA+40726  40.149  35.998  12.944
72509ION    NA+40727  37.518  20.213  14.480
72510ION    NA+40728  42.162  39.010  14.358
72511ION    NA+40729  33.829  37.941   1.923
72512ION    NA+40730  37.738   4.070  12.489
72513ION    NA+40731   4.719   8.732  13.961
72514ION    NA+40732  44.838  24.919  12.371
72515ION    NA+40733  23.237   8.124  13.315
72516ION    NA+40734  36.576  44.422   5.372
72517ION    NA+40735  39.131  27.747   1.216
72518ION    NA+40736  11.280  31.391  12.899
72519ION    NA+40737   5.678  36.930   5.152
72520ION    NA+40738   2.656  35.183   1.740
72521ION    NA+40739  17.996  18.954  14.463
72522ION    NA+40740  26.723   3.907   5.078
72523ION    NA+40741  42.822  30.949  12.927
72524ION    NA+40742  18.312  41.407  11.130
72525ION    NA+40743  32.275  23.515  12.892
72526ION    NA+40744  23.846   0.293   0.293
72527ION    NA+40745  40.409   3.964   0.305
72528ION    NA+40746   1.204  17.099  11.442
72529ION    NA+40747  13.584   7.946  12.396
72530ION    NA+40748   9.231   1.981  10.688
72531ION    NA+40749  21.631  30.319  14.074
72532ION    NA+40750  20.932  43.259  10.991
72533ION    NA+40751  34.582  21.478   0.917
72534ION    NA+40752  33.459  23.047  10.729
72535ION    NA+40753  22.050  16.539  13.882
72536ION    NA+40754  41.295  16.608  12.830
72537ION    NA+40755  35.596  42.432  10.398
72538ION    NA+40756   4.553  43.052  14.201
72539ION    NA+40757  18.375  20.872   1.750
72540ION    NA+40758  38.486  26.411  12.105
72541ION    NA+40759  31.352  20.316  11.239
72542ION    NA+40760  37.092   0.342  10.958
72543ION    NA+40761  28.706  43.678  14.685
72544ION    NA+40762   3.545  21.892   2.771
72545ION    NA+40763  28.698  30.464   0.999
72546ION    NA+40764  15.569  16.400   2.200
72547ION    NA+40765   4.174  43.504  10.053
72548ION    NA+40766  34.675  14.824   0.545
72549ION    NA+40767  27.587  23.842  11.686
72550ION    NA+40768  23.719  32.397   2.820
72551ION    NA+40769  26.045   5.234   3.964
72552ION    NA+40770  30.604  33.979   1.786
72553ION    NA+40771  24.647  44.609   0.405
72554ION    NA+40772  23.742   2.601   4.526
72555ION    NA+40773  43.393  35.817   1.143
72556ION    NA+40774  15.806   5.173  11.542
72557ION    NA+40775  34.966   7.897  14.729
72558ION    NA+40776  44.547  41.339   3.583
72559ION    NA+40777  13.476  15.708  12.971
72560ION    NA+40778  29.500  27.198   1.760
72561ION    NA+40779  35.937  44.030   1.884
72562ION    NA+40780   1.770  26.211  10.578
72563ION    NA+40781  32.677   0.801  11.516
72564ION    NA+40782  12.034  34.872  10.728
72565ION    NA+40783   0.527  22.032  14.685
72566ION    NA+40784  14.877   8.320  12.507
72567ION    NA+40785   8.064  24.112  11.962
72568ION    NA+40786   5.004  31.738   4.752
72569ION    NA+40787   9.509  12.636   1.307
72570ION    NA+40788   8.528  22.679  14.974
72571ION    NA+40789  43.770  23.336   4.853
72572ION    NA+40790  14.343  36.179   2.972
72573ION    NA+40791   0.829  10.620   2.052
72574ION    NA+40792   2.872  23.740   0.770
72575ION    NA+40793   3.011  32.862   3.929
72576ION    NA+40794  14.706  13.616   3.262
72577ION    NA+40795  11.536   5.956  14.281
72578ION    NA+40796   2.896  31.081   4.998
72579ION    NA+40797   8.882  37.113   0.041
72580ION    NA+40798  38.718  23.555   4.142
72581ION    NA+40799   7.427  20.210   3.776
72582ION    NA+40800  13.689  22.068  14.605
72583ION    NA+40801  12.132   1.998  14.361
72584ION    NA+40802   9.835  31.560   4.357
72585ION    NA+40803  13.301  13.675   1.205
72586ION    NA+40804   2.387  42.991   0.536
72587ION    NA+40805  12.556  29.671   2.366
72588ION    NA+40806  41.268  11.140   3.432
72589ION    NA+40807   3.802  28.153   4.164
72590ION    NA+40808  33.390  44.231  10.527
72591ION    NA+40809  41.378  22.551   1.263
72592ION    NA+40810   3.293  18.144   0.910
72593ION    NA+40811  43.349  29.821   1.303
72594ION    NA+40812  28.197  20.060   1.812
72595ION    NA+40813  38.586  27.176   2.132
72596ION    NA+40814   9.847  27.471  11.097
72597ION    NA+40815  35.364  22.762  13.462
72598ION    NA+40816  34.998  42.309   2.801
72599ION    NA+40817  34.311  10.974   0.031
72600ION    NA+40818   7.612  37.988  11.090
72601ION    NA+40819   5.075  41.040  14.632
72602ION    NA+40820  29.578  11.458   4.043
72603ION    NA+40821  39.319  36.017   4.856
72604ION    NA+40822  34.514  13.598   1.413
72605ION    NA+40823  29.409  28.135   2.984
72606ION    NA+40824  28.191  15.528  14.844
72607ION    NA+40825  25.746  20.374   1.069
72608ION    NA+40826   1.594  12.910   1.784
72609ION    NA+40827  42.728  18.981   4.240
72610ION    NA+40828  40.859  20.232   1.435
72611ION    NA+40829  44.538  24.203  10.256
72612ION    NA+40830  15.260  42.515  11.310
72613ION    NA+40831  14.519  18.011   0.989
72614ION    NA+40832   0.469  35.084   3.655
72615ION    NA+40833  38.472   8.638  14.822
72616ION    NA+40834  26.036  25.204  11.923
72617ION    NA+40835  30.410   3.660   1.169
72618ION    NA+40836  43.594  25.706  11.110
72619ION    NA+40837  26.722  39.028  13.474
72620ION    NA+40838   8.143   4.394  11.786
72621ION    NA+40839  10.345  21.668   4.502
72622ION    NA+40840  14.707  33.877  11.259
72623ION    NA+40841  10.631  22.926  14.600
72624ION    NA+40842  13.884  23.447  11.771
72625ION    NA+40843  43.087  16.800   2.834
72626ION    NA+40844  33.257  28.010   0.865
72627ION    NA+40845  21.034   1.186   2.994
72628ION    NA+40846   1.744   6.775   1.806
72629ION    NA+40847  30.965  15.719  12.824
72630ION    NA+40848  32.727  44.791   2.447
72631ION    NA+40849   4.134  16.093  11.770
72632ION    NA+40850  20.159  38.454  12.232
72633ION    NA+40851  32.772  41.680  13.626
72634ION    NA+40852  38.668  27.458  11.871
72635ION    NA+40853   7.515  35.395   2.435
72636ION    NA+40854  39.058  18.454   3.400
72637ION    NA+40855  29.940  28.166  11.151
72638ION    NA+40856   0.935  22.187   9.895
72639ION    NA+40857   8.942  23.675   1.165
72640ION    NA+40858  23.551  41.763   1.386
72641ION    NA+40859  12.865  39.309  14.834
72642ION    NA+40860  14.706  41.574  13.923
72643ION    NA+40861  18.579   8.698   4.124
72644ION    NA+40862  21.110   5.872  11.512
72645ION    NA+40863   5.503  30.935   3.699
72646ION    NA+40864  22.891  44.944   0.285
72647ION    NA+40865  14.755   0.342   4.020
72648ION    NA+40866  22.843  43.766   1.582
72649ION    NA+40867  31.495  11.126  12.392
72650ION    NA+40868  35.985  32.680   2.669
72651ION    NA+40869  44.790  12.186   2.851
72652ION    NA+40870  27.420  42.636   0.093
72653ION    NA+40871  12.018  41.926   4.594
72654ION    NA+40872  33.926   0.011   1.431
72655ION    NA+40873  32.636  21.372  10.179
72656ION    NA+40874  20.604  36.757   3.799
72657ION    NA+40875  34.249   5.996   9.960
72658ION    NA+40876   6.913  32.165  14.309
72659ION    NA+40877  22.266   2.991  13.324
72660ION    NA+40878  16.083  10.629   4.161
72661ION    NA+40879   9.127  11.214  10.335
72662ION    NA+40880  21.408  15.335   0.561
72663ION    NA+40881  30.934   5.358   0.515
72664ION    NA+40882   2.600  22.653  10.650
72665ION    NA+40883   4.935  15.014  13.129
72666ION    NA+40884  11.717  34.950   3.630
72667ION    NA+40885  32.293  44.013   2.329
72668ION    NA+40886  19.584  31.108  14.044
72669ION    NA+40887  26.059  19.843  11.430
72670ION    NA+40888   2.841  33.763   2.832
72671ION    NA+40889   2.552   3.797  10.914
72672ION    NA+40890  28.307   2.296   9.550
72673ION    NA+40891   0.983  19.060  11.252
72674ION    NA+40892   0.494   3.136   1.224
72675ION    NA+40893  18.664  36.136  12.013
72676ION    NA+40894  41.482   9.342   1.345
72677ION    NA+40895  19.403   1.636  10.194
72678ION    NA+40896   7.403  36.538  13.311
72679ION    NA+40897  15.489  11.983   2.116
72680ION    NA+40898   5.571  37.906   0.556
72681ION    NA+40899  28.577  31.440   3.631
72682ION    NA+40900  35.978  12.561  14.951
72683ION    NA+40901  43.981  31.931  13.481
72684ION    NA+40902  31.675  38.310  11.242
72685ION    NA+40903  22.243  14.514  13.047
72686ION    NA+40904  12.634  10.542  14.564
72687ION    NA+40905   5.622   0.904   4.606
72688ION    NA+40906  43.026  27.151  13.832
72689ION    NA+40907  10.248  34.611   3.524
72690ION    NA+40908  29.342  12.951   4.143
72691ION    NA+40909  28.786  17.179  14.010
72692ION    NA+40910  39.131  34.465   4.830
72693ION    NA+40911   1.861  27.831  13.221
72694ION    NA+40912  44.601  36.081   3.955
72695ION    NA+40913  38.013  20.501   3.146
72696ION    NA+40914  37.417   9.561   0.473
72697ION    NA+40915  41.453  21.745   3.649
72698ION    NA+40916  38.860  14.656  14.434
72699ION    NA+40917  33.331  38.448  12.915
72700ION    NA+40918  42.937  18.485  12.647
72701ION    NA+40919   5.476  22.991   1.875
72702ION    NA+40920  19.745  17.749  14.370
72703ION    NA+40921  30.615  19.575   1.657
72704ION    NA+40922  28.571  22.943  14.037
72705ION    NA+40923  43.616  26.709   2.307
72706ION    NA+40924   8.264   6.329  11.600
72707ION    NA+40925  19.516  18.849   4.676
72708ION    NA+40926  29.703   6.769   0.804
72709ION    NA+40927   1.380  37.829  13.138
72710ION    NA+40928  16.289   1.485  11.209
72711ION    NA+40929  40.765  31.780  11.170
72712ION    NA+40930  18.536  34.305  14.016
72713ION    NA+40931  41.483   4.380   1.301
72714ION    NA+40932  44.313  15.537  13.163
72715ION    NA+40933  33.125  36.610   1.858
72716ION    NA+40934   3.362  39.057   0.782
72717ION    NA+40935  22.294   7.549   4.065
72718ION    NA+40936  41.753  17.090   2.335
72719ION    NA+40937   3.646  24.828   3.608
72720ION    NA+40938  41.242  30.711   2.485
72721ION    NA+40939   0.295  35.771   0.895
72722ION    NA+40940  14.862   5.163  11.213
72723ION    NA+40941  35.046  14.718  14.707
72724ION    NA+40942   4.559  26.762  13.008
72725ION    NA+40943  43.769  23.773   0.830
72726ION    NA+40944   6.804   6.716  14.349
72727ION    NA+40945   6.074  42.585  14.437
72728ION    NA+40946  39.063  22.211   9.719
72729ION    NA+40947  43.165  13.258  11.139
72730ION    NA+40948  39.913  12.292  13.799
72731ION    NA+40949   7.627  32.833   4.327
72732ION    NA+40950  29.015   1.611  12.062
72733ION    NA+40951   1.171  31.217   1.398
72734ION    NA+40952  15.190   2.682   5.221
72735ION    NA+40953  32.122  29.291  11.656
72736ION    NA+40954  32.512  30.060  10.687
72737ION    NA+40955   6.164   5.305  12.951
72738ION    NA+40956  39.911  11.807   2.658
72739ION    NA+40957  31.520  10.325   2.154
72740ION    NA+40958  18.354  38.109  13.203
72741ION    NA+40959   5.855  12.767  11.632
72742ION    NA+40960  17.798   4.442  13.396
72743ION    NA+40961  23.697   5.334  11.258
72744ION    NA+40962   5.456  15.202  12.288
72745ION    NA+40963  12.025  13.631   2.837
72746ION    NA+40964  38.603  31.867   1.950
72747ION    NA+40965  12.838  41.470   0.907
72748ION    NA+40966  33.707   2.798   4.146
72749ION    NA+40967   5.312  19.005  10.773
72750ION    NA+40968  36.883  29.346   3.659
72751ION    NA+40969   8.659  21.076  12.007
72752ION    NA+40970   5.918  30.805   4.599
72753ION    NA+40971   0.906   8.237   2.452
72754ION    NA+40972  22.010  21.836  10.893
72755ION    NA+40973   2.994   9.614   1.437
72756ION    NA+40974  26.737  28.004  11.654
72757ION    NA+40975  16.918  15.036   3.733
72758ION    NA+40976   4.902  35.993   4.588
72759ION    NA+40977  26.409  16.257   3.363
72760ION    NA+40978  23.894  35.880  13.183
72761ION    NA+40979  10.112  28.244   2.385
72762ION    NA+40980  14.291  29.179  13.012
72763ION    NA+40981  23.954  34.376   0.040
72764ION    NA+40982  17.175  20.263   1.410
72765ION    NA+40983  28.774  27.915   1.301
72766ION    NA+40984  41.951  33.612  13.167
72767ION    NA+40985  18.051  42.536   3.689
72768ION    NA+40986  28.004  11.900  13.332
72769ION    NA+40987  35.154  31.767   1.199
72770ION    NA+40988   4.195  19.766   0.137
72771ION    NA+40989   6.133  18.296   0.758
72772ION    NA+40990  44.425  36.989   4.529
72773ION    NA+40991  33.722  43.175   4.712
72774ION    NA+40992  18.338  11.337  11.226
72775ION    NA+40993   5.912  40.679  13.015
72776ION    NA+40994  15.202  42.089  12.046
72777ION    NA+40995  14.782  21.399   3.489
72778ION    NA+40996  14.623  11.832  14.502
72779ION    NA+40997   4.427   9.930   1.112
72780ION    NA+40998  38.728  13.378   5.470
72781ION    NA+40999   2.443  18.801   3.058
72782ION    NA+41000  14.463  25.970  12.905
72783ION    NA+41001  29.390  24.335   0.936
72784ION    NA+41002   6.462  35.414  10.354
72785ION    NA+41003  37.714   8.177   2.900
72786ION    NA+41004   8.729   7.644  14.367
72787ION    NA+41005   3.883  28.728  10.976
72788ION    NA+41006  28.286  31.844  10.065
72789ION    NA+41007  13.663  28.214  11.275
72790ION    NA+41008  39.907  22.289   0.446
72791ION    NA+41009  16.705  23.615   0.063
72792ION    NA+41010  18.933  28.011   1.415
72793ION    NA+41011   0.872  11.909  11.174
72794ION    NA+41012  35.929   0.680  12.011
72795ION    NA+41013  12.991  17.202  12.705
72796ION    NA+41014  33.420  31.956   0.405
72797ION    NA+41015   5.649  33.315  14.349
72798ION    NA+41016  12.342  36.131  10.353
72799ION    NA+41017  34.423  14.519  13.515
72800ION    NA+41018   8.029  35.001  14.518
72801ION    NA+41019  31.497  25.977  11.784
72802ION    NA+41020  35.954  40.788   4.045
72803ION    NA+41021  42.513   6.078  13.657
72804ION    NA+41022  40.241   5.775   3.151
72805ION    NA+41023  39.027  25.638  13.979
72806ION    NA+41024  34.119   5.762   3.664
72807ION    NA+41025  44.433  16.231  12.454
72808ION    NA+41026  18.582   8.239   3.175
72809ION    NA+41027  25.746  13.536   3.317
72810ION    NA+41028   0.011   6.864   3.281
72811ION    NA+41029   4.251   6.118  13.278
72812ION    NA+41030   6.421  21.344  10.220
72813ION    NA+41031  10.829  12.458  14.245
72814ION    NA+41032  22.954  44.669   1.560
72815ION    NA+41033  15.102  31.058  10.954
72816ION    NA+41034  32.846  24.040  11.685
72817ION    NA+41035  39.337  17.903  11.218
72818ION    NA+41036  12.897   5.182  14.953
72819ION    NA+41037   7.518  36.750  14.591
72820ION    NA+41038  33.804  17.334  13.442
72821ION    NA+41039  33.061  24.957   3.775
72822ION    NA+41040  21.990  42.057  10.850
72823ION    NA+41041   0.281  43.698  11.468
72824ION    NA+41042  17.470  11.365  10.730
72825ION    NA+41043   3.159  12.779  12.319
72826ION    NA+41044   6.402  23.591   2.720
72827ION    NA+41045   6.854  11.958  12.941
72828ION    NA+41046  44.339  31.108  12.048
72829ION    NA+41047   7.810   9.533  14.103
72830ION    NA+41048  14.219  35.132   3.732
72831ION    NA+41049  14.644  23.033   3.173
72832ION    NA+41050  41.439  15.777  12.109
72833ION    NA+41051  29.921  13.720  14.344
72834ION    NA+41052   4.950  24.495   2.278
72835ION    NA+41053  42.912  30.405   0.775
72836ION    NA+41054  43.995  13.249   0.234
72837ION    NA+41055   3.707  16.289  10.887
72838ION    NA+41056  26.633  13.481  13.669
72839ION    NA+41057  43.310   3.295   4.178
72840ION    NA+41058  27.450  24.164   1.887
72841ION    NA+41059  18.609  33.992  11.483
72842ION    NA+41060  24.662  13.198   4.312
72843ION    NA+41061  14.790  17.730  12.974
72844ION    NA+41062   7.209   7.715   3.570
72845ION    NA+41063  37.783   9.310  14.551
72846ION    NA+41064   2.321  25.072   5.222
72847ION    NA+41065  15.618  10.190   3.211
72848ION    NA+41066  34.284   0.455  14.138
72849ION    NA+41067  16.166  10.630  11.308
72850ION    NA+41068  17.722  14.374   3.285
72851ION    NA+41069  42.783  36.187   4.193
72852ION    NA+41070   6.862   2.491  13.980
72853ION    NA+41071  10.147   3.000   1.023
72854ION    NA+41072  44.499   4.641  11.197
72855ION    NA+41073   9.174   5.899  11.850
72856ION    NA+41074  11.482  32.044   2.209
72857ION    NA+41075   9.522  30.682   4.290
72858ION    NA+41076  43.703   0.387   0.285
72859ION    NA+41077  29.837   8.427   4.477
72860ION    NA+41078  32.929   9.633  10.300
72861ION    NA+41079  11.304   6.269   3.351
72862ION    NA+41080   4.731  40.352  13.720
72863ION    NA+41081  27.661   1.854  13.082
72864ION    NA+41082   5.539  44.010  11.617
72865ION    NA+41083   8.106   3.293  12.471
72866ION    NA+41084   7.382   5.010   2.262
72867ION    NA+41085  21.133   3.563   2.742
72868ION    NA+41086  11.613  33.497  11.322
72869ION    NA+41087  21.812   8.797   3.951
72870ION    NA+41088  36.152  15.024  11.123
72871ION    NA+41089  29.009  33.210   2.039
72872ION    NA+41090  20.706  12.709  10.547
72873ION    NA+41091  32.587  11.248  14.546
72874ION    NA+41092  21.399  19.797  13.489
72875ION    NA+41093  40.413  12.877  13.386
72876ION    NA+41094  33.562  11.377  10.957
72877ION    NA+41095  13.450  13.124  12.911
72878ION    NA+41096   6.635  44.951  14.100
72879ION    NA+41097   1.768  22.713  13.862
72880ION    NA+41098  37.987   6.268   2.860
72881ION    NA+41099  32.289  28.417  13.648
72882ION    NA+41100  31.873  11.887   0.889
72883ION    NA+41101   4.833  43.035   0.914
72884ION    NA+41102  36.147  31.141  13.985
72885ION    NA+41103  42.664  10.247   2.815
72886ION    NA+41104  12.387  31.911  14.443
72887ION    NA+41105   4.730   8.275   0.900
72888ION    NA+41106   0.895  39.936  14.875
72889ION    NA+41107  14.523  13.846   1.590
72890ION    NA+41108  32.022  16.594   0.825
72891ION    NA+41109  34.402  42.479   1.675
72892ION    NA+41110   1.438   3.732   3.089
72893ION    NA+41111  12.106  32.865  10.688
72894ION    NA+41112  26.743  18.234   1.020
72895ION    NA+41113  35.001  39.844  11.340
72896ION    NA+41114   7.136   8.695  12.933
72897ION    NA+41115  17.312  27.325  11.324
72898ION    NA+41116  28.721  43.311  10.250
72899ION    NA+41117  16.783  24.607  14.967
72900ION    NA+41118  21.330  38.901   2.217
72901ION    NA+41119  37.633  41.870  12.092
72902ION    NA+41120  20.758  37.283  12.836
72903ION    NA+41121  36.695  35.223   4.786
72904ION    NA+41122  31.767  42.815  12.611
72905ION    NA+41123  29.115  12.304   1.809
72906ION    NA+41124  11.436  21.327   3.977
72907ION    NA+41125  23.261  33.071  12.173
72908ION    NA+41126   7.489  21.612   2.816
72909ION    NA+41127  28.140  14.530  14.871
72910ION    NA+41128  44.815  39.337  12.477
72911ION    NA+41129   8.331  19.593   1.206
72912ION    NA+41130  20.097   2.527  10.578
72913ION    NA+41131  14.376  25.982  14.095
72914ION    NA+41132  26.227   1.357  11.043
72915ION    NA+41133  10.324  38.315  10.440
72916ION    NA+41134  44.329  42.713   1.958
72917ION    NA+41135   5.961  41.678  12.989
72918ION    NA+41136  31.161  23.701  11.592
72919ION    NA+41137  34.165  27.555   1.812
72920ION    NA+41138   9.681  32.017  14.604
72921ION    NA+41139  18.501  23.934  13.097
72922ION    NA+41140  15.292  19.256  12.486
72923ION    NA+41141  43.772  38.829   1.542
72924ION    NA+41142  23.125  34.838   2.234
72925ION    NA+41143  35.730  25.668   0.401
72926ION    NA+41144  34.435  21.681   2.242
72927ION    NA+41145  34.192  23.895  14.145
72928ION    NA+41146  33.007  33.037  11.826
72929ION    NA+41147  23.682  34.481   4.715
72930ION    NA+41148  24.461  39.993  14.611
72931ION    NA+41149  30.208  12.609   3.692
72932ION    NA+41150  33.917  44.180  11.508
72933ION    NA+41151  42.694  12.229  12.370
72934ION    NA+41152  12.248   6.705   0.896
72935ION    NA+41153  21.272  19.039   1.114
72936ION    NA+41154  24.996  24.697  14.743
72937ION    NA+41155   3.364  19.591  13.868
72938ION    NA+41156  13.966  21.831   3.104
72939ION    NA+41157  16.673  17.333   2.102
72940ION    NA+41158  28.071  24.719   4.140
72941ION    NA+41159  34.482  38.752   4.563
72942ION    NA+41160  38.025  26.605  14.269
72943ION    NA+41161  30.658   4.464  13.661
72944ION    NA+41162  34.706  24.676  10.343
72945ION    NA+41163  22.695   2.777  11.141
72946ION    NA+41164  25.541  34.859  11.018
72947ION    NA+41165  17.035  15.157  12.513
72948ION    NA+41166  31.688   7.772   2.290
72949ION    NA+41167  43.240  26.132   0.004
72950ION    NA+41168  32.655  38.110   0.429
72951ION    NA+41169   4.159   9.074   1.220
72952ION    NA+41170  33.156  23.149   3.740
72953ION    NA+41171  38.157  22.811  14.098
72954ION    NA+41172  35.652   4.878  10.628
72955ION    NA+41173  33.854  17.688   3.686
72956ION    NA+41174  28.853  12.691  11.203
72957ION    NA+41175  40.009  29.024  11.265
72958ION    NA+41176   4.752  41.537  12.081
72959ION    NA+41177  38.926   7.038  11.049
72960ION    NA+41178   7.838  38.908  10.694
72961ION    NA+41179  15.691  17.176   2.876
72962ION    NA+41180   8.444   8.402   4.711
72963ION    NA+41181  23.173   9.175   0.893
72964ION    NA+41182  16.868   0.385  13.286
72965ION    NA+41183   3.688  14.381  11.207
72966ION    NA+41184  21.078  42.798  13.629
72967ION    NA+41185  30.574  36.140  11.442
72968ION    NA+41186   4.472  19.689  13.379
72969ION    NA+41187  40.870  10.830  13.130
72970ION    NA+41188  20.295  13.808   3.761
72971ION    NA+41189  33.949  31.791   5.427
72972ION    NA+41190   8.286  27.741   0.963
72973ION    NA+41191  43.852  22.439  14.402
72974ION    NA+41192  40.552  39.785   1.379
72975ION    NA+41193  44.889  31.198   0.280
72976ION    NA+41194  21.143  35.589   4.125
72977ION    NA+41195   7.311   7.193  11.977
72978ION    NA+41196  10.636  20.339   2.265
72979ION    NA+41197  12.370   6.760  11.624
72980ION    NA+41198  44.507   8.333   0.888
72981ION    NA+41199  17.784   8.598   4.752
72982ION    NA+41200  29.880  33.938  12.082
72983ION    NA+41201  19.892  12.648  14.585
72984ION    NA+41202  15.587  22.705   3.115
72985ION    NA+41203  23.479  36.726  14.420
72986ION    NA+41204  28.595  25.570   4.120
72987ION    NA+41205  34.397  25.593  14.067
72988ION    NA+41206  17.323  17.687  11.905
72989ION    NA+41207  27.963  37.570  14.836
72990ION    NA+41208   4.312  16.328   3.982
72991ION    NA+41209   9.184  34.932  12.440
72992ION    NA+41210  31.156  17.591  12.759
72993ION    NA+41211  41.262  36.628  14.650
72994ION    NA+41212  33.048  27.087   2.183
72995ION    NA+41213  41.492  12.520   3.287
72996ION    NA+41214  19.406  31.328   1.231
72997ION    NA+41215  28.676  28.260   5.114
72998ION    NA+41216   3.950   4.269  12.296
72999ION    NA+41217   3.764  13.763   0.730
73000ION    NA+41218  15.643  29.042   1.031
73001ION    NA+41219  37.149  43.334   3.455
73002ION    NA+41220  29.896  25.471   1.484
73003ION    NA+41221  17.107  34.799   3.904
73004ION    NA+41222  20.599   1.905  11.179
73005ION    NA+41223  37.280  23.542   3.314
73006ION    NA+41224  31.662   9.712   0.905
73007ION    NA+41225  10.842  28.071  10.887
73008ION    NA+41226  24.246  42.215   1.968
73009ION    NA+41227  17.157  29.304  13.116
73010ION    NA+41228  12.121  25.200  13.368
73011ION    NA+41229  37.332  25.473  10.633
73012ION    NA+41230  39.276  13.734  12.994
73013ION    NA+41231  27.922  37.402   4.307
73014ION    NA+41232  22.950  21.505   3.618
73015ION    NA+41233  18.334   8.821  13.546
73016ION    NA+41234  33.864  40.356  14.129
73017ION    NA+41235  33.358  22.067   3.121
73018ION    NA+41236  25.989  44.445  14.802
73019ION    NA+41237  11.251  44.787   9.455
73020ION    NA+41238  33.948  21.873  12.849
73021ION    NA+41239  15.556   4.641   4.570
73022ION    NA+41240  37.037  34.951   2.069
73023ION    NA+41241   7.987  19.838  13.265
73024ION    NA+41242  38.288  26.886  13.346
73025ION    NA+41243   3.351  27.884  11.050
73026ION    NA+41244   6.085   8.770   4.867
73027ION    NA+41245  33.581  35.359  10.576
73028ION    NA+41246  38.583   3.695  11.926
73029ION    NA+41247  40.330  16.992   3.180
73030ION    NA+41248   7.627   8.099   2.865
73031ION    NA+41249  37.092   6.386   3.000
73032ION    NA+41250  41.030  36.885   2.373
73033ION    NA+41251  40.346  42.038  14.297
73034ION    NA+41252  16.077  37.993  10.713
73035ION    NA+41253   1.798  37.514   2.463
73036ION    NA+41254   1.513  12.878  13.179
73037ION    NA+41255   3.147   2.561   5.053
73038ION    NA+41256  26.413   2.492   3.847
73039ION    NA+41257  31.463  35.049  14.040
73040ION    NA+41258  18.424  26.604  11.374
73041ION    NA+41259   1.328  22.183  12.482
73042ION    NA+41260  12.899  15.906   2.624
73043ION    NA+41261  34.544  36.574   2.858
73044ION    NA+41262  14.817  29.179   5.039
73045ION    NA+41263   7.119  13.197   0.748
73046ION    NA+41264  18.658   7.562   0.460
73047ION    NA+41265  35.938   8.970  12.060
73048ION    NA+41266   5.899  44.851   1.751
73049ION    NA+41267  31.564   9.726  14.393
73050ION    NA+41268   6.291   4.927   0.360
73051ION    NA+41269   4.928   0.565  13.050
73052ION    NA+41270  25.623  26.673   1.863
73053ION    NA+41271   0.801  39.816   2.216
73054ION    NA+41272  18.870  41.112   0.253
73055ION    NA+41273  42.754  10.788  12.493
73056ION    NA+41274  41.437  29.447  14.121
73057ION    NA+41275  36.720  23.714  10.387
73058ION    NA+41276   8.123  31.078   2.312
73059ION    NA+41277  13.150  40.408  14.067
73060ION    NA+41278   5.401  17.055   3.350
73061ION    NA+41279  30.026   6.823   3.166
73062ION    NA+41280  27.436   1.633  14.248
73063ION    NA+41281  23.509  39.116  10.827
73064ION    NA+41282  43.509   5.157  11.130
73065ION    NA+41283  30.023   2.720   4.156
73066ION    NA+41284  28.743  28.707  11.357
73067ION    NA+41285  38.367  12.076   0.464
73068ION    NA+41286   6.341   7.776   2.263
73069ION    NA+41287  42.715  13.308   0.744
73070ION    NA+41288  28.531  30.363  14.291
73071ION    NA+41289  28.898  36.396  13.217
73072ION    NA+41290  11.935  35.698   4.104
73073ION    NA+41291  14.101  33.198  13.025
73074ION    NA+41292   3.839   0.302  10.869
73075ION    NA+41293  39.860   0.373   3.272
73076ION    NA+41294  33.640  14.591   2.244
73077ION    NA+41295  35.366  34.090   0.999
73078ION    NA+41296  42.774  17.513  12.814
73079ION    NA+41297   1.907  31.586   3.182
73080ION    NA+41298  16.740  11.091  14.656
73081ION    NA+41299   5.004  27.462  12.318
73082ION    NA+41300  23.005   4.223   2.636
73083ION    NA+41301  33.961  23.484  11.282
73084ION    NA+41302   2.077  40.604  13.113
73085ION    NA+41303   2.561  40.166   1.308
73086ION    NA+41304   6.639   8.034   0.855
73087ION    NA+41305  29.923  42.902  13.243
73088ION    NA+41306  33.750   2.468   2.043
73089ION    NA+41307   5.887  17.083   1.333
73090ION    NA+41308  26.034  14.669   3.764
73091ION    NA+41309   5.177  36.469   2.786
73092ION    NA+41310  26.489  43.883   4.537
73093ION    NA+41311  25.453  36.843  13.031
73094ION    NA+41312  32.164  26.757   2.713
73095ION    NA+41313  35.960  32.523   1.428
73096ION    NA+41314  17.589  40.398   1.003
73097ION    NA+41315   7.509  32.554   3.041
73098ION    NA+41316  25.621  28.076  11.548
73099ION    NA+41317   3.226  24.711   4.974
73100ION    NA+41318  30.863  40.078   2.649
73101ION    NA+41319  28.574  13.402   4.612
73102ION    NA+41320  31.537  41.268  11.906
73103ION    NA+41321  35.073  44.911   4.388
73104ION    NA+41322  26.218  19.209   3.564
73105ION    NA+41323  44.007  19.068  14.263
73106ION    NA+41324  20.706  40.222  14.352
73107ION    NA+41325  18.756  32.366   0.731
73108ION    NA+41326  23.857  17.727  12.438
73109ION    NA+41327  27.763  22.864  14.765
73110ION    NA+41328   4.801   7.456   0.162
73111ION    NA+41329  31.660  36.379  14.516
73112ION    NA+41330  28.994  17.148   0.954
73113ION    NA+41331  10.462  29.667   9.867
73114ION    NA+41332   4.075  37.374  13.501
73115ION    NA+41333  26.798  17.324  11.108
73116ION    NA+41334  12.142   4.121  12.985
73117ION    NA+41335  43.240  40.739  11.342
73118ION    NA+41336  14.796  22.594   4.058
73119ION    NA+41337  17.547  40.830  10.846
73120ION    NA+41338  26.046   4.422   0.194
73121ION    NA+41339  17.009   8.812   3.645
73122ION    NA+41340  15.094   4.846  12.164
73123ION    NA+41341  27.330  20.216   3.304
73124ION    NA+41342  15.452  24.699  11.503
73125ION    NA+41343  38.287  31.482   2.833
73126ION    NA+41344  10.848  11.161  13.836
73127ION    NA+41345  34.957  39.077   3.712
73128ION    NA+41346  31.936  44.755   3.875
73129ION    NA+41347  16.940  37.299   1.347
73130ION    NA+41348  27.213  40.393  14.740
73131ION    NA+41349  15.323  22.282  14.682
73132ION    NA+41350   6.073  29.400   2.993
73133ION    NA+41351  40.049  17.822   3.743
73134ION    NA+41352  23.987  25.043   0.327
73135ION    NA+41353  22.028  42.607   3.588
73136ION    NA+41354  14.312  31.618   2.654
73137ION    NA+41355  39.422  21.423   0.321
73138ION    NA+41356  29.776  42.220   4.078
73139ION    NA+41357   2.766  31.490   2.903
73140ION    NA+41358  20.447  20.074   4.700
73141ION    NA+41359  29.430  11.120  11.637
73142ION    NA+41360  11.079   0.434  10.490
73143ION    NA+41361  30.620  33.032   3.003
73144ION    NA+41362  44.849  22.542  10.637
73145ION    NA+41363   0.344  26.429  11.844
73146ION    NA+41364  41.120   1.204   1.400
73147ION    NA+41365   5.836  17.591  13.546
73148ION    NA+41366   1.566  30.559   2.040
73149ION    NA+41367  22.740  26.170   1.381
73150ION    NA+41368  22.961  30.302  10.788
73151ION    NA+41369  15.262   4.817  14.402
73152ION    NA+41370  38.615  17.149  13.103
73153ION    NA+41371  32.565  41.835  10.602
73154ION    NA+41372  17.788  21.311   2.930
73155ION    NA+41373  32.296  11.196   1.848
73156ION    NA+41374  26.907  31.948  14.743
73157ION    NA+41375  35.086  14.076   5.233
73158ION    NA+41376  41.769  18.900   0.068
73159ION    NA+41377  43.840  14.472   2.319
73160ION    NA+41378  36.300   3.083   4.887
73161ION    NA+41379  12.142   4.779  14.562
73162ION    NA+41380  26.661  39.473   4.658
73163ION    NA+41381  18.411   8.878   2.333
73164ION    NA+41382  17.437  29.647   2.862
73165ION    NA+41383  14.861  28.629   2.175
73166ION    NA+41384  36.782  23.128   0.164
73167ION    NA+41385   1.234  34.875  10.826
73168ION    NA+41386  15.240   4.725   2.734
73169ION    NA+41387  22.928  12.538  12.803
73170ION    NA+41388  27.507   0.073  11.145
73171ION    NA+41389  28.116  29.438   0.317
73172ION    NA+41390   5.935  19.837   3.906
73173ION    NA+41391  29.638  33.683   2.755
73174ION    NA+41392  38.525   9.603  13.421
73175ION    NA+41393  12.235   8.622  13.105
73176ION    NA+41394   8.929  30.012   0.444
73177ION    NA+41395  27.316  33.087  14.807
73178ION    NA+41396  28.308  12.486  10.325
73179ION    NA+41397  32.370  37.965  14.630
73180ION    NA+41398  44.781  29.727  11.117
73181ION    NA+41399  18.938  12.372   0.008
73182ION    NA+41400  21.643  17.349  13.024
73183ION    NA+41401  37.056  37.645   4.159
73184ION    NA+41402   2.731  11.359  11.241
73185ION    NA+41403  10.007  10.249   5.138
73186ION    NA+41404  40.841  27.182   2.138
73187ION    NA+41405   5.662  14.807  14.799
73188ION    NA+41406  31.512   3.732  13.046
73189ION    NA+41407  14.746  42.785   9.949
73190ION    NA+41408  44.114  40.864  11.812
73191ION    NA+41409  44.861  27.796   3.776
73192ION    NA+41410   4.686   3.156   5.228
73193ION    NA+41411  25.786  23.042  12.101
73194ION    NA+41412   4.858  30.748  13.434
73195ION    NA+41413  37.978   7.724  12.687
73196ION    NA+41414  28.191  15.210   1.999
73197ION    NA+41415   1.738  29.123  10.834
73198ION    NA+41416   9.269  16.994   1.713
73199ION    NA+41417   1.960  19.063  14.286
73200ION    NA+41418   9.166  11.783   1.380
73201ION    NA+41419   9.847  30.283  11.276
73202ION    NA+41420  14.131  42.531  11.571
73203ION    NA+41421  15.820   6.884  11.249
73204ION    NA+41422  28.688  43.689   2.568
73205ION    NA+41423   9.370  20.172   3.862
73206ION    NA+41424  27.052  22.736   0.466
73207ION    NA+41425  38.105   1.454   2.938
73208ION    NA+41426  17.814   5.223  13.863
73209ION    NA+41427  16.547  36.050   1.699
73210ION    NA+41428  30.481  29.127  13.504
73211ION    NA+41429  27.527  38.984  14.821
73212ION    NA+41430   1.979  12.969   4.638
73213ION    NA+41431  34.647  28.981   4.975
73214ION    NA+41432  33.314  27.444  12.054
73215ION    NA+41433  44.430   1.362  14.050
73216ION    NA+41434  14.692  37.554   1.354
73217ION    NA+41435  24.206  21.767  14.816
73218ION    NA+41436  34.798   6.308  14.773
73219ION    NA+41437  19.652  11.668  14.941
73220ION    NA+41438  30.155  43.521  11.319
73221ION    NA+41439  39.037  36.262  12.320
73222ION    NA+41440  42.957  16.110  13.987
73223ION    NA+41441   1.514  38.266  14.975
73224ION    NA+41442  43.437  25.673  12.910
73225ION    NA+41443  14.919  37.491  11.428
73226ION    NA+41444  15.791  43.173  10.749
73227ION    NA+41445   0.672  32.589   0.408
73228ION    NA+41446  36.396  29.712   2.764
73229ION    NA+41447  17.687  30.123  12.895
73230ION    NA+41448  17.605  35.363   3.244
73231ION    NA+41449  33.526  19.729   2.055
73232ION    NA+41450   8.358  27.043   2.679
73233ION    NA+41451  19.427  33.827  11.163
73234ION    NA+41452  28.577  39.016  14.229
73235ION    NA+41453  22.972  18.353  12.404
73236ION    NA+41454   9.494  31.040  12.719
73237ION    NA+41455  25.826  15.481   4.628
73238ION    NA+41456   2.418   8.360   0.456
73239ION    NA+41457   3.506  40.905   9.675
73240ION    NA+41458   9.130  41.070   1.644
73241ION    NA+41459   4.583  31.244   3.939
73242ION    NA+41460   6.779  39.920   2.698
73243ION    NA+41461  40.756  32.582  10.572
73244ION    NA+41462  12.759   2.791   3.755
73245ION    NA+41463  36.394   2.917   3.675
73246ION    NA+41464  33.401  17.501   4.588
73247ION    NA+41465  24.274  17.855   1.887
73248ION    NA+41466  18.851   1.928   2.311
73249ION    NA+41467  34.170  40.543  13.195
73250ION    NA+41468  25.420  22.037   4.483
73251ION    NA+41469  10.803  13.090  10.839
73252ION    NA+41470  33.732   3.467   1.240
73253ION    NA+41471  42.016  30.258  14.197
73254ION    NA+41472  17.449  19.453  10.945
73255ION    NA+41473   3.680   7.359   4.504
73256ION    NA+41474   6.522  22.220  11.684
73257ION    NA+41475  16.022  27.669   2.835
73258ION    NA+41476   3.464  19.286   1.175
73259ION    NA+41477  36.711   9.949  13.906
73260ION    NA+41478  10.384  32.349   4.508
73261ION    NA+41479  21.788  32.445   1.204
73262ION    NA+41480   1.330  27.541   0.191
73263ION    NA+41481  12.349  41.220   4.115
73264ION    NA+41482  13.854   4.841   1.857
73265ION    NA+41483  19.728   8.084  14.680
73266ION    NA+41484  15.660  32.290  11.057
73267ION    NA+41485  11.021  39.297   0.280
73268ION    NA+41486  16.530  42.474  10.693
73269ION    NA+41487  17.833  33.447  12.835
73270ION    NA+41488   3.277  30.408   4.364
73271ION    NA+41489   9.933  17.204   3.845
73272ION    NA+41490   3.869  15.444   9.799
73273ION    NA+41491  40.584  41.941   1.365
73274ION    NA+41492  25.212   6.268  14.728
73275ION    NA+41493   8.694  24.064  11.008
73276ION    NA+41494  17.162  21.033  13.243
73277ION    NA+41495  14.526  21.877  13.356
73278ION    NA+41496  37.898   1.906   1.781
73279ION    NA+41497   9.537  22.154   0.059
73280ION    NA+41498  21.076  34.465   0.416
73281ION    NA+41499  32.806   8.137   1.803
73282ION    NA+41500  44.275  12.396   0.243
73283ION    NA+41501  21.979  31.416   1.762
73284ION    NA+41502   1.768  17.035   3.653
73285ION    NA+41503  23.094   0.425   2.800
73286ION    NA+41504  35.124  23.681   9.684
73287ION    NA+41505  15.826  33.368  14.621
73288ION    NA+41506  34.671   1.231   1.561
73289ION    NA+41507   3.152  32.814  13.116
73290ION    NA+41508  21.784   1.631  10.753
73291ION    NA+41509   8.031   4.897   1.699
73292ION    NA+41510  19.786  23.706   4.400
73293ION    NA+41511  43.181  41.504   3.314
73294ION    NA+41512  23.204  20.816   1.782
73295ION    NA+41513  44.287  18.203   3.130
73296ION    NA+41514   4.744  26.505   0.651
73297ION    NA+41515  21.881   4.303   2.692
73298ION    NA+41516  18.002   5.817   3.685
73299ION    NA+41517  13.670  33.917   1.721
73300ION    NA+41518   8.840  26.504  11.132
73301ION    NA+41519  11.706   2.823  13.749
73302ION    NA+41520  12.768  13.880  14.548
73303ION    NA+41521  44.004  17.602   0.110
73304ION    NA+41522   2.052  42.549   2.977
73305ION    NA+41523  40.386  37.372   3.032
73306ION    NA+41524  27.804  42.870  10.643
73307ION    NA+41525   6.218  40.379   9.992
73308ION    NA+41526  30.425  31.878  12.675
73309ION    NA+41527   2.767   3.917   1.516
73310ION    NA+41528   3.336  31.992  11.153
73311ION    NA+41529  30.648  34.461   0.784
73312ION    NA+41530  14.851  13.046   1.396
73313ION    NA+41531  22.944  37.172   4.571
73314ION    NA+41532   9.762  24.645  12.906
73315ION    NA+41533  43.174  14.196  13.494
73316ION    NA+41534   2.582  38.064   2.175
73317ION    NA+41535  24.983  34.663  10.315
73318ION    NA+41536  16.858  35.362  13.185
73319ION    NA+41537  32.355  28.765   4.482
73320ION    NA+41538  36.994  16.667   4.087
73321ION    NA+41539  14.804  19.610  14.711
73322ION    NA+41540  33.565   2.237  14.838
73323ION    NA+41541  38.816  16.512  14.835
73324ION    NA+41542  44.482   5.280   3.593
73325ION    NA+41543  29.267  37.492  14.733
73326ION    NA+41544   5.877   6.327  14.406
73327ION    NA+41545  18.109  36.843  13.352
73328ION    NA+41546  36.066  39.438   2.182
73329ION    NA+41547  27.217  43.509  12.178
73330ION    NA+41548   2.781  15.701   4.923
73331ION    NA+41549  28.496   2.020   3.870
73332ION    NA+41550  18.437  40.114   2.490
73333ION    NA+41551  13.077  24.394   1.257
73334ION    NA+41552  20.982   4.533   3.065
73335ION    NA+41553  21.792  11.859  11.230
73336ION    NA+41554  31.501  19.672  12.187
73337ION    NA+41555  28.375  25.439   2.772
73338ION    NA+41556  38.434  35.874  11.623
73339ION    NA+41557  15.316   3.913  13.977
73340ION    NA+41558  27.655   1.794   2.808
73341ION    NA+41559  15.534  19.542   2.757
73342ION    NA+41560  38.704   1.336  11.281
73343ION    NA+41561  33.428  13.425   2.571
73344ION    NA+41562   2.877  14.126  14.989
73345ION    NA+41563  32.013   5.391   5.370
73346ION    NA+41564  34.159  23.953   2.131
73347ION    NA+41565  14.030  40.096   2.852
73348ION    NA+41566  10.862  43.481   3.639
73349ION    NA+41567  40.694  17.353  13.362
73350ION    NA+41568  35.658  15.504   2.146
73351ION    NA+41569  32.843  12.151   4.703
73352ION    NA+41570   3.500  36.341   4.852
73353ION    NA+41571  11.089  16.367  12.887
73354ION    NA+41572  21.197  32.042  14.911
73355ION    NA+41573  25.487   3.321   1.696
73356ION    NA+41574   0.602  27.120   4.523
73357ION    NA+41575  35.123   4.645   3.852
73358ION    NA+41576   9.546  15.957  12.915
73359ION    NA+41577  34.302  38.344   1.096
73360ION    NA+41578  38.128  33.844   1.387
73361ION    NA+41579  22.226   5.243   0.197
73362ION    NA+41580  21.107  15.079   3.620
73363ION    NA+41581  43.738   7.175  10.404
73364ION    NA+41582  21.735  11.705  14.992
73365ION    NA+41583  19.728   6.531   1.017
73366ION    NA+41584   3.225   6.258  13.508
73367ION    NA+41585   5.214  18.455   2.935
73368ION    NA+41586  30.327  11.174  13.458
73369ION    NA+41587   5.355  22.984   0.676
73370ION    NA+41588   4.639  24.154  10.498
73371ION    NA+41589  42.371  30.457   0.020
73372ION    NA+41590  44.841  37.162   1.598
73373ION    NA+41591  38.819   6.522   1.960
73374ION    NA+41592  19.514  18.013   3.300
73375ION    NA+41593   0.676   3.383   2.735
73376ION    NA+41594  18.338  11.150  12.513
73377ION    NA+41595  31.193  37.567  14.178
73378ION    NA+41596  34.202  30.517   2.342
73379ION    NA+41597  10.383  20.575  11.616
73380ION    NA+41598  27.052  40.261   0.718
73381ION    NA+41599  29.481   7.580  11.656
73382ION    NA+41600  16.309  10.003  10.691
73383ION    NA+41601  15.762  27.040   4.401
73384ION    NA+41602  12.371  15.988   1.756
73385ION    NA+41603   1.217  35.402   1.016
73386ION    NA+41604  12.234   4.379   2.820
73387ION    NA+41605  20.033  29.430  13.529
73388ION    NA+41606   3.397  17.212   3.348
73389ION    NA+41607  39.428   1.178   3.239
73390ION    NA+41608   4.032   9.778  13.502
73391ION    NA+41609  38.099  22.392   0.005
73392ION    NA+41610   4.027  17.400   0.100
73393ION    NA+41611  20.848  15.272   5.439
73394ION    NA+41612  17.627  20.469   2.278
73395ION    NA+41613  23.959  43.003   3.180
73396ION    NA+41614  11.147  39.975  11.206
73397ION    NA+41615  38.366  40.060   4.562
73398ION    NA+41616  44.759  29.332   2.675
73399ION    NA+41617  24.998  22.956   1.960
73400ION    NA+41618  39.403  22.596   4.804
73401ION    NA+41619   2.137   1.397   0.879
73402ION    NA+41620  26.606  28.396   3.030
73403ION    NA+41621  41.433  26.097   3.671
73404ION    NA+41622  24.107  38.163  12.306
73405ION    NA+41623  30.917   0.329   0.378
73406ION    NA+41624   2.968  40.260  11.875
73407ION    NA+41625  11.334  41.573  14.443
73408ION    NA+41626  11.877  29.964   3.420
73409ION    NA+41627  21.127   0.878  10.721
73410ION    NA+41628  43.039  16.045   2.179
73411ION    NA+41629  16.666  33.345  11.916
73412ION    NA+41630   3.775   8.227  11.923
73413ION    NA+41631  23.017   8.263   4.751
73414ION    NA+41632  33.377  32.404  11.146
73415ION    NA+41633  35.733   2.629   3.290
73416ION    NA+41634  33.587   7.448  14.563
73417ION    NA+41635  33.845  21.029   1.715
73418ION    NA+41636  19.341  24.742  12.736
73419ION    NA+41637   9.760  36.885   1.861
73420ION    NA+41638   9.690  21.018   2.638
73421ION    NA+41639  15.097  37.242   2.837
73422ION    NA+41640   4.833  42.524  12.221
73423ION    NA+41641   3.601   4.272  13.233
73424ION    NA+41642  35.961   7.350  12.159
73425ION    NA+41643  12.567   8.359  11.576
73426ION    NA+41644  27.235  32.819  13.398
73427ION    NA+41645  38.491  37.073   3.623
73428ION    NA+41646  14.859  44.894  10.787
73429ION    NA+41647   9.726   9.137  11.115
73430ION    NA+41648  17.530  11.908   3.861
73431ION    NA+41649  21.208  13.240  13.550
73432ION    NA+41650  16.349  19.304   3.337
73433ION    NA+41651  36.826  27.981  13.429
73434ION    NA+41652  22.204  39.061   0.770
73435ION    NA+41653  21.522  33.178   1.670
73436ION    NA+41654  41.989  22.583  10.776
73437ION    NA+41655   3.502   7.596  10.992
73438ION    NA+41656  26.546  23.274  11.450
73439ION    NA+41657  17.852   9.738  11.596
73440ION    NA+41658  19.725  33.094   3.838
73441ION    NA+41659   9.118  41.663  12.253
73442ION    NA+41660  11.744  14.454  12.034
73443ION    NA+41661  42.903   8.357  11.518
73444ION    NA+41662  36.079   1.580  12.420
73445ION    NA+41663  39.294  13.132  12.195
73446ION    NA+41664   6.197  31.464  14.481
73447ION    NA+41665  19.285  24.031   0.565
73448ION    NA+41666  11.401  27.952  13.938
73449ION    NA+41667  24.256   9.893   2.771
73450ION    NA+41668  18.771  21.147   3.866
73451ION    NA+41669  41.908  24.690  11.390
73452ION    NA+41670  17.094   5.210  14.402
73453ION    NA+41671  20.174  12.570  13.082
73454ION    NA+41672  11.791  30.023  10.472
73455ION    NA+41673  30.541  32.855   4.002
73456ION    NA+41674  43.584   9.725   0.799
73457ION    NA+41675  38.752   4.296  13.933
73458ION    NA+41676  25.822  26.353   5.099
73459ION    NA+41677  41.780  40.691  11.526
73460ION    NA+41678   7.761   3.366   3.751
73461ION    NA+41679   7.830  32.503  14.954
73462ION    NA+41680  16.120  37.545   0.217
73463ION    NA+41681  35.297  29.683   0.880
73464ION    NA+41682  21.857   8.859  12.399
73465ION    NA+41683  31.619  32.494   2.133
73466ION    NA+41684  34.613  40.841  14.745
73467ION    NA+41685  12.957   6.402   3.533
73468ION    NA+41686   7.659   4.839  14.105
73469ION    NA+41687  30.822  20.819   2.027
73470ION    NA+41688  16.736  13.554  13.707
73471ION    NA+41689   1.912  19.306   0.255
73472ION    NA+41690  31.564   1.493  13.272
73473ION    NA+41691  18.936  16.739  14.988
73474ION    NA+41692  42.552   8.272  10.563
73475ION    NA+41693  44.421   5.533  11.642
73476ION    NA+41694  44.045  34.054   3.629
73477ION    NA+41695   9.718  26.887  13.683
73478ION    NA+41696  12.205  26.945   1.281
73479ION    NA+41697  10.052  26.486  14.422
73480ION    NA+41698   6.905  22.380   4.645
73481ION    NA+41699  44.516  26.263  13.166
73482ION    NA+41700   4.442  30.118  11.179
73483ION    NA+41701   1.676  37.927   1.560
73484ION    NA+41702   8.504  29.168   4.068
73485ION    NA+41703  42.319  40.035  14.038
73486ION    NA+41704  21.172   1.506  13.373
73487ION    NA+41705   4.006  35.242  11.384
73488ION    NA+41706  44.010  22.003   4.233
73489ION    NA+41707  29.250  21.621   2.557
73490ION    NA+41708   5.954  27.723   4.259
73491ION    NA+41709  21.692  37.908  14.287
73492ION    NA+41710  34.376  26.288  12.498
73493ION    NA+41711  29.303   3.411   4.093
73494ION    NA+41712  40.368  34.608   0.526
73495ION    NA+41713  33.899   9.425  10.429
73496ION    NA+41714  17.268   2.838  12.828
73497ION    NA+41715  31.620  41.991   2.776
73498ION    NA+41716  18.450  22.127  11.944
73499ION    NA+41717   0.949  33.353  14.618
73500ION    NA+41718  30.130   4.939  14.365
73501ION    NA+41719  24.923  14.396   2.305
73502ION    NA+41720  28.603  19.667  13.177
73503ION    NA+41721  42.288  39.250   0.415
73504ION    NA+41722  12.686  25.475  11.300
73505ION    NA+41723   1.997   8.771   5.025
73506ION    NA+41724  14.130  15.559  10.628
73507ION    NA+41725   2.857   1.616   4.902
73508ION    NA+41726  33.113  31.133   3.721
73509ION    NA+41727   5.816  10.637   9.810
73510ION    NA+41728   9.075   6.885   1.623
73511ION    NA+41729  44.058  17.259   4.376
73512ION    NA+41730  38.712  35.834   1.613
73513ION    NA+41731  41.913  18.084   0.804
73514ION    NA+41732  30.348  23.938  12.912
73515ION    NA+41733  20.736   3.586  13.692
73516ION    NA+41734  28.816  27.722   3.493
73517ION    NA+41735  35.818  28.012  10.182
73518ION    NA+41736  30.423  11.049   3.218
73519ION    NA+41737  42.714  14.737   3.879
73520ION    NA+41738   8.309   9.207  14.926
73521ION    NA+41739   8.956   2.722  12.542
73522ION    NA+41740  38.474  43.067   0.321
73523ION    NA+41741  31.197   9.109   2.824
73524ION    NA+41742  22.075   8.451   0.495
73525ION    NA+41743   4.086  22.035   3.541
73526ION    NA+41744  33.537  32.013   2.416
73527ION    NA+41745   7.625  30.835   1.418
73528ION    NA+41746  35.560  40.098   2.541
73529ION    NA+41747  27.903  42.095  13.991
73530ION    NA+41748  21.800  29.193   3.081
73531ION    NA+41749  32.710  15.588   1.520
73532ION    NA+41750  12.923  22.104  12.422
73533ION    NA+41751  25.486  23.875  14.248
73534ION    NA+41752  23.828  37.555  13.503
73535ION    NA+41753  20.504  23.077  12.464
73536ION    NA+41754   9.922  21.696   3.544
73537ION    NA+41755  36.335  12.671  11.636
73538ION    NA+41756  27.941  18.195   1.851
73539ION    NA+41757  29.521  15.829   1.825
73540ION    NA+41758   4.828  42.570   2.254
73541ION    NA+41759  26.670  35.806  12.963
73542ION    NA+41760  10.371  43.564  11.363
73543ION    NA+41761  11.227  17.652   2.037
73544ION    NA+41762  37.338   4.476  13.113
73545ION    NA+41763  28.131  22.205  13.525
73546ION    NA+41764  28.656   8.684   0.463
73547ION    NA+41765   2.942  17.452  11.146
73548ION    NA+41766  30.730  16.459  12.168
73549ION    NA+41767  31.299   6.822  14.322
73550ION    NA+41768  19.275  12.333  13.631
73551ION    NA+41769  22.658  33.417  10.778
73552ION    NA+41770  22.463  13.055  11.574
73553ION    NA+41771  39.138  16.218   1.779
73554ION    NA+41772  10.166  37.365  11.474
73555ION    NA+41773   2.509   8.970  13.926
73556ION    NA+41774  37.312  32.135  12.016
73557ION    NA+41775  23.350  12.316   4.542
73558ION    NA+41776  22.157  39.222  14.007
73559ION    NA+41777   1.903  29.069  14.974
73560ION    NA+41778  34.287  27.281  14.347
73561ION    NA+41779  33.682  38.860  14.846
73562ION    NA+41780  32.872  17.122   0.881
73563ION    NA+41781  29.538   6.527  14.489
73564ION    NA+41782  20.029  15.896   0.384
73565ION    NA+41783  36.024  18.515  11.028
73566ION    NA+41784  39.765   1.658   4.880
73567ION    NA+41785  43.829  13.042  12.951
73568ION    NA+41786  17.477  43.655   5.432
73569ION    NA+41787  43.816  10.763   2.727
73570ION    NA+41788  17.398  42.226   3.150
73571ION    NA+41789  19.501  42.289   4.445
73572ION    NA+41790   9.865  24.987   1.779
73573ION    NA+41791  33.443  44.778  13.727
73574ION    NA+41792  41.863  27.389  11.077
73575ION    NA+41793   2.638  43.019  12.538
73576ION    NA+41794  35.154  16.123   3.153
73577ION    NA+41795  21.480  18.198   1.614
73578ION    NA+41796   2.952   7.910  13.269
73579ION    NA+41797  32.510   3.689  14.032
73580ION    NA+41798  14.524  13.190  10.703
73581ION    NA+41799  41.878  22.569  11.770
73582ION    NA+41800  32.576   5.143  11.633
73583ION    NA+41801  20.984  11.575  10.710
73584ION    NA+41802  32.415  42.056   3.378
73585ION    NA+41803  43.846   6.347  11.037
73586ION    NA+41804  11.635  30.109   0.781
73587ION    NA+41805   2.374  11.116   0.421
73588ION    NA+41806  41.335  41.324  12.977
73589ION    NA+41807   1.824  15.869   3.767
73590ION    NA+41808  16.654   2.889   0.002
73591ION    NA+41809  39.160  21.143   3.057
73592ION    NA+41810  40.252  10.417  11.199
73593ION    NA+41811   0.132  12.476   3.750
73594ION    NA+41812  35.478  30.926   1.288
73595ION    NA+41813  44.898  28.185  11.383
73596ION    NA+41814  31.261  12.620  10.786
73597ION    NA+41815  29.115   2.485  12.902
73598ION    NA+41816  43.880  44.757  11.372
73599ION    NA+41817  22.723  19.596  12.968
73600ION    NA+41818  27.640  15.578  12.077
73601ION    NA+41819  21.523  34.639  11.344
73602ION    NA+41820   8.874  25.487   0.405
73603ION    NA+41821  33.403  42.227   4.726
73604ION    NA+41822  37.260   9.307  13.696
73605ION    NA+41823  40.968   7.636  14.019
73606ION    NA+41824  36.934   3.467  13.828
73607ION    NA+41825  11.905  20.625  14.342
73608ION    NA+41826  30.637  17.697  11.911
73609ION    NA+41827  33.164  37.589  10.268
73610ION    NA+41828  17.309  23.958  10.692
73611ION    NA+41829  42.030   4.293  11.537
73612ION    NA+41830  31.995   2.821  13.988
73613ION    NA+41831  40.286   9.643  11.830
73614ION    NA+41832  13.576   9.349  12.137
73615ION    NA+41833  44.013  32.719  12.842
73616ION    NA+41834  14.271  31.924  10.220
73617ION    NA+41835  28.862  11.069  14.638
73618ION    NA+41836   9.760  13.285   2.819
73619ION    NA+41837  39.177  16.071  10.067
73620ION    NA+41838  38.054  20.730   4.702
73621ION    NA+41839  30.135  28.405  12.835
73622ION    NA+41840   6.892  33.490   4.157
73623ION    NA+41841  24.906  11.918   2.693
73624ION    NA+41842  35.882  34.327  13.094
73625ION    NA+41843  24.281   9.975  13.739
73626ION    NA+41844  34.433   1.258  13.291
73627ION    NA+41845  21.313  13.117  12.051
73628ION    NA+41846  24.533   4.865  13.556
73629ION    NA+41847  22.529  11.724   3.132
73630ION    NA+41848   8.338  38.824  12.291
73631ION    NA+41849  41.522   0.740  11.154
73632ION    NA+41850  19.417  11.498   3.459
73633ION    NA+41851   8.634  12.191  11.929
73634ION    NA+41852  20.989  14.726  13.901
73635ION    NA+41853  27.358  43.659   3.635
73636ION    NA+41854  28.588  10.599   3.656
73637ION    NA+41855  11.672  44.657  11.867
73638ION    NA+41856  44.980   2.033  14.554
73639ION    NA+41857  35.604   6.486   0.466
73640ION    NA+41858  43.265   9.172   4.913
73641ION    NA+41859  20.092   5.967  13.903
73642ION    NA+41860  37.135  43.202   2.463
73643ION    NA+41861   8.371  30.466   1.028
73644ION    NA+41862   5.318   4.817   2.554
73645ION    NA+41863   0.803  13.388   3.669
73646ION    NA+41864  18.380  33.394   4.081
73647ION    NA+41865  37.354  23.264  12.999
73648ION    NA+41866   7.847  10.795  14.270
73649ION    NA+41867  27.561  27.366  10.829
73650ION    NA+41868  31.596  38.412  12.129
73651ION    NA+41869  20.456  32.551   2.141
73652ION    NA+41870  35.649  22.474  11.281
73653ION    NA+41871   5.748  10.242   3.716
73654ION    NA+41872  30.800  35.770  13.836
73655ION    NA+41873  29.082  24.552  10.406
73656ION    NA+41874   4.683  11.699  10.657
73657ION    NA+41875   6.590  26.088   0.339
73658ION    NA+41876  31.087  34.682  10.388
73659ION    NA+41877  22.454  15.297  11.675
73660ION    NA+41878   1.588  31.850   5.100
73661ION    NA+41879  39.536  16.925  11.168
73662ION    NA+41880  19.044  43.467  14.064
73663ION    NA+41881  11.292   8.970  14.620
73664ION    NA+41882  16.147  16.237  12.219
73665ION    NA+41883  31.856  34.205   2.199
73666ION    NA+41884  33.874  32.831   0.231
73667ION    NA+41885   1.923   6.250   5.028
73668ION    NA+41886   9.665  17.145  13.547
73669ION    NA+41887   1.990  30.404   1.148
73670ION    NA+41888  18.060  34.073   2.226
73671ION    NA+41889  19.951  37.118  11.640
73672ION    NA+41890   4.234  38.790  13.986
73673ION    NA+41891  12.081  13.309   0.767
73674ION    NA+41892  35.092  22.075   3.504
73675ION    NA+41893  35.539  12.433   2.151
73676ION    NA+41894  24.964  10.745   9.670
73677ION    NA+41895  37.993  19.483  12.376
73678ION    NA+41896  14.638   1.367  14.725
73679ION    NA+41897   2.933  21.585   0.391
73680ION    NA+41898  44.224  41.966  12.163
73681ION    NA+41899   6.960  21.648  13.355
73682ION    NA+41900   3.833  34.993  10.206
73683ION    NA+41901  17.875   7.154   2.713
73684ION    NA+41902  36.092  23.295  13.917
73685ION    NA+41903   2.627  12.403   0.322
73686ION    NA+41904  19.232  35.942  14.882
73687ION    NA+41905   7.196  24.477   4.610
73688ION    NA+41906   2.189  15.182  11.545
73689ION    NA+41907   3.980  29.801   0.771
73690ION    NA+41908  21.852  10.467  11.065
73691ION    NA+41909  11.863  33.229   5.065
73692ION    NA+41910  44.862  35.293  10.983
73693ION    NA+41911  20.403  18.929  14.151
73694ION    NA+41912  16.733  40.603   2.351
73695ION    NA+41913  43.046  28.437   4.155
73696ION    NA+41914  12.088   4.136   0.794
73697ION    NA+41915  41.866  13.246   4.215
73698ION    NA+41916  41.006   9.421   4.658
73699ION    NA+41917  30.685  15.667   0.037
73700ION    NA+41918  38.964  13.866  13.818
73701ION    NA+41919   3.697  26.752  13.277
73702ION    NA+41920   5.326   2.756  11.979
73703ION    NA+41921   4.241  41.100  10.712
73704ION    NA+41922  33.745  15.874  13.119
73705ION    NA+41923  43.721  24.213  11.812
73706ION    NA+41924  33.922  32.620   4.223
73707ION    NA+41925  25.006  41.295   0.734
73708ION    NA+41926  26.441  33.171  14.584
73709ION    NA+41927   0.661  40.980  10.780
73710ION    NA+41928   7.430  27.952   3.372
73711ION    NA+41929  23.952  24.504   2.048
73712ION    NA+41930  17.105  11.702  14.081
73713ION    NA+41931   4.498   7.749  12.475
73714ION    NA+41932   9.359   9.819   3.129
73715ION    NA+41933  16.179   8.647   1.548
73716ION    NA+41934  38.076  15.503   5.108
73717ION    NA+41935  42.974  13.689  12.021
73718ION    NA+41936  34.532  31.601   2.395
73719ION    NA+41937  11.375  24.955   2.665
73720ION    NA+41938  34.629   9.434   1.182
73721ION    NA+41939   0.636  13.067   0.992
73722ION    NA+41940  32.911  33.313  13.069
73723ION    NA+41941  16.836  33.390  12.780
73724ION    NA+41942   8.342  22.033   0.787
73725ION    NA+41943  16.359  18.631  12.919
73726ION    NA+41944  10.651  12.758   4.209
73727ION    NA+41945  35.127  12.834   3.005
73728ION    NA+41946  24.311  11.393   3.127
73729ION    NA+41947  15.989  10.616   2.496
73730ION    NA+41948  27.303   0.071  14.300
73731ION    NA+41949  12.373   2.516  11.679
73732ION    NA+41950  30.476  16.402   9.895
73733ION    NA+41951  14.401  22.757  13.584
73734ION    NA+41952  36.785  41.577  12.813
73735ION    NA+41953  41.802  25.461  14.300
73736ION    NA+41954  14.166  36.786   2.195
73737ION    NA+41955  20.504  16.316  11.240
73738ION    NA+41956  34.227  33.001  14.282
73739ION    NA+41957  29.335  11.211  13.331
73740ION    NA+41958  43.919   1.362   0.339
73741ION    NA+41959  13.681  17.480  11.037
73742ION    NA+41960  10.319  16.248  11.884
73743ION    NA+41961  18.734   3.967  12.171
73744ION    NA+41962  26.601  34.908   3.061
73745ION    NA+41963  29.506  14.277   2.946
73746ION    NA+41964  42.406  43.336  10.721
73747ION    NA+41965  35.045   8.807   1.545
73748ION    NA+41966  34.156  17.340   1.065
73749ION    NA+41967  32.090   0.733  10.827
73750ION    NA+41968  40.592  15.892   3.651
73751ION    NA+41969  25.789  10.476   5.451
73752ION    NA+41970  44.077  37.503   3.172
73753ION    NA+41971  40.390   1.544   0.408
73754ION    NA+41972  12.437   5.054   0.988
73755ION    NA+41973  32.253   5.966  11.165
73756ION    NA+41974   9.327   5.430  11.079
73757ION    NA+41975  18.111   9.756   0.413
73758ION    NA+41976   6.347  18.675  11.490
73759ION    NA+41977   7.786  33.394   3.515
73760ION    NA+41978   6.484  20.843  11.988
73761ION    NA+41979  28.085  22.121  10.291
73762ION    NA+41980  38.396  29.736  11.236
73763ION    NA+41981   5.912  21.990  12.630
73764ION    NA+41982  22.468   4.417   1.797
73765ION    NA+41983  27.167  13.024   2.064
73766ION    NA+41984  28.348  13.414  11.674
73767ION    NA+41985  21.956  32.262  12.771
73768ION    NA+41986  30.563  32.552   2.128
73769ION    NA+41987  20.802  30.069  13.565
73770ION    NA+41988  43.062  24.865  12.713
73771ION    NA+41989  44.876  17.970  12.739
73772ION    NA+41990  35.446  38.958  11.470
73773ION    NA+41991  43.893  19.916  11.480
73774ION    NA+41992  39.785   3.936   3.157
73775ION    NA+41993   7.689  26.096   3.332
73776ION    NA+41994   9.614   4.911   2.171
73777ION    NA+41995   9.869  15.396  12.153
73778ION    NA+41996  26.547  10.357  13.702
73779ION    NA+41997  31.226  28.427   0.849
73780ION    NA+41998  16.834  43.260   1.272
73781ION    NA+41999  12.558  37.256  11.597
73782ION    NA+42000  38.376   2.780   2.879
73783ION    NA+42001  32.569  42.026   0.506
73784ION    NA+42002   5.622  23.462   4.208
73785ION    NA+42003  21.206   2.844  10.589
73786ION    NA+42004  41.863  10.213   2.974
73787ION    NA+42005  43.008  33.568   4.046
73788ION    NA+42006  20.230   7.150  11.980
73789ION    NA+42007  13.257  34.195  13.718
73790ION    NA+42008   5.393  12.890   4.104
73791ION    NA+42009  21.363  16.055  11.160
73792ION    NA+42010  10.161  32.014  12.818
73793ION    NA+42011  15.220  35.835  11.369
73794ION    NA+42012  34.611   4.622   3.419
73795ION    NA+42013  25.103   7.448  14.509
73796ION    NA+42014  18.534  23.298   1.440
73797ION    NA+42015  10.019  11.312   1.629
73798ION    NA+42016  43.257  27.439   4.513
73799ION    NA+42017   5.338  43.383   1.975
73800ION    NA+42018   0.872  39.346  13.479
73801ION    NA+42019  31.204  43.319  12.996
73802ION    NA+42020  20.078   9.176   2.421
73803ION    NA+42021  13.322  27.900  14.929
73804ION    NA+42022  30.520  10.490   0.007
73805ION    NA+42023  27.346  38.849   2.663
73806ION    NA+42024  41.131  36.152  12.830
73807ION    NA+42025  11.625  28.672  11.121
73808ION    NA+42026  13.102  18.121  11.540
73809ION    NA+42027  15.336  30.527   2.324
73810ION    NA+42028  12.663   8.650  14.735
73811ION    CL-42029  25.046   4.315   3.644
73812ION    CL-42030  36.981  26.749   0.319
73813ION    CL-42031  32.454  35.940   0.431
73814ION    CL-42032  16.034   3.781   1.776
73815ION    CL-42033   6.191  24.139  14.739
73816ION    CL-42034  33.151  19.980   0.554
73817ION    CL-42035  24.296  30.178   1.604
73818ION    CL-42036   3.730  32.134   4.900
73819ION    CL-42037  25.208  34.714  10.723
73820ION    CL-42038  28.844  21.823   2.536
73821ION    CL-42039  27.671  31.846   1.358
73822ION    CL-42040  32.523   1.841   4.385
73823ION    CL-42041   6.610  31.913   4.988
73824ION    CL-42042   3.713  16.158  11.940
73825ION    CL-42043  44.495  11.865   2.751
73826ION    CL-42044  40.356  44.445   3.988
73827ION    CL-42045   1.380  11.202   0.551
73828ION    CL-42046  29.342  30.591  12.969
73829ION    CL-42047   3.618  12.881  14.394
73830ION    CL-42048  11.351  38.964   0.301
73831ION    CL-42049   2.411  40.721  14.267
73832ION    CL-42050  11.613  20.625   2.788
73833ION    CL-42051  14.667  11.735   2.658
73834ION    CL-42052  15.151  25.732  11.834
73835ION    CL-42053  13.154  27.182  11.046
73836ION    CL-42054  27.507   0.225  14.667
73837ION    CL-42055  28.439  11.202  14.591
73838ION    CL-42056  27.405  31.494  11.487
73839ION    CL-42057  20.937  16.174  11.263
73840ION    CL-42058  13.852  31.847  13.322
73841ION    CL-42059  33.025  38.783   2.364
73842ION    CL-42060   5.970   0.989   1.307
73843ION    CL-42061  33.222  24.879   4.186
73844ION    CL-42062  17.129  42.031  13.010
73845ION    CL-42063  38.828  38.740   3.145
73846ION    CL-42064  35.605  13.546  12.753
73847ION    CL-42065  27.125  30.706   0.458
73848ION    CL-42066  22.919  23.699  12.053
73849ION    CL-42067  26.644  12.102   5.089
73850ION    CL-42068  34.761  11.751  11.945
73851ION    CL-42069  21.285  42.392  13.648
73852ION    CL-42070   4.404   6.731  11.693
73853ION    CL-42071  34.667   4.782   3.841
73854ION    CL-42072  30.391  10.908   0.110
73855ION    CL-42073  29.242   1.692   4.869
73856ION    CL-42074  26.522  35.351   3.138
73857ION    CL-42075   2.951  31.755  11.215
73858ION    CL-42076  33.365  31.497   3.666
73859ION    CL-42077  29.846  33.565  12.324
73860ION    CL-42078  19.496  21.542   2.791
73861ION    CL-42079  17.899  22.676  13.226
73862ION    CL-42080  43.464  33.131   3.221
73863ION    CL-42081   9.508  15.124  12.118
73864ION    CL-42082  26.463  39.827  10.716
73865ION    CL-42083  13.263  41.690  12.208
73866ION    CL-42084  26.612  16.048  11.999
73867ION    CL-42085  19.738   2.179  14.009
73868ION    CL-42086  27.885   7.521   5.132
73869ION    CL-42087  23.422  33.001  11.741
73870ION    CL-42088  20.780   0.968  12.059
73871ION    CL-42089  34.414  24.976   2.940
73872ION    CL-42090  11.974  32.819   4.861
73873ION    CL-42091  25.564  18.117   1.906
73874ION    CL-42092  26.361  16.364   2.910
73875ION    CL-42093  28.949  17.588  10.731
73876ION    CL-42094  19.366  21.917  13.804
73877ION    CL-42095  22.564  31.955   4.124
73878ION    CL-42096   1.103  38.271  14.779
73879ION    CL-42097  29.733  20.073  10.735
73880ION    CL-42098  30.720  30.917  11.090
73881ION    CL-42099  37.105  35.499  14.750
73882ION    CL-42100  20.113   9.320  11.294
73883ION    CL-42101  32.967  11.042   4.567
73884ION    CL-42102  23.221  30.227  10.421
73885ION    CL-42103  17.915  10.306   5.135
73886ION    CL-42104   0.193  44.103  13.136
73887ION    CL-42105  30.496  31.629   5.056
73888ION    CL-42106  28.511   8.832  13.089
73889ION    CL-42107  41.904  44.404  13.388
73890ION    CL-42108  39.758   0.862   2.090
73891ION    CL-42109  22.326  36.159   3.320
73892ION    CL-42110  35.005  41.252  11.448
73893ION    CL-42111  15.302  27.153  11.253
73894ION    CL-42112  38.956  26.668   0.727
73895ION    CL-42113  24.300   3.371  13.419
73896ION    CL-42114  20.342  28.132   2.661
73897ION    CL-42115  33.142   7.548   0.930
73898ION    CL-42116   0.981   1.857  12.393
73899ION    CL-42117  28.352  27.790   1.376
73900ION    CL-42118  22.509  31.316   5.086
73901ION    CL-42119  22.611  17.560  14.523
73902ION    CL-42120  31.360  42.977  12.738
73903ION    CL-42121  10.770  26.913   0.500
73904ION    CL-42122   8.662   3.024   0.668
73905ION    CL-42123   6.810  24.348  13.982
73906ION    CL-42124  30.189  42.390   4.043
73907ION    CL-42125  27.919  26.002   2.046
73908ION    CL-42126  42.840  43.873   1.542
73909ION    CL-42127  26.453  35.331  14.090
73910ION    CL-42128  28.514  43.734  14.277
73911ION    CL-42129   1.766  32.560   2.848
73912ION    CL-42130   3.642  26.502   0.296
73913ION    CL-42131   4.558  26.868   0.461
73914ION    CL-42132  44.510  25.238   0.401
73915ION    CL-42133   1.600  39.400   0.089
73916ION    CL-42134   3.648   2.485   0.392
73917ION    CL-42135   9.880  28.189   4.094
73918ION    CL-42136  22.011  27.174  12.024
73919ION    CL-42137   1.851   7.396   2.676
73920ION    CL-42138   3.124  36.157   5.060
73921ION    CL-42139  33.822  11.467  10.567
73922ION    CL-42140   4.236  21.598   0.619
73923ION    CL-42141  17.069  13.788  13.894
73924ION    CL-42142  38.008  29.903   1.423
73925ION    CL-42143  18.188  38.758   0.305
73926ION    CL-42144  13.957  39.663   2.941
73927ION    CL-42145  12.135  29.797  10.282
73928ION    CL-42146   4.210  37.079  13.807
73929ION    CL-42147  24.619  37.132   3.412
73930ION    CL-42148  27.925  44.308   0.780
73931ION    CL-42149  40.474  15.264  14.616
73932ION    CL-42150   9.408  32.019   1.191
73933ION    CL-42151  40.688  42.873  11.420
73934ION    CL-42152  38.794   9.698  11.633
73935ION    CL-42153  10.870   1.278  14.960
73936ION    CL-42154   1.888  42.547  11.086
73937ION    CL-42155   8.802  33.434   3.142
73938ION    CL-42156  29.480   9.090   3.320
73939ION    CL-42157  27.694  21.164  14.233
73940ION    CL-42158  24.582  18.784  13.815
73941ION    CL-42159  33.975  12.817  13.547
73942ION    CL-42160  28.302  32.840  12.662
73943ION    CL-42161  21.330  24.555  11.116
73944ION    CL-42162  37.269   8.280   2.907
73945ION    CL-42163  10.189  25.214  13.925
73946ION    CL-42164  15.985  42.148   5.028
73947ION    CL-42165   1.785  35.110  14.147
73948ION    CL-42166  35.419  16.631   5.001
73949ION    CL-42167  33.521  25.139  10.765
73950ION    CL-42168  11.427  27.129  10.419
73951ION    CL-42169  35.065  27.661   3.068
73952ION    CL-42170   0.343  31.295   0.199
73953ION    CL-42171   1.465   6.502  10.377
73954ION    CL-42172  18.707  38.345  13.371
73955ION    CL-42173  10.311   2.903   4.961
73956ION    CL-42174  35.238  15.342   2.143
73957ION    CL-42175  44.136  20.856   5.316
73958ION    CL-42176  17.943  25.112   3.469
73959ION    CL-42177  22.424  37.549  14.907
73960ION    CL-42178  23.461  11.810   0.390
73961ION    CL-42179  40.159  22.865  13.092
73962ION    CL-42180  33.662  43.809   0.793
73963ION    CL-42181   2.990  38.756   3.205
73964ION    CL-42182  33.432  36.973   0.281
73965ION    CL-42183  37.675   2.407   3.688
73966ION    CL-42184   6.480  11.613   1.440
73967ION    CL-42185   4.504  16.114  11.499
73968ION    CL-42186  18.603  22.605  14.065
73969ION    CL-42187  39.571  21.097   2.882
73970ION    CL-42188  43.469   8.704   9.802
73971ION    CL-42189  23.757  12.285   4.732
73972ION    CL-42190  33.755  19.583   2.418
73973ION    CL-42191   2.616  18.410   2.901
73974ION    CL-42192  26.374   0.959  11.247
73975ION    CL-42193  22.283  22.195  14.598
73976ION    CL-42194  28.876  43.448   2.241
73977ION    CL-42195  11.805  24.452  14.319
73978ION    CL-42196  32.941  27.879  14.254
73979ION    CL-42197   6.362   2.233   1.755
73980ION    CL-42198  23.526   7.925   2.364
73981ION    CL-42199  36.136   0.397   2.644
73982ION    CL-42200  28.862  12.381  11.525
73983ION    CL-42201  16.981  12.916   5.006
73984ION    CL-42202  10.441  32.029  12.472
73985ION    CL-42203  38.974  27.703  12.087
73986ION    CL-42204  39.120  35.965   1.403
73987ION    CL-42205  18.221  23.588   3.270
73988ION    CL-42206  30.613   5.418  11.051
73989ION    CL-42207  33.552  14.558   3.904
73990ION    CL-42208  17.879  19.845   3.387
73991ION    CL-42209  36.120  34.482  12.060
73992ION    CL-42210  39.307  29.755   0.368
73993ION    CL-42211  13.859   3.209   0.005
73994ION    CL-42212  10.586  34.808   3.313
73995ION    CL-42213   6.386  11.170  11.628
73996ION    CL-42214  13.288  20.544  11.065
73997ION    CL-42215  36.058   5.912   4.189
73998ION    CL-42216  32.989   6.283  13.499
73999ION    CL-42217  19.325  11.305   3.855
74000ION    CL-42218   8.539  25.263  12.621
74001ION    CL-42219  31.697   5.863   2.805
74002ION    CL-42220   6.911  44.858   4.777
74003ION    CL-42221  11.113  44.797   2.238
74004ION    CL-42222  44.466  42.322   2.142
74005ION    CL-42223  27.505   7.500   1.336
74006ION    CL-42224  30.878  36.395   4.108
74007ION    CL-42225  19.732  43.936  12.808
74008ION    CL-42226  11.677  14.217   1.884
74009ION    CL-42227  13.159  11.819   4.911
74010ION    CL-42228  38.415   1.260   4.971
74011ION    CL-42229  34.086   6.342   1.317
74012ION    CL-42230  20.118  43.962  14.487
74013ION    CL-42231  21.836  32.564   9.979
74014ION    CL-42232  29.537  14.662   3.173
74015ION    CL-42233  33.504  11.141  13.552
74016ION    CL-42234  19.416  23.599   0.641
74017ION    CL-42235   5.893  32.504  13.799
74018ION    CL-42236  28.573  33.878  14.042
74019ION    CL-42237  24.394  40.373  14.375
74020ION    CL-42238  15.254  12.363   2.147
74021ION    CL-42239  10.214  40.100  13.985
74022ION    CL-42240  33.223  22.074   2.697
74023ION    CL-42241  35.079  43.944   3.915
74024ION    CL-42242   8.553   8.666  12.501
74025ION    CL-42243  44.672  44.474   4.345
74026ION    CL-42244  30.915   5.185   4.100
74027ION    CL-42245  10.228   2.017   1.891
74028ION    CL-42246  11.865   2.273   2.355
74029ION    CL-42247  37.781  14.667  10.036
74030ION    CL-42248   6.758  24.583   1.329
74031ION    CL-42249  26.486  34.374   1.744
74032ION    CL-42250  16.757  20.195   5.002
74033ION    CL-42251  14.104  36.693  13.640
74034ION    CL-42252   3.016  39.976  12.219
74035ION    CL-42253  44.294  25.456   1.831
74036ION    CL-42254   6.281  10.646   1.596
74037ION    CL-42255  14.903   2.531   4.878
74038ION    CL-42256  42.383  19.641  12.403
74039ION    CL-42257   3.802  21.892   3.216
74040ION    CL-42258  42.535  35.892   4.727
74041ION    CL-42259  26.923  21.796  14.159
74042ION    CL-42260  11.585   8.977  11.191
74043ION    CL-42261  34.963   1.532   1.404
74044ION    CL-42262   8.804  42.523   1.606
74045ION    CL-42263  38.639  37.675   1.126
74046ION    CL-42264  36.824  36.679  11.995
74047ION    CL-42265  29.612  30.078  13.905
74048ION    CL-42266  23.957  38.426  12.663
74049ION    CL-42267  24.375  35.923   0.527
74050ION    CL-42268  35.496  43.037   3.850
74051ION    CL-42269  20.810  21.981   5.043
74052ION    CL-42270  13.678   1.398   3.299
74053ION    CL-42271  34.488   2.343  10.671
74054ION    CL-42272  11.557  34.607   2.343
74055ION    CL-42273  43.903  10.226  11.397
74056ION    CL-42274  23.267   7.080   4.138
74057ION    CL-42275  22.928  37.562   4.804
74058ION    CL-42276  43.689  41.605  13.992
74059ION    CL-42277  20.866  25.868   4.966
74060ION    CL-42278   1.409  31.367   1.747
74061ION    CL-42279  18.604  27.897  14.473
74062ION    CL-42280   1.025  38.097  13.102
74063ION    CL-42281   2.345   7.406   3.854
74064ION    CL-42282  21.184  36.144  10.624
74065ION    CL-42283  28.983  37.419  10.283
74066ION    CL-42284  13.580   9.092   3.440
74067ION    CL-42285  31.471  28.036  12.926
74068ION    CL-42286  38.353  10.776   4.276
74069ION    CL-42287   2.406  42.740   2.761
74070ION    CL-42288   9.342   1.639   4.921
74071ION    CL-42289  16.287  12.299  13.388
74072ION    CL-42290   5.838  18.681  14.743
74073ION    CL-42291   2.135  35.427  12.588
74074ION    CL-42292  22.370  20.114   3.398
74075ION    CL-42293   3.488  32.427  11.161
74076ION    CL-42294  30.037  32.607  13.446
74077ION    CL-42295  37.184  30.815   3.924
74078ION    CL-42296  13.872  27.433  10.564
74079ION    CL-42297  37.539  32.103   0.526
74080ION    CL-42298  28.305  34.570  11.534
74081ION    CL-42299   6.832  13.501   0.907
74082ION    CL-42300  44.335  28.739   4.206
74083ION    CL-42301   8.970  27.536  12.147
74084ION    CL-42302  16.763   6.621  11.696
74085ION    CL-42303  24.427  22.501   4.950
74086ION    CL-42304  37.082  16.213  14.770
74087ION    CL-42305  18.379  33.230   4.521
74088ION    CL-42306  37.476  40.074  13.734
74089ION    CL-42307  33.418  20.252  13.490
74090ION    CL-42308  12.109   2.382  14.128
74091ION    CL-42309   5.628  14.104  13.612
74092ION    CL-42310  42.294  38.234   5.198
74093ION    CL-42311  27.470  17.750  13.037
74094ION    CL-42312   1.580  12.464   1.777
74095ION    CL-42313  42.360   9.231   3.823
74096ION    CL-42314  17.459  11.537   3.608
74097ION    CL-42315  26.082  19.362   1.664
74098ION    CL-42316  20.812  25.011   3.676
74099ION    CL-42317  43.078   2.046  12.421
74100ION    CL-42318   8.730  23.705  10.746
74101ION    CL-42319  10.670  39.573   0.375
74102ION    CL-42320   6.476  21.673  10.544
74103ION    CL-42321  41.654  14.119  13.433
74104ION    CL-42322  24.558  40.903   4.750
74105ION    CL-42323  23.475  27.037   4.158
74106ION    CL-42324  24.054  26.552  10.565
74107ION    CL-42325  29.660  21.436   2.621
74108ION    CL-42326  27.777  32.730   1.917
74109ION    CL-42327  32.659  41.970  13.292
74110ION    CL-42328  43.496  28.783   0.034
74111ION    CL-42329   0.423   3.010   0.800
74112ION    CL-42330   1.421  15.121  14.912
74113ION    CL-42331   7.191  41.901  12.182
74114ION    CL-42332  29.927  12.451   3.385
74115ION    CL-42333   3.398   7.371   0.718
74116ION    CL-42334  10.293  26.178   5.074
74117ION    CL-42335  20.616  32.527   2.563
74118ION    CL-42336  37.265  32.358  14.176
74119ION    CL-42337  29.863  17.170  14.772
74120ION    CL-42338  16.598  13.760   4.117
74121ION    CL-42339  40.207  29.380  11.450
74122ION    CL-42340   8.086  34.350  11.060
74123ION    CL-42341  34.956  26.892   0.991
74124ION    CL-42342  25.895  32.009   4.732
74125ION    CL-42343   1.923  40.845   5.023
74126ION    CL-42344   9.951   7.697  12.956
74127ION    CL-42345  42.792  24.141   5.037
74128ION    CL-42346  40.427  44.764  10.476
74129ION    CL-42347   1.691  37.021   5.032
74130ION    CL-42348  16.029  16.318  13.510
74131ION    CL-42349  32.702  11.407   1.927
74132ION    CL-42350  20.899  43.689   2.789
74133ION    CL-42351  24.045  26.667   3.284
74134ION    CL-42352   6.316  43.598   4.973
74135ION    CL-42353   2.051  28.912  11.076
74136ION    CL-42354  40.019   9.290   0.785
74137ION    CL-42355  31.975  37.600   5.101
74138ION    CL-42356   4.488  32.501   0.082
74139ION    CL-42357  33.961  16.493  11.170
74140ION    CL-42358   6.730   9.029   2.442
74141ION    CL-42359  13.151  19.913   0.847
74142ION    CL-42360  22.194  32.013  13.070
74143ION    CL-42361  20.262  22.938   0.493
74144ION    CL-42362  21.705  18.198   3.313
74145ION    CL-42363   5.354  38.287   0.668
74146ION    CL-42364  31.636  44.201  11.736
74147ION    CL-42365  14.148  34.708   3.855
74148ION    CL-42366  32.564  30.298  14.387
74149ION    CL-42367   1.492   5.372  13.315
74150ION    CL-42368   8.862   2.507   5.053
74151ION    CL-42369  26.735  15.953   3.511
74152ION    CL-42370  39.045  19.625  11.847
74153ION    CL-42371   0.466   7.646  14.572
74154ION    CL-42372   5.162  19.986  12.467
74155ION    CL-42373  41.182  17.572  14.653
74156ION    CL-42374   5.291  32.230   2.175
74157ION    CL-42375  16.157   8.632   1.995
74158ION    CL-42376  13.589   6.321   2.242
74159ION    CL-42377  24.669  26.674   9.834
74160ION    CL-42378  21.664  10.065  11.071
74161ION    CL-42379  17.352  36.048  11.652
74162ION    CL-42380  24.400  33.856  10.986
74163ION    CL-42381  33.864   2.741   2.377
74164ION    CL-42382  32.123  12.598  13.941
74165ION    CL-42383  13.844  21.682   0.842
74166ION    CL-42384  43.114  39.491  10.618
74167ION    CL-42385   2.536   5.257   5.036
74168ION    CL-42386  19.037  40.040  14.368
74169ION    CL-42387  12.256  23.623  11.878
74170ION    CL-42388   1.819  39.963   3.202
74171ION    CL-42389  31.248  15.983  12.597
74172ION    CL-42390  14.331  32.877  14.976
74173ION    CL-42391  41.969  21.149  13.624
74174ION    CL-42392  18.202  27.334   0.318
74175ION    CL-42393  30.402  34.741   5.122
74176ION    CL-42394  36.893   8.111  11.522
74177ION    CL-42395   9.856  22.259  13.422
74178ION    CL-42396  14.928  22.232  14.881
74179ION    CL-42397  14.059   9.990   5.249
74180ION    CL-42398   8.396  23.184   3.886
74181ION    CL-42399  11.369  44.561  13.247
74182ION    CL-42400  15.898  21.649   0.890
74183ION    CL-42401  15.379   4.658   0.865
74184ION    CL-42402   0.975  30.296   0.500
74185ION    CL-42403  27.623  10.512   3.112
74186ION    CL-42404  28.143  37.073   4.528
74187ION    CL-42405   8.098  17.150   3.608
74188ION    CL-42406   5.729  10.623  14.932
74189ION    CL-42407  16.783  44.397  12.389
74190ION    CL-42408   3.755  40.992   1.321
74191ION    CL-42409  25.836  20.819   1.021
74192ION    CL-42410  17.998  13.581   4.123
74193ION    CL-42411  38.145  26.126  12.055
74194ION    CL-42412   2.955   2.717  12.489
74195ION    CL-42413  26.587  13.470  13.226
74196ION    CL-42414  25.816  42.112  14.882
74197ION    CL-42415  36.098  29.405   2.637
74198ION    CL-42416   2.309  12.714   0.280
74199ION    CL-42417  14.121  30.441   4.811
74200ION    CL-42418  38.724  16.083   1.883
74201ION    CL-42419  42.829  20.070   3.868
74202ION    CL-42420  38.129  40.104   1.746
74203ION    CL-42421  37.138  39.256  13.574
74204ION    CL-42422   8.662  30.226   0.749
74205ION    CL-42423  42.986  13.006  14.071
74206ION    CL-42424  13.827  19.216  12.528
74207ION    CL-42425  10.345   3.867  11.162
74208ION    CL-42426  20.720  19.700  11.770
74209ION    CL-42427   7.542  15.164   4.558
74210ION    CL-42428  18.437  41.072   0.118
74211ION    CL-42429  26.061  16.164  13.417
74212ION    CL-42430  39.136   1.432  11.340
74213ION    CL-42431  38.137   8.008   2.908
74214ION    CL-42432   0.879  15.299   2.884
74215ION    CL-42433   0.356  19.256   3.546
74216ION    CL-42434  15.858  31.950  12.023
74217ION    CL-42435   9.618  31.145   4.300
74218ION    CL-42436  33.323  31.556  13.995
74219ION    CL-42437  38.884  10.660  14.571
74220ION    CL-42438  24.085  41.537  11.693
74221ION    CL-42439  37.695   0.581   2.141
74222ION    CL-42440   5.664  13.083   3.809
74223ION    CL-42441  22.558  29.933   2.799
74224ION    CL-42442   7.275  43.953   3.974
74225ION    CL-42443  27.718  10.979  11.136
74226ION    CL-42444   4.767  34.040  14.289
74227ION    CL-42445  44.977  28.192  11.822
74228ION    CL-42446  35.166  32.570  13.612
74229ION    CL-42447  25.590  15.733   4.924
74230ION    CL-42448  37.645  26.813   9.926
74231ION    CL-42449  29.001  34.666   5.033
74232ION    CL-42450   9.691  27.325  13.555
74233ION    CL-42451  39.843  43.431  14.388
74234ION    CL-42452  27.010  13.348   4.111
74235ION    CL-42453  39.522  18.781   4.244
74236ION    CL-42454  43.967  40.946  11.394
74237ION    CL-42455  31.185   8.073  13.863
74238ION    CL-42456  23.682  32.238  11.355
74239ION    CL-42457  34.338  12.916  12.607
74240ION    CL-42458  40.625  20.168  11.075
74241ION    CL-42459  18.089  44.510   1.411
74242ION    CL-42460  32.662  37.743   4.972
74243ION    CL-42461  31.721  30.077  12.903
74244ION    CL-42462  37.571   1.489  12.960
74245ION    CL-42463   7.742  13.781   4.112
74246ION    CL-42464  10.984  17.718   1.665
74247ION    CL-42465  44.727  30.169  11.134
74248ION    CL-42466  41.217   7.834   2.927
74249ION    CL-42467  44.747  41.093   3.896
74250ION    CL-42468   1.873  38.836  11.608
74251ION    CL-42469  26.503  26.622   3.704
74252ION    CL-42470   0.833  20.668   3.620
74253ION    CL-42471  40.657  23.698   2.220
74254ION    CL-42472  34.899  34.845  11.631
74255ION    CL-42473  44.863  10.852   4.168
74256ION    CL-42474   9.371  12.189   1.347
74257ION    CL-42475   9.174  16.142  13.078
74258ION    CL-42476   5.254  27.832  12.373
74259ION    CL-42477  20.829   9.371  10.598
74260ION    CL-42478  30.166  27.046  11.629
74261ION    CL-42479   1.054  28.971   0.505
74262ION    CL-42480  17.351  41.826   2.930
74263ION    CL-42481  30.641  10.665   3.152
74264ION    CL-42482   1.884  23.133   3.323
74265ION    CL-42483  34.307  23.577  13.853
74266ION    CL-42484  43.614   7.726   5.362
74267ION    CL-42485  19.794  26.252  14.015
74268ION    CL-42486  39.248  24.202   0.274
74269ION    CL-42487   4.708  41.121  11.926
74270ION    CL-42488  24.902  30.878  11.693
74271ION    CL-42489  34.098  36.605   2.839
74272ION    CL-42490  42.648  30.468   0.395
74273ION    CL-42491   5.646  42.464  14.408
74274ION    CL-42492  19.464  28.016  11.040
74275ION    CL-42493  22.782  18.522  12.035
74276ION    CL-42494  33.655  12.986   3.667
74277ION    CL-42495   3.409  41.910  13.211
74278ION    CL-42496  19.749   6.229   0.690
74279ION    CL-42497  36.152  39.287   4.195
74280ION    CL-42498  22.028  21.697  11.319
74281ION    CL-42499  34.869  14.770   0.138
74282ION    CL-42500  42.128  31.721   2.526
74283ION    CL-42501  11.108   7.751  10.386
74284ION    CL-42502  11.709  20.084  10.679
74285ION    CL-42503  27.363  17.665  10.613
74286ION    CL-42504  27.241   9.986  11.931
74287ION    CL-42505  38.078  40.526   0.052
74288ION    CL-42506  40.812  30.661  10.636
74289ION    CL-42507   7.383  36.315  14.620
74290ION    CL-42508  16.902  35.356  13.631
74291ION    CL-42509  31.701  25.655   2.991
74292ION    CL-42510  41.293  24.408   4.609
74293ION    CL-42511  33.722   4.928   0.848
74294ION    CL-42512  14.381   1.884   2.772
74295ION    CL-42513  12.746  39.597   3.349
74296ION    CL-42514  37.050  18.834  14.869
74297ION    CL-42515  13.165  30.562  14.000
74298ION    CL-42516   1.185  40.686   2.692
74299ION    CL-42517  14.747  21.567  13.105
74300ION    CL-42518  22.413  19.484  14.379
74301ION    CL-42519  43.402   7.686   2.779
74302ION    CL-42520  20.775   0.307  14.522
74303ION    CL-42521  44.310  39.516  11.462
74304ION    CL-42522  12.130  27.439   4.572
74305ION    CL-42523   3.004  32.494  13.390
74306ION    CL-42524  14.331  17.199  14.041
74307ION    CL-42525   0.963   7.218  11.732
74308ION    CL-42526  25.715  42.361  11.224
74309ION    CL-42527  14.381  17.629   1.177
74310ION    CL-42528  43.726   8.752  13.523
74311ION    CL-42529   6.875  37.530   3.777
74312ION    CL-42530  31.506   2.863  10.777
74313ION    CL-42531   5.069  18.672   4.742
74314ION    CL-42532  13.547   2.435   2.680
74315ION    CL-42533  38.843  19.905   2.608
74316ION    CL-42534  38.510  23.642   4.536
74317ION    CL-42535  34.945   1.324   5.123
74318ION    CL-42536  21.947   1.924  11.047
74319ION    CL-42537   2.155  23.753  14.329
74320ION    CL-42538  41.276  13.463  12.735
74321ION    CL-42539  31.035   1.460   3.197
74322ION    CL-42540  38.562  43.728   3.266
74323ION    CL-42541  44.197  27.202   1.327
74324ION    CL-42542   7.958  15.722   1.821
74325ION    CL-42543  33.597   6.218   2.181
74326ION    CL-42544   0.766  29.697   2.229
74327ION    CL-42545  37.943   4.522  10.722
74328ION    CL-42546  11.796  36.806  13.580
74329ION    CL-42547  44.286  29.127   0.654
74330ION    CL-42548  34.336   9.683   1.424
74331ION    CL-42549   4.357  22.227   1.455
74332ION    CL-42550  30.476   6.487   4.309
74333ION    CL-42551   0.257   3.655  13.939
74334ION    CL-42552  13.022  17.122  13.145
74335ION    CL-42553   2.391  39.782  14.612
74336ION    CL-42554  34.564   7.965  13.096
74337ION    CL-42555  19.991  40.831   0.755
74338ION    CL-42556   6.872  23.897  12.072
74339ION    CL-42557   6.203  44.994  12.953
74340ION    CL-42558   2.786   0.928  11.822
74341ION    CL-42559  13.270  44.704  14.874
74342ION    CL-42560   3.668   2.900  14.595
74343ION    CL-42561  26.876  33.177  14.720
74344ION    CL-42562  37.526  40.268  11.661
74345ION    CL-42563  42.316  30.209   3.387
74346ION    CL-42564  18.168  32.339   3.831
74347ION    CL-42565   2.311  44.266  11.065
74348ION    CL-42566  25.844  18.578  11.229
74349ION    CL-42567  44.749  38.738   4.620
74350ION    CL-42568  29.588   1.391  10.703
74351ION    CL-42569  31.243  38.456  12.416
74352ION    CL-42570  37.285  43.793  13.358
74353ION    CL-42571   9.055  41.541  11.828
74354ION    CL-42572  32.119  12.879  14.904
74355ION    CL-42573  41.719   5.811  14.300
74356ION    CL-42574  37.541   6.351   2.877
74357ION    CL-42575  36.058  11.649   5.046
74358ION    CL-42576   7.458   7.917   3.247
74359ION    CL-42577  42.137  30.362  14.625
74360ION    CL-42578  14.335  33.933   2.885
74361ION    CL-42579  32.577  13.239  12.330
74362ION    CL-42580  24.659  32.537  10.492
74363ION    CL-42581  24.238  12.075  14.481
74364ION    CL-42582  12.583  44.846   3.210
74365ION    CL-42583  30.462  36.305  14.958
74366ION    CL-42584  44.004  38.461   1.646
74367ION    CL-42585  35.287  14.480  14.406
74368ION    CL-42586  40.169  12.488  13.463
74369ION    CL-42587  35.787  32.133  11.959
74370ION    CL-42588  38.364  33.070   2.076
74371ION    CL-42589  24.263  23.484   3.689
74372ION    CL-42590   0.786  34.009   1.287
74373ION    CL-42591  35.556   7.114  13.937
74374ION    CL-42592   9.500   2.266   1.414
74375ION    CL-42593   3.088  21.993   2.814
74376ION    CL-42594  30.626  24.617   3.865
74377ION    CL-42595  17.427  15.198   1.900
74378ION    CL-42596  33.432   3.472   0.895
74379ION    CL-42597  32.795  28.839   4.331
74380ION    CL-42598  18.573  26.398   3.221
74381ION    CL-42599  37.139   3.503  11.340
74382ION    CL-42600  29.214  30.649   5.039
74383ION    CL-42601  27.437   2.179   0.962
74384ION    CL-42602   5.053  35.349   1.171
74385ION    CL-42603  43.113  30.170   1.129
74386ION    CL-42604  12.537  28.829  10.264
74387ION    CL-42605  20.455  12.337  12.821
74388ION    CL-42606  31.377  17.512   2.345
74389ION    CL-42607  41.781  39.337   2.226
74390ION    CL-42608  12.102  21.933  11.062
74391ION    CL-42609  26.120   5.176   3.529
74392ION    CL-42610  27.038  40.399  13.394
74393ION    CL-42611  21.861  17.965   1.644
74394ION    CL-42612  14.462  24.046  13.076
74395ION    CL-42613  18.940  32.773   0.766
74396ION    CL-42614  23.040  32.961  12.556
74397ION    CL-42615  37.472  30.534  10.856
74398ION    CL-42616  42.092   5.842   1.323
74399ION    CL-42617   2.974  13.057  12.611
74400ION    CL-42618  42.854   9.495   0.060
74401ION    CL-42619  44.022  17.642  13.267
74402ION    CL-42620   0.911   4.723  13.936
74403ION    CL-42621  17.363  17.807   4.141
74404ION    CL-42622   8.869  21.022  14.038
74405ION    CL-42623  20.477  26.573   0.415
74406ION    CL-42624  11.145  30.962  12.980
74407ION    CL-42625  28.045   9.359  10.052
74408ION    CL-42626  24.621  40.752  11.382
74409ION    CL-42627   8.260  12.211   3.187
74410ION    CL-42628  27.908  10.254  14.254
74411ION    CL-42629  11.866   4.597  14.251
74412ION    CL-42630  38.772  35.421   1.836
74413ION    CL-42631  10.156  31.940   4.535
74414ION    CL-42632  43.212  12.246   4.440
74415ION    CL-42633  15.711   0.841   3.845
74416ION    CL-42634  35.979  27.183  13.028
74417ION    CL-42635  38.158  36.070   4.671
74418ION    CL-42636  31.646  31.965  11.242
74419ION    CL-42637  33.075   8.291   0.234
74420ION    CL-42638  42.672   6.008  14.069
74421ION    CL-42639  18.388   2.121   1.028
74422ION    CL-42640  39.477  22.536   1.529
74423ION    CL-42641  12.096  41.555   4.289
74424ION    CL-42642   7.860  23.219  12.554
74425ION    CL-42643  34.193   3.307  12.142
74426ION    CL-42644  35.818  38.797  11.286
74427ION    CL-42645  24.659  14.875  13.313
74428ION    CL-42646  23.850  39.333  11.021
74429ION    CL-42647  31.356   8.862  13.261
74430ION    CL-42648  34.118   9.134  12.976
74431ION    CL-42649  22.436  36.482   0.385
74432ION    CL-42650  40.924   5.196   4.309
74433ION    CL-42651  25.806  35.125  11.270
74434ION    CL-42652   0.659  30.630  11.678
74435ION    CL-42653  34.566   9.308  14.424
74436ION    CL-42654  21.910  26.196  11.032
74437ION    CL-42655  35.269  31.336   1.302
74438ION    CL-42656  26.467  36.544   4.125
74439ION    CL-42657  26.238  41.327  12.877
74440ION    CL-42658  34.194  10.507  13.188
74441ION    CL-42659  36.252   0.394   4.971
74442ION    CL-42660  44.917   5.103   0.753
74443ION    CL-42661  30.884  29.106  13.312
74444ION    CL-42662  34.342  14.967  11.090
74445ION    CL-42663  14.081  35.589  14.543
74446ION    CL-42664  30.926  21.706   0.510
74447ION    CL-42665  13.869   6.955  10.343
74448ION    CL-42666  25.069  10.751   4.071
74449ION    CL-42667   6.962   2.440   0.829
74450ION    CL-42668   6.428  44.962  10.677
74451ION    CL-42669   3.171  28.698   0.872
74452ION    CL-42670  14.403  22.288  13.556
74453ION    CL-42671  24.140  29.774   2.506
74454ION    CL-42672  18.072  28.107  13.044
74455ION    CL-42673  19.041  40.369  11.235
74456ION    CL-42674  24.606   9.127   0.007
74457ION    CL-42675  11.864   1.417   0.251
74458ION    CL-42676  19.719   1.904   0.867
74459ION    CL-42677  20.110  16.793   2.834
74460ION    CL-42678  35.725  23.140   1.784
74461ION    CL-42679  11.415  36.638   4.386
74462ION    CL-42680   5.201   0.873  12.874
74463ION    CL-42681  32.087  43.666   2.121
74464ION    CL-42682  11.528   3.171  14.004
74465ION    CL-42683  32.674  35.001   0.698
74466ION    CL-42684   7.166   2.734  13.759
74467ION    CL-42685  33.809   5.447  12.508
74468ION    CL-42686  31.276  38.277  11.024
74469ION    CL-42687   7.578   1.581  13.047
74470ION    CL-42688  17.301  25.627   1.977
74471ION    CL-42689  32.141  44.781   3.468
74472ION    CL-42690  13.637  11.148   1.665
74473ION    CL-42691  32.547  44.374   2.484
74474ION    CL-42692  40.627  18.393   4.943
74475ION    CL-42693  18.404  33.614   3.683
74476ION    CL-42694  20.968  26.483   3.263
74477ION    CL-42695  17.082  29.912   2.922
74478ION    CL-42696  19.477  40.550   3.269
74479ION    CL-42697   5.107   2.664  14.503
74480ION    CL-42698   2.050  17.117  12.496
74481ION    CL-42699  28.266  35.270   2.260
74482ION    CL-42700  43.369  25.187  14.481
74483ION    CL-42701  37.829   6.885   3.673
74484ION    CL-42702  35.064   4.684   3.381
74485ION    CL-42703  37.751  15.235   4.848
74486ION    CL-42704  34.386  10.482  11.567
74487ION    CL-42705   7.762   5.079   2.021
74488ION    CL-42706  43.687  24.154  12.259
74489ION    CL-42707   4.336  29.906   2.728
74490ION    CL-42708  27.149  10.867   4.650
74491ION    CL-42709  24.466  39.596  14.827
74492ION    CL-42710  26.130  43.972   1.379
74493ION    CL-42711  17.679  38.349   4.171
74494ION    CL-42712   9.402   5.085  10.787
74495ION    CL-42713  11.078  30.497  14.647
74496ION    CL-42714  42.250  10.471   2.877
74497ION    CL-42715  32.730  11.801  10.048
74498ION    CL-42716  15.625  20.880   1.468
74499ION    CL-42717  19.708   8.431  12.065
74500ION    CL-42718   1.715  41.485  11.303
74501ION    CL-42719  22.695  35.465  13.083
74502ION    CL-42720   3.027  32.834   5.027
74503ION    CL-42721  26.416  18.157  12.512
74504ION    CL-42722   3.952   1.914  11.891
74505ION    CL-42723  13.250   5.366   0.175
74506ION    CL-42724  19.136  15.201   3.830
74507ION    CL-42725   2.500  34.636  13.079
74508ION    CL-42726   7.787   0.034   1.751
74509ION    CL-42727  34.163  30.020   0.287
74510ION    CL-42728  30.742  20.534   2.371
74511ION    CL-42729  19.792  42.136   4.128
74512ION    CL-42730  30.307  31.823  12.248
74513ION    CL-42731  31.806   5.967  11.162
74514ION    CL-42732  13.997  18.497   3.712
74515ION    CL-42733  17.132   2.732   4.112
74516ION    CL-42734  40.938  12.697  14.067
74517ION    CL-42735  17.314  22.658   2.655
74518ION    CL-42736  22.132   0.929  13.032
74519ION    CL-42737  42.574  38.923  14.184
74520ION    CL-42738  18.154  26.234  11.501
74521ION    CL-42739  16.041  32.535   3.675
74522ION    CL-42740  24.212   8.910   4.139
74523ION    CL-42741  11.416  21.181   4.408
74524ION    CL-42742  43.461   9.557  14.267
74525ION    CL-42743  42.796  10.355  12.384
74526ION    CL-42744  29.076  34.560   2.327
74527ION    CL-42745   4.301   9.494   1.130
74528ION    CL-42746   5.124  30.875  13.769
74529ION    CL-42747  29.404  20.472   2.560
74530ION    CL-42748  21.618  19.083   5.081
74531ION    CL-42749  44.913  37.348  11.640
74532ION    CL-42750  14.602  27.932  12.026
74533ION    CL-42751  44.195  12.843   0.217
74534ION    CL-42752  33.081  13.553   2.318
74535ION    CL-42753   6.293   8.069   2.596
74536ION    CL-42754  31.976  12.754  12.964
74537ION    CL-42755  26.194  43.192   2.057
74538ION    CL-42756  33.771  15.844  12.670
74539ION    CL-42757  13.847  22.281  14.965
74540ION    CL-42758   2.632  42.847   0.893
74541ION    CL-42759   1.688  42.443   3.227
74542ION    CL-42760  13.255  39.851  10.761
74543ION    CL-42761   8.515  34.318  13.608
74544ION    CL-42762  14.491  14.102  11.521
74545ION    CL-42763   2.259   3.524  10.715
74546ION    CL-42764  23.394  25.164   9.424
74547ION    CL-42765  32.016   6.672   2.031
74548ION    CL-42766  38.036  19.153   4.801
74549ION    CL-42767  31.705  14.384   4.869
74550ION    CL-42768  25.227  38.857   3.427
74551ION    CL-42769   7.745  42.459  11.563
74552ION    CL-42770  14.342  40.529   1.167
74553ION    CL-42771  19.163  41.268   9.886
74554ION    CL-42772  37.574   4.547   1.502
74555ION    CL-42773  36.571  26.285  12.756
74556ION    CL-42774  25.286  23.302   1.884
74557ION    CL-42775  14.153  12.340   3.266
74558ION    CL-42776  14.654  41.853  13.580
74559ION    CL-42777  31.571   0.308   2.839
74560ION    CL-42778  15.526  32.331   0.535
74561ION    CL-42779  28.601  21.820   3.635
74562ION    CL-42780  23.882   9.792  13.830
74563ION    CL-42781   8.564  34.124   0.831
74564ION    CL-42782  32.673  14.711   4.079
74565ION    CL-42783  25.816   4.814   0.230
74566ION    CL-42784  25.674  25.129   4.814
74567ION    CL-42785  20.669  24.062   3.257
74568ION    CL-42786   7.857  22.276  12.097
74569ION    CL-42787  26.684  12.476   2.799
74570ION    CL-42788  10.398  32.585   0.844
74571ION    CL-42789  12.676  19.918  10.383
74572ION    CL-42790  26.691  22.464   0.515
74573ION    CL-42791  19.117  41.288   0.594
74574ION    CL-42792  34.226  27.725  14.333
74575ION    CL-42793   0.524  43.523  11.127
74576ION    CL-42794  38.169  41.095   1.873
74577ION    CL-42795  39.273  22.334   2.937
74578ION    CL-42796  15.627  15.055   2.824
74579ION    CL-42797  14.265   3.304   4.123
74580ION    CL-42798  33.406   7.414   4.122
74581ION    CL-42799  32.426   7.103   5.489
74582ION    CL-42800  28.448   0.913  13.427
74583ION    CL-42801   1.718  11.718   2.682
74584ION    CL-42802   8.484  16.502  11.258
74585ION    CL-42803   2.071   9.042  13.872
74586ION    CL-42804  29.264   4.822  11.962
74587ION    CL-42805  24.193   3.286   0.738
74588ION    CL-42806  35.533  34.471   1.155
74589ION    CL-42807  12.268  20.369   0.738
74590ION    CL-42808  17.274  27.842  14.833
74591ION    CL-42809  39.028  24.912   1.074
74592ION    CL-42810  19.383  35.080   5.045
74593ION    CL-42811  14.592  29.503  12.937
74594ION    CL-42812   7.927  28.546   0.405
74595ION    CL-42813  16.916  11.398  14.366
74596ION    CL-42814   5.950  40.137   0.416
74597ION    CL-42815  10.530  17.312  14.926
74598ION    CL-42816  11.936  44.288  11.836
74599ION    CL-42817  40.709  13.816  10.889
74600ION    CL-42818  37.904  41.109   2.837
74601ION    CL-42819  25.314   3.736   1.705
74602ION    CL-42820  26.132  16.492   3.670
74603ION    CL-42821  27.691   8.088   0.509
74604ION    CL-42822  24.959   5.760   1.679
74605ION    CL-42823  43.997  23.992  14.779
74606ION    CL-42824  10.420  28.911  12.974
74607ION    CL-42825  35.800  39.765   2.353
74608ION    CL-42826  35.807  20.779   1.767
74609ION    CL-42827  23.768  19.124   1.720
74610ION    CL-42828  44.359  14.028  12.557
74611ION    CL-42829  17.590   1.528  11.120
74612ION    CL-42830   8.640   3.215  14.652
74613ION    CL-42831  10.104  17.378   2.831
74614ION    CL-42832  37.586   9.236  10.256
74615ION    CL-42833  43.916  33.975   0.784
74616ION    CL-42834  40.570  18.202   0.531
74617ION    CL-42835  37.267  15.648   2.105
74618ION    CL-42836  12.459  37.694  11.570
74619ION    CL-42837  21.722  32.652  12.748
74620ION    CL-42838  17.639  32.449   1.781
74621ION    CL-42839  31.041   0.519  13.817
74622ION    CL-42840  39.632   6.412   4.181
74623ION    CL-42841   6.776   5.301   3.830
74624ION    CL-42842  28.640   7.164   0.604
74625ION    CL-42843   7.765   5.685   1.013
74626ION    CL-42844   0.465  43.190  12.764
74627ION    CL-42845  19.565  28.636   2.283
74628ION    CL-42846  15.368  42.228  11.643
74629ION    CL-42847   4.436  20.631   2.532
74630ION    CL-42848  31.891  20.316   1.223
74631ION    CL-42849  21.006  10.875   1.247
74632ION    CL-42850   2.382   6.583   4.420
74633ION    CL-42851  11.178  24.963   0.062
74634ION    CL-42852  42.759   5.446  12.020
74635ION    CL-42853  16.170  20.914  12.925
74636ION    CL-42854  30.531  16.854   9.883
74637ION    CL-42855  22.521  42.722   2.207
74638ION    CL-42856  35.129  17.258  11.144
74639ION    CL-42857  10.830  33.033  14.083
74640ION    CL-42858   0.487  43.566   1.884
74641ION    CL-42859  26.700   2.441   3.473
74642ION    CL-42860   2.140  40.160  13.133
74643ION    CL-42861   2.875   6.708   2.037
74644ION    CL-42862  28.532  31.634  13.729
74645ION    CL-42863  25.690   4.949  11.844
74646ION    CL-42864  12.774  14.950   1.097
74647ION    CL-42865  21.909  21.171   1.469
74648ION    CL-42866  10.823  40.296  11.193
74649ION    CL-42867  34.702   0.516  14.286
74650ION    CL-42868   3.229   5.270   4.283
74651ION    CL-42869  30.106  23.730  12.596
74652ION    CL-42870  26.217  26.281   4.845
74653ION    CL-42871  33.621  13.062   1.352
74654ION    CL-42872   5.634  41.647   3.681
74655ION    CL-42873   6.194  19.536   3.707
74656ION    CL-42874   1.998  28.184  13.478
74657ION    CL-42875  22.692  12.554  12.426
74658ION    CL-42876  14.206   8.354   1.433
74659ION    CL-42877  15.357  17.178  13.889
74660ION    CL-42878   7.888  18.164   3.251
74661ION    CL-42879  35.445   1.060   3.266
74662ION    CL-42880  20.601  33.977  13.228
74663ION    CL-42881  33.094  33.163   3.300
74664ION    CL-42882  37.661  21.660  13.472
74665ION    CL-42883  25.980   2.482   4.024
74666ION    CL-42884  37.926  21.311  11.549
74667ION    CL-42885  16.393  40.633  11.883
74668ION    CL-42886  44.908  31.037   3.538
74669ION    CL-42887  37.867   5.637   0.421
74670ION    CL-42888  19.962   3.996  12.430
74671ION    CL-42889  37.767  36.889   1.381
74672ION    CL-42890   7.179  30.913   1.474
74673ION    CL-42891  36.994  15.487  14.043
74674ION    CL-42892   6.387  38.993   0.429
74675ION    CL-42893   4.284  22.913  12.947
74676ION    CL-42894  28.520  30.213  12.173
74677ION    CL-42895  14.031   9.680   0.671
74678ION    CL-42896  18.606  26.732   4.163
74679ION    CL-42897  17.333  18.659   3.596
74680ION    CL-42898  38.795  42.922   1.855
74681ION    CL-42899  32.070  36.167   4.650
74682ION    CL-42900  43.684  11.176   2.842
74683ION    CL-42901  28.939   3.341   4.344
74684ION    CL-42902  17.952  37.932  13.072
74685ION    CL-42903  20.938  40.458   0.737
74686ION    CL-42904  20.614  11.619   4.894
74687ION    CL-42905  26.396   4.128   0.210
74688ION    CL-42906  21.908  44.353   9.815
74689ION    CL-42907  28.451   2.891  12.013
74690ION    CL-42908  12.217  12.381  10.853
74691ION    CL-42909  13.860  26.256   0.407
74692ION    CL-42910   1.173  44.817   1.703
74693ION    CL-42911  34.692  43.496   2.798
74694ION    CL-42912  39.360  27.663   4.356
74695ION    CL-42913  37.454  22.739  11.772
74696ION    CL-42914  42.845  29.493   2.931
74697ION    CL-42915  23.136  20.546   3.345
74698ION    CL-42916  38.612  17.381   0.693
74699ION    CL-42917  25.505  39.595   4.104
74700ION    CL-42918  30.380  27.965   5.054
74701ION    CL-42919  41.009   7.481  14.437
74702ION    CL-42920  11.325  34.828   0.367
74703ION    CL-42921  31.497  12.285  10.966
74704ION    CL-42922   4.015  24.446  13.521
74705ION    CL-42923   2.557  10.498  12.601
74706ION    CL-42924  29.589  15.438   1.618
74707ION    CL-42925   5.678  37.393   1.816
74708ION    CL-42926  42.933  11.315   4.676
74709ION    CL-42927  32.739  23.721  11.389
74710ION    CL-42928  11.370  31.852  12.891
74711ION    CL-42929  31.911   7.006   0.646
74712ION    CL-42930  28.670  36.097  12.974
74713ION    CL-42931  17.843  25.449   4.990
74714ION    CL-42932  25.835  20.211  11.555
74715ION    CL-42933  44.932  36.636   2.607
74716ION    CL-42934  41.279  43.684   1.315
74717ION    CL-42935  36.145   2.543   3.517
74718ION    CL-42936  28.456  19.452   3.232
74719ION    CL-42937  38.315  36.190   1.565
74720ION    CL-42938  43.977  18.534   1.380
74721ION    CL-42939  17.558  12.314   4.058
74722ION    CL-42940  12.142  19.470   0.291
74723ION    CL-42941  32.602  21.370  10.630
74724ION    CL-42942  28.083  25.520   0.832
74725ION    CL-42943  18.998   4.666   2.339
74726ION    CL-42944  30.436  19.457   0.219
74727ION    CL-42945  32.752  16.716  12.032
74728ION    CL-42946  39.184   1.562   3.236
74729ION    CL-42947  33.482  22.067  11.536
74730ION    CL-42948  21.720  39.786   4.202
74731ION    CL-42949  16.227  28.532   3.650
74732ION    CL-42950  40.323  12.603  11.623
74733ION    CL-42951   9.801  16.915  13.181
74734ION    CL-42952  31.025  34.780   9.939
74735ION    CL-42953  32.611  18.161   1.194
74736ION    CL-42954  41.205  30.254   2.482
74737ION    CL-42955  22.206  31.128   1.507
74738ION    CL-42956   1.078  43.044   1.042
74739ION    CL-42957   2.587  32.993   4.034
74740ION    CL-42958  26.645  12.729  10.698
74741ION    CL-42959  17.852  31.623  13.870
74742ION    CL-42960  32.825  31.497  10.372
74743ION    CL-42961  40.163  11.617  14.694
74744ION    CL-42962   8.167  44.793  12.629
74745ION    CL-42963  21.272  12.639   0.850
74746ION    CL-42964  40.263   5.683  12.450
74747ION    CL-42965  18.378  34.378   2.108
74748ION    CL-42966  40.465  26.222   2.312
74749ION    CL-42967  25.566  32.258  14.451
74750ION    CL-42968  13.866  19.789   3.085
74751ION    CL-42969   7.180   6.404   0.638
74752ION    CL-42970  12.397  33.436   0.917
74753ION    CL-42971  33.271   3.256  11.669
74754ION    CL-42972  36.608  44.256  13.960
74755ION    CL-42973   5.107   2.024  13.734
74756ION    CL-42974   1.458  21.044  14.210
74757ION    CL-42975  38.930   5.142  11.338
74758ION    CL-42976  23.028  28.431  13.035
74759ION    CL-42977  16.899  22.712   9.894
74760ION    CL-42978  34.079  42.187   1.563
74761ION    CL-42979  23.999  14.888  14.064
74762ION    CL-42980  23.438  39.052   3.430
74763ION    CL-42981  12.889   4.709  10.347
74764ION    CL-42982  18.632  22.033   0.336
74765ION    CL-42983  39.233  10.789   3.206
74766ION    CL-42984   6.986  35.931   0.534
74767ION    CL-42985  10.459  15.376   4.331
74768ION    CL-42986  18.772  30.460   1.962
74769ION    CL-42987   3.933   7.737  10.972
74770ION    CL-42988   4.318  29.504   0.693
74771ION    CL-42989  36.295  37.365   2.538
74772ION    CL-42990  37.393   4.205  12.750
74773ION    CL-42991  16.762   9.358  14.480
74774ION    CL-42992  11.529   0.067  11.745
74775ION    CL-42993   2.157  12.992  11.158
74776ION    CL-42994   1.587  20.118   1.698
74777ION    CL-42995  29.097  23.980  13.458
74778ION    CL-42996   4.183  20.017  11.181
74779ION    CL-42997  44.106  25.699  13.916
74780ION    CL-42998   6.124  35.660   2.929
74781ION    CL-42999  44.651  40.734   1.334
74782ION    CL-43000  34.563  39.336  14.606
74783ION    CL-43001   8.826  29.062  14.993
74784ION    CL-43002  24.715  22.633   2.113
74785ION    CL-43003  22.386   8.410   0.818
74786ION    CL-43004   7.410   1.786  11.608
74787ION    CL-43005   2.689   1.191   4.844
74788ION    CL-43006  38.740   9.998  13.443
74789ION    CL-43007  36.872  10.714   1.992
74790ION    CL-43008  11.732  15.977  13.994
74791ION    CL-43009  26.320  31.683  10.885
74792ION    CL-43010  32.544  38.174  14.994
74793ION    CL-43011  12.408   5.455  11.920
74794ION    CL-43012  41.703  40.588   3.942
74795ION    CL-43013  26.334  18.120   0.850
74796ION    CL-43014  26.127  31.155   3.291
74797ION    CL-43015  31.814  16.746   4.157
74798ION    CL-43016  27.041  10.255   4.769
74799ION    CL-43017   3.992  23.180   3.132
74800ION    CL-43018  22.600   9.546  14.648
74801ION    CL-43019   2.240  27.889  11.996
74802ION    CL-43020   8.645  17.976   1.074
74803ION    CL-43021   2.628  40.607   1.388
74804ION    CL-43022  33.401  42.776  10.665
74805ION    CL-43023   5.685  19.623  11.622
74806ION    CL-43024   6.004  29.379   2.549
74807ION    CL-43025  27.283  27.011  10.763
74808ION    CL-43026  40.952   9.708  13.136
74809ION    CL-43027   0.090   1.818  14.175
74810ION    CL-43028  37.402  36.458  13.376
74811ION    CL-43029  37.752   1.479   1.926
74812ION    CL-43030  40.041  42.065  13.973
74813ION    CL-43031  35.947  38.639  13.596
74814ION    CL-43032  16.358  12.571  11.415
74815ION    CL-43033  20.103  17.162   1.885
74816ION    CL-43034  18.004  31.051   0.435
74817ION    CL-43035   8.900  20.049  12.363
74818ION    CL-43036  35.910   9.903  10.705
74819ION    CL-43037  20.776   5.487   4.851
74820ION    CL-43038  18.166   0.163  12.761
74821ION    CL-43039  19.601  23.497  13.487
74822ION    CL-43040  20.694  33.360  12.446
74823ION    CL-43041  16.200   3.934   2.759
74824ION    CL-43042  10.897  18.241  14.871
74825ION    CL-43043  44.754  21.301   2.073
74826ION    CL-43044  24.831   8.854  12.653
74827ION    CL-43045  34.605  42.434  14.316
74828ION    CL-43046  21.437  28.027  12.042
74829ION    CL-43047  31.624   1.727  13.647
74830ION    CL-43048  30.243  27.511  14.946
74831ION    CL-43049  33.679   3.720  10.880
74832ION    CL-43050   3.682  40.413   0.071
74833ION    CL-43051  23.540  44.227  12.609
74834ION    CL-43052  12.155   9.331   4.001
74835ION    CL-43053  35.808  18.023  12.436
74836ION    CL-43054  27.074  18.483  11.210
74837ION    CL-43055  35.162  10.194  12.136
74838ION    CL-43056  14.797   9.634   2.807
74839ION    CL-43057   5.851  37.574   0.428
74840ION    CL-43058  42.755  34.565  14.601
74841ION    CL-43059  26.200  18.710   2.413
74842ION    CL-43060  22.627   8.744  11.610
74843ION    CL-43061  11.446  11.654  12.428
74844ION    CL-43062  12.955  24.673   4.545
74845ION    CL-43063  28.301  20.990   0.008
74846ION    CL-43064  28.686  19.465  13.568
74847ION    CL-43065   6.914  14.775   2.665
74848ION    CL-43066  22.739  21.456   3.228
74849ION    CL-43067  22.051  24.809   2.300
74850ION    CL-43068   9.986   3.063   0.614
74851ION    CL-43069  27.301  42.494   0.513
74852ION    CL-43070  26.393  23.664   1.354
74853ION    CL-43071  35.799  37.394  11.229
74854ION    CL-43072  42.225   4.174  13.785
74855ION    CL-43073  16.989  28.094   2.745
74856ION    CL-43074  32.591  13.632   0.951
74857ION    CL-43075  35.069  19.739   0.810
74858ION    CL-43076  29.378  26.338   3.279
74859ION    CL-43077  43.294  43.211  13.419
74860ION    CL-43078  41.729  28.979   3.241
74861ION    CL-43079  15.384  28.217  11.472
74862ION    CL-43080  29.692   6.868   1.805
74863ION    CL-43081  26.240  12.144   1.413
74864ION    CL-43082  37.608  20.605   3.301
74865ION    CL-43083  14.431  26.730  11.002
74866ION    CL-43084  26.006  38.405   1.722
74867ION    CL-43085  16.779  15.461   3.698
74868ION    CL-43086  40.510  17.229  13.751
74869ION    CL-43087  20.914  14.708   3.779
74870ION    CL-43088   4.241  31.039  12.672
74871ION    CL-43089  14.440  31.135   4.432
74872ION    CL-43090  37.898  27.568  10.531
74873ION    CL-43091  35.805  23.634  13.849
74874ION    CL-43092  36.183  36.497  10.841
74875ION    CL-43093   4.129  29.060  12.377
74876ION    CL-43094   4.147  26.758  13.203
74877ION    CL-43095  29.369  37.416  12.396
74878ION    CL-43096  18.696  11.183   1.453
74879ION    CL-43097  18.188  19.105   2.791
74880ION    CL-43098  26.788  36.635   0.340
74881ION    CL-43099  17.138  42.653   0.396
74882ION    CL-43100  39.866  44.947   0.803
74883ION    CL-43101  24.351  37.813  12.136
74884ION    CL-43102  27.323  12.889   1.668
74885ION    CL-43103  16.492  26.569  14.523
74886ION    CL-43104  44.306  24.784   3.178
74887ION    CL-43105  42.314  22.675   2.731
74888ION    CL-43106  33.966  35.382   2.485
74889ION    CL-43107  23.897  33.683   2.312
74890ION    CL-43108   2.073  19.032   3.190
74891ION    CL-43109  32.952  44.609  14.917
74892ION    CL-43110  19.401   1.533  10.676
74893ION    CL-43111   1.547   7.796  10.747
74894ION    CL-43112  42.693   6.276   0.091
74895ION    CL-43113  24.488  43.262  10.706
74896ION    CL-43114  37.803  15.607  13.035
74897ION    CL-43115  37.253   5.438   2.047
74898ION    CL-43116  11.680   7.450  12.138
74899ION    CL-43117  18.715  23.695   1.348
74900ION    CL-43118  36.664  44.707  13.069
74901ION    CL-43119  13.136  34.655   4.820
74902ION    CL-43120  43.920  20.565   2.807
74903ION    CL-43121  29.960  39.470  11.831
74904ION    CL-43122   0.942  33.801  14.618
74905ION    CL-43123   9.491  31.918  14.201
74906ION    CL-43124  17.944  18.509  14.486
74907ION    CL-43125   9.655   3.674  14.894
74908ION    CL-43126  44.978   6.545   1.957
74909ION    CL-43127  13.957  41.351  10.619
74910ION    CL-43128  19.153  13.088   2.890
74911ION    CL-43129   3.375  26.153   2.573
74912ION    CL-43130  29.364   0.030   0.716
74913ION    CL-43131  21.270  35.043   1.820
74914ION    CL-43132  39.366   4.423   4.610
74915ION    CL-43133  26.454  24.472  14.290
74916ION    CL-43134  15.501  13.650  14.880
74917ION    CL-43135  39.064  33.799  13.300
74918ION    CL-43136  11.710   2.241   0.796
74919ION    CL-43137   9.616  28.809   0.248
74920ION    CL-43138  18.862  19.807   3.213
74921ION    CL-43139  40.933  37.796  11.545
74922ION    CL-43140  36.652   6.444   2.904
74923ION    CL-43141   9.819  28.063   2.669
74924ION    CL-43142  26.817   2.633   4.058
74925ION    CL-43143  10.722  43.120   0.823
74926ION    CL-43144  35.216   7.456   1.990
74927ION    CL-43145   0.328  26.090   4.780
74928ION    CL-43146  18.269  44.511  12.230
74929ION    CL-43147   5.338   7.987   4.075
74930ION    CL-43148  43.836  17.611   4.555
74931ION    CL-43149   2.273  10.563   3.752
74932ION    CL-43150   6.847   0.188  13.784
74933ION    CL-43151  34.992  27.415  12.825
74934ION    CL-43152  31.931   1.636   3.606
74935ION    CL-43153  33.317   3.220   9.727
74936ION    CL-43154  10.235   8.226  10.495
74937ION    CL-43155  35.287  40.806  12.402
74938ION    CL-43156  30.040  37.143   0.430
74939ION    CL-43157  13.951  15.819  10.299
74940ION    CL-43158  34.231   4.730  11.905
74941ION    CL-43159  24.573  11.670   2.882
74942ION    CL-43160   9.878  34.881   1.976
74943ION    CL-43161  24.939   6.491   2.195
74944ION    CL-43162  10.431  43.560   5.045
74945ION    CL-43163  15.490   4.595   3.081
74946ION    CL-43164  26.295   5.690  12.134
74947ION    CL-43165  43.041  43.916   3.325
74948ION    CL-43166  27.927   0.219  11.182
74949ION    CL-43167  36.027  42.475  12.478
74950ION    CL-43168  14.241  20.487   1.889
74951ION    CL-43169  28.920  22.664  14.068
74952ION    CL-43170  20.121  26.671   4.366
74953ION    CL-43171   9.742  37.764   4.488
74954ION    CL-43172  13.308   1.282  11.355
74955ION    CL-43173  17.004  32.169  13.869
74956ION    CL-43174  17.455   5.311  14.146
74957ION    CL-43175   0.791   2.011   2.283
74958ION    CL-43176  32.711   6.722   4.317
74959ION    CL-43177  14.596   5.691   0.250
74960ION    CL-43178  21.081  35.828   3.753
74961ION    CL-43179   0.877   0.766   0.544
74962ION    CL-43180  37.965  43.760  12.066
74963ION    CL-43181  34.505  38.324   0.696
74964ION    CL-43182  29.364   2.312   1.323
74965ION    CL-43183  20.993  12.958  13.823
74966ION    CL-43184  26.860  16.246  10.398
74967ION    CL-43185  32.415   0.745  11.149
74968ION    CL-43186  41.601  42.312  11.252
74969ION    CL-43187  13.425  25.284   2.428
74970ION    CL-43188  39.869   5.814  13.369
74971ION    CL-43189  44.508  42.615  10.428
74972ION    CL-43190  42.079   7.370   2.578
74973ION    CL-43191  27.462  42.319   3.143
74974ION    CL-43192   7.344  26.037  11.573
74975ION    CL-43193  44.087  42.064  12.580
74976ION    CL-43194  10.572  25.222   5.163
74977ION    CL-43195   2.912  44.331   0.837
74978ION    CL-43196  15.765  13.331  11.147
74979ION    CL-43197  31.013  22.533   2.685
74980ION    CL-43198   7.690  37.173  14.562
74981ION    CL-43199  19.336  14.765  14.559
74982ION    CL-43200  11.406  16.076   3.667
74983ION    CL-43201   5.826  25.489   0.613
74984ION    CL-43202  42.071  38.996   9.980
74985ION    CL-43203  39.956  34.791   0.574
74986ION    CL-43204  41.031   4.663  14.840
74987ION    CL-43205   9.595  30.230   4.295
74988ION    CL-43206  42.389  21.268   0.821
74989ION    CL-43207  43.057   6.452   1.809
74990ION    CL-43208  14.314  25.234  11.608
74991ION    CL-43209  41.251   1.041   1.004
74992ION    CL-43210  30.211   1.849   1.588
74993ION    CL-43211  41.120  28.924   2.079
74994ION    CL-43212  22.976   0.724  11.844
74995ION    CL-43213  44.854  29.230  13.786
74996ION    CL-43214  37.246  35.470  13.396
74997ION    CL-43215  30.128  26.176   4.656
74998ION    CL-43216  22.710  21.176   0.691
74999ION    CL-43217  36.019  18.381  11.455
75000ION    CL-43218  15.537   5.769  10.715
75001ION    CL-43219  41.002  36.351  14.398
75002ION    CL-43220   3.631  10.457   0.381
75003ION    CL-43221  26.522  11.899   4.117
75004ION    CL-43222   5.340   6.456  11.096
75005ION    CL-43223  24.110  33.135   0.570
75006ION    CL-43224   2.549  10.878   0.757
75007ION    CL-43225  21.039  37.036  13.079
75008ION    CL-43226   7.759  24.431  12.041
75009ION    CL-43227  17.539  44.337  13.725
75010ION    CL-43228  38.148  31.057   2.807
75011ION    CL-43229  32.432  43.872   0.350
75012ION    CL-43230  34.995  11.834   4.125
75013ION    CL-43231  17.166  17.015   0.443
75014ION    CL-43232  42.417  38.159  10.033
75015ION    CL-43233  28.385   4.370  11.809
75016ION    CL-43234  41.621  11.285   0.840
75017ION    CL-43235  37.608  33.611   0.408
75018ION    CL-43236  12.384   3.978  13.331
75019ION    CL-43237  27.554   0.245   4.970
75020ION    CL-43238   9.181  11.022  14.525
75021ION    CL-43239  21.843  44.160   4.417
75022ION    CL-43240  23.448  40.901  14.432
75023ION    CL-43241  29.912   7.612  11.556
75024ION    CL-43242  39.271  41.061  12.218
75025ION    CL-43243   1.725  18.530   2.379
75026ION    CL-43244   0.961  34.751  10.493
75027ION    CL-43245  41.765  17.956  10.865
75028ION    CL-43246   5.696   4.444  10.182
75029ION    CL-43247   3.107   7.406  11.127
75030ION    CL-43248  24.577   7.931   4.188
75031ION    CL-43249  23.116   7.183   1.260
75032ION    CL-43250   9.296   5.726  11.446
75033ION    CL-43251  23.708  30.789   0.217
75034ION    CL-43252  13.042  15.601  12.880
75035ION    CL-43253   4.155  36.085  13.897
75036ION    CL-43254  16.155   4.182  13.387
75037ION    CL-43255   0.385  10.663   1.953
75038ION    CL-43256  27.224  28.089  14.472
75039ION    CL-43257  33.355  25.769  13.018
75040ION    CL-43258  25.483  43.774   3.417
75041ION    CL-43259  17.171   4.232   4.882
75042ION    CL-43260  23.080  10.142  13.314
75043ION    CL-43261  41.835  30.655   1.318
75044ION    CL-43262  40.263  25.401   1.779
75045ION    CL-43263  14.765  38.852  11.759
75046ION    CL-43264   5.697  44.389  13.786
75047ION    CL-43265  28.158   7.315  14.423
75048ION    CL-43266  24.529  11.698   1.114
75049ION    CL-43267  42.328  43.901   2.500
75050ION    CL-43268   6.667  36.081   4.360
75051ION    CL-43269   2.827  12.655  13.741
75052ION    CL-43270  14.175  37.961  14.335
75053ION    CL-43271  16.588   2.384   2.367
75054ION    CL-43272  32.286  15.459   1.582
75055ION    CL-43273  32.858   6.678  11.581
75056ION    CL-43274   4.775  25.170  13.406
75057ION    CL-43275  28.436  38.487  11.270
75058ION    CL-43276   6.920  44.960   2.911
75059ION    CL-43277   4.815  40.099  10.885
75060ION    CL-43278   9.881  26.608  14.020
75061ION    CL-43279  34.449  30.361   2.003
75062ION    CL-43280  27.458  29.736   3.569
75063ION    CL-43281  34.742  16.332   1.123
75064ION    CL-43282   8.946  33.568  12.760
75065ION    CL-43283  11.636   2.701  13.306
75066ION    CL-43284   5.652  25.186  12.925
75067ION    CL-43285  33.042  37.202  11.604
75068ION    CL-43286  13.401  11.363   0.717
75069ION    CL-43287  22.479  36.440  13.044
75070ION    CL-43288  37.154   9.227   0.339
75071ION    CL-43289  34.207  32.635  14.028
75072ION    CL-43290  29.818  15.917  11.877
75073ION    CL-43291   5.055  41.249   0.029
75074ION    CL-43292  22.472   7.486   3.661
75075ION    CL-43293  23.414   8.947   2.145
75076ION    CL-43294  39.528  39.345   0.548
75077ION    CL-43295  18.158   5.402   3.735
75078ION    CL-43296   3.296  26.695   3.772
75079ION    CL-43297   9.943   0.631   2.403
75080ION    CL-43298   5.085  22.664   0.830
75081ION    CL-43299  44.925  28.392   0.881
75082ION    CL-43300  44.366   8.787   5.183
75083ION    CL-43301   7.383  14.767   1.745
75084ION    CL-43302  30.082  29.483  11.326
75085ION    CL-43303  27.432   6.815   0.202
75086ION    CL-43304  10.974  39.465  13.844
75087ION    CL-43305  39.620  20.032   2.175
75088ION    CL-43306   4.246  15.705   0.621
75089ION    CL-43307   0.574   6.503   1.154
75090ION    CL-43308  10.763  26.686   1.662
75091ION    CL-43309  25.020   1.951   1.820
75092ION    CL-43310  27.071  39.972   3.107
75093ION    CL-43311  20.352  20.717  13.422
75094ION    CL-43312  19.798  10.384  13.737
75095ION    CL-43313  24.154  41.840   2.197
75096ION    CL-43314  11.541  22.921  13.027
75097ION    CL-43315  15.313  16.992   1.163
75098ION    CL-43316  38.271  37.930   2.435
75099ION    CL-43317   8.739   0.514   1.280
75100ION    CL-43318  33.824  23.216  10.943
75101ION    CL-43319   5.893  25.632  10.722
75102ION    CL-43320  35.774   1.646  10.316
75103ION    CL-43321  16.942  41.403  10.238
75104ION    CL-43322  21.531  33.562   4.033
75105ION    CL-43323  24.615  43.465  12.096
75106ION    CL-43324  19.229  42.494   4.774
75107ION    CL-43325  27.249   4.605  14.487
75108ION    CL-43326  43.244  25.275  12.792
75109ION    CL-43327  42.488  18.995  13.570
75110ION    CL-43328  31.921  38.130   2.878
75111ION    CL-43329  37.907   9.757   2.256
75112ION    CL-43330  18.587  14.378   3.976
75113ION    CL-43331  20.822  29.983   1.302
75114ION    CL-43332   9.428  13.084   1.359
75115ION    CL-43333   1.261  10.697   1.927
75116ION    CL-43334  27.991  42.381   4.614
75117ION    CL-43335  32.921  40.465  14.967
75118ION    CL-43336  15.184   7.760   3.668
75119ION    CL-43337   3.628   0.771   2.414
75120ION    CL-43338  17.283  11.498  11.111
75121ION    CL-43339  13.990  37.230   0.304
75122ION    CL-43340  22.595  25.932  11.711
75123ION    CL-43341  36.233   9.223   2.693
75124ION    CL-43342  20.097   2.722   1.300
75125ION    CL-43343  44.871  13.263  13.449
75126ION    CL-43344  20.943  13.233   5.071
75127ION    CL-43345   1.358  26.383  13.758
75128ION    CL-43346  36.330  36.138  12.676
75129ION    CL-43347  40.559  25.044   3.317
75130ION    CL-43348  12.909  24.730   1.015
75131ION    CL-43349  37.274  40.606   1.877
75132ION    CL-43350  17.159  38.034  11.773
75133ION    CL-43351  16.290   1.929  11.257
75134ION    CL-43352  24.699   2.947   3.586
75135ION    CL-43353   9.623  21.783  14.825
75136ION    CL-43354  44.274  12.058  11.297
75137ION    CL-43355  15.025  37.390  11.852
75138ION    CL-43356  31.043  17.281   4.845
75139ION    CL-43357  27.354  38.436   2.497
75140ION    CL-43358  20.319  36.978   5.026
75141ION    CL-43359  15.823  19.879   1.501
75142ION    CL-43360   2.291  15.292  13.408
75143ION    CL-43361   3.719  30.077   1.021
75144ION    CL-43362  25.324  33.052  13.893
75145ION    CL-43363  15.481  26.366   9.949
75146ION    CL-43364  33.564  29.938  14.491
75147ION    CL-43365  18.740   8.729  12.249
75148ION    CL-43366  27.432  41.149  12.355
75149ION    CL-43367  33.837   6.328   0.349
75150ION    CL-43368   5.405  24.269   5.127
75151ION    CL-43369  13.132   6.126   3.840
75152ION    CL-43370  25.609   3.661   4.256
75153ION    CL-43371  40.440  13.326  13.313
75154ION    CL-43372  20.018  32.498  10.554
75155ION    CL-43373  13.914  15.834  12.966
75156ION    CL-43374  28.563   8.077  12.436
75157ION    CL-43375  39.666  12.316  14.181
75158ION    CL-43376  33.998   4.661   2.198
75159ION    CL-43377  37.042  30.965  12.037
75160ION    CL-43378   6.883  19.829  14.711
75161ION    CL-43379   7.781  41.206   4.460
75162ION    CL-43380  31.787  25.720  12.021
75163ION    CL-43381  29.734   8.393   4.038
75164ION    CL-43382  42.610  17.189  12.558
75165ION    CL-43383  19.088  26.803   0.449
75166ION    CL-43384   8.050  30.682   1.290
75167ION    CL-43385  36.651   4.979  11.926
75168ION    CL-43386  22.019  22.957   2.789
75169ION    CL-43387   2.688  40.417   5.144
75170ION    CL-43388  41.048  38.057   4.025
75171ION    CL-43389  44.640  31.443   0.606
75172ION    CL-43390  14.510  23.190  13.423
75173ION    CL-43391  27.716  22.017  10.518
75174ION    CL-43392  22.138   2.633   4.408
75175ION    CL-43393  31.200  17.297  10.183
75176ION    CL-43394   4.585  19.983   0.182
75177ION    CL-43395  43.834   2.739  12.332
75178ION    CL-43396  25.696  23.216   3.729
75179ION    CL-43397  23.947   5.545  12.601
75180ION    CL-43398  42.823  22.948   0.470
75181ION    CL-43399  27.155  29.984  11.781
75182ION    CL-43400  43.975   5.936   0.541
75183ION    CL-43401  21.124  20.226   2.454
75184ION    CL-43402   3.348   0.336   0.833
75185ION    CL-43403  20.321  37.325  11.505
75186ION    CL-43404  37.877  39.724   3.275
75187ION    CL-43405   7.249  27.003  14.091
75188ION    CL-43406  21.004  16.352   2.755
75189ION    CL-43407  24.452  25.064   3.190
75190ION    CL-43408  23.486  39.162   2.419
75191ION    CL-43409  13.847  32.015  10.065
75192ION    CL-43410  20.058  13.054  14.488
75193ION    CL-43411  43.936   3.865   2.548
75194ION    CL-43412   6.378  26.432   0.548
75195ION    CL-43413  27.117  43.095  12.319
75196ION    CL-43414   5.108  40.441   2.249
75197ION    CL-43415  25.531  32.690   3.645
75198ION    CL-43416  17.327  16.807   3.482
75199ION    CL-43417   4.963  11.302   2.349
75200ION    CL-43418  14.569   8.973   3.522
75201ION    CL-43419  25.448  33.869  11.247
75202ION    CL-43420   6.304   4.421   5.019
75203ION    CL-43421  40.186  22.275  11.834
75204ION    CL-43422  24.027  28.463  13.056
75205ION    CL-43423   5.298  12.601   1.782
75206ION    CL-43424  27.182  17.069  12.364
75207ION    CL-43425  13.824  12.910  13.025
75208ION    CL-43426   3.001  22.763  10.834
75209ION    CL-43427   4.818  15.398   1.266
75210ION    CL-43428  42.509  36.963  13.255
75211ION    CL-43429  20.219  38.574  11.808
75212ION    CL-43430  39.150  13.888  13.403
75213ION    CL-43431  42.904  20.345  13.103
75214ION    CL-43432  33.648  18.728  13.345
75215ION    CL-43433  33.913  35.444  10.860
75216ION    CL-43434  14.419  43.400   5.099
75217ION    CL-43435   5.367   9.641  13.546
75218ION    CL-43436  27.045  41.741   4.826
75219ION    CL-43437  18.994  44.610  12.854
75220ION    CL-43438  20.751   5.853   0.152
75221ION    CL-43439  31.621  22.527  12.066
75222ION    CL-43440  37.012  14.487  14.009
75223ION    CL-43441   0.072  43.804  11.857
75224ION    CL-43442  13.734  39.024   2.160
75225ION    CL-43443  40.271  29.944  14.000
75226ION    CL-43444  13.177  35.643  13.343
75227ION    CL-43445  40.073  23.704   0.545
75228ION    CL-43446  21.864  32.508   3.913
75229ION    CL-43447  12.911  28.056  14.848
75230ION    CL-43448  10.513  13.049   4.548
75231ION    CL-43449  27.114  11.774  11.070
75232ION    CL-43450  30.303  32.477  10.276
75233ION    CL-43451  15.809  27.371   4.103
75234ION    CL-43452   4.944  20.553  11.256
75235ION    CL-43453  14.723  41.413  10.182
75236ION    CL-43454  35.079   7.304  10.655
75237ION    CL-43455  30.358  34.960  11.932
75238ION    CL-43456   2.259  44.689   3.519
75239ION    CL-43457  12.328  30.370  11.579
75240ION    CL-43458  11.444  41.778   1.783
75241ION    CL-43459  13.156  25.927   1.789
75242ION    CL-43460  29.108  27.850   3.169
75243ION    CL-43461  23.502  10.007   4.440
75244ION    CL-43462   2.889  36.563  11.182
75245ION    CL-43463  10.840  12.919  14.219
75246ION    CL-43464  23.323   0.822   2.781
75247ION    CL-43465  26.803   8.382   3.475
75248ION    CL-43466  17.223  31.589   4.626
75249ION    CL-43467   6.850  36.389  11.695
75250ION    CL-43468  18.584  35.249   2.554
75251ION    CL-43469  25.749  24.529   4.017
75252ION    CL-43470  33.379  11.138  11.310
75253ION    CL-43471  42.573  15.074   4.132
75254ION    CL-43472  28.226  14.244  13.058
75255ION    CL-43473  32.776  41.237  13.743
75256ION    CL-43474  11.639   5.958   0.819
75257ION    CL-43475  22.896  44.217   1.578
75258ION    CL-43476  26.703  34.470   3.135
75259ION    CL-43477  19.703  10.384   1.352
75260ION    CL-43478  21.161  32.803   3.233
75261ION    CL-43479  36.879  41.041   0.146
75262ION    CL-43480  21.158  12.780  14.828
75263ION    CL-43481   4.743  25.693   3.261
75264ION    CL-43482   4.945   2.535  12.056
75265ION    CL-43483  44.509  23.752  10.347
75266ION    CL-43484  41.579  41.073  12.698
75267ION    CL-43485  27.799  28.888   3.163
75268ION    CL-43486  23.577  37.939   0.873
75269ION    CL-43487  25.493  20.006   1.158
75270ION    CL-43488  12.711  13.949  13.497
75271ION    CL-43489  37.852  11.201  10.595
75272ION    CL-43490  40.736  36.502  10.950
75273ION    CL-43491  30.690   5.681   0.322
75274ION    CL-43492  17.353   2.364   1.649
75275ION    CL-43493  32.594  32.530  14.200
75276ION    CL-43494  12.528   4.977  14.744
75277ION    CL-43495  41.383  31.098   2.287
75278ION    CL-43496  38.624   0.124   5.405
75279ION    CL-43497  38.099   5.720  13.615
75280ION    CL-43498  24.958  41.431  12.520
75281ION    CL-43499  13.749  16.271   0.326
75282ION    CL-43500   4.241   7.900   1.995
75283ION    CL-43501  25.992  24.684   1.694
75284ION    CL-43502   1.857  38.300   0.274
75285ION    CL-43503   4.436   4.547   0.790
75286ION    CL-43504   3.427  32.779   3.759
75287ION    CL-43505  18.227   0.863  13.473
75288ION    CL-43506   4.785  34.096   4.897
75289ION    CL-43507  35.544  15.081  12.996
75290ION    CL-43508  13.314  34.618  13.850
75291ION    CL-43509  36.927   9.553  13.888
75292ION    CL-43510  33.860  22.301  12.753
75293ION    CL-43511  40.338   9.625  12.276
75294ION    CL-43512   8.348  34.923  14.205
75295ION    CL-43513  13.505  23.329  11.552
75296ION    CL-43514  35.357   4.381   4.160
75297ION    CL-43515  27.495  25.323  12.374
75298ION    CL-43516  36.772  12.762  11.629
75299ION    CL-43517  38.134  34.047  13.571
75300ION    CL-43518  41.744  29.605   4.286
75301ION    CL-43519  24.488  15.251  11.675
75302ION    CL-43520  39.808  27.385  11.133
75303ION    CL-43521   5.475  17.255  10.455
75304ION    CL-43522  36.577   7.761   0.826
75305ION    CL-43523  28.991   9.160   1.491
75306ION    CL-43524  29.426  34.817  12.267
75307ION    CL-43525  32.517   7.159  13.714
75308ION    CL-43526  22.117  24.993  14.175
75309ION    CL-43527  35.961   9.070  12.492
75310ION    CL-43528  20.140   1.248  12.803
75311ION    CL-43529  20.275  36.381  14.480
75312ION    CL-43530  22.723  27.859  14.869
75313ION    CL-43531  18.124  40.172   2.806
75314ION    CL-43532  18.784  22.723   3.358
75315ION    CL-43533   8.564  22.083  11.287
75316ION    CL-43534   8.917  31.882  12.674
75317ION    CL-43535  31.079  40.496  13.954
75318ION    CL-43536  24.964  13.174   1.877
75319ION    CL-43537  37.385  32.578   4.328
75320ION    CL-43538  33.038  23.220   5.051
75321ION    CL-43539  15.842  16.715  11.087
75322ION    CL-43540  36.948  18.039  14.211
75323ION    CL-43541  24.656  24.354  12.006
75324ION    CL-43542   7.322   7.398   1.680
75325ION    CL-43543   3.620   2.482   1.953
75326ION    CL-43544   0.006  25.339   4.920
75327ION    CL-43545  10.732   0.831  13.235
75328ION    CL-43546  37.082  23.425   5.062
75329ION    CL-43547  25.037  13.092  14.881
75330ION    CL-43548  19.861  33.757  11.058
75331ION    CL-43549  44.306  35.505  13.370
75332ION    CL-43550  23.968  43.829   4.621
75333ION    CL-43551  25.653  11.591  12.025
75334ION    CL-43552  38.813  40.986   4.954
75335ION    CL-43553  18.673   2.851  14.733
75336ION    CL-43554  11.050  14.095  11.107
75337ION    CL-43555  18.849  34.911   1.680
75338ION    CL-43556  39.689   0.796   3.286
75339ION    CL-43557   4.716  40.075   3.810
75340ION    CL-43558   0.599  44.163   4.050
75341ION    CL-43559  10.992  34.538  13.415
75342ION    CL-43560  19.153  26.448   1.382
75343ION    CL-43561  26.676  23.545  14.706
75344ION    CL-43562  28.476  26.646  12.382
75345ION    CL-43563   6.846  25.956  14.985
75346ION    CL-43564   9.749  18.771   0.244
75347ION    CL-43565  26.998  37.996   3.856
75348ION    CL-43566   7.350  40.913  11.006
75349ION    CL-43567   9.346   9.695  14.908
75350ION    CL-43568  31.840   7.903   2.689
75351ION    CL-43569  17.671   2.929  12.998
75352ION    CL-43570   9.231   6.119  13.348
75353ION    CL-43571  24.030  19.141   2.685
75354ION    CL-43572  30.599  41.087   0.022
75355ION    CL-43573  39.048  24.811  13.133
75356ION    CL-43574   5.452  24.390  11.615
75357ION    CL-43575  44.970  19.716  12.478
75358ION    CL-43576   5.378  18.646   2.565
75359ION    CL-43577  25.448  44.376   5.121
75360ION    CL-43578  43.053  36.237  12.834
75361ION    CL-43579  34.863  14.704   2.830
75362ION    CL-43580  10.055   4.496  14.488
75363ION    CL-43581   4.315  18.947  13.185
75364ION    CL-43582   0.309  20.214  13.556
75365ION    CL-43583  24.351  41.372  14.386
75366ION    CL-43584   3.333  10.928   3.593
75367ION    CL-43585  14.766  13.463   1.562
75368ION    CL-43586  17.851  19.428  10.748
75369ION    CL-43587  38.239  22.603   2.692
75370ION    CL-43588   3.766  21.914   2.356
75371ION    CL-43589  21.675  32.807   1.456
75372ION    CL-43590  43.589   8.502   2.494
75373ION    CL-43591  21.073   2.370   3.161
75374ION    CL-43592  21.423   8.807  12.290
75375ION    CL-43593   5.075  29.329  12.561
75376ION    CL-43594   6.312  19.813   0.531
75377ION    CL-43595   3.139   9.867  10.458
75378ION    CL-43596   7.663  12.785   4.156
75379ION    CL-43597  35.047  37.383  10.570
75380ION    CL-43598  25.358  31.430  10.994
75381ION    CL-43599  19.094   0.435   1.450
75382ION    CL-43600   9.035   9.861  11.220
75383ION    CL-43601   2.338  31.557   3.043
75384ION    CL-43602   0.944  11.797  12.935
75385ION    CL-43603  12.114   7.631   2.837
75386ION    CL-43604  10.268  30.390  11.165
75387ION    CL-43605  32.514  17.679  12.456
75388ION    CL-43606  36.077  42.930   4.750
75389ION    CL-43607  32.741  16.109  13.043
75390ION    CL-43608  32.135  30.906   4.036
75391ION    CL-43609  43.363  41.958   0.235
75392ION    CL-43610  12.181   3.825  11.676
75393ION    CL-43611   8.332   1.220  14.781
75394ION    CL-43612  41.632  35.049   2.440
75395ION    CL-43613  22.645  43.716  12.728
75396ION    CL-43614  17.420  27.750  11.232
75397ION    CL-43615  34.192  38.480   4.357
75398ION    CL-43616  42.265  28.185   0.151
75399ION    CL-43617  34.006   0.162   3.240
75400ION    CL-43618   8.060   0.447  11.705
75401ION    CL-43619  27.017  28.177  11.956
75402ION    CL-43620  30.214  22.710  14.030
75403ION    CL-43621   8.621  14.943  12.252
75404ION    CL-43622  36.198  33.998  13.151
75405ION    CL-43623   5.473  32.046   0.692
75406ION    CL-43624   0.650  40.142  14.557
75407ION    CL-43625   3.119  39.259  14.168
75408ION    CL-43626  11.588  14.751   4.145
75409ION    CL-43627  22.972  33.344   2.484
75410ION    CL-43628  31.282  26.188  11.446
75411ION    CL-43629  11.794  34.410  14.000
75412ION    CL-43630   1.560  33.831  11.551
75413ION    CL-43631   3.919  11.639  12.807
75414ION    CL-43632  11.806  35.318   3.883
75415ION    CL-43633  10.387  43.558   2.534
75416ION    CL-43634  40.935  20.744   4.168
75417ION    CL-43635   1.771   7.190  14.946
75418ION    CL-43636  43.565  40.395  14.932
75419ION    CL-43637  44.394  14.127   9.778
75420ION    CL-43638  39.602  29.522  12.462
75421ION    CL-43639  27.872  30.517   2.090
75422ION    CL-43640  10.716  38.427   3.850
75423ION    CL-43641  41.274   0.442   3.189
75424ION    CL-43642  12.343   5.398   1.257
75425ION    CL-43643  25.987  41.886   4.885
75426ION    CL-43644  33.363  31.725   0.784
75427ION    CL-43645  39.106  18.645   2.998
75428ION    CL-43646  20.548  29.672  11.540
75429ION    CL-43647  24.402  33.990  12.181
75430ION    CL-43648  39.397   9.801   1.394
75431ION    CL-43649  28.110   2.846  14.165
75432ION    CL-43650   8.619  18.129  14.348
75433ION    CL-43651  35.439  34.455  13.178
75434ION    CL-43652  11.095  12.467  13.869
75435ION    CL-43653  44.804  36.173   3.565
75436ION    CL-43654  13.115  22.230  13.476
75437ION    CL-43655  33.013   5.154  14.316
75438ION    CL-43656  38.236  27.292   0.423
75439ION    CL-43657  19.378  18.707   0.515
75440ION    CL-43658  33.925   3.468   1.651
75441ION    CL-43659  33.063  34.540  14.749
75442ION    CL-43660  34.947   9.092   1.193
75443ION    CL-43661  13.638  29.589  11.972
75444ION    CL-43662  10.437  18.608  11.657
75445ION    CL-43663  41.988  16.646  14.355
75446ION    CL-43664   6.100  36.112  13.995
75447ION    CL-43665  22.465   5.221  12.900
75448ION    CL-43666  10.124  43.878   1.615
75449ION    CL-43667  41.701  36.612  11.188
75450ION    CL-43668  30.803  28.343   0.727
75451ION    CL-43669  10.939   8.771  14.811
75452ION    CL-43670  24.741  40.452   2.698
75453ION    CL-43671  39.035  36.689  12.190
75454ION    CL-43672  33.559   7.164  13.140
75455ION    CL-43673  30.166  17.554   4.881
75456ION    CL-43674  16.641  33.339  12.373
75457ION    CL-43675  26.098  29.657   4.212
75458ION    CL-43676  12.145  42.342   4.755
75459ION    CL-43677  14.529  28.847   2.386
75460ION    CL-43678  27.923  41.838  13.626
75461ION    CL-43679  11.175  13.103  11.086
75462ION    CL-43680  25.465  40.530   4.457
75463ION    CL-43681  25.460   5.481   2.749
75464ION    CL-43682  15.228  40.842   0.404
75465ION    CL-43683  27.283  24.485   2.148
75466ION    CL-43684  11.700  17.187  11.163
75467ION    CL-43685  17.132   3.375   5.122
75468ION    CL-43686  42.447   5.215   2.934
75469ION    CL-43687  17.065  24.711   3.206
75470ION    CL-43688  15.826  10.413   2.870
75471ION    CL-43689  44.669  30.848   0.047
75472ION    CL-43690   9.516  14.872   3.668
75473ION    CL-43691  35.643  38.373   2.857
75474ION    CL-43692  20.564  18.514  14.095
75475ION    CL-43693  18.281  19.318   1.984
75476ION    CL-43694   8.828  23.497   0.771
75477ION    CL-43695  39.134  17.600  11.500
75478ION    CL-43696  18.636  43.286  14.038
75479ION    CL-43697   4.632  32.312   3.969
75480ION    CL-43698   0.541  17.846  11.208
75481ION    CL-43699  42.438  41.948  10.901
75482ION    CL-43700  15.719   0.238  13.050
75483ION    CL-43701   4.408  43.540  10.441
75484ION    CL-43702  24.993  11.776  13.081
75485ION    CL-43703  11.985  27.024   0.217
75486ION    CL-43704   3.426  28.295   3.951
75487ION    CL-43705  44.155  12.411  12.225
75488ION    CL-43706  28.039  28.600  12.527
75489ION    CL-43707  43.944   0.402  12.559
75490ION    CL-43708  13.021  20.570   4.092
75491ION    CL-43709  14.196   3.690  13.383
75492ION    CL-43710  27.601  23.415  11.823
75493ION    CL-43711   7.534  35.716   2.751
75494ION    CL-43712  38.356  42.420  11.436
75495ION    CL-43713   8.839   9.632  10.262
75496ION    CL-43714  22.889   4.504  12.338
75497ION    CL-43715  19.450  24.312  12.671
75498ION    CL-43716  10.395  41.545  13.324
75499ION    CL-43717   0.721   0.641  14.199
75500ION    CL-43718  10.151   8.226   4.231
75501ION    CL-43719  25.831   1.331  11.284
75502ION    CL-43720  34.864  44.372   0.734
75503ION    CL-43721  30.110  30.116  12.106
75504ION    CL-43722  27.477   6.610  14.224
75505ION    CL-43723  44.838  40.844   0.191
75506ION    CL-43724  30.875  24.360  10.400
75507ION    CL-43725   3.279  35.402   3.938
75508ION    CL-43726  31.878  13.551  14.121
75509ION    CL-43727  10.128  23.204   1.246
75510ION    CL-43728  42.041   2.411   2.764
75511ION    CL-43729  10.663  25.040  11.094
75512ION    CL-43730  20.608  30.779   0.342
75513ION    CL-43731  19.104  36.050  12.023
75514ION    CL-43732  35.520  28.145   3.815
75515ION    CL-43733  16.261   0.581   5.359
75516ION    CL-43734  13.119  35.338  12.065
75517ION    CL-43735  28.902  41.855   3.198
75518ION    CL-43736  11.163  19.677   0.309
75519ION    CL-43737  36.505  36.460   3.151
75520ION    CL-43738  28.298  40.480   4.911
75521ION    CL-43739   7.673  36.948  11.793
75522ION    CL-43740  22.249   5.712  12.056
75523ION    CL-43741   5.891  30.607   4.153
75524ION    CL-43742  21.737  38.783   2.076
75525ION    CL-43743  14.828   2.062  12.723
75526ION    CL-43744   9.106  37.035  12.028
75527ION    CL-43745  18.487  17.740  12.627
75528ION    CL-43746  13.272  34.217  12.457
75529ION    CL-43747  26.017   3.754  11.510
75530ION    CL-43748   6.115   0.996  13.260
75531ION    CL-43749   4.174  17.799  14.956
75532ION    CL-43750  22.849   0.042   2.755
75533ION    CL-43751  42.196  18.775   0.012
75534ION    CL-43752  20.646  14.541   0.080
75535ION    CL-43753   8.815  28.000   5.119
75536ION    CL-43754   6.882   1.367  14.836
75537ION    CL-43755   5.216  39.523  13.313
75538ION    CL-43756  18.289  26.443  13.061
75539ION    CL-43757  18.874  14.111  14.113
75540ION    CL-43758  22.567  32.108  10.440
75541ION    CL-43759  43.464  27.233   4.856
75542ION    CL-43760  17.690  42.481   3.414
75543ION    CL-43761  18.622  27.113   1.928
75544ION    CL-43762  38.360  18.778   0.812
75545ION    CL-43763  33.867  10.945  14.992
75546ION    CL-43764  41.760   4.645  11.553
75547ION    CL-43765  14.091  22.824   4.977
75548ION    CL-43766  42.238  29.758   2.182
75549ION    CL-43767  26.046   1.148  10.672
75550ION    CL-43768  18.775  40.026   5.149
75551ION    CL-43769  31.745  44.772   4.286
75552ION    CL-43770  15.819  31.446   2.263
75553ION    CL-43771  19.389   7.891  14.460
75554ION    CL-43772   2.631  23.247  11.632
75555ION    CL-43773  12.833   2.512   4.778
75556ION    CL-43774   9.124  15.309  10.557
75557ION    CL-43775  29.460  21.283  11.148
75558ION    CL-43776  27.150  35.814   4.147
75559ION    CL-43777  33.746  23.800   2.211
75560ION    CL-43778  27.331  17.271   4.590
75561ION    CL-43779  19.619  39.945  13.027
75562ION    CL-43780  12.757  15.489   2.542
75563ION    CL-43781   2.207   0.132  11.998
75564ION    CL-43782   6.384   5.196  13.325
75565ION    CL-43783  40.797  41.661   1.642
75566ION    CL-43784  20.718   3.217  13.946
75567ION    CL-43785  14.951  30.628  10.959
75568ION    CL-43786  21.188   9.938   3.593
75569ION    CL-43787   6.931  29.490  14.338
75570ION    CL-43788  10.354  21.596   3.484
75571ION    CL-43789   2.778   5.773   3.218
75572ION    CL-43790  15.086  35.454  11.182
75573ION    CL-43791  27.941  36.201   2.423
75574ION    CL-43792  22.283  40.384  12.034
75575ION    CL-43793  19.810  40.891  11.605
75576ION    CL-43794  16.503  23.633  11.408
75577ION    CL-43795  15.832  33.271   0.059
75578ION    CL-43796  31.777  38.360  11.701
75579ION    CL-43797   3.043  34.945  12.220
75580ION    CL-43798  33.174   2.166  13.477
75581ION    CL-43799  23.570   5.787   0.421
75582ION    CL-43800   9.044   7.687  12.528
75583ION    CL-43801  21.073   6.663  14.020
75584ION    CL-43802  11.611   6.975   2.274
75585ION    CL-43803  40.524  43.544  12.161
75586ION    CL-43804   2.041  43.022   0.239
75587ION    CL-43805  30.762  28.909  10.219
75588ION    CL-43806  28.480  12.123   0.012
75589ION    CL-43807  26.994   5.495  13.880
75590ION    CL-43808  25.366  14.470   2.307
75591ION    CL-43809  17.913  44.629  14.605
75592ION    CL-43810   6.959  23.201   4.894
75593ION    CL-43811  18.973  33.876  11.241
75594ION    CL-43812  16.307  10.379  10.949
75595ION    CL-43813  31.640  24.114  14.547
75596ION    CL-43814  11.054  24.075  11.532
75597ION    CL-43815  12.011  25.366  13.767
75598ION    CL-43816  17.871   4.846  13.592
75599ION    CL-43817  12.870  41.865  14.974
75600ION    CL-43818  36.554  31.528   4.107
75601ION    CL-43819  21.454  44.331   0.564
75602ION    CL-43820  27.996  12.624  10.621
75603ION    CL-43821  15.828  16.460  12.441
75604ION    CL-43822  19.183  24.465   0.484
75605ION    CL-43823  44.898  32.440  11.633
75606ION    CL-43824   5.835  11.141  12.908
75607ION    CL-43825   6.899  42.578  12.964
75608ION    CL-43826  34.976   8.807   1.995
75609ION    CL-43827  28.328  41.152  12.415
75610ION    CL-43828  41.439  36.971  14.893
75611ION    CL-43829   5.839  26.167   1.348
75612ION    CL-43830   7.353   3.455   0.439
75613ION    CL-43831  10.583  23.283  14.864
75614ION    CL-43832  40.761  34.502   0.322
75615ION    CL-43833  11.941  14.536  11.646
75616ION    CL-43834  28.617   2.828   0.027
75617ION    CL-43835  14.172  23.474  12.121
75618ION    CL-43836  28.901  17.280   2.630
75619ION    CL-43837   0.626  37.255  14.616
75620ION    CL-43838  44.314   1.485   0.507
75621ION    CL-43839   1.075   3.539   2.892
75622ION    CL-43840  27.427  21.301   1.343
75623ION    CL-43841  16.776   4.762   2.781
75624ION    CL-43842   6.149  14.113   1.633
75625ION    CL-43843  38.409  22.515   1.703
75626ION    CL-43844   6.523  40.339  11.210
75627ION    CL-43845  41.695  12.895  13.443
75628ION    CL-43846  12.906  32.105   1.243
75629ION    CL-43847   9.364  17.312  13.844
75630ION    CL-43848  28.164  13.363  12.078
75631ION    CL-43849  37.935   2.342   1.650
75632ION    CL-43850  43.915  32.186   0.815
75633ION    CL-43851   9.999   3.328   4.112
75634ION    CL-43852  32.774  26.539  12.128
75635ION    CL-43853  43.745  25.946  10.766
75636ION    CL-43854  38.550  14.722   3.230
75637ION    CL-43855  15.293  42.515   0.674
75638ION    CL-43856  26.089  44.311  12.926
75639ION    CL-43857  23.331  23.033   9.903
  45.00000  45.00000  15.00000
